Built with Packmol
22140
    1LIG      O    1   2.627   2.620   0.038
    1LIG      C    2   2.692   2.670   0.126
    1LIG     C1    3   2.621   2.617   0.219
    1LIG     O1    4   2.685   2.667   0.308
    1LIG     C2    5   2.620   2.618   0.396
    1LIG     C3    6   2.691   2.673   0.487
    1LIG     O2    7   2.627   2.625   0.575
    1LIG     C4    8   2.690   2.675   0.664
    1LIG     C5    9   2.618   2.620   0.756
    1LIG     O3   10   2.681   2.670   0.844
    1LIG     C6   11   2.616   2.621   0.932
    1LIG     C7   12   2.688   2.677   1.023
    1LIG     O4   13   2.624   2.629   1.112
    1LIG     C8   14   2.688   2.679   1.200
    1LIG     C9   15   2.615   2.623   1.291
    1LIG     O5   16   2.678   2.673   1.379
    1LIG    C10   17   2.614   2.624   1.468
    1LIG    C11   18   2.687   2.680   1.559
    1LIG     O6   19   2.623   2.631   1.647
    1LIG    C12   20   2.686   2.680   1.735
    1LIG    C13   21   2.613   2.625   1.827
    1LIG     O7   22   2.677   2.674   1.915
    1LIG    C14   23   2.613   2.625   2.003
    1LIG    C15   24   2.685   2.680   2.095
    1LIG     O8   25   2.621   2.631   2.184
    1LIG    C16   26   2.685   2.681   2.272
    1LIG    C17   27   2.614   2.626   2.363
    1LIG     O9   28   2.677   2.675   2.452
    1LIG    C18   29   2.612   2.626   2.540
    1LIG    C19   30   2.684   2.681   2.631
    1LIG    O10   31   2.620   2.632   2.720
    1LIG    C20   32   2.684   2.682   2.807
    1LIG    C21   33   2.612   2.626   2.899
    1LIG    O11   34   2.676   2.675   2.987
    1LIG    C22   35   2.612   2.626   3.075
    1LIG    C23   36   2.684   2.682   3.166
    1LIG    O12   37   2.620   2.633   3.254
    1LIG    C24   38   2.684   2.682   3.343
    1LIG    C25   39   2.612   2.627   3.435
    1LIG    O13   40   2.675   2.676   3.524
    1LIG    C26   41   2.611   2.627   3.611
    1LIG    C27   42   2.683   2.682   3.703
    1LIG    O14   43   2.619   2.633   3.791
    1LIG    C28   44   2.684   2.682   3.879
    1LIG    C29   45   2.612   2.626   3.971
    1LIG    O15   46   2.676   2.675   4.059
    1LIG    C30   47   2.612   2.626   4.147
    1LIG    C31   48   2.684   2.681   4.238
    1LIG    O16   49   2.620   2.632   4.326
    1LIG    C32   50   2.684   2.681   4.415
    1LIG    C33   51   2.612   2.626   4.506
    1LIG    O17   52   2.676   2.675   4.595
    1LIG    C34   53   2.612   2.625   4.683
    1LIG    C35   54   2.683   2.680   4.774
    1LIG    O18   55   2.620   2.631   4.863
    1LIG    C36   56   2.684   2.680   4.951
    1LIG    C37   57   2.613   2.625   5.042
    1LIG    O19   58   2.677   2.674   5.131
    1LIG    C38   59   2.613   2.624   5.219
    1LIG    C39   60   2.684   2.679   5.311
    1LIG    O20   61   2.621   2.630   5.399
    1LIG    C40   62   2.685   2.679   5.487
    1LIG    C41   63   2.614   2.624   5.579
    1LIG    O21   64   2.677   2.673   5.667
    1LIG    C42   65   2.613   2.623   5.755
    1LIG    C43   66   2.685   2.678   5.846
    1LIG    O22   67   2.622   2.629   5.935
    1LIG    C44   68   2.686   2.678   6.023
    1LIG    C45   69   2.614   2.622   6.114
    1LIG    O23   70   2.677   2.671   6.202
    1LIG    C46   71   2.614   2.622   6.291
    1LIG    C47   72   2.686   2.678   6.382
    1LIG    O24   73   2.623   2.628   6.470
    1LIG    C48   74   2.686   2.677   6.558
    1LIG    C49   75   2.614   2.621   6.650
    1LIG    O25   76   2.678   2.670   6.738
    1LIG    C50   77   2.615   2.621   6.826
    1LIG    C51   78   2.687   2.677   6.917
    1LIG    O26   79   2.623   2.627   7.005
    1LIG    C52   80   2.687   2.676   7.094
    1LIG    C53   81   2.615   2.619   7.185
    1LIG    O27   82   2.679   2.669   7.273
    1LIG    C54   83   2.616   2.619   7.362
    1LIG    C55   84   2.688   2.675   7.454
    1LIG    O28   85   2.624   2.625   7.542
    1LIG    C56   86   2.688   2.674   7.630
    1LIG    C57   87   2.617   2.618   7.723
    1LIG    O29   88   2.681   2.667   7.811
    1LIG    C58   89   2.617   2.617   7.899
    1LIG    C59   90   2.688   2.672   7.991
    1LIG      H   91   2.689   2.780   0.125
    1LIG     H1   92   2.797   2.639   0.125
    1LIG     H2   93   2.624   2.508   0.219
    1LIG     H3   94   2.516   2.648   0.218
    1LIG     H4   95   2.622   2.508   0.397
    1LIG     H5   96   2.515   2.649   0.396
    1LIG     H6   97   2.689   2.783   0.486
    1LIG     H7   98   2.796   2.642   0.487
    1LIG     H8   99   2.688   2.784   0.664
    1LIG     H9  100   2.795   2.644   0.665
    1LIG    H10  101   2.621   2.511   0.755
    1LIG    H11  102   2.513   2.651   0.754
    1LIG    H12  103   2.619   2.512   0.933
    1LIG    H13  104   2.511   2.652   0.933
    1LIG    H14  105   2.685   2.787   1.022
    1LIG    H15  106   2.793   2.646   1.023
    1LIG    H16  107   2.685   2.788   1.201
    1LIG    H17  108   2.793   2.648   1.202
    1LIG    H18  109   2.618   2.514   1.290
    1LIG    H19  110   2.510   2.654   1.290
    1LIG    H20  111   2.617   2.514   1.469
    1LIG    H21  112   2.509   2.655   1.469
    1LIG    H22  113   2.684   2.789   1.558
    1LIG    H23  114   2.792   2.649   1.558
    1LIG    H24  115   2.683   2.789   1.736
    1LIG    H25  116   2.791   2.649   1.737
    1LIG    H26  117   2.616   2.515   1.826
    1LIG    H27  118   2.508   2.656   1.825
    1LIG    H28  119   2.616   2.515   2.004
    1LIG    H29  120   2.508   2.656   2.004
    1LIG    H30  121   2.682   2.790   2.094
    1LIG    H31  122   2.790   2.649   2.094
    1LIG    H32  123   2.682   2.791   2.272
    1LIG    H33  124   2.790   2.650   2.273
    1LIG    H34  125   2.616   2.517   2.362
    1LIG    H35  126   2.508   2.657   2.362
    1LIG    H36  127   2.615   2.516   2.541
    1LIG    H37  128   2.507   2.657   2.541
    1LIG    H38  129   2.681   2.791   2.630
    1LIG    H39  130   2.789   2.650   2.630
    1LIG    H40  131   2.682   2.791   2.809
    1LIG    H41  132   2.790   2.651   2.809
    1LIG    H42  133   2.615   2.517   2.897
    1LIG    H43  134   2.507   2.657   2.897
    1LIG    H44  135   2.615   2.517   3.076
    1LIG    H45  136   2.507   2.657   3.076
    1LIG    H46  137   2.681   2.792   3.165
    1LIG    H47  138   2.789   2.651   3.165
    1LIG    H48  139   2.681   2.791   3.344
    1LIG    H49  140   2.789   2.651   3.344
    1LIG    H50  141   2.614   2.517   3.434
    1LIG    H51  142   2.507   2.658   3.434
    1LIG    H52  143   2.614   2.517   3.612
    1LIG    H53  144   2.506   2.658   3.612
    1LIG    H54  145   2.680   2.792   3.702
    1LIG    H55  146   2.788   2.651   3.701
    1LIG    H56  147   2.681   2.791   3.880
    1LIG    H57  148   2.789   2.651   3.880
    1LIG    H58  149   2.615   2.517   3.970
    1LIG    H59  150   2.507   2.657   3.970
    1LIG    H60  151   2.615   2.516   4.148
    1LIG    H61  152   2.507   2.657   4.148
    1LIG    H62  153   2.681   2.791   4.237
    1LIG    H63  154   2.789   2.650   4.237
    1LIG    H64  155   2.681   2.790   4.416
    1LIG    H65  156   2.789   2.650   4.416
    1LIG    H66  157   2.615   2.516   4.505
    1LIG    H67  158   2.507   2.657   4.505
    1LIG    H68  159   2.615   2.516   4.683
    1LIG    H69  160   2.507   2.656   4.683
    1LIG    H70  161   2.680   2.790   4.773
    1LIG    H71  162   2.789   2.650   4.773
    1LIG    H72  163   2.681   2.790   4.952
    1LIG    H73  164   2.789   2.650   4.951
    1LIG    H74  165   2.616   2.516   5.041
    1LIG    H75  166   2.508   2.656   5.042
    1LIG    H76  167   2.616   2.515   5.219
    1LIG    H77  168   2.507   2.655   5.220
    1LIG    H78  169   2.681   2.788   5.310
    1LIG    H79  170   2.789   2.648   5.309
    1LIG    H80  171   2.682   2.789   5.488
    1LIG    H81  172   2.790   2.649   5.488
    1LIG    H82  173   2.617   2.514   5.577
    1LIG    H83  174   2.508   2.654   5.578
    1LIG    H84  175   2.617   2.513   5.756
    1LIG    H85  176   2.508   2.653   5.756
    1LIG    H86  177   2.682   2.788   5.845
    1LIG    H87  178   2.791   2.648   5.845
    1LIG    H88  179   2.683   2.788   6.024
    1LIG    H89  180   2.791   2.648   6.024
    1LIG    H90  181   2.617   2.513   6.113
    1LIG    H91  182   2.509   2.653   6.113
    1LIG    H92  183   2.617   2.512   6.292
    1LIG    H93  184   2.509   2.652   6.292
    1LIG    H94  185   2.683   2.787   6.381
    1LIG    H95  186   2.792   2.647   6.381
    1LIG    H96  187   2.683   2.786   6.560
    1LIG    H97  188   2.791   2.646   6.560
    1LIG    H98  189   2.617   2.511   6.648
    1LIG    H99  190   2.509   2.651   6.649
    1LIG   H100  191   2.618   2.511   6.827
    1LIG   H101  192   2.510   2.651   6.828
    1LIG   H102  193   2.684   2.786   6.916
    1LIG   H103  194   2.792   2.646   6.916
    1LIG   H104  195   2.684   2.785   7.095
    1LIG   H105  196   2.792   2.645   7.095
    1LIG   H106  197   2.619   2.510   7.184
    1LIG   H107  198   2.510   2.650   7.184
    1LIG   H108  199   2.619   2.510   7.363
    1LIG   H109  200   2.511   2.650   7.363
    1LIG   H110  201   2.684   2.784   7.453
    1LIG   H111  202   2.793   2.644   7.452
    1LIG   H112  203   2.685   2.784   7.631
    1LIG   H113  204   2.794   2.644   7.631
    1LIG   H114  205   2.621   2.509   7.721
    1LIG   H115  206   2.512   2.649   7.722
    1LIG   H116  207   2.621   2.507   7.899
    1LIG   H117  208   2.512   2.649   7.900
    1LIG   H118  209   2.793   2.642   7.991
    1LIG   H119  210   2.641   2.635   8.060
    1MOL     C1  211   1.970   2.848   4.024
    1MOL     H1  212   1.865   2.818   4.032
    1MOL     O1  213   2.003   2.907   4.148
    1MOL     C2  214   2.136   2.960   4.157
    1MOL     H2  215   2.209   2.878   4.145
    1MOL     C3  216   2.154   3.017   4.297
    1MOL     H3  217   2.261   3.038   4.312
    1MOL     H4  218   2.123   2.940   4.370
    1MOL     O2  219   2.076   3.135   4.310
    1MOL     H5  220   2.099   3.177   4.394
    1MOL     C4  221   1.989   2.948   3.909
    1MOL     H6  222   1.920   3.032   3.928
    1MOL     O3  223   1.955   2.897   3.782
    1MOL     H7  224   1.987   2.805   3.773
    1MOL     C5  225   2.131   3.003   3.911
    1MOL     H8  226   2.202   2.921   3.892
    1MOL     O4  227   2.146   3.103   3.810
    1MOL     H9  228   2.098   3.069   3.732
    1MOL     C6  229   2.161   3.065   4.046
    1MOL    H10  230   2.093   3.150   4.062
    1MOL     O5  231   2.297   3.109   4.047
    1MOL     C7  232   2.326   3.236   4.103
    1MOL    H11  233   2.236   3.278   4.150
    1MOL     O6  234   2.420   3.224   4.207
    1MOL     C8  235   2.548   3.172   4.167
    1MOL    H12  236   2.534   3.073   4.121
    1MOL     C9  237   2.634   3.153   4.294
    1MOL    H13  238   2.706   3.073   4.274
    1MOL    H14  239   2.567   3.119   4.374
    1MOL     O7  240   2.699   3.271   4.339
    1MOL    H15  241   2.787   3.274   4.296
    1MOL    C10  242   2.378   3.328   3.992
    1MOL    H16  243   2.390   3.428   4.034
    1MOL     O8  244   2.290   3.342   3.882
    1MOL    H17  245   2.257   3.253   3.855
    1MOL    C11  246   2.516   3.280   3.945
    1MOL    H18  247   2.506   3.181   3.898
    1MOL     O9  248   2.573   3.372   3.852
    1MOL    H19  249   2.500   3.395   3.791
    1MOL    C12  250   2.609   3.269   4.065
    1MOL    H20  251   2.619   3.367   4.113
    1MOL    O10  252   2.737   3.224   4.019
    1MOL    C13  253   2.849   3.305   4.046
    1MOL    H21  254   2.817   3.405   4.078
    1MOL    O11  255   2.926   3.254   4.154
    1MOL    C14  256   2.980   3.122   4.130
    1MOL    H22  257   2.897   3.053   4.108
    1MOL    C15  258   3.049   3.074   4.259
    1MOL    H23  259   3.043   2.964   4.263
    1MOL    H24  260   2.991   3.113   4.344
    1MOL    O12  261   3.183   3.118   4.274
    1MOL    H25  262   3.240   3.047   4.239
    1MOL    C16  263   2.934   3.315   3.919
    1MOL    H26  264   3.016   3.385   3.938
    1MOL    O13  265   2.862   3.365   3.807
    1MOL    H27  266   2.767   3.343   3.817
    1MOL    C17  267   2.996   3.178   3.888
    1MOL    H28  268   2.916   3.106   3.865
    1MOL    O14  269   3.085   3.188   3.777
    1MOL    H29  270   3.037   3.238   3.708
    1MOL    C18  271   3.074   3.129   4.009
    1MOL    H30  272   3.154   3.200   4.032
    1MOL    O15  273   3.129   3.001   3.977
    1MOL    C19  274   3.268   2.983   3.992
    1MOL    H31  275   3.319   3.079   4.006
    1MOL    O16  276   3.298   2.907   4.108
    1MOL    C20  277   3.241   2.774   4.109
    1MOL    H32  278   3.132   2.783   4.098
    1MOL    C21  279   3.271   2.708   4.245
    1MOL    H33  280   3.188   2.640   4.268
    1MOL    H34  281   3.269   2.788   4.321
    1MOL    O17  282   3.396   2.643   4.253
    1MOL    H35  283   3.380   2.549   4.232
    1MOL    C22  284   3.320   2.912   3.866
    1MOL    H36  285   3.429   2.905   3.874
    1MOL    O18  286   3.292   2.983   3.747
    1MOL    H37  287   3.208   3.032   3.757
    1MOL    C23  288   3.264   2.770   3.860
    1MOL    H38  289   3.155   2.774   3.849
    1MOL    O19  290   3.321   2.698   3.751
    1MOL    H39  291   3.316   2.758   3.674
    1MOL    C24  292   3.298   2.696   3.989
    1MOL    H40  293   3.406   2.690   4.001
    1MOL    O20  294   3.241   2.565   3.982
    1MOL    C25  295   3.326   2.454   4.000
    1MOL    H41  296   3.431   2.485   3.998
    1MOL    O21  297   3.306   2.394   4.127
    1MOL    C26  298   3.173   2.343   4.149
    1MOL    H42  299   3.101   2.425   4.143
    1MOL    C27  300   3.167   2.286   4.290
    1MOL    H43  301   3.062   2.266   4.314
    1MOL    H44  302   3.205   2.362   4.360
    1MOL    O22  303   3.245   2.167   4.296
    1MOL    H45  304   3.236   2.130   4.385
    1MOL    C28  305   3.298   2.354   3.888
    1MOL    H46  306   3.368   2.270   3.900
    1MOL    O23  307   3.320   2.406   3.758
    1MOL    H47  308   3.297   2.501   3.757
    1MOL    C29  309   3.156   2.299   3.902
    1MOL    H48  310   3.084   2.382   3.889
    1MOL    O24  311   3.132   2.199   3.804
    1MOL    H49  312   3.170   2.233   3.721
    1MOL    C30  313   3.137   2.239   4.041
    1MOL    H50  314   3.201   2.151   4.051
    1MOL    O25  315   3.000   2.202   4.053
    1MOL    C31  316   2.969   2.077   4.115
    1MOL    H51  317   3.057   2.038   4.166
    1MOL    O26  318   2.871   2.096   4.215
    1MOL    C32  319   2.744   2.147   4.168
    1MOL    H52  320   2.761   2.243   4.117
    1MOL    C33  321   2.655   2.172   4.290
    1MOL    H53  322   2.579   2.246   4.262
    1MOL    H54  323   2.719   2.218   4.367
    1MOL    O27  324   2.595   2.055   4.341
    1MOL    H55  325   2.499   2.066   4.334
    1MOL    C34  326   2.919   1.979   4.007
    1MOL    H56  327   2.905   1.882   4.055
    1MOL    O28  328   3.011   1.958   3.902
    1MOL    H57  329   3.039   2.045   3.865
    1MOL    C35  330   2.784   2.026   3.953
    1MOL    H58  331   2.797   2.122   3.902
    1MOL    O29  332   2.730   1.930   3.862
    1MOL    H59  333   2.805   1.902   3.807
    1MOL    C36  334   2.686   2.046   4.068
    1MOL    H60  335   2.671   1.951   4.122
    1MOL    O30  336   2.561   2.091   4.014
    1MOL    C37  337   2.454   2.000   4.017
    1MOL    H61  338   2.490   1.898   4.036
    1MOL    O31  339   2.364   2.028   4.122
    1MOL    C38  340   2.303   2.158   4.117
    1MOL    H62  341   2.381   2.235   4.114
    1MOL    C39  342   2.226   2.174   4.246
    1MOL    H63  343   2.158   2.088   4.259
    1MOL    H64  344   2.168   2.266   4.245
    1MOL    O32  345   2.324   2.176   4.351
    1MOL    H65  346   2.280   2.198   4.434
    1MOL    C40  347   2.380   2.006   3.883
    1MOL    H66  348   2.302   1.929   3.886
    1MOL    O33  349   2.461   1.982   3.770
    1MOL    H67  350   2.555   1.981   3.796
    1MOL    C41  351   2.311   2.142   3.869
    1MOL    H68  352   2.388   2.220   3.865
    1MOL    O34  353   2.232   2.145   3.750
    1MOL    H69  354   2.290   2.111   3.679
    1MOL    C42  355   2.220   2.169   3.988
    1MOL    H70  356   2.139   2.094   3.990
    1MOL    O35  357   2.165   2.300   3.972
    1MOL    C43  358   2.025   2.316   3.976
    1MOL    H71  359   1.975   2.219   3.979
    1MOL    O36  360   1.984   2.383   4.094
    1MOL    C44  361   2.035   2.516   4.111
    1MOL    H72  362   2.145   2.513   4.113
    1MOL    C45  363   1.985   2.565   4.245
    1MOL    H73  364   1.877   2.545   4.252
    1MOL    H74  365   2.002   2.673   4.253
    1MOL    O37  366   2.058   2.495   4.347
    1MOL    H75  367   2.020   2.521   4.432
    1MOL    C46  368   1.981   2.396   3.853
    1MOL    H76  369   1.872   2.401   3.853
    1MOL    O38  370   2.018   2.337   3.730
    1MOL    H77  371   2.104   2.290   3.740
    1MOL    C47  372   2.035   2.539   3.862
    1MOL    H78  373   2.145   2.536   3.860
    1MOL    O39  374   1.987   2.616   3.752
    1MOL    H79  375   1.998   2.560   3.674
    1MOL    C48  376   1.991   2.605   3.992
    1MOL    H80  377   1.882   2.615   3.992
    1MOL    O40  378   2.052   2.734   3.999
    2SOL     OW  379   0.230   0.628   0.113
    2SOL    HW1  380   0.137   0.626   0.150
    2SOL    HW2  381   0.231   0.589   0.021
    3SOL     OW  382   0.225   0.275   0.996
    3SOL    HW1  383   0.260   0.258   1.088
    3SOL    HW2  384   0.137   0.230   0.984
    4SOL     OW  385   0.019   0.368   0.647
    4SOL    HW1  386  -0.063   0.411   0.686
    4SOL    HW2  387  -0.009   0.295   0.584
    5SOL     OW  388   0.569   1.275   1.165
    5SOL    HW1  389   0.476   1.268   1.128
    5SOL    HW2  390   0.580   1.364   1.209
    6SOL     OW  391   1.555   1.511   0.703
    6SOL    HW1  392   1.498   1.495   0.784
    6SOL    HW2  393   1.496   1.521   0.623
    7SOL     OW  394   1.135   0.703   0.717
    7SOL    HW1  395   1.192   0.781   0.692
    7SOL    HW2  396   1.075   0.729   0.793
    8SOL     OW  397   1.755   0.607   0.231
    8SOL    HW1  398   1.743   0.594   0.132
    8SOL    HW2  399   1.725   0.526   0.280
    9SOL     OW  400   0.768   1.144   1.023
    9SOL    HW1  401   0.690   1.161   1.083
    9SOL    HW2  402   0.802   1.231   0.987
   10SOL     OW  403   0.850   0.798   1.823
   10SOL    HW1  404   0.846   0.874   1.888
   10SOL    HW2  405   0.872   0.834   1.732
   11SOL     OW  406   0.685   1.012   0.665
   11SOL    HW1  407   0.754   0.996   0.735
   11SOL    HW2  408   0.612   1.069   0.703
   12SOL     OW  409   0.686   1.161   1.803
   12SOL    HW1  410   0.746   1.240   1.817
   12SOL    HW2  411   0.600   1.192   1.762
   13SOL     OW  412   0.335   1.435   1.061
   13SOL    HW1  413   0.257   1.404   1.008
   13SOL    HW2  414   0.393   1.493   1.004
   14SOL     OW  415   1.460   1.505   1.339
   14SOL    HW1  416   1.484   1.599   1.365
   14SOL    HW2  417   1.444   1.451   1.421
   15SOL     OW  418   0.438   0.392   1.499
   15SOL    HW1  419   0.520   0.336   1.508
   15SOL    HW2  420   0.357   0.334   1.503
   16SOL     OW  421   1.603   0.447   0.737
   16SOL    HW1  422   1.529   0.493   0.687
   16SOL    HW2  423   1.654   0.515   0.790
   17SOL     OW  424   0.231   1.713   0.483
   17SOL    HW1  425   0.265   1.790   0.537
   17SOL    HW2  426   0.275   1.713   0.393
   18SOL     OW  427   1.127   1.341   1.690
   18SOL    HW1  428   1.174   1.341   1.778
   18SOL    HW2  429   1.079   1.254   1.679
   19SOL     OW  430   0.230   1.434   0.538
   19SOL    HW1  431   0.204   1.530   0.538
   19SOL    HW2  432   0.159   1.380   0.583
   20SOL     OW  433   0.240   1.091   0.886
   20SOL    HW1  434   0.254   1.007   0.938
   20SOL    HW2  435   0.185   1.155   0.941
   21SOL     OW  436   0.620   1.786   1.439
   21SOL    HW1  437   0.528   1.769   1.474
   21SOL    HW2  438   0.648   1.878   1.465
   22SOL     OW  439   0.606   0.964   0.123
   22SOL    HW1  440   0.613   1.048   0.069
   22SOL    HW2  441   0.652   0.977   0.211
   23SOL     OW  442   1.594   0.114   1.480
   23SOL    HW1  443   1.576   0.181   1.408
   23SOL    HW2  444   1.591   0.160   1.569
   24SOL     OW  445   0.122   0.643   0.563
   24SOL    HW1  446   0.077   0.555   0.580
   24SOL    HW2  447   0.121   0.697   0.647
   25SOL     OW  448   1.842   1.767   0.359
   25SOL    HW1  449   1.896   1.738   0.439
   25SOL    HW2  450   1.872   1.857   0.330
   26SOL     OW  451   0.027   1.596   0.117
   26SOL    HW1  452   0.008   1.500   0.138
   26SOL    HW2  453  -0.006   1.654   0.192
   27SOL     OW  454   1.689   0.922   0.612
   27SOL    HW1  455   1.784   0.893   0.620
   27SOL    HW2  456   1.681   0.987   0.537
   28SOL     OW  457   1.641   1.108   0.432
   28SOL    HW1  458   1.727   1.110   0.380
   28SOL    HW2  459   1.655   1.155   0.520
   29SOL     OW  460   0.113   0.737   1.597
   29SOL    HW1  461   0.201   0.724   1.642
   29SOL    HW2  462   0.100   0.834   1.575
   30SOL     OW  463   0.613   1.365   0.726
   30SOL    HW1  464   0.564   1.278   0.735
   30SOL    HW2  465   0.590   1.408   0.639
   31SOL     OW  466   1.293   1.228   1.423
   31SOL    HW1  467   1.330   1.155   1.365
   31SOL    HW2  468   1.345   1.233   1.508
   32SOL     OW  469   0.809   0.004   0.502
   32SOL    HW1  470   0.849   0.095   0.493
   32SOL    HW2  471   0.709   0.012   0.508
   33SOL     OW  472   0.197   0.976   1.264
   33SOL    HW1  473   0.286   0.931   1.250
   33SOL    HW2  474   0.124   0.911   1.245
   34SOL     OW  475   1.525   0.999   0.190
   34SOL    HW1  476   1.462   0.923   0.203
   34SOL    HW2  477   1.573   1.017   0.276
   35SOL     OW  478   1.187   1.792   1.616
   35SOL    HW1  479   1.211   1.852   1.540
   35SOL    HW2  480   1.194   1.697   1.586
   36SOL     OW  481   0.317   0.251   1.801
   36SOL    HW1  482   0.388   0.322   1.807
   36SOL    HW2  483   0.229   0.290   1.829
   37SOL     OW  484   1.466   1.417   0.953
   37SOL    HW1  485   1.407   1.423   1.033
   37SOL    HW2  486   1.451   1.329   0.907
   38SOL     OW  487   1.667   1.714   0.572
   38SOL    HW1  488   1.626   1.691   0.484
   38SOL    HW2  489   1.649   1.640   0.637
   39SOL     OW  490   0.598   0.729   0.270
   39SOL    HW1  491   0.622   0.798   0.202
   39SOL    HW2  492   0.520   0.762   0.324
   40SOL     OW  493   1.281   0.345   0.944
   40SOL    HW1  494   1.195   0.295   0.931
   40SOL    HW2  495   1.343   0.291   1.000
   41SOL     OW  496   1.576   1.662   0.307
   41SOL    HW1  497   1.665   1.708   0.310
   41SOL    HW2  498   1.555   1.638   0.212
   42SOL     OW  499   0.807   0.605   1.465
   42SOL    HW1  500   0.760   0.602   1.554
   42SOL    HW2  501   0.756   0.550   1.399
   43SOL     OW  502   1.394   0.469   1.674
   43SOL    HW1  503   1.374   0.512   1.762
   43SOL    HW2  504   1.472   0.407   1.683
   44SOL     OW  505   0.973   0.890   1.572
   44SOL    HW1  506   1.019   0.806   1.543
   44SOL    HW2  507   0.917   0.924   1.497
   45SOL     OW  508   0.991   0.410   1.242
   45SOL    HW1  509   0.914   0.444   1.296
   45SOL    HW2  510   0.957   0.359   1.163
   46SOL     OW  511   1.041   0.701   0.429
   46SOL    HW1  512   1.067   0.697   0.525
   46SOL    HW2  513   0.956   0.650   0.415
   47SOL     OW  514   0.076   0.811   0.789
   47SOL    HW1  515   0.175   0.799   0.798
   47SOL    HW2  516   0.052   0.906   0.810
   48SOL     OW  517   0.130   1.821   1.571
   48SOL    HW1  518   0.120   1.806   1.670
   48SOL    HW2  519   0.044   1.857   1.535
   49SOL     OW  520   0.865   0.348   0.195
   49SOL    HW1  521   0.924   0.411   0.146
   49SOL    HW2  522   0.884   0.254   0.166
   50SOL     OW  523   1.719   0.585   1.831
   50SOL    HW1  524   1.693   0.674   1.795
   50SOL    HW2  525   1.717   0.517   1.758
   51SOL     OW  526   1.362   1.144   0.545
   51SOL    HW1  527   1.445   1.115   0.497
   51SOL    HW2  528   1.313   1.211   0.489
   52SOL     OW  529   0.550   0.196   0.885
   52SOL    HW1  530   0.545   0.191   0.985
   52SOL    HW2  531   0.552   0.292   0.856
   53SOL     OW  532   1.008   1.456   0.477
   53SOL    HW1  533   0.962   1.528   0.425
   53SOL    HW2  534   1.004   1.476   0.575
   54SOL     OW  535   0.351   1.801   0.853
   54SOL    HW1  536   0.401   1.715   0.859
   54SOL    HW2  537   0.416   1.878   0.850
   55SOL     OW  538   1.795   1.066   0.873
   55SOL    HW1  539   1.733   1.051   0.797
   55SOL    HW2  540   1.743   1.077   0.958
   56SOL     OW  541   1.227   1.550   1.506
   56SOL    HW1  542   1.233   1.473   1.570
   56SOL    HW2  543   1.175   1.524   1.426
   57SOL     OW  544   0.321   0.943   0.242
   57SOL    HW1  545   0.403   0.982   0.200
   57SOL    HW2  546   0.294   0.861   0.193
   58SOL     OW  547   1.458   0.735   0.728
   58SOL    HW1  548   1.453   0.670   0.803
   58SOL    HW2  549   1.538   0.794   0.741
   59SOL     OW  550   0.461   1.266   1.727
   59SOL    HW1  551   0.411   1.267   1.641
   59SOL    HW2  552   0.398   1.248   1.803
   60SOL     OW  553   1.111   1.776   0.237
   60SOL    HW1  554   1.051   1.714   0.287
   60SOL    HW2  555   1.142   1.732   0.152
   61SOL     OW  556   0.202   0.285   1.498
   61SOL    HW1  557   0.122   0.345   1.485
   61SOL    HW2  558   0.192   0.236   1.584
   62SOL     OW  559   1.632   1.377   0.081
   62SOL    HW1  560   1.600   1.471   0.071
   62SOL    HW2  561   1.556   1.314   0.069
   63SOL     OW  562   0.464   1.743   0.323
   63SOL    HW1  563   0.497   1.782   0.409
   63SOL    HW2  564   0.540   1.736   0.258
   64SOL     OW  565   1.400   0.107   0.426
   64SOL    HW1  566   1.376   0.070   0.336
   64SOL    HW2  567   1.499   0.123   0.430
   65SOL     OW  568   0.249   1.785   1.241
   65SOL    HW1  569   0.306   1.720   1.291
   65SOL    HW2  570   0.233   1.752   1.148
   66SOL     OW  571   0.940   1.698   0.904
   66SOL    HW1  572   1.020   1.641   0.925
   66SOL    HW2  573   0.891   1.658   0.827
   67SOL     OW  574   0.382   0.700   0.480
   67SOL    HW1  575   0.427   0.610   0.477
   67SOL    HW2  576   0.288   0.689   0.513
   68SOL     OW  577   1.547   0.222   1.729
   68SOL    HW1  578   1.542   0.259   1.821
   68SOL    HW2  579   1.475   0.153   1.717
   69SOL     OW  580   0.614   0.122   0.117
   69SOL    HW1  581   0.712   0.100   0.124
   69SOL    HW2  582   0.583   0.105   0.024
   70SOL     OW  583   0.781   0.264   1.749
   70SOL    HW1  584   0.848   0.203   1.792
   70SOL    HW2  585   0.708   0.283   1.814
   71SOL     OW  586   0.888   1.514   1.195
   71SOL    HW1  587   0.865   1.489   1.101
   71SOL    HW2  588   0.949   1.445   1.234
   72SOL     OW  589   1.351   0.590   1.433
   72SOL    HW1  590   1.379   0.547   1.518
   72SOL    HW2  591   1.376   0.686   1.434
   73SOL     OW  592   0.803   1.402   0.924
   73SOL    HW1  593   0.893   1.416   0.882
   73SOL    HW2  594   0.732   1.404   0.853
   74SOL     OW  595   0.922   0.503   0.899
   74SOL    HW1  596   0.897   0.494   0.803
   74SOL    HW2  597   0.970   0.421   0.930
   75SOL     OW  598   0.539   0.064   0.512
   75SOL    HW1  599   0.458   0.065   0.570
   75SOL    HW2  600   0.542   0.147   0.457
   76SOL     OW  601   1.434   1.188   0.041
   76SOL    HW1  602   1.466   1.112   0.098
   76SOL    HW2  603   1.342   1.215   0.071
   77SOL     OW  604   0.297   0.035   0.171
   77SOL    HW1  605   0.346   0.119   0.150
   77SOL    HW2  606   0.359  -0.030   0.216
   78SOL     OW  607   0.935   0.236   0.480
   78SOL    HW1  608   0.887   0.277   0.402
   78SOL    HW2  609   1.034   0.234   0.461
   79SOL     OW  610   1.076   0.683   1.464
   79SOL    HW1  611   0.996   0.622   1.467
   79SOL    HW2  612   1.157   0.630   1.440
   80SOL     OW  613   1.227   1.570   0.793
   80SOL    HW1  614   1.248   1.644   0.728
   80SOL    HW2  615   1.295   1.570   0.866
   81SOL     OW  616   0.459   1.152   0.741
   81SOL    HW1  617   0.388   1.125   0.806
   81SOL    HW2  618   0.433   1.124   0.648
   82SOL     OW  619   1.271   1.797   0.591
   82SOL    HW1  620   1.315   1.861   0.527
   82SOL    HW2  621   1.221   1.849   0.661
   83SOL     OW  622   1.032   0.549   0.016
   83SOL    HW1  623   0.991   0.631  -0.023
   83SOL    HW2  624   1.096   0.575   0.089
   84SOL     OW  625   0.078   0.556   1.386
   84SOL    HW1  626   0.170   0.555   1.345
   84SOL    HW2  627   0.072   0.630   1.453
   85SOL     OW  628   0.561   0.222   1.147
   85SOL    HW1  629   0.599   0.138   1.184
   85SOL    HW2  630   0.473   0.241   1.191
   86SOL     OW  631   0.866   0.454   0.642
   86SOL    HW1  632   0.834   0.526   0.580
   86SOL    HW2  633   0.890   0.373   0.589
   87SOL     OW  634   1.017   0.039   0.753
   87SOL    HW1  635   0.945   0.044   0.684
   87SOL    HW2  636   0.993  -0.030   0.822
   88SOL     OW  637   1.429   1.173   0.867
   88SOL    HW1  638   1.374   1.089   0.860
   88SOL    HW2  639   1.455   1.202   0.775
   89SOL     OW  640   1.466   0.590   0.992
   89SOL    HW1  641   1.436   0.495   0.999
   89SOL    HW2  642   1.539   0.606   1.058
   90SOL     OW  643   1.857   0.833   0.377
   90SOL    HW1  644   1.899   0.769   0.441
   90SOL    HW2  645   1.819   0.782   0.299
   91SOL     OW  646   0.488   1.385   0.174
   91SOL    HW1  647   0.401   1.370   0.221
   91SOL    HW2  648   0.471   1.411   0.079
   92SOL     OW  649   1.664   1.280   0.657
   92SOL    HW1  650   1.763   1.288   0.671
   92SOL    HW2  651   1.619   1.364   0.688
   93SOL     OW  652   1.390   0.575   0.078
   93SOL    HW1  653   1.336   0.554   0.159
   93SOL    HW2  654   1.481   0.534   0.087
   94SOL     OW  655   0.527   0.256   0.328
   94SOL    HW1  656   0.554   0.197   0.253
   94SOL    HW2  657   0.527   0.351   0.297
   95SOL     OW  658   1.754   1.223   1.588
   95SOL    HW1  659   1.845   1.184   1.575
   95SOL    HW2  660   1.762   1.319   1.612
   96SOL     OW  661   1.064   1.347   1.340
   96SOL    HW1  662   0.984   1.324   1.395
   96SOL    HW2  663   1.147   1.321   1.389
   97SOL     OW  664   1.592   1.629   1.625
   97SOL    HW1  665   1.619   1.663   1.535
   97SOL    HW2  666   1.671   1.591   1.671
   98SOL     OW  667   1.111   1.195   1.100
   98SOL    HW1  668   1.071   1.239   1.181
   98SOL    HW2  669   1.070   1.232   1.017
   99SOL     OW  670   1.638   1.099   1.079
   99SOL    HW1  671   1.643   1.180   1.138
   99SOL    HW2  672   1.552   1.101   1.028
  100SOL     OW  673   0.915   0.089   1.402
  100SOL    HW1  674   0.940   0.069   1.307
  100SOL    HW2  675   0.987   0.145   1.444
  101SOL     OW  676   0.980   1.116   1.719
  101SOL    HW1  677   0.881   1.122   1.729
  101SOL    HW2  678   1.003   1.036   1.663
  102SOL     OW  679   0.705   1.050   0.368
  102SOL    HW1  680   0.691   1.057   0.467
  102SOL    HW2  681   0.789   0.999   0.350
  103SOL     OW  682   0.410   0.813   1.251
  103SOL    HW1  683   0.496   0.825   1.301
  103SOL    HW2  684   0.368   0.726   1.278
  104SOL     OW  685   1.274   0.386   1.262
  104SOL    HW1  686   1.295   0.460   1.326
  104SOL    HW2  687   1.185   0.403   1.219
  105SOL     OW  688   0.064   1.564   1.331
  105SOL    HW1  689   0.018   1.646   1.297
  105SOL    HW2  690   0.162   1.583   1.340
  106SOL     OW  691   0.367   1.100   0.501
  106SOL    HW1  692   0.360   1.183   0.445
  106SOL    HW2  693   0.371   1.020   0.441
  107SOL     OW  694   0.566   0.537   0.865
  107SOL    HW1  695   0.578   0.603   0.791
  107SOL    HW2  696   0.612   0.571   0.948
  108SOL     OW  697   1.252   1.348   0.388
  108SOL    HW1  698   1.302   1.425   0.428
  108SOL    HW2  699   1.157   1.350   0.420
  109SOL     OW  700   1.272   1.445   1.142
  109SOL    HW1  701   1.319   1.458   1.229
  109SOL    HW2  702   1.206   1.371   1.151
  110SOL     OW  703   1.582   0.639   0.472
  110SOL    HW1  704   1.551   0.700   0.545
  110SOL    HW2  705   1.632   0.691   0.403
  111SOL     OW  706   0.354   1.510   1.329
  111SOL    HW1  707   0.333   1.466   1.242
  111SOL    HW2  708   0.451   1.536   1.332
  112SOL     OW  709   0.402   0.751   1.598
  112SOL    HW1  710   0.470   0.806   1.551
  112SOL    HW2  711   0.442   0.663   1.625
  113SOL     OW  712   1.587   0.779   1.670
  113SOL    HW1  713   1.495   0.817   1.665
  113SOL    HW2  714   1.647   0.826   1.605
  114SOL     OW  715   1.013   0.105   1.770
  114SOL    HW1  716   1.019   0.190   1.718
  114SOL    HW2  717   1.045   0.029   1.713
  115SOL     OW  718   0.504   0.050   1.740
  115SOL    HW1  719   0.462  -0.007   1.670
  115SOL    HW2  720   0.438   0.119   1.772
  116SOL     OW  721   0.573   0.870   1.029
  116SOL    HW1  722   0.617   0.959   1.020
  116SOL    HW2  723   0.510   0.870   1.106
  117SOL     OW  724   1.360   0.862   1.045
  117SOL    HW1  725   1.285   0.862   0.979
  117SOL    HW2  726   1.397   0.770   1.054
  118SOL     OW  727   1.209   0.525   0.275
  118SOL    HW1  728   1.222   0.441   0.329
  118SOL    HW2  729   1.180   0.599   0.335
  119SOL     OW  730   0.307   0.213   1.231
  119SOL    HW1  731   0.284   0.250   1.321
  119SOL    HW2  732   0.277   0.118   1.225
  120SOL     OW  733   0.037   1.310   1.282
  120SOL    HW1  734   0.090   1.261   1.350
  120SOL    HW2  735   0.059   1.408   1.287
  121SOL     OW  736   0.732   0.634   1.064
  121SOL    HW1  737   0.791   0.608   0.988
  121SOL    HW2  738   0.704   0.730   1.053
  122SOL     OW  739   1.728   0.935   1.854
  122SOL    HW1  740   1.682   0.928   1.765
  122SOL    HW2  741   1.666   0.979   1.920
  123SOL     OW  742   0.307   0.063   0.618
  123SOL    HW1  743   0.296   0.157   0.651
  123SOL    HW2  744   0.302   0.000   0.695
  124SOL     OW  745   1.622   0.367   0.374
  124SOL    HW1  746   1.624   0.291   0.438
  124SOL    HW2  747   1.574   0.444   0.414
  125SOL     OW  748   1.023   0.766   0.966
  125SOL    HW1  749   1.038   0.787   1.062
  125SOL    HW2  750   0.993   0.671   0.957
  126SOL     OW  751   0.980   1.573   1.700
  126SOL    HW1  752   0.960   1.617   1.612
  126SOL    HW2  753   1.019   1.482   1.684
  127SOL     OW  754   1.859   1.518   1.605
  127SOL    HW1  755   1.873   1.545   1.510
  127SOL    HW2  756   1.942   1.540   1.658
  128SOL     OW  757   0.350   0.898   1.804
  128SOL    HW1  758   0.426   0.942   1.852
  128SOL    HW2  759   0.385   0.851   1.722
  129SOL     OW  760   1.540   0.274   0.125
  129SOL    HW1  761   1.479   0.199   0.148
  129SOL    HW2  762   1.562   0.326   0.208
  130SOL     OW  763   1.303   0.838   0.042
  130SOL    HW1  764   1.337   0.745   0.057
  130SOL    HW2  765   1.321   0.865  -0.053
  131SOL     OW  766   1.068   1.333   0.849
  131SOL    HW1  767   1.075   1.249   0.794
  131SOL    HW2  768   1.130   1.402   0.813
  132SOL     OW  769   0.319   0.810   0.949
  132SOL    HW1  770   0.412   0.846   0.954
  132SOL    HW2  771   0.313   0.725   1.001
  133SOL     OW  772   0.339   0.509   1.006
  133SOL    HW1  773   0.287   0.426   0.989
  133SOL    HW2  774   0.416   0.514   0.942
  134SOL     OW  775   1.138   0.380   1.678
  134SOL    HW1  776   1.093   0.443   1.742
  134SOL    HW2  777   1.231   0.411   1.661
  135SOL     OW  778   1.160   0.207   1.477
  135SOL    HW1  779   1.160   0.271   1.554
  135SOL    HW2  780   1.188   0.255   1.394
  136SOL     OW  781   0.008   1.326   0.200
  136SOL    HW1  782  -0.085   1.347   0.169
  136SOL    HW2  783   0.018   1.227   0.213
  137SOL     OW  784   0.088   1.801   0.927
  137SOL    HW1  785   0.046   1.715   0.900
  137SOL    HW2  786   0.182   1.804   0.893
  138SOL     OW  787   0.504   1.568   0.910
  138SOL    HW1  788   0.570   1.642   0.919
  138SOL    HW2  789   0.548   1.489   0.868
  139SOL     OW  790   1.002   0.796   1.238
  139SOL    HW1  791   1.043   0.764   1.324
  139SOL    HW2  792   0.906   0.769   1.235
  140SOL     OW  793   0.040   0.544   1.114
  140SOL    HW1  794   0.125   0.511   1.073
  140SOL    HW2  795   0.053   0.559   1.212
  141SOL     OW  796   0.189   0.520   1.722
  141SOL    HW1  797   0.248   0.480   1.652
  141SOL    HW2  798   0.131   0.591   1.681
  142SOL     OW  799   1.369   0.950   1.660
  142SOL    HW1  800   1.408   1.039   1.680
  142SOL    HW2  801   1.379   0.930   1.563
  143SOL     OW  802   0.815   0.572   0.325
  143SOL    HW1  803   0.822   0.483   0.279
  143SOL    HW2  804   0.721   0.606   0.317
  144SOL     OW  805   1.657   0.604   1.206
  144SOL    HW1  806   1.619   0.535   1.268
  144SOL    HW2  807   1.739   0.568   1.162
  145SOL     OW  808   0.252   1.564   1.744
  145SOL    HW1  809   0.222   1.621   1.820
  145SOL    HW2  810   0.245   1.467   1.770
  146SOL     OW  811   0.671   0.464   1.269
  146SOL    HW1  812   0.637   0.375   1.239
  146SOL    HW2  813   0.697   0.518   1.189
  147SOL     OW  814   0.930   1.678   1.465
  147SOL    HW1  815   0.906   1.660   1.370
  147SOL    HW2  816   0.960   1.772   1.475
  148SOL     OW  817   0.473   0.500   0.191
  148SOL    HW1  818   0.534   0.580   0.195
  148SOL    HW2  819   0.378   0.531   0.198
  149SOL     OW  820   0.159   1.137   1.466
  149SOL    HW1  821   0.181   1.076   1.542
  149SOL    HW2  822   0.169   1.088   1.380
  150SOL     OW  823   1.347   1.059   1.234
  150SOL    HW1  824   1.371   0.996   1.160
  150SOL    HW2  825   1.257   1.099   1.216
  151SOL     OW  826   1.302   0.855   0.309
  151SOL    HW1  827   1.216   0.824   0.351
  151SOL    HW2  828   1.298   0.841   0.210
  152SOL     OW  829   1.759   1.747   1.154
  152SOL    HW1  830   1.820   1.777   1.081
  152SOL    HW2  831   1.721   1.658   1.132
  153SOL     OW  832   1.252   1.731   1.128
  153SOL    HW1  833   1.336   1.736   1.074
  153SOL    HW2  834   1.229   1.635   1.146
  154SOL     OW  835   0.083   1.258   1.022
  154SOL    HW1  836   0.078   1.257   1.122
  154SOL    HW2  837   0.000   1.217   0.984
  155SOL     OW  838   0.688   1.662   1.716
  155SOL    HW1  839   0.632   1.743   1.725
  155SOL    HW2  840   0.740   1.666   1.630
  156SOL     OW  841   0.903   0.086   0.133
  156SOL    HW1  842   0.954   0.087   0.047
  156SOL    HW2  843   0.959   0.044   0.204
  157SOL     OW  844   1.726   0.135   0.523
  157SOL    HW1  845   1.799   0.118   0.456
  157SOL    HW2  846   1.695   0.048   0.561
  158SOL     OW  847   1.388   1.573   0.477
  158SOL    HW1  848   1.455   1.585   0.403
  158SOL    HW2  849   1.348   1.662   0.500
  159SOL     OW  850   0.130   1.794   1.851
  159SOL    HW1  851   0.089   1.720   1.904
  159SOL    HW2  852   0.194   1.845   1.909
  160SOL     OW  853   1.280   0.927   0.672
  160SOL    HW1  854   1.340   0.846   0.674
  160SOL    HW2  855   1.320   0.996   0.612
  161SOL     OW  856   0.830   1.273   1.422
  161SOL    HW1  857   0.825   1.306   1.517
  161SOL    HW2  858   0.744   1.292   1.376
  162SOL     OW  859   0.672   1.616   0.154
  162SOL    HW1  860   0.681   1.626   0.055
  162SOL    HW2  861   0.632   1.527   0.175
  163SOL     OW  862   1.650   1.720   1.394
  163SOL    HW1  863   1.703   1.730   1.310
  163SOL    HW2  864   1.623   1.810   1.428
  164SOL     OW  865   1.841   0.175   0.963
  164SOL    HW1  866   1.880   0.090   0.927
  164SOL    HW2  867   1.743   0.177   0.944
  165SOL     OW  868   0.263   0.326   0.720
  165SOL    HW1  869   0.184   0.377   0.686
  165SOL    HW2  870   0.254   0.311   0.818
  166SOL     OW  871   1.194   1.612   0.031
  166SOL    HW1  872   1.200   1.519   0.068
  166SOL    HW2  873   1.135   1.612  -0.049
  167SOL     OW  874   0.822   1.002   1.372
  167SOL    HW1  875   0.862   1.001   1.280
  167SOL    HW2  876   0.832   1.094   1.412
  168SOL     OW  877   0.916   0.910   0.291
  168SOL    HW1  878   0.979   0.948   0.223
  168SOL    HW2  879   0.956   0.827   0.330
  169SOL     OW  880   1.504   1.607   0.044
  169SOL    HW1  881   1.412   1.644   0.051
  169SOL    HW2  882   1.542   1.627  -0.046
  170SOL     OW  883   0.372   1.288   1.490
  170SOL    HW1  884   0.359   1.381   1.456
  170SOL    HW2  885   0.288   1.236   1.477
  171SOL     OW  886   1.614   1.292   1.289
  171SOL    HW1  887   1.674   1.295   1.369
  171SOL    HW2  888   1.539   1.356   1.302
  172SOL     OW  889   1.039   1.098   0.696
  172SOL    HW1  890   0.969   1.051   0.750
  172SOL    HW2  891   1.098   1.030   0.653
  173SOL     OW  892   1.014   0.236   0.971
  173SOL    HW1  893   1.006   0.200   0.878
  173SOL    HW2  894   1.012   0.160   1.036
  174SOL     OW  895   0.590   1.487   0.491
  174SOL    HW1  896   0.632   1.429   0.421
  174SOL    HW2  897   0.546   1.566   0.447
  175SOL     OW  898   1.709   0.385   1.381
  175SOL    HW1  899   1.782   0.454   1.385
  175SOL    HW2  900   1.737   0.310   1.322
  176SOL     OW  901   0.255   1.348   0.290
  176SOL    HW1  902   0.159   1.349   0.263
  176SOL    HW2  903   0.267   1.401   0.374
  177SOL     OW  904   0.105   1.013   1.726
  177SOL    HW1  905   0.028   0.980   1.780
  177SOL    HW2  906   0.190   0.983   1.768
  178SOL     OW  907   0.672   0.203   1.489
  178SOL    HW1  908   0.762   0.187   1.449
  178SOL    HW2  909   0.680   0.208   1.588
  179SOL     OW  910   0.075   0.345   0.033
  179SOL    HW1  911  -0.017   0.317   0.004
  179SOL    HW2  912   0.106   0.422  -0.023
  180SOL     OW  913   1.440   0.856   1.398
  180SOL    HW1  914   1.383   0.908   1.335
  180SOL    HW2  915   1.536   0.868   1.374
  181SOL     OW  916   0.072   0.166   0.318
  181SOL    HW1  917   0.055   0.249   0.264
  181SOL    HW2  918   0.162   0.129   0.296
  182SOL     OW  919   1.183   1.335   0.119
  182SOL    HW1  920   1.084   1.324   0.121
  182SOL    HW2  921   1.217   1.350   0.212
  183SOL     OW  922   0.613   0.842   1.431
  183SOL    HW1  923   0.669   0.923   1.414
  183SOL    HW2  924   0.672   0.762   1.434
  184SOL     OW  925   1.493   1.767   0.959
  184SOL    HW1  926   1.526   1.831   0.890
  184SOL    HW2  927   1.559   1.761   1.034
  185SOL     OW  928   0.716   0.565   1.708
  185SOL    HW1  929   0.735   0.630   1.782
  185SOL    HW2  930   0.776   0.485   1.717
  186SOL     OW  931   1.450   1.220   1.633
  186SOL    HW1  932   1.441   1.210   1.732
  186SOL    HW2  933   1.546   1.213   1.607
  187SOL     OW  934   0.390   1.741   1.560
  187SOL    HW1  935   0.299   1.782   1.558
  187SOL    HW2  936   0.383   1.647   1.592
  188SOL     OW  937   1.674   0.883   1.254
  188SOL    HW1  938   1.647   0.794   1.217
  188SOL    HW2  939   1.675   0.951   1.181
  189SOL     OW  940   1.225   0.325   0.449
  189SOL    HW1  941   1.290   0.251   0.438
  189SOL    HW2  942   1.245   0.375   0.533
  190SOL     OW  943   0.594   0.745   0.652
  190SOL    HW1  944   0.644   0.830   0.633
  190SOL    HW2  945   0.506   0.747   0.604
  191SOL     OW  946   1.777   0.342   1.642
  191SOL    HW1  947   1.760   0.373   1.548
  191SOL    HW2  948   1.693   0.305   1.680
  192SOL     OW  949   1.730   0.934   1.517
  192SOL    HW1  950   1.768   1.025   1.532
  192SOL    HW2  951   1.722   0.917   1.418
  193SOL     OW  952   0.859   1.374   0.016
  193SOL    HW1  953   0.813   1.389   0.104
  193SOL    HW2  954   0.903   1.459  -0.014
  194SOL     OW  955   0.661   1.790   0.953
  194SOL    HW1  956   0.615   1.878   0.940
  194SOL    HW2  957   0.760   1.802   0.946
  195SOL     OW  958   0.859   0.956   0.861
  195SOL    HW1  959   0.913   0.887   0.909
  195SOL    HW2  960   0.827   1.025   0.927
  196SOL     OW  961   1.083   0.984   0.087
  196SOL    HW1  962   1.060   1.037   0.005
  196SOL    HW2  963   1.164   0.928   0.068
  197SOL     OW  964   1.861   1.569   0.851
  197SOL    HW1  965   1.790   1.557   0.781
  197SOL    HW2  966   1.862   1.490   0.911
  198SOL     OW  967   0.221   1.314   1.844
  198SOL    HW1  968   0.156   1.241   1.823
  198SOL    HW2  969   0.225   1.328   1.942
  199SOL     OW  970   0.079   1.240   0.653
  199SOL    HW1  971   0.078   1.193   0.741
  199SOL    HW2  972   0.161   1.212   0.602
  200SOL     OW  973   0.672   1.391   1.624
  200SOL    HW1  974   0.594   1.341   1.662
  200SOL    HW2  975   0.669   1.486   1.655
  201SOL     OW  976   1.824   0.192   1.227
  201SOL    HW1  977   1.820   0.102   1.271
  201SOL    HW2  978   1.827   0.181   1.128
  202SOL     OW  979   0.428   0.424   0.520
  202SOL    HW1  980   0.458   0.352   0.458
  202SOL    HW2  981   0.389   0.384   0.603
  203SOL     OW  982   1.705   1.487   1.104
  203SOL    HW1  983   1.612   1.462   1.077
  203SOL    HW2  984   1.731   1.437   1.186
  204SOL     OW  985   0.317   0.547   1.280
  204SOL    HW1  986   0.355   0.488   1.352
  204SOL    HW2  987   0.357   0.521   1.192
  205SOL     OW  988   0.812   1.586   0.687
  205SOL    HW1  989   0.844   1.596   0.593
  205SOL    HW2  990   0.733   1.524   0.689
  206SOL     OW  991   1.424   0.214   1.112
  206SOL    HW1  992   1.476   0.149   1.167
  206SOL    HW2  993   1.375   0.277   1.173
  207SOL     OW  994   1.001   0.034   1.154
  207SOL    HW1  995   0.938  -0.038   1.123
  207SOL    HW2  996   1.094  -0.002   1.154
  208SOL     OW  997   0.770   1.330   0.301
  208SOL    HW1  998   0.724   1.243   0.318
  208SOL    HW2  999   0.861   1.327   0.342
  209SOL     OW 1000   0.618   1.567   1.284
  209SOL    HW1 1001   0.613   1.649   1.341
  209SOL    HW2 1002   0.707   1.564   1.239
  210SOL     OW 1003   1.352   0.052   0.168
  210SOL    HW1 1004   1.387   0.011   0.084
  210SOL    HW2 1005   1.262   0.014   0.188
  211SOL     OW 1006   1.300   0.453   0.691
  211SOL    HW1 1007   1.241   0.533   0.695
  211SOL    HW2 1008   1.315   0.418   0.784
  212SOL     OW 1009   1.593   0.221   0.882
  212SOL    HW1 1010   1.509   0.220   0.936
  212SOL    HW2 1011   1.595   0.304   0.826
  213SOL     OW 1012   0.039   1.077   0.300
  213SOL    HW1 1013   0.138   1.066   0.291
  213SOL    HW2 1014  -0.001   0.991   0.332
  214SOL     OW 1015   0.875   1.646   0.337
  214SOL    HW1 1016   0.798   1.611   0.283
  214SOL    HW2 1017   0.843   1.717   0.399
  215SOL     OW 1018   0.230   0.628   1.975
  215SOL    HW1 1019   0.137   0.626   2.012
  215SOL    HW2 1020   0.231   0.589   1.883
  216SOL     OW 1021   0.225   0.275   2.858
  216SOL    HW1 1022   0.260   0.258   2.950
  216SOL    HW2 1023   0.137   0.230   2.846
  217SOL     OW 1024   0.019   0.368   2.509
  217SOL    HW1 1025  -0.063   0.411   2.548
  217SOL    HW2 1026  -0.009   0.295   2.446
  218SOL     OW 1027   0.569   1.275   3.027
  218SOL    HW1 1028   0.476   1.268   2.990
  218SOL    HW2 1029   0.580   1.364   3.071
  219SOL     OW 1030   1.555   1.511   2.565
  219SOL    HW1 1031   1.498   1.495   2.646
  219SOL    HW2 1032   1.496   1.521   2.485
  220SOL     OW 1033   1.135   0.703   2.579
  220SOL    HW1 1034   1.192   0.781   2.554
  220SOL    HW2 1035   1.075   0.729   2.655
  221SOL     OW 1036   1.755   0.607   2.093
  221SOL    HW1 1037   1.743   0.594   1.994
  221SOL    HW2 1038   1.725   0.526   2.142
  222SOL     OW 1039   0.768   1.144   2.885
  222SOL    HW1 1040   0.690   1.161   2.945
  222SOL    HW2 1041   0.802   1.231   2.849
  223SOL     OW 1042   0.850   0.798   3.685
  223SOL    HW1 1043   0.846   0.874   3.750
  223SOL    HW2 1044   0.872   0.834   3.594
  224SOL     OW 1045   0.685   1.012   2.527
  224SOL    HW1 1046   0.754   0.996   2.597
  224SOL    HW2 1047   0.612   1.069   2.565
  225SOL     OW 1048   0.686   1.161   3.665
  225SOL    HW1 1049   0.746   1.240   3.679
  225SOL    HW2 1050   0.600   1.192   3.624
  226SOL     OW 1051   0.335   1.435   2.923
  226SOL    HW1 1052   0.257   1.404   2.870
  226SOL    HW2 1053   0.393   1.493   2.866
  227SOL     OW 1054   1.460   1.505   3.201
  227SOL    HW1 1055   1.484   1.599   3.227
  227SOL    HW2 1056   1.444   1.451   3.283
  228SOL     OW 1057   0.438   0.392   3.361
  228SOL    HW1 1058   0.520   0.336   3.370
  228SOL    HW2 1059   0.357   0.334   3.365
  229SOL     OW 1060   1.603   0.447   2.599
  229SOL    HW1 1061   1.529   0.493   2.549
  229SOL    HW2 1062   1.654   0.515   2.652
  230SOL     OW 1063   0.231   1.713   2.345
  230SOL    HW1 1064   0.265   1.790   2.399
  230SOL    HW2 1065   0.275   1.713   2.255
  231SOL     OW 1066   1.127   1.341   3.552
  231SOL    HW1 1067   1.174   1.341   3.640
  231SOL    HW2 1068   1.079   1.254   3.541
  232SOL     OW 1069   0.230   1.434   2.400
  232SOL    HW1 1070   0.204   1.530   2.400
  232SOL    HW2 1071   0.159   1.380   2.445
  233SOL     OW 1072   0.240   1.091   2.748
  233SOL    HW1 1073   0.254   1.007   2.800
  233SOL    HW2 1074   0.185   1.155   2.803
  234SOL     OW 1075   0.620   1.786   3.301
  234SOL    HW1 1076   0.528   1.769   3.336
  234SOL    HW2 1077   0.648   1.878   3.327
  235SOL     OW 1078   0.606   0.964   1.985
  235SOL    HW1 1079   0.613   1.048   1.931
  235SOL    HW2 1080   0.652   0.977   2.073
  236SOL     OW 1081   1.594   0.114   3.342
  236SOL    HW1 1082   1.576   0.181   3.270
  236SOL    HW2 1083   1.591   0.160   3.431
  237SOL     OW 1084   0.122   0.643   2.425
  237SOL    HW1 1085   0.077   0.555   2.442
  237SOL    HW2 1086   0.121   0.697   2.509
  238SOL     OW 1087   1.842   1.767   2.221
  238SOL    HW1 1088   1.896   1.738   2.301
  238SOL    HW2 1089   1.872   1.857   2.192
  239SOL     OW 1090   0.027   1.596   1.979
  239SOL    HW1 1091   0.008   1.500   2.000
  239SOL    HW2 1092  -0.006   1.654   2.054
  240SOL     OW 1093   1.689   0.922   2.474
  240SOL    HW1 1094   1.784   0.893   2.482
  240SOL    HW2 1095   1.681   0.987   2.399
  241SOL     OW 1096   1.641   1.108   2.294
  241SOL    HW1 1097   1.727   1.110   2.242
  241SOL    HW2 1098   1.655   1.155   2.382
  242SOL     OW 1099   0.113   0.737   3.459
  242SOL    HW1 1100   0.201   0.724   3.504
  242SOL    HW2 1101   0.100   0.834   3.437
  243SOL     OW 1102   0.613   1.365   2.588
  243SOL    HW1 1103   0.564   1.278   2.597
  243SOL    HW2 1104   0.590   1.408   2.501
  244SOL     OW 1105   1.293   1.228   3.285
  244SOL    HW1 1106   1.330   1.155   3.227
  244SOL    HW2 1107   1.345   1.233   3.370
  245SOL     OW 1108   0.809   0.004   2.364
  245SOL    HW1 1109   0.849   0.095   2.355
  245SOL    HW2 1110   0.709   0.012   2.370
  246SOL     OW 1111   0.197   0.976   3.126
  246SOL    HW1 1112   0.286   0.931   3.112
  246SOL    HW2 1113   0.124   0.911   3.107
  247SOL     OW 1114   1.525   0.999   2.052
  247SOL    HW1 1115   1.462   0.923   2.065
  247SOL    HW2 1116   1.573   1.017   2.138
  248SOL     OW 1117   1.187   1.792   3.478
  248SOL    HW1 1118   1.211   1.852   3.402
  248SOL    HW2 1119   1.194   1.697   3.448
  249SOL     OW 1120   0.317   0.251   3.663
  249SOL    HW1 1121   0.388   0.322   3.669
  249SOL    HW2 1122   0.229   0.290   3.691
  250SOL     OW 1123   1.466   1.417   2.815
  250SOL    HW1 1124   1.407   1.423   2.895
  250SOL    HW2 1125   1.451   1.329   2.769
  251SOL     OW 1126   1.667   1.714   2.434
  251SOL    HW1 1127   1.626   1.691   2.346
  251SOL    HW2 1128   1.649   1.640   2.499
  252SOL     OW 1129   0.598   0.729   2.132
  252SOL    HW1 1130   0.622   0.798   2.064
  252SOL    HW2 1131   0.520   0.762   2.186
  253SOL     OW 1132   1.281   0.345   2.806
  253SOL    HW1 1133   1.195   0.295   2.793
  253SOL    HW2 1134   1.343   0.291   2.862
  254SOL     OW 1135   1.576   1.662   2.169
  254SOL    HW1 1136   1.665   1.708   2.172
  254SOL    HW2 1137   1.555   1.638   2.074
  255SOL     OW 1138   0.807   0.605   3.327
  255SOL    HW1 1139   0.760   0.602   3.416
  255SOL    HW2 1140   0.756   0.550   3.261
  256SOL     OW 1141   1.394   0.469   3.536
  256SOL    HW1 1142   1.374   0.512   3.624
  256SOL    HW2 1143   1.472   0.407   3.545
  257SOL     OW 1144   0.973   0.890   3.434
  257SOL    HW1 1145   1.019   0.806   3.405
  257SOL    HW2 1146   0.917   0.924   3.359
  258SOL     OW 1147   0.991   0.410   3.104
  258SOL    HW1 1148   0.914   0.444   3.158
  258SOL    HW2 1149   0.957   0.359   3.025
  259SOL     OW 1150   1.041   0.701   2.291
  259SOL    HW1 1151   1.067   0.697   2.387
  259SOL    HW2 1152   0.956   0.650   2.277
  260SOL     OW 1153   0.076   0.811   2.651
  260SOL    HW1 1154   0.175   0.799   2.660
  260SOL    HW2 1155   0.052   0.906   2.672
  261SOL     OW 1156   0.130   1.821   3.433
  261SOL    HW1 1157   0.120   1.806   3.532
  261SOL    HW2 1158   0.044   1.857   3.397
  262SOL     OW 1159   0.865   0.348   2.057
  262SOL    HW1 1160   0.924   0.411   2.008
  262SOL    HW2 1161   0.884   0.254   2.028
  263SOL     OW 1162   1.719   0.585   3.693
  263SOL    HW1 1163   1.693   0.674   3.657
  263SOL    HW2 1164   1.717   0.517   3.620
  264SOL     OW 1165   1.362   1.144   2.407
  264SOL    HW1 1166   1.445   1.115   2.359
  264SOL    HW2 1167   1.313   1.211   2.351
  265SOL     OW 1168   0.550   0.196   2.747
  265SOL    HW1 1169   0.545   0.191   2.847
  265SOL    HW2 1170   0.552   0.292   2.718
  266SOL     OW 1171   1.008   1.456   2.339
  266SOL    HW1 1172   0.962   1.528   2.287
  266SOL    HW2 1173   1.004   1.476   2.437
  267SOL     OW 1174   0.351   1.801   2.715
  267SOL    HW1 1175   0.401   1.715   2.721
  267SOL    HW2 1176   0.416   1.878   2.712
  268SOL     OW 1177   1.795   1.066   2.735
  268SOL    HW1 1178   1.733   1.051   2.659
  268SOL    HW2 1179   1.743   1.077   2.820
  269SOL     OW 1180   1.227   1.550   3.368
  269SOL    HW1 1181   1.233   1.473   3.432
  269SOL    HW2 1182   1.175   1.524   3.288
  270SOL     OW 1183   0.321   0.943   2.104
  270SOL    HW1 1184   0.403   0.982   2.062
  270SOL    HW2 1185   0.294   0.861   2.055
  271SOL     OW 1186   1.458   0.735   2.590
  271SOL    HW1 1187   1.453   0.670   2.665
  271SOL    HW2 1188   1.538   0.794   2.603
  272SOL     OW 1189   0.461   1.266   3.589
  272SOL    HW1 1190   0.411   1.267   3.503
  272SOL    HW2 1191   0.398   1.248   3.665
  273SOL     OW 1192   1.111   1.776   2.099
  273SOL    HW1 1193   1.051   1.714   2.149
  273SOL    HW2 1194   1.142   1.732   2.014
  274SOL     OW 1195   0.202   0.285   3.360
  274SOL    HW1 1196   0.122   0.345   3.347
  274SOL    HW2 1197   0.192   0.236   3.446
  275SOL     OW 1198   1.632   1.377   1.943
  275SOL    HW1 1199   1.600   1.471   1.933
  275SOL    HW2 1200   1.556   1.314   1.931
  276SOL     OW 1201   0.464   1.743   2.185
  276SOL    HW1 1202   0.497   1.782   2.271
  276SOL    HW2 1203   0.540   1.736   2.120
  277SOL     OW 1204   1.400   0.107   2.288
  277SOL    HW1 1205   1.376   0.070   2.198
  277SOL    HW2 1206   1.499   0.123   2.292
  278SOL     OW 1207   0.249   1.785   3.103
  278SOL    HW1 1208   0.306   1.720   3.153
  278SOL    HW2 1209   0.233   1.752   3.010
  279SOL     OW 1210   0.940   1.698   2.766
  279SOL    HW1 1211   1.020   1.641   2.787
  279SOL    HW2 1212   0.891   1.658   2.689
  280SOL     OW 1213   0.382   0.700   2.342
  280SOL    HW1 1214   0.427   0.610   2.339
  280SOL    HW2 1215   0.288   0.689   2.375
  281SOL     OW 1216   1.547   0.222   3.591
  281SOL    HW1 1217   1.542   0.259   3.683
  281SOL    HW2 1218   1.475   0.153   3.579
  282SOL     OW 1219   0.614   0.122   1.979
  282SOL    HW1 1220   0.712   0.100   1.986
  282SOL    HW2 1221   0.583   0.105   1.886
  283SOL     OW 1222   0.781   0.264   3.611
  283SOL    HW1 1223   0.848   0.203   3.654
  283SOL    HW2 1224   0.708   0.283   3.676
  284SOL     OW 1225   0.888   1.514   3.057
  284SOL    HW1 1226   0.865   1.489   2.963
  284SOL    HW2 1227   0.949   1.445   3.096
  285SOL     OW 1228   1.351   0.590   3.295
  285SOL    HW1 1229   1.379   0.547   3.380
  285SOL    HW2 1230   1.376   0.686   3.296
  286SOL     OW 1231   0.803   1.402   2.786
  286SOL    HW1 1232   0.893   1.416   2.744
  286SOL    HW2 1233   0.732   1.404   2.715
  287SOL     OW 1234   0.922   0.503   2.761
  287SOL    HW1 1235   0.897   0.494   2.665
  287SOL    HW2 1236   0.970   0.421   2.792
  288SOL     OW 1237   0.539   0.064   2.374
  288SOL    HW1 1238   0.458   0.065   2.432
  288SOL    HW2 1239   0.542   0.147   2.319
  289SOL     OW 1240   1.434   1.188   1.903
  289SOL    HW1 1241   1.466   1.112   1.960
  289SOL    HW2 1242   1.342   1.215   1.933
  290SOL     OW 1243   0.297   0.035   2.033
  290SOL    HW1 1244   0.346   0.119   2.012
  290SOL    HW2 1245   0.359  -0.030   2.078
  291SOL     OW 1246   0.935   0.236   2.342
  291SOL    HW1 1247   0.887   0.277   2.264
  291SOL    HW2 1248   1.034   0.234   2.323
  292SOL     OW 1249   1.076   0.683   3.326
  292SOL    HW1 1250   0.996   0.622   3.329
  292SOL    HW2 1251   1.157   0.630   3.302
  293SOL     OW 1252   1.227   1.570   2.655
  293SOL    HW1 1253   1.248   1.644   2.590
  293SOL    HW2 1254   1.295   1.570   2.728
  294SOL     OW 1255   0.459   1.152   2.603
  294SOL    HW1 1256   0.388   1.125   2.668
  294SOL    HW2 1257   0.433   1.124   2.510
  295SOL     OW 1258   1.271   1.797   2.453
  295SOL    HW1 1259   1.315   1.861   2.389
  295SOL    HW2 1260   1.221   1.849   2.523
  296SOL     OW 1261   1.032   0.549   1.878
  296SOL    HW1 1262   0.991   0.631   1.839
  296SOL    HW2 1263   1.096   0.575   1.951
  297SOL     OW 1264   0.078   0.556   3.248
  297SOL    HW1 1265   0.170   0.555   3.207
  297SOL    HW2 1266   0.072   0.630   3.315
  298SOL     OW 1267   0.561   0.222   3.009
  298SOL    HW1 1268   0.599   0.138   3.046
  298SOL    HW2 1269   0.473   0.241   3.053
  299SOL     OW 1270   0.866   0.454   2.504
  299SOL    HW1 1271   0.834   0.526   2.442
  299SOL    HW2 1272   0.890   0.373   2.451
  300SOL     OW 1273   1.017   0.039   2.615
  300SOL    HW1 1274   0.945   0.044   2.546
  300SOL    HW2 1275   0.993  -0.030   2.684
  301SOL     OW 1276   1.429   1.173   2.729
  301SOL    HW1 1277   1.374   1.089   2.722
  301SOL    HW2 1278   1.455   1.202   2.637
  302SOL     OW 1279   1.466   0.590   2.854
  302SOL    HW1 1280   1.436   0.495   2.861
  302SOL    HW2 1281   1.539   0.606   2.920
  303SOL     OW 1282   1.857   0.833   2.239
  303SOL    HW1 1283   1.899   0.769   2.303
  303SOL    HW2 1284   1.819   0.782   2.161
  304SOL     OW 1285   0.488   1.385   2.036
  304SOL    HW1 1286   0.401   1.370   2.083
  304SOL    HW2 1287   0.471   1.411   1.941
  305SOL     OW 1288   1.664   1.280   2.519
  305SOL    HW1 1289   1.763   1.288   2.533
  305SOL    HW2 1290   1.619   1.364   2.550
  306SOL     OW 1291   1.390   0.575   1.940
  306SOL    HW1 1292   1.336   0.554   2.021
  306SOL    HW2 1293   1.481   0.534   1.949
  307SOL     OW 1294   0.527   0.256   2.190
  307SOL    HW1 1295   0.554   0.197   2.115
  307SOL    HW2 1296   0.527   0.351   2.159
  308SOL     OW 1297   1.754   1.223   3.450
  308SOL    HW1 1298   1.845   1.184   3.437
  308SOL    HW2 1299   1.762   1.319   3.474
  309SOL     OW 1300   1.064   1.347   3.202
  309SOL    HW1 1301   0.984   1.324   3.257
  309SOL    HW2 1302   1.147   1.321   3.251
  310SOL     OW 1303   1.592   1.629   3.487
  310SOL    HW1 1304   1.619   1.663   3.397
  310SOL    HW2 1305   1.671   1.591   3.533
  311SOL     OW 1306   1.111   1.195   2.962
  311SOL    HW1 1307   1.071   1.239   3.043
  311SOL    HW2 1308   1.070   1.232   2.879
  312SOL     OW 1309   1.638   1.099   2.941
  312SOL    HW1 1310   1.643   1.180   3.000
  312SOL    HW2 1311   1.552   1.101   2.890
  313SOL     OW 1312   0.915   0.089   3.264
  313SOL    HW1 1313   0.940   0.069   3.169
  313SOL    HW2 1314   0.987   0.145   3.306
  314SOL     OW 1315   0.980   1.116   3.581
  314SOL    HW1 1316   0.881   1.122   3.591
  314SOL    HW2 1317   1.003   1.036   3.525
  315SOL     OW 1318   0.705   1.050   2.230
  315SOL    HW1 1319   0.691   1.057   2.329
  315SOL    HW2 1320   0.789   0.999   2.212
  316SOL     OW 1321   0.410   0.813   3.113
  316SOL    HW1 1322   0.496   0.825   3.163
  316SOL    HW2 1323   0.368   0.726   3.140
  317SOL     OW 1324   1.274   0.386   3.124
  317SOL    HW1 1325   1.295   0.460   3.188
  317SOL    HW2 1326   1.185   0.403   3.081
  318SOL     OW 1327   0.064   1.564   3.193
  318SOL    HW1 1328   0.018   1.646   3.159
  318SOL    HW2 1329   0.162   1.583   3.202
  319SOL     OW 1330   0.367   1.100   2.363
  319SOL    HW1 1331   0.360   1.183   2.307
  319SOL    HW2 1332   0.371   1.020   2.303
  320SOL     OW 1333   0.566   0.537   2.727
  320SOL    HW1 1334   0.578   0.603   2.653
  320SOL    HW2 1335   0.612   0.571   2.810
  321SOL     OW 1336   1.252   1.348   2.250
  321SOL    HW1 1337   1.302   1.425   2.290
  321SOL    HW2 1338   1.157   1.350   2.282
  322SOL     OW 1339   1.272   1.445   3.004
  322SOL    HW1 1340   1.319   1.458   3.091
  322SOL    HW2 1341   1.206   1.371   3.013
  323SOL     OW 1342   1.582   0.639   2.334
  323SOL    HW1 1343   1.551   0.700   2.407
  323SOL    HW2 1344   1.632   0.691   2.265
  324SOL     OW 1345   0.354   1.510   3.191
  324SOL    HW1 1346   0.333   1.466   3.104
  324SOL    HW2 1347   0.451   1.536   3.194
  325SOL     OW 1348   0.402   0.751   3.460
  325SOL    HW1 1349   0.470   0.806   3.413
  325SOL    HW2 1350   0.442   0.663   3.487
  326SOL     OW 1351   1.587   0.779   3.532
  326SOL    HW1 1352   1.495   0.817   3.527
  326SOL    HW2 1353   1.647   0.826   3.467
  327SOL     OW 1354   1.013   0.105   3.632
  327SOL    HW1 1355   1.019   0.190   3.580
  327SOL    HW2 1356   1.045   0.029   3.575
  328SOL     OW 1357   0.504   0.050   3.602
  328SOL    HW1 1358   0.462  -0.007   3.532
  328SOL    HW2 1359   0.438   0.119   3.634
  329SOL     OW 1360   0.573   0.870   2.891
  329SOL    HW1 1361   0.617   0.959   2.882
  329SOL    HW2 1362   0.510   0.870   2.968
  330SOL     OW 1363   1.360   0.862   2.907
  330SOL    HW1 1364   1.285   0.862   2.841
  330SOL    HW2 1365   1.397   0.770   2.916
  331SOL     OW 1366   1.209   0.525   2.137
  331SOL    HW1 1367   1.222   0.441   2.191
  331SOL    HW2 1368   1.180   0.599   2.197
  332SOL     OW 1369   0.307   0.213   3.093
  332SOL    HW1 1370   0.284   0.250   3.183
  332SOL    HW2 1371   0.277   0.118   3.087
  333SOL     OW 1372   0.037   1.310   3.144
  333SOL    HW1 1373   0.090   1.261   3.212
  333SOL    HW2 1374   0.059   1.408   3.149
  334SOL     OW 1375   0.732   0.634   2.926
  334SOL    HW1 1376   0.791   0.608   2.850
  334SOL    HW2 1377   0.704   0.730   2.915
  335SOL     OW 1378   1.728   0.935   3.716
  335SOL    HW1 1379   1.682   0.928   3.627
  335SOL    HW2 1380   1.666   0.979   3.782
  336SOL     OW 1381   0.307   0.063   2.480
  336SOL    HW1 1382   0.296   0.157   2.513
  336SOL    HW2 1383   0.302   0.000   2.557
  337SOL     OW 1384   1.622   0.367   2.236
  337SOL    HW1 1385   1.624   0.291   2.300
  337SOL    HW2 1386   1.574   0.444   2.276
  338SOL     OW 1387   1.023   0.766   2.828
  338SOL    HW1 1388   1.038   0.787   2.924
  338SOL    HW2 1389   0.993   0.671   2.819
  339SOL     OW 1390   0.980   1.573   3.562
  339SOL    HW1 1391   0.960   1.617   3.474
  339SOL    HW2 1392   1.019   1.482   3.546
  340SOL     OW 1393   1.859   1.518   3.467
  340SOL    HW1 1394   1.873   1.545   3.372
  340SOL    HW2 1395   1.942   1.540   3.520
  341SOL     OW 1396   0.350   0.898   3.666
  341SOL    HW1 1397   0.426   0.942   3.714
  341SOL    HW2 1398   0.385   0.851   3.584
  342SOL     OW 1399   1.540   0.274   1.987
  342SOL    HW1 1400   1.479   0.199   2.010
  342SOL    HW2 1401   1.562   0.326   2.070
  343SOL     OW 1402   1.303   0.838   1.904
  343SOL    HW1 1403   1.337   0.745   1.919
  343SOL    HW2 1404   1.321   0.865   1.809
  344SOL     OW 1405   1.068   1.333   2.711
  344SOL    HW1 1406   1.075   1.249   2.656
  344SOL    HW2 1407   1.130   1.402   2.675
  345SOL     OW 1408   0.319   0.810   2.811
  345SOL    HW1 1409   0.412   0.846   2.816
  345SOL    HW2 1410   0.313   0.725   2.863
  346SOL     OW 1411   0.339   0.509   2.868
  346SOL    HW1 1412   0.287   0.426   2.851
  346SOL    HW2 1413   0.416   0.514   2.804
  347SOL     OW 1414   1.138   0.380   3.540
  347SOL    HW1 1415   1.093   0.443   3.604
  347SOL    HW2 1416   1.231   0.411   3.523
  348SOL     OW 1417   1.160   0.207   3.339
  348SOL    HW1 1418   1.160   0.271   3.416
  348SOL    HW2 1419   1.188   0.255   3.256
  349SOL     OW 1420   0.008   1.326   2.062
  349SOL    HW1 1421  -0.085   1.347   2.031
  349SOL    HW2 1422   0.018   1.227   2.075
  350SOL     OW 1423   0.088   1.801   2.789
  350SOL    HW1 1424   0.046   1.715   2.762
  350SOL    HW2 1425   0.182   1.804   2.755
  351SOL     OW 1426   0.504   1.568   2.772
  351SOL    HW1 1427   0.570   1.642   2.781
  351SOL    HW2 1428   0.548   1.489   2.730
  352SOL     OW 1429   1.002   0.796   3.100
  352SOL    HW1 1430   1.043   0.764   3.186
  352SOL    HW2 1431   0.906   0.769   3.097
  353SOL     OW 1432   0.040   0.544   2.976
  353SOL    HW1 1433   0.125   0.511   2.935
  353SOL    HW2 1434   0.053   0.559   3.074
  354SOL     OW 1435   0.189   0.520   3.584
  354SOL    HW1 1436   0.248   0.480   3.514
  354SOL    HW2 1437   0.131   0.591   3.543
  355SOL     OW 1438   1.369   0.950   3.522
  355SOL    HW1 1439   1.408   1.039   3.542
  355SOL    HW2 1440   1.379   0.930   3.425
  356SOL     OW 1441   0.815   0.572   2.187
  356SOL    HW1 1442   0.822   0.483   2.141
  356SOL    HW2 1443   0.721   0.606   2.179
  357SOL     OW 1444   1.657   0.604   3.068
  357SOL    HW1 1445   1.619   0.535   3.130
  357SOL    HW2 1446   1.739   0.568   3.024
  358SOL     OW 1447   0.252   1.564   3.606
  358SOL    HW1 1448   0.222   1.621   3.682
  358SOL    HW2 1449   0.245   1.467   3.632
  359SOL     OW 1450   0.671   0.464   3.131
  359SOL    HW1 1451   0.637   0.375   3.101
  359SOL    HW2 1452   0.697   0.518   3.051
  360SOL     OW 1453   0.930   1.678   3.327
  360SOL    HW1 1454   0.906   1.660   3.232
  360SOL    HW2 1455   0.960   1.772   3.337
  361SOL     OW 1456   0.473   0.500   2.053
  361SOL    HW1 1457   0.534   0.580   2.057
  361SOL    HW2 1458   0.378   0.531   2.060
  362SOL     OW 1459   0.159   1.137   3.328
  362SOL    HW1 1460   0.181   1.076   3.404
  362SOL    HW2 1461   0.169   1.088   3.242
  363SOL     OW 1462   1.347   1.059   3.096
  363SOL    HW1 1463   1.371   0.996   3.022
  363SOL    HW2 1464   1.257   1.099   3.078
  364SOL     OW 1465   1.302   0.855   2.171
  364SOL    HW1 1466   1.216   0.824   2.213
  364SOL    HW2 1467   1.298   0.841   2.072
  365SOL     OW 1468   1.759   1.747   3.016
  365SOL    HW1 1469   1.820   1.777   2.943
  365SOL    HW2 1470   1.721   1.658   2.994
  366SOL     OW 1471   1.252   1.731   2.990
  366SOL    HW1 1472   1.336   1.736   2.936
  366SOL    HW2 1473   1.229   1.635   3.008
  367SOL     OW 1474   0.083   1.258   2.884
  367SOL    HW1 1475   0.078   1.257   2.984
  367SOL    HW2 1476   0.000   1.217   2.846
  368SOL     OW 1477   0.688   1.662   3.578
  368SOL    HW1 1478   0.632   1.743   3.587
  368SOL    HW2 1479   0.740   1.666   3.492
  369SOL     OW 1480   1.726   0.135   2.385
  369SOL    HW1 1481   1.799   0.118   2.318
  369SOL    HW2 1482   1.695   0.048   2.423
  370SOL     OW 1483   1.388   1.573   2.339
  370SOL    HW1 1484   1.455   1.585   2.265
  370SOL    HW2 1485   1.348   1.662   2.362
  371SOL     OW 1486   0.130   1.794   3.713
  371SOL    HW1 1487   0.089   1.720   3.766
  371SOL    HW2 1488   0.194   1.845   3.771
  372SOL     OW 1489   1.280   0.927   2.534
  372SOL    HW1 1490   1.340   0.846   2.536
  372SOL    HW2 1491   1.320   0.996   2.474
  373SOL     OW 1492   0.830   1.273   3.284
  373SOL    HW1 1493   0.825   1.306   3.379
  373SOL    HW2 1494   0.744   1.292   3.238
  374SOL     OW 1495   0.672   1.616   2.016
  374SOL    HW1 1496   0.681   1.626   1.917
  374SOL    HW2 1497   0.632   1.527   2.037
  375SOL     OW 1498   1.650   1.720   3.256
  375SOL    HW1 1499   1.703   1.730   3.172
  375SOL    HW2 1500   1.623   1.810   3.290
  376SOL     OW 1501   1.841   0.175   2.825
  376SOL    HW1 1502   1.880   0.090   2.789
  376SOL    HW2 1503   1.743   0.177   2.806
  377SOL     OW 1504   0.263   0.326   2.582
  377SOL    HW1 1505   0.184   0.377   2.548
  377SOL    HW2 1506   0.254   0.311   2.680
  378SOL     OW 1507   1.194   1.612   1.893
  378SOL    HW1 1508   1.200   1.519   1.930
  378SOL    HW2 1509   1.135   1.612   1.813
  379SOL     OW 1510   0.822   1.002   3.234
  379SOL    HW1 1511   0.862   1.001   3.142
  379SOL    HW2 1512   0.832   1.094   3.274
  380SOL     OW 1513   0.916   0.910   2.153
  380SOL    HW1 1514   0.979   0.948   2.085
  380SOL    HW2 1515   0.956   0.827   2.192
  381SOL     OW 1516   1.504   1.607   1.906
  381SOL    HW1 1517   1.412   1.644   1.913
  381SOL    HW2 1518   1.542   1.627   1.816
  382SOL     OW 1519   0.372   1.288   3.352
  382SOL    HW1 1520   0.359   1.381   3.318
  382SOL    HW2 1521   0.288   1.236   3.339
  383SOL     OW 1522   1.614   1.292   3.151
  383SOL    HW1 1523   1.674   1.295   3.231
  383SOL    HW2 1524   1.539   1.356   3.164
  384SOL     OW 1525   1.039   1.098   2.558
  384SOL    HW1 1526   0.969   1.051   2.612
  384SOL    HW2 1527   1.098   1.030   2.515
  385SOL     OW 1528   1.014   0.236   2.833
  385SOL    HW1 1529   1.006   0.200   2.740
  385SOL    HW2 1530   1.012   0.160   2.898
  386SOL     OW 1531   0.590   1.487   2.353
  386SOL    HW1 1532   0.632   1.429   2.283
  386SOL    HW2 1533   0.546   1.566   2.309
  387SOL     OW 1534   1.709   0.385   3.243
  387SOL    HW1 1535   1.782   0.454   3.247
  387SOL    HW2 1536   1.737   0.310   3.184
  388SOL     OW 1537   0.255   1.348   2.152
  388SOL    HW1 1538   0.159   1.349   2.125
  388SOL    HW2 1539   0.267   1.401   2.236
  389SOL     OW 1540   0.105   1.013   3.588
  389SOL    HW1 1541   0.028   0.980   3.642
  389SOL    HW2 1542   0.190   0.983   3.630
  390SOL     OW 1543   0.672   0.203   3.351
  390SOL    HW1 1544   0.762   0.187   3.311
  390SOL    HW2 1545   0.680   0.208   3.450
  391SOL     OW 1546   0.075   0.345   1.895
  391SOL    HW1 1547  -0.017   0.317   1.866
  391SOL    HW2 1548   0.106   0.422   1.839
  392SOL     OW 1549   1.440   0.856   3.260
  392SOL    HW1 1550   1.383   0.908   3.197
  392SOL    HW2 1551   1.536   0.868   3.236
  393SOL     OW 1552   0.072   0.166   2.180
  393SOL    HW1 1553   0.055   0.249   2.126
  393SOL    HW2 1554   0.162   0.129   2.158
  394SOL     OW 1555   1.183   1.335   1.981
  394SOL    HW1 1556   1.084   1.324   1.983
  394SOL    HW2 1557   1.217   1.350   2.074
  395SOL     OW 1558   0.613   0.842   3.293
  395SOL    HW1 1559   0.669   0.923   3.276
  395SOL    HW2 1560   0.672   0.762   3.296
  396SOL     OW 1561   1.493   1.767   2.821
  396SOL    HW1 1562   1.526   1.831   2.752
  396SOL    HW2 1563   1.559   1.761   2.896
  397SOL     OW 1564   0.716   0.565   3.570
  397SOL    HW1 1565   0.735   0.630   3.644
  397SOL    HW2 1566   0.776   0.485   3.579
  398SOL     OW 1567   1.450   1.220   3.495
  398SOL    HW1 1568   1.441   1.210   3.594
  398SOL    HW2 1569   1.546   1.213   3.469
  399SOL     OW 1570   0.390   1.741   3.422
  399SOL    HW1 1571   0.299   1.782   3.420
  399SOL    HW2 1572   0.383   1.647   3.454
  400SOL     OW 1573   1.674   0.883   3.116
  400SOL    HW1 1574   1.647   0.794   3.079
  400SOL    HW2 1575   1.675   0.951   3.043
  401SOL     OW 1576   1.225   0.325   2.311
  401SOL    HW1 1577   1.290   0.251   2.300
  401SOL    HW2 1578   1.245   0.375   2.395
  402SOL     OW 1579   0.594   0.745   2.514
  402SOL    HW1 1580   0.644   0.830   2.495
  402SOL    HW2 1581   0.506   0.747   2.466
  403SOL     OW 1582   1.777   0.342   3.504
  403SOL    HW1 1583   1.760   0.373   3.410
  403SOL    HW2 1584   1.693   0.305   3.542
  404SOL     OW 1585   1.730   0.934   3.379
  404SOL    HW1 1586   1.768   1.025   3.394
  404SOL    HW2 1587   1.722   0.917   3.280
  405SOL     OW 1588   0.859   1.374   1.878
  405SOL    HW1 1589   0.813   1.389   1.966
  405SOL    HW2 1590   0.903   1.459   1.848
  406SOL     OW 1591   0.661   1.790   2.815
  406SOL    HW1 1592   0.615   1.878   2.802
  406SOL    HW2 1593   0.760   1.802   2.808
  407SOL     OW 1594   0.859   0.956   2.723
  407SOL    HW1 1595   0.913   0.887   2.771
  407SOL    HW2 1596   0.827   1.025   2.789
  408SOL     OW 1597   1.083   0.984   1.949
  408SOL    HW1 1598   1.060   1.037   1.867
  408SOL    HW2 1599   1.164   0.928   1.930
  409SOL     OW 1600   1.861   1.569   2.713
  409SOL    HW1 1601   1.790   1.557   2.643
  409SOL    HW2 1602   1.862   1.490   2.773
  410SOL     OW 1603   0.221   1.314   3.706
  410SOL    HW1 1604   0.156   1.241   3.685
  410SOL    HW2 1605   0.225   1.328   3.804
  411SOL     OW 1606   0.079   1.240   2.515
  411SOL    HW1 1607   0.078   1.193   2.603
  411SOL    HW2 1608   0.161   1.212   2.464
  412SOL     OW 1609   0.672   1.391   3.486
  412SOL    HW1 1610   0.594   1.341   3.524
  412SOL    HW2 1611   0.669   1.486   3.517
  413SOL     OW 1612   1.824   0.192   3.089
  413SOL    HW1 1613   1.820   0.102   3.133
  413SOL    HW2 1614   1.827   0.181   2.990
  414SOL     OW 1615   0.428   0.424   2.382
  414SOL    HW1 1616   0.458   0.352   2.320
  414SOL    HW2 1617   0.389   0.384   2.465
  415SOL     OW 1618   1.705   1.487   2.966
  415SOL    HW1 1619   1.612   1.462   2.939
  415SOL    HW2 1620   1.731   1.437   3.048
  416SOL     OW 1621   0.317   0.547   3.142
  416SOL    HW1 1622   0.355   0.488   3.214
  416SOL    HW2 1623   0.357   0.521   3.054
  417SOL     OW 1624   0.812   1.586   2.549
  417SOL    HW1 1625   0.844   1.596   2.455
  417SOL    HW2 1626   0.733   1.524   2.551
  418SOL     OW 1627   1.424   0.214   2.974
  418SOL    HW1 1628   1.476   0.149   3.029
  418SOL    HW2 1629   1.375   0.277   3.035
  419SOL     OW 1630   1.001   0.034   3.016
  419SOL    HW1 1631   0.938  -0.038   2.985
  419SOL    HW2 1632   1.094  -0.002   3.016
  420SOL     OW 1633   0.770   1.330   2.163
  420SOL    HW1 1634   0.724   1.243   2.180
  420SOL    HW2 1635   0.861   1.327   2.204
  421SOL     OW 1636   0.618   1.567   3.146
  421SOL    HW1 1637   0.613   1.649   3.203
  421SOL    HW2 1638   0.707   1.564   3.101
  422SOL     OW 1639   1.352   0.052   2.030
  422SOL    HW1 1640   1.387   0.011   1.946
  422SOL    HW2 1641   1.262   0.014   2.050
  423SOL     OW 1642   1.300   0.453   2.553
  423SOL    HW1 1643   1.241   0.533   2.557
  423SOL    HW2 1644   1.315   0.418   2.646
  424SOL     OW 1645   1.593   0.221   2.744
  424SOL    HW1 1646   1.509   0.220   2.798
  424SOL    HW2 1647   1.595   0.304   2.688
  425SOL     OW 1648   0.039   1.077   2.162
  425SOL    HW1 1649   0.138   1.066   2.153
  425SOL    HW2 1650  -0.001   0.991   2.194
  426SOL     OW 1651   0.875   1.646   2.199
  426SOL    HW1 1652   0.798   1.611   2.145
  426SOL    HW2 1653   0.843   1.717   2.261
  427SOL     OW 1654   0.230   0.628   3.837
  427SOL    HW1 1655   0.137   0.626   3.874
  427SOL    HW2 1656   0.231   0.589   3.745
  428SOL     OW 1657   0.225   0.275   4.720
  428SOL    HW1 1658   0.260   0.258   4.812
  428SOL    HW2 1659   0.137   0.230   4.708
  429SOL     OW 1660   0.019   0.368   4.371
  429SOL    HW1 1661  -0.063   0.411   4.410
  429SOL    HW2 1662  -0.009   0.295   4.308
  430SOL     OW 1663   0.569   1.275   4.889
  430SOL    HW1 1664   0.476   1.268   4.852
  430SOL    HW2 1665   0.580   1.364   4.933
  431SOL     OW 1666   1.555   1.511   4.427
  431SOL    HW1 1667   1.498   1.495   4.508
  431SOL    HW2 1668   1.496   1.521   4.347
  432SOL     OW 1669   1.135   0.703   4.441
  432SOL    HW1 1670   1.192   0.781   4.416
  432SOL    HW2 1671   1.075   0.729   4.517
  433SOL     OW 1672   1.755   0.607   3.955
  433SOL    HW1 1673   1.743   0.594   3.856
  433SOL    HW2 1674   1.725   0.526   4.004
  434SOL     OW 1675   0.768   1.144   4.747
  434SOL    HW1 1676   0.690   1.161   4.807
  434SOL    HW2 1677   0.802   1.231   4.711
  435SOL     OW 1678   0.850   0.798   5.547
  435SOL    HW1 1679   0.846   0.874   5.612
  435SOL    HW2 1680   0.872   0.834   5.456
  436SOL     OW 1681   0.685   1.012   4.389
  436SOL    HW1 1682   0.754   0.996   4.459
  436SOL    HW2 1683   0.612   1.069   4.427
  437SOL     OW 1684   0.686   1.161   5.527
  437SOL    HW1 1685   0.746   1.240   5.541
  437SOL    HW2 1686   0.600   1.192   5.486
  438SOL     OW 1687   0.335   1.435   4.785
  438SOL    HW1 1688   0.257   1.404   4.732
  438SOL    HW2 1689   0.393   1.493   4.728
  439SOL     OW 1690   1.460   1.505   5.063
  439SOL    HW1 1691   1.484   1.599   5.089
  439SOL    HW2 1692   1.444   1.451   5.145
  440SOL     OW 1693   0.438   0.392   5.223
  440SOL    HW1 1694   0.520   0.336   5.232
  440SOL    HW2 1695   0.357   0.334   5.227
  441SOL     OW 1696   1.603   0.447   4.461
  441SOL    HW1 1697   1.529   0.493   4.411
  441SOL    HW2 1698   1.654   0.515   4.514
  442SOL     OW 1699   0.231   1.713   4.207
  442SOL    HW1 1700   0.265   1.790   4.261
  442SOL    HW2 1701   0.275   1.713   4.117
  443SOL     OW 1702   1.127   1.341   5.414
  443SOL    HW1 1703   1.174   1.341   5.502
  443SOL    HW2 1704   1.079   1.254   5.403
  444SOL     OW 1705   0.230   1.434   4.262
  444SOL    HW1 1706   0.204   1.530   4.262
  444SOL    HW2 1707   0.159   1.380   4.307
  445SOL     OW 1708   0.240   1.091   4.610
  445SOL    HW1 1709   0.254   1.007   4.662
  445SOL    HW2 1710   0.185   1.155   4.665
  446SOL     OW 1711   0.620   1.786   5.163
  446SOL    HW1 1712   0.528   1.769   5.198
  446SOL    HW2 1713   0.648   1.878   5.189
  447SOL     OW 1714   0.606   0.964   3.847
  447SOL    HW1 1715   0.613   1.048   3.793
  447SOL    HW2 1716   0.652   0.977   3.935
  448SOL     OW 1717   1.594   0.114   5.204
  448SOL    HW1 1718   1.576   0.181   5.132
  448SOL    HW2 1719   1.591   0.160   5.293
  449SOL     OW 1720   0.122   0.643   4.287
  449SOL    HW1 1721   0.077   0.555   4.304
  449SOL    HW2 1722   0.121   0.697   4.371
  450SOL     OW 1723   1.842   1.767   4.083
  450SOL    HW1 1724   1.896   1.738   4.163
  450SOL    HW2 1725   1.872   1.857   4.054
  451SOL     OW 1726   0.027   1.596   3.841
  451SOL    HW1 1727   0.008   1.500   3.862
  451SOL    HW2 1728  -0.006   1.654   3.916
  452SOL     OW 1729   1.689   0.922   4.336
  452SOL    HW1 1730   1.784   0.893   4.344
  452SOL    HW2 1731   1.681   0.987   4.261
  453SOL     OW 1732   1.641   1.108   4.156
  453SOL    HW1 1733   1.727   1.110   4.104
  453SOL    HW2 1734   1.655   1.155   4.244
  454SOL     OW 1735   0.113   0.737   5.321
  454SOL    HW1 1736   0.201   0.724   5.366
  454SOL    HW2 1737   0.100   0.834   5.299
  455SOL     OW 1738   0.613   1.365   4.450
  455SOL    HW1 1739   0.564   1.278   4.459
  455SOL    HW2 1740   0.590   1.408   4.363
  456SOL     OW 1741   1.293   1.228   5.147
  456SOL    HW1 1742   1.330   1.155   5.089
  456SOL    HW2 1743   1.345   1.233   5.232
  457SOL     OW 1744   0.809   0.004   4.226
  457SOL    HW1 1745   0.849   0.095   4.217
  457SOL    HW2 1746   0.709   0.012   4.232
  458SOL     OW 1747   0.197   0.976   4.988
  458SOL    HW1 1748   0.286   0.931   4.974
  458SOL    HW2 1749   0.124   0.911   4.969
  459SOL     OW 1750   1.525   0.999   3.914
  459SOL    HW1 1751   1.462   0.923   3.927
  459SOL    HW2 1752   1.573   1.017   4.000
  460SOL     OW 1753   1.187   1.792   5.340
  460SOL    HW1 1754   1.211   1.852   5.264
  460SOL    HW2 1755   1.194   1.697   5.310
  461SOL     OW 1756   0.317   0.251   5.525
  461SOL    HW1 1757   0.388   0.322   5.531
  461SOL    HW2 1758   0.229   0.290   5.553
  462SOL     OW 1759   1.466   1.417   4.677
  462SOL    HW1 1760   1.407   1.423   4.757
  462SOL    HW2 1761   1.451   1.329   4.631
  463SOL     OW 1762   1.667   1.714   4.296
  463SOL    HW1 1763   1.626   1.691   4.208
  463SOL    HW2 1764   1.649   1.640   4.361
  464SOL     OW 1765   0.598   0.729   3.994
  464SOL    HW1 1766   0.622   0.798   3.926
  464SOL    HW2 1767   0.520   0.762   4.048
  465SOL     OW 1768   1.281   0.345   4.668
  465SOL    HW1 1769   1.195   0.295   4.655
  465SOL    HW2 1770   1.343   0.291   4.724
  466SOL     OW 1771   1.576   1.662   4.031
  466SOL    HW1 1772   1.665   1.708   4.034
  466SOL    HW2 1773   1.555   1.638   3.936
  467SOL     OW 1774   0.807   0.605   5.189
  467SOL    HW1 1775   0.760   0.602   5.278
  467SOL    HW2 1776   0.756   0.550   5.123
  468SOL     OW 1777   1.394   0.469   5.398
  468SOL    HW1 1778   1.374   0.512   5.486
  468SOL    HW2 1779   1.472   0.407   5.407
  469SOL     OW 1780   0.973   0.890   5.296
  469SOL    HW1 1781   1.019   0.806   5.267
  469SOL    HW2 1782   0.917   0.924   5.221
  470SOL     OW 1783   0.991   0.410   4.966
  470SOL    HW1 1784   0.914   0.444   5.020
  470SOL    HW2 1785   0.957   0.359   4.887
  471SOL     OW 1786   1.041   0.701   4.153
  471SOL    HW1 1787   1.067   0.697   4.249
  471SOL    HW2 1788   0.956   0.650   4.139
  472SOL     OW 1789   0.076   0.811   4.513
  472SOL    HW1 1790   0.175   0.799   4.522
  472SOL    HW2 1791   0.052   0.906   4.534
  473SOL     OW 1792   0.130   1.821   5.295
  473SOL    HW1 1793   0.120   1.806   5.394
  473SOL    HW2 1794   0.044   1.857   5.259
  474SOL     OW 1795   0.865   0.348   3.919
  474SOL    HW1 1796   0.924   0.411   3.870
  474SOL    HW2 1797   0.884   0.254   3.890
  475SOL     OW 1798   1.719   0.585   5.555
  475SOL    HW1 1799   1.693   0.674   5.519
  475SOL    HW2 1800   1.717   0.517   5.482
  476SOL     OW 1801   1.362   1.144   4.269
  476SOL    HW1 1802   1.445   1.115   4.221
  476SOL    HW2 1803   1.313   1.211   4.213
  477SOL     OW 1804   0.550   0.196   4.609
  477SOL    HW1 1805   0.545   0.191   4.709
  477SOL    HW2 1806   0.552   0.292   4.580
  478SOL     OW 1807   1.008   1.456   4.201
  478SOL    HW1 1808   0.962   1.528   4.149
  478SOL    HW2 1809   1.004   1.476   4.299
  479SOL     OW 1810   0.351   1.801   4.577
  479SOL    HW1 1811   0.401   1.715   4.583
  479SOL    HW2 1812   0.416   1.878   4.574
  480SOL     OW 1813   1.795   1.066   4.597
  480SOL    HW1 1814   1.733   1.051   4.521
  480SOL    HW2 1815   1.743   1.077   4.682
  481SOL     OW 1816   1.227   1.550   5.230
  481SOL    HW1 1817   1.233   1.473   5.294
  481SOL    HW2 1818   1.175   1.524   5.150
  482SOL     OW 1819   0.321   0.943   3.966
  482SOL    HW1 1820   0.403   0.982   3.924
  482SOL    HW2 1821   0.294   0.861   3.917
  483SOL     OW 1822   1.458   0.735   4.452
  483SOL    HW1 1823   1.453   0.670   4.527
  483SOL    HW2 1824   1.538   0.794   4.465
  484SOL     OW 1825   0.461   1.266   5.451
  484SOL    HW1 1826   0.411   1.267   5.365
  484SOL    HW2 1827   0.398   1.248   5.527
  485SOL     OW 1828   1.111   1.776   3.961
  485SOL    HW1 1829   1.051   1.714   4.011
  485SOL    HW2 1830   1.142   1.732   3.876
  486SOL     OW 1831   0.202   0.285   5.222
  486SOL    HW1 1832   0.122   0.345   5.209
  486SOL    HW2 1833   0.192   0.236   5.308
  487SOL     OW 1834   1.632   1.377   3.805
  487SOL    HW1 1835   1.600   1.471   3.795
  487SOL    HW2 1836   1.556   1.314   3.793
  488SOL     OW 1837   0.464   1.743   4.047
  488SOL    HW1 1838   0.497   1.782   4.133
  488SOL    HW2 1839   0.540   1.736   3.982
  489SOL     OW 1840   1.400   0.107   4.150
  489SOL    HW1 1841   1.376   0.070   4.060
  489SOL    HW2 1842   1.499   0.123   4.154
  490SOL     OW 1843   0.249   1.785   4.965
  490SOL    HW1 1844   0.306   1.720   5.015
  490SOL    HW2 1845   0.233   1.752   4.872
  491SOL     OW 1846   0.940   1.698   4.628
  491SOL    HW1 1847   1.020   1.641   4.649
  491SOL    HW2 1848   0.891   1.658   4.551
  492SOL     OW 1849   0.382   0.700   4.204
  492SOL    HW1 1850   0.427   0.610   4.201
  492SOL    HW2 1851   0.288   0.689   4.237
  493SOL     OW 1852   1.547   0.222   5.453
  493SOL    HW1 1853   1.542   0.259   5.545
  493SOL    HW2 1854   1.475   0.153   5.441
  494SOL     OW 1855   0.614   0.122   3.841
  494SOL    HW1 1856   0.712   0.100   3.848
  494SOL    HW2 1857   0.583   0.105   3.748
  495SOL     OW 1858   0.781   0.264   5.473
  495SOL    HW1 1859   0.848   0.203   5.516
  495SOL    HW2 1860   0.708   0.283   5.538
  496SOL     OW 1861   0.888   1.514   4.919
  496SOL    HW1 1862   0.865   1.489   4.825
  496SOL    HW2 1863   0.949   1.445   4.958
  497SOL     OW 1864   1.351   0.590   5.157
  497SOL    HW1 1865   1.379   0.547   5.242
  497SOL    HW2 1866   1.376   0.686   5.158
  498SOL     OW 1867   0.803   1.402   4.648
  498SOL    HW1 1868   0.893   1.416   4.606
  498SOL    HW2 1869   0.732   1.404   4.577
  499SOL     OW 1870   0.922   0.503   4.623
  499SOL    HW1 1871   0.897   0.494   4.527
  499SOL    HW2 1872   0.970   0.421   4.654
  500SOL     OW 1873   0.539   0.064   4.236
  500SOL    HW1 1874   0.458   0.065   4.294
  500SOL    HW2 1875   0.542   0.147   4.181
  501SOL     OW 1876   1.434   1.188   3.765
  501SOL    HW1 1877   1.466   1.112   3.822
  501SOL    HW2 1878   1.342   1.215   3.795
  502SOL     OW 1879   0.297   0.035   3.895
  502SOL    HW1 1880   0.346   0.119   3.874
  502SOL    HW2 1881   0.359  -0.030   3.940
  503SOL     OW 1882   0.935   0.236   4.204
  503SOL    HW1 1883   0.887   0.277   4.126
  503SOL    HW2 1884   1.034   0.234   4.185
  504SOL     OW 1885   1.076   0.683   5.188
  504SOL    HW1 1886   0.996   0.622   5.191
  504SOL    HW2 1887   1.157   0.630   5.164
  505SOL     OW 1888   1.227   1.570   4.517
  505SOL    HW1 1889   1.248   1.644   4.452
  505SOL    HW2 1890   1.295   1.570   4.590
  506SOL     OW 1891   0.459   1.152   4.465
  506SOL    HW1 1892   0.388   1.125   4.530
  506SOL    HW2 1893   0.433   1.124   4.372
  507SOL     OW 1894   1.271   1.797   4.315
  507SOL    HW1 1895   1.315   1.861   4.251
  507SOL    HW2 1896   1.221   1.849   4.385
  508SOL     OW 1897   1.032   0.549   3.740
  508SOL    HW1 1898   0.991   0.631   3.701
  508SOL    HW2 1899   1.096   0.575   3.813
  509SOL     OW 1900   0.078   0.556   5.110
  509SOL    HW1 1901   0.170   0.555   5.069
  509SOL    HW2 1902   0.072   0.630   5.177
  510SOL     OW 1903   0.561   0.222   4.871
  510SOL    HW1 1904   0.599   0.138   4.908
  510SOL    HW2 1905   0.473   0.241   4.915
  511SOL     OW 1906   0.866   0.454   4.366
  511SOL    HW1 1907   0.834   0.526   4.304
  511SOL    HW2 1908   0.890   0.373   4.313
  512SOL     OW 1909   1.017   0.039   4.477
  512SOL    HW1 1910   0.945   0.044   4.408
  512SOL    HW2 1911   0.993  -0.030   4.546
  513SOL     OW 1912   1.429   1.173   4.591
  513SOL    HW1 1913   1.374   1.089   4.584
  513SOL    HW2 1914   1.455   1.202   4.499
  514SOL     OW 1915   1.466   0.590   4.716
  514SOL    HW1 1916   1.436   0.495   4.723
  514SOL    HW2 1917   1.539   0.606   4.782
  515SOL     OW 1918   1.857   0.833   4.101
  515SOL    HW1 1919   1.899   0.769   4.165
  515SOL    HW2 1920   1.819   0.782   4.023
  516SOL     OW 1921   0.488   1.385   3.898
  516SOL    HW1 1922   0.401   1.370   3.945
  516SOL    HW2 1923   0.471   1.411   3.803
  517SOL     OW 1924   1.664   1.280   4.381
  517SOL    HW1 1925   1.763   1.288   4.395
  517SOL    HW2 1926   1.619   1.364   4.412
  518SOL     OW 1927   1.390   0.575   3.802
  518SOL    HW1 1928   1.336   0.554   3.883
  518SOL    HW2 1929   1.481   0.534   3.811
  519SOL     OW 1930   0.527   0.256   4.052
  519SOL    HW1 1931   0.554   0.197   3.977
  519SOL    HW2 1932   0.527   0.351   4.021
  520SOL     OW 1933   1.754   1.223   5.312
  520SOL    HW1 1934   1.845   1.184   5.299
  520SOL    HW2 1935   1.762   1.319   5.336
  521SOL     OW 1936   1.064   1.347   5.064
  521SOL    HW1 1937   0.984   1.324   5.119
  521SOL    HW2 1938   1.147   1.321   5.113
  522SOL     OW 1939   1.592   1.629   5.349
  522SOL    HW1 1940   1.619   1.663   5.259
  522SOL    HW2 1941   1.671   1.591   5.395
  523SOL     OW 1942   1.111   1.195   4.824
  523SOL    HW1 1943   1.071   1.239   4.905
  523SOL    HW2 1944   1.070   1.232   4.741
  524SOL     OW 1945   1.638   1.099   4.803
  524SOL    HW1 1946   1.643   1.180   4.862
  524SOL    HW2 1947   1.552   1.101   4.752
  525SOL     OW 1948   0.915   0.089   5.126
  525SOL    HW1 1949   0.940   0.069   5.031
  525SOL    HW2 1950   0.987   0.145   5.168
  526SOL     OW 1951   0.980   1.116   5.443
  526SOL    HW1 1952   0.881   1.122   5.453
  526SOL    HW2 1953   1.003   1.036   5.387
  527SOL     OW 1954   0.705   1.050   4.092
  527SOL    HW1 1955   0.691   1.057   4.191
  527SOL    HW2 1956   0.789   0.999   4.074
  528SOL     OW 1957   0.410   0.813   4.975
  528SOL    HW1 1958   0.496   0.825   5.025
  528SOL    HW2 1959   0.368   0.726   5.002
  529SOL     OW 1960   1.274   0.386   4.986
  529SOL    HW1 1961   1.295   0.460   5.050
  529SOL    HW2 1962   1.185   0.403   4.943
  530SOL     OW 1963   0.064   1.564   5.055
  530SOL    HW1 1964   0.018   1.646   5.021
  530SOL    HW2 1965   0.162   1.583   5.064
  531SOL     OW 1966   0.367   1.100   4.225
  531SOL    HW1 1967   0.360   1.183   4.169
  531SOL    HW2 1968   0.371   1.020   4.165
  532SOL     OW 1969   0.566   0.537   4.589
  532SOL    HW1 1970   0.578   0.603   4.515
  532SOL    HW2 1971   0.612   0.571   4.672
  533SOL     OW 1972   1.252   1.348   4.112
  533SOL    HW1 1973   1.302   1.425   4.152
  533SOL    HW2 1974   1.157   1.350   4.144
  534SOL     OW 1975   1.272   1.445   4.866
  534SOL    HW1 1976   1.319   1.458   4.953
  534SOL    HW2 1977   1.206   1.371   4.875
  535SOL     OW 1978   1.582   0.639   4.196
  535SOL    HW1 1979   1.551   0.700   4.269
  535SOL    HW2 1980   1.632   0.691   4.127
  536SOL     OW 1981   0.354   1.510   5.053
  536SOL    HW1 1982   0.333   1.466   4.966
  536SOL    HW2 1983   0.451   1.536   5.056
  537SOL     OW 1984   0.402   0.751   5.322
  537SOL    HW1 1985   0.470   0.806   5.275
  537SOL    HW2 1986   0.442   0.663   5.349
  538SOL     OW 1987   1.587   0.779   5.394
  538SOL    HW1 1988   1.495   0.817   5.389
  538SOL    HW2 1989   1.647   0.826   5.329
  539SOL     OW 1990   1.013   0.105   5.494
  539SOL    HW1 1991   1.019   0.190   5.442
  539SOL    HW2 1992   1.045   0.029   5.437
  540SOL     OW 1993   0.504   0.050   5.464
  540SOL    HW1 1994   0.462  -0.007   5.394
  540SOL    HW2 1995   0.438   0.119   5.496
  541SOL     OW 1996   0.573   0.870   4.753
  541SOL    HW1 1997   0.617   0.959   4.744
  541SOL    HW2 1998   0.510   0.870   4.830
  542SOL     OW 1999   1.360   0.862   4.769
  542SOL    HW1 2000   1.285   0.862   4.703
  542SOL    HW2 2001   1.397   0.770   4.778
  543SOL     OW 2002   1.209   0.525   3.999
  543SOL    HW1 2003   1.222   0.441   4.053
  543SOL    HW2 2004   1.180   0.599   4.059
  544SOL     OW 2005   0.307   0.213   4.955
  544SOL    HW1 2006   0.284   0.250   5.045
  544SOL    HW2 2007   0.277   0.118   4.949
  545SOL     OW 2008   0.037   1.310   5.006
  545SOL    HW1 2009   0.090   1.261   5.074
  545SOL    HW2 2010   0.059   1.408   5.011
  546SOL     OW 2011   0.732   0.634   4.788
  546SOL    HW1 2012   0.791   0.608   4.712
  546SOL    HW2 2013   0.704   0.730   4.777
  547SOL     OW 2014   1.728   0.935   5.578
  547SOL    HW1 2015   1.682   0.928   5.489
  547SOL    HW2 2016   1.666   0.979   5.644
  548SOL     OW 2017   0.307   0.063   4.342
  548SOL    HW1 2018   0.296   0.157   4.375
  548SOL    HW2 2019   0.302   0.000   4.419
  549SOL     OW 2020   1.622   0.367   4.098
  549SOL    HW1 2021   1.624   0.291   4.162
  549SOL    HW2 2022   1.574   0.444   4.138
  550SOL     OW 2023   1.023   0.766   4.690
  550SOL    HW1 2024   1.038   0.787   4.786
  550SOL    HW2 2025   0.993   0.671   4.681
  551SOL     OW 2026   0.980   1.573   5.424
  551SOL    HW1 2027   0.960   1.617   5.336
  551SOL    HW2 2028   1.019   1.482   5.408
  552SOL     OW 2029   1.859   1.518   5.329
  552SOL    HW1 2030   1.873   1.545   5.234
  552SOL    HW2 2031   1.942   1.540   5.382
  553SOL     OW 2032   0.350   0.898   5.528
  553SOL    HW1 2033   0.426   0.942   5.576
  553SOL    HW2 2034   0.385   0.851   5.446
  554SOL     OW 2035   1.540   0.274   3.849
  554SOL    HW1 2036   1.479   0.199   3.872
  554SOL    HW2 2037   1.562   0.326   3.932
  555SOL     OW 2038   1.303   0.838   3.766
  555SOL    HW1 2039   1.337   0.745   3.781
  555SOL    HW2 2040   1.321   0.865   3.671
  556SOL     OW 2041   1.068   1.333   4.573
  556SOL    HW1 2042   1.075   1.249   4.518
  556SOL    HW2 2043   1.130   1.402   4.537
  557SOL     OW 2044   0.319   0.810   4.673
  557SOL    HW1 2045   0.412   0.846   4.678
  557SOL    HW2 2046   0.313   0.725   4.725
  558SOL     OW 2047   0.339   0.509   4.730
  558SOL    HW1 2048   0.287   0.426   4.713
  558SOL    HW2 2049   0.416   0.514   4.666
  559SOL     OW 2050   1.138   0.380   5.402
  559SOL    HW1 2051   1.093   0.443   5.466
  559SOL    HW2 2052   1.231   0.411   5.385
  560SOL     OW 2053   1.160   0.207   5.201
  560SOL    HW1 2054   1.160   0.271   5.278
  560SOL    HW2 2055   1.188   0.255   5.118
  561SOL     OW 2056   0.008   1.326   3.924
  561SOL    HW1 2057  -0.085   1.347   3.893
  561SOL    HW2 2058   0.018   1.227   3.937
  562SOL     OW 2059   0.088   1.801   4.651
  562SOL    HW1 2060   0.046   1.715   4.624
  562SOL    HW2 2061   0.182   1.804   4.617
  563SOL     OW 2062   0.504   1.568   4.634
  563SOL    HW1 2063   0.570   1.642   4.643
  563SOL    HW2 2064   0.548   1.489   4.592
  564SOL     OW 2065   1.002   0.796   4.962
  564SOL    HW1 2066   1.043   0.764   5.048
  564SOL    HW2 2067   0.906   0.769   4.959
  565SOL     OW 2068   0.040   0.544   4.838
  565SOL    HW1 2069   0.125   0.511   4.797
  565SOL    HW2 2070   0.053   0.559   4.936
  566SOL     OW 2071   0.189   0.520   5.446
  566SOL    HW1 2072   0.248   0.480   5.376
  566SOL    HW2 2073   0.131   0.591   5.405
  567SOL     OW 2074   1.369   0.950   5.384
  567SOL    HW1 2075   1.408   1.039   5.404
  567SOL    HW2 2076   1.379   0.930   5.287
  568SOL     OW 2077   0.815   0.572   4.049
  568SOL    HW1 2078   0.822   0.483   4.003
  568SOL    HW2 2079   0.721   0.606   4.041
  569SOL     OW 2080   1.657   0.604   4.930
  569SOL    HW1 2081   1.619   0.535   4.992
  569SOL    HW2 2082   1.739   0.568   4.886
  570SOL     OW 2083   0.252   1.564   5.468
  570SOL    HW1 2084   0.222   1.621   5.544
  570SOL    HW2 2085   0.245   1.467   5.494
  571SOL     OW 2086   0.671   0.464   4.993
  571SOL    HW1 2087   0.637   0.375   4.963
  571SOL    HW2 2088   0.697   0.518   4.913
  572SOL     OW 2089   0.930   1.678   5.189
  572SOL    HW1 2090   0.906   1.660   5.094
  572SOL    HW2 2091   0.960   1.772   5.199
  573SOL     OW 2092   0.473   0.500   3.915
  573SOL    HW1 2093   0.534   0.580   3.919
  573SOL    HW2 2094   0.378   0.531   3.922
  574SOL     OW 2095   0.159   1.137   5.190
  574SOL    HW1 2096   0.181   1.076   5.266
  574SOL    HW2 2097   0.169   1.088   5.104
  575SOL     OW 2098   1.347   1.059   4.958
  575SOL    HW1 2099   1.371   0.996   4.884
  575SOL    HW2 2100   1.257   1.099   4.940
  576SOL     OW 2101   1.302   0.855   4.033
  576SOL    HW1 2102   1.216   0.824   4.075
  576SOL    HW2 2103   1.298   0.841   3.934
  577SOL     OW 2104   1.759   1.747   4.878
  577SOL    HW1 2105   1.820   1.777   4.805
  577SOL    HW2 2106   1.721   1.658   4.856
  578SOL     OW 2107   1.252   1.731   4.852
  578SOL    HW1 2108   1.336   1.736   4.798
  578SOL    HW2 2109   1.229   1.635   4.870
  579SOL     OW 2110   0.083   1.258   4.746
  579SOL    HW1 2111   0.078   1.257   4.846
  579SOL    HW2 2112   0.000   1.217   4.708
  580SOL     OW 2113   0.688   1.662   5.440
  580SOL    HW1 2114   0.632   1.743   5.449
  580SOL    HW2 2115   0.740   1.666   5.354
  581SOL     OW 2116   1.726   0.135   4.247
  581SOL    HW1 2117   1.799   0.118   4.180
  581SOL    HW2 2118   1.695   0.048   4.285
  582SOL     OW 2119   1.388   1.573   4.201
  582SOL    HW1 2120   1.455   1.585   4.127
  582SOL    HW2 2121   1.348   1.662   4.224
  583SOL     OW 2122   0.130   1.794   5.575
  583SOL    HW1 2123   0.089   1.720   5.628
  583SOL    HW2 2124   0.194   1.845   5.633
  584SOL     OW 2125   1.280   0.927   4.396
  584SOL    HW1 2126   1.340   0.846   4.398
  584SOL    HW2 2127   1.320   0.996   4.336
  585SOL     OW 2128   0.830   1.273   5.146
  585SOL    HW1 2129   0.825   1.306   5.241
  585SOL    HW2 2130   0.744   1.292   5.100
  586SOL     OW 2131   0.672   1.616   3.878
  586SOL    HW1 2132   0.681   1.626   3.779
  586SOL    HW2 2133   0.632   1.527   3.899
  587SOL     OW 2134   1.650   1.720   5.118
  587SOL    HW1 2135   1.703   1.730   5.034
  587SOL    HW2 2136   1.623   1.810   5.152
  588SOL     OW 2137   1.841   0.175   4.687
  588SOL    HW1 2138   1.880   0.090   4.651
  588SOL    HW2 2139   1.743   0.177   4.668
  589SOL     OW 2140   0.263   0.326   4.444
  589SOL    HW1 2141   0.184   0.377   4.410
  589SOL    HW2 2142   0.254   0.311   4.542
  590SOL     OW 2143   1.194   1.612   3.755
  590SOL    HW1 2144   1.200   1.519   3.792
  590SOL    HW2 2145   1.135   1.612   3.675
  591SOL     OW 2146   0.822   1.002   5.096
  591SOL    HW1 2147   0.862   1.001   5.004
  591SOL    HW2 2148   0.832   1.094   5.136
  592SOL     OW 2149   0.916   0.910   4.015
  592SOL    HW1 2150   0.979   0.948   3.947
  592SOL    HW2 2151   0.956   0.827   4.054
  593SOL     OW 2152   1.504   1.607   3.768
  593SOL    HW1 2153   1.412   1.644   3.775
  593SOL    HW2 2154   1.542   1.627   3.678
  594SOL     OW 2155   0.372   1.288   5.214
  594SOL    HW1 2156   0.359   1.381   5.180
  594SOL    HW2 2157   0.288   1.236   5.201
  595SOL     OW 2158   1.614   1.292   5.013
  595SOL    HW1 2159   1.674   1.295   5.093
  595SOL    HW2 2160   1.539   1.356   5.026
  596SOL     OW 2161   1.039   1.098   4.420
  596SOL    HW1 2162   0.969   1.051   4.474
  596SOL    HW2 2163   1.098   1.030   4.377
  597SOL     OW 2164   1.014   0.236   4.695
  597SOL    HW1 2165   1.006   0.200   4.602
  597SOL    HW2 2166   1.012   0.160   4.760
  598SOL     OW 2167   0.590   1.487   4.215
  598SOL    HW1 2168   0.632   1.429   4.145
  598SOL    HW2 2169   0.546   1.566   4.171
  599SOL     OW 2170   1.709   0.385   5.105
  599SOL    HW1 2171   1.782   0.454   5.109
  599SOL    HW2 2172   1.737   0.310   5.046
  600SOL     OW 2173   0.255   1.348   4.014
  600SOL    HW1 2174   0.159   1.349   3.987
  600SOL    HW2 2175   0.267   1.401   4.098
  601SOL     OW 2176   0.105   1.013   5.450
  601SOL    HW1 2177   0.028   0.980   5.504
  601SOL    HW2 2178   0.190   0.983   5.492
  602SOL     OW 2179   0.672   0.203   5.213
  602SOL    HW1 2180   0.762   0.187   5.173
  602SOL    HW2 2181   0.680   0.208   5.312
  603SOL     OW 2182   0.075   0.345   3.757
  603SOL    HW1 2183  -0.017   0.317   3.728
  603SOL    HW2 2184   0.106   0.422   3.701
  604SOL     OW 2185   1.440   0.856   5.122
  604SOL    HW1 2186   1.383   0.908   5.059
  604SOL    HW2 2187   1.536   0.868   5.098
  605SOL     OW 2188   0.072   0.166   4.042
  605SOL    HW1 2189   0.055   0.249   3.988
  605SOL    HW2 2190   0.162   0.129   4.020
  606SOL     OW 2191   1.183   1.335   3.843
  606SOL    HW1 2192   1.084   1.324   3.845
  606SOL    HW2 2193   1.217   1.350   3.936
  607SOL     OW 2194   0.613   0.842   5.155
  607SOL    HW1 2195   0.669   0.923   5.138
  607SOL    HW2 2196   0.672   0.762   5.158
  608SOL     OW 2197   1.493   1.767   4.683
  608SOL    HW1 2198   1.526   1.831   4.614
  608SOL    HW2 2199   1.559   1.761   4.758
  609SOL     OW 2200   0.716   0.565   5.432
  609SOL    HW1 2201   0.735   0.630   5.506
  609SOL    HW2 2202   0.776   0.485   5.441
  610SOL     OW 2203   1.450   1.220   5.357
  610SOL    HW1 2204   1.441   1.210   5.456
  610SOL    HW2 2205   1.546   1.213   5.331
  611SOL     OW 2206   0.390   1.741   5.284
  611SOL    HW1 2207   0.299   1.782   5.282
  611SOL    HW2 2208   0.383   1.647   5.316
  612SOL     OW 2209   1.674   0.883   4.978
  612SOL    HW1 2210   1.647   0.794   4.941
  612SOL    HW2 2211   1.675   0.951   4.905
  613SOL     OW 2212   1.225   0.325   4.173
  613SOL    HW1 2213   1.290   0.251   4.162
  613SOL    HW2 2214   1.245   0.375   4.257
  614SOL     OW 2215   0.594   0.745   4.376
  614SOL    HW1 2216   0.644   0.830   4.357
  614SOL    HW2 2217   0.506   0.747   4.328
  615SOL     OW 2218   1.777   0.342   5.366
  615SOL    HW1 2219   1.760   0.373   5.272
  615SOL    HW2 2220   1.693   0.305   5.404
  616SOL     OW 2221   1.730   0.934   5.241
  616SOL    HW1 2222   1.768   1.025   5.256
  616SOL    HW2 2223   1.722   0.917   5.142
  617SOL     OW 2224   0.859   1.374   3.740
  617SOL    HW1 2225   0.813   1.389   3.828
  617SOL    HW2 2226   0.903   1.459   3.710
  618SOL     OW 2227   0.661   1.790   4.677
  618SOL    HW1 2228   0.615   1.878   4.664
  618SOL    HW2 2229   0.760   1.802   4.670
  619SOL     OW 2230   0.859   0.956   4.585
  619SOL    HW1 2231   0.913   0.887   4.633
  619SOL    HW2 2232   0.827   1.025   4.651
  620SOL     OW 2233   1.083   0.984   3.811
  620SOL    HW1 2234   1.060   1.037   3.729
  620SOL    HW2 2235   1.164   0.928   3.792
  621SOL     OW 2236   1.861   1.569   4.575
  621SOL    HW1 2237   1.790   1.557   4.505
  621SOL    HW2 2238   1.862   1.490   4.635
  622SOL     OW 2239   0.221   1.314   5.568
  622SOL    HW1 2240   0.156   1.241   5.547
  622SOL    HW2 2241   0.225   1.328   5.666
  623SOL     OW 2242   0.079   1.240   4.377
  623SOL    HW1 2243   0.078   1.193   4.465
  623SOL    HW2 2244   0.161   1.212   4.326
  624SOL     OW 2245   0.672   1.391   5.348
  624SOL    HW1 2246   0.594   1.341   5.386
  624SOL    HW2 2247   0.669   1.486   5.379
  625SOL     OW 2248   1.824   0.192   4.951
  625SOL    HW1 2249   1.820   0.102   4.995
  625SOL    HW2 2250   1.827   0.181   4.852
  626SOL     OW 2251   0.428   0.424   4.244
  626SOL    HW1 2252   0.458   0.352   4.182
  626SOL    HW2 2253   0.389   0.384   4.327
  627SOL     OW 2254   1.705   1.487   4.828
  627SOL    HW1 2255   1.612   1.462   4.801
  627SOL    HW2 2256   1.731   1.437   4.910
  628SOL     OW 2257   0.317   0.547   5.004
  628SOL    HW1 2258   0.355   0.488   5.076
  628SOL    HW2 2259   0.357   0.521   4.916
  629SOL     OW 2260   0.812   1.586   4.411
  629SOL    HW1 2261   0.844   1.596   4.317
  629SOL    HW2 2262   0.733   1.524   4.413
  630SOL     OW 2263   1.424   0.214   4.836
  630SOL    HW1 2264   1.476   0.149   4.891
  630SOL    HW2 2265   1.375   0.277   4.897
  631SOL     OW 2266   1.001   0.034   4.878
  631SOL    HW1 2267   0.938  -0.038   4.847
  631SOL    HW2 2268   1.094  -0.002   4.878
  632SOL     OW 2269   0.770   1.330   4.025
  632SOL    HW1 2270   0.724   1.243   4.042
  632SOL    HW2 2271   0.861   1.327   4.066
  633SOL     OW 2272   0.618   1.567   5.008
  633SOL    HW1 2273   0.613   1.649   5.065
  633SOL    HW2 2274   0.707   1.564   4.963
  634SOL     OW 2275   1.352   0.052   3.892
  634SOL    HW1 2276   1.387   0.011   3.808
  634SOL    HW2 2277   1.262   0.014   3.912
  635SOL     OW 2278   1.300   0.453   4.415
  635SOL    HW1 2279   1.241   0.533   4.419
  635SOL    HW2 2280   1.315   0.418   4.508
  636SOL     OW 2281   1.593   0.221   4.606
  636SOL    HW1 2282   1.509   0.220   4.660
  636SOL    HW2 2283   1.595   0.304   4.550
  637SOL     OW 2284   0.039   1.077   4.024
  637SOL    HW1 2285   0.138   1.066   4.015
  637SOL    HW2 2286  -0.001   0.991   4.056
  638SOL     OW 2287   0.875   1.646   4.061
  638SOL    HW1 2288   0.798   1.611   4.007
  638SOL    HW2 2289   0.843   1.717   4.123
  639SOL     OW 2290   0.230   0.628   5.699
  639SOL    HW1 2291   0.137   0.626   5.736
  639SOL    HW2 2292   0.231   0.589   5.607
  640SOL     OW 2293   0.225   0.275   6.582
  640SOL    HW1 2294   0.260   0.258   6.674
  640SOL    HW2 2295   0.137   0.230   6.570
  641SOL     OW 2296   0.019   0.368   6.233
  641SOL    HW1 2297  -0.063   0.411   6.272
  641SOL    HW2 2298  -0.009   0.295   6.170
  642SOL     OW 2299   0.569   1.275   6.751
  642SOL    HW1 2300   0.476   1.268   6.714
  642SOL    HW2 2301   0.580   1.364   6.795
  643SOL     OW 2302   1.555   1.511   6.289
  643SOL    HW1 2303   1.498   1.495   6.370
  643SOL    HW2 2304   1.496   1.521   6.209
  644SOL     OW 2305   1.135   0.703   6.303
  644SOL    HW1 2306   1.192   0.781   6.278
  644SOL    HW2 2307   1.075   0.729   6.379
  645SOL     OW 2308   1.755   0.607   5.817
  645SOL    HW1 2309   1.743   0.594   5.718
  645SOL    HW2 2310   1.725   0.526   5.866
  646SOL     OW 2311   0.768   1.144   6.609
  646SOL    HW1 2312   0.690   1.161   6.669
  646SOL    HW2 2313   0.802   1.231   6.573
  647SOL     OW 2314   0.850   0.798   7.409
  647SOL    HW1 2315   0.846   0.874   7.474
  647SOL    HW2 2316   0.872   0.834   7.318
  648SOL     OW 2317   0.685   1.012   6.251
  648SOL    HW1 2318   0.754   0.996   6.321
  648SOL    HW2 2319   0.612   1.069   6.289
  649SOL     OW 2320   0.686   1.161   7.389
  649SOL    HW1 2321   0.746   1.240   7.403
  649SOL    HW2 2322   0.600   1.192   7.348
  650SOL     OW 2323   0.335   1.435   6.647
  650SOL    HW1 2324   0.257   1.404   6.594
  650SOL    HW2 2325   0.393   1.493   6.590
  651SOL     OW 2326   1.460   1.505   6.925
  651SOL    HW1 2327   1.484   1.599   6.951
  651SOL    HW2 2328   1.444   1.451   7.007
  652SOL     OW 2329   0.438   0.392   7.085
  652SOL    HW1 2330   0.520   0.336   7.094
  652SOL    HW2 2331   0.357   0.334   7.089
  653SOL     OW 2332   1.603   0.447   6.323
  653SOL    HW1 2333   1.529   0.493   6.273
  653SOL    HW2 2334   1.654   0.515   6.376
  654SOL     OW 2335   0.231   1.713   6.069
  654SOL    HW1 2336   0.265   1.790   6.123
  654SOL    HW2 2337   0.275   1.713   5.979
  655SOL     OW 2338   1.127   1.341   7.276
  655SOL    HW1 2339   1.174   1.341   7.364
  655SOL    HW2 2340   1.079   1.254   7.265
  656SOL     OW 2341   0.230   1.434   6.124
  656SOL    HW1 2342   0.204   1.530   6.124
  656SOL    HW2 2343   0.159   1.380   6.169
  657SOL     OW 2344   0.240   1.091   6.472
  657SOL    HW1 2345   0.254   1.007   6.524
  657SOL    HW2 2346   0.185   1.155   6.527
  658SOL     OW 2347   0.620   1.786   7.025
  658SOL    HW1 2348   0.528   1.769   7.060
  658SOL    HW2 2349   0.648   1.878   7.051
  659SOL     OW 2350   0.606   0.964   5.709
  659SOL    HW1 2351   0.613   1.048   5.655
  659SOL    HW2 2352   0.652   0.977   5.797
  660SOL     OW 2353   1.594   0.114   7.066
  660SOL    HW1 2354   1.576   0.181   6.994
  660SOL    HW2 2355   1.591   0.160   7.155
  661SOL     OW 2356   0.122   0.643   6.149
  661SOL    HW1 2357   0.077   0.555   6.166
  661SOL    HW2 2358   0.121   0.697   6.233
  662SOL     OW 2359   1.842   1.767   5.945
  662SOL    HW1 2360   1.896   1.738   6.025
  662SOL    HW2 2361   1.872   1.857   5.916
  663SOL     OW 2362   0.027   1.596   5.703
  663SOL    HW1 2363   0.008   1.500   5.724
  663SOL    HW2 2364  -0.006   1.654   5.778
  664SOL     OW 2365   1.689   0.922   6.198
  664SOL    HW1 2366   1.784   0.893   6.206
  664SOL    HW2 2367   1.681   0.987   6.123
  665SOL     OW 2368   1.641   1.108   6.018
  665SOL    HW1 2369   1.727   1.110   5.966
  665SOL    HW2 2370   1.655   1.155   6.106
  666SOL     OW 2371   0.113   0.737   7.183
  666SOL    HW1 2372   0.201   0.724   7.228
  666SOL    HW2 2373   0.100   0.834   7.161
  667SOL     OW 2374   0.613   1.365   6.312
  667SOL    HW1 2375   0.564   1.278   6.321
  667SOL    HW2 2376   0.590   1.408   6.225
  668SOL     OW 2377   1.293   1.228   7.009
  668SOL    HW1 2378   1.330   1.155   6.951
  668SOL    HW2 2379   1.345   1.233   7.094
  669SOL     OW 2380   0.809   0.004   6.088
  669SOL    HW1 2381   0.849   0.095   6.079
  669SOL    HW2 2382   0.709   0.012   6.094
  670SOL     OW 2383   0.197   0.976   6.850
  670SOL    HW1 2384   0.286   0.931   6.836
  670SOL    HW2 2385   0.124   0.911   6.831
  671SOL     OW 2386   1.525   0.999   5.776
  671SOL    HW1 2387   1.462   0.923   5.789
  671SOL    HW2 2388   1.573   1.017   5.862
  672SOL     OW 2389   1.187   1.792   7.202
  672SOL    HW1 2390   1.211   1.852   7.126
  672SOL    HW2 2391   1.194   1.697   7.172
  673SOL     OW 2392   0.317   0.251   7.387
  673SOL    HW1 2393   0.388   0.322   7.393
  673SOL    HW2 2394   0.229   0.290   7.415
  674SOL     OW 2395   1.466   1.417   6.539
  674SOL    HW1 2396   1.407   1.423   6.619
  674SOL    HW2 2397   1.451   1.329   6.493
  675SOL     OW 2398   1.667   1.714   6.158
  675SOL    HW1 2399   1.626   1.691   6.070
  675SOL    HW2 2400   1.649   1.640   6.223
  676SOL     OW 2401   0.598   0.729   5.856
  676SOL    HW1 2402   0.622   0.798   5.788
  676SOL    HW2 2403   0.520   0.762   5.910
  677SOL     OW 2404   1.281   0.345   6.530
  677SOL    HW1 2405   1.195   0.295   6.517
  677SOL    HW2 2406   1.343   0.291   6.586
  678SOL     OW 2407   1.576   1.662   5.893
  678SOL    HW1 2408   1.665   1.708   5.896
  678SOL    HW2 2409   1.555   1.638   5.798
  679SOL     OW 2410   0.807   0.605   7.051
  679SOL    HW1 2411   0.760   0.602   7.140
  679SOL    HW2 2412   0.756   0.550   6.985
  680SOL     OW 2413   1.394   0.469   7.260
  680SOL    HW1 2414   1.374   0.512   7.348
  680SOL    HW2 2415   1.472   0.407   7.269
  681SOL     OW 2416   0.973   0.890   7.158
  681SOL    HW1 2417   1.019   0.806   7.129
  681SOL    HW2 2418   0.917   0.924   7.083
  682SOL     OW 2419   0.991   0.410   6.828
  682SOL    HW1 2420   0.914   0.444   6.882
  682SOL    HW2 2421   0.957   0.359   6.749
  683SOL     OW 2422   1.041   0.701   6.015
  683SOL    HW1 2423   1.067   0.697   6.111
  683SOL    HW2 2424   0.956   0.650   6.001
  684SOL     OW 2425   0.076   0.811   6.375
  684SOL    HW1 2426   0.175   0.799   6.384
  684SOL    HW2 2427   0.052   0.906   6.396
  685SOL     OW 2428   0.130   1.821   7.157
  685SOL    HW1 2429   0.120   1.806   7.256
  685SOL    HW2 2430   0.044   1.857   7.121
  686SOL     OW 2431   0.865   0.348   5.781
  686SOL    HW1 2432   0.924   0.411   5.732
  686SOL    HW2 2433   0.884   0.254   5.752
  687SOL     OW 2434   1.719   0.585   7.417
  687SOL    HW1 2435   1.693   0.674   7.381
  687SOL    HW2 2436   1.717   0.517   7.344
  688SOL     OW 2437   1.362   1.144   6.131
  688SOL    HW1 2438   1.445   1.115   6.083
  688SOL    HW2 2439   1.313   1.211   6.075
  689SOL     OW 2440   0.550   0.196   6.471
  689SOL    HW1 2441   0.545   0.191   6.571
  689SOL    HW2 2442   0.552   0.292   6.442
  690SOL     OW 2443   1.008   1.456   6.063
  690SOL    HW1 2444   0.962   1.528   6.011
  690SOL    HW2 2445   1.004   1.476   6.161
  691SOL     OW 2446   0.351   1.801   6.439
  691SOL    HW1 2447   0.401   1.715   6.445
  691SOL    HW2 2448   0.416   1.878   6.436
  692SOL     OW 2449   1.795   1.066   6.459
  692SOL    HW1 2450   1.733   1.051   6.383
  692SOL    HW2 2451   1.743   1.077   6.544
  693SOL     OW 2452   1.227   1.550   7.092
  693SOL    HW1 2453   1.233   1.473   7.156
  693SOL    HW2 2454   1.175   1.524   7.012
  694SOL     OW 2455   0.321   0.943   5.828
  694SOL    HW1 2456   0.403   0.982   5.786
  694SOL    HW2 2457   0.294   0.861   5.779
  695SOL     OW 2458   1.458   0.735   6.314
  695SOL    HW1 2459   1.453   0.670   6.389
  695SOL    HW2 2460   1.538   0.794   6.327
  696SOL     OW 2461   0.461   1.266   7.313
  696SOL    HW1 2462   0.411   1.267   7.227
  696SOL    HW2 2463   0.398   1.248   7.389
  697SOL     OW 2464   1.111   1.776   5.823
  697SOL    HW1 2465   1.051   1.714   5.873
  697SOL    HW2 2466   1.142   1.732   5.738
  698SOL     OW 2467   0.202   0.285   7.084
  698SOL    HW1 2468   0.122   0.345   7.071
  698SOL    HW2 2469   0.192   0.236   7.170
  699SOL     OW 2470   1.632   1.377   5.667
  699SOL    HW1 2471   1.600   1.471   5.657
  699SOL    HW2 2472   1.556   1.314   5.655
  700SOL     OW 2473   0.464   1.743   5.909
  700SOL    HW1 2474   0.497   1.782   5.995
  700SOL    HW2 2475   0.540   1.736   5.844
  701SOL     OW 2476   1.400   0.107   6.012
  701SOL    HW1 2477   1.376   0.070   5.922
  701SOL    HW2 2478   1.499   0.123   6.016
  702SOL     OW 2479   0.249   1.785   6.827
  702SOL    HW1 2480   0.306   1.720   6.877
  702SOL    HW2 2481   0.233   1.752   6.734
  703SOL     OW 2482   0.940   1.698   6.490
  703SOL    HW1 2483   1.020   1.641   6.511
  703SOL    HW2 2484   0.891   1.658   6.413
  704SOL     OW 2485   0.382   0.700   6.066
  704SOL    HW1 2486   0.427   0.610   6.063
  704SOL    HW2 2487   0.288   0.689   6.099
  705SOL     OW 2488   1.547   0.222   7.315
  705SOL    HW1 2489   1.542   0.259   7.407
  705SOL    HW2 2490   1.475   0.153   7.303
  706SOL     OW 2491   0.614   0.122   5.703
  706SOL    HW1 2492   0.712   0.100   5.710
  706SOL    HW2 2493   0.583   0.105   5.610
  707SOL     OW 2494   0.781   0.264   7.335
  707SOL    HW1 2495   0.848   0.203   7.378
  707SOL    HW2 2496   0.708   0.283   7.400
  708SOL     OW 2497   0.888   1.514   6.781
  708SOL    HW1 2498   0.865   1.489   6.687
  708SOL    HW2 2499   0.949   1.445   6.820
  709SOL     OW 2500   1.351   0.590   7.019
  709SOL    HW1 2501   1.379   0.547   7.104
  709SOL    HW2 2502   1.376   0.686   7.020
  710SOL     OW 2503   0.803   1.402   6.510
  710SOL    HW1 2504   0.893   1.416   6.468
  710SOL    HW2 2505   0.732   1.404   6.439
  711SOL     OW 2506   0.922   0.503   6.485
  711SOL    HW1 2507   0.897   0.494   6.389
  711SOL    HW2 2508   0.970   0.421   6.516
  712SOL     OW 2509   0.539   0.064   6.098
  712SOL    HW1 2510   0.458   0.065   6.156
  712SOL    HW2 2511   0.542   0.147   6.043
  713SOL     OW 2512   1.434   1.188   5.627
  713SOL    HW1 2513   1.466   1.112   5.684
  713SOL    HW2 2514   1.342   1.215   5.657
  714SOL     OW 2515   0.297   0.035   5.757
  714SOL    HW1 2516   0.346   0.119   5.736
  714SOL    HW2 2517   0.359  -0.030   5.802
  715SOL     OW 2518   0.935   0.236   6.066
  715SOL    HW1 2519   0.887   0.277   5.988
  715SOL    HW2 2520   1.034   0.234   6.047
  716SOL     OW 2521   1.076   0.683   7.050
  716SOL    HW1 2522   0.996   0.622   7.053
  716SOL    HW2 2523   1.157   0.630   7.026
  717SOL     OW 2524   1.227   1.570   6.379
  717SOL    HW1 2525   1.248   1.644   6.314
  717SOL    HW2 2526   1.295   1.570   6.452
  718SOL     OW 2527   0.459   1.152   6.327
  718SOL    HW1 2528   0.388   1.125   6.392
  718SOL    HW2 2529   0.433   1.124   6.234
  719SOL     OW 2530   1.271   1.797   6.177
  719SOL    HW1 2531   1.315   1.861   6.113
  719SOL    HW2 2532   1.221   1.849   6.247
  720SOL     OW 2533   1.032   0.549   5.602
  720SOL    HW1 2534   0.991   0.631   5.563
  720SOL    HW2 2535   1.096   0.575   5.675
  721SOL     OW 2536   0.078   0.556   6.972
  721SOL    HW1 2537   0.170   0.555   6.931
  721SOL    HW2 2538   0.072   0.630   7.039
  722SOL     OW 2539   0.561   0.222   6.733
  722SOL    HW1 2540   0.599   0.138   6.770
  722SOL    HW2 2541   0.473   0.241   6.777
  723SOL     OW 2542   0.866   0.454   6.228
  723SOL    HW1 2543   0.834   0.526   6.166
  723SOL    HW2 2544   0.890   0.373   6.175
  724SOL     OW 2545   1.017   0.039   6.339
  724SOL    HW1 2546   0.945   0.044   6.270
  724SOL    HW2 2547   0.993  -0.030   6.408
  725SOL     OW 2548   1.429   1.173   6.453
  725SOL    HW1 2549   1.374   1.089   6.446
  725SOL    HW2 2550   1.455   1.202   6.361
  726SOL     OW 2551   1.466   0.590   6.578
  726SOL    HW1 2552   1.436   0.495   6.585
  726SOL    HW2 2553   1.539   0.606   6.644
  727SOL     OW 2554   1.857   0.833   5.963
  727SOL    HW1 2555   1.899   0.769   6.027
  727SOL    HW2 2556   1.819   0.782   5.885
  728SOL     OW 2557   0.488   1.385   5.760
  728SOL    HW1 2558   0.401   1.370   5.807
  728SOL    HW2 2559   0.471   1.411   5.665
  729SOL     OW 2560   1.664   1.280   6.243
  729SOL    HW1 2561   1.763   1.288   6.257
  729SOL    HW2 2562   1.619   1.364   6.274
  730SOL     OW 2563   1.390   0.575   5.664
  730SOL    HW1 2564   1.336   0.554   5.745
  730SOL    HW2 2565   1.481   0.534   5.673
  731SOL     OW 2566   0.527   0.256   5.914
  731SOL    HW1 2567   0.554   0.197   5.839
  731SOL    HW2 2568   0.527   0.351   5.883
  732SOL     OW 2569   1.754   1.223   7.174
  732SOL    HW1 2570   1.845   1.184   7.161
  732SOL    HW2 2571   1.762   1.319   7.198
  733SOL     OW 2572   1.064   1.347   6.926
  733SOL    HW1 2573   0.984   1.324   6.981
  733SOL    HW2 2574   1.147   1.321   6.975
  734SOL     OW 2575   1.592   1.629   7.211
  734SOL    HW1 2576   1.619   1.663   7.121
  734SOL    HW2 2577   1.671   1.591   7.257
  735SOL     OW 2578   1.111   1.195   6.686
  735SOL    HW1 2579   1.071   1.239   6.767
  735SOL    HW2 2580   1.070   1.232   6.603
  736SOL     OW 2581   1.638   1.099   6.665
  736SOL    HW1 2582   1.643   1.180   6.724
  736SOL    HW2 2583   1.552   1.101   6.614
  737SOL     OW 2584   0.915   0.089   6.988
  737SOL    HW1 2585   0.940   0.069   6.893
  737SOL    HW2 2586   0.987   0.145   7.030
  738SOL     OW 2587   0.980   1.116   7.305
  738SOL    HW1 2588   0.881   1.122   7.315
  738SOL    HW2 2589   1.003   1.036   7.249
  739SOL     OW 2590   0.705   1.050   5.954
  739SOL    HW1 2591   0.691   1.057   6.053
  739SOL    HW2 2592   0.789   0.999   5.936
  740SOL     OW 2593   0.410   0.813   6.837
  740SOL    HW1 2594   0.496   0.825   6.887
  740SOL    HW2 2595   0.368   0.726   6.864
  741SOL     OW 2596   1.274   0.386   6.848
  741SOL    HW1 2597   1.295   0.460   6.912
  741SOL    HW2 2598   1.185   0.403   6.805
  742SOL     OW 2599   0.064   1.564   6.917
  742SOL    HW1 2600   0.018   1.646   6.883
  742SOL    HW2 2601   0.162   1.583   6.926
  743SOL     OW 2602   0.367   1.100   6.087
  743SOL    HW1 2603   0.360   1.183   6.031
  743SOL    HW2 2604   0.371   1.020   6.027
  744SOL     OW 2605   0.566   0.537   6.451
  744SOL    HW1 2606   0.578   0.603   6.377
  744SOL    HW2 2607   0.612   0.571   6.534
  745SOL     OW 2608   1.252   1.348   5.974
  745SOL    HW1 2609   1.302   1.425   6.014
  745SOL    HW2 2610   1.157   1.350   6.006
  746SOL     OW 2611   1.272   1.445   6.728
  746SOL    HW1 2612   1.319   1.458   6.815
  746SOL    HW2 2613   1.206   1.371   6.737
  747SOL     OW 2614   1.582   0.639   6.058
  747SOL    HW1 2615   1.551   0.700   6.131
  747SOL    HW2 2616   1.632   0.691   5.989
  748SOL     OW 2617   0.354   1.510   6.915
  748SOL    HW1 2618   0.333   1.466   6.828
  748SOL    HW2 2619   0.451   1.536   6.918
  749SOL     OW 2620   0.402   0.751   7.184
  749SOL    HW1 2621   0.470   0.806   7.137
  749SOL    HW2 2622   0.442   0.663   7.211
  750SOL     OW 2623   1.587   0.779   7.256
  750SOL    HW1 2624   1.495   0.817   7.251
  750SOL    HW2 2625   1.647   0.826   7.191
  751SOL     OW 2626   1.013   0.105   7.356
  751SOL    HW1 2627   1.019   0.190   7.304
  751SOL    HW2 2628   1.045   0.029   7.299
  752SOL     OW 2629   0.504   0.050   7.326
  752SOL    HW1 2630   0.462  -0.007   7.256
  752SOL    HW2 2631   0.438   0.119   7.358
  753SOL     OW 2632   0.573   0.870   6.615
  753SOL    HW1 2633   0.617   0.959   6.606
  753SOL    HW2 2634   0.510   0.870   6.692
  754SOL     OW 2635   1.360   0.862   6.631
  754SOL    HW1 2636   1.285   0.862   6.565
  754SOL    HW2 2637   1.397   0.770   6.640
  755SOL     OW 2638   1.209   0.525   5.861
  755SOL    HW1 2639   1.222   0.441   5.915
  755SOL    HW2 2640   1.180   0.599   5.921
  756SOL     OW 2641   0.307   0.213   6.817
  756SOL    HW1 2642   0.284   0.250   6.907
  756SOL    HW2 2643   0.277   0.118   6.811
  757SOL     OW 2644   0.037   1.310   6.868
  757SOL    HW1 2645   0.090   1.261   6.936
  757SOL    HW2 2646   0.059   1.408   6.873
  758SOL     OW 2647   0.732   0.634   6.650
  758SOL    HW1 2648   0.791   0.608   6.574
  758SOL    HW2 2649   0.704   0.730   6.639
  759SOL     OW 2650   1.728   0.935   7.440
  759SOL    HW1 2651   1.682   0.928   7.351
  759SOL    HW2 2652   1.666   0.979   7.506
  760SOL     OW 2653   0.307   0.063   6.204
  760SOL    HW1 2654   0.296   0.157   6.237
  760SOL    HW2 2655   0.302   0.000   6.281
  761SOL     OW 2656   1.622   0.367   5.960
  761SOL    HW1 2657   1.624   0.291   6.024
  761SOL    HW2 2658   1.574   0.444   6.000
  762SOL     OW 2659   1.023   0.766   6.552
  762SOL    HW1 2660   1.038   0.787   6.648
  762SOL    HW2 2661   0.993   0.671   6.543
  763SOL     OW 2662   0.980   1.573   7.286
  763SOL    HW1 2663   0.960   1.617   7.198
  763SOL    HW2 2664   1.019   1.482   7.270
  764SOL     OW 2665   1.859   1.518   7.191
  764SOL    HW1 2666   1.873   1.545   7.096
  764SOL    HW2 2667   1.942   1.540   7.244
  765SOL     OW 2668   0.350   0.898   7.390
  765SOL    HW1 2669   0.426   0.942   7.438
  765SOL    HW2 2670   0.385   0.851   7.308
  766SOL     OW 2671   1.540   0.274   5.711
  766SOL    HW1 2672   1.479   0.199   5.734
  766SOL    HW2 2673   1.562   0.326   5.794
  767SOL     OW 2674   1.303   0.838   5.628
  767SOL    HW1 2675   1.337   0.745   5.643
  767SOL    HW2 2676   1.321   0.865   5.533
  768SOL     OW 2677   1.068   1.333   6.435
  768SOL    HW1 2678   1.075   1.249   6.380
  768SOL    HW2 2679   1.130   1.402   6.399
  769SOL     OW 2680   0.319   0.810   6.535
  769SOL    HW1 2681   0.412   0.846   6.540
  769SOL    HW2 2682   0.313   0.725   6.587
  770SOL     OW 2683   0.339   0.509   6.592
  770SOL    HW1 2684   0.287   0.426   6.575
  770SOL    HW2 2685   0.416   0.514   6.528
  771SOL     OW 2686   1.138   0.380   7.264
  771SOL    HW1 2687   1.093   0.443   7.328
  771SOL    HW2 2688   1.231   0.411   7.247
  772SOL     OW 2689   1.160   0.207   7.063
  772SOL    HW1 2690   1.160   0.271   7.140
  772SOL    HW2 2691   1.188   0.255   6.980
  773SOL     OW 2692   0.008   1.326   5.786
  773SOL    HW1 2693  -0.085   1.347   5.755
  773SOL    HW2 2694   0.018   1.227   5.799
  774SOL     OW 2695   0.088   1.801   6.513
  774SOL    HW1 2696   0.046   1.715   6.486
  774SOL    HW2 2697   0.182   1.804   6.479
  775SOL     OW 2698   0.504   1.568   6.496
  775SOL    HW1 2699   0.570   1.642   6.505
  775SOL    HW2 2700   0.548   1.489   6.454
  776SOL     OW 2701   1.002   0.796   6.824
  776SOL    HW1 2702   1.043   0.764   6.910
  776SOL    HW2 2703   0.906   0.769   6.821
  777SOL     OW 2704   0.040   0.544   6.700
  777SOL    HW1 2705   0.125   0.511   6.659
  777SOL    HW2 2706   0.053   0.559   6.798
  778SOL     OW 2707   0.189   0.520   7.308
  778SOL    HW1 2708   0.248   0.480   7.238
  778SOL    HW2 2709   0.131   0.591   7.267
  779SOL     OW 2710   1.369   0.950   7.246
  779SOL    HW1 2711   1.408   1.039   7.266
  779SOL    HW2 2712   1.379   0.930   7.149
  780SOL     OW 2713   0.815   0.572   5.911
  780SOL    HW1 2714   0.822   0.483   5.865
  780SOL    HW2 2715   0.721   0.606   5.903
  781SOL     OW 2716   1.657   0.604   6.792
  781SOL    HW1 2717   1.619   0.535   6.854
  781SOL    HW2 2718   1.739   0.568   6.748
  782SOL     OW 2719   0.252   1.564   7.330
  782SOL    HW1 2720   0.222   1.621   7.406
  782SOL    HW2 2721   0.245   1.467   7.356
  783SOL     OW 2722   0.671   0.464   6.855
  783SOL    HW1 2723   0.637   0.375   6.825
  783SOL    HW2 2724   0.697   0.518   6.775
  784SOL     OW 2725   0.930   1.678   7.051
  784SOL    HW1 2726   0.906   1.660   6.956
  784SOL    HW2 2727   0.960   1.772   7.061
  785SOL     OW 2728   0.473   0.500   5.777
  785SOL    HW1 2729   0.534   0.580   5.781
  785SOL    HW2 2730   0.378   0.531   5.784
  786SOL     OW 2731   0.159   1.137   7.052
  786SOL    HW1 2732   0.181   1.076   7.128
  786SOL    HW2 2733   0.169   1.088   6.966
  787SOL     OW 2734   1.347   1.059   6.820
  787SOL    HW1 2735   1.371   0.996   6.746
  787SOL    HW2 2736   1.257   1.099   6.802
  788SOL     OW 2737   1.302   0.855   5.895
  788SOL    HW1 2738   1.216   0.824   5.937
  788SOL    HW2 2739   1.298   0.841   5.796
  789SOL     OW 2740   1.759   1.747   6.740
  789SOL    HW1 2741   1.820   1.777   6.667
  789SOL    HW2 2742   1.721   1.658   6.718
  790SOL     OW 2743   1.252   1.731   6.714
  790SOL    HW1 2744   1.336   1.736   6.660
  790SOL    HW2 2745   1.229   1.635   6.732
  791SOL     OW 2746   0.083   1.258   6.608
  791SOL    HW1 2747   0.078   1.257   6.708
  791SOL    HW2 2748   0.000   1.217   6.570
  792SOL     OW 2749   0.688   1.662   7.302
  792SOL    HW1 2750   0.632   1.743   7.311
  792SOL    HW2 2751   0.740   1.666   7.216
  793SOL     OW 2752   1.726   0.135   6.109
  793SOL    HW1 2753   1.799   0.118   6.042
  793SOL    HW2 2754   1.695   0.048   6.147
  794SOL     OW 2755   1.388   1.573   6.063
  794SOL    HW1 2756   1.455   1.585   5.989
  794SOL    HW2 2757   1.348   1.662   6.086
  795SOL     OW 2758   0.130   1.794   7.437
  795SOL    HW1 2759   0.089   1.720   7.490
  795SOL    HW2 2760   0.194   1.845   7.495
  796SOL     OW 2761   1.280   0.927   6.258
  796SOL    HW1 2762   1.340   0.846   6.260
  796SOL    HW2 2763   1.320   0.996   6.198
  797SOL     OW 2764   0.830   1.273   7.008
  797SOL    HW1 2765   0.825   1.306   7.103
  797SOL    HW2 2766   0.744   1.292   6.962
  798SOL     OW 2767   0.672   1.616   5.740
  798SOL    HW1 2768   0.681   1.626   5.641
  798SOL    HW2 2769   0.632   1.527   5.761
  799SOL     OW 2770   1.650   1.720   6.980
  799SOL    HW1 2771   1.703   1.730   6.896
  799SOL    HW2 2772   1.623   1.810   7.014
  800SOL     OW 2773   1.841   0.175   6.549
  800SOL    HW1 2774   1.880   0.090   6.513
  800SOL    HW2 2775   1.743   0.177   6.530
  801SOL     OW 2776   0.263   0.326   6.306
  801SOL    HW1 2777   0.184   0.377   6.272
  801SOL    HW2 2778   0.254   0.311   6.404
  802SOL     OW 2779   1.194   1.612   5.617
  802SOL    HW1 2780   1.200   1.519   5.654
  802SOL    HW2 2781   1.135   1.612   5.537
  803SOL     OW 2782   0.822   1.002   6.958
  803SOL    HW1 2783   0.862   1.001   6.866
  803SOL    HW2 2784   0.832   1.094   6.998
  804SOL     OW 2785   0.916   0.910   5.877
  804SOL    HW1 2786   0.979   0.948   5.809
  804SOL    HW2 2787   0.956   0.827   5.916
  805SOL     OW 2788   1.504   1.607   5.630
  805SOL    HW1 2789   1.412   1.644   5.637
  805SOL    HW2 2790   1.542   1.627   5.540
  806SOL     OW 2791   0.372   1.288   7.076
  806SOL    HW1 2792   0.359   1.381   7.042
  806SOL    HW2 2793   0.288   1.236   7.063
  807SOL     OW 2794   1.614   1.292   6.875
  807SOL    HW1 2795   1.674   1.295   6.955
  807SOL    HW2 2796   1.539   1.356   6.888
  808SOL     OW 2797   1.039   1.098   6.282
  808SOL    HW1 2798   0.969   1.051   6.336
  808SOL    HW2 2799   1.098   1.030   6.239
  809SOL     OW 2800   1.014   0.236   6.557
  809SOL    HW1 2801   1.006   0.200   6.464
  809SOL    HW2 2802   1.012   0.160   6.622
  810SOL     OW 2803   0.590   1.487   6.077
  810SOL    HW1 2804   0.632   1.429   6.007
  810SOL    HW2 2805   0.546   1.566   6.033
  811SOL     OW 2806   1.709   0.385   6.967
  811SOL    HW1 2807   1.782   0.454   6.971
  811SOL    HW2 2808   1.737   0.310   6.908
  812SOL     OW 2809   0.255   1.348   5.876
  812SOL    HW1 2810   0.159   1.349   5.849
  812SOL    HW2 2811   0.267   1.401   5.960
  813SOL     OW 2812   0.105   1.013   7.312
  813SOL    HW1 2813   0.028   0.980   7.366
  813SOL    HW2 2814   0.190   0.983   7.354
  814SOL     OW 2815   0.672   0.203   7.075
  814SOL    HW1 2816   0.762   0.187   7.035
  814SOL    HW2 2817   0.680   0.208   7.174
  815SOL     OW 2818   0.075   0.345   5.619
  815SOL    HW1 2819  -0.017   0.317   5.590
  815SOL    HW2 2820   0.106   0.422   5.563
  816SOL     OW 2821   1.440   0.856   6.984
  816SOL    HW1 2822   1.383   0.908   6.921
  816SOL    HW2 2823   1.536   0.868   6.960
  817SOL     OW 2824   0.072   0.166   5.904
  817SOL    HW1 2825   0.055   0.249   5.850
  817SOL    HW2 2826   0.162   0.129   5.882
  818SOL     OW 2827   1.183   1.335   5.705
  818SOL    HW1 2828   1.084   1.324   5.707
  818SOL    HW2 2829   1.217   1.350   5.798
  819SOL     OW 2830   0.613   0.842   7.017
  819SOL    HW1 2831   0.669   0.923   7.000
  819SOL    HW2 2832   0.672   0.762   7.020
  820SOL     OW 2833   1.493   1.767   6.545
  820SOL    HW1 2834   1.526   1.831   6.476
  820SOL    HW2 2835   1.559   1.761   6.620
  821SOL     OW 2836   0.716   0.565   7.294
  821SOL    HW1 2837   0.735   0.630   7.368
  821SOL    HW2 2838   0.776   0.485   7.303
  822SOL     OW 2839   1.450   1.220   7.219
  822SOL    HW1 2840   1.441   1.210   7.318
  822SOL    HW2 2841   1.546   1.213   7.193
  823SOL     OW 2842   0.390   1.741   7.146
  823SOL    HW1 2843   0.299   1.782   7.144
  823SOL    HW2 2844   0.383   1.647   7.178
  824SOL     OW 2845   1.674   0.883   6.840
  824SOL    HW1 2846   1.647   0.794   6.803
  824SOL    HW2 2847   1.675   0.951   6.767
  825SOL     OW 2848   1.225   0.325   6.035
  825SOL    HW1 2849   1.290   0.251   6.024
  825SOL    HW2 2850   1.245   0.375   6.119
  826SOL     OW 2851   0.594   0.745   6.238
  826SOL    HW1 2852   0.644   0.830   6.219
  826SOL    HW2 2853   0.506   0.747   6.190
  827SOL     OW 2854   1.777   0.342   7.228
  827SOL    HW1 2855   1.760   0.373   7.134
  827SOL    HW2 2856   1.693   0.305   7.266
  828SOL     OW 2857   1.730   0.934   7.103
  828SOL    HW1 2858   1.768   1.025   7.118
  828SOL    HW2 2859   1.722   0.917   7.004
  829SOL     OW 2860   0.859   1.374   5.602
  829SOL    HW1 2861   0.813   1.389   5.690
  829SOL    HW2 2862   0.903   1.459   5.572
  830SOL     OW 2863   0.661   1.790   6.539
  830SOL    HW1 2864   0.615   1.878   6.526
  830SOL    HW2 2865   0.760   1.802   6.532
  831SOL     OW 2866   0.859   0.956   6.447
  831SOL    HW1 2867   0.913   0.887   6.495
  831SOL    HW2 2868   0.827   1.025   6.513
  832SOL     OW 2869   1.083   0.984   5.673
  832SOL    HW1 2870   1.060   1.037   5.591
  832SOL    HW2 2871   1.164   0.928   5.654
  833SOL     OW 2872   1.861   1.569   6.437
  833SOL    HW1 2873   1.790   1.557   6.367
  833SOL    HW2 2874   1.862   1.490   6.497
  834SOL     OW 2875   0.221   1.314   7.430
  834SOL    HW1 2876   0.156   1.241   7.409
  834SOL    HW2 2877   0.225   1.328   7.528
  835SOL     OW 2878   0.079   1.240   6.239
  835SOL    HW1 2879   0.078   1.193   6.327
  835SOL    HW2 2880   0.161   1.212   6.188
  836SOL     OW 2881   0.672   1.391   7.210
  836SOL    HW1 2882   0.594   1.341   7.248
  836SOL    HW2 2883   0.669   1.486   7.241
  837SOL     OW 2884   1.824   0.192   6.813
  837SOL    HW1 2885   1.820   0.102   6.857
  837SOL    HW2 2886   1.827   0.181   6.714
  838SOL     OW 2887   0.428   0.424   6.106
  838SOL    HW1 2888   0.458   0.352   6.044
  838SOL    HW2 2889   0.389   0.384   6.189
  839SOL     OW 2890   1.705   1.487   6.690
  839SOL    HW1 2891   1.612   1.462   6.663
  839SOL    HW2 2892   1.731   1.437   6.772
  840SOL     OW 2893   0.317   0.547   6.866
  840SOL    HW1 2894   0.355   0.488   6.938
  840SOL    HW2 2895   0.357   0.521   6.778
  841SOL     OW 2896   0.812   1.586   6.273
  841SOL    HW1 2897   0.844   1.596   6.179
  841SOL    HW2 2898   0.733   1.524   6.275
  842SOL     OW 2899   1.424   0.214   6.698
  842SOL    HW1 2900   1.476   0.149   6.753
  842SOL    HW2 2901   1.375   0.277   6.759
  843SOL     OW 2902   1.001   0.034   6.740
  843SOL    HW1 2903   0.938  -0.038   6.709
  843SOL    HW2 2904   1.094  -0.002   6.740
  844SOL     OW 2905   0.770   1.330   5.887
  844SOL    HW1 2906   0.724   1.243   5.904
  844SOL    HW2 2907   0.861   1.327   5.928
  845SOL     OW 2908   0.618   1.567   6.870
  845SOL    HW1 2909   0.613   1.649   6.927
  845SOL    HW2 2910   0.707   1.564   6.825
  846SOL     OW 2911   1.352   0.052   5.754
  846SOL    HW1 2912   1.387   0.011   5.670
  846SOL    HW2 2913   1.262   0.014   5.774
  847SOL     OW 2914   1.300   0.453   6.277
  847SOL    HW1 2915   1.241   0.533   6.281
  847SOL    HW2 2916   1.315   0.418   6.370
  848SOL     OW 2917   1.593   0.221   6.468
  848SOL    HW1 2918   1.509   0.220   6.522
  848SOL    HW2 2919   1.595   0.304   6.412
  849SOL     OW 2920   0.039   1.077   5.886
  849SOL    HW1 2921   0.138   1.066   5.877
  849SOL    HW2 2922  -0.001   0.991   5.918
  850SOL     OW 2923   0.875   1.646   5.923
  850SOL    HW1 2924   0.798   1.611   5.869
  850SOL    HW2 2925   0.843   1.717   5.985
  851SOL     OW 2926   0.230   0.628   7.561
  851SOL    HW1 2927   0.137   0.626   7.598
  851SOL    HW2 2928   0.231   0.589   7.469
  852SOL     OW 2929   1.755   0.607   7.679
  852SOL    HW1 2930   1.743   0.594   7.580
  852SOL    HW2 2931   1.725   0.526   7.728
  853SOL     OW 2932   0.231   1.713   7.931
  853SOL    HW1 2933   0.265   1.790   7.985
  853SOL    HW2 2934   0.275   1.713   7.841
  854SOL     OW 2935   0.230   1.434   7.986
  854SOL    HW1 2936   0.204   1.530   7.986
  854SOL    HW2 2937   0.159   1.380   8.031
  855SOL     OW 2938   0.606   0.964   7.571
  855SOL    HW1 2939   0.613   1.048   7.517
  855SOL    HW2 2940   0.652   0.977   7.659
  856SOL     OW 2941   1.842   1.767   7.807
  856SOL    HW1 2942   1.896   1.738   7.887
  856SOL    HW2 2943   1.872   1.857   7.778
  857SOL     OW 2944   0.027   1.596   7.565
  857SOL    HW1 2945   0.008   1.500   7.586
  857SOL    HW2 2946  -0.006   1.654   7.640
  858SOL     OW 2947   1.689   0.922   8.060
  858SOL    HW1 2948   1.784   0.893   8.068
  858SOL    HW2 2949   1.681   0.987   7.985
  859SOL     OW 2950   1.641   1.108   7.880
  859SOL    HW1 2951   1.727   1.110   7.828
  859SOL    HW2 2952   1.655   1.155   7.968
  860SOL     OW 2953   0.809   0.004   7.950
  860SOL    HW1 2954   0.849   0.095   7.941
  860SOL    HW2 2955   0.709   0.012   7.956
  861SOL     OW 2956   1.525   0.999   7.638
  861SOL    HW1 2957   1.462   0.923   7.651
  861SOL    HW2 2958   1.573   1.017   7.724
  862SOL     OW 2959   0.598   0.729   7.718
  862SOL    HW1 2960   0.622   0.798   7.650
  862SOL    HW2 2961   0.520   0.762   7.772
  863SOL     OW 2962   1.576   1.662   7.755
  863SOL    HW1 2963   1.665   1.708   7.758
  863SOL    HW2 2964   1.555   1.638   7.660
  864SOL     OW 2965   0.076   0.811   8.237
  864SOL    HW1 2966   0.175   0.799   8.246
  864SOL    HW2 2967   0.052   0.906   8.258
  865SOL     OW 2968   0.865   0.348   7.643
  865SOL    HW1 2969   0.924   0.411   7.594
  865SOL    HW2 2970   0.884   0.254   7.614
  866SOL     OW 2971   0.321   0.943   7.690
  866SOL    HW1 2972   0.403   0.982   7.648
  866SOL    HW2 2973   0.294   0.861   7.641
  867SOL     OW 2974   1.111   1.776   7.685
  867SOL    HW1 2975   1.051   1.714   7.735
  867SOL    HW2 2976   1.142   1.732   7.600
  868SOL     OW 2977   1.632   1.377   7.529
  868SOL    HW1 2978   1.600   1.471   7.519
  868SOL    HW2 2979   1.556   1.314   7.517
  869SOL     OW 2980   0.464   1.743   7.771
  869SOL    HW1 2981   0.497   1.782   7.857
  869SOL    HW2 2982   0.540   1.736   7.706
  870SOL     OW 2983   1.400   0.107   7.874
  870SOL    HW1 2984   1.376   0.070   7.784
  870SOL    HW2 2985   1.499   0.123   7.878
  871SOL     OW 2986   0.382   0.700   7.928
  871SOL    HW1 2987   0.427   0.610   7.925
  871SOL    HW2 2988   0.288   0.689   7.961
  872SOL     OW 2989   0.614   0.122   7.565
  872SOL    HW1 2990   0.712   0.100   7.572
  872SOL    HW2 2991   0.583   0.105   7.472
  873SOL     OW 2992   0.539   0.064   7.960
  873SOL    HW1 2993   0.458   0.065   8.018
  873SOL    HW2 2994   0.542   0.147   7.905
  874SOL     OW 2995   1.434   1.188   7.489
  874SOL    HW1 2996   1.466   1.112   7.546
  874SOL    HW2 2997   1.342   1.215   7.519
  875SOL     OW 2998   0.297   0.035   7.619
  875SOL    HW1 2999   0.346   0.119   7.598
  875SOL    HW2 3000   0.359  -0.030   7.664
  876SOL     OW 3001   0.935   0.236   7.928
  876SOL    HW1 3002   0.887   0.277   7.850
  876SOL    HW2 3003   1.034   0.234   7.909
  877SOL     OW 3004   0.459   1.152   8.189
  877SOL    HW1 3005   0.388   1.125   8.254
  877SOL    HW2 3006   0.433   1.124   8.096
  878SOL     OW 3007   1.271   1.797   8.039
  878SOL    HW1 3008   1.315   1.861   7.975
  878SOL    HW2 3009   1.221   1.849   8.109
  879SOL     OW 3010   1.032   0.549   7.464
  879SOL    HW1 3011   0.991   0.631   7.425
  879SOL    HW2 3012   1.096   0.575   7.537
  880SOL     OW 3013   1.857   0.833   7.825
  880SOL    HW1 3014   1.899   0.769   7.889
  880SOL    HW2 3015   1.819   0.782   7.747
  881SOL     OW 3016   0.488   1.385   7.622
  881SOL    HW1 3017   0.401   1.370   7.669
  881SOL    HW2 3018   0.471   1.411   7.527
  882SOL     OW 3019   1.390   0.575   7.526
  882SOL    HW1 3020   1.336   0.554   7.607
  882SOL    HW2 3021   1.481   0.534   7.535
  883SOL     OW 3022   0.527   0.256   7.776
  883SOL    HW1 3023   0.554   0.197   7.701
  883SOL    HW2 3024   0.527   0.351   7.745
  884SOL     OW 3025   0.705   1.050   7.816
  884SOL    HW1 3026   0.691   1.057   7.915
  884SOL    HW2 3027   0.789   0.999   7.798
  885SOL     OW 3028   0.367   1.100   7.949
  885SOL    HW1 3029   0.360   1.183   7.893
  885SOL    HW2 3030   0.371   1.020   7.889
  886SOL     OW 3031   1.252   1.348   7.836
  886SOL    HW1 3032   1.302   1.425   7.876
  886SOL    HW2 3033   1.157   1.350   7.868
  887SOL     OW 3034   1.582   0.639   7.920
  887SOL    HW1 3035   1.551   0.700   7.993
  887SOL    HW2 3036   1.632   0.691   7.851
  888SOL     OW 3037   1.209   0.525   7.723
  888SOL    HW1 3038   1.222   0.441   7.777
  888SOL    HW2 3039   1.180   0.599   7.783
  889SOL     OW 3040   1.622   0.367   7.822
  889SOL    HW1 3041   1.624   0.291   7.886
  889SOL    HW2 3042   1.574   0.444   7.862
  890SOL     OW 3043   1.540   0.274   7.573
  890SOL    HW1 3044   1.479   0.199   7.596
  890SOL    HW2 3045   1.562   0.326   7.656
  891SOL     OW 3046   1.303   0.838   7.490
  891SOL    HW1 3047   1.337   0.745   7.505
  891SOL    HW2 3048   1.321   0.865   7.395
  892SOL     OW 3049   0.008   1.326   7.648
  892SOL    HW1 3050  -0.085   1.347   7.617
  892SOL    HW2 3051   0.018   1.227   7.661
  893SOL     OW 3052   0.815   0.572   7.773
  893SOL    HW1 3053   0.822   0.483   7.727
  893SOL    HW2 3054   0.721   0.606   7.765
  894SOL     OW 3055   0.473   0.500   7.639
  894SOL    HW1 3056   0.534   0.580   7.643
  894SOL    HW2 3057   0.378   0.531   7.646
  895SOL     OW 3058   1.302   0.855   7.757
  895SOL    HW1 3059   1.216   0.824   7.799
  895SOL    HW2 3060   1.298   0.841   7.658
  896SOL     OW 3061   1.726   0.135   7.971
  896SOL    HW1 3062   1.799   0.118   7.904
  896SOL    HW2 3063   1.695   0.048   8.009
  897SOL     OW 3064   1.388   1.573   7.925
  897SOL    HW1 3065   1.455   1.585   7.851
  897SOL    HW2 3066   1.348   1.662   7.948
  898SOL     OW 3067   0.672   1.616   7.602
  898SOL    HW1 3068   0.681   1.626   7.503
  898SOL    HW2 3069   0.632   1.527   7.623
  899SOL     OW 3070   1.194   1.612   7.479
  899SOL    HW1 3071   1.200   1.519   7.516
  899SOL    HW2 3072   1.135   1.612   7.399
  900SOL     OW 3073   0.916   0.910   7.739
  900SOL    HW1 3074   0.979   0.948   7.671
  900SOL    HW2 3075   0.956   0.827   7.778
  901SOL     OW 3076   1.504   1.607   7.492
  901SOL    HW1 3077   1.412   1.644   7.499
  901SOL    HW2 3078   1.542   1.627   7.402
  902SOL     OW 3079   0.590   1.487   7.939
  902SOL    HW1 3080   0.632   1.429   7.869
  902SOL    HW2 3081   0.546   1.566   7.895
  903SOL     OW 3082   0.255   1.348   7.738
  903SOL    HW1 3083   0.159   1.349   7.711
  903SOL    HW2 3084   0.267   1.401   7.822
  904SOL     OW 3085   0.075   0.345   7.481
  904SOL    HW1 3086  -0.017   0.317   7.452
  904SOL    HW2 3087   0.106   0.422   7.425
  905SOL     OW 3088   0.072   0.166   7.766
  905SOL    HW1 3089   0.055   0.249   7.712
  905SOL    HW2 3090   0.162   0.129   7.744
  906SOL     OW 3091   1.183   1.335   7.567
  906SOL    HW1 3092   1.084   1.324   7.569
  906SOL    HW2 3093   1.217   1.350   7.660
  907SOL     OW 3094   1.225   0.325   7.897
  907SOL    HW1 3095   1.290   0.251   7.886
  907SOL    HW2 3096   1.245   0.375   7.981
  908SOL     OW 3097   0.594   0.745   8.100
  908SOL    HW1 3098   0.644   0.830   8.081
  908SOL    HW2 3099   0.506   0.747   8.052
  909SOL     OW 3100   0.859   1.374   7.464
  909SOL    HW1 3101   0.813   1.389   7.552
  909SOL    HW2 3102   0.903   1.459   7.434
  910SOL     OW 3103   1.083   0.984   7.535
  910SOL    HW1 3104   1.060   1.037   7.453
  910SOL    HW2 3105   1.164   0.928   7.516
  911SOL     OW 3106   0.428   0.424   7.968
  911SOL    HW1 3107   0.458   0.352   7.906
  911SOL    HW2 3108   0.389   0.384   8.051
  912SOL     OW 3109   0.770   1.330   7.749
  912SOL    HW1 3110   0.724   1.243   7.766
  912SOL    HW2 3111   0.861   1.327   7.790
  913SOL     OW 3112   1.352   0.052   7.616
  913SOL    HW1 3113   1.387   0.011   7.532
  913SOL    HW2 3114   1.262   0.014   7.636
  914SOL     OW 3115   0.039   1.077   7.748
  914SOL    HW1 3116   0.138   1.066   7.739
  914SOL    HW2 3117  -0.001   0.991   7.780
  915SOL     OW 3118   0.875   1.646   7.785
  915SOL    HW1 3119   0.798   1.611   7.731
  915SOL    HW2 3120   0.843   1.717   7.847
  916SOL     OW 3121   0.230   2.490   0.113
  916SOL    HW1 3122   0.137   2.488   0.150
  916SOL    HW2 3123   0.231   2.451   0.021
  917SOL     OW 3124   0.225   2.137   0.996
  917SOL    HW1 3125   0.260   2.120   1.088
  917SOL    HW2 3126   0.137   2.092   0.984
  918SOL     OW 3127   0.019   2.230   0.647
  918SOL    HW1 3128  -0.063   2.273   0.686
  918SOL    HW2 3129  -0.009   2.157   0.584
  919SOL     OW 3130   0.569   3.137   1.165
  919SOL    HW1 3131   0.476   3.130   1.128
  919SOL    HW2 3132   0.580   3.226   1.209
  920SOL     OW 3133   1.555   3.373   0.703
  920SOL    HW1 3134   1.498   3.357   0.784
  920SOL    HW2 3135   1.496   3.383   0.623
  921SOL     OW 3136   1.135   2.565   0.717
  921SOL    HW1 3137   1.192   2.643   0.692
  921SOL    HW2 3138   1.075   2.591   0.793
  922SOL     OW 3139   1.755   2.469   0.231
  922SOL    HW1 3140   1.743   2.456   0.132
  922SOL    HW2 3141   1.725   2.388   0.280
  923SOL     OW 3142   0.768   3.006   1.023
  923SOL    HW1 3143   0.690   3.023   1.083
  923SOL    HW2 3144   0.802   3.093   0.987
  924SOL     OW 3145   0.850   2.660   1.823
  924SOL    HW1 3146   0.846   2.736   1.888
  924SOL    HW2 3147   0.872   2.696   1.732
  925SOL     OW 3148   0.685   2.874   0.665
  925SOL    HW1 3149   0.754   2.858   0.735
  925SOL    HW2 3150   0.612   2.931   0.703
  926SOL     OW 3151   0.686   3.023   1.803
  926SOL    HW1 3152   0.746   3.102   1.817
  926SOL    HW2 3153   0.600   3.054   1.762
  927SOL     OW 3154   0.335   3.297   1.061
  927SOL    HW1 3155   0.257   3.266   1.008
  927SOL    HW2 3156   0.393   3.355   1.004
  928SOL     OW 3157   1.460   3.367   1.339
  928SOL    HW1 3158   1.484   3.461   1.365
  928SOL    HW2 3159   1.444   3.313   1.421
  929SOL     OW 3160   0.438   2.254   1.499
  929SOL    HW1 3161   0.520   2.198   1.508
  929SOL    HW2 3162   0.357   2.196   1.503
  930SOL     OW 3163   1.603   2.309   0.737
  930SOL    HW1 3164   1.529   2.355   0.687
  930SOL    HW2 3165   1.654   2.377   0.790
  931SOL     OW 3166   0.231   3.575   0.483
  931SOL    HW1 3167   0.265   3.652   0.537
  931SOL    HW2 3168   0.275   3.575   0.393
  932SOL     OW 3169   1.127   3.203   1.690
  932SOL    HW1 3170   1.174   3.203   1.778
  932SOL    HW2 3171   1.079   3.116   1.679
  933SOL     OW 3172   0.230   3.296   0.538
  933SOL    HW1 3173   0.204   3.392   0.538
  933SOL    HW2 3174   0.159   3.242   0.583
  934SOL     OW 3175   0.240   2.953   0.886
  934SOL    HW1 3176   0.254   2.869   0.938
  934SOL    HW2 3177   0.185   3.017   0.941
  935SOL     OW 3178   0.620   3.648   1.439
  935SOL    HW1 3179   0.528   3.631   1.474
  935SOL    HW2 3180   0.648   3.740   1.465
  936SOL     OW 3181   0.606   2.826   0.123
  936SOL    HW1 3182   0.613   2.910   0.069
  936SOL    HW2 3183   0.652   2.839   0.211
  937SOL     OW 3184   1.594   1.976   1.480
  937SOL    HW1 3185   1.576   2.043   1.408
  937SOL    HW2 3186   1.591   2.022   1.569
  938SOL     OW 3187   0.122   2.505   0.563
  938SOL    HW1 3188   0.077   2.417   0.580
  938SOL    HW2 3189   0.121   2.559   0.647
  939SOL     OW 3190   1.842   3.629   0.359
  939SOL    HW1 3191   1.896   3.600   0.439
  939SOL    HW2 3192   1.872   3.719   0.330
  940SOL     OW 3193   0.027   3.458   0.117
  940SOL    HW1 3194   0.008   3.362   0.138
  940SOL    HW2 3195  -0.006   3.516   0.192
  941SOL     OW 3196   1.689   2.784   0.612
  941SOL    HW1 3197   1.784   2.755   0.620
  941SOL    HW2 3198   1.681   2.849   0.537
  942SOL     OW 3199   1.641   2.970   0.432
  942SOL    HW1 3200   1.727   2.972   0.380
  942SOL    HW2 3201   1.655   3.017   0.520
  943SOL     OW 3202   0.113   2.599   1.597
  943SOL    HW1 3203   0.201   2.586   1.642
  943SOL    HW2 3204   0.100   2.696   1.575
  944SOL     OW 3205   0.613   3.227   0.726
  944SOL    HW1 3206   0.564   3.140   0.735
  944SOL    HW2 3207   0.590   3.270   0.639
  945SOL     OW 3208   1.293   3.090   1.423
  945SOL    HW1 3209   1.330   3.017   1.365
  945SOL    HW2 3210   1.345   3.095   1.508
  946SOL     OW 3211   0.809   1.866   0.502
  946SOL    HW1 3212   0.849   1.957   0.493
  946SOL    HW2 3213   0.709   1.874   0.508
  947SOL     OW 3214   0.197   2.838   1.264
  947SOL    HW1 3215   0.286   2.793   1.250
  947SOL    HW2 3216   0.124   2.773   1.245
  948SOL     OW 3217   1.525   2.861   0.190
  948SOL    HW1 3218   1.462   2.785   0.203
  948SOL    HW2 3219   1.573   2.879   0.276
  949SOL     OW 3220   1.187   3.654   1.616
  949SOL    HW1 3221   1.211   3.714   1.540
  949SOL    HW2 3222   1.194   3.559   1.586
  950SOL     OW 3223   0.317   2.113   1.801
  950SOL    HW1 3224   0.388   2.184   1.807
  950SOL    HW2 3225   0.229   2.152   1.829
  951SOL     OW 3226   1.466   3.279   0.953
  951SOL    HW1 3227   1.407   3.285   1.033
  951SOL    HW2 3228   1.451   3.191   0.907
  952SOL     OW 3229   1.667   3.576   0.572
  952SOL    HW1 3230   1.626   3.553   0.484
  952SOL    HW2 3231   1.649   3.502   0.637
  953SOL     OW 3232   0.598   2.591   0.270
  953SOL    HW1 3233   0.622   2.660   0.202
  953SOL    HW2 3234   0.520   2.624   0.324
  954SOL     OW 3235   1.281   2.207   0.944
  954SOL    HW1 3236   1.195   2.157   0.931
  954SOL    HW2 3237   1.343   2.153   1.000
  955SOL     OW 3238   1.576   3.524   0.307
  955SOL    HW1 3239   1.665   3.570   0.310
  955SOL    HW2 3240   1.555   3.500   0.212
  956SOL     OW 3241   0.807   2.467   1.465
  956SOL    HW1 3242   0.760   2.464   1.554
  956SOL    HW2 3243   0.756   2.412   1.399
  957SOL     OW 3244   1.394   2.331   1.674
  957SOL    HW1 3245   1.374   2.374   1.762
  957SOL    HW2 3246   1.472   2.269   1.683
  958SOL     OW 3247   0.973   2.752   1.572
  958SOL    HW1 3248   1.019   2.668   1.543
  958SOL    HW2 3249   0.917   2.786   1.497
  959SOL     OW 3250   0.991   2.272   1.242
  959SOL    HW1 3251   0.914   2.306   1.296
  959SOL    HW2 3252   0.957   2.221   1.163
  960SOL     OW 3253   1.041   2.563   0.429
  960SOL    HW1 3254   1.067   2.559   0.525
  960SOL    HW2 3255   0.956   2.512   0.415
  961SOL     OW 3256   0.076   2.673   0.789
  961SOL    HW1 3257   0.175   2.661   0.798
  961SOL    HW2 3258   0.052   2.768   0.810
  962SOL     OW 3259   0.130   3.683   1.571
  962SOL    HW1 3260   0.120   3.668   1.670
  962SOL    HW2 3261   0.044   3.719   1.535
  963SOL     OW 3262   0.865   2.210   0.195
  963SOL    HW1 3263   0.924   2.273   0.146
  963SOL    HW2 3264   0.884   2.116   0.166
  964SOL     OW 3265   1.719   2.447   1.831
  964SOL    HW1 3266   1.693   2.536   1.795
  964SOL    HW2 3267   1.717   2.379   1.758
  965SOL     OW 3268   1.362   3.006   0.545
  965SOL    HW1 3269   1.445   2.977   0.497
  965SOL    HW2 3270   1.313   3.073   0.489
  966SOL     OW 3271   0.550   2.058   0.885
  966SOL    HW1 3272   0.545   2.053   0.985
  966SOL    HW2 3273   0.552   2.154   0.856
  967SOL     OW 3274   1.008   3.318   0.477
  967SOL    HW1 3275   0.962   3.390   0.425
  967SOL    HW2 3276   1.004   3.338   0.575
  968SOL     OW 3277   0.351   3.663   0.853
  968SOL    HW1 3278   0.401   3.577   0.859
  968SOL    HW2 3279   0.416   3.740   0.850
  969SOL     OW 3280   1.795   2.928   0.873
  969SOL    HW1 3281   1.733   2.913   0.797
  969SOL    HW2 3282   1.743   2.939   0.958
  970SOL     OW 3283   1.227   3.412   1.506
  970SOL    HW1 3284   1.233   3.335   1.570
  970SOL    HW2 3285   1.175   3.386   1.426
  971SOL     OW 3286   0.321   2.805   0.242
  971SOL    HW1 3287   0.403   2.844   0.200
  971SOL    HW2 3288   0.294   2.723   0.193
  972SOL     OW 3289   1.458   2.597   0.728
  972SOL    HW1 3290   1.453   2.532   0.803
  972SOL    HW2 3291   1.538   2.656   0.741
  973SOL     OW 3292   0.461   3.128   1.727
  973SOL    HW1 3293   0.411   3.129   1.641
  973SOL    HW2 3294   0.398   3.110   1.803
  974SOL     OW 3295   1.111   3.638   0.237
  974SOL    HW1 3296   1.051   3.576   0.287
  974SOL    HW2 3297   1.142   3.594   0.152
  975SOL     OW 3298   0.202   2.147   1.498
  975SOL    HW1 3299   0.122   2.207   1.485
  975SOL    HW2 3300   0.192   2.098   1.584
  976SOL     OW 3301   1.632   3.239   0.081
  976SOL    HW1 3302   1.600   3.333   0.071
  976SOL    HW2 3303   1.556   3.176   0.069
  977SOL     OW 3304   0.464   3.605   0.323
  977SOL    HW1 3305   0.497   3.644   0.409
  977SOL    HW2 3306   0.540   3.598   0.258
  978SOL     OW 3307   1.400   1.969   0.426
  978SOL    HW1 3308   1.376   1.932   0.336
  978SOL    HW2 3309   1.499   1.985   0.430
  979SOL     OW 3310   0.249   3.647   1.241
  979SOL    HW1 3311   0.306   3.582   1.291
  979SOL    HW2 3312   0.233   3.614   1.148
  980SOL     OW 3313   0.940   3.560   0.904
  980SOL    HW1 3314   1.020   3.503   0.925
  980SOL    HW2 3315   0.891   3.520   0.827
  981SOL     OW 3316   0.382   2.562   0.480
  981SOL    HW1 3317   0.427   2.472   0.477
  981SOL    HW2 3318   0.288   2.551   0.513
  982SOL     OW 3319   1.547   2.084   1.729
  982SOL    HW1 3320   1.542   2.121   1.821
  982SOL    HW2 3321   1.475   2.015   1.717
  983SOL     OW 3322   0.614   1.984   0.117
  983SOL    HW1 3323   0.712   1.962   0.124
  983SOL    HW2 3324   0.583   1.967   0.024
  984SOL     OW 3325   0.781   2.126   1.749
  984SOL    HW1 3326   0.848   2.065   1.792
  984SOL    HW2 3327   0.708   2.145   1.814
  985SOL     OW 3328   0.888   3.376   1.195
  985SOL    HW1 3329   0.865   3.351   1.101
  985SOL    HW2 3330   0.949   3.307   1.234
  986SOL     OW 3331   1.351   2.452   1.433
  986SOL    HW1 3332   1.379   2.409   1.518
  986SOL    HW2 3333   1.376   2.548   1.434
  987SOL     OW 3334   0.803   3.264   0.924
  987SOL    HW1 3335   0.893   3.278   0.882
  987SOL    HW2 3336   0.732   3.266   0.853
  988SOL     OW 3337   0.922   2.365   0.899
  988SOL    HW1 3338   0.897   2.356   0.803
  988SOL    HW2 3339   0.970   2.283   0.930
  989SOL     OW 3340   0.539   1.926   0.512
  989SOL    HW1 3341   0.458   1.927   0.570
  989SOL    HW2 3342   0.542   2.009   0.457
  990SOL     OW 3343   1.434   3.050   0.041
  990SOL    HW1 3344   1.466   2.974   0.098
  990SOL    HW2 3345   1.342   3.077   0.071
  991SOL     OW 3346   0.297   1.897   0.171
  991SOL    HW1 3347   0.346   1.981   0.150
  991SOL    HW2 3348   0.359   1.832   0.216
  992SOL     OW 3349   0.935   2.098   0.480
  992SOL    HW1 3350   0.887   2.139   0.402
  992SOL    HW2 3351   1.034   2.096   0.461
  993SOL     OW 3352   1.076   2.545   1.464
  993SOL    HW1 3353   0.996   2.484   1.467
  993SOL    HW2 3354   1.157   2.492   1.440
  994SOL     OW 3355   1.227   3.432   0.793
  994SOL    HW1 3356   1.248   3.506   0.728
  994SOL    HW2 3357   1.295   3.432   0.866
  995SOL     OW 3358   0.459   3.014   0.741
  995SOL    HW1 3359   0.388   2.987   0.806
  995SOL    HW2 3360   0.433   2.986   0.648
  996SOL     OW 3361   1.271   3.659   0.591
  996SOL    HW1 3362   1.315   3.723   0.527
  996SOL    HW2 3363   1.221   3.711   0.661
  997SOL     OW 3364   1.032   2.411   0.016
  997SOL    HW1 3365   0.991   2.493  -0.023
  997SOL    HW2 3366   1.096   2.437   0.089
  998SOL     OW 3367   0.078   2.418   1.386
  998SOL    HW1 3368   0.170   2.417   1.345
  998SOL    HW2 3369   0.072   2.492   1.453
  999SOL     OW 3370   0.561   2.084   1.147
  999SOL    HW1 3371   0.599   2.000   1.184
  999SOL    HW2 3372   0.473   2.103   1.191
 1000SOL     OW 3373   0.866   2.316   0.642
 1000SOL    HW1 3374   0.834   2.388   0.580
 1000SOL    HW2 3375   0.890   2.235   0.589
 1001SOL     OW 3376   1.017   1.901   0.753
 1001SOL    HW1 3377   0.945   1.906   0.684
 1001SOL    HW2 3378   0.993   1.832   0.822
 1002SOL     OW 3379   1.429   3.035   0.867
 1002SOL    HW1 3380   1.374   2.951   0.860
 1002SOL    HW2 3381   1.455   3.064   0.775
 1003SOL     OW 3382   1.466   2.452   0.992
 1003SOL    HW1 3383   1.436   2.357   0.999
 1003SOL    HW2 3384   1.539   2.468   1.058
 1004SOL     OW 3385   1.857   2.695   0.377
 1004SOL    HW1 3386   1.899   2.631   0.441
 1004SOL    HW2 3387   1.819   2.644   0.299
 1005SOL     OW 3388   0.488   3.247   0.174
 1005SOL    HW1 3389   0.401   3.232   0.221
 1005SOL    HW2 3390   0.471   3.273   0.079
 1006SOL     OW 3391   1.664   3.142   0.657
 1006SOL    HW1 3392   1.763   3.150   0.671
 1006SOL    HW2 3393   1.619   3.226   0.688
 1007SOL     OW 3394   1.390   2.437   0.078
 1007SOL    HW1 3395   1.336   2.416   0.159
 1007SOL    HW2 3396   1.481   2.396   0.087
 1008SOL     OW 3397   0.527   2.118   0.328
 1008SOL    HW1 3398   0.554   2.059   0.253
 1008SOL    HW2 3399   0.527   2.213   0.297
 1009SOL     OW 3400   1.754   3.085   1.588
 1009SOL    HW1 3401   1.845   3.046   1.575
 1009SOL    HW2 3402   1.762   3.181   1.612
 1010SOL     OW 3403   1.064   3.209   1.340
 1010SOL    HW1 3404   0.984   3.186   1.395
 1010SOL    HW2 3405   1.147   3.183   1.389
 1011SOL     OW 3406   1.592   3.491   1.625
 1011SOL    HW1 3407   1.619   3.525   1.535
 1011SOL    HW2 3408   1.671   3.453   1.671
 1012SOL     OW 3409   1.111   3.057   1.100
 1012SOL    HW1 3410   1.071   3.101   1.181
 1012SOL    HW2 3411   1.070   3.094   1.017
 1013SOL     OW 3412   1.638   2.961   1.079
 1013SOL    HW1 3413   1.643   3.042   1.138
 1013SOL    HW2 3414   1.552   2.963   1.028
 1014SOL     OW 3415   0.915   1.951   1.402
 1014SOL    HW1 3416   0.940   1.931   1.307
 1014SOL    HW2 3417   0.987   2.007   1.444
 1015SOL     OW 3418   0.980   2.978   1.719
 1015SOL    HW1 3419   0.881   2.984   1.729
 1015SOL    HW2 3420   1.003   2.898   1.663
 1016SOL     OW 3421   0.705   2.912   0.368
 1016SOL    HW1 3422   0.691   2.919   0.467
 1016SOL    HW2 3423   0.789   2.861   0.350
 1017SOL     OW 3424   0.410   2.675   1.251
 1017SOL    HW1 3425   0.496   2.687   1.301
 1017SOL    HW2 3426   0.368   2.588   1.278
 1018SOL     OW 3427   1.274   2.248   1.262
 1018SOL    HW1 3428   1.295   2.322   1.326
 1018SOL    HW2 3429   1.185   2.265   1.219
 1019SOL     OW 3430   0.064   3.426   1.331
 1019SOL    HW1 3431   0.018   3.508   1.297
 1019SOL    HW2 3432   0.162   3.445   1.340
 1020SOL     OW 3433   0.367   2.962   0.501
 1020SOL    HW1 3434   0.360   3.045   0.445
 1020SOL    HW2 3435   0.371   2.882   0.441
 1021SOL     OW 3436   0.566   2.399   0.865
 1021SOL    HW1 3437   0.578   2.465   0.791
 1021SOL    HW2 3438   0.612   2.433   0.948
 1022SOL     OW 3439   1.252   3.210   0.388
 1022SOL    HW1 3440   1.302   3.287   0.428
 1022SOL    HW2 3441   1.157   3.212   0.420
 1023SOL     OW 3442   1.272   3.307   1.142
 1023SOL    HW1 3443   1.319   3.320   1.229
 1023SOL    HW2 3444   1.206   3.233   1.151
 1024SOL     OW 3445   1.582   2.501   0.472
 1024SOL    HW1 3446   1.551   2.562   0.545
 1024SOL    HW2 3447   1.632   2.553   0.403
 1025SOL     OW 3448   0.354   3.372   1.329
 1025SOL    HW1 3449   0.333   3.328   1.242
 1025SOL    HW2 3450   0.451   3.398   1.332
 1026SOL     OW 3451   0.402   2.613   1.598
 1026SOL    HW1 3452   0.470   2.668   1.551
 1026SOL    HW2 3453   0.442   2.525   1.625
 1027SOL     OW 3454   1.587   2.641   1.670
 1027SOL    HW1 3455   1.495   2.679   1.665
 1027SOL    HW2 3456   1.647   2.688   1.605
 1028SOL     OW 3457   1.013   1.967   1.770
 1028SOL    HW1 3458   1.019   2.052   1.718
 1028SOL    HW2 3459   1.045   1.891   1.713
 1029SOL     OW 3460   0.504   1.912   1.740
 1029SOL    HW1 3461   0.462   1.855   1.670
 1029SOL    HW2 3462   0.438   1.981   1.772
 1030SOL     OW 3463   0.573   2.732   1.029
 1030SOL    HW1 3464   0.617   2.821   1.020
 1030SOL    HW2 3465   0.510   2.732   1.106
 1031SOL     OW 3466   1.360   2.724   1.045
 1031SOL    HW1 3467   1.285   2.724   0.979
 1031SOL    HW2 3468   1.397   2.632   1.054
 1032SOL     OW 3469   1.209   2.387   0.275
 1032SOL    HW1 3470   1.222   2.303   0.329
 1032SOL    HW2 3471   1.180   2.461   0.335
 1033SOL     OW 3472   0.307   2.075   1.231
 1033SOL    HW1 3473   0.284   2.112   1.321
 1033SOL    HW2 3474   0.277   1.980   1.225
 1034SOL     OW 3475   0.037   3.172   1.282
 1034SOL    HW1 3476   0.090   3.123   1.350
 1034SOL    HW2 3477   0.059   3.270   1.287
 1035SOL     OW 3478   0.732   2.496   1.064
 1035SOL    HW1 3479   0.791   2.470   0.988
 1035SOL    HW2 3480   0.704   2.592   1.053
 1036SOL     OW 3481   1.728   2.797   1.854
 1036SOL    HW1 3482   1.682   2.790   1.765
 1036SOL    HW2 3483   1.666   2.841   1.920
 1037SOL     OW 3484   0.307   1.925   0.618
 1037SOL    HW1 3485   0.296   2.019   0.651
 1037SOL    HW2 3486   0.302   1.862   0.695
 1038SOL     OW 3487   1.622   2.229   0.374
 1038SOL    HW1 3488   1.624   2.153   0.438
 1038SOL    HW2 3489   1.574   2.306   0.414
 1039SOL     OW 3490   1.023   2.628   0.966
 1039SOL    HW1 3491   1.038   2.649   1.062
 1039SOL    HW2 3492   0.993   2.533   0.957
 1040SOL     OW 3493   0.980   3.435   1.700
 1040SOL    HW1 3494   0.960   3.479   1.612
 1040SOL    HW2 3495   1.019   3.344   1.684
 1041SOL     OW 3496   1.859   3.380   1.605
 1041SOL    HW1 3497   1.873   3.407   1.510
 1041SOL    HW2 3498   1.942   3.402   1.658
 1042SOL     OW 3499   0.350   2.760   1.804
 1042SOL    HW1 3500   0.426   2.804   1.852
 1042SOL    HW2 3501   0.385   2.713   1.722
 1043SOL     OW 3502   1.540   2.136   0.125
 1043SOL    HW1 3503   1.479   2.061   0.148
 1043SOL    HW2 3504   1.562   2.188   0.208
 1044SOL     OW 3505   1.303   2.700   0.042
 1044SOL    HW1 3506   1.337   2.607   0.057
 1044SOL    HW2 3507   1.321   2.727  -0.053
 1045SOL     OW 3508   1.068   3.195   0.849
 1045SOL    HW1 3509   1.075   3.111   0.794
 1045SOL    HW2 3510   1.130   3.264   0.813
 1046SOL     OW 3511   0.319   2.672   0.949
 1046SOL    HW1 3512   0.412   2.708   0.954
 1046SOL    HW2 3513   0.313   2.587   1.001
 1047SOL     OW 3514   0.339   2.371   1.006
 1047SOL    HW1 3515   0.287   2.288   0.989
 1047SOL    HW2 3516   0.416   2.376   0.942
 1048SOL     OW 3517   1.138   2.242   1.678
 1048SOL    HW1 3518   1.093   2.305   1.742
 1048SOL    HW2 3519   1.231   2.273   1.661
 1049SOL     OW 3520   1.160   2.069   1.477
 1049SOL    HW1 3521   1.160   2.133   1.554
 1049SOL    HW2 3522   1.188   2.117   1.394
 1050SOL     OW 3523   0.008   3.188   0.200
 1050SOL    HW1 3524  -0.085   3.209   0.169
 1050SOL    HW2 3525   0.018   3.089   0.213
 1051SOL     OW 3526   0.088   3.663   0.927
 1051SOL    HW1 3527   0.046   3.577   0.900
 1051SOL    HW2 3528   0.182   3.666   0.893
 1052SOL     OW 3529   0.504   3.430   0.910
 1052SOL    HW1 3530   0.570   3.504   0.919
 1052SOL    HW2 3531   0.548   3.351   0.868
 1053SOL     OW 3532   1.002   2.658   1.238
 1053SOL    HW1 3533   1.043   2.626   1.324
 1053SOL    HW2 3534   0.906   2.631   1.235
 1054SOL     OW 3535   0.040   2.406   1.114
 1054SOL    HW1 3536   0.125   2.373   1.073
 1054SOL    HW2 3537   0.053   2.421   1.212
 1055SOL     OW 3538   0.189   2.382   1.722
 1055SOL    HW1 3539   0.248   2.342   1.652
 1055SOL    HW2 3540   0.131   2.453   1.681
 1056SOL     OW 3541   1.369   2.812   1.660
 1056SOL    HW1 3542   1.408   2.901   1.680
 1056SOL    HW2 3543   1.379   2.792   1.563
 1057SOL     OW 3544   0.815   2.434   0.325
 1057SOL    HW1 3545   0.822   2.345   0.279
 1057SOL    HW2 3546   0.721   2.468   0.317
 1058SOL     OW 3547   1.657   2.466   1.206
 1058SOL    HW1 3548   1.619   2.397   1.268
 1058SOL    HW2 3549   1.739   2.430   1.162
 1059SOL     OW 3550   0.252   3.426   1.744
 1059SOL    HW1 3551   0.222   3.483   1.820
 1059SOL    HW2 3552   0.245   3.329   1.770
 1060SOL     OW 3553   0.671   2.326   1.269
 1060SOL    HW1 3554   0.637   2.237   1.239
 1060SOL    HW2 3555   0.697   2.380   1.189
 1061SOL     OW 3556   0.930   3.540   1.465
 1061SOL    HW1 3557   0.906   3.522   1.370
 1061SOL    HW2 3558   0.960   3.634   1.475
 1062SOL     OW 3559   0.473   2.362   0.191
 1062SOL    HW1 3560   0.534   2.442   0.195
 1062SOL    HW2 3561   0.378   2.393   0.198
 1063SOL     OW 3562   0.159   2.999   1.466
 1063SOL    HW1 3563   0.181   2.938   1.542
 1063SOL    HW2 3564   0.169   2.950   1.380
 1064SOL     OW 3565   1.347   2.921   1.234
 1064SOL    HW1 3566   1.371   2.858   1.160
 1064SOL    HW2 3567   1.257   2.961   1.216
 1065SOL     OW 3568   1.302   2.717   0.309
 1065SOL    HW1 3569   1.216   2.686   0.351
 1065SOL    HW2 3570   1.298   2.703   0.210
 1066SOL     OW 3571   1.759   3.609   1.154
 1066SOL    HW1 3572   1.820   3.639   1.081
 1066SOL    HW2 3573   1.721   3.520   1.132
 1067SOL     OW 3574   1.252   3.593   1.128
 1067SOL    HW1 3575   1.336   3.598   1.074
 1067SOL    HW2 3576   1.229   3.497   1.146
 1068SOL     OW 3577   0.083   3.120   1.022
 1068SOL    HW1 3578   0.078   3.119   1.122
 1068SOL    HW2 3579   0.000   3.079   0.984
 1069SOL     OW 3580   0.688   3.524   1.716
 1069SOL    HW1 3581   0.632   3.605   1.725
 1069SOL    HW2 3582   0.740   3.528   1.630
 1070SOL     OW 3583   0.903   1.948   0.133
 1070SOL    HW1 3584   0.954   1.949   0.047
 1070SOL    HW2 3585   0.959   1.906   0.204
 1071SOL     OW 3586   1.726   1.997   0.523
 1071SOL    HW1 3587   1.799   1.980   0.456
 1071SOL    HW2 3588   1.695   1.910   0.561
 1072SOL     OW 3589   1.388   3.435   0.477
 1072SOL    HW1 3590   1.455   3.447   0.403
 1072SOL    HW2 3591   1.348   3.524   0.500
 1073SOL     OW 3592   0.130   3.656   1.851
 1073SOL    HW1 3593   0.089   3.582   1.904
 1073SOL    HW2 3594   0.194   3.707   1.909
 1074SOL     OW 3595   1.280   2.789   0.672
 1074SOL    HW1 3596   1.340   2.708   0.674
 1074SOL    HW2 3597   1.320   2.858   0.612
 1075SOL     OW 3598   0.830   3.135   1.422
 1075SOL    HW1 3599   0.825   3.168   1.517
 1075SOL    HW2 3600   0.744   3.154   1.376
 1076SOL     OW 3601   0.672   3.478   0.154
 1076SOL    HW1 3602   0.681   3.488   0.055
 1076SOL    HW2 3603   0.632   3.389   0.175
 1077SOL     OW 3604   1.650   3.582   1.394
 1077SOL    HW1 3605   1.703   3.592   1.310
 1077SOL    HW2 3606   1.623   3.672   1.428
 1078SOL     OW 3607   1.841   2.037   0.963
 1078SOL    HW1 3608   1.880   1.952   0.927
 1078SOL    HW2 3609   1.743   2.039   0.944
 1079SOL     OW 3610   0.263   2.188   0.720
 1079SOL    HW1 3611   0.184   2.239   0.686
 1079SOL    HW2 3612   0.254   2.173   0.818
 1080SOL     OW 3613   1.194   3.474   0.031
 1080SOL    HW1 3614   1.200   3.381   0.068
 1080SOL    HW2 3615   1.135   3.474  -0.049
 1081SOL     OW 3616   0.822   2.864   1.372
 1081SOL    HW1 3617   0.862   2.863   1.280
 1081SOL    HW2 3618   0.832   2.956   1.412
 1082SOL     OW 3619   0.916   2.772   0.291
 1082SOL    HW1 3620   0.979   2.810   0.223
 1082SOL    HW2 3621   0.956   2.689   0.330
 1083SOL     OW 3622   1.504   3.469   0.044
 1083SOL    HW1 3623   1.412   3.506   0.051
 1083SOL    HW2 3624   1.542   3.489  -0.046
 1084SOL     OW 3625   0.372   3.150   1.490
 1084SOL    HW1 3626   0.359   3.243   1.456
 1084SOL    HW2 3627   0.288   3.098   1.477
 1085SOL     OW 3628   1.614   3.154   1.289
 1085SOL    HW1 3629   1.674   3.157   1.369
 1085SOL    HW2 3630   1.539   3.218   1.302
 1086SOL     OW 3631   1.039   2.960   0.696
 1086SOL    HW1 3632   0.969   2.913   0.750
 1086SOL    HW2 3633   1.098   2.892   0.653
 1087SOL     OW 3634   1.014   2.098   0.971
 1087SOL    HW1 3635   1.006   2.062   0.878
 1087SOL    HW2 3636   1.012   2.022   1.036
 1088SOL     OW 3637   0.590   3.349   0.491
 1088SOL    HW1 3638   0.632   3.291   0.421
 1088SOL    HW2 3639   0.546   3.428   0.447
 1089SOL     OW 3640   1.709   2.247   1.381
 1089SOL    HW1 3641   1.782   2.316   1.385
 1089SOL    HW2 3642   1.737   2.172   1.322
 1090SOL     OW 3643   0.255   3.210   0.290
 1090SOL    HW1 3644   0.159   3.211   0.263
 1090SOL    HW2 3645   0.267   3.263   0.374
 1091SOL     OW 3646   0.105   2.875   1.726
 1091SOL    HW1 3647   0.028   2.842   1.780
 1091SOL    HW2 3648   0.190   2.845   1.768
 1092SOL     OW 3649   0.672   2.065   1.489
 1092SOL    HW1 3650   0.762   2.049   1.449
 1092SOL    HW2 3651   0.680   2.070   1.588
 1093SOL     OW 3652   0.075   2.207   0.033
 1093SOL    HW1 3653  -0.017   2.179   0.004
 1093SOL    HW2 3654   0.106   2.284  -0.023
 1094SOL     OW 3655   1.440   2.718   1.398
 1094SOL    HW1 3656   1.383   2.770   1.335
 1094SOL    HW2 3657   1.536   2.730   1.374
 1095SOL     OW 3658   0.072   2.028   0.318
 1095SOL    HW1 3659   0.055   2.111   0.264
 1095SOL    HW2 3660   0.162   1.991   0.296
 1096SOL     OW 3661   1.183   3.197   0.119
 1096SOL    HW1 3662   1.084   3.186   0.121
 1096SOL    HW2 3663   1.217   3.212   0.212
 1097SOL     OW 3664   0.613   2.704   1.431
 1097SOL    HW1 3665   0.669   2.785   1.414
 1097SOL    HW2 3666   0.672   2.624   1.434
 1098SOL     OW 3667   1.493   3.629   0.959
 1098SOL    HW1 3668   1.526   3.693   0.890
 1098SOL    HW2 3669   1.559   3.623   1.034
 1099SOL     OW 3670   0.716   2.427   1.708
 1099SOL    HW1 3671   0.735   2.492   1.782
 1099SOL    HW2 3672   0.776   2.347   1.717
 1100SOL     OW 3673   1.450   3.082   1.633
 1100SOL    HW1 3674   1.441   3.072   1.732
 1100SOL    HW2 3675   1.546   3.075   1.607
 1101SOL     OW 3676   0.390   3.603   1.560
 1101SOL    HW1 3677   0.299   3.644   1.558
 1101SOL    HW2 3678   0.383   3.509   1.592
 1102SOL     OW 3679   1.674   2.745   1.254
 1102SOL    HW1 3680   1.647   2.656   1.217
 1102SOL    HW2 3681   1.675   2.813   1.181
 1103SOL     OW 3682   1.225   2.187   0.449
 1103SOL    HW1 3683   1.290   2.113   0.438
 1103SOL    HW2 3684   1.245   2.237   0.533
 1104SOL     OW 3685   0.594   2.607   0.652
 1104SOL    HW1 3686   0.644   2.692   0.633
 1104SOL    HW2 3687   0.506   2.609   0.604
 1105SOL     OW 3688   1.777   2.204   1.642
 1105SOL    HW1 3689   1.760   2.235   1.548
 1105SOL    HW2 3690   1.693   2.167   1.680
 1106SOL     OW 3691   1.730   2.796   1.517
 1106SOL    HW1 3692   1.768   2.887   1.532
 1106SOL    HW2 3693   1.722   2.779   1.418
 1107SOL     OW 3694   0.859   3.236   0.016
 1107SOL    HW1 3695   0.813   3.251   0.104
 1107SOL    HW2 3696   0.903   3.321  -0.014
 1108SOL     OW 3697   0.661   3.652   0.953
 1108SOL    HW1 3698   0.615   3.740   0.940
 1108SOL    HW2 3699   0.760   3.664   0.946
 1109SOL     OW 3700   0.859   2.818   0.861
 1109SOL    HW1 3701   0.913   2.749   0.909
 1109SOL    HW2 3702   0.827   2.887   0.927
 1110SOL     OW 3703   1.083   2.846   0.087
 1110SOL    HW1 3704   1.060   2.899   0.005
 1110SOL    HW2 3705   1.164   2.790   0.068
 1111SOL     OW 3706   1.861   3.431   0.851
 1111SOL    HW1 3707   1.790   3.419   0.781
 1111SOL    HW2 3708   1.862   3.352   0.911
 1112SOL     OW 3709   0.221   3.176   1.844
 1112SOL    HW1 3710   0.156   3.103   1.823
 1112SOL    HW2 3711   0.225   3.190   1.942
 1113SOL     OW 3712   0.079   3.102   0.653
 1113SOL    HW1 3713   0.078   3.055   0.741
 1113SOL    HW2 3714   0.161   3.074   0.602
 1114SOL     OW 3715   0.672   3.253   1.624
 1114SOL    HW1 3716   0.594   3.203   1.662
 1114SOL    HW2 3717   0.669   3.348   1.655
 1115SOL     OW 3718   1.824   2.054   1.227
 1115SOL    HW1 3719   1.820   1.964   1.271
 1115SOL    HW2 3720   1.827   2.043   1.128
 1116SOL     OW 3721   0.428   2.286   0.520
 1116SOL    HW1 3722   0.458   2.214   0.458
 1116SOL    HW2 3723   0.389   2.246   0.603
 1117SOL     OW 3724   1.705   3.349   1.104
 1117SOL    HW1 3725   1.612   3.324   1.077
 1117SOL    HW2 3726   1.731   3.299   1.186
 1118SOL     OW 3727   0.317   2.409   1.280
 1118SOL    HW1 3728   0.355   2.350   1.352
 1118SOL    HW2 3729   0.357   2.383   1.192
 1119SOL     OW 3730   0.812   3.448   0.687
 1119SOL    HW1 3731   0.844   3.458   0.593
 1119SOL    HW2 3732   0.733   3.386   0.689
 1120SOL     OW 3733   1.424   2.076   1.112
 1120SOL    HW1 3734   1.476   2.011   1.167
 1120SOL    HW2 3735   1.375   2.139   1.173
 1121SOL     OW 3736   1.001   1.896   1.154
 1121SOL    HW1 3737   0.938   1.824   1.123
 1121SOL    HW2 3738   1.094   1.860   1.154
 1122SOL     OW 3739   0.770   3.192   0.301
 1122SOL    HW1 3740   0.724   3.105   0.318
 1122SOL    HW2 3741   0.861   3.189   0.342
 1123SOL     OW 3742   0.618   3.429   1.284
 1123SOL    HW1 3743   0.613   3.511   1.341
 1123SOL    HW2 3744   0.707   3.426   1.239
 1124SOL     OW 3745   1.352   1.914   0.168
 1124SOL    HW1 3746   1.387   1.873   0.084
 1124SOL    HW2 3747   1.262   1.876   0.188
 1125SOL     OW 3748   1.300   2.315   0.691
 1125SOL    HW1 3749   1.241   2.395   0.695
 1125SOL    HW2 3750   1.315   2.280   0.784
 1126SOL     OW 3751   1.593   2.083   0.882
 1126SOL    HW1 3752   1.509   2.082   0.936
 1126SOL    HW2 3753   1.595   2.166   0.826
 1127SOL     OW 3754   0.039   2.939   0.300
 1127SOL    HW1 3755   0.138   2.928   0.291
 1127SOL    HW2 3756  -0.001   2.853   0.332
 1128SOL     OW 3757   0.875   3.508   0.337
 1128SOL    HW1 3758   0.798   3.473   0.283
 1128SOL    HW2 3759   0.843   3.579   0.399
 1129SOL     OW 3760   0.230   2.490   1.975
 1129SOL    HW1 3761   0.137   2.488   2.012
 1129SOL    HW2 3762   0.231   2.451   1.883
 1130SOL     OW 3763   0.225   2.137   2.858
 1130SOL    HW1 3764   0.260   2.120   2.950
 1130SOL    HW2 3765   0.137   2.092   2.846
 1131SOL     OW 3766   0.019   2.230   2.509
 1131SOL    HW1 3767  -0.063   2.273   2.548
 1131SOL    HW2 3768  -0.009   2.157   2.446
 1132SOL     OW 3769   0.569   3.137   3.027
 1132SOL    HW1 3770   0.476   3.130   2.990
 1132SOL    HW2 3771   0.580   3.226   3.071
 1133SOL     OW 3772   1.555   3.373   2.565
 1133SOL    HW1 3773   1.498   3.357   2.646
 1133SOL    HW2 3774   1.496   3.383   2.485
 1134SOL     OW 3775   1.135   2.565   2.579
 1134SOL    HW1 3776   1.192   2.643   2.554
 1134SOL    HW2 3777   1.075   2.591   2.655
 1135SOL     OW 3778   1.755   2.469   2.093
 1135SOL    HW1 3779   1.743   2.456   1.994
 1135SOL    HW2 3780   1.725   2.388   2.142
 1136SOL     OW 3781   0.768   3.006   2.885
 1136SOL    HW1 3782   0.690   3.023   2.945
 1136SOL    HW2 3783   0.802   3.093   2.849
 1137SOL     OW 3784   0.850   2.660   3.685
 1137SOL    HW1 3785   0.846   2.736   3.750
 1137SOL    HW2 3786   0.872   2.696   3.594
 1138SOL     OW 3787   0.685   2.874   2.527
 1138SOL    HW1 3788   0.754   2.858   2.597
 1138SOL    HW2 3789   0.612   2.931   2.565
 1139SOL     OW 3790   0.686   3.023   3.665
 1139SOL    HW1 3791   0.746   3.102   3.679
 1139SOL    HW2 3792   0.600   3.054   3.624
 1140SOL     OW 3793   0.335   3.297   2.923
 1140SOL    HW1 3794   0.257   3.266   2.870
 1140SOL    HW2 3795   0.393   3.355   2.866
 1141SOL     OW 3796   1.460   3.367   3.201
 1141SOL    HW1 3797   1.484   3.461   3.227
 1141SOL    HW2 3798   1.444   3.313   3.283
 1142SOL     OW 3799   0.438   2.254   3.361
 1142SOL    HW1 3800   0.520   2.198   3.370
 1142SOL    HW2 3801   0.357   2.196   3.365
 1143SOL     OW 3802   1.603   2.309   2.599
 1143SOL    HW1 3803   1.529   2.355   2.549
 1143SOL    HW2 3804   1.654   2.377   2.652
 1144SOL     OW 3805   0.231   3.575   2.345
 1144SOL    HW1 3806   0.265   3.652   2.399
 1144SOL    HW2 3807   0.275   3.575   2.255
 1145SOL     OW 3808   1.127   3.203   3.552
 1145SOL    HW1 3809   1.174   3.203   3.640
 1145SOL    HW2 3810   1.079   3.116   3.541
 1146SOL     OW 3811   0.230   3.296   2.400
 1146SOL    HW1 3812   0.204   3.392   2.400
 1146SOL    HW2 3813   0.159   3.242   2.445
 1147SOL     OW 3814   0.240   2.953   2.748
 1147SOL    HW1 3815   0.254   2.869   2.800
 1147SOL    HW2 3816   0.185   3.017   2.803
 1148SOL     OW 3817   0.620   3.648   3.301
 1148SOL    HW1 3818   0.528   3.631   3.336
 1148SOL    HW2 3819   0.648   3.740   3.327
 1149SOL     OW 3820   0.606   2.826   1.985
 1149SOL    HW1 3821   0.613   2.910   1.931
 1149SOL    HW2 3822   0.652   2.839   2.073
 1150SOL     OW 3823   1.594   1.976   3.342
 1150SOL    HW1 3824   1.576   2.043   3.270
 1150SOL    HW2 3825   1.591   2.022   3.431
 1151SOL     OW 3826   0.122   2.505   2.425
 1151SOL    HW1 3827   0.077   2.417   2.442
 1151SOL    HW2 3828   0.121   2.559   2.509
 1152SOL     OW 3829   1.842   3.629   2.221
 1152SOL    HW1 3830   1.896   3.600   2.301
 1152SOL    HW2 3831   1.872   3.719   2.192
 1153SOL     OW 3832   0.027   3.458   1.979
 1153SOL    HW1 3833   0.008   3.362   2.000
 1153SOL    HW2 3834  -0.006   3.516   2.054
 1154SOL     OW 3835   1.689   2.784   2.474
 1154SOL    HW1 3836   1.784   2.755   2.482
 1154SOL    HW2 3837   1.681   2.849   2.399
 1155SOL     OW 3838   1.641   2.970   2.294
 1155SOL    HW1 3839   1.727   2.972   2.242
 1155SOL    HW2 3840   1.655   3.017   2.382
 1156SOL     OW 3841   0.113   2.599   3.459
 1156SOL    HW1 3842   0.201   2.586   3.504
 1156SOL    HW2 3843   0.100   2.696   3.437
 1157SOL     OW 3844   0.613   3.227   2.588
 1157SOL    HW1 3845   0.564   3.140   2.597
 1157SOL    HW2 3846   0.590   3.270   2.501
 1158SOL     OW 3847   1.293   3.090   3.285
 1158SOL    HW1 3848   1.330   3.017   3.227
 1158SOL    HW2 3849   1.345   3.095   3.370
 1159SOL     OW 3850   0.809   1.866   2.364
 1159SOL    HW1 3851   0.849   1.957   2.355
 1159SOL    HW2 3852   0.709   1.874   2.370
 1160SOL     OW 3853   0.197   2.838   3.126
 1160SOL    HW1 3854   0.286   2.793   3.112
 1160SOL    HW2 3855   0.124   2.773   3.107
 1161SOL     OW 3856   1.525   2.861   2.052
 1161SOL    HW1 3857   1.462   2.785   2.065
 1161SOL    HW2 3858   1.573   2.879   2.138
 1162SOL     OW 3859   1.187   3.654   3.478
 1162SOL    HW1 3860   1.211   3.714   3.402
 1162SOL    HW2 3861   1.194   3.559   3.448
 1163SOL     OW 3862   0.317   2.113   3.663
 1163SOL    HW1 3863   0.388   2.184   3.669
 1163SOL    HW2 3864   0.229   2.152   3.691
 1164SOL     OW 3865   1.466   3.279   2.815
 1164SOL    HW1 3866   1.407   3.285   2.895
 1164SOL    HW2 3867   1.451   3.191   2.769
 1165SOL     OW 3868   1.667   3.576   2.434
 1165SOL    HW1 3869   1.626   3.553   2.346
 1165SOL    HW2 3870   1.649   3.502   2.499
 1166SOL     OW 3871   0.598   2.591   2.132
 1166SOL    HW1 3872   0.622   2.660   2.064
 1166SOL    HW2 3873   0.520   2.624   2.186
 1167SOL     OW 3874   1.281   2.207   2.806
 1167SOL    HW1 3875   1.195   2.157   2.793
 1167SOL    HW2 3876   1.343   2.153   2.862
 1168SOL     OW 3877   1.576   3.524   2.169
 1168SOL    HW1 3878   1.665   3.570   2.172
 1168SOL    HW2 3879   1.555   3.500   2.074
 1169SOL     OW 3880   0.807   2.467   3.327
 1169SOL    HW1 3881   0.760   2.464   3.416
 1169SOL    HW2 3882   0.756   2.412   3.261
 1170SOL     OW 3883   1.394   2.331   3.536
 1170SOL    HW1 3884   1.374   2.374   3.624
 1170SOL    HW2 3885   1.472   2.269   3.545
 1171SOL     OW 3886   0.973   2.752   3.434
 1171SOL    HW1 3887   1.019   2.668   3.405
 1171SOL    HW2 3888   0.917   2.786   3.359
 1172SOL     OW 3889   0.991   2.272   3.104
 1172SOL    HW1 3890   0.914   2.306   3.158
 1172SOL    HW2 3891   0.957   2.221   3.025
 1173SOL     OW 3892   1.041   2.563   2.291
 1173SOL    HW1 3893   1.067   2.559   2.387
 1173SOL    HW2 3894   0.956   2.512   2.277
 1174SOL     OW 3895   0.076   2.673   2.651
 1174SOL    HW1 3896   0.175   2.661   2.660
 1174SOL    HW2 3897   0.052   2.768   2.672
 1175SOL     OW 3898   0.130   3.683   3.433
 1175SOL    HW1 3899   0.120   3.668   3.532
 1175SOL    HW2 3900   0.044   3.719   3.397
 1176SOL     OW 3901   0.865   2.210   2.057
 1176SOL    HW1 3902   0.924   2.273   2.008
 1176SOL    HW2 3903   0.884   2.116   2.028
 1177SOL     OW 3904   1.719   2.447   3.693
 1177SOL    HW1 3905   1.693   2.536   3.657
 1177SOL    HW2 3906   1.717   2.379   3.620
 1178SOL     OW 3907   1.362   3.006   2.407
 1178SOL    HW1 3908   1.445   2.977   2.359
 1178SOL    HW2 3909   1.313   3.073   2.351
 1179SOL     OW 3910   0.550   2.058   2.747
 1179SOL    HW1 3911   0.545   2.053   2.847
 1179SOL    HW2 3912   0.552   2.154   2.718
 1180SOL     OW 3913   1.008   3.318   2.339
 1180SOL    HW1 3914   0.962   3.390   2.287
 1180SOL    HW2 3915   1.004   3.338   2.437
 1181SOL     OW 3916   0.351   3.663   2.715
 1181SOL    HW1 3917   0.401   3.577   2.721
 1181SOL    HW2 3918   0.416   3.740   2.712
 1182SOL     OW 3919   1.795   2.928   2.735
 1182SOL    HW1 3920   1.733   2.913   2.659
 1182SOL    HW2 3921   1.743   2.939   2.820
 1183SOL     OW 3922   1.227   3.412   3.368
 1183SOL    HW1 3923   1.233   3.335   3.432
 1183SOL    HW2 3924   1.175   3.386   3.288
 1184SOL     OW 3925   0.321   2.805   2.104
 1184SOL    HW1 3926   0.403   2.844   2.062
 1184SOL    HW2 3927   0.294   2.723   2.055
 1185SOL     OW 3928   1.458   2.597   2.590
 1185SOL    HW1 3929   1.453   2.532   2.665
 1185SOL    HW2 3930   1.538   2.656   2.603
 1186SOL     OW 3931   0.461   3.128   3.589
 1186SOL    HW1 3932   0.411   3.129   3.503
 1186SOL    HW2 3933   0.398   3.110   3.665
 1187SOL     OW 3934   1.111   3.638   2.099
 1187SOL    HW1 3935   1.051   3.576   2.149
 1187SOL    HW2 3936   1.142   3.594   2.014
 1188SOL     OW 3937   0.202   2.147   3.360
 1188SOL    HW1 3938   0.122   2.207   3.347
 1188SOL    HW2 3939   0.192   2.098   3.446
 1189SOL     OW 3940   1.632   3.239   1.943
 1189SOL    HW1 3941   1.600   3.333   1.933
 1189SOL    HW2 3942   1.556   3.176   1.931
 1190SOL     OW 3943   0.464   3.605   2.185
 1190SOL    HW1 3944   0.497   3.644   2.271
 1190SOL    HW2 3945   0.540   3.598   2.120
 1191SOL     OW 3946   1.400   1.969   2.288
 1191SOL    HW1 3947   1.376   1.932   2.198
 1191SOL    HW2 3948   1.499   1.985   2.292
 1192SOL     OW 3949   0.249   3.647   3.103
 1192SOL    HW1 3950   0.306   3.582   3.153
 1192SOL    HW2 3951   0.233   3.614   3.010
 1193SOL     OW 3952   0.940   3.560   2.766
 1193SOL    HW1 3953   1.020   3.503   2.787
 1193SOL    HW2 3954   0.891   3.520   2.689
 1194SOL     OW 3955   0.382   2.562   2.342
 1194SOL    HW1 3956   0.427   2.472   2.339
 1194SOL    HW2 3957   0.288   2.551   2.375
 1195SOL     OW 3958   1.547   2.084   3.591
 1195SOL    HW1 3959   1.542   2.121   3.683
 1195SOL    HW2 3960   1.475   2.015   3.579
 1196SOL     OW 3961   0.614   1.984   1.979
 1196SOL    HW1 3962   0.712   1.962   1.986
 1196SOL    HW2 3963   0.583   1.967   1.886
 1197SOL     OW 3964   0.781   2.126   3.611
 1197SOL    HW1 3965   0.848   2.065   3.654
 1197SOL    HW2 3966   0.708   2.145   3.676
 1198SOL     OW 3967   0.888   3.376   3.057
 1198SOL    HW1 3968   0.865   3.351   2.963
 1198SOL    HW2 3969   0.949   3.307   3.096
 1199SOL     OW 3970   1.351   2.452   3.295
 1199SOL    HW1 3971   1.379   2.409   3.380
 1199SOL    HW2 3972   1.376   2.548   3.296
 1200SOL     OW 3973   0.803   3.264   2.786
 1200SOL    HW1 3974   0.893   3.278   2.744
 1200SOL    HW2 3975   0.732   3.266   2.715
 1201SOL     OW 3976   0.922   2.365   2.761
 1201SOL    HW1 3977   0.897   2.356   2.665
 1201SOL    HW2 3978   0.970   2.283   2.792
 1202SOL     OW 3979   0.539   1.926   2.374
 1202SOL    HW1 3980   0.458   1.927   2.432
 1202SOL    HW2 3981   0.542   2.009   2.319
 1203SOL     OW 3982   1.434   3.050   1.903
 1203SOL    HW1 3983   1.466   2.974   1.960
 1203SOL    HW2 3984   1.342   3.077   1.933
 1204SOL     OW 3985   0.297   1.897   2.033
 1204SOL    HW1 3986   0.346   1.981   2.012
 1204SOL    HW2 3987   0.359   1.832   2.078
 1205SOL     OW 3988   0.935   2.098   2.342
 1205SOL    HW1 3989   0.887   2.139   2.264
 1205SOL    HW2 3990   1.034   2.096   2.323
 1206SOL     OW 3991   1.076   2.545   3.326
 1206SOL    HW1 3992   0.996   2.484   3.329
 1206SOL    HW2 3993   1.157   2.492   3.302
 1207SOL     OW 3994   1.227   3.432   2.655
 1207SOL    HW1 3995   1.248   3.506   2.590
 1207SOL    HW2 3996   1.295   3.432   2.728
 1208SOL     OW 3997   0.459   3.014   2.603
 1208SOL    HW1 3998   0.388   2.987   2.668
 1208SOL    HW2 3999   0.433   2.986   2.510
 1209SOL     OW 4000   1.271   3.659   2.453
 1209SOL    HW1 4001   1.315   3.723   2.389
 1209SOL    HW2 4002   1.221   3.711   2.523
 1210SOL     OW 4003   1.032   2.411   1.878
 1210SOL    HW1 4004   0.991   2.493   1.839
 1210SOL    HW2 4005   1.096   2.437   1.951
 1211SOL     OW 4006   0.078   2.418   3.248
 1211SOL    HW1 4007   0.170   2.417   3.207
 1211SOL    HW2 4008   0.072   2.492   3.315
 1212SOL     OW 4009   0.561   2.084   3.009
 1212SOL    HW1 4010   0.599   2.000   3.046
 1212SOL    HW2 4011   0.473   2.103   3.053
 1213SOL     OW 4012   0.866   2.316   2.504
 1213SOL    HW1 4013   0.834   2.388   2.442
 1213SOL    HW2 4014   0.890   2.235   2.451
 1214SOL     OW 4015   1.017   1.901   2.615
 1214SOL    HW1 4016   0.945   1.906   2.546
 1214SOL    HW2 4017   0.993   1.832   2.684
 1215SOL     OW 4018   1.429   3.035   2.729
 1215SOL    HW1 4019   1.374   2.951   2.722
 1215SOL    HW2 4020   1.455   3.064   2.637
 1216SOL     OW 4021   1.466   2.452   2.854
 1216SOL    HW1 4022   1.436   2.357   2.861
 1216SOL    HW2 4023   1.539   2.468   2.920
 1217SOL     OW 4024   1.857   2.695   2.239
 1217SOL    HW1 4025   1.899   2.631   2.303
 1217SOL    HW2 4026   1.819   2.644   2.161
 1218SOL     OW 4027   0.488   3.247   2.036
 1218SOL    HW1 4028   0.401   3.232   2.083
 1218SOL    HW2 4029   0.471   3.273   1.941
 1219SOL     OW 4030   1.664   3.142   2.519
 1219SOL    HW1 4031   1.763   3.150   2.533
 1219SOL    HW2 4032   1.619   3.226   2.550
 1220SOL     OW 4033   1.390   2.437   1.940
 1220SOL    HW1 4034   1.336   2.416   2.021
 1220SOL    HW2 4035   1.481   2.396   1.949
 1221SOL     OW 4036   0.527   2.118   2.190
 1221SOL    HW1 4037   0.554   2.059   2.115
 1221SOL    HW2 4038   0.527   2.213   2.159
 1222SOL     OW 4039   1.754   3.085   3.450
 1222SOL    HW1 4040   1.845   3.046   3.437
 1222SOL    HW2 4041   1.762   3.181   3.474
 1223SOL     OW 4042   1.064   3.209   3.202
 1223SOL    HW1 4043   0.984   3.186   3.257
 1223SOL    HW2 4044   1.147   3.183   3.251
 1224SOL     OW 4045   1.592   3.491   3.487
 1224SOL    HW1 4046   1.619   3.525   3.397
 1224SOL    HW2 4047   1.671   3.453   3.533
 1225SOL     OW 4048   1.111   3.057   2.962
 1225SOL    HW1 4049   1.071   3.101   3.043
 1225SOL    HW2 4050   1.070   3.094   2.879
 1226SOL     OW 4051   1.638   2.961   2.941
 1226SOL    HW1 4052   1.643   3.042   3.000
 1226SOL    HW2 4053   1.552   2.963   2.890
 1227SOL     OW 4054   0.915   1.951   3.264
 1227SOL    HW1 4055   0.940   1.931   3.169
 1227SOL    HW2 4056   0.987   2.007   3.306
 1228SOL     OW 4057   0.980   2.978   3.581
 1228SOL    HW1 4058   0.881   2.984   3.591
 1228SOL    HW2 4059   1.003   2.898   3.525
 1229SOL     OW 4060   0.705   2.912   2.230
 1229SOL    HW1 4061   0.691   2.919   2.329
 1229SOL    HW2 4062   0.789   2.861   2.212
 1230SOL     OW 4063   0.410   2.675   3.113
 1230SOL    HW1 4064   0.496   2.687   3.163
 1230SOL    HW2 4065   0.368   2.588   3.140
 1231SOL     OW 4066   1.274   2.248   3.124
 1231SOL    HW1 4067   1.295   2.322   3.188
 1231SOL    HW2 4068   1.185   2.265   3.081
 1232SOL     OW 4069   0.064   3.426   3.193
 1232SOL    HW1 4070   0.018   3.508   3.159
 1232SOL    HW2 4071   0.162   3.445   3.202
 1233SOL     OW 4072   0.367   2.962   2.363
 1233SOL    HW1 4073   0.360   3.045   2.307
 1233SOL    HW2 4074   0.371   2.882   2.303
 1234SOL     OW 4075   0.566   2.399   2.727
 1234SOL    HW1 4076   0.578   2.465   2.653
 1234SOL    HW2 4077   0.612   2.433   2.810
 1235SOL     OW 4078   1.252   3.210   2.250
 1235SOL    HW1 4079   1.302   3.287   2.290
 1235SOL    HW2 4080   1.157   3.212   2.282
 1236SOL     OW 4081   1.272   3.307   3.004
 1236SOL    HW1 4082   1.319   3.320   3.091
 1236SOL    HW2 4083   1.206   3.233   3.013
 1237SOL     OW 4084   1.582   2.501   2.334
 1237SOL    HW1 4085   1.551   2.562   2.407
 1237SOL    HW2 4086   1.632   2.553   2.265
 1238SOL     OW 4087   0.354   3.372   3.191
 1238SOL    HW1 4088   0.333   3.328   3.104
 1238SOL    HW2 4089   0.451   3.398   3.194
 1239SOL     OW 4090   0.402   2.613   3.460
 1239SOL    HW1 4091   0.470   2.668   3.413
 1239SOL    HW2 4092   0.442   2.525   3.487
 1240SOL     OW 4093   1.587   2.641   3.532
 1240SOL    HW1 4094   1.495   2.679   3.527
 1240SOL    HW2 4095   1.647   2.688   3.467
 1241SOL     OW 4096   1.013   1.967   3.632
 1241SOL    HW1 4097   1.019   2.052   3.580
 1241SOL    HW2 4098   1.045   1.891   3.575
 1242SOL     OW 4099   0.504   1.912   3.602
 1242SOL    HW1 4100   0.462   1.855   3.532
 1242SOL    HW2 4101   0.438   1.981   3.634
 1243SOL     OW 4102   0.573   2.732   2.891
 1243SOL    HW1 4103   0.617   2.821   2.882
 1243SOL    HW2 4104   0.510   2.732   2.968
 1244SOL     OW 4105   1.360   2.724   2.907
 1244SOL    HW1 4106   1.285   2.724   2.841
 1244SOL    HW2 4107   1.397   2.632   2.916
 1245SOL     OW 4108   1.209   2.387   2.137
 1245SOL    HW1 4109   1.222   2.303   2.191
 1245SOL    HW2 4110   1.180   2.461   2.197
 1246SOL     OW 4111   0.307   2.075   3.093
 1246SOL    HW1 4112   0.284   2.112   3.183
 1246SOL    HW2 4113   0.277   1.980   3.087
 1247SOL     OW 4114   0.037   3.172   3.144
 1247SOL    HW1 4115   0.090   3.123   3.212
 1247SOL    HW2 4116   0.059   3.270   3.149
 1248SOL     OW 4117   0.732   2.496   2.926
 1248SOL    HW1 4118   0.791   2.470   2.850
 1248SOL    HW2 4119   0.704   2.592   2.915
 1249SOL     OW 4120   1.728   2.797   3.716
 1249SOL    HW1 4121   1.682   2.790   3.627
 1249SOL    HW2 4122   1.666   2.841   3.782
 1250SOL     OW 4123   0.307   1.925   2.480
 1250SOL    HW1 4124   0.296   2.019   2.513
 1250SOL    HW2 4125   0.302   1.862   2.557
 1251SOL     OW 4126   1.622   2.229   2.236
 1251SOL    HW1 4127   1.624   2.153   2.300
 1251SOL    HW2 4128   1.574   2.306   2.276
 1252SOL     OW 4129   1.023   2.628   2.828
 1252SOL    HW1 4130   1.038   2.649   2.924
 1252SOL    HW2 4131   0.993   2.533   2.819
 1253SOL     OW 4132   0.980   3.435   3.562
 1253SOL    HW1 4133   0.960   3.479   3.474
 1253SOL    HW2 4134   1.019   3.344   3.546
 1254SOL     OW 4135   1.859   3.380   3.467
 1254SOL    HW1 4136   1.873   3.407   3.372
 1254SOL    HW2 4137   1.942   3.402   3.520
 1255SOL     OW 4138   0.350   2.760   3.666
 1255SOL    HW1 4139   0.426   2.804   3.714
 1255SOL    HW2 4140   0.385   2.713   3.584
 1256SOL     OW 4141   1.540   2.136   1.987
 1256SOL    HW1 4142   1.479   2.061   2.010
 1256SOL    HW2 4143   1.562   2.188   2.070
 1257SOL     OW 4144   1.303   2.700   1.904
 1257SOL    HW1 4145   1.337   2.607   1.919
 1257SOL    HW2 4146   1.321   2.727   1.809
 1258SOL     OW 4147   1.068   3.195   2.711
 1258SOL    HW1 4148   1.075   3.111   2.656
 1258SOL    HW2 4149   1.130   3.264   2.675
 1259SOL     OW 4150   0.319   2.672   2.811
 1259SOL    HW1 4151   0.412   2.708   2.816
 1259SOL    HW2 4152   0.313   2.587   2.863
 1260SOL     OW 4153   0.339   2.371   2.868
 1260SOL    HW1 4154   0.287   2.288   2.851
 1260SOL    HW2 4155   0.416   2.376   2.804
 1261SOL     OW 4156   1.138   2.242   3.540
 1261SOL    HW1 4157   1.093   2.305   3.604
 1261SOL    HW2 4158   1.231   2.273   3.523
 1262SOL     OW 4159   1.160   2.069   3.339
 1262SOL    HW1 4160   1.160   2.133   3.416
 1262SOL    HW2 4161   1.188   2.117   3.256
 1263SOL     OW 4162   0.008   3.188   2.062
 1263SOL    HW1 4163  -0.085   3.209   2.031
 1263SOL    HW2 4164   0.018   3.089   2.075
 1264SOL     OW 4165   0.088   3.663   2.789
 1264SOL    HW1 4166   0.046   3.577   2.762
 1264SOL    HW2 4167   0.182   3.666   2.755
 1265SOL     OW 4168   0.504   3.430   2.772
 1265SOL    HW1 4169   0.570   3.504   2.781
 1265SOL    HW2 4170   0.548   3.351   2.730
 1266SOL     OW 4171   1.002   2.658   3.100
 1266SOL    HW1 4172   1.043   2.626   3.186
 1266SOL    HW2 4173   0.906   2.631   3.097
 1267SOL     OW 4174   0.040   2.406   2.976
 1267SOL    HW1 4175   0.125   2.373   2.935
 1267SOL    HW2 4176   0.053   2.421   3.074
 1268SOL     OW 4177   0.189   2.382   3.584
 1268SOL    HW1 4178   0.248   2.342   3.514
 1268SOL    HW2 4179   0.131   2.453   3.543
 1269SOL     OW 4180   1.369   2.812   3.522
 1269SOL    HW1 4181   1.408   2.901   3.542
 1269SOL    HW2 4182   1.379   2.792   3.425
 1270SOL     OW 4183   0.815   2.434   2.187
 1270SOL    HW1 4184   0.822   2.345   2.141
 1270SOL    HW2 4185   0.721   2.468   2.179
 1271SOL     OW 4186   1.657   2.466   3.068
 1271SOL    HW1 4187   1.619   2.397   3.130
 1271SOL    HW2 4188   1.739   2.430   3.024
 1272SOL     OW 4189   0.252   3.426   3.606
 1272SOL    HW1 4190   0.222   3.483   3.682
 1272SOL    HW2 4191   0.245   3.329   3.632
 1273SOL     OW 4192   0.671   2.326   3.131
 1273SOL    HW1 4193   0.637   2.237   3.101
 1273SOL    HW2 4194   0.697   2.380   3.051
 1274SOL     OW 4195   0.930   3.540   3.327
 1274SOL    HW1 4196   0.906   3.522   3.232
 1274SOL    HW2 4197   0.960   3.634   3.337
 1275SOL     OW 4198   0.473   2.362   2.053
 1275SOL    HW1 4199   0.534   2.442   2.057
 1275SOL    HW2 4200   0.378   2.393   2.060
 1276SOL     OW 4201   0.159   2.999   3.328
 1276SOL    HW1 4202   0.181   2.938   3.404
 1276SOL    HW2 4203   0.169   2.950   3.242
 1277SOL     OW 4204   1.347   2.921   3.096
 1277SOL    HW1 4205   1.371   2.858   3.022
 1277SOL    HW2 4206   1.257   2.961   3.078
 1278SOL     OW 4207   1.302   2.717   2.171
 1278SOL    HW1 4208   1.216   2.686   2.213
 1278SOL    HW2 4209   1.298   2.703   2.072
 1279SOL     OW 4210   1.759   3.609   3.016
 1279SOL    HW1 4211   1.820   3.639   2.943
 1279SOL    HW2 4212   1.721   3.520   2.994
 1280SOL     OW 4213   1.252   3.593   2.990
 1280SOL    HW1 4214   1.336   3.598   2.936
 1280SOL    HW2 4215   1.229   3.497   3.008
 1281SOL     OW 4216   0.083   3.120   2.884
 1281SOL    HW1 4217   0.078   3.119   2.984
 1281SOL    HW2 4218   0.000   3.079   2.846
 1282SOL     OW 4219   0.688   3.524   3.578
 1282SOL    HW1 4220   0.632   3.605   3.587
 1282SOL    HW2 4221   0.740   3.528   3.492
 1283SOL     OW 4222   1.726   1.997   2.385
 1283SOL    HW1 4223   1.799   1.980   2.318
 1283SOL    HW2 4224   1.695   1.910   2.423
 1284SOL     OW 4225   1.388   3.435   2.339
 1284SOL    HW1 4226   1.455   3.447   2.265
 1284SOL    HW2 4227   1.348   3.524   2.362
 1285SOL     OW 4228   0.130   3.656   3.713
 1285SOL    HW1 4229   0.089   3.582   3.766
 1285SOL    HW2 4230   0.194   3.707   3.771
 1286SOL     OW 4231   1.280   2.789   2.534
 1286SOL    HW1 4232   1.340   2.708   2.536
 1286SOL    HW2 4233   1.320   2.858   2.474
 1287SOL     OW 4234   0.830   3.135   3.284
 1287SOL    HW1 4235   0.825   3.168   3.379
 1287SOL    HW2 4236   0.744   3.154   3.238
 1288SOL     OW 4237   0.672   3.478   2.016
 1288SOL    HW1 4238   0.681   3.488   1.917
 1288SOL    HW2 4239   0.632   3.389   2.037
 1289SOL     OW 4240   1.650   3.582   3.256
 1289SOL    HW1 4241   1.703   3.592   3.172
 1289SOL    HW2 4242   1.623   3.672   3.290
 1290SOL     OW 4243   1.841   2.037   2.825
 1290SOL    HW1 4244   1.880   1.952   2.789
 1290SOL    HW2 4245   1.743   2.039   2.806
 1291SOL     OW 4246   0.263   2.188   2.582
 1291SOL    HW1 4247   0.184   2.239   2.548
 1291SOL    HW2 4248   0.254   2.173   2.680
 1292SOL     OW 4249   1.194   3.474   1.893
 1292SOL    HW1 4250   1.200   3.381   1.930
 1292SOL    HW2 4251   1.135   3.474   1.813
 1293SOL     OW 4252   0.822   2.864   3.234
 1293SOL    HW1 4253   0.862   2.863   3.142
 1293SOL    HW2 4254   0.832   2.956   3.274
 1294SOL     OW 4255   0.916   2.772   2.153
 1294SOL    HW1 4256   0.979   2.810   2.085
 1294SOL    HW2 4257   0.956   2.689   2.192
 1295SOL     OW 4258   1.504   3.469   1.906
 1295SOL    HW1 4259   1.412   3.506   1.913
 1295SOL    HW2 4260   1.542   3.489   1.816
 1296SOL     OW 4261   0.372   3.150   3.352
 1296SOL    HW1 4262   0.359   3.243   3.318
 1296SOL    HW2 4263   0.288   3.098   3.339
 1297SOL     OW 4264   1.614   3.154   3.151
 1297SOL    HW1 4265   1.674   3.157   3.231
 1297SOL    HW2 4266   1.539   3.218   3.164
 1298SOL     OW 4267   1.039   2.960   2.558
 1298SOL    HW1 4268   0.969   2.913   2.612
 1298SOL    HW2 4269   1.098   2.892   2.515
 1299SOL     OW 4270   1.014   2.098   2.833
 1299SOL    HW1 4271   1.006   2.062   2.740
 1299SOL    HW2 4272   1.012   2.022   2.898
 1300SOL     OW 4273   0.590   3.349   2.353
 1300SOL    HW1 4274   0.632   3.291   2.283
 1300SOL    HW2 4275   0.546   3.428   2.309
 1301SOL     OW 4276   1.709   2.247   3.243
 1301SOL    HW1 4277   1.782   2.316   3.247
 1301SOL    HW2 4278   1.737   2.172   3.184
 1302SOL     OW 4279   0.255   3.210   2.152
 1302SOL    HW1 4280   0.159   3.211   2.125
 1302SOL    HW2 4281   0.267   3.263   2.236
 1303SOL     OW 4282   0.105   2.875   3.588
 1303SOL    HW1 4283   0.028   2.842   3.642
 1303SOL    HW2 4284   0.190   2.845   3.630
 1304SOL     OW 4285   0.672   2.065   3.351
 1304SOL    HW1 4286   0.762   2.049   3.311
 1304SOL    HW2 4287   0.680   2.070   3.450
 1305SOL     OW 4288   0.075   2.207   1.895
 1305SOL    HW1 4289  -0.017   2.179   1.866
 1305SOL    HW2 4290   0.106   2.284   1.839
 1306SOL     OW 4291   1.440   2.718   3.260
 1306SOL    HW1 4292   1.383   2.770   3.197
 1306SOL    HW2 4293   1.536   2.730   3.236
 1307SOL     OW 4294   0.072   2.028   2.180
 1307SOL    HW1 4295   0.055   2.111   2.126
 1307SOL    HW2 4296   0.162   1.991   2.158
 1308SOL     OW 4297   1.183   3.197   1.981
 1308SOL    HW1 4298   1.084   3.186   1.983
 1308SOL    HW2 4299   1.217   3.212   2.074
 1309SOL     OW 4300   0.613   2.704   3.293
 1309SOL    HW1 4301   0.669   2.785   3.276
 1309SOL    HW2 4302   0.672   2.624   3.296
 1310SOL     OW 4303   1.493   3.629   2.821
 1310SOL    HW1 4304   1.526   3.693   2.752
 1310SOL    HW2 4305   1.559   3.623   2.896
 1311SOL     OW 4306   0.716   2.427   3.570
 1311SOL    HW1 4307   0.735   2.492   3.644
 1311SOL    HW2 4308   0.776   2.347   3.579
 1312SOL     OW 4309   1.450   3.082   3.495
 1312SOL    HW1 4310   1.441   3.072   3.594
 1312SOL    HW2 4311   1.546   3.075   3.469
 1313SOL     OW 4312   0.390   3.603   3.422
 1313SOL    HW1 4313   0.299   3.644   3.420
 1313SOL    HW2 4314   0.383   3.509   3.454
 1314SOL     OW 4315   1.674   2.745   3.116
 1314SOL    HW1 4316   1.647   2.656   3.079
 1314SOL    HW2 4317   1.675   2.813   3.043
 1315SOL     OW 4318   1.225   2.187   2.311
 1315SOL    HW1 4319   1.290   2.113   2.300
 1315SOL    HW2 4320   1.245   2.237   2.395
 1316SOL     OW 4321   0.594   2.607   2.514
 1316SOL    HW1 4322   0.644   2.692   2.495
 1316SOL    HW2 4323   0.506   2.609   2.466
 1317SOL     OW 4324   1.777   2.204   3.504
 1317SOL    HW1 4325   1.760   2.235   3.410
 1317SOL    HW2 4326   1.693   2.167   3.542
 1318SOL     OW 4327   1.730   2.796   3.379
 1318SOL    HW1 4328   1.768   2.887   3.394
 1318SOL    HW2 4329   1.722   2.779   3.280
 1319SOL     OW 4330   0.859   3.236   1.878
 1319SOL    HW1 4331   0.813   3.251   1.966
 1319SOL    HW2 4332   0.903   3.321   1.848
 1320SOL     OW 4333   0.661   3.652   2.815
 1320SOL    HW1 4334   0.615   3.740   2.802
 1320SOL    HW2 4335   0.760   3.664   2.808
 1321SOL     OW 4336   0.859   2.818   2.723
 1321SOL    HW1 4337   0.913   2.749   2.771
 1321SOL    HW2 4338   0.827   2.887   2.789
 1322SOL     OW 4339   1.083   2.846   1.949
 1322SOL    HW1 4340   1.060   2.899   1.867
 1322SOL    HW2 4341   1.164   2.790   1.930
 1323SOL     OW 4342   1.861   3.431   2.713
 1323SOL    HW1 4343   1.790   3.419   2.643
 1323SOL    HW2 4344   1.862   3.352   2.773
 1324SOL     OW 4345   0.221   3.176   3.706
 1324SOL    HW1 4346   0.156   3.103   3.685
 1324SOL    HW2 4347   0.225   3.190   3.804
 1325SOL     OW 4348   0.079   3.102   2.515
 1325SOL    HW1 4349   0.078   3.055   2.603
 1325SOL    HW2 4350   0.161   3.074   2.464
 1326SOL     OW 4351   0.672   3.253   3.486
 1326SOL    HW1 4352   0.594   3.203   3.524
 1326SOL    HW2 4353   0.669   3.348   3.517
 1327SOL     OW 4354   1.824   2.054   3.089
 1327SOL    HW1 4355   1.820   1.964   3.133
 1327SOL    HW2 4356   1.827   2.043   2.990
 1328SOL     OW 4357   0.428   2.286   2.382
 1328SOL    HW1 4358   0.458   2.214   2.320
 1328SOL    HW2 4359   0.389   2.246   2.465
 1329SOL     OW 4360   1.705   3.349   2.966
 1329SOL    HW1 4361   1.612   3.324   2.939
 1329SOL    HW2 4362   1.731   3.299   3.048
 1330SOL     OW 4363   0.317   2.409   3.142
 1330SOL    HW1 4364   0.355   2.350   3.214
 1330SOL    HW2 4365   0.357   2.383   3.054
 1331SOL     OW 4366   0.812   3.448   2.549
 1331SOL    HW1 4367   0.844   3.458   2.455
 1331SOL    HW2 4368   0.733   3.386   2.551
 1332SOL     OW 4369   1.424   2.076   2.974
 1332SOL    HW1 4370   1.476   2.011   3.029
 1332SOL    HW2 4371   1.375   2.139   3.035
 1333SOL     OW 4372   1.001   1.896   3.016
 1333SOL    HW1 4373   0.938   1.824   2.985
 1333SOL    HW2 4374   1.094   1.860   3.016
 1334SOL     OW 4375   0.770   3.192   2.163
 1334SOL    HW1 4376   0.724   3.105   2.180
 1334SOL    HW2 4377   0.861   3.189   2.204
 1335SOL     OW 4378   0.618   3.429   3.146
 1335SOL    HW1 4379   0.613   3.511   3.203
 1335SOL    HW2 4380   0.707   3.426   3.101
 1336SOL     OW 4381   1.352   1.914   2.030
 1336SOL    HW1 4382   1.387   1.873   1.946
 1336SOL    HW2 4383   1.262   1.876   2.050
 1337SOL     OW 4384   1.300   2.315   2.553
 1337SOL    HW1 4385   1.241   2.395   2.557
 1337SOL    HW2 4386   1.315   2.280   2.646
 1338SOL     OW 4387   1.593   2.083   2.744
 1338SOL    HW1 4388   1.509   2.082   2.798
 1338SOL    HW2 4389   1.595   2.166   2.688
 1339SOL     OW 4390   0.039   2.939   2.162
 1339SOL    HW1 4391   0.138   2.928   2.153
 1339SOL    HW2 4392  -0.001   2.853   2.194
 1340SOL     OW 4393   0.875   3.508   2.199
 1340SOL    HW1 4394   0.798   3.473   2.145
 1340SOL    HW2 4395   0.843   3.579   2.261
 1341SOL     OW 4396   0.230   2.490   3.837
 1341SOL    HW1 4397   0.137   2.488   3.874
 1341SOL    HW2 4398   0.231   2.451   3.745
 1342SOL     OW 4399   0.225   2.137   4.720
 1342SOL    HW1 4400   0.260   2.120   4.812
 1342SOL    HW2 4401   0.137   2.092   4.708
 1343SOL     OW 4402   0.019   2.230   4.371
 1343SOL    HW1 4403  -0.063   2.273   4.410
 1343SOL    HW2 4404  -0.009   2.157   4.308
 1344SOL     OW 4405   0.569   3.137   4.889
 1344SOL    HW1 4406   0.476   3.130   4.852
 1344SOL    HW2 4407   0.580   3.226   4.933
 1345SOL     OW 4408   1.555   3.373   4.427
 1345SOL    HW1 4409   1.498   3.357   4.508
 1345SOL    HW2 4410   1.496   3.383   4.347
 1346SOL     OW 4411   1.135   2.565   4.441
 1346SOL    HW1 4412   1.192   2.643   4.416
 1346SOL    HW2 4413   1.075   2.591   4.517
 1347SOL     OW 4414   1.755   2.469   3.955
 1347SOL    HW1 4415   1.743   2.456   3.856
 1347SOL    HW2 4416   1.725   2.388   4.004
 1348SOL     OW 4417   0.768   3.006   4.747
 1348SOL    HW1 4418   0.690   3.023   4.807
 1348SOL    HW2 4419   0.802   3.093   4.711
 1349SOL     OW 4420   0.850   2.660   5.547
 1349SOL    HW1 4421   0.846   2.736   5.612
 1349SOL    HW2 4422   0.872   2.696   5.456
 1350SOL     OW 4423   0.685   2.874   4.389
 1350SOL    HW1 4424   0.754   2.858   4.459
 1350SOL    HW2 4425   0.612   2.931   4.427
 1351SOL     OW 4426   0.686   3.023   5.527
 1351SOL    HW1 4427   0.746   3.102   5.541
 1351SOL    HW2 4428   0.600   3.054   5.486
 1352SOL     OW 4429   0.335   3.297   4.785
 1352SOL    HW1 4430   0.257   3.266   4.732
 1352SOL    HW2 4431   0.393   3.355   4.728
 1353SOL     OW 4432   1.460   3.367   5.063
 1353SOL    HW1 4433   1.484   3.461   5.089
 1353SOL    HW2 4434   1.444   3.313   5.145
 1354SOL     OW 4435   0.438   2.254   5.223
 1354SOL    HW1 4436   0.520   2.198   5.232
 1354SOL    HW2 4437   0.357   2.196   5.227
 1355SOL     OW 4438   1.603   2.309   4.461
 1355SOL    HW1 4439   1.529   2.355   4.411
 1355SOL    HW2 4440   1.654   2.377   4.514
 1356SOL     OW 4441   0.231   3.575   4.207
 1356SOL    HW1 4442   0.265   3.652   4.261
 1356SOL    HW2 4443   0.275   3.575   4.117
 1357SOL     OW 4444   1.127   3.203   5.414
 1357SOL    HW1 4445   1.174   3.203   5.502
 1357SOL    HW2 4446   1.079   3.116   5.403
 1358SOL     OW 4447   0.230   3.296   4.262
 1358SOL    HW1 4448   0.204   3.392   4.262
 1358SOL    HW2 4449   0.159   3.242   4.307
 1359SOL     OW 4450   0.240   2.953   4.610
 1359SOL    HW1 4451   0.254   2.869   4.662
 1359SOL    HW2 4452   0.185   3.017   4.665
 1360SOL     OW 4453   0.620   3.648   5.163
 1360SOL    HW1 4454   0.528   3.631   5.198
 1360SOL    HW2 4455   0.648   3.740   5.189
 1361SOL     OW 4456   0.606   2.826   3.847
 1361SOL    HW1 4457   0.613   2.910   3.793
 1361SOL    HW2 4458   0.652   2.839   3.935
 1362SOL     OW 4459   1.594   1.976   5.204
 1362SOL    HW1 4460   1.576   2.043   5.132
 1362SOL    HW2 4461   1.591   2.022   5.293
 1363SOL     OW 4462   0.122   2.505   4.287
 1363SOL    HW1 4463   0.077   2.417   4.304
 1363SOL    HW2 4464   0.121   2.559   4.371
 1364SOL     OW 4465   1.842   3.629   4.083
 1364SOL    HW1 4466   1.896   3.600   4.163
 1364SOL    HW2 4467   1.872   3.719   4.054
 1365SOL     OW 4468   0.027   3.458   3.841
 1365SOL    HW1 4469   0.008   3.362   3.862
 1365SOL    HW2 4470  -0.006   3.516   3.916
 1366SOL     OW 4471   1.689   2.784   4.336
 1366SOL    HW1 4472   1.784   2.755   4.344
 1366SOL    HW2 4473   1.681   2.849   4.261
 1367SOL     OW 4474   1.641   2.970   4.156
 1367SOL    HW1 4475   1.727   2.972   4.104
 1367SOL    HW2 4476   1.655   3.017   4.244
 1368SOL     OW 4477   0.113   2.599   5.321
 1368SOL    HW1 4478   0.201   2.586   5.366
 1368SOL    HW2 4479   0.100   2.696   5.299
 1369SOL     OW 4480   0.613   3.227   4.450
 1369SOL    HW1 4481   0.564   3.140   4.459
 1369SOL    HW2 4482   0.590   3.270   4.363
 1370SOL     OW 4483   1.293   3.090   5.147
 1370SOL    HW1 4484   1.330   3.017   5.089
 1370SOL    HW2 4485   1.345   3.095   5.232
 1371SOL     OW 4486   0.809   1.866   4.226
 1371SOL    HW1 4487   0.849   1.957   4.217
 1371SOL    HW2 4488   0.709   1.874   4.232
 1372SOL     OW 4489   0.197   2.838   4.988
 1372SOL    HW1 4490   0.286   2.793   4.974
 1372SOL    HW2 4491   0.124   2.773   4.969
 1373SOL     OW 4492   1.525   2.861   3.914
 1373SOL    HW1 4493   1.462   2.785   3.927
 1373SOL    HW2 4494   1.573   2.879   4.000
 1374SOL     OW 4495   1.187   3.654   5.340
 1374SOL    HW1 4496   1.211   3.714   5.264
 1374SOL    HW2 4497   1.194   3.559   5.310
 1375SOL     OW 4498   0.317   2.113   5.525
 1375SOL    HW1 4499   0.388   2.184   5.531
 1375SOL    HW2 4500   0.229   2.152   5.553
 1376SOL     OW 4501   1.466   3.279   4.677
 1376SOL    HW1 4502   1.407   3.285   4.757
 1376SOL    HW2 4503   1.451   3.191   4.631
 1377SOL     OW 4504   1.667   3.576   4.296
 1377SOL    HW1 4505   1.626   3.553   4.208
 1377SOL    HW2 4506   1.649   3.502   4.361
 1378SOL     OW 4507   0.598   2.591   3.994
 1378SOL    HW1 4508   0.622   2.660   3.926
 1378SOL    HW2 4509   0.520   2.624   4.048
 1379SOL     OW 4510   1.281   2.207   4.668
 1379SOL    HW1 4511   1.195   2.157   4.655
 1379SOL    HW2 4512   1.343   2.153   4.724
 1380SOL     OW 4513   1.576   3.524   4.031
 1380SOL    HW1 4514   1.665   3.570   4.034
 1380SOL    HW2 4515   1.555   3.500   3.936
 1381SOL     OW 4516   0.807   2.467   5.189
 1381SOL    HW1 4517   0.760   2.464   5.278
 1381SOL    HW2 4518   0.756   2.412   5.123
 1382SOL     OW 4519   1.394   2.331   5.398
 1382SOL    HW1 4520   1.374   2.374   5.486
 1382SOL    HW2 4521   1.472   2.269   5.407
 1383SOL     OW 4522   0.973   2.752   5.296
 1383SOL    HW1 4523   1.019   2.668   5.267
 1383SOL    HW2 4524   0.917   2.786   5.221
 1384SOL     OW 4525   0.991   2.272   4.966
 1384SOL    HW1 4526   0.914   2.306   5.020
 1384SOL    HW2 4527   0.957   2.221   4.887
 1385SOL     OW 4528   1.041   2.563   4.153
 1385SOL    HW1 4529   1.067   2.559   4.249
 1385SOL    HW2 4530   0.956   2.512   4.139
 1386SOL     OW 4531   0.076   2.673   4.513
 1386SOL    HW1 4532   0.175   2.661   4.522
 1386SOL    HW2 4533   0.052   2.768   4.534
 1387SOL     OW 4534   0.130   3.683   5.295
 1387SOL    HW1 4535   0.120   3.668   5.394
 1387SOL    HW2 4536   0.044   3.719   5.259
 1388SOL     OW 4537   0.865   2.210   3.919
 1388SOL    HW1 4538   0.924   2.273   3.870
 1388SOL    HW2 4539   0.884   2.116   3.890
 1389SOL     OW 4540   1.719   2.447   5.555
 1389SOL    HW1 4541   1.693   2.536   5.519
 1389SOL    HW2 4542   1.717   2.379   5.482
 1390SOL     OW 4543   1.362   3.006   4.269
 1390SOL    HW1 4544   1.445   2.977   4.221
 1390SOL    HW2 4545   1.313   3.073   4.213
 1391SOL     OW 4546   0.550   2.058   4.609
 1391SOL    HW1 4547   0.545   2.053   4.709
 1391SOL    HW2 4548   0.552   2.154   4.580
 1392SOL     OW 4549   1.008   3.318   4.201
 1392SOL    HW1 4550   0.962   3.390   4.149
 1392SOL    HW2 4551   1.004   3.338   4.299
 1393SOL     OW 4552   0.351   3.663   4.577
 1393SOL    HW1 4553   0.401   3.577   4.583
 1393SOL    HW2 4554   0.416   3.740   4.574
 1394SOL     OW 4555   1.795   2.928   4.597
 1394SOL    HW1 4556   1.733   2.913   4.521
 1394SOL    HW2 4557   1.743   2.939   4.682
 1395SOL     OW 4558   1.227   3.412   5.230
 1395SOL    HW1 4559   1.233   3.335   5.294
 1395SOL    HW2 4560   1.175   3.386   5.150
 1396SOL     OW 4561   0.321   2.805   3.966
 1396SOL    HW1 4562   0.403   2.844   3.924
 1396SOL    HW2 4563   0.294   2.723   3.917
 1397SOL     OW 4564   1.458   2.597   4.452
 1397SOL    HW1 4565   1.453   2.532   4.527
 1397SOL    HW2 4566   1.538   2.656   4.465
 1398SOL     OW 4567   0.461   3.128   5.451
 1398SOL    HW1 4568   0.411   3.129   5.365
 1398SOL    HW2 4569   0.398   3.110   5.527
 1399SOL     OW 4570   1.111   3.638   3.961
 1399SOL    HW1 4571   1.051   3.576   4.011
 1399SOL    HW2 4572   1.142   3.594   3.876
 1400SOL     OW 4573   0.202   2.147   5.222
 1400SOL    HW1 4574   0.122   2.207   5.209
 1400SOL    HW2 4575   0.192   2.098   5.308
 1401SOL     OW 4576   1.632   3.239   3.805
 1401SOL    HW1 4577   1.600   3.333   3.795
 1401SOL    HW2 4578   1.556   3.176   3.793
 1402SOL     OW 4579   0.464   3.605   4.047
 1402SOL    HW1 4580   0.497   3.644   4.133
 1402SOL    HW2 4581   0.540   3.598   3.982
 1403SOL     OW 4582   1.400   1.969   4.150
 1403SOL    HW1 4583   1.376   1.932   4.060
 1403SOL    HW2 4584   1.499   1.985   4.154
 1404SOL     OW 4585   0.249   3.647   4.965
 1404SOL    HW1 4586   0.306   3.582   5.015
 1404SOL    HW2 4587   0.233   3.614   4.872
 1405SOL     OW 4588   0.940   3.560   4.628
 1405SOL    HW1 4589   1.020   3.503   4.649
 1405SOL    HW2 4590   0.891   3.520   4.551
 1406SOL     OW 4591   0.382   2.562   4.204
 1406SOL    HW1 4592   0.427   2.472   4.201
 1406SOL    HW2 4593   0.288   2.551   4.237
 1407SOL     OW 4594   1.547   2.084   5.453
 1407SOL    HW1 4595   1.542   2.121   5.545
 1407SOL    HW2 4596   1.475   2.015   5.441
 1408SOL     OW 4597   0.614   1.984   3.841
 1408SOL    HW1 4598   0.712   1.962   3.848
 1408SOL    HW2 4599   0.583   1.967   3.748
 1409SOL     OW 4600   0.781   2.126   5.473
 1409SOL    HW1 4601   0.848   2.065   5.516
 1409SOL    HW2 4602   0.708   2.145   5.538
 1410SOL     OW 4603   0.888   3.376   4.919
 1410SOL    HW1 4604   0.865   3.351   4.825
 1410SOL    HW2 4605   0.949   3.307   4.958
 1411SOL     OW 4606   1.351   2.452   5.157
 1411SOL    HW1 4607   1.379   2.409   5.242
 1411SOL    HW2 4608   1.376   2.548   5.158
 1412SOL     OW 4609   0.803   3.264   4.648
 1412SOL    HW1 4610   0.893   3.278   4.606
 1412SOL    HW2 4611   0.732   3.266   4.577
 1413SOL     OW 4612   0.922   2.365   4.623
 1413SOL    HW1 4613   0.897   2.356   4.527
 1413SOL    HW2 4614   0.970   2.283   4.654
 1414SOL     OW 4615   0.539   1.926   4.236
 1414SOL    HW1 4616   0.458   1.927   4.294
 1414SOL    HW2 4617   0.542   2.009   4.181
 1415SOL     OW 4618   1.434   3.050   3.765
 1415SOL    HW1 4619   1.466   2.974   3.822
 1415SOL    HW2 4620   1.342   3.077   3.795
 1416SOL     OW 4621   0.297   1.897   3.895
 1416SOL    HW1 4622   0.346   1.981   3.874
 1416SOL    HW2 4623   0.359   1.832   3.940
 1417SOL     OW 4624   0.935   2.098   4.204
 1417SOL    HW1 4625   0.887   2.139   4.126
 1417SOL    HW2 4626   1.034   2.096   4.185
 1418SOL     OW 4627   1.076   2.545   5.188
 1418SOL    HW1 4628   0.996   2.484   5.191
 1418SOL    HW2 4629   1.157   2.492   5.164
 1419SOL     OW 4630   1.227   3.432   4.517
 1419SOL    HW1 4631   1.248   3.506   4.452
 1419SOL    HW2 4632   1.295   3.432   4.590
 1420SOL     OW 4633   0.459   3.014   4.465
 1420SOL    HW1 4634   0.388   2.987   4.530
 1420SOL    HW2 4635   0.433   2.986   4.372
 1421SOL     OW 4636   1.271   3.659   4.315
 1421SOL    HW1 4637   1.315   3.723   4.251
 1421SOL    HW2 4638   1.221   3.711   4.385
 1422SOL     OW 4639   1.032   2.411   3.740
 1422SOL    HW1 4640   0.991   2.493   3.701
 1422SOL    HW2 4641   1.096   2.437   3.813
 1423SOL     OW 4642   0.078   2.418   5.110
 1423SOL    HW1 4643   0.170   2.417   5.069
 1423SOL    HW2 4644   0.072   2.492   5.177
 1424SOL     OW 4645   0.561   2.084   4.871
 1424SOL    HW1 4646   0.599   2.000   4.908
 1424SOL    HW2 4647   0.473   2.103   4.915
 1425SOL     OW 4648   0.866   2.316   4.366
 1425SOL    HW1 4649   0.834   2.388   4.304
 1425SOL    HW2 4650   0.890   2.235   4.313
 1426SOL     OW 4651   1.017   1.901   4.477
 1426SOL    HW1 4652   0.945   1.906   4.408
 1426SOL    HW2 4653   0.993   1.832   4.546
 1427SOL     OW 4654   1.429   3.035   4.591
 1427SOL    HW1 4655   1.374   2.951   4.584
 1427SOL    HW2 4656   1.455   3.064   4.499
 1428SOL     OW 4657   1.466   2.452   4.716
 1428SOL    HW1 4658   1.436   2.357   4.723
 1428SOL    HW2 4659   1.539   2.468   4.782
 1429SOL     OW 4660   0.488   3.247   3.898
 1429SOL    HW1 4661   0.401   3.232   3.945
 1429SOL    HW2 4662   0.471   3.273   3.803
 1430SOL     OW 4663   1.664   3.142   4.381
 1430SOL    HW1 4664   1.763   3.150   4.395
 1430SOL    HW2 4665   1.619   3.226   4.412
 1431SOL     OW 4666   1.390   2.437   3.802
 1431SOL    HW1 4667   1.336   2.416   3.883
 1431SOL    HW2 4668   1.481   2.396   3.811
 1432SOL     OW 4669   0.527   2.118   4.052
 1432SOL    HW1 4670   0.554   2.059   3.977
 1432SOL    HW2 4671   0.527   2.213   4.021
 1433SOL     OW 4672   1.754   3.085   5.312
 1433SOL    HW1 4673   1.845   3.046   5.299
 1433SOL    HW2 4674   1.762   3.181   5.336
 1434SOL     OW 4675   1.064   3.209   5.064
 1434SOL    HW1 4676   0.984   3.186   5.119
 1434SOL    HW2 4677   1.147   3.183   5.113
 1435SOL     OW 4678   1.592   3.491   5.349
 1435SOL    HW1 4679   1.619   3.525   5.259
 1435SOL    HW2 4680   1.671   3.453   5.395
 1436SOL     OW 4681   1.111   3.057   4.824
 1436SOL    HW1 4682   1.071   3.101   4.905
 1436SOL    HW2 4683   1.070   3.094   4.741
 1437SOL     OW 4684   1.638   2.961   4.803
 1437SOL    HW1 4685   1.643   3.042   4.862
 1437SOL    HW2 4686   1.552   2.963   4.752
 1438SOL     OW 4687   0.915   1.951   5.126
 1438SOL    HW1 4688   0.940   1.931   5.031
 1438SOL    HW2 4689   0.987   2.007   5.168
 1439SOL     OW 4690   0.980   2.978   5.443
 1439SOL    HW1 4691   0.881   2.984   5.453
 1439SOL    HW2 4692   1.003   2.898   5.387
 1440SOL     OW 4693   0.705   2.912   4.092
 1440SOL    HW1 4694   0.691   2.919   4.191
 1440SOL    HW2 4695   0.789   2.861   4.074
 1441SOL     OW 4696   0.410   2.675   4.975
 1441SOL    HW1 4697   0.496   2.687   5.025
 1441SOL    HW2 4698   0.368   2.588   5.002
 1442SOL     OW 4699   1.274   2.248   4.986
 1442SOL    HW1 4700   1.295   2.322   5.050
 1442SOL    HW2 4701   1.185   2.265   4.943
 1443SOL     OW 4702   0.064   3.426   5.055
 1443SOL    HW1 4703   0.018   3.508   5.021
 1443SOL    HW2 4704   0.162   3.445   5.064
 1444SOL     OW 4705   0.367   2.962   4.225
 1444SOL    HW1 4706   0.360   3.045   4.169
 1444SOL    HW2 4707   0.371   2.882   4.165
 1445SOL     OW 4708   0.566   2.399   4.589
 1445SOL    HW1 4709   0.578   2.465   4.515
 1445SOL    HW2 4710   0.612   2.433   4.672
 1446SOL     OW 4711   1.252   3.210   4.112
 1446SOL    HW1 4712   1.302   3.287   4.152
 1446SOL    HW2 4713   1.157   3.212   4.144
 1447SOL     OW 4714   1.272   3.307   4.866
 1447SOL    HW1 4715   1.319   3.320   4.953
 1447SOL    HW2 4716   1.206   3.233   4.875
 1448SOL     OW 4717   1.582   2.501   4.196
 1448SOL    HW1 4718   1.551   2.562   4.269
 1448SOL    HW2 4719   1.632   2.553   4.127
 1449SOL     OW 4720   0.354   3.372   5.053
 1449SOL    HW1 4721   0.333   3.328   4.966
 1449SOL    HW2 4722   0.451   3.398   5.056
 1450SOL     OW 4723   0.402   2.613   5.322
 1450SOL    HW1 4724   0.470   2.668   5.275
 1450SOL    HW2 4725   0.442   2.525   5.349
 1451SOL     OW 4726   1.587   2.641   5.394
 1451SOL    HW1 4727   1.495   2.679   5.389
 1451SOL    HW2 4728   1.647   2.688   5.329
 1452SOL     OW 4729   1.013   1.967   5.494
 1452SOL    HW1 4730   1.019   2.052   5.442
 1452SOL    HW2 4731   1.045   1.891   5.437
 1453SOL     OW 4732   0.504   1.912   5.464
 1453SOL    HW1 4733   0.462   1.855   5.394
 1453SOL    HW2 4734   0.438   1.981   5.496
 1454SOL     OW 4735   0.573   2.732   4.753
 1454SOL    HW1 4736   0.617   2.821   4.744
 1454SOL    HW2 4737   0.510   2.732   4.830
 1455SOL     OW 4738   1.360   2.724   4.769
 1455SOL    HW1 4739   1.285   2.724   4.703
 1455SOL    HW2 4740   1.397   2.632   4.778
 1456SOL     OW 4741   1.209   2.387   3.999
 1456SOL    HW1 4742   1.222   2.303   4.053
 1456SOL    HW2 4743   1.180   2.461   4.059
 1457SOL     OW 4744   0.307   2.075   4.955
 1457SOL    HW1 4745   0.284   2.112   5.045
 1457SOL    HW2 4746   0.277   1.980   4.949
 1458SOL     OW 4747   0.037   3.172   5.006
 1458SOL    HW1 4748   0.090   3.123   5.074
 1458SOL    HW2 4749   0.059   3.270   5.011
 1459SOL     OW 4750   0.732   2.496   4.788
 1459SOL    HW1 4751   0.791   2.470   4.712
 1459SOL    HW2 4752   0.704   2.592   4.777
 1460SOL     OW 4753   1.728   2.797   5.578
 1460SOL    HW1 4754   1.682   2.790   5.489
 1460SOL    HW2 4755   1.666   2.841   5.644
 1461SOL     OW 4756   0.307   1.925   4.342
 1461SOL    HW1 4757   0.296   2.019   4.375
 1461SOL    HW2 4758   0.302   1.862   4.419
 1462SOL     OW 4759   1.622   2.229   4.098
 1462SOL    HW1 4760   1.624   2.153   4.162
 1462SOL    HW2 4761   1.574   2.306   4.138
 1463SOL     OW 4762   1.023   2.628   4.690
 1463SOL    HW1 4763   1.038   2.649   4.786
 1463SOL    HW2 4764   0.993   2.533   4.681
 1464SOL     OW 4765   0.980   3.435   5.424
 1464SOL    HW1 4766   0.960   3.479   5.336
 1464SOL    HW2 4767   1.019   3.344   5.408
 1465SOL     OW 4768   1.859   3.380   5.329
 1465SOL    HW1 4769   1.873   3.407   5.234
 1465SOL    HW2 4770   1.942   3.402   5.382
 1466SOL     OW 4771   0.350   2.760   5.528
 1466SOL    HW1 4772   0.426   2.804   5.576
 1466SOL    HW2 4773   0.385   2.713   5.446
 1467SOL     OW 4774   1.540   2.136   3.849
 1467SOL    HW1 4775   1.479   2.061   3.872
 1467SOL    HW2 4776   1.562   2.188   3.932
 1468SOL     OW 4777   1.303   2.700   3.766
 1468SOL    HW1 4778   1.337   2.607   3.781
 1468SOL    HW2 4779   1.321   2.727   3.671
 1469SOL     OW 4780   1.068   3.195   4.573
 1469SOL    HW1 4781   1.075   3.111   4.518
 1469SOL    HW2 4782   1.130   3.264   4.537
 1470SOL     OW 4783   0.319   2.672   4.673
 1470SOL    HW1 4784   0.412   2.708   4.678
 1470SOL    HW2 4785   0.313   2.587   4.725
 1471SOL     OW 4786   0.339   2.371   4.730
 1471SOL    HW1 4787   0.287   2.288   4.713
 1471SOL    HW2 4788   0.416   2.376   4.666
 1472SOL     OW 4789   1.138   2.242   5.402
 1472SOL    HW1 4790   1.093   2.305   5.466
 1472SOL    HW2 4791   1.231   2.273   5.385
 1473SOL     OW 4792   1.160   2.069   5.201
 1473SOL    HW1 4793   1.160   2.133   5.278
 1473SOL    HW2 4794   1.188   2.117   5.118
 1474SOL     OW 4795   0.008   3.188   3.924
 1474SOL    HW1 4796  -0.085   3.209   3.893
 1474SOL    HW2 4797   0.018   3.089   3.937
 1475SOL     OW 4798   0.088   3.663   4.651
 1475SOL    HW1 4799   0.046   3.577   4.624
 1475SOL    HW2 4800   0.182   3.666   4.617
 1476SOL     OW 4801   0.504   3.430   4.634
 1476SOL    HW1 4802   0.570   3.504   4.643
 1476SOL    HW2 4803   0.548   3.351   4.592
 1477SOL     OW 4804   1.002   2.658   4.962
 1477SOL    HW1 4805   1.043   2.626   5.048
 1477SOL    HW2 4806   0.906   2.631   4.959
 1478SOL     OW 4807   0.040   2.406   4.838
 1478SOL    HW1 4808   0.125   2.373   4.797
 1478SOL    HW2 4809   0.053   2.421   4.936
 1479SOL     OW 4810   0.189   2.382   5.446
 1479SOL    HW1 4811   0.248   2.342   5.376
 1479SOL    HW2 4812   0.131   2.453   5.405
 1480SOL     OW 4813   1.369   2.812   5.384
 1480SOL    HW1 4814   1.408   2.901   5.404
 1480SOL    HW2 4815   1.379   2.792   5.287
 1481SOL     OW 4816   0.815   2.434   4.049
 1481SOL    HW1 4817   0.822   2.345   4.003
 1481SOL    HW2 4818   0.721   2.468   4.041
 1482SOL     OW 4819   1.657   2.466   4.930
 1482SOL    HW1 4820   1.619   2.397   4.992
 1482SOL    HW2 4821   1.739   2.430   4.886
 1483SOL     OW 4822   0.252   3.426   5.468
 1483SOL    HW1 4823   0.222   3.483   5.544
 1483SOL    HW2 4824   0.245   3.329   5.494
 1484SOL     OW 4825   0.671   2.326   4.993
 1484SOL    HW1 4826   0.637   2.237   4.963
 1484SOL    HW2 4827   0.697   2.380   4.913
 1485SOL     OW 4828   0.930   3.540   5.189
 1485SOL    HW1 4829   0.906   3.522   5.094
 1485SOL    HW2 4830   0.960   3.634   5.199
 1486SOL     OW 4831   0.473   2.362   3.915
 1486SOL    HW1 4832   0.534   2.442   3.919
 1486SOL    HW2 4833   0.378   2.393   3.922
 1487SOL     OW 4834   0.159   2.999   5.190
 1487SOL    HW1 4835   0.181   2.938   5.266
 1487SOL    HW2 4836   0.169   2.950   5.104
 1488SOL     OW 4837   1.347   2.921   4.958
 1488SOL    HW1 4838   1.371   2.858   4.884
 1488SOL    HW2 4839   1.257   2.961   4.940
 1489SOL     OW 4840   1.302   2.717   4.033
 1489SOL    HW1 4841   1.216   2.686   4.075
 1489SOL    HW2 4842   1.298   2.703   3.934
 1490SOL     OW 4843   1.759   3.609   4.878
 1490SOL    HW1 4844   1.820   3.639   4.805
 1490SOL    HW2 4845   1.721   3.520   4.856
 1491SOL     OW 4846   1.252   3.593   4.852
 1491SOL    HW1 4847   1.336   3.598   4.798
 1491SOL    HW2 4848   1.229   3.497   4.870
 1492SOL     OW 4849   0.083   3.120   4.746
 1492SOL    HW1 4850   0.078   3.119   4.846
 1492SOL    HW2 4851   0.000   3.079   4.708
 1493SOL     OW 4852   0.688   3.524   5.440
 1493SOL    HW1 4853   0.632   3.605   5.449
 1493SOL    HW2 4854   0.740   3.528   5.354
 1494SOL     OW 4855   1.726   1.997   4.247
 1494SOL    HW1 4856   1.799   1.980   4.180
 1494SOL    HW2 4857   1.695   1.910   4.285
 1495SOL     OW 4858   1.388   3.435   4.201
 1495SOL    HW1 4859   1.455   3.447   4.127
 1495SOL    HW2 4860   1.348   3.524   4.224
 1496SOL     OW 4861   0.130   3.656   5.575
 1496SOL    HW1 4862   0.089   3.582   5.628
 1496SOL    HW2 4863   0.194   3.707   5.633
 1497SOL     OW 4864   1.280   2.789   4.396
 1497SOL    HW1 4865   1.340   2.708   4.398
 1497SOL    HW2 4866   1.320   2.858   4.336
 1498SOL     OW 4867   0.830   3.135   5.146
 1498SOL    HW1 4868   0.825   3.168   5.241
 1498SOL    HW2 4869   0.744   3.154   5.100
 1499SOL     OW 4870   0.672   3.478   3.878
 1499SOL    HW1 4871   0.681   3.488   3.779
 1499SOL    HW2 4872   0.632   3.389   3.899
 1500SOL     OW 4873   1.650   3.582   5.118
 1500SOL    HW1 4874   1.703   3.592   5.034
 1500SOL    HW2 4875   1.623   3.672   5.152
 1501SOL     OW 4876   1.841   2.037   4.687
 1501SOL    HW1 4877   1.880   1.952   4.651
 1501SOL    HW2 4878   1.743   2.039   4.668
 1502SOL     OW 4879   0.263   2.188   4.444
 1502SOL    HW1 4880   0.184   2.239   4.410
 1502SOL    HW2 4881   0.254   2.173   4.542
 1503SOL     OW 4882   1.194   3.474   3.755
 1503SOL    HW1 4883   1.200   3.381   3.792
 1503SOL    HW2 4884   1.135   3.474   3.675
 1504SOL     OW 4885   0.822   2.864   5.096
 1504SOL    HW1 4886   0.862   2.863   5.004
 1504SOL    HW2 4887   0.832   2.956   5.136
 1505SOL     OW 4888   0.916   2.772   4.015
 1505SOL    HW1 4889   0.979   2.810   3.947
 1505SOL    HW2 4890   0.956   2.689   4.054
 1506SOL     OW 4891   1.504   3.469   3.768
 1506SOL    HW1 4892   1.412   3.506   3.775
 1506SOL    HW2 4893   1.542   3.489   3.678
 1507SOL     OW 4894   0.372   3.150   5.214
 1507SOL    HW1 4895   0.359   3.243   5.180
 1507SOL    HW2 4896   0.288   3.098   5.201
 1508SOL     OW 4897   1.614   3.154   5.013
 1508SOL    HW1 4898   1.674   3.157   5.093
 1508SOL    HW2 4899   1.539   3.218   5.026
 1509SOL     OW 4900   1.039   2.960   4.420
 1509SOL    HW1 4901   0.969   2.913   4.474
 1509SOL    HW2 4902   1.098   2.892   4.377
 1510SOL     OW 4903   1.014   2.098   4.695
 1510SOL    HW1 4904   1.006   2.062   4.602
 1510SOL    HW2 4905   1.012   2.022   4.760
 1511SOL     OW 4906   0.590   3.349   4.215
 1511SOL    HW1 4907   0.632   3.291   4.145
 1511SOL    HW2 4908   0.546   3.428   4.171
 1512SOL     OW 4909   1.709   2.247   5.105
 1512SOL    HW1 4910   1.782   2.316   5.109
 1512SOL    HW2 4911   1.737   2.172   5.046
 1513SOL     OW 4912   0.255   3.210   4.014
 1513SOL    HW1 4913   0.159   3.211   3.987
 1513SOL    HW2 4914   0.267   3.263   4.098
 1514SOL     OW 4915   0.105   2.875   5.450
 1514SOL    HW1 4916   0.028   2.842   5.504
 1514SOL    HW2 4917   0.190   2.845   5.492
 1515SOL     OW 4918   0.672   2.065   5.213
 1515SOL    HW1 4919   0.762   2.049   5.173
 1515SOL    HW2 4920   0.680   2.070   5.312
 1516SOL     OW 4921   0.075   2.207   3.757
 1516SOL    HW1 4922  -0.017   2.179   3.728
 1516SOL    HW2 4923   0.106   2.284   3.701
 1517SOL     OW 4924   1.440   2.718   5.122
 1517SOL    HW1 4925   1.383   2.770   5.059
 1517SOL    HW2 4926   1.536   2.730   5.098
 1518SOL     OW 4927   0.072   2.028   4.042
 1518SOL    HW1 4928   0.055   2.111   3.988
 1518SOL    HW2 4929   0.162   1.991   4.020
 1519SOL     OW 4930   1.183   3.197   3.843
 1519SOL    HW1 4931   1.084   3.186   3.845
 1519SOL    HW2 4932   1.217   3.212   3.936
 1520SOL     OW 4933   0.613   2.704   5.155
 1520SOL    HW1 4934   0.669   2.785   5.138
 1520SOL    HW2 4935   0.672   2.624   5.158
 1521SOL     OW 4936   1.493   3.629   4.683
 1521SOL    HW1 4937   1.526   3.693   4.614
 1521SOL    HW2 4938   1.559   3.623   4.758
 1522SOL     OW 4939   0.716   2.427   5.432
 1522SOL    HW1 4940   0.735   2.492   5.506
 1522SOL    HW2 4941   0.776   2.347   5.441
 1523SOL     OW 4942   1.450   3.082   5.357
 1523SOL    HW1 4943   1.441   3.072   5.456
 1523SOL    HW2 4944   1.546   3.075   5.331
 1524SOL     OW 4945   0.390   3.603   5.284
 1524SOL    HW1 4946   0.299   3.644   5.282
 1524SOL    HW2 4947   0.383   3.509   5.316
 1525SOL     OW 4948   1.674   2.745   4.978
 1525SOL    HW1 4949   1.647   2.656   4.941
 1525SOL    HW2 4950   1.675   2.813   4.905
 1526SOL     OW 4951   1.225   2.187   4.173
 1526SOL    HW1 4952   1.290   2.113   4.162
 1526SOL    HW2 4953   1.245   2.237   4.257
 1527SOL     OW 4954   0.594   2.607   4.376
 1527SOL    HW1 4955   0.644   2.692   4.357
 1527SOL    HW2 4956   0.506   2.609   4.328
 1528SOL     OW 4957   1.777   2.204   5.366
 1528SOL    HW1 4958   1.760   2.235   5.272
 1528SOL    HW2 4959   1.693   2.167   5.404
 1529SOL     OW 4960   1.730   2.796   5.241
 1529SOL    HW1 4961   1.768   2.887   5.256
 1529SOL    HW2 4962   1.722   2.779   5.142
 1530SOL     OW 4963   0.859   3.236   3.740
 1530SOL    HW1 4964   0.813   3.251   3.828
 1530SOL    HW2 4965   0.903   3.321   3.710
 1531SOL     OW 4966   0.661   3.652   4.677
 1531SOL    HW1 4967   0.615   3.740   4.664
 1531SOL    HW2 4968   0.760   3.664   4.670
 1532SOL     OW 4969   0.859   2.818   4.585
 1532SOL    HW1 4970   0.913   2.749   4.633
 1532SOL    HW2 4971   0.827   2.887   4.651
 1533SOL     OW 4972   1.083   2.846   3.811
 1533SOL    HW1 4973   1.060   2.899   3.729
 1533SOL    HW2 4974   1.164   2.790   3.792
 1534SOL     OW 4975   1.861   3.431   4.575
 1534SOL    HW1 4976   1.790   3.419   4.505
 1534SOL    HW2 4977   1.862   3.352   4.635
 1535SOL     OW 4978   0.221   3.176   5.568
 1535SOL    HW1 4979   0.156   3.103   5.547
 1535SOL    HW2 4980   0.225   3.190   5.666
 1536SOL     OW 4981   0.079   3.102   4.377
 1536SOL    HW1 4982   0.078   3.055   4.465
 1536SOL    HW2 4983   0.161   3.074   4.326
 1537SOL     OW 4984   0.672   3.253   5.348
 1537SOL    HW1 4985   0.594   3.203   5.386
 1537SOL    HW2 4986   0.669   3.348   5.379
 1538SOL     OW 4987   1.824   2.054   4.951
 1538SOL    HW1 4988   1.820   1.964   4.995
 1538SOL    HW2 4989   1.827   2.043   4.852
 1539SOL     OW 4990   0.428   2.286   4.244
 1539SOL    HW1 4991   0.458   2.214   4.182
 1539SOL    HW2 4992   0.389   2.246   4.327
 1540SOL     OW 4993   1.705   3.349   4.828
 1540SOL    HW1 4994   1.612   3.324   4.801
 1540SOL    HW2 4995   1.731   3.299   4.910
 1541SOL     OW 4996   0.317   2.409   5.004
 1541SOL    HW1 4997   0.355   2.350   5.076
 1541SOL    HW2 4998   0.357   2.383   4.916
 1542SOL     OW 4999   0.812   3.448   4.411
 1542SOL    HW1 5000   0.844   3.458   4.317
 1542SOL    HW2 5001   0.733   3.386   4.413
 1543SOL     OW 5002   1.424   2.076   4.836
 1543SOL    HW1 5003   1.476   2.011   4.891
 1543SOL    HW2 5004   1.375   2.139   4.897
 1544SOL     OW 5005   1.001   1.896   4.878
 1544SOL    HW1 5006   0.938   1.824   4.847
 1544SOL    HW2 5007   1.094   1.860   4.878
 1545SOL     OW 5008   0.770   3.192   4.025
 1545SOL    HW1 5009   0.724   3.105   4.042
 1545SOL    HW2 5010   0.861   3.189   4.066
 1546SOL     OW 5011   0.618   3.429   5.008
 1546SOL    HW1 5012   0.613   3.511   5.065
 1546SOL    HW2 5013   0.707   3.426   4.963
 1547SOL     OW 5014   1.352   1.914   3.892
 1547SOL    HW1 5015   1.387   1.873   3.808
 1547SOL    HW2 5016   1.262   1.876   3.912
 1548SOL     OW 5017   1.300   2.315   4.415
 1548SOL    HW1 5018   1.241   2.395   4.419
 1548SOL    HW2 5019   1.315   2.280   4.508
 1549SOL     OW 5020   1.593   2.083   4.606
 1549SOL    HW1 5021   1.509   2.082   4.660
 1549SOL    HW2 5022   1.595   2.166   4.550
 1550SOL     OW 5023   0.039   2.939   4.024
 1550SOL    HW1 5024   0.138   2.928   4.015
 1550SOL    HW2 5025  -0.001   2.853   4.056
 1551SOL     OW 5026   0.875   3.508   4.061
 1551SOL    HW1 5027   0.798   3.473   4.007
 1551SOL    HW2 5028   0.843   3.579   4.123
 1552SOL     OW 5029   0.230   2.490   5.699
 1552SOL    HW1 5030   0.137   2.488   5.736
 1552SOL    HW2 5031   0.231   2.451   5.607
 1553SOL     OW 5032   0.225   2.137   6.582
 1553SOL    HW1 5033   0.260   2.120   6.674
 1553SOL    HW2 5034   0.137   2.092   6.570
 1554SOL     OW 5035   0.019   2.230   6.233
 1554SOL    HW1 5036  -0.063   2.273   6.272
 1554SOL    HW2 5037  -0.009   2.157   6.170
 1555SOL     OW 5038   0.569   3.137   6.751
 1555SOL    HW1 5039   0.476   3.130   6.714
 1555SOL    HW2 5040   0.580   3.226   6.795
 1556SOL     OW 5041   1.555   3.373   6.289
 1556SOL    HW1 5042   1.498   3.357   6.370
 1556SOL    HW2 5043   1.496   3.383   6.209
 1557SOL     OW 5044   1.135   2.565   6.303
 1557SOL    HW1 5045   1.192   2.643   6.278
 1557SOL    HW2 5046   1.075   2.591   6.379
 1558SOL     OW 5047   1.755   2.469   5.817
 1558SOL    HW1 5048   1.743   2.456   5.718
 1558SOL    HW2 5049   1.725   2.388   5.866
 1559SOL     OW 5050   0.768   3.006   6.609
 1559SOL    HW1 5051   0.690   3.023   6.669
 1559SOL    HW2 5052   0.802   3.093   6.573
 1560SOL     OW 5053   0.850   2.660   7.409
 1560SOL    HW1 5054   0.846   2.736   7.474
 1560SOL    HW2 5055   0.872   2.696   7.318
 1561SOL     OW 5056   0.685   2.874   6.251
 1561SOL    HW1 5057   0.754   2.858   6.321
 1561SOL    HW2 5058   0.612   2.931   6.289
 1562SOL     OW 5059   0.686   3.023   7.389
 1562SOL    HW1 5060   0.746   3.102   7.403
 1562SOL    HW2 5061   0.600   3.054   7.348
 1563SOL     OW 5062   0.335   3.297   6.647
 1563SOL    HW1 5063   0.257   3.266   6.594
 1563SOL    HW2 5064   0.393   3.355   6.590
 1564SOL     OW 5065   1.460   3.367   6.925
 1564SOL    HW1 5066   1.484   3.461   6.951
 1564SOL    HW2 5067   1.444   3.313   7.007
 1565SOL     OW 5068   0.438   2.254   7.085
 1565SOL    HW1 5069   0.520   2.198   7.094
 1565SOL    HW2 5070   0.357   2.196   7.089
 1566SOL     OW 5071   1.603   2.309   6.323
 1566SOL    HW1 5072   1.529   2.355   6.273
 1566SOL    HW2 5073   1.654   2.377   6.376
 1567SOL     OW 5074   0.231   3.575   6.069
 1567SOL    HW1 5075   0.265   3.652   6.123
 1567SOL    HW2 5076   0.275   3.575   5.979
 1568SOL     OW 5077   1.127   3.203   7.276
 1568SOL    HW1 5078   1.174   3.203   7.364
 1568SOL    HW2 5079   1.079   3.116   7.265
 1569SOL     OW 5080   0.230   3.296   6.124
 1569SOL    HW1 5081   0.204   3.392   6.124
 1569SOL    HW2 5082   0.159   3.242   6.169
 1570SOL     OW 5083   0.240   2.953   6.472
 1570SOL    HW1 5084   0.254   2.869   6.524
 1570SOL    HW2 5085   0.185   3.017   6.527
 1571SOL     OW 5086   0.620   3.648   7.025
 1571SOL    HW1 5087   0.528   3.631   7.060
 1571SOL    HW2 5088   0.648   3.740   7.051
 1572SOL     OW 5089   0.606   2.826   5.709
 1572SOL    HW1 5090   0.613   2.910   5.655
 1572SOL    HW2 5091   0.652   2.839   5.797
 1573SOL     OW 5092   1.594   1.976   7.066
 1573SOL    HW1 5093   1.576   2.043   6.994
 1573SOL    HW2 5094   1.591   2.022   7.155
 1574SOL     OW 5095   0.122   2.505   6.149
 1574SOL    HW1 5096   0.077   2.417   6.166
 1574SOL    HW2 5097   0.121   2.559   6.233
 1575SOL     OW 5098   1.842   3.629   5.945
 1575SOL    HW1 5099   1.896   3.600   6.025
 1575SOL    HW2 5100   1.872   3.719   5.916
 1576SOL     OW 5101   0.027   3.458   5.703
 1576SOL    HW1 5102   0.008   3.362   5.724
 1576SOL    HW2 5103  -0.006   3.516   5.778
 1577SOL     OW 5104   1.689   2.784   6.198
 1577SOL    HW1 5105   1.784   2.755   6.206
 1577SOL    HW2 5106   1.681   2.849   6.123
 1578SOL     OW 5107   1.641   2.970   6.018
 1578SOL    HW1 5108   1.727   2.972   5.966
 1578SOL    HW2 5109   1.655   3.017   6.106
 1579SOL     OW 5110   0.113   2.599   7.183
 1579SOL    HW1 5111   0.201   2.586   7.228
 1579SOL    HW2 5112   0.100   2.696   7.161
 1580SOL     OW 5113   0.613   3.227   6.312
 1580SOL    HW1 5114   0.564   3.140   6.321
 1580SOL    HW2 5115   0.590   3.270   6.225
 1581SOL     OW 5116   1.293   3.090   7.009
 1581SOL    HW1 5117   1.330   3.017   6.951
 1581SOL    HW2 5118   1.345   3.095   7.094
 1582SOL     OW 5119   0.809   1.866   6.088
 1582SOL    HW1 5120   0.849   1.957   6.079
 1582SOL    HW2 5121   0.709   1.874   6.094
 1583SOL     OW 5122   0.197   2.838   6.850
 1583SOL    HW1 5123   0.286   2.793   6.836
 1583SOL    HW2 5124   0.124   2.773   6.831
 1584SOL     OW 5125   1.525   2.861   5.776
 1584SOL    HW1 5126   1.462   2.785   5.789
 1584SOL    HW2 5127   1.573   2.879   5.862
 1585SOL     OW 5128   1.187   3.654   7.202
 1585SOL    HW1 5129   1.211   3.714   7.126
 1585SOL    HW2 5130   1.194   3.559   7.172
 1586SOL     OW 5131   0.317   2.113   7.387
 1586SOL    HW1 5132   0.388   2.184   7.393
 1586SOL    HW2 5133   0.229   2.152   7.415
 1587SOL     OW 5134   1.466   3.279   6.539
 1587SOL    HW1 5135   1.407   3.285   6.619
 1587SOL    HW2 5136   1.451   3.191   6.493
 1588SOL     OW 5137   1.667   3.576   6.158
 1588SOL    HW1 5138   1.626   3.553   6.070
 1588SOL    HW2 5139   1.649   3.502   6.223
 1589SOL     OW 5140   0.598   2.591   5.856
 1589SOL    HW1 5141   0.622   2.660   5.788
 1589SOL    HW2 5142   0.520   2.624   5.910
 1590SOL     OW 5143   1.281   2.207   6.530
 1590SOL    HW1 5144   1.195   2.157   6.517
 1590SOL    HW2 5145   1.343   2.153   6.586
 1591SOL     OW 5146   1.576   3.524   5.893
 1591SOL    HW1 5147   1.665   3.570   5.896
 1591SOL    HW2 5148   1.555   3.500   5.798
 1592SOL     OW 5149   0.807   2.467   7.051
 1592SOL    HW1 5150   0.760   2.464   7.140
 1592SOL    HW2 5151   0.756   2.412   6.985
 1593SOL     OW 5152   1.394   2.331   7.260
 1593SOL    HW1 5153   1.374   2.374   7.348
 1593SOL    HW2 5154   1.472   2.269   7.269
 1594SOL     OW 5155   0.973   2.752   7.158
 1594SOL    HW1 5156   1.019   2.668   7.129
 1594SOL    HW2 5157   0.917   2.786   7.083
 1595SOL     OW 5158   0.991   2.272   6.828
 1595SOL    HW1 5159   0.914   2.306   6.882
 1595SOL    HW2 5160   0.957   2.221   6.749
 1596SOL     OW 5161   1.041   2.563   6.015
 1596SOL    HW1 5162   1.067   2.559   6.111
 1596SOL    HW2 5163   0.956   2.512   6.001
 1597SOL     OW 5164   0.076   2.673   6.375
 1597SOL    HW1 5165   0.175   2.661   6.384
 1597SOL    HW2 5166   0.052   2.768   6.396
 1598SOL     OW 5167   0.130   3.683   7.157
 1598SOL    HW1 5168   0.120   3.668   7.256
 1598SOL    HW2 5169   0.044   3.719   7.121
 1599SOL     OW 5170   0.865   2.210   5.781
 1599SOL    HW1 5171   0.924   2.273   5.732
 1599SOL    HW2 5172   0.884   2.116   5.752
 1600SOL     OW 5173   1.719   2.447   7.417
 1600SOL    HW1 5174   1.693   2.536   7.381
 1600SOL    HW2 5175   1.717   2.379   7.344
 1601SOL     OW 5176   1.362   3.006   6.131
 1601SOL    HW1 5177   1.445   2.977   6.083
 1601SOL    HW2 5178   1.313   3.073   6.075
 1602SOL     OW 5179   0.550   2.058   6.471
 1602SOL    HW1 5180   0.545   2.053   6.571
 1602SOL    HW2 5181   0.552   2.154   6.442
 1603SOL     OW 5182   1.008   3.318   6.063
 1603SOL    HW1 5183   0.962   3.390   6.011
 1603SOL    HW2 5184   1.004   3.338   6.161
 1604SOL     OW 5185   0.351   3.663   6.439
 1604SOL    HW1 5186   0.401   3.577   6.445
 1604SOL    HW2 5187   0.416   3.740   6.436
 1605SOL     OW 5188   1.795   2.928   6.459
 1605SOL    HW1 5189   1.733   2.913   6.383
 1605SOL    HW2 5190   1.743   2.939   6.544
 1606SOL     OW 5191   1.227   3.412   7.092
 1606SOL    HW1 5192   1.233   3.335   7.156
 1606SOL    HW2 5193   1.175   3.386   7.012
 1607SOL     OW 5194   0.321   2.805   5.828
 1607SOL    HW1 5195   0.403   2.844   5.786
 1607SOL    HW2 5196   0.294   2.723   5.779
 1608SOL     OW 5197   1.458   2.597   6.314
 1608SOL    HW1 5198   1.453   2.532   6.389
 1608SOL    HW2 5199   1.538   2.656   6.327
 1609SOL     OW 5200   0.461   3.128   7.313
 1609SOL    HW1 5201   0.411   3.129   7.227
 1609SOL    HW2 5202   0.398   3.110   7.389
 1610SOL     OW 5203   1.111   3.638   5.823
 1610SOL    HW1 5204   1.051   3.576   5.873
 1610SOL    HW2 5205   1.142   3.594   5.738
 1611SOL     OW 5206   0.202   2.147   7.084
 1611SOL    HW1 5207   0.122   2.207   7.071
 1611SOL    HW2 5208   0.192   2.098   7.170
 1612SOL     OW 5209   1.632   3.239   5.667
 1612SOL    HW1 5210   1.600   3.333   5.657
 1612SOL    HW2 5211   1.556   3.176   5.655
 1613SOL     OW 5212   0.464   3.605   5.909
 1613SOL    HW1 5213   0.497   3.644   5.995
 1613SOL    HW2 5214   0.540   3.598   5.844
 1614SOL     OW 5215   1.400   1.969   6.012
 1614SOL    HW1 5216   1.376   1.932   5.922
 1614SOL    HW2 5217   1.499   1.985   6.016
 1615SOL     OW 5218   0.249   3.647   6.827
 1615SOL    HW1 5219   0.306   3.582   6.877
 1615SOL    HW2 5220   0.233   3.614   6.734
 1616SOL     OW 5221   0.940   3.560   6.490
 1616SOL    HW1 5222   1.020   3.503   6.511
 1616SOL    HW2 5223   0.891   3.520   6.413
 1617SOL     OW 5224   0.382   2.562   6.066
 1617SOL    HW1 5225   0.427   2.472   6.063
 1617SOL    HW2 5226   0.288   2.551   6.099
 1618SOL     OW 5227   1.547   2.084   7.315
 1618SOL    HW1 5228   1.542   2.121   7.407
 1618SOL    HW2 5229   1.475   2.015   7.303
 1619SOL     OW 5230   0.614   1.984   5.703
 1619SOL    HW1 5231   0.712   1.962   5.710
 1619SOL    HW2 5232   0.583   1.967   5.610
 1620SOL     OW 5233   0.781   2.126   7.335
 1620SOL    HW1 5234   0.848   2.065   7.378
 1620SOL    HW2 5235   0.708   2.145   7.400
 1621SOL     OW 5236   0.888   3.376   6.781
 1621SOL    HW1 5237   0.865   3.351   6.687
 1621SOL    HW2 5238   0.949   3.307   6.820
 1622SOL     OW 5239   1.351   2.452   7.019
 1622SOL    HW1 5240   1.379   2.409   7.104
 1622SOL    HW2 5241   1.376   2.548   7.020
 1623SOL     OW 5242   0.803   3.264   6.510
 1623SOL    HW1 5243   0.893   3.278   6.468
 1623SOL    HW2 5244   0.732   3.266   6.439
 1624SOL     OW 5245   0.922   2.365   6.485
 1624SOL    HW1 5246   0.897   2.356   6.389
 1624SOL    HW2 5247   0.970   2.283   6.516
 1625SOL     OW 5248   0.539   1.926   6.098
 1625SOL    HW1 5249   0.458   1.927   6.156
 1625SOL    HW2 5250   0.542   2.009   6.043
 1626SOL     OW 5251   1.434   3.050   5.627
 1626SOL    HW1 5252   1.466   2.974   5.684
 1626SOL    HW2 5253   1.342   3.077   5.657
 1627SOL     OW 5254   0.297   1.897   5.757
 1627SOL    HW1 5255   0.346   1.981   5.736
 1627SOL    HW2 5256   0.359   1.832   5.802
 1628SOL     OW 5257   0.935   2.098   6.066
 1628SOL    HW1 5258   0.887   2.139   5.988
 1628SOL    HW2 5259   1.034   2.096   6.047
 1629SOL     OW 5260   1.076   2.545   7.050
 1629SOL    HW1 5261   0.996   2.484   7.053
 1629SOL    HW2 5262   1.157   2.492   7.026
 1630SOL     OW 5263   1.227   3.432   6.379
 1630SOL    HW1 5264   1.248   3.506   6.314
 1630SOL    HW2 5265   1.295   3.432   6.452
 1631SOL     OW 5266   0.459   3.014   6.327
 1631SOL    HW1 5267   0.388   2.987   6.392
 1631SOL    HW2 5268   0.433   2.986   6.234
 1632SOL     OW 5269   1.271   3.659   6.177
 1632SOL    HW1 5270   1.315   3.723   6.113
 1632SOL    HW2 5271   1.221   3.711   6.247
 1633SOL     OW 5272   1.032   2.411   5.602
 1633SOL    HW1 5273   0.991   2.493   5.563
 1633SOL    HW2 5274   1.096   2.437   5.675
 1634SOL     OW 5275   0.078   2.418   6.972
 1634SOL    HW1 5276   0.170   2.417   6.931
 1634SOL    HW2 5277   0.072   2.492   7.039
 1635SOL     OW 5278   0.561   2.084   6.733
 1635SOL    HW1 5279   0.599   2.000   6.770
 1635SOL    HW2 5280   0.473   2.103   6.777
 1636SOL     OW 5281   0.866   2.316   6.228
 1636SOL    HW1 5282   0.834   2.388   6.166
 1636SOL    HW2 5283   0.890   2.235   6.175
 1637SOL     OW 5284   1.017   1.901   6.339
 1637SOL    HW1 5285   0.945   1.906   6.270
 1637SOL    HW2 5286   0.993   1.832   6.408
 1638SOL     OW 5287   1.429   3.035   6.453
 1638SOL    HW1 5288   1.374   2.951   6.446
 1638SOL    HW2 5289   1.455   3.064   6.361
 1639SOL     OW 5290   1.466   2.452   6.578
 1639SOL    HW1 5291   1.436   2.357   6.585
 1639SOL    HW2 5292   1.539   2.468   6.644
 1640SOL     OW 5293   1.857   2.695   5.963
 1640SOL    HW1 5294   1.899   2.631   6.027
 1640SOL    HW2 5295   1.819   2.644   5.885
 1641SOL     OW 5296   0.488   3.247   5.760
 1641SOL    HW1 5297   0.401   3.232   5.807
 1641SOL    HW2 5298   0.471   3.273   5.665
 1642SOL     OW 5299   1.664   3.142   6.243
 1642SOL    HW1 5300   1.763   3.150   6.257
 1642SOL    HW2 5301   1.619   3.226   6.274
 1643SOL     OW 5302   1.390   2.437   5.664
 1643SOL    HW1 5303   1.336   2.416   5.745
 1643SOL    HW2 5304   1.481   2.396   5.673
 1644SOL     OW 5305   0.527   2.118   5.914
 1644SOL    HW1 5306   0.554   2.059   5.839
 1644SOL    HW2 5307   0.527   2.213   5.883
 1645SOL     OW 5308   1.754   3.085   7.174
 1645SOL    HW1 5309   1.845   3.046   7.161
 1645SOL    HW2 5310   1.762   3.181   7.198
 1646SOL     OW 5311   1.064   3.209   6.926
 1646SOL    HW1 5312   0.984   3.186   6.981
 1646SOL    HW2 5313   1.147   3.183   6.975
 1647SOL     OW 5314   1.592   3.491   7.211
 1647SOL    HW1 5315   1.619   3.525   7.121
 1647SOL    HW2 5316   1.671   3.453   7.257
 1648SOL     OW 5317   1.111   3.057   6.686
 1648SOL    HW1 5318   1.071   3.101   6.767
 1648SOL    HW2 5319   1.070   3.094   6.603
 1649SOL     OW 5320   1.638   2.961   6.665
 1649SOL    HW1 5321   1.643   3.042   6.724
 1649SOL    HW2 5322   1.552   2.963   6.614
 1650SOL     OW 5323   0.915   1.951   6.988
 1650SOL    HW1 5324   0.940   1.931   6.893
 1650SOL    HW2 5325   0.987   2.007   7.030
 1651SOL     OW 5326   0.980   2.978   7.305
 1651SOL    HW1 5327   0.881   2.984   7.315
 1651SOL    HW2 5328   1.003   2.898   7.249
 1652SOL     OW 5329   0.705   2.912   5.954
 1652SOL    HW1 5330   0.691   2.919   6.053
 1652SOL    HW2 5331   0.789   2.861   5.936
 1653SOL     OW 5332   0.410   2.675   6.837
 1653SOL    HW1 5333   0.496   2.687   6.887
 1653SOL    HW2 5334   0.368   2.588   6.864
 1654SOL     OW 5335   1.274   2.248   6.848
 1654SOL    HW1 5336   1.295   2.322   6.912
 1654SOL    HW2 5337   1.185   2.265   6.805
 1655SOL     OW 5338   0.064   3.426   6.917
 1655SOL    HW1 5339   0.018   3.508   6.883
 1655SOL    HW2 5340   0.162   3.445   6.926
 1656SOL     OW 5341   0.367   2.962   6.087
 1656SOL    HW1 5342   0.360   3.045   6.031
 1656SOL    HW2 5343   0.371   2.882   6.027
 1657SOL     OW 5344   0.566   2.399   6.451
 1657SOL    HW1 5345   0.578   2.465   6.377
 1657SOL    HW2 5346   0.612   2.433   6.534
 1658SOL     OW 5347   1.252   3.210   5.974
 1658SOL    HW1 5348   1.302   3.287   6.014
 1658SOL    HW2 5349   1.157   3.212   6.006
 1659SOL     OW 5350   1.272   3.307   6.728
 1659SOL    HW1 5351   1.319   3.320   6.815
 1659SOL    HW2 5352   1.206   3.233   6.737
 1660SOL     OW 5353   1.582   2.501   6.058
 1660SOL    HW1 5354   1.551   2.562   6.131
 1660SOL    HW2 5355   1.632   2.553   5.989
 1661SOL     OW 5356   0.354   3.372   6.915
 1661SOL    HW1 5357   0.333   3.328   6.828
 1661SOL    HW2 5358   0.451   3.398   6.918
 1662SOL     OW 5359   0.402   2.613   7.184
 1662SOL    HW1 5360   0.470   2.668   7.137
 1662SOL    HW2 5361   0.442   2.525   7.211
 1663SOL     OW 5362   1.587   2.641   7.256
 1663SOL    HW1 5363   1.495   2.679   7.251
 1663SOL    HW2 5364   1.647   2.688   7.191
 1664SOL     OW 5365   1.013   1.967   7.356
 1664SOL    HW1 5366   1.019   2.052   7.304
 1664SOL    HW2 5367   1.045   1.891   7.299
 1665SOL     OW 5368   0.504   1.912   7.326
 1665SOL    HW1 5369   0.462   1.855   7.256
 1665SOL    HW2 5370   0.438   1.981   7.358
 1666SOL     OW 5371   0.573   2.732   6.615
 1666SOL    HW1 5372   0.617   2.821   6.606
 1666SOL    HW2 5373   0.510   2.732   6.692
 1667SOL     OW 5374   1.360   2.724   6.631
 1667SOL    HW1 5375   1.285   2.724   6.565
 1667SOL    HW2 5376   1.397   2.632   6.640
 1668SOL     OW 5377   1.209   2.387   5.861
 1668SOL    HW1 5378   1.222   2.303   5.915
 1668SOL    HW2 5379   1.180   2.461   5.921
 1669SOL     OW 5380   0.307   2.075   6.817
 1669SOL    HW1 5381   0.284   2.112   6.907
 1669SOL    HW2 5382   0.277   1.980   6.811
 1670SOL     OW 5383   0.037   3.172   6.868
 1670SOL    HW1 5384   0.090   3.123   6.936
 1670SOL    HW2 5385   0.059   3.270   6.873
 1671SOL     OW 5386   0.732   2.496   6.650
 1671SOL    HW1 5387   0.791   2.470   6.574
 1671SOL    HW2 5388   0.704   2.592   6.639
 1672SOL     OW 5389   1.728   2.797   7.440
 1672SOL    HW1 5390   1.682   2.790   7.351
 1672SOL    HW2 5391   1.666   2.841   7.506
 1673SOL     OW 5392   0.307   1.925   6.204
 1673SOL    HW1 5393   0.296   2.019   6.237
 1673SOL    HW2 5394   0.302   1.862   6.281
 1674SOL     OW 5395   1.622   2.229   5.960
 1674SOL    HW1 5396   1.624   2.153   6.024
 1674SOL    HW2 5397   1.574   2.306   6.000
 1675SOL     OW 5398   1.023   2.628   6.552
 1675SOL    HW1 5399   1.038   2.649   6.648
 1675SOL    HW2 5400   0.993   2.533   6.543
 1676SOL     OW 5401   0.980   3.435   7.286
 1676SOL    HW1 5402   0.960   3.479   7.198
 1676SOL    HW2 5403   1.019   3.344   7.270
 1677SOL     OW 5404   1.859   3.380   7.191
 1677SOL    HW1 5405   1.873   3.407   7.096
 1677SOL    HW2 5406   1.942   3.402   7.244
 1678SOL     OW 5407   0.350   2.760   7.390
 1678SOL    HW1 5408   0.426   2.804   7.438
 1678SOL    HW2 5409   0.385   2.713   7.308
 1679SOL     OW 5410   1.540   2.136   5.711
 1679SOL    HW1 5411   1.479   2.061   5.734
 1679SOL    HW2 5412   1.562   2.188   5.794
 1680SOL     OW 5413   1.303   2.700   5.628
 1680SOL    HW1 5414   1.337   2.607   5.643
 1680SOL    HW2 5415   1.321   2.727   5.533
 1681SOL     OW 5416   1.068   3.195   6.435
 1681SOL    HW1 5417   1.075   3.111   6.380
 1681SOL    HW2 5418   1.130   3.264   6.399
 1682SOL     OW 5419   0.319   2.672   6.535
 1682SOL    HW1 5420   0.412   2.708   6.540
 1682SOL    HW2 5421   0.313   2.587   6.587
 1683SOL     OW 5422   0.339   2.371   6.592
 1683SOL    HW1 5423   0.287   2.288   6.575
 1683SOL    HW2 5424   0.416   2.376   6.528
 1684SOL     OW 5425   1.138   2.242   7.264
 1684SOL    HW1 5426   1.093   2.305   7.328
 1684SOL    HW2 5427   1.231   2.273   7.247
 1685SOL     OW 5428   1.160   2.069   7.063
 1685SOL    HW1 5429   1.160   2.133   7.140
 1685SOL    HW2 5430   1.188   2.117   6.980
 1686SOL     OW 5431   0.008   3.188   5.786
 1686SOL    HW1 5432  -0.085   3.209   5.755
 1686SOL    HW2 5433   0.018   3.089   5.799
 1687SOL     OW 5434   0.088   3.663   6.513
 1687SOL    HW1 5435   0.046   3.577   6.486
 1687SOL    HW2 5436   0.182   3.666   6.479
 1688SOL     OW 5437   0.504   3.430   6.496
 1688SOL    HW1 5438   0.570   3.504   6.505
 1688SOL    HW2 5439   0.548   3.351   6.454
 1689SOL     OW 5440   1.002   2.658   6.824
 1689SOL    HW1 5441   1.043   2.626   6.910
 1689SOL    HW2 5442   0.906   2.631   6.821
 1690SOL     OW 5443   0.040   2.406   6.700
 1690SOL    HW1 5444   0.125   2.373   6.659
 1690SOL    HW2 5445   0.053   2.421   6.798
 1691SOL     OW 5446   0.189   2.382   7.308
 1691SOL    HW1 5447   0.248   2.342   7.238
 1691SOL    HW2 5448   0.131   2.453   7.267
 1692SOL     OW 5449   1.369   2.812   7.246
 1692SOL    HW1 5450   1.408   2.901   7.266
 1692SOL    HW2 5451   1.379   2.792   7.149
 1693SOL     OW 5452   0.815   2.434   5.911
 1693SOL    HW1 5453   0.822   2.345   5.865
 1693SOL    HW2 5454   0.721   2.468   5.903
 1694SOL     OW 5455   1.657   2.466   6.792
 1694SOL    HW1 5456   1.619   2.397   6.854
 1694SOL    HW2 5457   1.739   2.430   6.748
 1695SOL     OW 5458   0.252   3.426   7.330
 1695SOL    HW1 5459   0.222   3.483   7.406
 1695SOL    HW2 5460   0.245   3.329   7.356
 1696SOL     OW 5461   0.671   2.326   6.855
 1696SOL    HW1 5462   0.637   2.237   6.825
 1696SOL    HW2 5463   0.697   2.380   6.775
 1697SOL     OW 5464   0.930   3.540   7.051
 1697SOL    HW1 5465   0.906   3.522   6.956
 1697SOL    HW2 5466   0.960   3.634   7.061
 1698SOL     OW 5467   0.473   2.362   5.777
 1698SOL    HW1 5468   0.534   2.442   5.781
 1698SOL    HW2 5469   0.378   2.393   5.784
 1699SOL     OW 5470   0.159   2.999   7.052
 1699SOL    HW1 5471   0.181   2.938   7.128
 1699SOL    HW2 5472   0.169   2.950   6.966
 1700SOL     OW 5473   1.347   2.921   6.820
 1700SOL    HW1 5474   1.371   2.858   6.746
 1700SOL    HW2 5475   1.257   2.961   6.802
 1701SOL     OW 5476   1.302   2.717   5.895
 1701SOL    HW1 5477   1.216   2.686   5.937
 1701SOL    HW2 5478   1.298   2.703   5.796
 1702SOL     OW 5479   1.759   3.609   6.740
 1702SOL    HW1 5480   1.820   3.639   6.667
 1702SOL    HW2 5481   1.721   3.520   6.718
 1703SOL     OW 5482   1.252   3.593   6.714
 1703SOL    HW1 5483   1.336   3.598   6.660
 1703SOL    HW2 5484   1.229   3.497   6.732
 1704SOL     OW 5485   0.083   3.120   6.608
 1704SOL    HW1 5486   0.078   3.119   6.708
 1704SOL    HW2 5487   0.000   3.079   6.570
 1705SOL     OW 5488   0.688   3.524   7.302
 1705SOL    HW1 5489   0.632   3.605   7.311
 1705SOL    HW2 5490   0.740   3.528   7.216
 1706SOL     OW 5491   1.726   1.997   6.109
 1706SOL    HW1 5492   1.799   1.980   6.042
 1706SOL    HW2 5493   1.695   1.910   6.147
 1707SOL     OW 5494   1.388   3.435   6.063
 1707SOL    HW1 5495   1.455   3.447   5.989
 1707SOL    HW2 5496   1.348   3.524   6.086
 1708SOL     OW 5497   0.130   3.656   7.437
 1708SOL    HW1 5498   0.089   3.582   7.490
 1708SOL    HW2 5499   0.194   3.707   7.495
 1709SOL     OW 5500   1.280   2.789   6.258
 1709SOL    HW1 5501   1.340   2.708   6.260
 1709SOL    HW2 5502   1.320   2.858   6.198
 1710SOL     OW 5503   0.830   3.135   7.008
 1710SOL    HW1 5504   0.825   3.168   7.103
 1710SOL    HW2 5505   0.744   3.154   6.962
 1711SOL     OW 5506   0.672   3.478   5.740
 1711SOL    HW1 5507   0.681   3.488   5.641
 1711SOL    HW2 5508   0.632   3.389   5.761
 1712SOL     OW 5509   1.650   3.582   6.980
 1712SOL    HW1 5510   1.703   3.592   6.896
 1712SOL    HW2 5511   1.623   3.672   7.014
 1713SOL     OW 5512   1.841   2.037   6.549
 1713SOL    HW1 5513   1.880   1.952   6.513
 1713SOL    HW2 5514   1.743   2.039   6.530
 1714SOL     OW 5515   0.263   2.188   6.306
 1714SOL    HW1 5516   0.184   2.239   6.272
 1714SOL    HW2 5517   0.254   2.173   6.404
 1715SOL     OW 5518   1.194   3.474   5.617
 1715SOL    HW1 5519   1.200   3.381   5.654
 1715SOL    HW2 5520   1.135   3.474   5.537
 1716SOL     OW 5521   0.822   2.864   6.958
 1716SOL    HW1 5522   0.862   2.863   6.866
 1716SOL    HW2 5523   0.832   2.956   6.998
 1717SOL     OW 5524   0.916   2.772   5.877
 1717SOL    HW1 5525   0.979   2.810   5.809
 1717SOL    HW2 5526   0.956   2.689   5.916
 1718SOL     OW 5527   1.504   3.469   5.630
 1718SOL    HW1 5528   1.412   3.506   5.637
 1718SOL    HW2 5529   1.542   3.489   5.540
 1719SOL     OW 5530   0.372   3.150   7.076
 1719SOL    HW1 5531   0.359   3.243   7.042
 1719SOL    HW2 5532   0.288   3.098   7.063
 1720SOL     OW 5533   1.614   3.154   6.875
 1720SOL    HW1 5534   1.674   3.157   6.955
 1720SOL    HW2 5535   1.539   3.218   6.888
 1721SOL     OW 5536   1.039   2.960   6.282
 1721SOL    HW1 5537   0.969   2.913   6.336
 1721SOL    HW2 5538   1.098   2.892   6.239
 1722SOL     OW 5539   1.014   2.098   6.557
 1722SOL    HW1 5540   1.006   2.062   6.464
 1722SOL    HW2 5541   1.012   2.022   6.622
 1723SOL     OW 5542   0.590   3.349   6.077
 1723SOL    HW1 5543   0.632   3.291   6.007
 1723SOL    HW2 5544   0.546   3.428   6.033
 1724SOL     OW 5545   1.709   2.247   6.967
 1724SOL    HW1 5546   1.782   2.316   6.971
 1724SOL    HW2 5547   1.737   2.172   6.908
 1725SOL     OW 5548   0.255   3.210   5.876
 1725SOL    HW1 5549   0.159   3.211   5.849
 1725SOL    HW2 5550   0.267   3.263   5.960
 1726SOL     OW 5551   0.105   2.875   7.312
 1726SOL    HW1 5552   0.028   2.842   7.366
 1726SOL    HW2 5553   0.190   2.845   7.354
 1727SOL     OW 5554   0.672   2.065   7.075
 1727SOL    HW1 5555   0.762   2.049   7.035
 1727SOL    HW2 5556   0.680   2.070   7.174
 1728SOL     OW 5557   0.075   2.207   5.619
 1728SOL    HW1 5558  -0.017   2.179   5.590
 1728SOL    HW2 5559   0.106   2.284   5.563
 1729SOL     OW 5560   1.440   2.718   6.984
 1729SOL    HW1 5561   1.383   2.770   6.921
 1729SOL    HW2 5562   1.536   2.730   6.960
 1730SOL     OW 5563   0.072   2.028   5.904
 1730SOL    HW1 5564   0.055   2.111   5.850
 1730SOL    HW2 5565   0.162   1.991   5.882
 1731SOL     OW 5566   1.183   3.197   5.705
 1731SOL    HW1 5567   1.084   3.186   5.707
 1731SOL    HW2 5568   1.217   3.212   5.798
 1732SOL     OW 5569   0.613   2.704   7.017
 1732SOL    HW1 5570   0.669   2.785   7.000
 1732SOL    HW2 5571   0.672   2.624   7.020
 1733SOL     OW 5572   1.493   3.629   6.545
 1733SOL    HW1 5573   1.526   3.693   6.476
 1733SOL    HW2 5574   1.559   3.623   6.620
 1734SOL     OW 5575   0.716   2.427   7.294
 1734SOL    HW1 5576   0.735   2.492   7.368
 1734SOL    HW2 5577   0.776   2.347   7.303
 1735SOL     OW 5578   1.450   3.082   7.219
 1735SOL    HW1 5579   1.441   3.072   7.318
 1735SOL    HW2 5580   1.546   3.075   7.193
 1736SOL     OW 5581   0.390   3.603   7.146
 1736SOL    HW1 5582   0.299   3.644   7.144
 1736SOL    HW2 5583   0.383   3.509   7.178
 1737SOL     OW 5584   1.674   2.745   6.840
 1737SOL    HW1 5585   1.647   2.656   6.803
 1737SOL    HW2 5586   1.675   2.813   6.767
 1738SOL     OW 5587   1.225   2.187   6.035
 1738SOL    HW1 5588   1.290   2.113   6.024
 1738SOL    HW2 5589   1.245   2.237   6.119
 1739SOL     OW 5590   0.594   2.607   6.238
 1739SOL    HW1 5591   0.644   2.692   6.219
 1739SOL    HW2 5592   0.506   2.609   6.190
 1740SOL     OW 5593   1.777   2.204   7.228
 1740SOL    HW1 5594   1.760   2.235   7.134
 1740SOL    HW2 5595   1.693   2.167   7.266
 1741SOL     OW 5596   1.730   2.796   7.103
 1741SOL    HW1 5597   1.768   2.887   7.118
 1741SOL    HW2 5598   1.722   2.779   7.004
 1742SOL     OW 5599   0.859   3.236   5.602
 1742SOL    HW1 5600   0.813   3.251   5.690
 1742SOL    HW2 5601   0.903   3.321   5.572
 1743SOL     OW 5602   0.661   3.652   6.539
 1743SOL    HW1 5603   0.615   3.740   6.526
 1743SOL    HW2 5604   0.760   3.664   6.532
 1744SOL     OW 5605   0.859   2.818   6.447
 1744SOL    HW1 5606   0.913   2.749   6.495
 1744SOL    HW2 5607   0.827   2.887   6.513
 1745SOL     OW 5608   1.083   2.846   5.673
 1745SOL    HW1 5609   1.060   2.899   5.591
 1745SOL    HW2 5610   1.164   2.790   5.654
 1746SOL     OW 5611   1.861   3.431   6.437
 1746SOL    HW1 5612   1.790   3.419   6.367
 1746SOL    HW2 5613   1.862   3.352   6.497
 1747SOL     OW 5614   0.221   3.176   7.430
 1747SOL    HW1 5615   0.156   3.103   7.409
 1747SOL    HW2 5616   0.225   3.190   7.528
 1748SOL     OW 5617   0.079   3.102   6.239
 1748SOL    HW1 5618   0.078   3.055   6.327
 1748SOL    HW2 5619   0.161   3.074   6.188
 1749SOL     OW 5620   0.672   3.253   7.210
 1749SOL    HW1 5621   0.594   3.203   7.248
 1749SOL    HW2 5622   0.669   3.348   7.241
 1750SOL     OW 5623   1.824   2.054   6.813
 1750SOL    HW1 5624   1.820   1.964   6.857
 1750SOL    HW2 5625   1.827   2.043   6.714
 1751SOL     OW 5626   0.428   2.286   6.106
 1751SOL    HW1 5627   0.458   2.214   6.044
 1751SOL    HW2 5628   0.389   2.246   6.189
 1752SOL     OW 5629   1.705   3.349   6.690
 1752SOL    HW1 5630   1.612   3.324   6.663
 1752SOL    HW2 5631   1.731   3.299   6.772
 1753SOL     OW 5632   0.317   2.409   6.866
 1753SOL    HW1 5633   0.355   2.350   6.938
 1753SOL    HW2 5634   0.357   2.383   6.778
 1754SOL     OW 5635   0.812   3.448   6.273
 1754SOL    HW1 5636   0.844   3.458   6.179
 1754SOL    HW2 5637   0.733   3.386   6.275
 1755SOL     OW 5638   1.424   2.076   6.698
 1755SOL    HW1 5639   1.476   2.011   6.753
 1755SOL    HW2 5640   1.375   2.139   6.759
 1756SOL     OW 5641   1.001   1.896   6.740
 1756SOL    HW1 5642   0.938   1.824   6.709
 1756SOL    HW2 5643   1.094   1.860   6.740
 1757SOL     OW 5644   0.770   3.192   5.887
 1757SOL    HW1 5645   0.724   3.105   5.904
 1757SOL    HW2 5646   0.861   3.189   5.928
 1758SOL     OW 5647   0.618   3.429   6.870
 1758SOL    HW1 5648   0.613   3.511   6.927
 1758SOL    HW2 5649   0.707   3.426   6.825
 1759SOL     OW 5650   1.352   1.914   5.754
 1759SOL    HW1 5651   1.387   1.873   5.670
 1759SOL    HW2 5652   1.262   1.876   5.774
 1760SOL     OW 5653   1.300   2.315   6.277
 1760SOL    HW1 5654   1.241   2.395   6.281
 1760SOL    HW2 5655   1.315   2.280   6.370
 1761SOL     OW 5656   1.593   2.083   6.468
 1761SOL    HW1 5657   1.509   2.082   6.522
 1761SOL    HW2 5658   1.595   2.166   6.412
 1762SOL     OW 5659   0.039   2.939   5.886
 1762SOL    HW1 5660   0.138   2.928   5.877
 1762SOL    HW2 5661  -0.001   2.853   5.918
 1763SOL     OW 5662   0.875   3.508   5.923
 1763SOL    HW1 5663   0.798   3.473   5.869
 1763SOL    HW2 5664   0.843   3.579   5.985
 1764SOL     OW 5665   0.230   2.490   7.561
 1764SOL    HW1 5666   0.137   2.488   7.598
 1764SOL    HW2 5667   0.231   2.451   7.469
 1765SOL     OW 5668   1.755   2.469   7.679
 1765SOL    HW1 5669   1.743   2.456   7.580
 1765SOL    HW2 5670   1.725   2.388   7.728
 1766SOL     OW 5671   0.231   3.575   7.931
 1766SOL    HW1 5672   0.265   3.652   7.985
 1766SOL    HW2 5673   0.275   3.575   7.841
 1767SOL     OW 5674   0.230   3.296   7.986
 1767SOL    HW1 5675   0.204   3.392   7.986
 1767SOL    HW2 5676   0.159   3.242   8.031
 1768SOL     OW 5677   0.606   2.826   7.571
 1768SOL    HW1 5678   0.613   2.910   7.517
 1768SOL    HW2 5679   0.652   2.839   7.659
 1769SOL     OW 5680   1.842   3.629   7.807
 1769SOL    HW1 5681   1.896   3.600   7.887
 1769SOL    HW2 5682   1.872   3.719   7.778
 1770SOL     OW 5683   0.027   3.458   7.565
 1770SOL    HW1 5684   0.008   3.362   7.586
 1770SOL    HW2 5685  -0.006   3.516   7.640
 1771SOL     OW 5686   1.689   2.784   8.060
 1771SOL    HW1 5687   1.784   2.755   8.068
 1771SOL    HW2 5688   1.681   2.849   7.985
 1772SOL     OW 5689   1.641   2.970   7.880
 1772SOL    HW1 5690   1.727   2.972   7.828
 1772SOL    HW2 5691   1.655   3.017   7.968
 1773SOL     OW 5692   0.809   1.866   7.950
 1773SOL    HW1 5693   0.849   1.957   7.941
 1773SOL    HW2 5694   0.709   1.874   7.956
 1774SOL     OW 5695   1.525   2.861   7.638
 1774SOL    HW1 5696   1.462   2.785   7.651
 1774SOL    HW2 5697   1.573   2.879   7.724
 1775SOL     OW 5698   0.598   2.591   7.718
 1775SOL    HW1 5699   0.622   2.660   7.650
 1775SOL    HW2 5700   0.520   2.624   7.772
 1776SOL     OW 5701   1.576   3.524   7.755
 1776SOL    HW1 5702   1.665   3.570   7.758
 1776SOL    HW2 5703   1.555   3.500   7.660
 1777SOL     OW 5704   0.076   2.673   8.237
 1777SOL    HW1 5705   0.175   2.661   8.246
 1777SOL    HW2 5706   0.052   2.768   8.258
 1778SOL     OW 5707   0.865   2.210   7.643
 1778SOL    HW1 5708   0.924   2.273   7.594
 1778SOL    HW2 5709   0.884   2.116   7.614
 1779SOL     OW 5710   0.321   2.805   7.690
 1779SOL    HW1 5711   0.403   2.844   7.648
 1779SOL    HW2 5712   0.294   2.723   7.641
 1780SOL     OW 5713   1.111   3.638   7.685
 1780SOL    HW1 5714   1.051   3.576   7.735
 1780SOL    HW2 5715   1.142   3.594   7.600
 1781SOL     OW 5716   1.632   3.239   7.529
 1781SOL    HW1 5717   1.600   3.333   7.519
 1781SOL    HW2 5718   1.556   3.176   7.517
 1782SOL     OW 5719   0.464   3.605   7.771
 1782SOL    HW1 5720   0.497   3.644   7.857
 1782SOL    HW2 5721   0.540   3.598   7.706
 1783SOL     OW 5722   1.400   1.969   7.874
 1783SOL    HW1 5723   1.376   1.932   7.784
 1783SOL    HW2 5724   1.499   1.985   7.878
 1784SOL     OW 5725   0.382   2.562   7.928
 1784SOL    HW1 5726   0.427   2.472   7.925
 1784SOL    HW2 5727   0.288   2.551   7.961
 1785SOL     OW 5728   0.614   1.984   7.565
 1785SOL    HW1 5729   0.712   1.962   7.572
 1785SOL    HW2 5730   0.583   1.967   7.472
 1786SOL     OW 5731   0.539   1.926   7.960
 1786SOL    HW1 5732   0.458   1.927   8.018
 1786SOL    HW2 5733   0.542   2.009   7.905
 1787SOL     OW 5734   1.434   3.050   7.489
 1787SOL    HW1 5735   1.466   2.974   7.546
 1787SOL    HW2 5736   1.342   3.077   7.519
 1788SOL     OW 5737   0.297   1.897   7.619
 1788SOL    HW1 5738   0.346   1.981   7.598
 1788SOL    HW2 5739   0.359   1.832   7.664
 1789SOL     OW 5740   0.935   2.098   7.928
 1789SOL    HW1 5741   0.887   2.139   7.850
 1789SOL    HW2 5742   1.034   2.096   7.909
 1790SOL     OW 5743   0.459   3.014   8.189
 1790SOL    HW1 5744   0.388   2.987   8.254
 1790SOL    HW2 5745   0.433   2.986   8.096
 1791SOL     OW 5746   1.271   3.659   8.039
 1791SOL    HW1 5747   1.315   3.723   7.975
 1791SOL    HW2 5748   1.221   3.711   8.109
 1792SOL     OW 5749   1.032   2.411   7.464
 1792SOL    HW1 5750   0.991   2.493   7.425
 1792SOL    HW2 5751   1.096   2.437   7.537
 1793SOL     OW 5752   1.857   2.695   7.825
 1793SOL    HW1 5753   1.899   2.631   7.889
 1793SOL    HW2 5754   1.819   2.644   7.747
 1794SOL     OW 5755   0.488   3.247   7.622
 1794SOL    HW1 5756   0.401   3.232   7.669
 1794SOL    HW2 5757   0.471   3.273   7.527
 1795SOL     OW 5758   1.390   2.437   7.526
 1795SOL    HW1 5759   1.336   2.416   7.607
 1795SOL    HW2 5760   1.481   2.396   7.535
 1796SOL     OW 5761   0.527   2.118   7.776
 1796SOL    HW1 5762   0.554   2.059   7.701
 1796SOL    HW2 5763   0.527   2.213   7.745
 1797SOL     OW 5764   0.705   2.912   7.816
 1797SOL    HW1 5765   0.691   2.919   7.915
 1797SOL    HW2 5766   0.789   2.861   7.798
 1798SOL     OW 5767   0.367   2.962   7.949
 1798SOL    HW1 5768   0.360   3.045   7.893
 1798SOL    HW2 5769   0.371   2.882   7.889
 1799SOL     OW 5770   1.252   3.210   7.836
 1799SOL    HW1 5771   1.302   3.287   7.876
 1799SOL    HW2 5772   1.157   3.212   7.868
 1800SOL     OW 5773   1.582   2.501   7.920
 1800SOL    HW1 5774   1.551   2.562   7.993
 1800SOL    HW2 5775   1.632   2.553   7.851
 1801SOL     OW 5776   1.209   2.387   7.723
 1801SOL    HW1 5777   1.222   2.303   7.777
 1801SOL    HW2 5778   1.180   2.461   7.783
 1802SOL     OW 5779   1.622   2.229   7.822
 1802SOL    HW1 5780   1.624   2.153   7.886
 1802SOL    HW2 5781   1.574   2.306   7.862
 1803SOL     OW 5782   1.540   2.136   7.573
 1803SOL    HW1 5783   1.479   2.061   7.596
 1803SOL    HW2 5784   1.562   2.188   7.656
 1804SOL     OW 5785   1.303   2.700   7.490
 1804SOL    HW1 5786   1.337   2.607   7.505
 1804SOL    HW2 5787   1.321   2.727   7.395
 1805SOL     OW 5788   0.008   3.188   7.648
 1805SOL    HW1 5789  -0.085   3.209   7.617
 1805SOL    HW2 5790   0.018   3.089   7.661
 1806SOL     OW 5791   0.815   2.434   7.773
 1806SOL    HW1 5792   0.822   2.345   7.727
 1806SOL    HW2 5793   0.721   2.468   7.765
 1807SOL     OW 5794   0.473   2.362   7.639
 1807SOL    HW1 5795   0.534   2.442   7.643
 1807SOL    HW2 5796   0.378   2.393   7.646
 1808SOL     OW 5797   1.302   2.717   7.757
 1808SOL    HW1 5798   1.216   2.686   7.799
 1808SOL    HW2 5799   1.298   2.703   7.658
 1809SOL     OW 5800   1.726   1.997   7.971
 1809SOL    HW1 5801   1.799   1.980   7.904
 1809SOL    HW2 5802   1.695   1.910   8.009
 1810SOL     OW 5803   1.388   3.435   7.925
 1810SOL    HW1 5804   1.455   3.447   7.851
 1810SOL    HW2 5805   1.348   3.524   7.948
 1811SOL     OW 5806   0.672   3.478   7.602
 1811SOL    HW1 5807   0.681   3.488   7.503
 1811SOL    HW2 5808   0.632   3.389   7.623
 1812SOL     OW 5809   1.194   3.474   7.479
 1812SOL    HW1 5810   1.200   3.381   7.516
 1812SOL    HW2 5811   1.135   3.474   7.399
 1813SOL     OW 5812   0.916   2.772   7.739
 1813SOL    HW1 5813   0.979   2.810   7.671
 1813SOL    HW2 5814   0.956   2.689   7.778
 1814SOL     OW 5815   1.504   3.469   7.492
 1814SOL    HW1 5816   1.412   3.506   7.499
 1814SOL    HW2 5817   1.542   3.489   7.402
 1815SOL     OW 5818   0.590   3.349   7.939
 1815SOL    HW1 5819   0.632   3.291   7.869
 1815SOL    HW2 5820   0.546   3.428   7.895
 1816SOL     OW 5821   0.255   3.210   7.738
 1816SOL    HW1 5822   0.159   3.211   7.711
 1816SOL    HW2 5823   0.267   3.263   7.822
 1817SOL     OW 5824   0.075   2.207   7.481
 1817SOL    HW1 5825  -0.017   2.179   7.452
 1817SOL    HW2 5826   0.106   2.284   7.425
 1818SOL     OW 5827   0.072   2.028   7.766
 1818SOL    HW1 5828   0.055   2.111   7.712
 1818SOL    HW2 5829   0.162   1.991   7.744
 1819SOL     OW 5830   1.183   3.197   7.567
 1819SOL    HW1 5831   1.084   3.186   7.569
 1819SOL    HW2 5832   1.217   3.212   7.660
 1820SOL     OW 5833   1.225   2.187   7.897
 1820SOL    HW1 5834   1.290   2.113   7.886
 1820SOL    HW2 5835   1.245   2.237   7.981
 1821SOL     OW 5836   0.594   2.607   8.100
 1821SOL    HW1 5837   0.644   2.692   8.081
 1821SOL    HW2 5838   0.506   2.609   8.052
 1822SOL     OW 5839   0.859   3.236   7.464
 1822SOL    HW1 5840   0.813   3.251   7.552
 1822SOL    HW2 5841   0.903   3.321   7.434
 1823SOL     OW 5842   1.083   2.846   7.535
 1823SOL    HW1 5843   1.060   2.899   7.453
 1823SOL    HW2 5844   1.164   2.790   7.516
 1824SOL     OW 5845   0.428   2.286   7.968
 1824SOL    HW1 5846   0.458   2.214   7.906
 1824SOL    HW2 5847   0.389   2.246   8.051
 1825SOL     OW 5848   0.770   3.192   7.749
 1825SOL    HW1 5849   0.724   3.105   7.766
 1825SOL    HW2 5850   0.861   3.189   7.790
 1826SOL     OW 5851   1.352   1.914   7.616
 1826SOL    HW1 5852   1.387   1.873   7.532
 1826SOL    HW2 5853   1.262   1.876   7.636
 1827SOL     OW 5854   0.039   2.939   7.748
 1827SOL    HW1 5855   0.138   2.928   7.739
 1827SOL    HW2 5856  -0.001   2.853   7.780
 1828SOL     OW 5857   0.875   3.508   7.785
 1828SOL    HW1 5858   0.798   3.473   7.731
 1828SOL    HW2 5859   0.843   3.579   7.847
 1829SOL     OW 5860   0.230   4.352   0.113
 1829SOL    HW1 5861   0.137   4.350   0.150
 1829SOL    HW2 5862   0.231   4.313   0.021
 1830SOL     OW 5863   0.225   3.999   0.996
 1830SOL    HW1 5864   0.260   3.982   1.088
 1830SOL    HW2 5865   0.137   3.954   0.984
 1831SOL     OW 5866   0.019   4.092   0.647
 1831SOL    HW1 5867  -0.063   4.135   0.686
 1831SOL    HW2 5868  -0.009   4.019   0.584
 1832SOL     OW 5869   0.569   4.999   1.165
 1832SOL    HW1 5870   0.476   4.992   1.128
 1832SOL    HW2 5871   0.580   5.088   1.209
 1833SOL     OW 5872   1.555   5.235   0.703
 1833SOL    HW1 5873   1.498   5.219   0.784
 1833SOL    HW2 5874   1.496   5.245   0.623
 1834SOL     OW 5875   1.135   4.427   0.717
 1834SOL    HW1 5876   1.192   4.505   0.692
 1834SOL    HW2 5877   1.075   4.453   0.793
 1835SOL     OW 5878   1.755   4.331   0.231
 1835SOL    HW1 5879   1.743   4.318   0.132
 1835SOL    HW2 5880   1.725   4.250   0.280
 1836SOL     OW 5881   0.768   4.868   1.023
 1836SOL    HW1 5882   0.690   4.885   1.083
 1836SOL    HW2 5883   0.802   4.955   0.987
 1837SOL     OW 5884   0.850   4.522   1.823
 1837SOL    HW1 5885   0.846   4.598   1.888
 1837SOL    HW2 5886   0.872   4.558   1.732
 1838SOL     OW 5887   0.685   4.736   0.665
 1838SOL    HW1 5888   0.754   4.720   0.735
 1838SOL    HW2 5889   0.612   4.793   0.703
 1839SOL     OW 5890   0.686   4.885   1.803
 1839SOL    HW1 5891   0.746   4.964   1.817
 1839SOL    HW2 5892   0.600   4.916   1.762
 1840SOL     OW 5893   0.335   5.159   1.061
 1840SOL    HW1 5894   0.257   5.128   1.008
 1840SOL    HW2 5895   0.393   5.217   1.004
 1841SOL     OW 5896   1.460   5.229   1.339
 1841SOL    HW1 5897   1.484   5.323   1.365
 1841SOL    HW2 5898   1.444   5.175   1.421
 1842SOL     OW 5899   0.438   4.116   1.499
 1842SOL    HW1 5900   0.520   4.060   1.508
 1842SOL    HW2 5901   0.357   4.058   1.503
 1843SOL     OW 5902   1.603   4.171   0.737
 1843SOL    HW1 5903   1.529   4.217   0.687
 1843SOL    HW2 5904   1.654   4.239   0.790
 1844SOL     OW 5905   1.127   5.065   1.690
 1844SOL    HW1 5906   1.174   5.065   1.778
 1844SOL    HW2 5907   1.079   4.978   1.679
 1845SOL     OW 5908   0.230   5.158   0.538
 1845SOL    HW1 5909   0.204   5.254   0.538
 1845SOL    HW2 5910   0.159   5.104   0.583
 1846SOL     OW 5911   0.240   4.815   0.886
 1846SOL    HW1 5912   0.254   4.731   0.938
 1846SOL    HW2 5913   0.185   4.879   0.941
 1847SOL     OW 5914   0.606   4.688   0.123
 1847SOL    HW1 5915   0.613   4.772   0.069
 1847SOL    HW2 5916   0.652   4.701   0.211
 1848SOL     OW 5917   1.594   3.838   1.480
 1848SOL    HW1 5918   1.576   3.905   1.408
 1848SOL    HW2 5919   1.591   3.884   1.569
 1849SOL     OW 5920   0.122   4.367   0.563
 1849SOL    HW1 5921   0.077   4.279   0.580
 1849SOL    HW2 5922   0.121   4.421   0.647
 1850SOL     OW 5923   0.027   5.320   0.117
 1850SOL    HW1 5924   0.008   5.224   0.138
 1850SOL    HW2 5925  -0.006   5.378   0.192
 1851SOL     OW 5926   1.689   4.646   0.612
 1851SOL    HW1 5927   1.784   4.617   0.620
 1851SOL    HW2 5928   1.681   4.711   0.537
 1852SOL     OW 5929   1.641   4.832   0.432
 1852SOL    HW1 5930   1.727   4.834   0.380
 1852SOL    HW2 5931   1.655   4.879   0.520
 1853SOL     OW 5932   0.113   4.461   1.597
 1853SOL    HW1 5933   0.201   4.448   1.642
 1853SOL    HW2 5934   0.100   4.558   1.575
 1854SOL     OW 5935   0.613   5.089   0.726
 1854SOL    HW1 5936   0.564   5.002   0.735
 1854SOL    HW2 5937   0.590   5.132   0.639
 1855SOL     OW 5938   1.293   4.952   1.423
 1855SOL    HW1 5939   1.330   4.879   1.365
 1855SOL    HW2 5940   1.345   4.957   1.508
 1856SOL     OW 5941   0.809   3.728   0.502
 1856SOL    HW1 5942   0.849   3.819   0.493
 1856SOL    HW2 5943   0.709   3.736   0.508
 1857SOL     OW 5944   0.197   4.700   1.264
 1857SOL    HW1 5945   0.286   4.655   1.250
 1857SOL    HW2 5946   0.124   4.635   1.245
 1858SOL     OW 5947   1.525   4.723   0.190
 1858SOL    HW1 5948   1.462   4.647   0.203
 1858SOL    HW2 5949   1.573   4.741   0.276
 1859SOL     OW 5950   0.317   3.975   1.801
 1859SOL    HW1 5951   0.388   4.046   1.807
 1859SOL    HW2 5952   0.229   4.014   1.829
 1860SOL     OW 5953   1.466   5.141   0.953
 1860SOL    HW1 5954   1.407   5.147   1.033
 1860SOL    HW2 5955   1.451   5.053   0.907
 1861SOL     OW 5956   0.598   4.453   0.270
 1861SOL    HW1 5957   0.622   4.522   0.202
 1861SOL    HW2 5958   0.520   4.486   0.324
 1862SOL     OW 5959   1.281   4.069   0.944
 1862SOL    HW1 5960   1.195   4.019   0.931
 1862SOL    HW2 5961   1.343   4.015   1.000
 1863SOL     OW 5962   0.807   4.329   1.465
 1863SOL    HW1 5963   0.760   4.326   1.554
 1863SOL    HW2 5964   0.756   4.274   1.399
 1864SOL     OW 5965   1.394   4.193   1.674
 1864SOL    HW1 5966   1.374   4.236   1.762
 1864SOL    HW2 5967   1.472   4.131   1.683
 1865SOL     OW 5968   0.973   4.614   1.572
 1865SOL    HW1 5969   1.019   4.530   1.543
 1865SOL    HW2 5970   0.917   4.648   1.497
 1866SOL     OW 5971   0.991   4.134   1.242
 1866SOL    HW1 5972   0.914   4.168   1.296
 1866SOL    HW2 5973   0.957   4.083   1.163
 1867SOL     OW 5974   1.041   4.425   0.429
 1867SOL    HW1 5975   1.067   4.421   0.525
 1867SOL    HW2 5976   0.956   4.374   0.415
 1868SOL     OW 5977   0.076   4.535   0.789
 1868SOL    HW1 5978   0.175   4.523   0.798
 1868SOL    HW2 5979   0.052   4.630   0.810
 1869SOL     OW 5980   0.865   4.072   0.195
 1869SOL    HW1 5981   0.924   4.135   0.146
 1869SOL    HW2 5982   0.884   3.978   0.166
 1870SOL     OW 5983   1.719   4.309   1.831
 1870SOL    HW1 5984   1.693   4.398   1.795
 1870SOL    HW2 5985   1.717   4.241   1.758
 1871SOL     OW 5986   1.362   4.868   0.545
 1871SOL    HW1 5987   1.445   4.839   0.497
 1871SOL    HW2 5988   1.313   4.935   0.489
 1872SOL     OW 5989   0.550   3.920   0.885
 1872SOL    HW1 5990   0.545   3.915   0.985
 1872SOL    HW2 5991   0.552   4.016   0.856
 1873SOL     OW 5992   1.008   5.180   0.477
 1873SOL    HW1 5993   0.962   5.252   0.425
 1873SOL    HW2 5994   1.004   5.200   0.575
 1874SOL     OW 5995   1.795   4.790   0.873
 1874SOL    HW1 5996   1.733   4.775   0.797
 1874SOL    HW2 5997   1.743   4.801   0.958
 1875SOL     OW 5998   1.227   5.274   1.506
 1875SOL    HW1 5999   1.233   5.197   1.570
 1875SOL    HW2 6000   1.175   5.248   1.426
 1876SOL     OW 6001   0.321   4.667   0.242
 1876SOL    HW1 6002   0.403   4.706   0.200
 1876SOL    HW2 6003   0.294   4.585   0.193
 1877SOL     OW 6004   1.458   4.459   0.728
 1877SOL    HW1 6005   1.453   4.394   0.803
 1877SOL    HW2 6006   1.538   4.518   0.741
 1878SOL     OW 6007   0.461   4.990   1.727
 1878SOL    HW1 6008   0.411   4.991   1.641
 1878SOL    HW2 6009   0.398   4.972   1.803
 1879SOL     OW 6010   1.111   5.500   0.237
 1879SOL    HW1 6011   1.051   5.438   0.287
 1879SOL    HW2 6012   1.142   5.456   0.152
 1880SOL     OW 6013   0.202   4.009   1.498
 1880SOL    HW1 6014   0.122   4.069   1.485
 1880SOL    HW2 6015   0.192   3.960   1.584
 1881SOL     OW 6016   1.632   5.101   0.081
 1881SOL    HW1 6017   1.600   5.195   0.071
 1881SOL    HW2 6018   1.556   5.038   0.069
 1882SOL     OW 6019   1.400   3.831   0.426
 1882SOL    HW1 6020   1.376   3.794   0.336
 1882SOL    HW2 6021   1.499   3.847   0.430
 1883SOL     OW 6022   0.382   4.424   0.480
 1883SOL    HW1 6023   0.427   4.334   0.477
 1883SOL    HW2 6024   0.288   4.413   0.513
 1884SOL     OW 6025   1.547   3.946   1.729
 1884SOL    HW1 6026   1.542   3.983   1.821
 1884SOL    HW2 6027   1.475   3.877   1.717
 1885SOL     OW 6028   0.614   3.846   0.117
 1885SOL    HW1 6029   0.712   3.824   0.124
 1885SOL    HW2 6030   0.583   3.829   0.024
 1886SOL     OW 6031   0.781   3.988   1.749
 1886SOL    HW1 6032   0.848   3.927   1.792
 1886SOL    HW2 6033   0.708   4.007   1.814
 1887SOL     OW 6034   1.351   4.314   1.433
 1887SOL    HW1 6035   1.379   4.271   1.518
 1887SOL    HW2 6036   1.376   4.410   1.434
 1888SOL     OW 6037   0.803   5.126   0.924
 1888SOL    HW1 6038   0.893   5.140   0.882
 1888SOL    HW2 6039   0.732   5.128   0.853
 1889SOL     OW 6040   0.922   4.227   0.899
 1889SOL    HW1 6041   0.897   4.218   0.803
 1889SOL    HW2 6042   0.970   4.145   0.930
 1890SOL     OW 6043   0.539   3.788   0.512
 1890SOL    HW1 6044   0.458   3.789   0.570
 1890SOL    HW2 6045   0.542   3.871   0.457
 1891SOL     OW 6046   1.434   4.912   0.041
 1891SOL    HW1 6047   1.466   4.836   0.098
 1891SOL    HW2 6048   1.342   4.939   0.071
 1892SOL     OW 6049   0.297   3.759   0.171
 1892SOL    HW1 6050   0.346   3.843   0.150
 1892SOL    HW2 6051   0.359   3.694   0.216
 1893SOL     OW 6052   0.935   3.960   0.480
 1893SOL    HW1 6053   0.887   4.001   0.402
 1893SOL    HW2 6054   1.034   3.958   0.461
 1894SOL     OW 6055   1.076   4.407   1.464
 1894SOL    HW1 6056   0.996   4.346   1.467
 1894SOL    HW2 6057   1.157   4.354   1.440
 1895SOL     OW 6058   1.227   5.294   0.793
 1895SOL    HW1 6059   1.248   5.368   0.728
 1895SOL    HW2 6060   1.295   5.294   0.866
 1896SOL     OW 6061   0.459   4.876   0.741
 1896SOL    HW1 6062   0.388   4.849   0.806
 1896SOL    HW2 6063   0.433   4.848   0.648
 1897SOL     OW 6064   1.032   4.273   0.016
 1897SOL    HW1 6065   0.991   4.355  -0.023
 1897SOL    HW2 6066   1.096   4.299   0.089
 1898SOL     OW 6067   0.078   4.280   1.386
 1898SOL    HW1 6068   0.170   4.279   1.345
 1898SOL    HW2 6069   0.072   4.354   1.453
 1899SOL     OW 6070   0.561   3.946   1.147
 1899SOL    HW1 6071   0.599   3.862   1.184
 1899SOL    HW2 6072   0.473   3.965   1.191
 1900SOL     OW 6073   0.866   4.178   0.642
 1900SOL    HW1 6074   0.834   4.250   0.580
 1900SOL    HW2 6075   0.890   4.097   0.589
 1901SOL     OW 6076   1.017   3.763   0.753
 1901SOL    HW1 6077   0.945   3.768   0.684
 1901SOL    HW2 6078   0.993   3.694   0.822
 1902SOL     OW 6079   1.429   4.897   0.867
 1902SOL    HW1 6080   1.374   4.813   0.860
 1902SOL    HW2 6081   1.455   4.926   0.775
 1903SOL     OW 6082   1.466   4.314   0.992
 1903SOL    HW1 6083   1.436   4.219   0.999
 1903SOL    HW2 6084   1.539   4.330   1.058
 1904SOL     OW 6085   1.857   4.557   0.377
 1904SOL    HW1 6086   1.899   4.493   0.441
 1904SOL    HW2 6087   1.819   4.506   0.299
 1905SOL     OW 6088   0.488   5.109   0.174
 1905SOL    HW1 6089   0.401   5.094   0.221
 1905SOL    HW2 6090   0.471   5.135   0.079
 1906SOL     OW 6091   1.664   5.004   0.657
 1906SOL    HW1 6092   1.763   5.012   0.671
 1906SOL    HW2 6093   1.619   5.088   0.688
 1907SOL     OW 6094   1.390   4.299   0.078
 1907SOL    HW1 6095   1.336   4.278   0.159
 1907SOL    HW2 6096   1.481   4.258   0.087
 1908SOL     OW 6097   0.527   3.980   0.328
 1908SOL    HW1 6098   0.554   3.921   0.253
 1908SOL    HW2 6099   0.527   4.075   0.297
 1909SOL     OW 6100   1.754   4.947   1.588
 1909SOL    HW1 6101   1.845   4.908   1.575
 1909SOL    HW2 6102   1.762   5.043   1.612
 1910SOL     OW 6103   1.064   5.071   1.340
 1910SOL    HW1 6104   0.984   5.048   1.395
 1910SOL    HW2 6105   1.147   5.045   1.389
 1911SOL     OW 6106   1.111   4.919   1.100
 1911SOL    HW1 6107   1.071   4.963   1.181
 1911SOL    HW2 6108   1.070   4.956   1.017
 1912SOL     OW 6109   1.638   4.823   1.079
 1912SOL    HW1 6110   1.643   4.904   1.138
 1912SOL    HW2 6111   1.552   4.825   1.028
 1913SOL     OW 6112   0.915   3.813   1.402
 1913SOL    HW1 6113   0.940   3.793   1.307
 1913SOL    HW2 6114   0.987   3.869   1.444
 1914SOL     OW 6115   0.980   4.840   1.719
 1914SOL    HW1 6116   0.881   4.846   1.729
 1914SOL    HW2 6117   1.003   4.760   1.663
 1915SOL     OW 6118   0.705   4.774   0.368
 1915SOL    HW1 6119   0.691   4.781   0.467
 1915SOL    HW2 6120   0.789   4.723   0.350
 1916SOL     OW 6121   0.410   4.537   1.251
 1916SOL    HW1 6122   0.496   4.549   1.301
 1916SOL    HW2 6123   0.368   4.450   1.278
 1917SOL     OW 6124   1.274   4.110   1.262
 1917SOL    HW1 6125   1.295   4.184   1.326
 1917SOL    HW2 6126   1.185   4.127   1.219
 1918SOL     OW 6127   0.064   5.288   1.331
 1918SOL    HW1 6128   0.018   5.370   1.297
 1918SOL    HW2 6129   0.162   5.307   1.340
 1919SOL     OW 6130   0.367   4.824   0.501
 1919SOL    HW1 6131   0.360   4.907   0.445
 1919SOL    HW2 6132   0.371   4.744   0.441
 1920SOL     OW 6133   0.566   4.261   0.865
 1920SOL    HW1 6134   0.578   4.327   0.791
 1920SOL    HW2 6135   0.612   4.295   0.948
 1921SOL     OW 6136   1.252   5.072   0.388
 1921SOL    HW1 6137   1.302   5.149   0.428
 1921SOL    HW2 6138   1.157   5.074   0.420
 1922SOL     OW 6139   1.272   5.169   1.142
 1922SOL    HW1 6140   1.319   5.182   1.229
 1922SOL    HW2 6141   1.206   5.095   1.151
 1923SOL     OW 6142   1.582   4.363   0.472
 1923SOL    HW1 6143   1.551   4.424   0.545
 1923SOL    HW2 6144   1.632   4.415   0.403
 1924SOL     OW 6145   0.354   5.234   1.329
 1924SOL    HW1 6146   0.333   5.190   1.242
 1924SOL    HW2 6147   0.451   5.260   1.332
 1925SOL     OW 6148   0.402   4.475   1.598
 1925SOL    HW1 6149   0.470   4.530   1.551
 1925SOL    HW2 6150   0.442   4.387   1.625
 1926SOL     OW 6151   1.587   4.503   1.670
 1926SOL    HW1 6152   1.495   4.541   1.665
 1926SOL    HW2 6153   1.647   4.550   1.605
 1927SOL     OW 6154   1.013   3.829   1.770
 1927SOL    HW1 6155   1.019   3.914   1.718
 1927SOL    HW2 6156   1.045   3.753   1.713
 1928SOL     OW 6157   0.504   3.774   1.740
 1928SOL    HW1 6158   0.462   3.717   1.670
 1928SOL    HW2 6159   0.438   3.843   1.772
 1929SOL     OW 6160   0.573   4.594   1.029
 1929SOL    HW1 6161   0.617   4.683   1.020
 1929SOL    HW2 6162   0.510   4.594   1.106
 1930SOL     OW 6163   1.360   4.586   1.045
 1930SOL    HW1 6164   1.285   4.586   0.979
 1930SOL    HW2 6165   1.397   4.494   1.054
 1931SOL     OW 6166   1.209   4.249   0.275
 1931SOL    HW1 6167   1.222   4.165   0.329
 1931SOL    HW2 6168   1.180   4.323   0.335
 1932SOL     OW 6169   0.307   3.937   1.231
 1932SOL    HW1 6170   0.284   3.974   1.321
 1932SOL    HW2 6171   0.277   3.842   1.225
 1933SOL     OW 6172   0.037   5.034   1.282
 1933SOL    HW1 6173   0.090   4.985   1.350
 1933SOL    HW2 6174   0.059   5.132   1.287
 1934SOL     OW 6175   0.732   4.358   1.064
 1934SOL    HW1 6176   0.791   4.332   0.988
 1934SOL    HW2 6177   0.704   4.454   1.053
 1935SOL     OW 6178   1.728   4.659   1.854
 1935SOL    HW1 6179   1.682   4.652   1.765
 1935SOL    HW2 6180   1.666   4.703   1.920
 1936SOL     OW 6181   0.307   3.787   0.618
 1936SOL    HW1 6182   0.296   3.881   0.651
 1936SOL    HW2 6183   0.302   3.724   0.695
 1937SOL     OW 6184   1.622   4.091   0.374
 1937SOL    HW1 6185   1.624   4.015   0.438
 1937SOL    HW2 6186   1.574   4.168   0.414
 1938SOL     OW 6187   1.023   4.490   0.966
 1938SOL    HW1 6188   1.038   4.511   1.062
 1938SOL    HW2 6189   0.993   4.395   0.957
 1939SOL     OW 6190   1.859   5.242   1.605
 1939SOL    HW1 6191   1.873   5.269   1.510
 1939SOL    HW2 6192   1.942   5.264   1.658
 1940SOL     OW 6193   0.350   4.622   1.804
 1940SOL    HW1 6194   0.426   4.666   1.852
 1940SOL    HW2 6195   0.385   4.575   1.722
 1941SOL     OW 6196   1.540   3.998   0.125
 1941SOL    HW1 6197   1.479   3.923   0.148
 1941SOL    HW2 6198   1.562   4.050   0.208
 1942SOL     OW 6199   1.303   4.562   0.042
 1942SOL    HW1 6200   1.337   4.469   0.057
 1942SOL    HW2 6201   1.321   4.589  -0.053
 1943SOL     OW 6202   1.068   5.057   0.849
 1943SOL    HW1 6203   1.075   4.973   0.794
 1943SOL    HW2 6204   1.130   5.126   0.813
 1944SOL     OW 6205   0.319   4.534   0.949
 1944SOL    HW1 6206   0.412   4.570   0.954
 1944SOL    HW2 6207   0.313   4.449   1.001
 1945SOL     OW 6208   0.339   4.233   1.006
 1945SOL    HW1 6209   0.287   4.150   0.989
 1945SOL    HW2 6210   0.416   4.238   0.942
 1946SOL     OW 6211   1.138   4.104   1.678
 1946SOL    HW1 6212   1.093   4.167   1.742
 1946SOL    HW2 6213   1.231   4.135   1.661
 1947SOL     OW 6214   1.160   3.931   1.477
 1947SOL    HW1 6215   1.160   3.995   1.554
 1947SOL    HW2 6216   1.188   3.979   1.394
 1948SOL     OW 6217   0.008   5.050   0.200
 1948SOL    HW1 6218  -0.085   5.071   0.169
 1948SOL    HW2 6219   0.018   4.951   0.213
 1949SOL     OW 6220   1.002   4.520   1.238
 1949SOL    HW1 6221   1.043   4.488   1.324
 1949SOL    HW2 6222   0.906   4.493   1.235
 1950SOL     OW 6223   0.040   4.268   1.114
 1950SOL    HW1 6224   0.125   4.235   1.073
 1950SOL    HW2 6225   0.053   4.283   1.212
 1951SOL     OW 6226   0.189   4.244   1.722
 1951SOL    HW1 6227   0.248   4.204   1.652
 1951SOL    HW2 6228   0.131   4.315   1.681
 1952SOL     OW 6229   1.369   4.674   1.660
 1952SOL    HW1 6230   1.408   4.763   1.680
 1952SOL    HW2 6231   1.379   4.654   1.563
 1953SOL     OW 6232   0.815   4.296   0.325
 1953SOL    HW1 6233   0.822   4.207   0.279
 1953SOL    HW2 6234   0.721   4.330   0.317
 1954SOL     OW 6235   1.657   4.328   1.206
 1954SOL    HW1 6236   1.619   4.259   1.268
 1954SOL    HW2 6237   1.739   4.292   1.162
 1955SOL     OW 6238   0.252   5.288   1.744
 1955SOL    HW1 6239   0.222   5.345   1.820
 1955SOL    HW2 6240   0.245   5.191   1.770
 1956SOL     OW 6241   0.671   4.188   1.269
 1956SOL    HW1 6242   0.637   4.099   1.239
 1956SOL    HW2 6243   0.697   4.242   1.189
 1957SOL     OW 6244   0.473   4.224   0.191
 1957SOL    HW1 6245   0.534   4.304   0.195
 1957SOL    HW2 6246   0.378   4.255   0.198
 1958SOL     OW 6247   0.159   4.861   1.466
 1958SOL    HW1 6248   0.181   4.800   1.542
 1958SOL    HW2 6249   0.169   4.812   1.380
 1959SOL     OW 6250   1.347   4.783   1.234
 1959SOL    HW1 6251   1.371   4.720   1.160
 1959SOL    HW2 6252   1.257   4.823   1.216
 1960SOL     OW 6253   1.302   4.579   0.309
 1960SOL    HW1 6254   1.216   4.548   0.351
 1960SOL    HW2 6255   1.298   4.565   0.210
 1961SOL     OW 6256   0.083   4.982   1.022
 1961SOL    HW1 6257   0.078   4.981   1.122
 1961SOL    HW2 6258   0.000   4.941   0.984
 1962SOL     OW 6259   0.688   5.386   1.716
 1962SOL    HW1 6260   0.632   5.467   1.725
 1962SOL    HW2 6261   0.740   5.390   1.630
 1963SOL     OW 6262   0.903   3.810   0.133
 1963SOL    HW1 6263   0.954   3.811   0.047
 1963SOL    HW2 6264   0.959   3.768   0.204
 1964SOL     OW 6265   1.726   3.859   0.523
 1964SOL    HW1 6266   1.799   3.842   0.456
 1964SOL    HW2 6267   1.695   3.772   0.561
 1965SOL     OW 6268   1.280   4.651   0.672
 1965SOL    HW1 6269   1.340   4.570   0.674
 1965SOL    HW2 6270   1.320   4.720   0.612
 1966SOL     OW 6271   0.830   4.997   1.422
 1966SOL    HW1 6272   0.825   5.030   1.517
 1966SOL    HW2 6273   0.744   5.016   1.376
 1967SOL     OW 6274   1.841   3.899   0.963
 1967SOL    HW1 6275   1.880   3.814   0.927
 1967SOL    HW2 6276   1.743   3.901   0.944
 1968SOL     OW 6277   0.263   4.050   0.720
 1968SOL    HW1 6278   0.184   4.101   0.686
 1968SOL    HW2 6279   0.254   4.035   0.818
 1969SOL     OW 6280   1.194   5.336   0.031
 1969SOL    HW1 6281   1.200   5.243   0.068
 1969SOL    HW2 6282   1.135   5.336  -0.049
 1970SOL     OW 6283   0.822   4.726   1.372
 1970SOL    HW1 6284   0.862   4.725   1.280
 1970SOL    HW2 6285   0.832   4.818   1.412
 1971SOL     OW 6286   0.916   4.634   0.291
 1971SOL    HW1 6287   0.979   4.672   0.223
 1971SOL    HW2 6288   0.956   4.551   0.330
 1972SOL     OW 6289   0.372   5.012   1.490
 1972SOL    HW1 6290   0.359   5.105   1.456
 1972SOL    HW2 6291   0.288   4.960   1.477
 1973SOL     OW 6292   1.614   5.016   1.289
 1973SOL    HW1 6293   1.674   5.019   1.369
 1973SOL    HW2 6294   1.539   5.080   1.302
 1974SOL     OW 6295   1.039   4.822   0.696
 1974SOL    HW1 6296   0.969   4.775   0.750
 1974SOL    HW2 6297   1.098   4.754   0.653
 1975SOL     OW 6298   1.014   3.960   0.971
 1975SOL    HW1 6299   1.006   3.924   0.878
 1975SOL    HW2 6300   1.012   3.884   1.036
 1976SOL     OW 6301   1.709   4.109   1.381
 1976SOL    HW1 6302   1.782   4.178   1.385
 1976SOL    HW2 6303   1.737   4.034   1.322
 1977SOL     OW 6304   0.255   5.072   0.290
 1977SOL    HW1 6305   0.159   5.073   0.263
 1977SOL    HW2 6306   0.267   5.125   0.374
 1978SOL     OW 6307   0.105   4.737   1.726
 1978SOL    HW1 6308   0.028   4.704   1.780
 1978SOL    HW2 6309   0.190   4.707   1.768
 1979SOL     OW 6310   0.672   3.927   1.489
 1979SOL    HW1 6311   0.762   3.911   1.449
 1979SOL    HW2 6312   0.680   3.932   1.588
 1980SOL     OW 6313   0.075   4.069   0.033
 1980SOL    HW1 6314  -0.017   4.041   0.004
 1980SOL    HW2 6315   0.106   4.146  -0.023
 1981SOL     OW 6316   1.440   4.580   1.398
 1981SOL    HW1 6317   1.383   4.632   1.335
 1981SOL    HW2 6318   1.536   4.592   1.374
 1982SOL     OW 6319   0.072   3.890   0.318
 1982SOL    HW1 6320   0.055   3.973   0.264
 1982SOL    HW2 6321   0.162   3.853   0.296
 1983SOL     OW 6322   1.183   5.059   0.119
 1983SOL    HW1 6323   1.084   5.048   0.121
 1983SOL    HW2 6324   1.217   5.074   0.212
 1984SOL     OW 6325   0.613   4.566   1.431
 1984SOL    HW1 6326   0.669   4.647   1.414
 1984SOL    HW2 6327   0.672   4.486   1.434
 1985SOL     OW 6328   0.716   4.289   1.708
 1985SOL    HW1 6329   0.735   4.354   1.782
 1985SOL    HW2 6330   0.776   4.209   1.717
 1986SOL     OW 6331   1.450   4.944   1.633
 1986SOL    HW1 6332   1.441   4.934   1.732
 1986SOL    HW2 6333   1.546   4.937   1.607
 1987SOL     OW 6334   1.674   4.607   1.254
 1987SOL    HW1 6335   1.647   4.518   1.217
 1987SOL    HW2 6336   1.675   4.675   1.181
 1988SOL     OW 6337   1.225   4.049   0.449
 1988SOL    HW1 6338   1.290   3.975   0.438
 1988SOL    HW2 6339   1.245   4.099   0.533
 1989SOL     OW 6340   0.594   4.469   0.652
 1989SOL    HW1 6341   0.644   4.554   0.633
 1989SOL    HW2 6342   0.506   4.471   0.604
 1990SOL     OW 6343   1.777   4.066   1.642
 1990SOL    HW1 6344   1.760   4.097   1.548
 1990SOL    HW2 6345   1.693   4.029   1.680
 1991SOL     OW 6346   1.730   4.658   1.517
 1991SOL    HW1 6347   1.768   4.749   1.532
 1991SOL    HW2 6348   1.722   4.641   1.418
 1992SOL     OW 6349   0.859   5.098   0.016
 1992SOL    HW1 6350   0.813   5.113   0.104
 1992SOL    HW2 6351   0.903   5.183  -0.014
 1993SOL     OW 6352   0.859   4.680   0.861
 1993SOL    HW1 6353   0.913   4.611   0.909
 1993SOL    HW2 6354   0.827   4.749   0.927
 1994SOL     OW 6355   1.083   4.708   0.087
 1994SOL    HW1 6356   1.060   4.761   0.005
 1994SOL    HW2 6357   1.164   4.652   0.068
 1995SOL     OW 6358   0.221   5.038   1.844
 1995SOL    HW1 6359   0.156   4.965   1.823
 1995SOL    HW2 6360   0.225   5.052   1.942
 1996SOL     OW 6361   0.079   4.964   0.653
 1996SOL    HW1 6362   0.078   4.917   0.741
 1996SOL    HW2 6363   0.161   4.936   0.602
 1997SOL     OW 6364   0.672   5.115   1.624
 1997SOL    HW1 6365   0.594   5.065   1.662
 1997SOL    HW2 6366   0.669   5.210   1.655
 1998SOL     OW 6367   1.824   3.916   1.227
 1998SOL    HW1 6368   1.820   3.826   1.271
 1998SOL    HW2 6369   1.827   3.905   1.128
 1999SOL     OW 6370   0.428   4.148   0.520
 1999SOL    HW1 6371   0.458   4.076   0.458
 1999SOL    HW2 6372   0.389   4.108   0.603
 2000SOL     OW 6373   1.705   5.211   1.104
 2000SOL    HW1 6374   1.612   5.186   1.077
 2000SOL    HW2 6375   1.731   5.161   1.186
 2001SOL     OW 6376   0.317   4.271   1.280
 2001SOL    HW1 6377   0.355   4.212   1.352
 2001SOL    HW2 6378   0.357   4.245   1.192
 2002SOL     OW 6379   1.424   3.938   1.112
 2002SOL    HW1 6380   1.476   3.873   1.167
 2002SOL    HW2 6381   1.375   4.001   1.173
 2003SOL     OW 6382   1.001   3.758   1.154
 2003SOL    HW1 6383   0.938   3.686   1.123
 2003SOL    HW2 6384   1.094   3.722   1.154
 2004SOL     OW 6385   0.770   5.054   0.301
 2004SOL    HW1 6386   0.724   4.967   0.318
 2004SOL    HW2 6387   0.861   5.051   0.342
 2005SOL     OW 6388   0.618   5.291   1.284
 2005SOL    HW1 6389   0.613   5.373   1.341
 2005SOL    HW2 6390   0.707   5.288   1.239
 2006SOL     OW 6391   1.352   3.776   0.168
 2006SOL    HW1 6392   1.387   3.735   0.084
 2006SOL    HW2 6393   1.262   3.738   0.188
 2007SOL     OW 6394   1.300   4.177   0.691
 2007SOL    HW1 6395   1.241   4.257   0.695
 2007SOL    HW2 6396   1.315   4.142   0.784
 2008SOL     OW 6397   1.593   3.945   0.882
 2008SOL    HW1 6398   1.509   3.944   0.936
 2008SOL    HW2 6399   1.595   4.028   0.826
 2009SOL     OW 6400   0.039   4.801   0.300
 2009SOL    HW1 6401   0.138   4.790   0.291
 2009SOL    HW2 6402  -0.001   4.715   0.332
 2010SOL     OW 6403   0.230   4.352   1.975
 2010SOL    HW1 6404   0.137   4.350   2.012
 2010SOL    HW2 6405   0.231   4.313   1.883
 2011SOL     OW 6406   0.225   3.999   2.858
 2011SOL    HW1 6407   0.260   3.982   2.950
 2011SOL    HW2 6408   0.137   3.954   2.846
 2012SOL     OW 6409   0.019   4.092   2.509
 2012SOL    HW1 6410  -0.063   4.135   2.548
 2012SOL    HW2 6411  -0.009   4.019   2.446
 2013SOL     OW 6412   0.569   4.999   3.027
 2013SOL    HW1 6413   0.476   4.992   2.990
 2013SOL    HW2 6414   0.580   5.088   3.071
 2014SOL     OW 6415   1.555   5.235   2.565
 2014SOL    HW1 6416   1.498   5.219   2.646
 2014SOL    HW2 6417   1.496   5.245   2.485
 2015SOL     OW 6418   1.135   4.427   2.579
 2015SOL    HW1 6419   1.192   4.505   2.554
 2015SOL    HW2 6420   1.075   4.453   2.655
 2016SOL     OW 6421   1.755   4.331   2.093
 2016SOL    HW1 6422   1.743   4.318   1.994
 2016SOL    HW2 6423   1.725   4.250   2.142
 2017SOL     OW 6424   0.768   4.868   2.885
 2017SOL    HW1 6425   0.690   4.885   2.945
 2017SOL    HW2 6426   0.802   4.955   2.849
 2018SOL     OW 6427   0.850   4.522   3.685
 2018SOL    HW1 6428   0.846   4.598   3.750
 2018SOL    HW2 6429   0.872   4.558   3.594
 2019SOL     OW 6430   0.685   4.736   2.527
 2019SOL    HW1 6431   0.754   4.720   2.597
 2019SOL    HW2 6432   0.612   4.793   2.565
 2020SOL     OW 6433   0.686   4.885   3.665
 2020SOL    HW1 6434   0.746   4.964   3.679
 2020SOL    HW2 6435   0.600   4.916   3.624
 2021SOL     OW 6436   0.335   5.159   2.923
 2021SOL    HW1 6437   0.257   5.128   2.870
 2021SOL    HW2 6438   0.393   5.217   2.866
 2022SOL     OW 6439   1.460   5.229   3.201
 2022SOL    HW1 6440   1.484   5.323   3.227
 2022SOL    HW2 6441   1.444   5.175   3.283
 2023SOL     OW 6442   0.438   4.116   3.361
 2023SOL    HW1 6443   0.520   4.060   3.370
 2023SOL    HW2 6444   0.357   4.058   3.365
 2024SOL     OW 6445   1.603   4.171   2.599
 2024SOL    HW1 6446   1.529   4.217   2.549
 2024SOL    HW2 6447   1.654   4.239   2.652
 2025SOL     OW 6448   1.127   5.065   3.552
 2025SOL    HW1 6449   1.174   5.065   3.640
 2025SOL    HW2 6450   1.079   4.978   3.541
 2026SOL     OW 6451   0.230   5.158   2.400
 2026SOL    HW1 6452   0.204   5.254   2.400
 2026SOL    HW2 6453   0.159   5.104   2.445
 2027SOL     OW 6454   0.240   4.815   2.748
 2027SOL    HW1 6455   0.254   4.731   2.800
 2027SOL    HW2 6456   0.185   4.879   2.803
 2028SOL     OW 6457   0.606   4.688   1.985
 2028SOL    HW1 6458   0.613   4.772   1.931
 2028SOL    HW2 6459   0.652   4.701   2.073
 2029SOL     OW 6460   1.594   3.838   3.342
 2029SOL    HW1 6461   1.576   3.905   3.270
 2029SOL    HW2 6462   1.591   3.884   3.431
 2030SOL     OW 6463   0.122   4.367   2.425
 2030SOL    HW1 6464   0.077   4.279   2.442
 2030SOL    HW2 6465   0.121   4.421   2.509
 2031SOL     OW 6466   0.027   5.320   1.979
 2031SOL    HW1 6467   0.008   5.224   2.000
 2031SOL    HW2 6468  -0.006   5.378   2.054
 2032SOL     OW 6469   1.689   4.646   2.474
 2032SOL    HW1 6470   1.784   4.617   2.482
 2032SOL    HW2 6471   1.681   4.711   2.399
 2033SOL     OW 6472   1.641   4.832   2.294
 2033SOL    HW1 6473   1.727   4.834   2.242
 2033SOL    HW2 6474   1.655   4.879   2.382
 2034SOL     OW 6475   0.113   4.461   3.459
 2034SOL    HW1 6476   0.201   4.448   3.504
 2034SOL    HW2 6477   0.100   4.558   3.437
 2035SOL     OW 6478   0.613   5.089   2.588
 2035SOL    HW1 6479   0.564   5.002   2.597
 2035SOL    HW2 6480   0.590   5.132   2.501
 2036SOL     OW 6481   1.293   4.952   3.285
 2036SOL    HW1 6482   1.330   4.879   3.227
 2036SOL    HW2 6483   1.345   4.957   3.370
 2037SOL     OW 6484   0.809   3.728   2.364
 2037SOL    HW1 6485   0.849   3.819   2.355
 2037SOL    HW2 6486   0.709   3.736   2.370
 2038SOL     OW 6487   0.197   4.700   3.126
 2038SOL    HW1 6488   0.286   4.655   3.112
 2038SOL    HW2 6489   0.124   4.635   3.107
 2039SOL     OW 6490   1.525   4.723   2.052
 2039SOL    HW1 6491   1.462   4.647   2.065
 2039SOL    HW2 6492   1.573   4.741   2.138
 2040SOL     OW 6493   0.317   3.975   3.663
 2040SOL    HW1 6494   0.388   4.046   3.669
 2040SOL    HW2 6495   0.229   4.014   3.691
 2041SOL     OW 6496   1.466   5.141   2.815
 2041SOL    HW1 6497   1.407   5.147   2.895
 2041SOL    HW2 6498   1.451   5.053   2.769
 2042SOL     OW 6499   0.598   4.453   2.132
 2042SOL    HW1 6500   0.622   4.522   2.064
 2042SOL    HW2 6501   0.520   4.486   2.186
 2043SOL     OW 6502   1.281   4.069   2.806
 2043SOL    HW1 6503   1.195   4.019   2.793
 2043SOL    HW2 6504   1.343   4.015   2.862
 2044SOL     OW 6505   0.807   4.329   3.327
 2044SOL    HW1 6506   0.760   4.326   3.416
 2044SOL    HW2 6507   0.756   4.274   3.261
 2045SOL     OW 6508   1.394   4.193   3.536
 2045SOL    HW1 6509   1.374   4.236   3.624
 2045SOL    HW2 6510   1.472   4.131   3.545
 2046SOL     OW 6511   0.973   4.614   3.434
 2046SOL    HW1 6512   1.019   4.530   3.405
 2046SOL    HW2 6513   0.917   4.648   3.359
 2047SOL     OW 6514   0.991   4.134   3.104
 2047SOL    HW1 6515   0.914   4.168   3.158
 2047SOL    HW2 6516   0.957   4.083   3.025
 2048SOL     OW 6517   1.041   4.425   2.291
 2048SOL    HW1 6518   1.067   4.421   2.387
 2048SOL    HW2 6519   0.956   4.374   2.277
 2049SOL     OW 6520   0.076   4.535   2.651
 2049SOL    HW1 6521   0.175   4.523   2.660
 2049SOL    HW2 6522   0.052   4.630   2.672
 2050SOL     OW 6523   0.865   4.072   2.057
 2050SOL    HW1 6524   0.924   4.135   2.008
 2050SOL    HW2 6525   0.884   3.978   2.028
 2051SOL     OW 6526   1.719   4.309   3.693
 2051SOL    HW1 6527   1.693   4.398   3.657
 2051SOL    HW2 6528   1.717   4.241   3.620
 2052SOL     OW 6529   1.362   4.868   2.407
 2052SOL    HW1 6530   1.445   4.839   2.359
 2052SOL    HW2 6531   1.313   4.935   2.351
 2053SOL     OW 6532   0.550   3.920   2.747
 2053SOL    HW1 6533   0.545   3.915   2.847
 2053SOL    HW2 6534   0.552   4.016   2.718
 2054SOL     OW 6535   1.008   5.180   2.339
 2054SOL    HW1 6536   0.962   5.252   2.287
 2054SOL    HW2 6537   1.004   5.200   2.437
 2055SOL     OW 6538   1.795   4.790   2.735
 2055SOL    HW1 6539   1.733   4.775   2.659
 2055SOL    HW2 6540   1.743   4.801   2.820
 2056SOL     OW 6541   1.227   5.274   3.368
 2056SOL    HW1 6542   1.233   5.197   3.432
 2056SOL    HW2 6543   1.175   5.248   3.288
 2057SOL     OW 6544   0.321   4.667   2.104
 2057SOL    HW1 6545   0.403   4.706   2.062
 2057SOL    HW2 6546   0.294   4.585   2.055
 2058SOL     OW 6547   1.458   4.459   2.590
 2058SOL    HW1 6548   1.453   4.394   2.665
 2058SOL    HW2 6549   1.538   4.518   2.603
 2059SOL     OW 6550   0.461   4.990   3.589
 2059SOL    HW1 6551   0.411   4.991   3.503
 2059SOL    HW2 6552   0.398   4.972   3.665
 2060SOL     OW 6553   1.111   5.500   2.099
 2060SOL    HW1 6554   1.051   5.438   2.149
 2060SOL    HW2 6555   1.142   5.456   2.014
 2061SOL     OW 6556   0.202   4.009   3.360
 2061SOL    HW1 6557   0.122   4.069   3.347
 2061SOL    HW2 6558   0.192   3.960   3.446
 2062SOL     OW 6559   1.632   5.101   1.943
 2062SOL    HW1 6560   1.600   5.195   1.933
 2062SOL    HW2 6561   1.556   5.038   1.931
 2063SOL     OW 6562   1.400   3.831   2.288
 2063SOL    HW1 6563   1.376   3.794   2.198
 2063SOL    HW2 6564   1.499   3.847   2.292
 2064SOL     OW 6565   0.382   4.424   2.342
 2064SOL    HW1 6566   0.427   4.334   2.339
 2064SOL    HW2 6567   0.288   4.413   2.375
 2065SOL     OW 6568   1.547   3.946   3.591
 2065SOL    HW1 6569   1.542   3.983   3.683
 2065SOL    HW2 6570   1.475   3.877   3.579
 2066SOL     OW 6571   0.614   3.846   1.979
 2066SOL    HW1 6572   0.712   3.824   1.986
 2066SOL    HW2 6573   0.583   3.829   1.886
 2067SOL     OW 6574   0.781   3.988   3.611
 2067SOL    HW1 6575   0.848   3.927   3.654
 2067SOL    HW2 6576   0.708   4.007   3.676
 2068SOL     OW 6577   1.351   4.314   3.295
 2068SOL    HW1 6578   1.379   4.271   3.380
 2068SOL    HW2 6579   1.376   4.410   3.296
 2069SOL     OW 6580   0.803   5.126   2.786
 2069SOL    HW1 6581   0.893   5.140   2.744
 2069SOL    HW2 6582   0.732   5.128   2.715
 2070SOL     OW 6583   0.922   4.227   2.761
 2070SOL    HW1 6584   0.897   4.218   2.665
 2070SOL    HW2 6585   0.970   4.145   2.792
 2071SOL     OW 6586   0.539   3.788   2.374
 2071SOL    HW1 6587   0.458   3.789   2.432
 2071SOL    HW2 6588   0.542   3.871   2.319
 2072SOL     OW 6589   1.434   4.912   1.903
 2072SOL    HW1 6590   1.466   4.836   1.960
 2072SOL    HW2 6591   1.342   4.939   1.933
 2073SOL     OW 6592   0.297   3.759   2.033
 2073SOL    HW1 6593   0.346   3.843   2.012
 2073SOL    HW2 6594   0.359   3.694   2.078
 2074SOL     OW 6595   0.935   3.960   2.342
 2074SOL    HW1 6596   0.887   4.001   2.264
 2074SOL    HW2 6597   1.034   3.958   2.323
 2075SOL     OW 6598   1.076   4.407   3.326
 2075SOL    HW1 6599   0.996   4.346   3.329
 2075SOL    HW2 6600   1.157   4.354   3.302
 2076SOL     OW 6601   1.227   5.294   2.655
 2076SOL    HW1 6602   1.248   5.368   2.590
 2076SOL    HW2 6603   1.295   5.294   2.728
 2077SOL     OW 6604   0.459   4.876   2.603
 2077SOL    HW1 6605   0.388   4.849   2.668
 2077SOL    HW2 6606   0.433   4.848   2.510
 2078SOL     OW 6607   1.032   4.273   1.878
 2078SOL    HW1 6608   0.991   4.355   1.839
 2078SOL    HW2 6609   1.096   4.299   1.951
 2079SOL     OW 6610   0.078   4.280   3.248
 2079SOL    HW1 6611   0.170   4.279   3.207
 2079SOL    HW2 6612   0.072   4.354   3.315
 2080SOL     OW 6613   0.561   3.946   3.009
 2080SOL    HW1 6614   0.599   3.862   3.046
 2080SOL    HW2 6615   0.473   3.965   3.053
 2081SOL     OW 6616   0.866   4.178   2.504
 2081SOL    HW1 6617   0.834   4.250   2.442
 2081SOL    HW2 6618   0.890   4.097   2.451
 2082SOL     OW 6619   1.017   3.763   2.615
 2082SOL    HW1 6620   0.945   3.768   2.546
 2082SOL    HW2 6621   0.993   3.694   2.684
 2083SOL     OW 6622   1.429   4.897   2.729
 2083SOL    HW1 6623   1.374   4.813   2.722
 2083SOL    HW2 6624   1.455   4.926   2.637
 2084SOL     OW 6625   1.466   4.314   2.854
 2084SOL    HW1 6626   1.436   4.219   2.861
 2084SOL    HW2 6627   1.539   4.330   2.920
 2085SOL     OW 6628   1.857   4.557   2.239
 2085SOL    HW1 6629   1.899   4.493   2.303
 2085SOL    HW2 6630   1.819   4.506   2.161
 2086SOL     OW 6631   0.488   5.109   2.036
 2086SOL    HW1 6632   0.401   5.094   2.083
 2086SOL    HW2 6633   0.471   5.135   1.941
 2087SOL     OW 6634   1.664   5.004   2.519
 2087SOL    HW1 6635   1.763   5.012   2.533
 2087SOL    HW2 6636   1.619   5.088   2.550
 2088SOL     OW 6637   1.390   4.299   1.940
 2088SOL    HW1 6638   1.336   4.278   2.021
 2088SOL    HW2 6639   1.481   4.258   1.949
 2089SOL     OW 6640   0.527   3.980   2.190
 2089SOL    HW1 6641   0.554   3.921   2.115
 2089SOL    HW2 6642   0.527   4.075   2.159
 2090SOL     OW 6643   1.754   4.947   3.450
 2090SOL    HW1 6644   1.845   4.908   3.437
 2090SOL    HW2 6645   1.762   5.043   3.474
 2091SOL     OW 6646   1.064   5.071   3.202
 2091SOL    HW1 6647   0.984   5.048   3.257
 2091SOL    HW2 6648   1.147   5.045   3.251
 2092SOL     OW 6649   1.111   4.919   2.962
 2092SOL    HW1 6650   1.071   4.963   3.043
 2092SOL    HW2 6651   1.070   4.956   2.879
 2093SOL     OW 6652   1.638   4.823   2.941
 2093SOL    HW1 6653   1.643   4.904   3.000
 2093SOL    HW2 6654   1.552   4.825   2.890
 2094SOL     OW 6655   0.915   3.813   3.264
 2094SOL    HW1 6656   0.940   3.793   3.169
 2094SOL    HW2 6657   0.987   3.869   3.306
 2095SOL     OW 6658   0.980   4.840   3.581
 2095SOL    HW1 6659   0.881   4.846   3.591
 2095SOL    HW2 6660   1.003   4.760   3.525
 2096SOL     OW 6661   0.705   4.774   2.230
 2096SOL    HW1 6662   0.691   4.781   2.329
 2096SOL    HW2 6663   0.789   4.723   2.212
 2097SOL     OW 6664   0.410   4.537   3.113
 2097SOL    HW1 6665   0.496   4.549   3.163
 2097SOL    HW2 6666   0.368   4.450   3.140
 2098SOL     OW 6667   1.274   4.110   3.124
 2098SOL    HW1 6668   1.295   4.184   3.188
 2098SOL    HW2 6669   1.185   4.127   3.081
 2099SOL     OW 6670   0.064   5.288   3.193
 2099SOL    HW1 6671   0.018   5.370   3.159
 2099SOL    HW2 6672   0.162   5.307   3.202
 2100SOL     OW 6673   0.367   4.824   2.363
 2100SOL    HW1 6674   0.360   4.907   2.307
 2100SOL    HW2 6675   0.371   4.744   2.303
 2101SOL     OW 6676   0.566   4.261   2.727
 2101SOL    HW1 6677   0.578   4.327   2.653
 2101SOL    HW2 6678   0.612   4.295   2.810
 2102SOL     OW 6679   1.252   5.072   2.250
 2102SOL    HW1 6680   1.302   5.149   2.290
 2102SOL    HW2 6681   1.157   5.074   2.282
 2103SOL     OW 6682   1.272   5.169   3.004
 2103SOL    HW1 6683   1.319   5.182   3.091
 2103SOL    HW2 6684   1.206   5.095   3.013
 2104SOL     OW 6685   1.582   4.363   2.334
 2104SOL    HW1 6686   1.551   4.424   2.407
 2104SOL    HW2 6687   1.632   4.415   2.265
 2105SOL     OW 6688   0.354   5.234   3.191
 2105SOL    HW1 6689   0.333   5.190   3.104
 2105SOL    HW2 6690   0.451   5.260   3.194
 2106SOL     OW 6691   0.402   4.475   3.460
 2106SOL    HW1 6692   0.470   4.530   3.413
 2106SOL    HW2 6693   0.442   4.387   3.487
 2107SOL     OW 6694   1.587   4.503   3.532
 2107SOL    HW1 6695   1.495   4.541   3.527
 2107SOL    HW2 6696   1.647   4.550   3.467
 2108SOL     OW 6697   1.013   3.829   3.632
 2108SOL    HW1 6698   1.019   3.914   3.580
 2108SOL    HW2 6699   1.045   3.753   3.575
 2109SOL     OW 6700   0.504   3.774   3.602
 2109SOL    HW1 6701   0.462   3.717   3.532
 2109SOL    HW2 6702   0.438   3.843   3.634
 2110SOL     OW 6703   0.573   4.594   2.891
 2110SOL    HW1 6704   0.617   4.683   2.882
 2110SOL    HW2 6705   0.510   4.594   2.968
 2111SOL     OW 6706   1.360   4.586   2.907
 2111SOL    HW1 6707   1.285   4.586   2.841
 2111SOL    HW2 6708   1.397   4.494   2.916
 2112SOL     OW 6709   1.209   4.249   2.137
 2112SOL    HW1 6710   1.222   4.165   2.191
 2112SOL    HW2 6711   1.180   4.323   2.197
 2113SOL     OW 6712   0.307   3.937   3.093
 2113SOL    HW1 6713   0.284   3.974   3.183
 2113SOL    HW2 6714   0.277   3.842   3.087
 2114SOL     OW 6715   0.037   5.034   3.144
 2114SOL    HW1 6716   0.090   4.985   3.212
 2114SOL    HW2 6717   0.059   5.132   3.149
 2115SOL     OW 6718   0.732   4.358   2.926
 2115SOL    HW1 6719   0.791   4.332   2.850
 2115SOL    HW2 6720   0.704   4.454   2.915
 2116SOL     OW 6721   1.728   4.659   3.716
 2116SOL    HW1 6722   1.682   4.652   3.627
 2116SOL    HW2 6723   1.666   4.703   3.782
 2117SOL     OW 6724   0.307   3.787   2.480
 2117SOL    HW1 6725   0.296   3.881   2.513
 2117SOL    HW2 6726   0.302   3.724   2.557
 2118SOL     OW 6727   1.622   4.091   2.236
 2118SOL    HW1 6728   1.624   4.015   2.300
 2118SOL    HW2 6729   1.574   4.168   2.276
 2119SOL     OW 6730   1.023   4.490   2.828
 2119SOL    HW1 6731   1.038   4.511   2.924
 2119SOL    HW2 6732   0.993   4.395   2.819
 2120SOL     OW 6733   1.859   5.242   3.467
 2120SOL    HW1 6734   1.873   5.269   3.372
 2120SOL    HW2 6735   1.942   5.264   3.520
 2121SOL     OW 6736   0.350   4.622   3.666
 2121SOL    HW1 6737   0.426   4.666   3.714
 2121SOL    HW2 6738   0.385   4.575   3.584
 2122SOL     OW 6739   1.540   3.998   1.987
 2122SOL    HW1 6740   1.479   3.923   2.010
 2122SOL    HW2 6741   1.562   4.050   2.070
 2123SOL     OW 6742   1.303   4.562   1.904
 2123SOL    HW1 6743   1.337   4.469   1.919
 2123SOL    HW2 6744   1.321   4.589   1.809
 2124SOL     OW 6745   1.068   5.057   2.711
 2124SOL    HW1 6746   1.075   4.973   2.656
 2124SOL    HW2 6747   1.130   5.126   2.675
 2125SOL     OW 6748   0.319   4.534   2.811
 2125SOL    HW1 6749   0.412   4.570   2.816
 2125SOL    HW2 6750   0.313   4.449   2.863
 2126SOL     OW 6751   0.339   4.233   2.868
 2126SOL    HW1 6752   0.287   4.150   2.851
 2126SOL    HW2 6753   0.416   4.238   2.804
 2127SOL     OW 6754   1.138   4.104   3.540
 2127SOL    HW1 6755   1.093   4.167   3.604
 2127SOL    HW2 6756   1.231   4.135   3.523
 2128SOL     OW 6757   1.160   3.931   3.339
 2128SOL    HW1 6758   1.160   3.995   3.416
 2128SOL    HW2 6759   1.188   3.979   3.256
 2129SOL     OW 6760   0.008   5.050   2.062
 2129SOL    HW1 6761  -0.085   5.071   2.031
 2129SOL    HW2 6762   0.018   4.951   2.075
 2130SOL     OW 6763   1.002   4.520   3.100
 2130SOL    HW1 6764   1.043   4.488   3.186
 2130SOL    HW2 6765   0.906   4.493   3.097
 2131SOL     OW 6766   0.040   4.268   2.976
 2131SOL    HW1 6767   0.125   4.235   2.935
 2131SOL    HW2 6768   0.053   4.283   3.074
 2132SOL     OW 6769   0.189   4.244   3.584
 2132SOL    HW1 6770   0.248   4.204   3.514
 2132SOL    HW2 6771   0.131   4.315   3.543
 2133SOL     OW 6772   1.369   4.674   3.522
 2133SOL    HW1 6773   1.408   4.763   3.542
 2133SOL    HW2 6774   1.379   4.654   3.425
 2134SOL     OW 6775   0.815   4.296   2.187
 2134SOL    HW1 6776   0.822   4.207   2.141
 2134SOL    HW2 6777   0.721   4.330   2.179
 2135SOL     OW 6778   1.657   4.328   3.068
 2135SOL    HW1 6779   1.619   4.259   3.130
 2135SOL    HW2 6780   1.739   4.292   3.024
 2136SOL     OW 6781   0.252   5.288   3.606
 2136SOL    HW1 6782   0.222   5.345   3.682
 2136SOL    HW2 6783   0.245   5.191   3.632
 2137SOL     OW 6784   0.671   4.188   3.131
 2137SOL    HW1 6785   0.637   4.099   3.101
 2137SOL    HW2 6786   0.697   4.242   3.051
 2138SOL     OW 6787   0.473   4.224   2.053
 2138SOL    HW1 6788   0.534   4.304   2.057
 2138SOL    HW2 6789   0.378   4.255   2.060
 2139SOL     OW 6790   0.159   4.861   3.328
 2139SOL    HW1 6791   0.181   4.800   3.404
 2139SOL    HW2 6792   0.169   4.812   3.242
 2140SOL     OW 6793   1.347   4.783   3.096
 2140SOL    HW1 6794   1.371   4.720   3.022
 2140SOL    HW2 6795   1.257   4.823   3.078
 2141SOL     OW 6796   1.302   4.579   2.171
 2141SOL    HW1 6797   1.216   4.548   2.213
 2141SOL    HW2 6798   1.298   4.565   2.072
 2142SOL     OW 6799   0.083   4.982   2.884
 2142SOL    HW1 6800   0.078   4.981   2.984
 2142SOL    HW2 6801   0.000   4.941   2.846
 2143SOL     OW 6802   0.688   5.386   3.578
 2143SOL    HW1 6803   0.632   5.467   3.587
 2143SOL    HW2 6804   0.740   5.390   3.492
 2144SOL     OW 6805   1.726   3.859   2.385
 2144SOL    HW1 6806   1.799   3.842   2.318
 2144SOL    HW2 6807   1.695   3.772   2.423
 2145SOL     OW 6808   1.280   4.651   2.534
 2145SOL    HW1 6809   1.340   4.570   2.536
 2145SOL    HW2 6810   1.320   4.720   2.474
 2146SOL     OW 6811   0.830   4.997   3.284
 2146SOL    HW1 6812   0.825   5.030   3.379
 2146SOL    HW2 6813   0.744   5.016   3.238
 2147SOL     OW 6814   1.841   3.899   2.825
 2147SOL    HW1 6815   1.880   3.814   2.789
 2147SOL    HW2 6816   1.743   3.901   2.806
 2148SOL     OW 6817   0.263   4.050   2.582
 2148SOL    HW1 6818   0.184   4.101   2.548
 2148SOL    HW2 6819   0.254   4.035   2.680
 2149SOL     OW 6820   0.822   4.726   3.234
 2149SOL    HW1 6821   0.862   4.725   3.142
 2149SOL    HW2 6822   0.832   4.818   3.274
 2150SOL     OW 6823   0.916   4.634   2.153
 2150SOL    HW1 6824   0.979   4.672   2.085
 2150SOL    HW2 6825   0.956   4.551   2.192
 2151SOL     OW 6826   0.372   5.012   3.352
 2151SOL    HW1 6827   0.359   5.105   3.318
 2151SOL    HW2 6828   0.288   4.960   3.339
 2152SOL     OW 6829   1.614   5.016   3.151
 2152SOL    HW1 6830   1.674   5.019   3.231
 2152SOL    HW2 6831   1.539   5.080   3.164
 2153SOL     OW 6832   1.039   4.822   2.558
 2153SOL    HW1 6833   0.969   4.775   2.612
 2153SOL    HW2 6834   1.098   4.754   2.515
 2154SOL     OW 6835   1.014   3.960   2.833
 2154SOL    HW1 6836   1.006   3.924   2.740
 2154SOL    HW2 6837   1.012   3.884   2.898
 2155SOL     OW 6838   1.709   4.109   3.243
 2155SOL    HW1 6839   1.782   4.178   3.247
 2155SOL    HW2 6840   1.737   4.034   3.184
 2156SOL     OW 6841   0.255   5.072   2.152
 2156SOL    HW1 6842   0.159   5.073   2.125
 2156SOL    HW2 6843   0.267   5.125   2.236
 2157SOL     OW 6844   0.105   4.737   3.588
 2157SOL    HW1 6845   0.028   4.704   3.642
 2157SOL    HW2 6846   0.190   4.707   3.630
 2158SOL     OW 6847   0.672   3.927   3.351
 2158SOL    HW1 6848   0.762   3.911   3.311
 2158SOL    HW2 6849   0.680   3.932   3.450
 2159SOL     OW 6850   0.075   4.069   1.895
 2159SOL    HW1 6851  -0.017   4.041   1.866
 2159SOL    HW2 6852   0.106   4.146   1.839
 2160SOL     OW 6853   1.440   4.580   3.260
 2160SOL    HW1 6854   1.383   4.632   3.197
 2160SOL    HW2 6855   1.536   4.592   3.236
 2161SOL     OW 6856   0.072   3.890   2.180
 2161SOL    HW1 6857   0.055   3.973   2.126
 2161SOL    HW2 6858   0.162   3.853   2.158
 2162SOL     OW 6859   1.183   5.059   1.981
 2162SOL    HW1 6860   1.084   5.048   1.983
 2162SOL    HW2 6861   1.217   5.074   2.074
 2163SOL     OW 6862   0.613   4.566   3.293
 2163SOL    HW1 6863   0.669   4.647   3.276
 2163SOL    HW2 6864   0.672   4.486   3.296
 2164SOL     OW 6865   0.716   4.289   3.570
 2164SOL    HW1 6866   0.735   4.354   3.644
 2164SOL    HW2 6867   0.776   4.209   3.579
 2165SOL     OW 6868   1.450   4.944   3.495
 2165SOL    HW1 6869   1.441   4.934   3.594
 2165SOL    HW2 6870   1.546   4.937   3.469
 2166SOL     OW 6871   1.674   4.607   3.116
 2166SOL    HW1 6872   1.647   4.518   3.079
 2166SOL    HW2 6873   1.675   4.675   3.043
 2167SOL     OW 6874   1.225   4.049   2.311
 2167SOL    HW1 6875   1.290   3.975   2.300
 2167SOL    HW2 6876   1.245   4.099   2.395
 2168SOL     OW 6877   0.594   4.469   2.514
 2168SOL    HW1 6878   0.644   4.554   2.495
 2168SOL    HW2 6879   0.506   4.471   2.466
 2169SOL     OW 6880   1.777   4.066   3.504
 2169SOL    HW1 6881   1.760   4.097   3.410
 2169SOL    HW2 6882   1.693   4.029   3.542
 2170SOL     OW 6883   1.730   4.658   3.379
 2170SOL    HW1 6884   1.768   4.749   3.394
 2170SOL    HW2 6885   1.722   4.641   3.280
 2171SOL     OW 6886   0.859   5.098   1.878
 2171SOL    HW1 6887   0.813   5.113   1.966
 2171SOL    HW2 6888   0.903   5.183   1.848
 2172SOL     OW 6889   0.859   4.680   2.723
 2172SOL    HW1 6890   0.913   4.611   2.771
 2172SOL    HW2 6891   0.827   4.749   2.789
 2173SOL     OW 6892   1.083   4.708   1.949
 2173SOL    HW1 6893   1.060   4.761   1.867
 2173SOL    HW2 6894   1.164   4.652   1.930
 2174SOL     OW 6895   0.221   5.038   3.706
 2174SOL    HW1 6896   0.156   4.965   3.685
 2174SOL    HW2 6897   0.225   5.052   3.804
 2175SOL     OW 6898   0.079   4.964   2.515
 2175SOL    HW1 6899   0.078   4.917   2.603
 2175SOL    HW2 6900   0.161   4.936   2.464
 2176SOL     OW 6901   0.672   5.115   3.486
 2176SOL    HW1 6902   0.594   5.065   3.524
 2176SOL    HW2 6903   0.669   5.210   3.517
 2177SOL     OW 6904   1.824   3.916   3.089
 2177SOL    HW1 6905   1.820   3.826   3.133
 2177SOL    HW2 6906   1.827   3.905   2.990
 2178SOL     OW 6907   0.428   4.148   2.382
 2178SOL    HW1 6908   0.458   4.076   2.320
 2178SOL    HW2 6909   0.389   4.108   2.465
 2179SOL     OW 6910   1.705   5.211   2.966
 2179SOL    HW1 6911   1.612   5.186   2.939
 2179SOL    HW2 6912   1.731   5.161   3.048
 2180SOL     OW 6913   0.317   4.271   3.142
 2180SOL    HW1 6914   0.355   4.212   3.214
 2180SOL    HW2 6915   0.357   4.245   3.054
 2181SOL     OW 6916   1.424   3.938   2.974
 2181SOL    HW1 6917   1.476   3.873   3.029
 2181SOL    HW2 6918   1.375   4.001   3.035
 2182SOL     OW 6919   1.001   3.758   3.016
 2182SOL    HW1 6920   0.938   3.686   2.985
 2182SOL    HW2 6921   1.094   3.722   3.016
 2183SOL     OW 6922   0.770   5.054   2.163
 2183SOL    HW1 6923   0.724   4.967   2.180
 2183SOL    HW2 6924   0.861   5.051   2.204
 2184SOL     OW 6925   0.618   5.291   3.146
 2184SOL    HW1 6926   0.613   5.373   3.203
 2184SOL    HW2 6927   0.707   5.288   3.101
 2185SOL     OW 6928   1.352   3.776   2.030
 2185SOL    HW1 6929   1.387   3.735   1.946
 2185SOL    HW2 6930   1.262   3.738   2.050
 2186SOL     OW 6931   1.300   4.177   2.553
 2186SOL    HW1 6932   1.241   4.257   2.557
 2186SOL    HW2 6933   1.315   4.142   2.646
 2187SOL     OW 6934   1.593   3.945   2.744
 2187SOL    HW1 6935   1.509   3.944   2.798
 2187SOL    HW2 6936   1.595   4.028   2.688
 2188SOL     OW 6937   0.039   4.801   2.162
 2188SOL    HW1 6938   0.138   4.790   2.153
 2188SOL    HW2 6939  -0.001   4.715   2.194
 2189SOL     OW 6940   0.230   4.352   3.837
 2189SOL    HW1 6941   0.137   4.350   3.874
 2189SOL    HW2 6942   0.231   4.313   3.745
 2190SOL     OW 6943   0.225   3.999   4.720
 2190SOL    HW1 6944   0.260   3.982   4.812
 2190SOL    HW2 6945   0.137   3.954   4.708
 2191SOL     OW 6946   0.019   4.092   4.371
 2191SOL    HW1 6947  -0.063   4.135   4.410
 2191SOL    HW2 6948  -0.009   4.019   4.308
 2192SOL     OW 6949   0.569   4.999   4.889
 2192SOL    HW1 6950   0.476   4.992   4.852
 2192SOL    HW2 6951   0.580   5.088   4.933
 2193SOL     OW 6952   1.555   5.235   4.427
 2193SOL    HW1 6953   1.498   5.219   4.508
 2193SOL    HW2 6954   1.496   5.245   4.347
 2194SOL     OW 6955   1.135   4.427   4.441
 2194SOL    HW1 6956   1.192   4.505   4.416
 2194SOL    HW2 6957   1.075   4.453   4.517
 2195SOL     OW 6958   1.755   4.331   3.955
 2195SOL    HW1 6959   1.743   4.318   3.856
 2195SOL    HW2 6960   1.725   4.250   4.004
 2196SOL     OW 6961   0.768   4.868   4.747
 2196SOL    HW1 6962   0.690   4.885   4.807
 2196SOL    HW2 6963   0.802   4.955   4.711
 2197SOL     OW 6964   0.850   4.522   5.547
 2197SOL    HW1 6965   0.846   4.598   5.612
 2197SOL    HW2 6966   0.872   4.558   5.456
 2198SOL     OW 6967   0.685   4.736   4.389
 2198SOL    HW1 6968   0.754   4.720   4.459
 2198SOL    HW2 6969   0.612   4.793   4.427
 2199SOL     OW 6970   0.686   4.885   5.527
 2199SOL    HW1 6971   0.746   4.964   5.541
 2199SOL    HW2 6972   0.600   4.916   5.486
 2200SOL     OW 6973   0.335   5.159   4.785
 2200SOL    HW1 6974   0.257   5.128   4.732
 2200SOL    HW2 6975   0.393   5.217   4.728
 2201SOL     OW 6976   1.460   5.229   5.063
 2201SOL    HW1 6977   1.484   5.323   5.089
 2201SOL    HW2 6978   1.444   5.175   5.145
 2202SOL     OW 6979   0.438   4.116   5.223
 2202SOL    HW1 6980   0.520   4.060   5.232
 2202SOL    HW2 6981   0.357   4.058   5.227
 2203SOL     OW 6982   1.603   4.171   4.461
 2203SOL    HW1 6983   1.529   4.217   4.411
 2203SOL    HW2 6984   1.654   4.239   4.514
 2204SOL     OW 6985   1.127   5.065   5.414
 2204SOL    HW1 6986   1.174   5.065   5.502
 2204SOL    HW2 6987   1.079   4.978   5.403
 2205SOL     OW 6988   0.230   5.158   4.262
 2205SOL    HW1 6989   0.204   5.254   4.262
 2205SOL    HW2 6990   0.159   5.104   4.307
 2206SOL     OW 6991   0.240   4.815   4.610
 2206SOL    HW1 6992   0.254   4.731   4.662
 2206SOL    HW2 6993   0.185   4.879   4.665
 2207SOL     OW 6994   0.606   4.688   3.847
 2207SOL    HW1 6995   0.613   4.772   3.793
 2207SOL    HW2 6996   0.652   4.701   3.935
 2208SOL     OW 6997   1.594   3.838   5.204
 2208SOL    HW1 6998   1.576   3.905   5.132
 2208SOL    HW2 6999   1.591   3.884   5.293
 2209SOL     OW 7000   0.122   4.367   4.287
 2209SOL    HW1 7001   0.077   4.279   4.304
 2209SOL    HW2 7002   0.121   4.421   4.371
 2210SOL     OW 7003   0.027   5.320   3.841
 2210SOL    HW1 7004   0.008   5.224   3.862
 2210SOL    HW2 7005  -0.006   5.378   3.916
 2211SOL     OW 7006   1.689   4.646   4.336
 2211SOL    HW1 7007   1.784   4.617   4.344
 2211SOL    HW2 7008   1.681   4.711   4.261
 2212SOL     OW 7009   1.641   4.832   4.156
 2212SOL    HW1 7010   1.727   4.834   4.104
 2212SOL    HW2 7011   1.655   4.879   4.244
 2213SOL     OW 7012   0.113   4.461   5.321
 2213SOL    HW1 7013   0.201   4.448   5.366
 2213SOL    HW2 7014   0.100   4.558   5.299
 2214SOL     OW 7015   0.613   5.089   4.450
 2214SOL    HW1 7016   0.564   5.002   4.459
 2214SOL    HW2 7017   0.590   5.132   4.363
 2215SOL     OW 7018   1.293   4.952   5.147
 2215SOL    HW1 7019   1.330   4.879   5.089
 2215SOL    HW2 7020   1.345   4.957   5.232
 2216SOL     OW 7021   0.809   3.728   4.226
 2216SOL    HW1 7022   0.849   3.819   4.217
 2216SOL    HW2 7023   0.709   3.736   4.232
 2217SOL     OW 7024   0.197   4.700   4.988
 2217SOL    HW1 7025   0.286   4.655   4.974
 2217SOL    HW2 7026   0.124   4.635   4.969
 2218SOL     OW 7027   1.525   4.723   3.914
 2218SOL    HW1 7028   1.462   4.647   3.927
 2218SOL    HW2 7029   1.573   4.741   4.000
 2219SOL     OW 7030   0.317   3.975   5.525
 2219SOL    HW1 7031   0.388   4.046   5.531
 2219SOL    HW2 7032   0.229   4.014   5.553
 2220SOL     OW 7033   1.466   5.141   4.677
 2220SOL    HW1 7034   1.407   5.147   4.757
 2220SOL    HW2 7035   1.451   5.053   4.631
 2221SOL     OW 7036   0.598   4.453   3.994
 2221SOL    HW1 7037   0.622   4.522   3.926
 2221SOL    HW2 7038   0.520   4.486   4.048
 2222SOL     OW 7039   1.281   4.069   4.668
 2222SOL    HW1 7040   1.195   4.019   4.655
 2222SOL    HW2 7041   1.343   4.015   4.724
 2223SOL     OW 7042   0.807   4.329   5.189
 2223SOL    HW1 7043   0.760   4.326   5.278
 2223SOL    HW2 7044   0.756   4.274   5.123
 2224SOL     OW 7045   1.394   4.193   5.398
 2224SOL    HW1 7046   1.374   4.236   5.486
 2224SOL    HW2 7047   1.472   4.131   5.407
 2225SOL     OW 7048   0.973   4.614   5.296
 2225SOL    HW1 7049   1.019   4.530   5.267
 2225SOL    HW2 7050   0.917   4.648   5.221
 2226SOL     OW 7051   0.991   4.134   4.966
 2226SOL    HW1 7052   0.914   4.168   5.020
 2226SOL    HW2 7053   0.957   4.083   4.887
 2227SOL     OW 7054   1.041   4.425   4.153
 2227SOL    HW1 7055   1.067   4.421   4.249
 2227SOL    HW2 7056   0.956   4.374   4.139
 2228SOL     OW 7057   0.076   4.535   4.513
 2228SOL    HW1 7058   0.175   4.523   4.522
 2228SOL    HW2 7059   0.052   4.630   4.534
 2229SOL     OW 7060   0.865   4.072   3.919
 2229SOL    HW1 7061   0.924   4.135   3.870
 2229SOL    HW2 7062   0.884   3.978   3.890
 2230SOL     OW 7063   1.719   4.309   5.555
 2230SOL    HW1 7064   1.693   4.398   5.519
 2230SOL    HW2 7065   1.717   4.241   5.482
 2231SOL     OW 7066   1.362   4.868   4.269
 2231SOL    HW1 7067   1.445   4.839   4.221
 2231SOL    HW2 7068   1.313   4.935   4.213
 2232SOL     OW 7069   0.550   3.920   4.609
 2232SOL    HW1 7070   0.545   3.915   4.709
 2232SOL    HW2 7071   0.552   4.016   4.580
 2233SOL     OW 7072   1.008   5.180   4.201
 2233SOL    HW1 7073   0.962   5.252   4.149
 2233SOL    HW2 7074   1.004   5.200   4.299
 2234SOL     OW 7075   1.795   4.790   4.597
 2234SOL    HW1 7076   1.733   4.775   4.521
 2234SOL    HW2 7077   1.743   4.801   4.682
 2235SOL     OW 7078   1.227   5.274   5.230
 2235SOL    HW1 7079   1.233   5.197   5.294
 2235SOL    HW2 7080   1.175   5.248   5.150
 2236SOL     OW 7081   0.321   4.667   3.966
 2236SOL    HW1 7082   0.403   4.706   3.924
 2236SOL    HW2 7083   0.294   4.585   3.917
 2237SOL     OW 7084   1.458   4.459   4.452
 2237SOL    HW1 7085   1.453   4.394   4.527
 2237SOL    HW2 7086   1.538   4.518   4.465
 2238SOL     OW 7087   0.461   4.990   5.451
 2238SOL    HW1 7088   0.411   4.991   5.365
 2238SOL    HW2 7089   0.398   4.972   5.527
 2239SOL     OW 7090   1.111   5.500   3.961
 2239SOL    HW1 7091   1.051   5.438   4.011
 2239SOL    HW2 7092   1.142   5.456   3.876
 2240SOL     OW 7093   0.202   4.009   5.222
 2240SOL    HW1 7094   0.122   4.069   5.209
 2240SOL    HW2 7095   0.192   3.960   5.308
 2241SOL     OW 7096   1.632   5.101   3.805
 2241SOL    HW1 7097   1.600   5.195   3.795
 2241SOL    HW2 7098   1.556   5.038   3.793
 2242SOL     OW 7099   1.400   3.831   4.150
 2242SOL    HW1 7100   1.376   3.794   4.060
 2242SOL    HW2 7101   1.499   3.847   4.154
 2243SOL     OW 7102   0.382   4.424   4.204
 2243SOL    HW1 7103   0.427   4.334   4.201
 2243SOL    HW2 7104   0.288   4.413   4.237
 2244SOL     OW 7105   1.547   3.946   5.453
 2244SOL    HW1 7106   1.542   3.983   5.545
 2244SOL    HW2 7107   1.475   3.877   5.441
 2245SOL     OW 7108   0.614   3.846   3.841
 2245SOL    HW1 7109   0.712   3.824   3.848
 2245SOL    HW2 7110   0.583   3.829   3.748
 2246SOL     OW 7111   0.781   3.988   5.473
 2246SOL    HW1 7112   0.848   3.927   5.516
 2246SOL    HW2 7113   0.708   4.007   5.538
 2247SOL     OW 7114   1.351   4.314   5.157
 2247SOL    HW1 7115   1.379   4.271   5.242
 2247SOL    HW2 7116   1.376   4.410   5.158
 2248SOL     OW 7117   0.803   5.126   4.648
 2248SOL    HW1 7118   0.893   5.140   4.606
 2248SOL    HW2 7119   0.732   5.128   4.577
 2249SOL     OW 7120   0.922   4.227   4.623
 2249SOL    HW1 7121   0.897   4.218   4.527
 2249SOL    HW2 7122   0.970   4.145   4.654
 2250SOL     OW 7123   0.539   3.788   4.236
 2250SOL    HW1 7124   0.458   3.789   4.294
 2250SOL    HW2 7125   0.542   3.871   4.181
 2251SOL     OW 7126   1.434   4.912   3.765
 2251SOL    HW1 7127   1.466   4.836   3.822
 2251SOL    HW2 7128   1.342   4.939   3.795
 2252SOL     OW 7129   0.297   3.759   3.895
 2252SOL    HW1 7130   0.346   3.843   3.874
 2252SOL    HW2 7131   0.359   3.694   3.940
 2253SOL     OW 7132   0.935   3.960   4.204
 2253SOL    HW1 7133   0.887   4.001   4.126
 2253SOL    HW2 7134   1.034   3.958   4.185
 2254SOL     OW 7135   1.076   4.407   5.188
 2254SOL    HW1 7136   0.996   4.346   5.191
 2254SOL    HW2 7137   1.157   4.354   5.164
 2255SOL     OW 7138   1.227   5.294   4.517
 2255SOL    HW1 7139   1.248   5.368   4.452
 2255SOL    HW2 7140   1.295   5.294   4.590
 2256SOL     OW 7141   0.459   4.876   4.465
 2256SOL    HW1 7142   0.388   4.849   4.530
 2256SOL    HW2 7143   0.433   4.848   4.372
 2257SOL     OW 7144   1.032   4.273   3.740
 2257SOL    HW1 7145   0.991   4.355   3.701
 2257SOL    HW2 7146   1.096   4.299   3.813
 2258SOL     OW 7147   0.078   4.280   5.110
 2258SOL    HW1 7148   0.170   4.279   5.069
 2258SOL    HW2 7149   0.072   4.354   5.177
 2259SOL     OW 7150   0.561   3.946   4.871
 2259SOL    HW1 7151   0.599   3.862   4.908
 2259SOL    HW2 7152   0.473   3.965   4.915
 2260SOL     OW 7153   0.866   4.178   4.366
 2260SOL    HW1 7154   0.834   4.250   4.304
 2260SOL    HW2 7155   0.890   4.097   4.313
 2261SOL     OW 7156   1.017   3.763   4.477
 2261SOL    HW1 7157   0.945   3.768   4.408
 2261SOL    HW2 7158   0.993   3.694   4.546
 2262SOL     OW 7159   1.429   4.897   4.591
 2262SOL    HW1 7160   1.374   4.813   4.584
 2262SOL    HW2 7161   1.455   4.926   4.499
 2263SOL     OW 7162   1.466   4.314   4.716
 2263SOL    HW1 7163   1.436   4.219   4.723
 2263SOL    HW2 7164   1.539   4.330   4.782
 2264SOL     OW 7165   1.857   4.557   4.101
 2264SOL    HW1 7166   1.899   4.493   4.165
 2264SOL    HW2 7167   1.819   4.506   4.023
 2265SOL     OW 7168   0.488   5.109   3.898
 2265SOL    HW1 7169   0.401   5.094   3.945
 2265SOL    HW2 7170   0.471   5.135   3.803
 2266SOL     OW 7171   1.664   5.004   4.381
 2266SOL    HW1 7172   1.763   5.012   4.395
 2266SOL    HW2 7173   1.619   5.088   4.412
 2267SOL     OW 7174   1.390   4.299   3.802
 2267SOL    HW1 7175   1.336   4.278   3.883
 2267SOL    HW2 7176   1.481   4.258   3.811
 2268SOL     OW 7177   0.527   3.980   4.052
 2268SOL    HW1 7178   0.554   3.921   3.977
 2268SOL    HW2 7179   0.527   4.075   4.021
 2269SOL     OW 7180   1.754   4.947   5.312
 2269SOL    HW1 7181   1.845   4.908   5.299
 2269SOL    HW2 7182   1.762   5.043   5.336
 2270SOL     OW 7183   1.064   5.071   5.064
 2270SOL    HW1 7184   0.984   5.048   5.119
 2270SOL    HW2 7185   1.147   5.045   5.113
 2271SOL     OW 7186   1.111   4.919   4.824
 2271SOL    HW1 7187   1.071   4.963   4.905
 2271SOL    HW2 7188   1.070   4.956   4.741
 2272SOL     OW 7189   1.638   4.823   4.803
 2272SOL    HW1 7190   1.643   4.904   4.862
 2272SOL    HW2 7191   1.552   4.825   4.752
 2273SOL     OW 7192   0.915   3.813   5.126
 2273SOL    HW1 7193   0.940   3.793   5.031
 2273SOL    HW2 7194   0.987   3.869   5.168
 2274SOL     OW 7195   0.980   4.840   5.443
 2274SOL    HW1 7196   0.881   4.846   5.453
 2274SOL    HW2 7197   1.003   4.760   5.387
 2275SOL     OW 7198   0.705   4.774   4.092
 2275SOL    HW1 7199   0.691   4.781   4.191
 2275SOL    HW2 7200   0.789   4.723   4.074
 2276SOL     OW 7201   0.410   4.537   4.975
 2276SOL    HW1 7202   0.496   4.549   5.025
 2276SOL    HW2 7203   0.368   4.450   5.002
 2277SOL     OW 7204   1.274   4.110   4.986
 2277SOL    HW1 7205   1.295   4.184   5.050
 2277SOL    HW2 7206   1.185   4.127   4.943
 2278SOL     OW 7207   0.064   5.288   5.055
 2278SOL    HW1 7208   0.018   5.370   5.021
 2278SOL    HW2 7209   0.162   5.307   5.064
 2279SOL     OW 7210   0.367   4.824   4.225
 2279SOL    HW1 7211   0.360   4.907   4.169
 2279SOL    HW2 7212   0.371   4.744   4.165
 2280SOL     OW 7213   0.566   4.261   4.589
 2280SOL    HW1 7214   0.578   4.327   4.515
 2280SOL    HW2 7215   0.612   4.295   4.672
 2281SOL     OW 7216   1.252   5.072   4.112
 2281SOL    HW1 7217   1.302   5.149   4.152
 2281SOL    HW2 7218   1.157   5.074   4.144
 2282SOL     OW 7219   1.272   5.169   4.866
 2282SOL    HW1 7220   1.319   5.182   4.953
 2282SOL    HW2 7221   1.206   5.095   4.875
 2283SOL     OW 7222   1.582   4.363   4.196
 2283SOL    HW1 7223   1.551   4.424   4.269
 2283SOL    HW2 7224   1.632   4.415   4.127
 2284SOL     OW 7225   0.354   5.234   5.053
 2284SOL    HW1 7226   0.333   5.190   4.966
 2284SOL    HW2 7227   0.451   5.260   5.056
 2285SOL     OW 7228   0.402   4.475   5.322
 2285SOL    HW1 7229   0.470   4.530   5.275
 2285SOL    HW2 7230   0.442   4.387   5.349
 2286SOL     OW 7231   1.587   4.503   5.394
 2286SOL    HW1 7232   1.495   4.541   5.389
 2286SOL    HW2 7233   1.647   4.550   5.329
 2287SOL     OW 7234   1.013   3.829   5.494
 2287SOL    HW1 7235   1.019   3.914   5.442
 2287SOL    HW2 7236   1.045   3.753   5.437
 2288SOL     OW 7237   0.504   3.774   5.464
 2288SOL    HW1 7238   0.462   3.717   5.394
 2288SOL    HW2 7239   0.438   3.843   5.496
 2289SOL     OW 7240   0.573   4.594   4.753
 2289SOL    HW1 7241   0.617   4.683   4.744
 2289SOL    HW2 7242   0.510   4.594   4.830
 2290SOL     OW 7243   1.360   4.586   4.769
 2290SOL    HW1 7244   1.285   4.586   4.703
 2290SOL    HW2 7245   1.397   4.494   4.778
 2291SOL     OW 7246   1.209   4.249   3.999
 2291SOL    HW1 7247   1.222   4.165   4.053
 2291SOL    HW2 7248   1.180   4.323   4.059
 2292SOL     OW 7249   0.307   3.937   4.955
 2292SOL    HW1 7250   0.284   3.974   5.045
 2292SOL    HW2 7251   0.277   3.842   4.949
 2293SOL     OW 7252   0.037   5.034   5.006
 2293SOL    HW1 7253   0.090   4.985   5.074
 2293SOL    HW2 7254   0.059   5.132   5.011
 2294SOL     OW 7255   0.732   4.358   4.788
 2294SOL    HW1 7256   0.791   4.332   4.712
 2294SOL    HW2 7257   0.704   4.454   4.777
 2295SOL     OW 7258   1.728   4.659   5.578
 2295SOL    HW1 7259   1.682   4.652   5.489
 2295SOL    HW2 7260   1.666   4.703   5.644
 2296SOL     OW 7261   0.307   3.787   4.342
 2296SOL    HW1 7262   0.296   3.881   4.375
 2296SOL    HW2 7263   0.302   3.724   4.419
 2297SOL     OW 7264   1.622   4.091   4.098
 2297SOL    HW1 7265   1.624   4.015   4.162
 2297SOL    HW2 7266   1.574   4.168   4.138
 2298SOL     OW 7267   1.023   4.490   4.690
 2298SOL    HW1 7268   1.038   4.511   4.786
 2298SOL    HW2 7269   0.993   4.395   4.681
 2299SOL     OW 7270   1.859   5.242   5.329
 2299SOL    HW1 7271   1.873   5.269   5.234
 2299SOL    HW2 7272   1.942   5.264   5.382
 2300SOL     OW 7273   0.350   4.622   5.528
 2300SOL    HW1 7274   0.426   4.666   5.576
 2300SOL    HW2 7275   0.385   4.575   5.446
 2301SOL     OW 7276   1.540   3.998   3.849
 2301SOL    HW1 7277   1.479   3.923   3.872
 2301SOL    HW2 7278   1.562   4.050   3.932
 2302SOL     OW 7279   1.303   4.562   3.766
 2302SOL    HW1 7280   1.337   4.469   3.781
 2302SOL    HW2 7281   1.321   4.589   3.671
 2303SOL     OW 7282   1.068   5.057   4.573
 2303SOL    HW1 7283   1.075   4.973   4.518
 2303SOL    HW2 7284   1.130   5.126   4.537
 2304SOL     OW 7285   0.319   4.534   4.673
 2304SOL    HW1 7286   0.412   4.570   4.678
 2304SOL    HW2 7287   0.313   4.449   4.725
 2305SOL     OW 7288   0.339   4.233   4.730
 2305SOL    HW1 7289   0.287   4.150   4.713
 2305SOL    HW2 7290   0.416   4.238   4.666
 2306SOL     OW 7291   1.138   4.104   5.402
 2306SOL    HW1 7292   1.093   4.167   5.466
 2306SOL    HW2 7293   1.231   4.135   5.385
 2307SOL     OW 7294   1.160   3.931   5.201
 2307SOL    HW1 7295   1.160   3.995   5.278
 2307SOL    HW2 7296   1.188   3.979   5.118
 2308SOL     OW 7297   0.008   5.050   3.924
 2308SOL    HW1 7298  -0.085   5.071   3.893
 2308SOL    HW2 7299   0.018   4.951   3.937
 2309SOL     OW 7300   1.002   4.520   4.962
 2309SOL    HW1 7301   1.043   4.488   5.048
 2309SOL    HW2 7302   0.906   4.493   4.959
 2310SOL     OW 7303   0.040   4.268   4.838
 2310SOL    HW1 7304   0.125   4.235   4.797
 2310SOL    HW2 7305   0.053   4.283   4.936
 2311SOL     OW 7306   0.189   4.244   5.446
 2311SOL    HW1 7307   0.248   4.204   5.376
 2311SOL    HW2 7308   0.131   4.315   5.405
 2312SOL     OW 7309   1.369   4.674   5.384
 2312SOL    HW1 7310   1.408   4.763   5.404
 2312SOL    HW2 7311   1.379   4.654   5.287
 2313SOL     OW 7312   0.815   4.296   4.049
 2313SOL    HW1 7313   0.822   4.207   4.003
 2313SOL    HW2 7314   0.721   4.330   4.041
 2314SOL     OW 7315   1.657   4.328   4.930
 2314SOL    HW1 7316   1.619   4.259   4.992
 2314SOL    HW2 7317   1.739   4.292   4.886
 2315SOL     OW 7318   0.252   5.288   5.468
 2315SOL    HW1 7319   0.222   5.345   5.544
 2315SOL    HW2 7320   0.245   5.191   5.494
 2316SOL     OW 7321   0.671   4.188   4.993
 2316SOL    HW1 7322   0.637   4.099   4.963
 2316SOL    HW2 7323   0.697   4.242   4.913
 2317SOL     OW 7324   0.473   4.224   3.915
 2317SOL    HW1 7325   0.534   4.304   3.919
 2317SOL    HW2 7326   0.378   4.255   3.922
 2318SOL     OW 7327   0.159   4.861   5.190
 2318SOL    HW1 7328   0.181   4.800   5.266
 2318SOL    HW2 7329   0.169   4.812   5.104
 2319SOL     OW 7330   1.347   4.783   4.958
 2319SOL    HW1 7331   1.371   4.720   4.884
 2319SOL    HW2 7332   1.257   4.823   4.940
 2320SOL     OW 7333   1.302   4.579   4.033
 2320SOL    HW1 7334   1.216   4.548   4.075
 2320SOL    HW2 7335   1.298   4.565   3.934
 2321SOL     OW 7336   0.083   4.982   4.746
 2321SOL    HW1 7337   0.078   4.981   4.846
 2321SOL    HW2 7338   0.000   4.941   4.708
 2322SOL     OW 7339   0.688   5.386   5.440
 2322SOL    HW1 7340   0.632   5.467   5.449
 2322SOL    HW2 7341   0.740   5.390   5.354
 2323SOL     OW 7342   1.726   3.859   4.247
 2323SOL    HW1 7343   1.799   3.842   4.180
 2323SOL    HW2 7344   1.695   3.772   4.285
 2324SOL     OW 7345   1.280   4.651   4.396
 2324SOL    HW1 7346   1.340   4.570   4.398
 2324SOL    HW2 7347   1.320   4.720   4.336
 2325SOL     OW 7348   0.830   4.997   5.146
 2325SOL    HW1 7349   0.825   5.030   5.241
 2325SOL    HW2 7350   0.744   5.016   5.100
 2326SOL     OW 7351   1.841   3.899   4.687
 2326SOL    HW1 7352   1.880   3.814   4.651
 2326SOL    HW2 7353   1.743   3.901   4.668
 2327SOL     OW 7354   0.263   4.050   4.444
 2327SOL    HW1 7355   0.184   4.101   4.410
 2327SOL    HW2 7356   0.254   4.035   4.542
 2328SOL     OW 7357   0.822   4.726   5.096
 2328SOL    HW1 7358   0.862   4.725   5.004
 2328SOL    HW2 7359   0.832   4.818   5.136
 2329SOL     OW 7360   0.916   4.634   4.015
 2329SOL    HW1 7361   0.979   4.672   3.947
 2329SOL    HW2 7362   0.956   4.551   4.054
 2330SOL     OW 7363   0.372   5.012   5.214
 2330SOL    HW1 7364   0.359   5.105   5.180
 2330SOL    HW2 7365   0.288   4.960   5.201
 2331SOL     OW 7366   1.614   5.016   5.013
 2331SOL    HW1 7367   1.674   5.019   5.093
 2331SOL    HW2 7368   1.539   5.080   5.026
 2332SOL     OW 7369   1.039   4.822   4.420
 2332SOL    HW1 7370   0.969   4.775   4.474
 2332SOL    HW2 7371   1.098   4.754   4.377
 2333SOL     OW 7372   1.014   3.960   4.695
 2333SOL    HW1 7373   1.006   3.924   4.602
 2333SOL    HW2 7374   1.012   3.884   4.760
 2334SOL     OW 7375   1.709   4.109   5.105
 2334SOL    HW1 7376   1.782   4.178   5.109
 2334SOL    HW2 7377   1.737   4.034   5.046
 2335SOL     OW 7378   0.255   5.072   4.014
 2335SOL    HW1 7379   0.159   5.073   3.987
 2335SOL    HW2 7380   0.267   5.125   4.098
 2336SOL     OW 7381   0.105   4.737   5.450
 2336SOL    HW1 7382   0.028   4.704   5.504
 2336SOL    HW2 7383   0.190   4.707   5.492
 2337SOL     OW 7384   0.672   3.927   5.213
 2337SOL    HW1 7385   0.762   3.911   5.173
 2337SOL    HW2 7386   0.680   3.932   5.312
 2338SOL     OW 7387   0.075   4.069   3.757
 2338SOL    HW1 7388  -0.017   4.041   3.728
 2338SOL    HW2 7389   0.106   4.146   3.701
 2339SOL     OW 7390   1.440   4.580   5.122
 2339SOL    HW1 7391   1.383   4.632   5.059
 2339SOL    HW2 7392   1.536   4.592   5.098
 2340SOL     OW 7393   0.072   3.890   4.042
 2340SOL    HW1 7394   0.055   3.973   3.988
 2340SOL    HW2 7395   0.162   3.853   4.020
 2341SOL     OW 7396   1.183   5.059   3.843
 2341SOL    HW1 7397   1.084   5.048   3.845
 2341SOL    HW2 7398   1.217   5.074   3.936
 2342SOL     OW 7399   0.613   4.566   5.155
 2342SOL    HW1 7400   0.669   4.647   5.138
 2342SOL    HW2 7401   0.672   4.486   5.158
 2343SOL     OW 7402   0.716   4.289   5.432
 2343SOL    HW1 7403   0.735   4.354   5.506
 2343SOL    HW2 7404   0.776   4.209   5.441
 2344SOL     OW 7405   1.450   4.944   5.357
 2344SOL    HW1 7406   1.441   4.934   5.456
 2344SOL    HW2 7407   1.546   4.937   5.331
 2345SOL     OW 7408   1.674   4.607   4.978
 2345SOL    HW1 7409   1.647   4.518   4.941
 2345SOL    HW2 7410   1.675   4.675   4.905
 2346SOL     OW 7411   1.225   4.049   4.173
 2346SOL    HW1 7412   1.290   3.975   4.162
 2346SOL    HW2 7413   1.245   4.099   4.257
 2347SOL     OW 7414   0.594   4.469   4.376
 2347SOL    HW1 7415   0.644   4.554   4.357
 2347SOL    HW2 7416   0.506   4.471   4.328
 2348SOL     OW 7417   1.777   4.066   5.366
 2348SOL    HW1 7418   1.760   4.097   5.272
 2348SOL    HW2 7419   1.693   4.029   5.404
 2349SOL     OW 7420   1.730   4.658   5.241
 2349SOL    HW1 7421   1.768   4.749   5.256
 2349SOL    HW2 7422   1.722   4.641   5.142
 2350SOL     OW 7423   0.859   5.098   3.740
 2350SOL    HW1 7424   0.813   5.113   3.828
 2350SOL    HW2 7425   0.903   5.183   3.710
 2351SOL     OW 7426   0.859   4.680   4.585
 2351SOL    HW1 7427   0.913   4.611   4.633
 2351SOL    HW2 7428   0.827   4.749   4.651
 2352SOL     OW 7429   1.083   4.708   3.811
 2352SOL    HW1 7430   1.060   4.761   3.729
 2352SOL    HW2 7431   1.164   4.652   3.792
 2353SOL     OW 7432   0.221   5.038   5.568
 2353SOL    HW1 7433   0.156   4.965   5.547
 2353SOL    HW2 7434   0.225   5.052   5.666
 2354SOL     OW 7435   0.079   4.964   4.377
 2354SOL    HW1 7436   0.078   4.917   4.465
 2354SOL    HW2 7437   0.161   4.936   4.326
 2355SOL     OW 7438   0.672   5.115   5.348
 2355SOL    HW1 7439   0.594   5.065   5.386
 2355SOL    HW2 7440   0.669   5.210   5.379
 2356SOL     OW 7441   1.824   3.916   4.951
 2356SOL    HW1 7442   1.820   3.826   4.995
 2356SOL    HW2 7443   1.827   3.905   4.852
 2357SOL     OW 7444   0.428   4.148   4.244
 2357SOL    HW1 7445   0.458   4.076   4.182
 2357SOL    HW2 7446   0.389   4.108   4.327
 2358SOL     OW 7447   1.705   5.211   4.828
 2358SOL    HW1 7448   1.612   5.186   4.801
 2358SOL    HW2 7449   1.731   5.161   4.910
 2359SOL     OW 7450   0.317   4.271   5.004
 2359SOL    HW1 7451   0.355   4.212   5.076
 2359SOL    HW2 7452   0.357   4.245   4.916
 2360SOL     OW 7453   1.424   3.938   4.836
 2360SOL    HW1 7454   1.476   3.873   4.891
 2360SOL    HW2 7455   1.375   4.001   4.897
 2361SOL     OW 7456   1.001   3.758   4.878
 2361SOL    HW1 7457   0.938   3.686   4.847
 2361SOL    HW2 7458   1.094   3.722   4.878
 2362SOL     OW 7459   0.770   5.054   4.025
 2362SOL    HW1 7460   0.724   4.967   4.042
 2362SOL    HW2 7461   0.861   5.051   4.066
 2363SOL     OW 7462   0.618   5.291   5.008
 2363SOL    HW1 7463   0.613   5.373   5.065
 2363SOL    HW2 7464   0.707   5.288   4.963
 2364SOL     OW 7465   1.352   3.776   3.892
 2364SOL    HW1 7466   1.387   3.735   3.808
 2364SOL    HW2 7467   1.262   3.738   3.912
 2365SOL     OW 7468   1.300   4.177   4.415
 2365SOL    HW1 7469   1.241   4.257   4.419
 2365SOL    HW2 7470   1.315   4.142   4.508
 2366SOL     OW 7471   1.593   3.945   4.606
 2366SOL    HW1 7472   1.509   3.944   4.660
 2366SOL    HW2 7473   1.595   4.028   4.550
 2367SOL     OW 7474   0.039   4.801   4.024
 2367SOL    HW1 7475   0.138   4.790   4.015
 2367SOL    HW2 7476  -0.001   4.715   4.056
 2368SOL     OW 7477   0.230   4.352   5.699
 2368SOL    HW1 7478   0.137   4.350   5.736
 2368SOL    HW2 7479   0.231   4.313   5.607
 2369SOL     OW 7480   0.225   3.999   6.582
 2369SOL    HW1 7481   0.260   3.982   6.674
 2369SOL    HW2 7482   0.137   3.954   6.570
 2370SOL     OW 7483   0.019   4.092   6.233
 2370SOL    HW1 7484  -0.063   4.135   6.272
 2370SOL    HW2 7485  -0.009   4.019   6.170
 2371SOL     OW 7486   0.569   4.999   6.751
 2371SOL    HW1 7487   0.476   4.992   6.714
 2371SOL    HW2 7488   0.580   5.088   6.795
 2372SOL     OW 7489   1.555   5.235   6.289
 2372SOL    HW1 7490   1.498   5.219   6.370
 2372SOL    HW2 7491   1.496   5.245   6.209
 2373SOL     OW 7492   1.135   4.427   6.303
 2373SOL    HW1 7493   1.192   4.505   6.278
 2373SOL    HW2 7494   1.075   4.453   6.379
 2374SOL     OW 7495   1.755   4.331   5.817
 2374SOL    HW1 7496   1.743   4.318   5.718
 2374SOL    HW2 7497   1.725   4.250   5.866
 2375SOL     OW 7498   0.768   4.868   6.609
 2375SOL    HW1 7499   0.690   4.885   6.669
 2375SOL    HW2 7500   0.802   4.955   6.573
 2376SOL     OW 7501   0.850   4.522   7.409
 2376SOL    HW1 7502   0.846   4.598   7.474
 2376SOL    HW2 7503   0.872   4.558   7.318
 2377SOL     OW 7504   0.685   4.736   6.251
 2377SOL    HW1 7505   0.754   4.720   6.321
 2377SOL    HW2 7506   0.612   4.793   6.289
 2378SOL     OW 7507   0.686   4.885   7.389
 2378SOL    HW1 7508   0.746   4.964   7.403
 2378SOL    HW2 7509   0.600   4.916   7.348
 2379SOL     OW 7510   0.335   5.159   6.647
 2379SOL    HW1 7511   0.257   5.128   6.594
 2379SOL    HW2 7512   0.393   5.217   6.590
 2380SOL     OW 7513   1.460   5.229   6.925
 2380SOL    HW1 7514   1.484   5.323   6.951
 2380SOL    HW2 7515   1.444   5.175   7.007
 2381SOL     OW 7516   0.438   4.116   7.085
 2381SOL    HW1 7517   0.520   4.060   7.094
 2381SOL    HW2 7518   0.357   4.058   7.089
 2382SOL     OW 7519   1.603   4.171   6.323
 2382SOL    HW1 7520   1.529   4.217   6.273
 2382SOL    HW2 7521   1.654   4.239   6.376
 2383SOL     OW 7522   1.127   5.065   7.276
 2383SOL    HW1 7523   1.174   5.065   7.364
 2383SOL    HW2 7524   1.079   4.978   7.265
 2384SOL     OW 7525   0.230   5.158   6.124
 2384SOL    HW1 7526   0.204   5.254   6.124
 2384SOL    HW2 7527   0.159   5.104   6.169
 2385SOL     OW 7528   0.240   4.815   6.472
 2385SOL    HW1 7529   0.254   4.731   6.524
 2385SOL    HW2 7530   0.185   4.879   6.527
 2386SOL     OW 7531   0.606   4.688   5.709
 2386SOL    HW1 7532   0.613   4.772   5.655
 2386SOL    HW2 7533   0.652   4.701   5.797
 2387SOL     OW 7534   1.594   3.838   7.066
 2387SOL    HW1 7535   1.576   3.905   6.994
 2387SOL    HW2 7536   1.591   3.884   7.155
 2388SOL     OW 7537   0.122   4.367   6.149
 2388SOL    HW1 7538   0.077   4.279   6.166
 2388SOL    HW2 7539   0.121   4.421   6.233
 2389SOL     OW 7540   0.027   5.320   5.703
 2389SOL    HW1 7541   0.008   5.224   5.724
 2389SOL    HW2 7542  -0.006   5.378   5.778
 2390SOL     OW 7543   1.689   4.646   6.198
 2390SOL    HW1 7544   1.784   4.617   6.206
 2390SOL    HW2 7545   1.681   4.711   6.123
 2391SOL     OW 7546   1.641   4.832   6.018
 2391SOL    HW1 7547   1.727   4.834   5.966
 2391SOL    HW2 7548   1.655   4.879   6.106
 2392SOL     OW 7549   0.113   4.461   7.183
 2392SOL    HW1 7550   0.201   4.448   7.228
 2392SOL    HW2 7551   0.100   4.558   7.161
 2393SOL     OW 7552   0.613   5.089   6.312
 2393SOL    HW1 7553   0.564   5.002   6.321
 2393SOL    HW2 7554   0.590   5.132   6.225
 2394SOL     OW 7555   1.293   4.952   7.009
 2394SOL    HW1 7556   1.330   4.879   6.951
 2394SOL    HW2 7557   1.345   4.957   7.094
 2395SOL     OW 7558   0.809   3.728   6.088
 2395SOL    HW1 7559   0.849   3.819   6.079
 2395SOL    HW2 7560   0.709   3.736   6.094
 2396SOL     OW 7561   0.197   4.700   6.850
 2396SOL    HW1 7562   0.286   4.655   6.836
 2396SOL    HW2 7563   0.124   4.635   6.831
 2397SOL     OW 7564   1.525   4.723   5.776
 2397SOL    HW1 7565   1.462   4.647   5.789
 2397SOL    HW2 7566   1.573   4.741   5.862
 2398SOL     OW 7567   0.317   3.975   7.387
 2398SOL    HW1 7568   0.388   4.046   7.393
 2398SOL    HW2 7569   0.229   4.014   7.415
 2399SOL     OW 7570   1.466   5.141   6.539
 2399SOL    HW1 7571   1.407   5.147   6.619
 2399SOL    HW2 7572   1.451   5.053   6.493
 2400SOL     OW 7573   0.598   4.453   5.856
 2400SOL    HW1 7574   0.622   4.522   5.788
 2400SOL    HW2 7575   0.520   4.486   5.910
 2401SOL     OW 7576   1.281   4.069   6.530
 2401SOL    HW1 7577   1.195   4.019   6.517
 2401SOL    HW2 7578   1.343   4.015   6.586
 2402SOL     OW 7579   0.807   4.329   7.051
 2402SOL    HW1 7580   0.760   4.326   7.140
 2402SOL    HW2 7581   0.756   4.274   6.985
 2403SOL     OW 7582   1.394   4.193   7.260
 2403SOL    HW1 7583   1.374   4.236   7.348
 2403SOL    HW2 7584   1.472   4.131   7.269
 2404SOL     OW 7585   0.973   4.614   7.158
 2404SOL    HW1 7586   1.019   4.530   7.129
 2404SOL    HW2 7587   0.917   4.648   7.083
 2405SOL     OW 7588   0.991   4.134   6.828
 2405SOL    HW1 7589   0.914   4.168   6.882
 2405SOL    HW2 7590   0.957   4.083   6.749
 2406SOL     OW 7591   1.041   4.425   6.015
 2406SOL    HW1 7592   1.067   4.421   6.111
 2406SOL    HW2 7593   0.956   4.374   6.001
 2407SOL     OW 7594   0.076   4.535   6.375
 2407SOL    HW1 7595   0.175   4.523   6.384
 2407SOL    HW2 7596   0.052   4.630   6.396
 2408SOL     OW 7597   0.865   4.072   5.781
 2408SOL    HW1 7598   0.924   4.135   5.732
 2408SOL    HW2 7599   0.884   3.978   5.752
 2409SOL     OW 7600   1.719   4.309   7.417
 2409SOL    HW1 7601   1.693   4.398   7.381
 2409SOL    HW2 7602   1.717   4.241   7.344
 2410SOL     OW 7603   1.362   4.868   6.131
 2410SOL    HW1 7604   1.445   4.839   6.083
 2410SOL    HW2 7605   1.313   4.935   6.075
 2411SOL     OW 7606   0.550   3.920   6.471
 2411SOL    HW1 7607   0.545   3.915   6.571
 2411SOL    HW2 7608   0.552   4.016   6.442
 2412SOL     OW 7609   1.008   5.180   6.063
 2412SOL    HW1 7610   0.962   5.252   6.011
 2412SOL    HW2 7611   1.004   5.200   6.161
 2413SOL     OW 7612   1.795   4.790   6.459
 2413SOL    HW1 7613   1.733   4.775   6.383
 2413SOL    HW2 7614   1.743   4.801   6.544
 2414SOL     OW 7615   1.227   5.274   7.092
 2414SOL    HW1 7616   1.233   5.197   7.156
 2414SOL    HW2 7617   1.175   5.248   7.012
 2415SOL     OW 7618   0.321   4.667   5.828
 2415SOL    HW1 7619   0.403   4.706   5.786
 2415SOL    HW2 7620   0.294   4.585   5.779
 2416SOL     OW 7621   1.458   4.459   6.314
 2416SOL    HW1 7622   1.453   4.394   6.389
 2416SOL    HW2 7623   1.538   4.518   6.327
 2417SOL     OW 7624   0.461   4.990   7.313
 2417SOL    HW1 7625   0.411   4.991   7.227
 2417SOL    HW2 7626   0.398   4.972   7.389
 2418SOL     OW 7627   1.111   5.500   5.823
 2418SOL    HW1 7628   1.051   5.438   5.873
 2418SOL    HW2 7629   1.142   5.456   5.738
 2419SOL     OW 7630   0.202   4.009   7.084
 2419SOL    HW1 7631   0.122   4.069   7.071
 2419SOL    HW2 7632   0.192   3.960   7.170
 2420SOL     OW 7633   1.632   5.101   5.667
 2420SOL    HW1 7634   1.600   5.195   5.657
 2420SOL    HW2 7635   1.556   5.038   5.655
 2421SOL     OW 7636   1.400   3.831   6.012
 2421SOL    HW1 7637   1.376   3.794   5.922
 2421SOL    HW2 7638   1.499   3.847   6.016
 2422SOL     OW 7639   0.382   4.424   6.066
 2422SOL    HW1 7640   0.427   4.334   6.063
 2422SOL    HW2 7641   0.288   4.413   6.099
 2423SOL     OW 7642   1.547   3.946   7.315
 2423SOL    HW1 7643   1.542   3.983   7.407
 2423SOL    HW2 7644   1.475   3.877   7.303
 2424SOL     OW 7645   0.614   3.846   5.703
 2424SOL    HW1 7646   0.712   3.824   5.710
 2424SOL    HW2 7647   0.583   3.829   5.610
 2425SOL     OW 7648   0.781   3.988   7.335
 2425SOL    HW1 7649   0.848   3.927   7.378
 2425SOL    HW2 7650   0.708   4.007   7.400
 2426SOL     OW 7651   1.351   4.314   7.019
 2426SOL    HW1 7652   1.379   4.271   7.104
 2426SOL    HW2 7653   1.376   4.410   7.020
 2427SOL     OW 7654   0.803   5.126   6.510
 2427SOL    HW1 7655   0.893   5.140   6.468
 2427SOL    HW2 7656   0.732   5.128   6.439
 2428SOL     OW 7657   0.922   4.227   6.485
 2428SOL    HW1 7658   0.897   4.218   6.389
 2428SOL    HW2 7659   0.970   4.145   6.516
 2429SOL     OW 7660   0.539   3.788   6.098
 2429SOL    HW1 7661   0.458   3.789   6.156
 2429SOL    HW2 7662   0.542   3.871   6.043
 2430SOL     OW 7663   1.434   4.912   5.627
 2430SOL    HW1 7664   1.466   4.836   5.684
 2430SOL    HW2 7665   1.342   4.939   5.657
 2431SOL     OW 7666   0.297   3.759   5.757
 2431SOL    HW1 7667   0.346   3.843   5.736
 2431SOL    HW2 7668   0.359   3.694   5.802
 2432SOL     OW 7669   0.935   3.960   6.066
 2432SOL    HW1 7670   0.887   4.001   5.988
 2432SOL    HW2 7671   1.034   3.958   6.047
 2433SOL     OW 7672   1.076   4.407   7.050
 2433SOL    HW1 7673   0.996   4.346   7.053
 2433SOL    HW2 7674   1.157   4.354   7.026
 2434SOL     OW 7675   1.227   5.294   6.379
 2434SOL    HW1 7676   1.248   5.368   6.314
 2434SOL    HW2 7677   1.295   5.294   6.452
 2435SOL     OW 7678   0.459   4.876   6.327
 2435SOL    HW1 7679   0.388   4.849   6.392
 2435SOL    HW2 7680   0.433   4.848   6.234
 2436SOL     OW 7681   1.032   4.273   5.602
 2436SOL    HW1 7682   0.991   4.355   5.563
 2436SOL    HW2 7683   1.096   4.299   5.675
 2437SOL     OW 7684   0.078   4.280   6.972
 2437SOL    HW1 7685   0.170   4.279   6.931
 2437SOL    HW2 7686   0.072   4.354   7.039
 2438SOL     OW 7687   0.561   3.946   6.733
 2438SOL    HW1 7688   0.599   3.862   6.770
 2438SOL    HW2 7689   0.473   3.965   6.777
 2439SOL     OW 7690   0.866   4.178   6.228
 2439SOL    HW1 7691   0.834   4.250   6.166
 2439SOL    HW2 7692   0.890   4.097   6.175
 2440SOL     OW 7693   1.017   3.763   6.339
 2440SOL    HW1 7694   0.945   3.768   6.270
 2440SOL    HW2 7695   0.993   3.694   6.408
 2441SOL     OW 7696   1.429   4.897   6.453
 2441SOL    HW1 7697   1.374   4.813   6.446
 2441SOL    HW2 7698   1.455   4.926   6.361
 2442SOL     OW 7699   1.466   4.314   6.578
 2442SOL    HW1 7700   1.436   4.219   6.585
 2442SOL    HW2 7701   1.539   4.330   6.644
 2443SOL     OW 7702   1.857   4.557   5.963
 2443SOL    HW1 7703   1.899   4.493   6.027
 2443SOL    HW2 7704   1.819   4.506   5.885
 2444SOL     OW 7705   0.488   5.109   5.760
 2444SOL    HW1 7706   0.401   5.094   5.807
 2444SOL    HW2 7707   0.471   5.135   5.665
 2445SOL     OW 7708   1.664   5.004   6.243
 2445SOL    HW1 7709   1.763   5.012   6.257
 2445SOL    HW2 7710   1.619   5.088   6.274
 2446SOL     OW 7711   1.390   4.299   5.664
 2446SOL    HW1 7712   1.336   4.278   5.745
 2446SOL    HW2 7713   1.481   4.258   5.673
 2447SOL     OW 7714   0.527   3.980   5.914
 2447SOL    HW1 7715   0.554   3.921   5.839
 2447SOL    HW2 7716   0.527   4.075   5.883
 2448SOL     OW 7717   1.754   4.947   7.174
 2448SOL    HW1 7718   1.845   4.908   7.161
 2448SOL    HW2 7719   1.762   5.043   7.198
 2449SOL     OW 7720   1.064   5.071   6.926
 2449SOL    HW1 7721   0.984   5.048   6.981
 2449SOL    HW2 7722   1.147   5.045   6.975
 2450SOL     OW 7723   1.111   4.919   6.686
 2450SOL    HW1 7724   1.071   4.963   6.767
 2450SOL    HW2 7725   1.070   4.956   6.603
 2451SOL     OW 7726   1.638   4.823   6.665
 2451SOL    HW1 7727   1.643   4.904   6.724
 2451SOL    HW2 7728   1.552   4.825   6.614
 2452SOL     OW 7729   0.915   3.813   6.988
 2452SOL    HW1 7730   0.940   3.793   6.893
 2452SOL    HW2 7731   0.987   3.869   7.030
 2453SOL     OW 7732   0.980   4.840   7.305
 2453SOL    HW1 7733   0.881   4.846   7.315
 2453SOL    HW2 7734   1.003   4.760   7.249
 2454SOL     OW 7735   0.705   4.774   5.954
 2454SOL    HW1 7736   0.691   4.781   6.053
 2454SOL    HW2 7737   0.789   4.723   5.936
 2455SOL     OW 7738   0.410   4.537   6.837
 2455SOL    HW1 7739   0.496   4.549   6.887
 2455SOL    HW2 7740   0.368   4.450   6.864
 2456SOL     OW 7741   1.274   4.110   6.848
 2456SOL    HW1 7742   1.295   4.184   6.912
 2456SOL    HW2 7743   1.185   4.127   6.805
 2457SOL     OW 7744   0.064   5.288   6.917
 2457SOL    HW1 7745   0.018   5.370   6.883
 2457SOL    HW2 7746   0.162   5.307   6.926
 2458SOL     OW 7747   0.367   4.824   6.087
 2458SOL    HW1 7748   0.360   4.907   6.031
 2458SOL    HW2 7749   0.371   4.744   6.027
 2459SOL     OW 7750   0.566   4.261   6.451
 2459SOL    HW1 7751   0.578   4.327   6.377
 2459SOL    HW2 7752   0.612   4.295   6.534
 2460SOL     OW 7753   1.252   5.072   5.974
 2460SOL    HW1 7754   1.302   5.149   6.014
 2460SOL    HW2 7755   1.157   5.074   6.006
 2461SOL     OW 7756   1.272   5.169   6.728
 2461SOL    HW1 7757   1.319   5.182   6.815
 2461SOL    HW2 7758   1.206   5.095   6.737
 2462SOL     OW 7759   1.582   4.363   6.058
 2462SOL    HW1 7760   1.551   4.424   6.131
 2462SOL    HW2 7761   1.632   4.415   5.989
 2463SOL     OW 7762   0.354   5.234   6.915
 2463SOL    HW1 7763   0.333   5.190   6.828
 2463SOL    HW2 7764   0.451   5.260   6.918
 2464SOL     OW 7765   0.402   4.475   7.184
 2464SOL    HW1 7766   0.470   4.530   7.137
 2464SOL    HW2 7767   0.442   4.387   7.211
 2465SOL     OW 7768   1.587   4.503   7.256
 2465SOL    HW1 7769   1.495   4.541   7.251
 2465SOL    HW2 7770   1.647   4.550   7.191
 2466SOL     OW 7771   1.013   3.829   7.356
 2466SOL    HW1 7772   1.019   3.914   7.304
 2466SOL    HW2 7773   1.045   3.753   7.299
 2467SOL     OW 7774   0.504   3.774   7.326
 2467SOL    HW1 7775   0.462   3.717   7.256
 2467SOL    HW2 7776   0.438   3.843   7.358
 2468SOL     OW 7777   0.573   4.594   6.615
 2468SOL    HW1 7778   0.617   4.683   6.606
 2468SOL    HW2 7779   0.510   4.594   6.692
 2469SOL     OW 7780   1.360   4.586   6.631
 2469SOL    HW1 7781   1.285   4.586   6.565
 2469SOL    HW2 7782   1.397   4.494   6.640
 2470SOL     OW 7783   1.209   4.249   5.861
 2470SOL    HW1 7784   1.222   4.165   5.915
 2470SOL    HW2 7785   1.180   4.323   5.921
 2471SOL     OW 7786   0.307   3.937   6.817
 2471SOL    HW1 7787   0.284   3.974   6.907
 2471SOL    HW2 7788   0.277   3.842   6.811
 2472SOL     OW 7789   0.037   5.034   6.868
 2472SOL    HW1 7790   0.090   4.985   6.936
 2472SOL    HW2 7791   0.059   5.132   6.873
 2473SOL     OW 7792   0.732   4.358   6.650
 2473SOL    HW1 7793   0.791   4.332   6.574
 2473SOL    HW2 7794   0.704   4.454   6.639
 2474SOL     OW 7795   1.728   4.659   7.440
 2474SOL    HW1 7796   1.682   4.652   7.351
 2474SOL    HW2 7797   1.666   4.703   7.506
 2475SOL     OW 7798   0.307   3.787   6.204
 2475SOL    HW1 7799   0.296   3.881   6.237
 2475SOL    HW2 7800   0.302   3.724   6.281
 2476SOL     OW 7801   1.622   4.091   5.960
 2476SOL    HW1 7802   1.624   4.015   6.024
 2476SOL    HW2 7803   1.574   4.168   6.000
 2477SOL     OW 7804   1.023   4.490   6.552
 2477SOL    HW1 7805   1.038   4.511   6.648
 2477SOL    HW2 7806   0.993   4.395   6.543
 2478SOL     OW 7807   1.859   5.242   7.191
 2478SOL    HW1 7808   1.873   5.269   7.096
 2478SOL    HW2 7809   1.942   5.264   7.244
 2479SOL     OW 7810   0.350   4.622   7.390
 2479SOL    HW1 7811   0.426   4.666   7.438
 2479SOL    HW2 7812   0.385   4.575   7.308
 2480SOL     OW 7813   1.540   3.998   5.711
 2480SOL    HW1 7814   1.479   3.923   5.734
 2480SOL    HW2 7815   1.562   4.050   5.794
 2481SOL     OW 7816   1.303   4.562   5.628
 2481SOL    HW1 7817   1.337   4.469   5.643
 2481SOL    HW2 7818   1.321   4.589   5.533
 2482SOL     OW 7819   1.068   5.057   6.435
 2482SOL    HW1 7820   1.075   4.973   6.380
 2482SOL    HW2 7821   1.130   5.126   6.399
 2483SOL     OW 7822   0.319   4.534   6.535
 2483SOL    HW1 7823   0.412   4.570   6.540
 2483SOL    HW2 7824   0.313   4.449   6.587
 2484SOL     OW 7825   0.339   4.233   6.592
 2484SOL    HW1 7826   0.287   4.150   6.575
 2484SOL    HW2 7827   0.416   4.238   6.528
 2485SOL     OW 7828   1.138   4.104   7.264
 2485SOL    HW1 7829   1.093   4.167   7.328
 2485SOL    HW2 7830   1.231   4.135   7.247
 2486SOL     OW 7831   1.160   3.931   7.063
 2486SOL    HW1 7832   1.160   3.995   7.140
 2486SOL    HW2 7833   1.188   3.979   6.980
 2487SOL     OW 7834   0.008   5.050   5.786
 2487SOL    HW1 7835  -0.085   5.071   5.755
 2487SOL    HW2 7836   0.018   4.951   5.799
 2488SOL     OW 7837   1.002   4.520   6.824
 2488SOL    HW1 7838   1.043   4.488   6.910
 2488SOL    HW2 7839   0.906   4.493   6.821
 2489SOL     OW 7840   0.040   4.268   6.700
 2489SOL    HW1 7841   0.125   4.235   6.659
 2489SOL    HW2 7842   0.053   4.283   6.798
 2490SOL     OW 7843   0.189   4.244   7.308
 2490SOL    HW1 7844   0.248   4.204   7.238
 2490SOL    HW2 7845   0.131   4.315   7.267
 2491SOL     OW 7846   1.369   4.674   7.246
 2491SOL    HW1 7847   1.408   4.763   7.266
 2491SOL    HW2 7848   1.379   4.654   7.149
 2492SOL     OW 7849   0.815   4.296   5.911
 2492SOL    HW1 7850   0.822   4.207   5.865
 2492SOL    HW2 7851   0.721   4.330   5.903
 2493SOL     OW 7852   1.657   4.328   6.792
 2493SOL    HW1 7853   1.619   4.259   6.854
 2493SOL    HW2 7854   1.739   4.292   6.748
 2494SOL     OW 7855   0.252   5.288   7.330
 2494SOL    HW1 7856   0.222   5.345   7.406
 2494SOL    HW2 7857   0.245   5.191   7.356
 2495SOL     OW 7858   0.671   4.188   6.855
 2495SOL    HW1 7859   0.637   4.099   6.825
 2495SOL    HW2 7860   0.697   4.242   6.775
 2496SOL     OW 7861   0.473   4.224   5.777
 2496SOL    HW1 7862   0.534   4.304   5.781
 2496SOL    HW2 7863   0.378   4.255   5.784
 2497SOL     OW 7864   0.159   4.861   7.052
 2497SOL    HW1 7865   0.181   4.800   7.128
 2497SOL    HW2 7866   0.169   4.812   6.966
 2498SOL     OW 7867   1.347   4.783   6.820
 2498SOL    HW1 7868   1.371   4.720   6.746
 2498SOL    HW2 7869   1.257   4.823   6.802
 2499SOL     OW 7870   1.302   4.579   5.895
 2499SOL    HW1 7871   1.216   4.548   5.937
 2499SOL    HW2 7872   1.298   4.565   5.796
 2500SOL     OW 7873   0.083   4.982   6.608
 2500SOL    HW1 7874   0.078   4.981   6.708
 2500SOL    HW2 7875   0.000   4.941   6.570
 2501SOL     OW 7876   0.688   5.386   7.302
 2501SOL    HW1 7877   0.632   5.467   7.311
 2501SOL    HW2 7878   0.740   5.390   7.216
 2502SOL     OW 7879   1.726   3.859   6.109
 2502SOL    HW1 7880   1.799   3.842   6.042
 2502SOL    HW2 7881   1.695   3.772   6.147
 2503SOL     OW 7882   1.280   4.651   6.258
 2503SOL    HW1 7883   1.340   4.570   6.260
 2503SOL    HW2 7884   1.320   4.720   6.198
 2504SOL     OW 7885   0.830   4.997   7.008
 2504SOL    HW1 7886   0.825   5.030   7.103
 2504SOL    HW2 7887   0.744   5.016   6.962
 2505SOL     OW 7888   1.841   3.899   6.549
 2505SOL    HW1 7889   1.880   3.814   6.513
 2505SOL    HW2 7890   1.743   3.901   6.530
 2506SOL     OW 7891   0.263   4.050   6.306
 2506SOL    HW1 7892   0.184   4.101   6.272
 2506SOL    HW2 7893   0.254   4.035   6.404
 2507SOL     OW 7894   0.822   4.726   6.958
 2507SOL    HW1 7895   0.862   4.725   6.866
 2507SOL    HW2 7896   0.832   4.818   6.998
 2508SOL     OW 7897   0.916   4.634   5.877
 2508SOL    HW1 7898   0.979   4.672   5.809
 2508SOL    HW2 7899   0.956   4.551   5.916
 2509SOL     OW 7900   0.372   5.012   7.076
 2509SOL    HW1 7901   0.359   5.105   7.042
 2509SOL    HW2 7902   0.288   4.960   7.063
 2510SOL     OW 7903   1.614   5.016   6.875
 2510SOL    HW1 7904   1.674   5.019   6.955
 2510SOL    HW2 7905   1.539   5.080   6.888
 2511SOL     OW 7906   1.039   4.822   6.282
 2511SOL    HW1 7907   0.969   4.775   6.336
 2511SOL    HW2 7908   1.098   4.754   6.239
 2512SOL     OW 7909   1.014   3.960   6.557
 2512SOL    HW1 7910   1.006   3.924   6.464
 2512SOL    HW2 7911   1.012   3.884   6.622
 2513SOL     OW 7912   1.709   4.109   6.967
 2513SOL    HW1 7913   1.782   4.178   6.971
 2513SOL    HW2 7914   1.737   4.034   6.908
 2514SOL     OW 7915   0.255   5.072   5.876
 2514SOL    HW1 7916   0.159   5.073   5.849
 2514SOL    HW2 7917   0.267   5.125   5.960
 2515SOL     OW 7918   0.105   4.737   7.312
 2515SOL    HW1 7919   0.028   4.704   7.366
 2515SOL    HW2 7920   0.190   4.707   7.354
 2516SOL     OW 7921   0.672   3.927   7.075
 2516SOL    HW1 7922   0.762   3.911   7.035
 2516SOL    HW2 7923   0.680   3.932   7.174
 2517SOL     OW 7924   0.075   4.069   5.619
 2517SOL    HW1 7925  -0.017   4.041   5.590
 2517SOL    HW2 7926   0.106   4.146   5.563
 2518SOL     OW 7927   1.440   4.580   6.984
 2518SOL    HW1 7928   1.383   4.632   6.921
 2518SOL    HW2 7929   1.536   4.592   6.960
 2519SOL     OW 7930   0.072   3.890   5.904
 2519SOL    HW1 7931   0.055   3.973   5.850
 2519SOL    HW2 7932   0.162   3.853   5.882
 2520SOL     OW 7933   1.183   5.059   5.705
 2520SOL    HW1 7934   1.084   5.048   5.707
 2520SOL    HW2 7935   1.217   5.074   5.798
 2521SOL     OW 7936   0.613   4.566   7.017
 2521SOL    HW1 7937   0.669   4.647   7.000
 2521SOL    HW2 7938   0.672   4.486   7.020
 2522SOL     OW 7939   0.716   4.289   7.294
 2522SOL    HW1 7940   0.735   4.354   7.368
 2522SOL    HW2 7941   0.776   4.209   7.303
 2523SOL     OW 7942   1.450   4.944   7.219
 2523SOL    HW1 7943   1.441   4.934   7.318
 2523SOL    HW2 7944   1.546   4.937   7.193
 2524SOL     OW 7945   1.674   4.607   6.840
 2524SOL    HW1 7946   1.647   4.518   6.803
 2524SOL    HW2 7947   1.675   4.675   6.767
 2525SOL     OW 7948   1.225   4.049   6.035
 2525SOL    HW1 7949   1.290   3.975   6.024
 2525SOL    HW2 7950   1.245   4.099   6.119
 2526SOL     OW 7951   0.594   4.469   6.238
 2526SOL    HW1 7952   0.644   4.554   6.219
 2526SOL    HW2 7953   0.506   4.471   6.190
 2527SOL     OW 7954   1.777   4.066   7.228
 2527SOL    HW1 7955   1.760   4.097   7.134
 2527SOL    HW2 7956   1.693   4.029   7.266
 2528SOL     OW 7957   1.730   4.658   7.103
 2528SOL    HW1 7958   1.768   4.749   7.118
 2528SOL    HW2 7959   1.722   4.641   7.004
 2529SOL     OW 7960   0.859   5.098   5.602
 2529SOL    HW1 7961   0.813   5.113   5.690
 2529SOL    HW2 7962   0.903   5.183   5.572
 2530SOL     OW 7963   0.859   4.680   6.447
 2530SOL    HW1 7964   0.913   4.611   6.495
 2530SOL    HW2 7965   0.827   4.749   6.513
 2531SOL     OW 7966   1.083   4.708   5.673
 2531SOL    HW1 7967   1.060   4.761   5.591
 2531SOL    HW2 7968   1.164   4.652   5.654
 2532SOL     OW 7969   0.221   5.038   7.430
 2532SOL    HW1 7970   0.156   4.965   7.409
 2532SOL    HW2 7971   0.225   5.052   7.528
 2533SOL     OW 7972   0.079   4.964   6.239
 2533SOL    HW1 7973   0.078   4.917   6.327
 2533SOL    HW2 7974   0.161   4.936   6.188
 2534SOL     OW 7975   0.672   5.115   7.210
 2534SOL    HW1 7976   0.594   5.065   7.248
 2534SOL    HW2 7977   0.669   5.210   7.241
 2535SOL     OW 7978   1.824   3.916   6.813
 2535SOL    HW1 7979   1.820   3.826   6.857
 2535SOL    HW2 7980   1.827   3.905   6.714
 2536SOL     OW 7981   0.428   4.148   6.106
 2536SOL    HW1 7982   0.458   4.076   6.044
 2536SOL    HW2 7983   0.389   4.108   6.189
 2537SOL     OW 7984   1.705   5.211   6.690
 2537SOL    HW1 7985   1.612   5.186   6.663
 2537SOL    HW2 7986   1.731   5.161   6.772
 2538SOL     OW 7987   0.317   4.271   6.866
 2538SOL    HW1 7988   0.355   4.212   6.938
 2538SOL    HW2 7989   0.357   4.245   6.778
 2539SOL     OW 7990   1.424   3.938   6.698
 2539SOL    HW1 7991   1.476   3.873   6.753
 2539SOL    HW2 7992   1.375   4.001   6.759
 2540SOL     OW 7993   1.001   3.758   6.740
 2540SOL    HW1 7994   0.938   3.686   6.709
 2540SOL    HW2 7995   1.094   3.722   6.740
 2541SOL     OW 7996   0.770   5.054   5.887
 2541SOL    HW1 7997   0.724   4.967   5.904
 2541SOL    HW2 7998   0.861   5.051   5.928
 2542SOL     OW 7999   0.618   5.291   6.870
 2542SOL    HW1 8000   0.613   5.373   6.927
 2542SOL    HW2 8001   0.707   5.288   6.825
 2543SOL     OW 8002   1.352   3.776   5.754
 2543SOL    HW1 8003   1.387   3.735   5.670
 2543SOL    HW2 8004   1.262   3.738   5.774
 2544SOL     OW 8005   1.300   4.177   6.277
 2544SOL    HW1 8006   1.241   4.257   6.281
 2544SOL    HW2 8007   1.315   4.142   6.370
 2545SOL     OW 8008   1.593   3.945   6.468
 2545SOL    HW1 8009   1.509   3.944   6.522
 2545SOL    HW2 8010   1.595   4.028   6.412
 2546SOL     OW 8011   0.039   4.801   5.886
 2546SOL    HW1 8012   0.138   4.790   5.877
 2546SOL    HW2 8013  -0.001   4.715   5.918
 2547SOL     OW 8014   0.230   4.352   7.561
 2547SOL    HW1 8015   0.137   4.350   7.598
 2547SOL    HW2 8016   0.231   4.313   7.469
 2548SOL     OW 8017   1.755   4.331   7.679
 2548SOL    HW1 8018   1.743   4.318   7.580
 2548SOL    HW2 8019   1.725   4.250   7.728
 2549SOL     OW 8020   0.231   5.437   7.931
 2549SOL    HW1 8021   0.265   5.514   7.985
 2549SOL    HW2 8022   0.275   5.437   7.841
 2550SOL     OW 8023   0.230   5.158   7.986
 2550SOL    HW1 8024   0.204   5.254   7.986
 2550SOL    HW2 8025   0.159   5.104   8.031
 2551SOL     OW 8026   0.606   4.688   7.571
 2551SOL    HW1 8027   0.613   4.772   7.517
 2551SOL    HW2 8028   0.652   4.701   7.659
 2552SOL     OW 8029   0.027   5.320   7.565
 2552SOL    HW1 8030   0.008   5.224   7.586
 2552SOL    HW2 8031  -0.006   5.378   7.640
 2553SOL     OW 8032   1.689   4.646   8.060
 2553SOL    HW1 8033   1.784   4.617   8.068
 2553SOL    HW2 8034   1.681   4.711   7.985
 2554SOL     OW 8035   1.641   4.832   7.880
 2554SOL    HW1 8036   1.727   4.834   7.828
 2554SOL    HW2 8037   1.655   4.879   7.968
 2555SOL     OW 8038   0.809   3.728   7.950
 2555SOL    HW1 8039   0.849   3.819   7.941
 2555SOL    HW2 8040   0.709   3.736   7.956
 2556SOL     OW 8041   1.525   4.723   7.638
 2556SOL    HW1 8042   1.462   4.647   7.651
 2556SOL    HW2 8043   1.573   4.741   7.724
 2557SOL     OW 8044   0.598   4.453   7.718
 2557SOL    HW1 8045   0.622   4.522   7.650
 2557SOL    HW2 8046   0.520   4.486   7.772
 2558SOL     OW 8047   0.076   4.535   8.237
 2558SOL    HW1 8048   0.175   4.523   8.246
 2558SOL    HW2 8049   0.052   4.630   8.258
 2559SOL     OW 8050   0.865   4.072   7.643
 2559SOL    HW1 8051   0.924   4.135   7.594
 2559SOL    HW2 8052   0.884   3.978   7.614
 2560SOL     OW 8053   0.321   4.667   7.690
 2560SOL    HW1 8054   0.403   4.706   7.648
 2560SOL    HW2 8055   0.294   4.585   7.641
 2561SOL     OW 8056   1.111   5.500   7.685
 2561SOL    HW1 8057   1.051   5.438   7.735
 2561SOL    HW2 8058   1.142   5.456   7.600
 2562SOL     OW 8059   1.632   5.101   7.529
 2562SOL    HW1 8060   1.600   5.195   7.519
 2562SOL    HW2 8061   1.556   5.038   7.517
 2563SOL     OW 8062   1.400   3.831   7.874
 2563SOL    HW1 8063   1.376   3.794   7.784
 2563SOL    HW2 8064   1.499   3.847   7.878
 2564SOL     OW 8065   0.382   4.424   7.928
 2564SOL    HW1 8066   0.427   4.334   7.925
 2564SOL    HW2 8067   0.288   4.413   7.961
 2565SOL     OW 8068   0.614   3.846   7.565
 2565SOL    HW1 8069   0.712   3.824   7.572
 2565SOL    HW2 8070   0.583   3.829   7.472
 2566SOL     OW 8071   0.539   3.788   7.960
 2566SOL    HW1 8072   0.458   3.789   8.018
 2566SOL    HW2 8073   0.542   3.871   7.905
 2567SOL     OW 8074   1.434   4.912   7.489
 2567SOL    HW1 8075   1.466   4.836   7.546
 2567SOL    HW2 8076   1.342   4.939   7.519
 2568SOL     OW 8077   0.297   3.759   7.619
 2568SOL    HW1 8078   0.346   3.843   7.598
 2568SOL    HW2 8079   0.359   3.694   7.664
 2569SOL     OW 8080   0.935   3.960   7.928
 2569SOL    HW1 8081   0.887   4.001   7.850
 2569SOL    HW2 8082   1.034   3.958   7.909
 2570SOL     OW 8083   0.459   4.876   8.189
 2570SOL    HW1 8084   0.388   4.849   8.254
 2570SOL    HW2 8085   0.433   4.848   8.096
 2571SOL     OW 8086   1.032   4.273   7.464
 2571SOL    HW1 8087   0.991   4.355   7.425
 2571SOL    HW2 8088   1.096   4.299   7.537
 2572SOL     OW 8089   1.857   4.557   7.825
 2572SOL    HW1 8090   1.899   4.493   7.889
 2572SOL    HW2 8091   1.819   4.506   7.747
 2573SOL     OW 8092   0.488   5.109   7.622
 2573SOL    HW1 8093   0.401   5.094   7.669
 2573SOL    HW2 8094   0.471   5.135   7.527
 2574SOL     OW 8095   1.390   4.299   7.526
 2574SOL    HW1 8096   1.336   4.278   7.607
 2574SOL    HW2 8097   1.481   4.258   7.535
 2575SOL     OW 8098   0.527   3.980   7.776
 2575SOL    HW1 8099   0.554   3.921   7.701
 2575SOL    HW2 8100   0.527   4.075   7.745
 2576SOL     OW 8101   0.705   4.774   7.816
 2576SOL    HW1 8102   0.691   4.781   7.915
 2576SOL    HW2 8103   0.789   4.723   7.798
 2577SOL     OW 8104   0.367   4.824   7.949
 2577SOL    HW1 8105   0.360   4.907   7.893
 2577SOL    HW2 8106   0.371   4.744   7.889
 2578SOL     OW 8107   1.252   5.072   7.836
 2578SOL    HW1 8108   1.302   5.149   7.876
 2578SOL    HW2 8109   1.157   5.074   7.868
 2579SOL     OW 8110   1.582   4.363   7.920
 2579SOL    HW1 8111   1.551   4.424   7.993
 2579SOL    HW2 8112   1.632   4.415   7.851
 2580SOL     OW 8113   1.209   4.249   7.723
 2580SOL    HW1 8114   1.222   4.165   7.777
 2580SOL    HW2 8115   1.180   4.323   7.783
 2581SOL     OW 8116   1.622   4.091   7.822
 2581SOL    HW1 8117   1.624   4.015   7.886
 2581SOL    HW2 8118   1.574   4.168   7.862
 2582SOL     OW 8119   1.540   3.998   7.573
 2582SOL    HW1 8120   1.479   3.923   7.596
 2582SOL    HW2 8121   1.562   4.050   7.656
 2583SOL     OW 8122   1.303   4.562   7.490
 2583SOL    HW1 8123   1.337   4.469   7.505
 2583SOL    HW2 8124   1.321   4.589   7.395
 2584SOL     OW 8125   0.008   5.050   7.648
 2584SOL    HW1 8126  -0.085   5.071   7.617
 2584SOL    HW2 8127   0.018   4.951   7.661
 2585SOL     OW 8128   0.815   4.296   7.773
 2585SOL    HW1 8129   0.822   4.207   7.727
 2585SOL    HW2 8130   0.721   4.330   7.765
 2586SOL     OW 8131   0.473   4.224   7.639
 2586SOL    HW1 8132   0.534   4.304   7.643
 2586SOL    HW2 8133   0.378   4.255   7.646
 2587SOL     OW 8134   1.302   4.579   7.757
 2587SOL    HW1 8135   1.216   4.548   7.799
 2587SOL    HW2 8136   1.298   4.565   7.658
 2588SOL     OW 8137   1.726   3.859   7.971
 2588SOL    HW1 8138   1.799   3.842   7.904
 2588SOL    HW2 8139   1.695   3.772   8.009
 2589SOL     OW 8140   0.916   4.634   7.739
 2589SOL    HW1 8141   0.979   4.672   7.671
 2589SOL    HW2 8142   0.956   4.551   7.778
 2590SOL     OW 8143   0.255   5.072   7.738
 2590SOL    HW1 8144   0.159   5.073   7.711
 2590SOL    HW2 8145   0.267   5.125   7.822
 2591SOL     OW 8146   0.075   4.069   7.481
 2591SOL    HW1 8147  -0.017   4.041   7.452
 2591SOL    HW2 8148   0.106   4.146   7.425
 2592SOL     OW 8149   0.072   3.890   7.766
 2592SOL    HW1 8150   0.055   3.973   7.712
 2592SOL    HW2 8151   0.162   3.853   7.744
 2593SOL     OW 8152   1.183   5.059   7.567
 2593SOL    HW1 8153   1.084   5.048   7.569
 2593SOL    HW2 8154   1.217   5.074   7.660
 2594SOL     OW 8155   1.225   4.049   7.897
 2594SOL    HW1 8156   1.290   3.975   7.886
 2594SOL    HW2 8157   1.245   4.099   7.981
 2595SOL     OW 8158   0.594   4.469   8.100
 2595SOL    HW1 8159   0.644   4.554   8.081
 2595SOL    HW2 8160   0.506   4.471   8.052
 2596SOL     OW 8161   0.859   5.098   7.464
 2596SOL    HW1 8162   0.813   5.113   7.552
 2596SOL    HW2 8163   0.903   5.183   7.434
 2597SOL     OW 8164   1.083   4.708   7.535
 2597SOL    HW1 8165   1.060   4.761   7.453
 2597SOL    HW2 8166   1.164   4.652   7.516
 2598SOL     OW 8167   0.428   4.148   7.968
 2598SOL    HW1 8168   0.458   4.076   7.906
 2598SOL    HW2 8169   0.389   4.108   8.051
 2599SOL     OW 8170   0.770   5.054   7.749
 2599SOL    HW1 8171   0.724   4.967   7.766
 2599SOL    HW2 8172   0.861   5.051   7.790
 2600SOL     OW 8173   1.352   3.776   7.616
 2600SOL    HW1 8174   1.387   3.735   7.532
 2600SOL    HW2 8175   1.262   3.738   7.636
 2601SOL     OW 8176   0.039   4.801   7.748
 2601SOL    HW1 8177   0.138   4.790   7.739
 2601SOL    HW2 8178  -0.001   4.715   7.780
 2602SOL     OW 8179   2.092   0.628   0.113
 2602SOL    HW1 8180   1.999   0.626   0.150
 2602SOL    HW2 8181   2.093   0.589   0.021
 2603SOL     OW 8182   2.087   0.275   0.996
 2603SOL    HW1 8183   2.122   0.258   1.088
 2603SOL    HW2 8184   1.999   0.230   0.984
 2604SOL     OW 8185   1.881   0.368   0.647
 2604SOL    HW1 8186   1.799   0.411   0.686
 2604SOL    HW2 8187   1.853   0.295   0.584
 2605SOL     OW 8188   2.431   1.275   1.165
 2605SOL    HW1 8189   2.338   1.268   1.128
 2605SOL    HW2 8190   2.442   1.364   1.209
 2606SOL     OW 8191   3.417   1.511   0.703
 2606SOL    HW1 8192   3.360   1.495   0.784
 2606SOL    HW2 8193   3.358   1.521   0.623
 2607SOL     OW 8194   2.997   0.703   0.717
 2607SOL    HW1 8195   3.054   0.781   0.692
 2607SOL    HW2 8196   2.937   0.729   0.793
 2608SOL     OW 8197   3.617   0.607   0.231
 2608SOL    HW1 8198   3.605   0.594   0.132
 2608SOL    HW2 8199   3.587   0.526   0.280
 2609SOL     OW 8200   2.630   1.144   1.023
 2609SOL    HW1 8201   2.552   1.161   1.083
 2609SOL    HW2 8202   2.664   1.231   0.987
 2610SOL     OW 8203   2.712   0.798   1.823
 2610SOL    HW1 8204   2.708   0.874   1.888
 2610SOL    HW2 8205   2.734   0.834   1.732
 2611SOL     OW 8206   2.547   1.012   0.665
 2611SOL    HW1 8207   2.616   0.996   0.735
 2611SOL    HW2 8208   2.474   1.069   0.703
 2612SOL     OW 8209   2.548   1.161   1.803
 2612SOL    HW1 8210   2.608   1.240   1.817
 2612SOL    HW2 8211   2.462   1.192   1.762
 2613SOL     OW 8212   2.197   1.435   1.061
 2613SOL    HW1 8213   2.119   1.404   1.008
 2613SOL    HW2 8214   2.255   1.493   1.004
 2614SOL     OW 8215   3.322   1.505   1.339
 2614SOL    HW1 8216   3.346   1.599   1.365
 2614SOL    HW2 8217   3.306   1.451   1.421
 2615SOL     OW 8218   2.300   0.392   1.499
 2615SOL    HW1 8219   2.382   0.336   1.508
 2615SOL    HW2 8220   2.219   0.334   1.503
 2616SOL     OW 8221   3.465   0.447   0.737
 2616SOL    HW1 8222   3.391   0.493   0.687
 2616SOL    HW2 8223   3.516   0.515   0.790
 2617SOL     OW 8224   2.093   1.713   0.483
 2617SOL    HW1 8225   2.127   1.790   0.537
 2617SOL    HW2 8226   2.137   1.713   0.393
 2618SOL     OW 8227   2.989   1.341   1.690
 2618SOL    HW1 8228   3.036   1.341   1.778
 2618SOL    HW2 8229   2.941   1.254   1.679
 2619SOL     OW 8230   2.092   1.434   0.538
 2619SOL    HW1 8231   2.066   1.530   0.538
 2619SOL    HW2 8232   2.021   1.380   0.583
 2620SOL     OW 8233   2.102   1.091   0.886
 2620SOL    HW1 8234   2.116   1.007   0.938
 2620SOL    HW2 8235   2.047   1.155   0.941
 2621SOL     OW 8236   2.482   1.786   1.439
 2621SOL    HW1 8237   2.390   1.769   1.474
 2621SOL    HW2 8238   2.510   1.878   1.465
 2622SOL     OW 8239   2.468   0.964   0.123
 2622SOL    HW1 8240   2.475   1.048   0.069
 2622SOL    HW2 8241   2.514   0.977   0.211
 2623SOL     OW 8242   3.456   0.114   1.480
 2623SOL    HW1 8243   3.438   0.181   1.408
 2623SOL    HW2 8244   3.453   0.160   1.569
 2624SOL     OW 8245   1.984   0.643   0.563
 2624SOL    HW1 8246   1.939   0.555   0.580
 2624SOL    HW2 8247   1.983   0.697   0.647
 2625SOL     OW 8248   3.704   1.767   0.359
 2625SOL    HW1 8249   3.758   1.738   0.439
 2625SOL    HW2 8250   3.734   1.857   0.330
 2626SOL     OW 8251   1.889   1.596   0.117
 2626SOL    HW1 8252   1.870   1.500   0.138
 2626SOL    HW2 8253   1.856   1.654   0.192
 2627SOL     OW 8254   3.551   0.922   0.612
 2627SOL    HW1 8255   3.646   0.893   0.620
 2627SOL    HW2 8256   3.543   0.987   0.537
 2628SOL     OW 8257   3.503   1.108   0.432
 2628SOL    HW1 8258   3.589   1.110   0.380
 2628SOL    HW2 8259   3.517   1.155   0.520
 2629SOL     OW 8260   1.975   0.737   1.597
 2629SOL    HW1 8261   2.063   0.724   1.642
 2629SOL    HW2 8262   1.962   0.834   1.575
 2630SOL     OW 8263   2.475   1.365   0.726
 2630SOL    HW1 8264   2.426   1.278   0.735
 2630SOL    HW2 8265   2.452   1.408   0.639
 2631SOL     OW 8266   3.155   1.228   1.423
 2631SOL    HW1 8267   3.192   1.155   1.365
 2631SOL    HW2 8268   3.207   1.233   1.508
 2632SOL     OW 8269   2.671   0.004   0.502
 2632SOL    HW1 8270   2.711   0.095   0.493
 2632SOL    HW2 8271   2.571   0.012   0.508
 2633SOL     OW 8272   2.059   0.976   1.264
 2633SOL    HW1 8273   2.148   0.931   1.250
 2633SOL    HW2 8274   1.986   0.911   1.245
 2634SOL     OW 8275   3.387   0.999   0.190
 2634SOL    HW1 8276   3.324   0.923   0.203
 2634SOL    HW2 8277   3.435   1.017   0.276
 2635SOL     OW 8278   3.049   1.792   1.616
 2635SOL    HW1 8279   3.073   1.852   1.540
 2635SOL    HW2 8280   3.056   1.697   1.586
 2636SOL     OW 8281   2.179   0.251   1.801
 2636SOL    HW1 8282   2.250   0.322   1.807
 2636SOL    HW2 8283   2.091   0.290   1.829
 2637SOL     OW 8284   3.328   1.417   0.953
 2637SOL    HW1 8285   3.269   1.423   1.033
 2637SOL    HW2 8286   3.313   1.329   0.907
 2638SOL     OW 8287   3.529   1.714   0.572
 2638SOL    HW1 8288   3.488   1.691   0.484
 2638SOL    HW2 8289   3.511   1.640   0.637
 2639SOL     OW 8290   2.460   0.729   0.270
 2639SOL    HW1 8291   2.484   0.798   0.202
 2639SOL    HW2 8292   2.382   0.762   0.324
 2640SOL     OW 8293   3.143   0.345   0.944
 2640SOL    HW1 8294   3.057   0.295   0.931
 2640SOL    HW2 8295   3.205   0.291   1.000
 2641SOL     OW 8296   3.438   1.662   0.307
 2641SOL    HW1 8297   3.527   1.708   0.310
 2641SOL    HW2 8298   3.417   1.638   0.212
 2642SOL     OW 8299   2.669   0.605   1.465
 2642SOL    HW1 8300   2.622   0.602   1.554
 2642SOL    HW2 8301   2.618   0.550   1.399
 2643SOL     OW 8302   3.256   0.469   1.674
 2643SOL    HW1 8303   3.236   0.512   1.762
 2643SOL    HW2 8304   3.334   0.407   1.683
 2644SOL     OW 8305   2.835   0.890   1.572
 2644SOL    HW1 8306   2.881   0.806   1.543
 2644SOL    HW2 8307   2.779   0.924   1.497
 2645SOL     OW 8308   2.853   0.410   1.242
 2645SOL    HW1 8309   2.776   0.444   1.296
 2645SOL    HW2 8310   2.819   0.359   1.163
 2646SOL     OW 8311   2.903   0.701   0.429
 2646SOL    HW1 8312   2.929   0.697   0.525
 2646SOL    HW2 8313   2.818   0.650   0.415
 2647SOL     OW 8314   1.938   0.811   0.789
 2647SOL    HW1 8315   2.037   0.799   0.798
 2647SOL    HW2 8316   1.914   0.906   0.810
 2648SOL     OW 8317   1.992   1.821   1.571
 2648SOL    HW1 8318   1.982   1.806   1.670
 2648SOL    HW2 8319   1.906   1.857   1.535
 2649SOL     OW 8320   2.727   0.348   0.195
 2649SOL    HW1 8321   2.786   0.411   0.146
 2649SOL    HW2 8322   2.746   0.254   0.166
 2650SOL     OW 8323   3.581   0.585   1.831
 2650SOL    HW1 8324   3.555   0.674   1.795
 2650SOL    HW2 8325   3.579   0.517   1.758
 2651SOL     OW 8326   3.224   1.144   0.545
 2651SOL    HW1 8327   3.307   1.115   0.497
 2651SOL    HW2 8328   3.175   1.211   0.489
 2652SOL     OW 8329   2.412   0.196   0.885
 2652SOL    HW1 8330   2.407   0.191   0.985
 2652SOL    HW2 8331   2.414   0.292   0.856
 2653SOL     OW 8332   2.870   1.456   0.477
 2653SOL    HW1 8333   2.824   1.528   0.425
 2653SOL    HW2 8334   2.866   1.476   0.575
 2654SOL     OW 8335   2.213   1.801   0.853
 2654SOL    HW1 8336   2.263   1.715   0.859
 2654SOL    HW2 8337   2.278   1.878   0.850
 2655SOL     OW 8338   3.657   1.066   0.873
 2655SOL    HW1 8339   3.595   1.051   0.797
 2655SOL    HW2 8340   3.605   1.077   0.958
 2656SOL     OW 8341   3.089   1.550   1.506
 2656SOL    HW1 8342   3.095   1.473   1.570
 2656SOL    HW2 8343   3.037   1.524   1.426
 2657SOL     OW 8344   2.183   0.943   0.242
 2657SOL    HW1 8345   2.265   0.982   0.200
 2657SOL    HW2 8346   2.156   0.861   0.193
 2658SOL     OW 8347   3.320   0.735   0.728
 2658SOL    HW1 8348   3.315   0.670   0.803
 2658SOL    HW2 8349   3.400   0.794   0.741
 2659SOL     OW 8350   2.323   1.266   1.727
 2659SOL    HW1 8351   2.273   1.267   1.641
 2659SOL    HW2 8352   2.260   1.248   1.803
 2660SOL     OW 8353   2.973   1.776   0.237
 2660SOL    HW1 8354   2.913   1.714   0.287
 2660SOL    HW2 8355   3.004   1.732   0.152
 2661SOL     OW 8356   2.064   0.285   1.498
 2661SOL    HW1 8357   1.984   0.345   1.485
 2661SOL    HW2 8358   2.054   0.236   1.584
 2662SOL     OW 8359   3.494   1.377   0.081
 2662SOL    HW1 8360   3.462   1.471   0.071
 2662SOL    HW2 8361   3.418   1.314   0.069
 2663SOL     OW 8362   2.326   1.743   0.323
 2663SOL    HW1 8363   2.359   1.782   0.409
 2663SOL    HW2 8364   2.402   1.736   0.258
 2664SOL     OW 8365   3.262   0.107   0.426
 2664SOL    HW1 8366   3.238   0.070   0.336
 2664SOL    HW2 8367   3.361   0.123   0.430
 2665SOL     OW 8368   2.111   1.785   1.241
 2665SOL    HW1 8369   2.168   1.720   1.291
 2665SOL    HW2 8370   2.095   1.752   1.148
 2666SOL     OW 8371   2.802   1.698   0.904
 2666SOL    HW1 8372   2.882   1.641   0.925
 2666SOL    HW2 8373   2.753   1.658   0.827
 2667SOL     OW 8374   2.244   0.700   0.480
 2667SOL    HW1 8375   2.289   0.610   0.477
 2667SOL    HW2 8376   2.150   0.689   0.513
 2668SOL     OW 8377   3.409   0.222   1.729
 2668SOL    HW1 8378   3.404   0.259   1.821
 2668SOL    HW2 8379   3.337   0.153   1.717
 2669SOL     OW 8380   2.476   0.122   0.117
 2669SOL    HW1 8381   2.574   0.100   0.124
 2669SOL    HW2 8382   2.445   0.105   0.024
 2670SOL     OW 8383   2.643   0.264   1.749
 2670SOL    HW1 8384   2.710   0.203   1.792
 2670SOL    HW2 8385   2.570   0.283   1.814
 2671SOL     OW 8386   2.750   1.514   1.195
 2671SOL    HW1 8387   2.727   1.489   1.101
 2671SOL    HW2 8388   2.811   1.445   1.234
 2672SOL     OW 8389   3.213   0.590   1.433
 2672SOL    HW1 8390   3.241   0.547   1.518
 2672SOL    HW2 8391   3.238   0.686   1.434
 2673SOL     OW 8392   2.665   1.402   0.924
 2673SOL    HW1 8393   2.755   1.416   0.882
 2673SOL    HW2 8394   2.594   1.404   0.853
 2674SOL     OW 8395   2.784   0.503   0.899
 2674SOL    HW1 8396   2.759   0.494   0.803
 2674SOL    HW2 8397   2.832   0.421   0.930
 2675SOL     OW 8398   2.401   0.064   0.512
 2675SOL    HW1 8399   2.320   0.065   0.570
 2675SOL    HW2 8400   2.404   0.147   0.457
 2676SOL     OW 8401   3.296   1.188   0.041
 2676SOL    HW1 8402   3.328   1.112   0.098
 2676SOL    HW2 8403   3.204   1.215   0.071
 2677SOL     OW 8404   2.159   0.035   0.171
 2677SOL    HW1 8405   2.208   0.119   0.150
 2677SOL    HW2 8406   2.221  -0.030   0.216
 2678SOL     OW 8407   2.797   0.236   0.480
 2678SOL    HW1 8408   2.749   0.277   0.402
 2678SOL    HW2 8409   2.896   0.234   0.461
 2679SOL     OW 8410   2.938   0.683   1.464
 2679SOL    HW1 8411   2.858   0.622   1.467
 2679SOL    HW2 8412   3.019   0.630   1.440
 2680SOL     OW 8413   3.089   1.570   0.793
 2680SOL    HW1 8414   3.110   1.644   0.728
 2680SOL    HW2 8415   3.157   1.570   0.866
 2681SOL     OW 8416   2.321   1.152   0.741
 2681SOL    HW1 8417   2.250   1.125   0.806
 2681SOL    HW2 8418   2.295   1.124   0.648
 2682SOL     OW 8419   3.133   1.797   0.591
 2682SOL    HW1 8420   3.177   1.861   0.527
 2682SOL    HW2 8421   3.083   1.849   0.661
 2683SOL     OW 8422   2.894   0.549   0.016
 2683SOL    HW1 8423   2.853   0.631  -0.023
 2683SOL    HW2 8424   2.958   0.575   0.089
 2684SOL     OW 8425   1.940   0.556   1.386
 2684SOL    HW1 8426   2.032   0.555   1.345
 2684SOL    HW2 8427   1.934   0.630   1.453
 2685SOL     OW 8428   2.423   0.222   1.147
 2685SOL    HW1 8429   2.461   0.138   1.184
 2685SOL    HW2 8430   2.335   0.241   1.191
 2686SOL     OW 8431   2.728   0.454   0.642
 2686SOL    HW1 8432   2.696   0.526   0.580
 2686SOL    HW2 8433   2.752   0.373   0.589
 2687SOL     OW 8434   2.879   0.039   0.753
 2687SOL    HW1 8435   2.807   0.044   0.684
 2687SOL    HW2 8436   2.855  -0.030   0.822
 2688SOL     OW 8437   3.291   1.173   0.867
 2688SOL    HW1 8438   3.236   1.089   0.860
 2688SOL    HW2 8439   3.317   1.202   0.775
 2689SOL     OW 8440   3.328   0.590   0.992
 2689SOL    HW1 8441   3.298   0.495   0.999
 2689SOL    HW2 8442   3.401   0.606   1.058
 2690SOL     OW 8443   3.719   0.833   0.377
 2690SOL    HW1 8444   3.761   0.769   0.441
 2690SOL    HW2 8445   3.681   0.782   0.299
 2691SOL     OW 8446   2.350   1.385   0.174
 2691SOL    HW1 8447   2.263   1.370   0.221
 2691SOL    HW2 8448   2.333   1.411   0.079
 2692SOL     OW 8449   3.526   1.280   0.657
 2692SOL    HW1 8450   3.625   1.288   0.671
 2692SOL    HW2 8451   3.481   1.364   0.688
 2693SOL     OW 8452   3.252   0.575   0.078
 2693SOL    HW1 8453   3.198   0.554   0.159
 2693SOL    HW2 8454   3.343   0.534   0.087
 2694SOL     OW 8455   2.389   0.256   0.328
 2694SOL    HW1 8456   2.416   0.197   0.253
 2694SOL    HW2 8457   2.389   0.351   0.297
 2695SOL     OW 8458   3.616   1.223   1.588
 2695SOL    HW1 8459   3.707   1.184   1.575
 2695SOL    HW2 8460   3.624   1.319   1.612
 2696SOL     OW 8461   2.926   1.347   1.340
 2696SOL    HW1 8462   2.846   1.324   1.395
 2696SOL    HW2 8463   3.009   1.321   1.389
 2697SOL     OW 8464   3.454   1.629   1.625
 2697SOL    HW1 8465   3.481   1.663   1.535
 2697SOL    HW2 8466   3.533   1.591   1.671
 2698SOL     OW 8467   2.973   1.195   1.100
 2698SOL    HW1 8468   2.933   1.239   1.181
 2698SOL    HW2 8469   2.932   1.232   1.017
 2699SOL     OW 8470   3.500   1.099   1.079
 2699SOL    HW1 8471   3.505   1.180   1.138
 2699SOL    HW2 8472   3.414   1.101   1.028
 2700SOL     OW 8473   2.777   0.089   1.402
 2700SOL    HW1 8474   2.802   0.069   1.307
 2700SOL    HW2 8475   2.849   0.145   1.444
 2701SOL     OW 8476   2.842   1.116   1.719
 2701SOL    HW1 8477   2.743   1.122   1.729
 2701SOL    HW2 8478   2.865   1.036   1.663
 2702SOL     OW 8479   2.567   1.050   0.368
 2702SOL    HW1 8480   2.553   1.057   0.467
 2702SOL    HW2 8481   2.651   0.999   0.350
 2703SOL     OW 8482   2.272   0.813   1.251
 2703SOL    HW1 8483   2.358   0.825   1.301
 2703SOL    HW2 8484   2.230   0.726   1.278
 2704SOL     OW 8485   3.136   0.386   1.262
 2704SOL    HW1 8486   3.157   0.460   1.326
 2704SOL    HW2 8487   3.047   0.403   1.219
 2705SOL     OW 8488   1.926   1.564   1.331
 2705SOL    HW1 8489   1.880   1.646   1.297
 2705SOL    HW2 8490   2.024   1.583   1.340
 2706SOL     OW 8491   2.229   1.100   0.501
 2706SOL    HW1 8492   2.222   1.183   0.445
 2706SOL    HW2 8493   2.233   1.020   0.441
 2707SOL     OW 8494   2.428   0.537   0.865
 2707SOL    HW1 8495   2.440   0.603   0.791
 2707SOL    HW2 8496   2.474   0.571   0.948
 2708SOL     OW 8497   3.114   1.348   0.388
 2708SOL    HW1 8498   3.164   1.425   0.428
 2708SOL    HW2 8499   3.019   1.350   0.420
 2709SOL     OW 8500   3.134   1.445   1.142
 2709SOL    HW1 8501   3.181   1.458   1.229
 2709SOL    HW2 8502   3.068   1.371   1.151
 2710SOL     OW 8503   3.444   0.639   0.472
 2710SOL    HW1 8504   3.413   0.700   0.545
 2710SOL    HW2 8505   3.494   0.691   0.403
 2711SOL     OW 8506   2.216   1.510   1.329
 2711SOL    HW1 8507   2.195   1.466   1.242
 2711SOL    HW2 8508   2.313   1.536   1.332
 2712SOL     OW 8509   2.264   0.751   1.598
 2712SOL    HW1 8510   2.332   0.806   1.551
 2712SOL    HW2 8511   2.304   0.663   1.625
 2713SOL     OW 8512   3.449   0.779   1.670
 2713SOL    HW1 8513   3.357   0.817   1.665
 2713SOL    HW2 8514   3.509   0.826   1.605
 2714SOL     OW 8515   2.875   0.105   1.770
 2714SOL    HW1 8516   2.881   0.190   1.718
 2714SOL    HW2 8517   2.907   0.029   1.713
 2715SOL     OW 8518   2.366   0.050   1.740
 2715SOL    HW1 8519   2.324  -0.007   1.670
 2715SOL    HW2 8520   2.300   0.119   1.772
 2716SOL     OW 8521   2.435   0.870   1.029
 2716SOL    HW1 8522   2.479   0.959   1.020
 2716SOL    HW2 8523   2.372   0.870   1.106
 2717SOL     OW 8524   3.222   0.862   1.045
 2717SOL    HW1 8525   3.147   0.862   0.979
 2717SOL    HW2 8526   3.259   0.770   1.054
 2718SOL     OW 8527   3.071   0.525   0.275
 2718SOL    HW1 8528   3.084   0.441   0.329
 2718SOL    HW2 8529   3.042   0.599   0.335
 2719SOL     OW 8530   2.169   0.213   1.231
 2719SOL    HW1 8531   2.146   0.250   1.321
 2719SOL    HW2 8532   2.139   0.118   1.225
 2720SOL     OW 8533   1.899   1.310   1.282
 2720SOL    HW1 8534   1.952   1.261   1.350
 2720SOL    HW2 8535   1.921   1.408   1.287
 2721SOL     OW 8536   2.594   0.634   1.064
 2721SOL    HW1 8537   2.653   0.608   0.988
 2721SOL    HW2 8538   2.566   0.730   1.053
 2722SOL     OW 8539   3.590   0.935   1.854
 2722SOL    HW1 8540   3.544   0.928   1.765
 2722SOL    HW2 8541   3.528   0.979   1.920
 2723SOL     OW 8542   2.169   0.063   0.618
 2723SOL    HW1 8543   2.158   0.157   0.651
 2723SOL    HW2 8544   2.164   0.000   0.695
 2724SOL     OW 8545   3.484   0.367   0.374
 2724SOL    HW1 8546   3.486   0.291   0.438
 2724SOL    HW2 8547   3.436   0.444   0.414
 2725SOL     OW 8548   2.885   0.766   0.966
 2725SOL    HW1 8549   2.900   0.787   1.062
 2725SOL    HW2 8550   2.855   0.671   0.957
 2726SOL     OW 8551   2.842   1.573   1.700
 2726SOL    HW1 8552   2.822   1.617   1.612
 2726SOL    HW2 8553   2.881   1.482   1.684
 2727SOL     OW 8554   3.721   1.518   1.605
 2727SOL    HW1 8555   3.735   1.545   1.510
 2727SOL    HW2 8556   3.804   1.540   1.658
 2728SOL     OW 8557   2.212   0.898   1.804
 2728SOL    HW1 8558   2.288   0.942   1.852
 2728SOL    HW2 8559   2.247   0.851   1.722
 2729SOL     OW 8560   3.402   0.274   0.125
 2729SOL    HW1 8561   3.341   0.199   0.148
 2729SOL    HW2 8562   3.424   0.326   0.208
 2730SOL     OW 8563   3.165   0.838   0.042
 2730SOL    HW1 8564   3.199   0.745   0.057
 2730SOL    HW2 8565   3.183   0.865  -0.053
 2731SOL     OW 8566   2.930   1.333   0.849
 2731SOL    HW1 8567   2.937   1.249   0.794
 2731SOL    HW2 8568   2.992   1.402   0.813
 2732SOL     OW 8569   2.181   0.810   0.949
 2732SOL    HW1 8570   2.274   0.846   0.954
 2732SOL    HW2 8571   2.175   0.725   1.001
 2733SOL     OW 8572   2.201   0.509   1.006
 2733SOL    HW1 8573   2.149   0.426   0.989
 2733SOL    HW2 8574   2.278   0.514   0.942
 2734SOL     OW 8575   3.000   0.380   1.678
 2734SOL    HW1 8576   2.955   0.443   1.742
 2734SOL    HW2 8577   3.093   0.411   1.661
 2735SOL     OW 8578   3.022   0.207   1.477
 2735SOL    HW1 8579   3.022   0.271   1.554
 2735SOL    HW2 8580   3.050   0.255   1.394
 2736SOL     OW 8581   1.870   1.326   0.200
 2736SOL    HW1 8582   1.777   1.347   0.169
 2736SOL    HW2 8583   1.880   1.227   0.213
 2737SOL     OW 8584   1.950   1.801   0.927
 2737SOL    HW1 8585   1.908   1.715   0.900
 2737SOL    HW2 8586   2.044   1.804   0.893
 2738SOL     OW 8587   2.366   1.568   0.910
 2738SOL    HW1 8588   2.432   1.642   0.919
 2738SOL    HW2 8589   2.410   1.489   0.868
 2739SOL     OW 8590   2.864   0.796   1.238
 2739SOL    HW1 8591   2.905   0.764   1.324
 2739SOL    HW2 8592   2.768   0.769   1.235
 2740SOL     OW 8593   1.902   0.544   1.114
 2740SOL    HW1 8594   1.987   0.511   1.073
 2740SOL    HW2 8595   1.915   0.559   1.212
 2741SOL     OW 8596   2.051   0.520   1.722
 2741SOL    HW1 8597   2.110   0.480   1.652
 2741SOL    HW2 8598   1.993   0.591   1.681
 2742SOL     OW 8599   3.231   0.950   1.660
 2742SOL    HW1 8600   3.270   1.039   1.680
 2742SOL    HW2 8601   3.241   0.930   1.563
 2743SOL     OW 8602   2.677   0.572   0.325
 2743SOL    HW1 8603   2.684   0.483   0.279
 2743SOL    HW2 8604   2.583   0.606   0.317
 2744SOL     OW 8605   3.519   0.604   1.206
 2744SOL    HW1 8606   3.481   0.535   1.268
 2744SOL    HW2 8607   3.601   0.568   1.162
 2745SOL     OW 8608   2.114   1.564   1.744
 2745SOL    HW1 8609   2.084   1.621   1.820
 2745SOL    HW2 8610   2.107   1.467   1.770
 2746SOL     OW 8611   2.533   0.464   1.269
 2746SOL    HW1 8612   2.499   0.375   1.239
 2746SOL    HW2 8613   2.559   0.518   1.189
 2747SOL     OW 8614   2.792   1.678   1.465
 2747SOL    HW1 8615   2.768   1.660   1.370
 2747SOL    HW2 8616   2.822   1.772   1.475
 2748SOL     OW 8617   2.335   0.500   0.191
 2748SOL    HW1 8618   2.396   0.580   0.195
 2748SOL    HW2 8619   2.240   0.531   0.198
 2749SOL     OW 8620   2.021   1.137   1.466
 2749SOL    HW1 8621   2.043   1.076   1.542
 2749SOL    HW2 8622   2.031   1.088   1.380
 2750SOL     OW 8623   3.209   1.059   1.234
 2750SOL    HW1 8624   3.233   0.996   1.160
 2750SOL    HW2 8625   3.119   1.099   1.216
 2751SOL     OW 8626   3.164   0.855   0.309
 2751SOL    HW1 8627   3.078   0.824   0.351
 2751SOL    HW2 8628   3.160   0.841   0.210
 2752SOL     OW 8629   3.621   1.747   1.154
 2752SOL    HW1 8630   3.682   1.777   1.081
 2752SOL    HW2 8631   3.583   1.658   1.132
 2753SOL     OW 8632   3.114   1.731   1.128
 2753SOL    HW1 8633   3.198   1.736   1.074
 2753SOL    HW2 8634   3.091   1.635   1.146
 2754SOL     OW 8635   1.945   1.258   1.022
 2754SOL    HW1 8636   1.940   1.257   1.122
 2754SOL    HW2 8637   1.862   1.217   0.984
 2755SOL     OW 8638   2.550   1.662   1.716
 2755SOL    HW1 8639   2.494   1.743   1.725
 2755SOL    HW2 8640   2.602   1.666   1.630
 2756SOL     OW 8641   2.765   0.086   0.133
 2756SOL    HW1 8642   2.816   0.087   0.047
 2756SOL    HW2 8643   2.821   0.044   0.204
 2757SOL     OW 8644   3.588   0.135   0.523
 2757SOL    HW1 8645   3.661   0.118   0.456
 2757SOL    HW2 8646   3.557   0.048   0.561
 2758SOL     OW 8647   3.250   1.573   0.477
 2758SOL    HW1 8648   3.317   1.585   0.403
 2758SOL    HW2 8649   3.210   1.662   0.500
 2759SOL     OW 8650   1.992   1.794   1.851
 2759SOL    HW1 8651   1.951   1.720   1.904
 2759SOL    HW2 8652   2.056   1.845   1.909
 2760SOL     OW 8653   3.142   0.927   0.672
 2760SOL    HW1 8654   3.202   0.846   0.674
 2760SOL    HW2 8655   3.182   0.996   0.612
 2761SOL     OW 8656   2.692   1.273   1.422
 2761SOL    HW1 8657   2.687   1.306   1.517
 2761SOL    HW2 8658   2.606   1.292   1.376
 2762SOL     OW 8659   2.534   1.616   0.154
 2762SOL    HW1 8660   2.543   1.626   0.055
 2762SOL    HW2 8661   2.494   1.527   0.175
 2763SOL     OW 8662   3.512   1.720   1.394
 2763SOL    HW1 8663   3.565   1.730   1.310
 2763SOL    HW2 8664   3.485   1.810   1.428
 2764SOL     OW 8665   3.703   0.175   0.963
 2764SOL    HW1 8666   3.742   0.090   0.927
 2764SOL    HW2 8667   3.605   0.177   0.944
 2765SOL     OW 8668   2.125   0.326   0.720
 2765SOL    HW1 8669   2.046   0.377   0.686
 2765SOL    HW2 8670   2.116   0.311   0.818
 2766SOL     OW 8671   3.056   1.612   0.031
 2766SOL    HW1 8672   3.062   1.519   0.068
 2766SOL    HW2 8673   2.997   1.612  -0.049
 2767SOL     OW 8674   2.684   1.002   1.372
 2767SOL    HW1 8675   2.724   1.001   1.280
 2767SOL    HW2 8676   2.694   1.094   1.412
 2768SOL     OW 8677   2.778   0.910   0.291
 2768SOL    HW1 8678   2.841   0.948   0.223
 2768SOL    HW2 8679   2.818   0.827   0.330
 2769SOL     OW 8680   3.366   1.607   0.044
 2769SOL    HW1 8681   3.274   1.644   0.051
 2769SOL    HW2 8682   3.404   1.627  -0.046
 2770SOL     OW 8683   2.234   1.288   1.490
 2770SOL    HW1 8684   2.221   1.381   1.456
 2770SOL    HW2 8685   2.150   1.236   1.477
 2771SOL     OW 8686   3.476   1.292   1.289
 2771SOL    HW1 8687   3.536   1.295   1.369
 2771SOL    HW2 8688   3.401   1.356   1.302
 2772SOL     OW 8689   2.901   1.098   0.696
 2772SOL    HW1 8690   2.831   1.051   0.750
 2772SOL    HW2 8691   2.960   1.030   0.653
 2773SOL     OW 8692   2.876   0.236   0.971
 2773SOL    HW1 8693   2.868   0.200   0.878
 2773SOL    HW2 8694   2.874   0.160   1.036
 2774SOL     OW 8695   2.452   1.487   0.491
 2774SOL    HW1 8696   2.494   1.429   0.421
 2774SOL    HW2 8697   2.408   1.566   0.447
 2775SOL     OW 8698   3.571   0.385   1.381
 2775SOL    HW1 8699   3.644   0.454   1.385
 2775SOL    HW2 8700   3.599   0.310   1.322
 2776SOL     OW 8701   2.117   1.348   0.290
 2776SOL    HW1 8702   2.021   1.349   0.263
 2776SOL    HW2 8703   2.129   1.401   0.374
 2777SOL     OW 8704   1.967   1.013   1.726
 2777SOL    HW1 8705   1.890   0.980   1.780
 2777SOL    HW2 8706   2.052   0.983   1.768
 2778SOL     OW 8707   2.534   0.203   1.489
 2778SOL    HW1 8708   2.624   0.187   1.449
 2778SOL    HW2 8709   2.542   0.208   1.588
 2779SOL     OW 8710   1.937   0.345   0.033
 2779SOL    HW1 8711   1.845   0.317   0.004
 2779SOL    HW2 8712   1.968   0.422  -0.023
 2780SOL     OW 8713   3.302   0.856   1.398
 2780SOL    HW1 8714   3.245   0.908   1.335
 2780SOL    HW2 8715   3.398   0.868   1.374
 2781SOL     OW 8716   1.934   0.166   0.318
 2781SOL    HW1 8717   1.917   0.249   0.264
 2781SOL    HW2 8718   2.024   0.129   0.296
 2782SOL     OW 8719   3.045   1.335   0.119
 2782SOL    HW1 8720   2.946   1.324   0.121
 2782SOL    HW2 8721   3.079   1.350   0.212
 2783SOL     OW 8722   2.475   0.842   1.431
 2783SOL    HW1 8723   2.531   0.923   1.414
 2783SOL    HW2 8724   2.534   0.762   1.434
 2784SOL     OW 8725   3.355   1.767   0.959
 2784SOL    HW1 8726   3.388   1.831   0.890
 2784SOL    HW2 8727   3.421   1.761   1.034
 2785SOL     OW 8728   2.578   0.565   1.708
 2785SOL    HW1 8729   2.597   0.630   1.782
 2785SOL    HW2 8730   2.638   0.485   1.717
 2786SOL     OW 8731   3.312   1.220   1.633
 2786SOL    HW1 8732   3.303   1.210   1.732
 2786SOL    HW2 8733   3.408   1.213   1.607
 2787SOL     OW 8734   2.252   1.741   1.560
 2787SOL    HW1 8735   2.161   1.782   1.558
 2787SOL    HW2 8736   2.245   1.647   1.592
 2788SOL     OW 8737   3.536   0.883   1.254
 2788SOL    HW1 8738   3.509   0.794   1.217
 2788SOL    HW2 8739   3.537   0.951   1.181
 2789SOL     OW 8740   3.087   0.325   0.449
 2789SOL    HW1 8741   3.152   0.251   0.438
 2789SOL    HW2 8742   3.107   0.375   0.533
 2790SOL     OW 8743   2.456   0.745   0.652
 2790SOL    HW1 8744   2.506   0.830   0.633
 2790SOL    HW2 8745   2.368   0.747   0.604
 2791SOL     OW 8746   3.639   0.342   1.642
 2791SOL    HW1 8747   3.622   0.373   1.548
 2791SOL    HW2 8748   3.555   0.305   1.680
 2792SOL     OW 8749   3.592   0.934   1.517
 2792SOL    HW1 8750   3.630   1.025   1.532
 2792SOL    HW2 8751   3.584   0.917   1.418
 2793SOL     OW 8752   2.721   1.374   0.016
 2793SOL    HW1 8753   2.675   1.389   0.104
 2793SOL    HW2 8754   2.765   1.459  -0.014
 2794SOL     OW 8755   2.523   1.790   0.953
 2794SOL    HW1 8756   2.477   1.878   0.940
 2794SOL    HW2 8757   2.622   1.802   0.946
 2795SOL     OW 8758   2.721   0.956   0.861
 2795SOL    HW1 8759   2.775   0.887   0.909
 2795SOL    HW2 8760   2.689   1.025   0.927
 2796SOL     OW 8761   2.945   0.984   0.087
 2796SOL    HW1 8762   2.922   1.037   0.005
 2796SOL    HW2 8763   3.026   0.928   0.068
 2797SOL     OW 8764   3.723   1.569   0.851
 2797SOL    HW1 8765   3.652   1.557   0.781
 2797SOL    HW2 8766   3.724   1.490   0.911
 2798SOL     OW 8767   2.083   1.314   1.844
 2798SOL    HW1 8768   2.018   1.241   1.823
 2798SOL    HW2 8769   2.087   1.328   1.942
 2799SOL     OW 8770   1.941   1.240   0.653
 2799SOL    HW1 8771   1.940   1.193   0.741
 2799SOL    HW2 8772   2.023   1.212   0.602
 2800SOL     OW 8773   2.534   1.391   1.624
 2800SOL    HW1 8774   2.456   1.341   1.662
 2800SOL    HW2 8775   2.531   1.486   1.655
 2801SOL     OW 8776   3.686   0.192   1.227
 2801SOL    HW1 8777   3.682   0.102   1.271
 2801SOL    HW2 8778   3.689   0.181   1.128
 2802SOL     OW 8779   2.290   0.424   0.520
 2802SOL    HW1 8780   2.320   0.352   0.458
 2802SOL    HW2 8781   2.251   0.384   0.603
 2803SOL     OW 8782   3.567   1.487   1.104
 2803SOL    HW1 8783   3.474   1.462   1.077
 2803SOL    HW2 8784   3.593   1.437   1.186
 2804SOL     OW 8785   2.179   0.547   1.280
 2804SOL    HW1 8786   2.217   0.488   1.352
 2804SOL    HW2 8787   2.219   0.521   1.192
 2805SOL     OW 8788   2.674   1.586   0.687
 2805SOL    HW1 8789   2.706   1.596   0.593
 2805SOL    HW2 8790   2.595   1.524   0.689
 2806SOL     OW 8791   3.286   0.214   1.112
 2806SOL    HW1 8792   3.338   0.149   1.167
 2806SOL    HW2 8793   3.237   0.277   1.173
 2807SOL     OW 8794   2.863   0.034   1.154
 2807SOL    HW1 8795   2.800  -0.038   1.123
 2807SOL    HW2 8796   2.956  -0.002   1.154
 2808SOL     OW 8797   2.632   1.330   0.301
 2808SOL    HW1 8798   2.586   1.243   0.318
 2808SOL    HW2 8799   2.723   1.327   0.342
 2809SOL     OW 8800   2.480   1.567   1.284
 2809SOL    HW1 8801   2.475   1.649   1.341
 2809SOL    HW2 8802   2.569   1.564   1.239
 2810SOL     OW 8803   3.214   0.052   0.168
 2810SOL    HW1 8804   3.249   0.011   0.084
 2810SOL    HW2 8805   3.124   0.014   0.188
 2811SOL     OW 8806   3.162   0.453   0.691
 2811SOL    HW1 8807   3.103   0.533   0.695
 2811SOL    HW2 8808   3.177   0.418   0.784
 2812SOL     OW 8809   3.455   0.221   0.882
 2812SOL    HW1 8810   3.371   0.220   0.936
 2812SOL    HW2 8811   3.457   0.304   0.826
 2813SOL     OW 8812   1.901   1.077   0.300
 2813SOL    HW1 8813   2.000   1.066   0.291
 2813SOL    HW2 8814   1.861   0.991   0.332
 2814SOL     OW 8815   2.737   1.646   0.337
 2814SOL    HW1 8816   2.660   1.611   0.283
 2814SOL    HW2 8817   2.705   1.717   0.399
 2815SOL     OW 8818   2.092   0.628   1.975
 2815SOL    HW1 8819   1.999   0.626   2.012
 2815SOL    HW2 8820   2.093   0.589   1.883
 2816SOL     OW 8821   2.087   0.275   2.858
 2816SOL    HW1 8822   2.122   0.258   2.950
 2816SOL    HW2 8823   1.999   0.230   2.846
 2817SOL     OW 8824   1.881   0.368   2.509
 2817SOL    HW1 8825   1.799   0.411   2.548
 2817SOL    HW2 8826   1.853   0.295   2.446
 2818SOL     OW 8827   2.431   1.275   3.027
 2818SOL    HW1 8828   2.338   1.268   2.990
 2818SOL    HW2 8829   2.442   1.364   3.071
 2819SOL     OW 8830   3.417   1.511   2.565
 2819SOL    HW1 8831   3.360   1.495   2.646
 2819SOL    HW2 8832   3.358   1.521   2.485
 2820SOL     OW 8833   2.997   0.703   2.579
 2820SOL    HW1 8834   3.054   0.781   2.554
 2820SOL    HW2 8835   2.937   0.729   2.655
 2821SOL     OW 8836   3.617   0.607   2.093
 2821SOL    HW1 8837   3.605   0.594   1.994
 2821SOL    HW2 8838   3.587   0.526   2.142
 2822SOL     OW 8839   2.630   1.144   2.885
 2822SOL    HW1 8840   2.552   1.161   2.945
 2822SOL    HW2 8841   2.664   1.231   2.849
 2823SOL     OW 8842   2.712   0.798   3.685
 2823SOL    HW1 8843   2.708   0.874   3.750
 2823SOL    HW2 8844   2.734   0.834   3.594
 2824SOL     OW 8845   2.547   1.012   2.527
 2824SOL    HW1 8846   2.616   0.996   2.597
 2824SOL    HW2 8847   2.474   1.069   2.565
 2825SOL     OW 8848   2.548   1.161   3.665
 2825SOL    HW1 8849   2.608   1.240   3.679
 2825SOL    HW2 8850   2.462   1.192   3.624
 2826SOL     OW 8851   2.197   1.435   2.923
 2826SOL    HW1 8852   2.119   1.404   2.870
 2826SOL    HW2 8853   2.255   1.493   2.866
 2827SOL     OW 8854   3.322   1.505   3.201
 2827SOL    HW1 8855   3.346   1.599   3.227
 2827SOL    HW2 8856   3.306   1.451   3.283
 2828SOL     OW 8857   2.300   0.392   3.361
 2828SOL    HW1 8858   2.382   0.336   3.370
 2828SOL    HW2 8859   2.219   0.334   3.365
 2829SOL     OW 8860   3.465   0.447   2.599
 2829SOL    HW1 8861   3.391   0.493   2.549
 2829SOL    HW2 8862   3.516   0.515   2.652
 2830SOL     OW 8863   2.093   1.713   2.345
 2830SOL    HW1 8864   2.127   1.790   2.399
 2830SOL    HW2 8865   2.137   1.713   2.255
 2831SOL     OW 8866   2.989   1.341   3.552
 2831SOL    HW1 8867   3.036   1.341   3.640
 2831SOL    HW2 8868   2.941   1.254   3.541
 2832SOL     OW 8869   2.092   1.434   2.400
 2832SOL    HW1 8870   2.066   1.530   2.400
 2832SOL    HW2 8871   2.021   1.380   2.445
 2833SOL     OW 8872   2.102   1.091   2.748
 2833SOL    HW1 8873   2.116   1.007   2.800
 2833SOL    HW2 8874   2.047   1.155   2.803
 2834SOL     OW 8875   2.482   1.786   3.301
 2834SOL    HW1 8876   2.390   1.769   3.336
 2834SOL    HW2 8877   2.510   1.878   3.327
 2835SOL     OW 8878   2.468   0.964   1.985
 2835SOL    HW1 8879   2.475   1.048   1.931
 2835SOL    HW2 8880   2.514   0.977   2.073
 2836SOL     OW 8881   3.456   0.114   3.342
 2836SOL    HW1 8882   3.438   0.181   3.270
 2836SOL    HW2 8883   3.453   0.160   3.431
 2837SOL     OW 8884   1.984   0.643   2.425
 2837SOL    HW1 8885   1.939   0.555   2.442
 2837SOL    HW2 8886   1.983   0.697   2.509
 2838SOL     OW 8887   3.704   1.767   2.221
 2838SOL    HW1 8888   3.758   1.738   2.301
 2838SOL    HW2 8889   3.734   1.857   2.192
 2839SOL     OW 8890   1.889   1.596   1.979
 2839SOL    HW1 8891   1.870   1.500   2.000
 2839SOL    HW2 8892   1.856   1.654   2.054
 2840SOL     OW 8893   3.551   0.922   2.474
 2840SOL    HW1 8894   3.646   0.893   2.482
 2840SOL    HW2 8895   3.543   0.987   2.399
 2841SOL     OW 8896   3.503   1.108   2.294
 2841SOL    HW1 8897   3.589   1.110   2.242
 2841SOL    HW2 8898   3.517   1.155   2.382
 2842SOL     OW 8899   1.975   0.737   3.459
 2842SOL    HW1 8900   2.063   0.724   3.504
 2842SOL    HW2 8901   1.962   0.834   3.437
 2843SOL     OW 8902   2.475   1.365   2.588
 2843SOL    HW1 8903   2.426   1.278   2.597
 2843SOL    HW2 8904   2.452   1.408   2.501
 2844SOL     OW 8905   3.155   1.228   3.285
 2844SOL    HW1 8906   3.192   1.155   3.227
 2844SOL    HW2 8907   3.207   1.233   3.370
 2845SOL     OW 8908   2.671   0.004   2.364
 2845SOL    HW1 8909   2.711   0.095   2.355
 2845SOL    HW2 8910   2.571   0.012   2.370
 2846SOL     OW 8911   2.059   0.976   3.126
 2846SOL    HW1 8912   2.148   0.931   3.112
 2846SOL    HW2 8913   1.986   0.911   3.107
 2847SOL     OW 8914   3.387   0.999   2.052
 2847SOL    HW1 8915   3.324   0.923   2.065
 2847SOL    HW2 8916   3.435   1.017   2.138
 2848SOL     OW 8917   3.049   1.792   3.478
 2848SOL    HW1 8918   3.073   1.852   3.402
 2848SOL    HW2 8919   3.056   1.697   3.448
 2849SOL     OW 8920   2.179   0.251   3.663
 2849SOL    HW1 8921   2.250   0.322   3.669
 2849SOL    HW2 8922   2.091   0.290   3.691
 2850SOL     OW 8923   3.328   1.417   2.815
 2850SOL    HW1 8924   3.269   1.423   2.895
 2850SOL    HW2 8925   3.313   1.329   2.769
 2851SOL     OW 8926   3.529   1.714   2.434
 2851SOL    HW1 8927   3.488   1.691   2.346
 2851SOL    HW2 8928   3.511   1.640   2.499
 2852SOL     OW 8929   2.460   0.729   2.132
 2852SOL    HW1 8930   2.484   0.798   2.064
 2852SOL    HW2 8931   2.382   0.762   2.186
 2853SOL     OW 8932   3.143   0.345   2.806
 2853SOL    HW1 8933   3.057   0.295   2.793
 2853SOL    HW2 8934   3.205   0.291   2.862
 2854SOL     OW 8935   3.438   1.662   2.169
 2854SOL    HW1 8936   3.527   1.708   2.172
 2854SOL    HW2 8937   3.417   1.638   2.074
 2855SOL     OW 8938   2.669   0.605   3.327
 2855SOL    HW1 8939   2.622   0.602   3.416
 2855SOL    HW2 8940   2.618   0.550   3.261
 2856SOL     OW 8941   3.256   0.469   3.536
 2856SOL    HW1 8942   3.236   0.512   3.624
 2856SOL    HW2 8943   3.334   0.407   3.545
 2857SOL     OW 8944   2.835   0.890   3.434
 2857SOL    HW1 8945   2.881   0.806   3.405
 2857SOL    HW2 8946   2.779   0.924   3.359
 2858SOL     OW 8947   2.853   0.410   3.104
 2858SOL    HW1 8948   2.776   0.444   3.158
 2858SOL    HW2 8949   2.819   0.359   3.025
 2859SOL     OW 8950   2.903   0.701   2.291
 2859SOL    HW1 8951   2.929   0.697   2.387
 2859SOL    HW2 8952   2.818   0.650   2.277
 2860SOL     OW 8953   1.938   0.811   2.651
 2860SOL    HW1 8954   2.037   0.799   2.660
 2860SOL    HW2 8955   1.914   0.906   2.672
 2861SOL     OW 8956   1.992   1.821   3.433
 2861SOL    HW1 8957   1.982   1.806   3.532
 2861SOL    HW2 8958   1.906   1.857   3.397
 2862SOL     OW 8959   2.727   0.348   2.057
 2862SOL    HW1 8960   2.786   0.411   2.008
 2862SOL    HW2 8961   2.746   0.254   2.028
 2863SOL     OW 8962   3.581   0.585   3.693
 2863SOL    HW1 8963   3.555   0.674   3.657
 2863SOL    HW2 8964   3.579   0.517   3.620
 2864SOL     OW 8965   3.224   1.144   2.407
 2864SOL    HW1 8966   3.307   1.115   2.359
 2864SOL    HW2 8967   3.175   1.211   2.351
 2865SOL     OW 8968   2.412   0.196   2.747
 2865SOL    HW1 8969   2.407   0.191   2.847
 2865SOL    HW2 8970   2.414   0.292   2.718
 2866SOL     OW 8971   2.870   1.456   2.339
 2866SOL    HW1 8972   2.824   1.528   2.287
 2866SOL    HW2 8973   2.866   1.476   2.437
 2867SOL     OW 8974   2.213   1.801   2.715
 2867SOL    HW1 8975   2.263   1.715   2.721
 2867SOL    HW2 8976   2.278   1.878   2.712
 2868SOL     OW 8977   3.657   1.066   2.735
 2868SOL    HW1 8978   3.595   1.051   2.659
 2868SOL    HW2 8979   3.605   1.077   2.820
 2869SOL     OW 8980   3.089   1.550   3.368
 2869SOL    HW1 8981   3.095   1.473   3.432
 2869SOL    HW2 8982   3.037   1.524   3.288
 2870SOL     OW 8983   2.183   0.943   2.104
 2870SOL    HW1 8984   2.265   0.982   2.062
 2870SOL    HW2 8985   2.156   0.861   2.055
 2871SOL     OW 8986   3.320   0.735   2.590
 2871SOL    HW1 8987   3.315   0.670   2.665
 2871SOL    HW2 8988   3.400   0.794   2.603
 2872SOL     OW 8989   2.323   1.266   3.589
 2872SOL    HW1 8990   2.273   1.267   3.503
 2872SOL    HW2 8991   2.260   1.248   3.665
 2873SOL     OW 8992   2.973   1.776   2.099
 2873SOL    HW1 8993   2.913   1.714   2.149
 2873SOL    HW2 8994   3.004   1.732   2.014
 2874SOL     OW 8995   2.064   0.285   3.360
 2874SOL    HW1 8996   1.984   0.345   3.347
 2874SOL    HW2 8997   2.054   0.236   3.446
 2875SOL     OW 8998   3.494   1.377   1.943
 2875SOL    HW1 8999   3.462   1.471   1.933
 2875SOL    HW2 9000   3.418   1.314   1.931
 2876SOL     OW 9001   2.326   1.743   2.185
 2876SOL    HW1 9002   2.359   1.782   2.271
 2876SOL    HW2 9003   2.402   1.736   2.120
 2877SOL     OW 9004   3.262   0.107   2.288
 2877SOL    HW1 9005   3.238   0.070   2.198
 2877SOL    HW2 9006   3.361   0.123   2.292
 2878SOL     OW 9007   2.111   1.785   3.103
 2878SOL    HW1 9008   2.168   1.720   3.153
 2878SOL    HW2 9009   2.095   1.752   3.010
 2879SOL     OW 9010   2.802   1.698   2.766
 2879SOL    HW1 9011   2.882   1.641   2.787
 2879SOL    HW2 9012   2.753   1.658   2.689
 2880SOL     OW 9013   2.244   0.700   2.342
 2880SOL    HW1 9014   2.289   0.610   2.339
 2880SOL    HW2 9015   2.150   0.689   2.375
 2881SOL     OW 9016   3.409   0.222   3.591
 2881SOL    HW1 9017   3.404   0.259   3.683
 2881SOL    HW2 9018   3.337   0.153   3.579
 2882SOL     OW 9019   2.476   0.122   1.979
 2882SOL    HW1 9020   2.574   0.100   1.986
 2882SOL    HW2 9021   2.445   0.105   1.886
 2883SOL     OW 9022   2.643   0.264   3.611
 2883SOL    HW1 9023   2.710   0.203   3.654
 2883SOL    HW2 9024   2.570   0.283   3.676
 2884SOL     OW 9025   2.750   1.514   3.057
 2884SOL    HW1 9026   2.727   1.489   2.963
 2884SOL    HW2 9027   2.811   1.445   3.096
 2885SOL     OW 9028   3.213   0.590   3.295
 2885SOL    HW1 9029   3.241   0.547   3.380
 2885SOL    HW2 9030   3.238   0.686   3.296
 2886SOL     OW 9031   2.665   1.402   2.786
 2886SOL    HW1 9032   2.755   1.416   2.744
 2886SOL    HW2 9033   2.594   1.404   2.715
 2887SOL     OW 9034   2.784   0.503   2.761
 2887SOL    HW1 9035   2.759   0.494   2.665
 2887SOL    HW2 9036   2.832   0.421   2.792
 2888SOL     OW 9037   2.401   0.064   2.374
 2888SOL    HW1 9038   2.320   0.065   2.432
 2888SOL    HW2 9039   2.404   0.147   2.319
 2889SOL     OW 9040   3.296   1.188   1.903
 2889SOL    HW1 9041   3.328   1.112   1.960
 2889SOL    HW2 9042   3.204   1.215   1.933
 2890SOL     OW 9043   2.159   0.035   2.033
 2890SOL    HW1 9044   2.208   0.119   2.012
 2890SOL    HW2 9045   2.221  -0.030   2.078
 2891SOL     OW 9046   2.797   0.236   2.342
 2891SOL    HW1 9047   2.749   0.277   2.264
 2891SOL    HW2 9048   2.896   0.234   2.323
 2892SOL     OW 9049   2.938   0.683   3.326
 2892SOL    HW1 9050   2.858   0.622   3.329
 2892SOL    HW2 9051   3.019   0.630   3.302
 2893SOL     OW 9052   3.089   1.570   2.655
 2893SOL    HW1 9053   3.110   1.644   2.590
 2893SOL    HW2 9054   3.157   1.570   2.728
 2894SOL     OW 9055   2.321   1.152   2.603
 2894SOL    HW1 9056   2.250   1.125   2.668
 2894SOL    HW2 9057   2.295   1.124   2.510
 2895SOL     OW 9058   3.133   1.797   2.453
 2895SOL    HW1 9059   3.177   1.861   2.389
 2895SOL    HW2 9060   3.083   1.849   2.523
 2896SOL     OW 9061   2.894   0.549   1.878
 2896SOL    HW1 9062   2.853   0.631   1.839
 2896SOL    HW2 9063   2.958   0.575   1.951
 2897SOL     OW 9064   1.940   0.556   3.248
 2897SOL    HW1 9065   2.032   0.555   3.207
 2897SOL    HW2 9066   1.934   0.630   3.315
 2898SOL     OW 9067   2.423   0.222   3.009
 2898SOL    HW1 9068   2.461   0.138   3.046
 2898SOL    HW2 9069   2.335   0.241   3.053
 2899SOL     OW 9070   2.728   0.454   2.504
 2899SOL    HW1 9071   2.696   0.526   2.442
 2899SOL    HW2 9072   2.752   0.373   2.451
 2900SOL     OW 9073   2.879   0.039   2.615
 2900SOL    HW1 9074   2.807   0.044   2.546
 2900SOL    HW2 9075   2.855  -0.030   2.684
 2901SOL     OW 9076   3.291   1.173   2.729
 2901SOL    HW1 9077   3.236   1.089   2.722
 2901SOL    HW2 9078   3.317   1.202   2.637
 2902SOL     OW 9079   3.328   0.590   2.854
 2902SOL    HW1 9080   3.298   0.495   2.861
 2902SOL    HW2 9081   3.401   0.606   2.920
 2903SOL     OW 9082   3.719   0.833   2.239
 2903SOL    HW1 9083   3.761   0.769   2.303
 2903SOL    HW2 9084   3.681   0.782   2.161
 2904SOL     OW 9085   2.350   1.385   2.036
 2904SOL    HW1 9086   2.263   1.370   2.083
 2904SOL    HW2 9087   2.333   1.411   1.941
 2905SOL     OW 9088   3.526   1.280   2.519
 2905SOL    HW1 9089   3.625   1.288   2.533
 2905SOL    HW2 9090   3.481   1.364   2.550
 2906SOL     OW 9091   3.252   0.575   1.940
 2906SOL    HW1 9092   3.198   0.554   2.021
 2906SOL    HW2 9093   3.343   0.534   1.949
 2907SOL     OW 9094   2.389   0.256   2.190
 2907SOL    HW1 9095   2.416   0.197   2.115
 2907SOL    HW2 9096   2.389   0.351   2.159
 2908SOL     OW 9097   3.616   1.223   3.450
 2908SOL    HW1 9098   3.707   1.184   3.437
 2908SOL    HW2 9099   3.624   1.319   3.474
 2909SOL     OW 9100   2.926   1.347   3.202
 2909SOL    HW1 9101   2.846   1.324   3.257
 2909SOL    HW2 9102   3.009   1.321   3.251
 2910SOL     OW 9103   3.454   1.629   3.487
 2910SOL    HW1 9104   3.481   1.663   3.397
 2910SOL    HW2 9105   3.533   1.591   3.533
 2911SOL     OW 9106   2.973   1.195   2.962
 2911SOL    HW1 9107   2.933   1.239   3.043
 2911SOL    HW2 9108   2.932   1.232   2.879
 2912SOL     OW 9109   3.500   1.099   2.941
 2912SOL    HW1 9110   3.505   1.180   3.000
 2912SOL    HW2 9111   3.414   1.101   2.890
 2913SOL     OW 9112   2.777   0.089   3.264
 2913SOL    HW1 9113   2.802   0.069   3.169
 2913SOL    HW2 9114   2.849   0.145   3.306
 2914SOL     OW 9115   2.842   1.116   3.581
 2914SOL    HW1 9116   2.743   1.122   3.591
 2914SOL    HW2 9117   2.865   1.036   3.525
 2915SOL     OW 9118   2.567   1.050   2.230
 2915SOL    HW1 9119   2.553   1.057   2.329
 2915SOL    HW2 9120   2.651   0.999   2.212
 2916SOL     OW 9121   2.272   0.813   3.113
 2916SOL    HW1 9122   2.358   0.825   3.163
 2916SOL    HW2 9123   2.230   0.726   3.140
 2917SOL     OW 9124   3.136   0.386   3.124
 2917SOL    HW1 9125   3.157   0.460   3.188
 2917SOL    HW2 9126   3.047   0.403   3.081
 2918SOL     OW 9127   1.926   1.564   3.193
 2918SOL    HW1 9128   1.880   1.646   3.159
 2918SOL    HW2 9129   2.024   1.583   3.202
 2919SOL     OW 9130   2.229   1.100   2.363
 2919SOL    HW1 9131   2.222   1.183   2.307
 2919SOL    HW2 9132   2.233   1.020   2.303
 2920SOL     OW 9133   2.428   0.537   2.727
 2920SOL    HW1 9134   2.440   0.603   2.653
 2920SOL    HW2 9135   2.474   0.571   2.810
 2921SOL     OW 9136   3.114   1.348   2.250
 2921SOL    HW1 9137   3.164   1.425   2.290
 2921SOL    HW2 9138   3.019   1.350   2.282
 2922SOL     OW 9139   3.134   1.445   3.004
 2922SOL    HW1 9140   3.181   1.458   3.091
 2922SOL    HW2 9141   3.068   1.371   3.013
 2923SOL     OW 9142   3.444   0.639   2.334
 2923SOL    HW1 9143   3.413   0.700   2.407
 2923SOL    HW2 9144   3.494   0.691   2.265
 2924SOL     OW 9145   2.216   1.510   3.191
 2924SOL    HW1 9146   2.195   1.466   3.104
 2924SOL    HW2 9147   2.313   1.536   3.194
 2925SOL     OW 9148   2.264   0.751   3.460
 2925SOL    HW1 9149   2.332   0.806   3.413
 2925SOL    HW2 9150   2.304   0.663   3.487
 2926SOL     OW 9151   3.449   0.779   3.532
 2926SOL    HW1 9152   3.357   0.817   3.527
 2926SOL    HW2 9153   3.509   0.826   3.467
 2927SOL     OW 9154   2.875   0.105   3.632
 2927SOL    HW1 9155   2.881   0.190   3.580
 2927SOL    HW2 9156   2.907   0.029   3.575
 2928SOL     OW 9157   2.366   0.050   3.602
 2928SOL    HW1 9158   2.324  -0.007   3.532
 2928SOL    HW2 9159   2.300   0.119   3.634
 2929SOL     OW 9160   2.435   0.870   2.891
 2929SOL    HW1 9161   2.479   0.959   2.882
 2929SOL    HW2 9162   2.372   0.870   2.968
 2930SOL     OW 9163   3.222   0.862   2.907
 2930SOL    HW1 9164   3.147   0.862   2.841
 2930SOL    HW2 9165   3.259   0.770   2.916
 2931SOL     OW 9166   3.071   0.525   2.137
 2931SOL    HW1 9167   3.084   0.441   2.191
 2931SOL    HW2 9168   3.042   0.599   2.197
 2932SOL     OW 9169   2.169   0.213   3.093
 2932SOL    HW1 9170   2.146   0.250   3.183
 2932SOL    HW2 9171   2.139   0.118   3.087
 2933SOL     OW 9172   1.899   1.310   3.144
 2933SOL    HW1 9173   1.952   1.261   3.212
 2933SOL    HW2 9174   1.921   1.408   3.149
 2934SOL     OW 9175   2.594   0.634   2.926
 2934SOL    HW1 9176   2.653   0.608   2.850
 2934SOL    HW2 9177   2.566   0.730   2.915
 2935SOL     OW 9178   3.590   0.935   3.716
 2935SOL    HW1 9179   3.544   0.928   3.627
 2935SOL    HW2 9180   3.528   0.979   3.782
 2936SOL     OW 9181   2.169   0.063   2.480
 2936SOL    HW1 9182   2.158   0.157   2.513
 2936SOL    HW2 9183   2.164   0.000   2.557
 2937SOL     OW 9184   3.484   0.367   2.236
 2937SOL    HW1 9185   3.486   0.291   2.300
 2937SOL    HW2 9186   3.436   0.444   2.276
 2938SOL     OW 9187   2.885   0.766   2.828
 2938SOL    HW1 9188   2.900   0.787   2.924
 2938SOL    HW2 9189   2.855   0.671   2.819
 2939SOL     OW 9190   2.842   1.573   3.562
 2939SOL    HW1 9191   2.822   1.617   3.474
 2939SOL    HW2 9192   2.881   1.482   3.546
 2940SOL     OW 9193   3.721   1.518   3.467
 2940SOL    HW1 9194   3.735   1.545   3.372
 2940SOL    HW2 9195   3.804   1.540   3.520
 2941SOL     OW 9196   2.212   0.898   3.666
 2941SOL    HW1 9197   2.288   0.942   3.714
 2941SOL    HW2 9198   2.247   0.851   3.584
 2942SOL     OW 9199   3.402   0.274   1.987
 2942SOL    HW1 9200   3.341   0.199   2.010
 2942SOL    HW2 9201   3.424   0.326   2.070
 2943SOL     OW 9202   3.165   0.838   1.904
 2943SOL    HW1 9203   3.199   0.745   1.919
 2943SOL    HW2 9204   3.183   0.865   1.809
 2944SOL     OW 9205   2.930   1.333   2.711
 2944SOL    HW1 9206   2.937   1.249   2.656
 2944SOL    HW2 9207   2.992   1.402   2.675
 2945SOL     OW 9208   2.181   0.810   2.811
 2945SOL    HW1 9209   2.274   0.846   2.816
 2945SOL    HW2 9210   2.175   0.725   2.863
 2946SOL     OW 9211   2.201   0.509   2.868
 2946SOL    HW1 9212   2.149   0.426   2.851
 2946SOL    HW2 9213   2.278   0.514   2.804
 2947SOL     OW 9214   3.000   0.380   3.540
 2947SOL    HW1 9215   2.955   0.443   3.604
 2947SOL    HW2 9216   3.093   0.411   3.523
 2948SOL     OW 9217   3.022   0.207   3.339
 2948SOL    HW1 9218   3.022   0.271   3.416
 2948SOL    HW2 9219   3.050   0.255   3.256
 2949SOL     OW 9220   1.870   1.326   2.062
 2949SOL    HW1 9221   1.777   1.347   2.031
 2949SOL    HW2 9222   1.880   1.227   2.075
 2950SOL     OW 9223   1.950   1.801   2.789
 2950SOL    HW1 9224   1.908   1.715   2.762
 2950SOL    HW2 9225   2.044   1.804   2.755
 2951SOL     OW 9226   2.366   1.568   2.772
 2951SOL    HW1 9227   2.432   1.642   2.781
 2951SOL    HW2 9228   2.410   1.489   2.730
 2952SOL     OW 9229   2.864   0.796   3.100
 2952SOL    HW1 9230   2.905   0.764   3.186
 2952SOL    HW2 9231   2.768   0.769   3.097
 2953SOL     OW 9232   1.902   0.544   2.976
 2953SOL    HW1 9233   1.987   0.511   2.935
 2953SOL    HW2 9234   1.915   0.559   3.074
 2954SOL     OW 9235   2.051   0.520   3.584
 2954SOL    HW1 9236   2.110   0.480   3.514
 2954SOL    HW2 9237   1.993   0.591   3.543
 2955SOL     OW 9238   3.231   0.950   3.522
 2955SOL    HW1 9239   3.270   1.039   3.542
 2955SOL    HW2 9240   3.241   0.930   3.425
 2956SOL     OW 9241   2.677   0.572   2.187
 2956SOL    HW1 9242   2.684   0.483   2.141
 2956SOL    HW2 9243   2.583   0.606   2.179
 2957SOL     OW 9244   3.519   0.604   3.068
 2957SOL    HW1 9245   3.481   0.535   3.130
 2957SOL    HW2 9246   3.601   0.568   3.024
 2958SOL     OW 9247   2.114   1.564   3.606
 2958SOL    HW1 9248   2.084   1.621   3.682
 2958SOL    HW2 9249   2.107   1.467   3.632
 2959SOL     OW 9250   2.533   0.464   3.131
 2959SOL    HW1 9251   2.499   0.375   3.101
 2959SOL    HW2 9252   2.559   0.518   3.051
 2960SOL     OW 9253   2.792   1.678   3.327
 2960SOL    HW1 9254   2.768   1.660   3.232
 2960SOL    HW2 9255   2.822   1.772   3.337
 2961SOL     OW 9256   2.335   0.500   2.053
 2961SOL    HW1 9257   2.396   0.580   2.057
 2961SOL    HW2 9258   2.240   0.531   2.060
 2962SOL     OW 9259   2.021   1.137   3.328
 2962SOL    HW1 9260   2.043   1.076   3.404
 2962SOL    HW2 9261   2.031   1.088   3.242
 2963SOL     OW 9262   3.209   1.059   3.096
 2963SOL    HW1 9263   3.233   0.996   3.022
 2963SOL    HW2 9264   3.119   1.099   3.078
 2964SOL     OW 9265   3.164   0.855   2.171
 2964SOL    HW1 9266   3.078   0.824   2.213
 2964SOL    HW2 9267   3.160   0.841   2.072
 2965SOL     OW 9268   3.621   1.747   3.016
 2965SOL    HW1 9269   3.682   1.777   2.943
 2965SOL    HW2 9270   3.583   1.658   2.994
 2966SOL     OW 9271   3.114   1.731   2.990
 2966SOL    HW1 9272   3.198   1.736   2.936
 2966SOL    HW2 9273   3.091   1.635   3.008
 2967SOL     OW 9274   1.945   1.258   2.884
 2967SOL    HW1 9275   1.940   1.257   2.984
 2967SOL    HW2 9276   1.862   1.217   2.846
 2968SOL     OW 9277   2.550   1.662   3.578
 2968SOL    HW1 9278   2.494   1.743   3.587
 2968SOL    HW2 9279   2.602   1.666   3.492
 2969SOL     OW 9280   3.588   0.135   2.385
 2969SOL    HW1 9281   3.661   0.118   2.318
 2969SOL    HW2 9282   3.557   0.048   2.423
 2970SOL     OW 9283   3.250   1.573   2.339
 2970SOL    HW1 9284   3.317   1.585   2.265
 2970SOL    HW2 9285   3.210   1.662   2.362
 2971SOL     OW 9286   1.992   1.794   3.713
 2971SOL    HW1 9287   1.951   1.720   3.766
 2971SOL    HW2 9288   2.056   1.845   3.771
 2972SOL     OW 9289   3.142   0.927   2.534
 2972SOL    HW1 9290   3.202   0.846   2.536
 2972SOL    HW2 9291   3.182   0.996   2.474
 2973SOL     OW 9292   2.692   1.273   3.284
 2973SOL    HW1 9293   2.687   1.306   3.379
 2973SOL    HW2 9294   2.606   1.292   3.238
 2974SOL     OW 9295   2.534   1.616   2.016
 2974SOL    HW1 9296   2.543   1.626   1.917
 2974SOL    HW2 9297   2.494   1.527   2.037
 2975SOL     OW 9298   3.512   1.720   3.256
 2975SOL    HW1 9299   3.565   1.730   3.172
 2975SOL    HW2 9300   3.485   1.810   3.290
 2976SOL     OW 9301   3.703   0.175   2.825
 2976SOL    HW1 9302   3.742   0.090   2.789
 2976SOL    HW2 9303   3.605   0.177   2.806
 2977SOL     OW 9304   2.125   0.326   2.582
 2977SOL    HW1 9305   2.046   0.377   2.548
 2977SOL    HW2 9306   2.116   0.311   2.680
 2978SOL     OW 9307   3.056   1.612   1.893
 2978SOL    HW1 9308   3.062   1.519   1.930
 2978SOL    HW2 9309   2.997   1.612   1.813
 2979SOL     OW 9310   2.684   1.002   3.234
 2979SOL    HW1 9311   2.724   1.001   3.142
 2979SOL    HW2 9312   2.694   1.094   3.274
 2980SOL     OW 9313   2.778   0.910   2.153
 2980SOL    HW1 9314   2.841   0.948   2.085
 2980SOL    HW2 9315   2.818   0.827   2.192
 2981SOL     OW 9316   3.366   1.607   1.906
 2981SOL    HW1 9317   3.274   1.644   1.913
 2981SOL    HW2 9318   3.404   1.627   1.816
 2982SOL     OW 9319   2.234   1.288   3.352
 2982SOL    HW1 9320   2.221   1.381   3.318
 2982SOL    HW2 9321   2.150   1.236   3.339
 2983SOL     OW 9322   3.476   1.292   3.151
 2983SOL    HW1 9323   3.536   1.295   3.231
 2983SOL    HW2 9324   3.401   1.356   3.164
 2984SOL     OW 9325   2.901   1.098   2.558
 2984SOL    HW1 9326   2.831   1.051   2.612
 2984SOL    HW2 9327   2.960   1.030   2.515
 2985SOL     OW 9328   2.876   0.236   2.833
 2985SOL    HW1 9329   2.868   0.200   2.740
 2985SOL    HW2 9330   2.874   0.160   2.898
 2986SOL     OW 9331   2.452   1.487   2.353
 2986SOL    HW1 9332   2.494   1.429   2.283
 2986SOL    HW2 9333   2.408   1.566   2.309
 2987SOL     OW 9334   3.571   0.385   3.243
 2987SOL    HW1 9335   3.644   0.454   3.247
 2987SOL    HW2 9336   3.599   0.310   3.184
 2988SOL     OW 9337   2.117   1.348   2.152
 2988SOL    HW1 9338   2.021   1.349   2.125
 2988SOL    HW2 9339   2.129   1.401   2.236
 2989SOL     OW 9340   1.967   1.013   3.588
 2989SOL    HW1 9341   1.890   0.980   3.642
 2989SOL    HW2 9342   2.052   0.983   3.630
 2990SOL     OW 9343   2.534   0.203   3.351
 2990SOL    HW1 9344   2.624   0.187   3.311
 2990SOL    HW2 9345   2.542   0.208   3.450
 2991SOL     OW 9346   1.937   0.345   1.895
 2991SOL    HW1 9347   1.845   0.317   1.866
 2991SOL    HW2 9348   1.968   0.422   1.839
 2992SOL     OW 9349   3.302   0.856   3.260
 2992SOL    HW1 9350   3.245   0.908   3.197
 2992SOL    HW2 9351   3.398   0.868   3.236
 2993SOL     OW 9352   1.934   0.166   2.180
 2993SOL    HW1 9353   1.917   0.249   2.126
 2993SOL    HW2 9354   2.024   0.129   2.158
 2994SOL     OW 9355   3.045   1.335   1.981
 2994SOL    HW1 9356   2.946   1.324   1.983
 2994SOL    HW2 9357   3.079   1.350   2.074
 2995SOL     OW 9358   2.475   0.842   3.293
 2995SOL    HW1 9359   2.531   0.923   3.276
 2995SOL    HW2 9360   2.534   0.762   3.296
 2996SOL     OW 9361   3.355   1.767   2.821
 2996SOL    HW1 9362   3.388   1.831   2.752
 2996SOL    HW2 9363   3.421   1.761   2.896
 2997SOL     OW 9364   2.578   0.565   3.570
 2997SOL    HW1 9365   2.597   0.630   3.644
 2997SOL    HW2 9366   2.638   0.485   3.579
 2998SOL     OW 9367   3.312   1.220   3.495
 2998SOL    HW1 9368   3.303   1.210   3.594
 2998SOL    HW2 9369   3.408   1.213   3.469
 2999SOL     OW 9370   2.252   1.741   3.422
 2999SOL    HW1 9371   2.161   1.782   3.420
 2999SOL    HW2 9372   2.245   1.647   3.454
 3000SOL     OW 9373   3.536   0.883   3.116
 3000SOL    HW1 9374   3.509   0.794   3.079
 3000SOL    HW2 9375   3.537   0.951   3.043
 3001SOL     OW 9376   3.087   0.325   2.311
 3001SOL    HW1 9377   3.152   0.251   2.300
 3001SOL    HW2 9378   3.107   0.375   2.395
 3002SOL     OW 9379   2.456   0.745   2.514
 3002SOL    HW1 9380   2.506   0.830   2.495
 3002SOL    HW2 9381   2.368   0.747   2.466
 3003SOL     OW 9382   3.639   0.342   3.504
 3003SOL    HW1 9383   3.622   0.373   3.410
 3003SOL    HW2 9384   3.555   0.305   3.542
 3004SOL     OW 9385   3.592   0.934   3.379
 3004SOL    HW1 9386   3.630   1.025   3.394
 3004SOL    HW2 9387   3.584   0.917   3.280
 3005SOL     OW 9388   2.721   1.374   1.878
 3005SOL    HW1 9389   2.675   1.389   1.966
 3005SOL    HW2 9390   2.765   1.459   1.848
 3006SOL     OW 9391   2.523   1.790   2.815
 3006SOL    HW1 9392   2.477   1.878   2.802
 3006SOL    HW2 9393   2.622   1.802   2.808
 3007SOL     OW 9394   2.721   0.956   2.723
 3007SOL    HW1 9395   2.775   0.887   2.771
 3007SOL    HW2 9396   2.689   1.025   2.789
 3008SOL     OW 9397   2.945   0.984   1.949
 3008SOL    HW1 9398   2.922   1.037   1.867
 3008SOL    HW2 9399   3.026   0.928   1.930
 3009SOL     OW 9400   3.723   1.569   2.713
 3009SOL    HW1 9401   3.652   1.557   2.643
 3009SOL    HW2 9402   3.724   1.490   2.773
 3010SOL     OW 9403   2.083   1.314   3.706
 3010SOL    HW1 9404   2.018   1.241   3.685
 3010SOL    HW2 9405   2.087   1.328   3.804
 3011SOL     OW 9406   1.941   1.240   2.515
 3011SOL    HW1 9407   1.940   1.193   2.603
 3011SOL    HW2 9408   2.023   1.212   2.464
 3012SOL     OW 9409   2.534   1.391   3.486
 3012SOL    HW1 9410   2.456   1.341   3.524
 3012SOL    HW2 9411   2.531   1.486   3.517
 3013SOL     OW 9412   3.686   0.192   3.089
 3013SOL    HW1 9413   3.682   0.102   3.133
 3013SOL    HW2 9414   3.689   0.181   2.990
 3014SOL     OW 9415   2.290   0.424   2.382
 3014SOL    HW1 9416   2.320   0.352   2.320
 3014SOL    HW2 9417   2.251   0.384   2.465
 3015SOL     OW 9418   3.567   1.487   2.966
 3015SOL    HW1 9419   3.474   1.462   2.939
 3015SOL    HW2 9420   3.593   1.437   3.048
 3016SOL     OW 9421   2.179   0.547   3.142
 3016SOL    HW1 9422   2.217   0.488   3.214
 3016SOL    HW2 9423   2.219   0.521   3.054
 3017SOL     OW 9424   2.674   1.586   2.549
 3017SOL    HW1 9425   2.706   1.596   2.455
 3017SOL    HW2 9426   2.595   1.524   2.551
 3018SOL     OW 9427   3.286   0.214   2.974
 3018SOL    HW1 9428   3.338   0.149   3.029
 3018SOL    HW2 9429   3.237   0.277   3.035
 3019SOL     OW 9430   2.863   0.034   3.016
 3019SOL    HW1 9431   2.800  -0.038   2.985
 3019SOL    HW2 9432   2.956  -0.002   3.016
 3020SOL     OW 9433   2.632   1.330   2.163
 3020SOL    HW1 9434   2.586   1.243   2.180
 3020SOL    HW2 9435   2.723   1.327   2.204
 3021SOL     OW 9436   2.480   1.567   3.146
 3021SOL    HW1 9437   2.475   1.649   3.203
 3021SOL    HW2 9438   2.569   1.564   3.101
 3022SOL     OW 9439   3.214   0.052   2.030
 3022SOL    HW1 9440   3.249   0.011   1.946
 3022SOL    HW2 9441   3.124   0.014   2.050
 3023SOL     OW 9442   3.162   0.453   2.553
 3023SOL    HW1 9443   3.103   0.533   2.557
 3023SOL    HW2 9444   3.177   0.418   2.646
 3024SOL     OW 9445   3.455   0.221   2.744
 3024SOL    HW1 9446   3.371   0.220   2.798
 3024SOL    HW2 9447   3.457   0.304   2.688
 3025SOL     OW 9448   1.901   1.077   2.162
 3025SOL    HW1 9449   2.000   1.066   2.153
 3025SOL    HW2 9450   1.861   0.991   2.194
 3026SOL     OW 9451   2.737   1.646   2.199
 3026SOL    HW1 9452   2.660   1.611   2.145
 3026SOL    HW2 9453   2.705   1.717   2.261
 3027SOL     OW 9454   2.092   0.628   3.837
 3027SOL    HW1 9455   1.999   0.626   3.874
 3027SOL    HW2 9456   2.093   0.589   3.745
 3028SOL     OW 9457   2.087   0.275   4.720
 3028SOL    HW1 9458   2.122   0.258   4.812
 3028SOL    HW2 9459   1.999   0.230   4.708
 3029SOL     OW 9460   1.881   0.368   4.371
 3029SOL    HW1 9461   1.799   0.411   4.410
 3029SOL    HW2 9462   1.853   0.295   4.308
 3030SOL     OW 9463   2.431   1.275   4.889
 3030SOL    HW1 9464   2.338   1.268   4.852
 3030SOL    HW2 9465   2.442   1.364   4.933
 3031SOL     OW 9466   3.417   1.511   4.427
 3031SOL    HW1 9467   3.360   1.495   4.508
 3031SOL    HW2 9468   3.358   1.521   4.347
 3032SOL     OW 9469   2.997   0.703   4.441
 3032SOL    HW1 9470   3.054   0.781   4.416
 3032SOL    HW2 9471   2.937   0.729   4.517
 3033SOL     OW 9472   3.617   0.607   3.955
 3033SOL    HW1 9473   3.605   0.594   3.856
 3033SOL    HW2 9474   3.587   0.526   4.004
 3034SOL     OW 9475   2.630   1.144   4.747
 3034SOL    HW1 9476   2.552   1.161   4.807
 3034SOL    HW2 9477   2.664   1.231   4.711
 3035SOL     OW 9478   2.712   0.798   5.547
 3035SOL    HW1 9479   2.708   0.874   5.612
 3035SOL    HW2 9480   2.734   0.834   5.456
 3036SOL     OW 9481   2.547   1.012   4.389
 3036SOL    HW1 9482   2.616   0.996   4.459
 3036SOL    HW2 9483   2.474   1.069   4.427
 3037SOL     OW 9484   2.548   1.161   5.527
 3037SOL    HW1 9485   2.608   1.240   5.541
 3037SOL    HW2 9486   2.462   1.192   5.486
 3038SOL     OW 9487   2.197   1.435   4.785
 3038SOL    HW1 9488   2.119   1.404   4.732
 3038SOL    HW2 9489   2.255   1.493   4.728
 3039SOL     OW 9490   3.322   1.505   5.063
 3039SOL    HW1 9491   3.346   1.599   5.089
 3039SOL    HW2 9492   3.306   1.451   5.145
 3040SOL     OW 9493   2.300   0.392   5.223
 3040SOL    HW1 9494   2.382   0.336   5.232
 3040SOL    HW2 9495   2.219   0.334   5.227
 3041SOL     OW 9496   3.465   0.447   4.461
 3041SOL    HW1 9497   3.391   0.493   4.411
 3041SOL    HW2 9498   3.516   0.515   4.514
 3042SOL     OW 9499   2.093   1.713   4.207
 3042SOL    HW1 9500   2.127   1.790   4.261
 3042SOL    HW2 9501   2.137   1.713   4.117
 3043SOL     OW 9502   2.989   1.341   5.414
 3043SOL    HW1 9503   3.036   1.341   5.502
 3043SOL    HW2 9504   2.941   1.254   5.403
 3044SOL     OW 9505   2.092   1.434   4.262
 3044SOL    HW1 9506   2.066   1.530   4.262
 3044SOL    HW2 9507   2.021   1.380   4.307
 3045SOL     OW 9508   2.102   1.091   4.610
 3045SOL    HW1 9509   2.116   1.007   4.662
 3045SOL    HW2 9510   2.047   1.155   4.665
 3046SOL     OW 9511   2.482   1.786   5.163
 3046SOL    HW1 9512   2.390   1.769   5.198
 3046SOL    HW2 9513   2.510   1.878   5.189
 3047SOL     OW 9514   2.468   0.964   3.847
 3047SOL    HW1 9515   2.475   1.048   3.793
 3047SOL    HW2 9516   2.514   0.977   3.935
 3048SOL     OW 9517   3.456   0.114   5.204
 3048SOL    HW1 9518   3.438   0.181   5.132
 3048SOL    HW2 9519   3.453   0.160   5.293
 3049SOL     OW 9520   1.984   0.643   4.287
 3049SOL    HW1 9521   1.939   0.555   4.304
 3049SOL    HW2 9522   1.983   0.697   4.371
 3050SOL     OW 9523   3.704   1.767   4.083
 3050SOL    HW1 9524   3.758   1.738   4.163
 3050SOL    HW2 9525   3.734   1.857   4.054
 3051SOL     OW 9526   1.889   1.596   3.841
 3051SOL    HW1 9527   1.870   1.500   3.862
 3051SOL    HW2 9528   1.856   1.654   3.916
 3052SOL     OW 9529   3.551   0.922   4.336
 3052SOL    HW1 9530   3.646   0.893   4.344
 3052SOL    HW2 9531   3.543   0.987   4.261
 3053SOL     OW 9532   3.503   1.108   4.156
 3053SOL    HW1 9533   3.589   1.110   4.104
 3053SOL    HW2 9534   3.517   1.155   4.244
 3054SOL     OW 9535   1.975   0.737   5.321
 3054SOL    HW1 9536   2.063   0.724   5.366
 3054SOL    HW2 9537   1.962   0.834   5.299
 3055SOL     OW 9538   2.475   1.365   4.450
 3055SOL    HW1 9539   2.426   1.278   4.459
 3055SOL    HW2 9540   2.452   1.408   4.363
 3056SOL     OW 9541   3.155   1.228   5.147
 3056SOL    HW1 9542   3.192   1.155   5.089
 3056SOL    HW2 9543   3.207   1.233   5.232
 3057SOL     OW 9544   2.671   0.004   4.226
 3057SOL    HW1 9545   2.711   0.095   4.217
 3057SOL    HW2 9546   2.571   0.012   4.232
 3058SOL     OW 9547   2.059   0.976   4.988
 3058SOL    HW1 9548   2.148   0.931   4.974
 3058SOL    HW2 9549   1.986   0.911   4.969
 3059SOL     OW 9550   3.387   0.999   3.914
 3059SOL    HW1 9551   3.324   0.923   3.927
 3059SOL    HW2 9552   3.435   1.017   4.000
 3060SOL     OW 9553   3.049   1.792   5.340
 3060SOL    HW1 9554   3.073   1.852   5.264
 3060SOL    HW2 9555   3.056   1.697   5.310
 3061SOL     OW 9556   2.179   0.251   5.525
 3061SOL    HW1 9557   2.250   0.322   5.531
 3061SOL    HW2 9558   2.091   0.290   5.553
 3062SOL     OW 9559   3.328   1.417   4.677
 3062SOL    HW1 9560   3.269   1.423   4.757
 3062SOL    HW2 9561   3.313   1.329   4.631
 3063SOL     OW 9562   3.529   1.714   4.296
 3063SOL    HW1 9563   3.488   1.691   4.208
 3063SOL    HW2 9564   3.511   1.640   4.361
 3064SOL     OW 9565   2.460   0.729   3.994
 3064SOL    HW1 9566   2.484   0.798   3.926
 3064SOL    HW2 9567   2.382   0.762   4.048
 3065SOL     OW 9568   3.143   0.345   4.668
 3065SOL    HW1 9569   3.057   0.295   4.655
 3065SOL    HW2 9570   3.205   0.291   4.724
 3066SOL     OW 9571   3.438   1.662   4.031
 3066SOL    HW1 9572   3.527   1.708   4.034
 3066SOL    HW2 9573   3.417   1.638   3.936
 3067SOL     OW 9574   2.669   0.605   5.189
 3067SOL    HW1 9575   2.622   0.602   5.278
 3067SOL    HW2 9576   2.618   0.550   5.123
 3068SOL     OW 9577   3.256   0.469   5.398
 3068SOL    HW1 9578   3.236   0.512   5.486
 3068SOL    HW2 9579   3.334   0.407   5.407
 3069SOL     OW 9580   2.835   0.890   5.296
 3069SOL    HW1 9581   2.881   0.806   5.267
 3069SOL    HW2 9582   2.779   0.924   5.221
 3070SOL     OW 9583   2.853   0.410   4.966
 3070SOL    HW1 9584   2.776   0.444   5.020
 3070SOL    HW2 9585   2.819   0.359   4.887
 3071SOL     OW 9586   2.903   0.701   4.153
 3071SOL    HW1 9587   2.929   0.697   4.249
 3071SOL    HW2 9588   2.818   0.650   4.139
 3072SOL     OW 9589   1.938   0.811   4.513
 3072SOL    HW1 9590   2.037   0.799   4.522
 3072SOL    HW2 9591   1.914   0.906   4.534
 3073SOL     OW 9592   1.992   1.821   5.295
 3073SOL    HW1 9593   1.982   1.806   5.394
 3073SOL    HW2 9594   1.906   1.857   5.259
 3074SOL     OW 9595   2.727   0.348   3.919
 3074SOL    HW1 9596   2.786   0.411   3.870
 3074SOL    HW2 9597   2.746   0.254   3.890
 3075SOL     OW 9598   3.581   0.585   5.555
 3075SOL    HW1 9599   3.555   0.674   5.519
 3075SOL    HW2 9600   3.579   0.517   5.482
 3076SOL     OW 9601   3.224   1.144   4.269
 3076SOL    HW1 9602   3.307   1.115   4.221
 3076SOL    HW2 9603   3.175   1.211   4.213
 3077SOL     OW 9604   2.412   0.196   4.609
 3077SOL    HW1 9605   2.407   0.191   4.709
 3077SOL    HW2 9606   2.414   0.292   4.580
 3078SOL     OW 9607   2.870   1.456   4.201
 3078SOL    HW1 9608   2.824   1.528   4.149
 3078SOL    HW2 9609   2.866   1.476   4.299
 3079SOL     OW 9610   2.213   1.801   4.577
 3079SOL    HW1 9611   2.263   1.715   4.583
 3079SOL    HW2 9612   2.278   1.878   4.574
 3080SOL     OW 9613   3.657   1.066   4.597
 3080SOL    HW1 9614   3.595   1.051   4.521
 3080SOL    HW2 9615   3.605   1.077   4.682
 3081SOL     OW 9616   3.089   1.550   5.230
 3081SOL    HW1 9617   3.095   1.473   5.294
 3081SOL    HW2 9618   3.037   1.524   5.150
 3082SOL     OW 9619   2.183   0.943   3.966
 3082SOL    HW1 9620   2.265   0.982   3.924
 3082SOL    HW2 9621   2.156   0.861   3.917
 3083SOL     OW 9622   3.320   0.735   4.452
 3083SOL    HW1 9623   3.315   0.670   4.527
 3083SOL    HW2 9624   3.400   0.794   4.465
 3084SOL     OW 9625   2.323   1.266   5.451
 3084SOL    HW1 9626   2.273   1.267   5.365
 3084SOL    HW2 9627   2.260   1.248   5.527
 3085SOL     OW 9628   2.973   1.776   3.961
 3085SOL    HW1 9629   2.913   1.714   4.011
 3085SOL    HW2 9630   3.004   1.732   3.876
 3086SOL     OW 9631   2.064   0.285   5.222
 3086SOL    HW1 9632   1.984   0.345   5.209
 3086SOL    HW2 9633   2.054   0.236   5.308
 3087SOL     OW 9634   3.494   1.377   3.805
 3087SOL    HW1 9635   3.462   1.471   3.795
 3087SOL    HW2 9636   3.418   1.314   3.793
 3088SOL     OW 9637   2.326   1.743   4.047
 3088SOL    HW1 9638   2.359   1.782   4.133
 3088SOL    HW2 9639   2.402   1.736   3.982
 3089SOL     OW 9640   3.262   0.107   4.150
 3089SOL    HW1 9641   3.238   0.070   4.060
 3089SOL    HW2 9642   3.361   0.123   4.154
 3090SOL     OW 9643   2.111   1.785   4.965
 3090SOL    HW1 9644   2.168   1.720   5.015
 3090SOL    HW2 9645   2.095   1.752   4.872
 3091SOL     OW 9646   2.802   1.698   4.628
 3091SOL    HW1 9647   2.882   1.641   4.649
 3091SOL    HW2 9648   2.753   1.658   4.551
 3092SOL     OW 9649   2.244   0.700   4.204
 3092SOL    HW1 9650   2.289   0.610   4.201
 3092SOL    HW2 9651   2.150   0.689   4.237
 3093SOL     OW 9652   3.409   0.222   5.453
 3093SOL    HW1 9653   3.404   0.259   5.545
 3093SOL    HW2 9654   3.337   0.153   5.441
 3094SOL     OW 9655   2.476   0.122   3.841
 3094SOL    HW1 9656   2.574   0.100   3.848
 3094SOL    HW2 9657   2.445   0.105   3.748
 3095SOL     OW 9658   2.643   0.264   5.473
 3095SOL    HW1 9659   2.710   0.203   5.516
 3095SOL    HW2 9660   2.570   0.283   5.538
 3096SOL     OW 9661   2.750   1.514   4.919
 3096SOL    HW1 9662   2.727   1.489   4.825
 3096SOL    HW2 9663   2.811   1.445   4.958
 3097SOL     OW 9664   3.213   0.590   5.157
 3097SOL    HW1 9665   3.241   0.547   5.242
 3097SOL    HW2 9666   3.238   0.686   5.158
 3098SOL     OW 9667   2.665   1.402   4.648
 3098SOL    HW1 9668   2.755   1.416   4.606
 3098SOL    HW2 9669   2.594   1.404   4.577
 3099SOL     OW 9670   2.784   0.503   4.623
 3099SOL    HW1 9671   2.759   0.494   4.527
 3099SOL    HW2 9672   2.832   0.421   4.654
 3100SOL     OW 9673   2.401   0.064   4.236
 3100SOL    HW1 9674   2.320   0.065   4.294
 3100SOL    HW2 9675   2.404   0.147   4.181
 3101SOL     OW 9676   3.296   1.188   3.765
 3101SOL    HW1 9677   3.328   1.112   3.822
 3101SOL    HW2 9678   3.204   1.215   3.795
 3102SOL     OW 9679   2.159   0.035   3.895
 3102SOL    HW1 9680   2.208   0.119   3.874
 3102SOL    HW2 9681   2.221  -0.030   3.940
 3103SOL     OW 9682   2.797   0.236   4.204
 3103SOL    HW1 9683   2.749   0.277   4.126
 3103SOL    HW2 9684   2.896   0.234   4.185
 3104SOL     OW 9685   2.938   0.683   5.188
 3104SOL    HW1 9686   2.858   0.622   5.191
 3104SOL    HW2 9687   3.019   0.630   5.164
 3105SOL     OW 9688   3.089   1.570   4.517
 3105SOL    HW1 9689   3.110   1.644   4.452
 3105SOL    HW2 9690   3.157   1.570   4.590
 3106SOL     OW 9691   2.321   1.152   4.465
 3106SOL    HW1 9692   2.250   1.125   4.530
 3106SOL    HW2 9693   2.295   1.124   4.372
 3107SOL     OW 9694   3.133   1.797   4.315
 3107SOL    HW1 9695   3.177   1.861   4.251
 3107SOL    HW2 9696   3.083   1.849   4.385
 3108SOL     OW 9697   2.894   0.549   3.740
 3108SOL    HW1 9698   2.853   0.631   3.701
 3108SOL    HW2 9699   2.958   0.575   3.813
 3109SOL     OW 9700   1.940   0.556   5.110
 3109SOL    HW1 9701   2.032   0.555   5.069
 3109SOL    HW2 9702   1.934   0.630   5.177
 3110SOL     OW 9703   2.423   0.222   4.871
 3110SOL    HW1 9704   2.461   0.138   4.908
 3110SOL    HW2 9705   2.335   0.241   4.915
 3111SOL     OW 9706   2.728   0.454   4.366
 3111SOL    HW1 9707   2.696   0.526   4.304
 3111SOL    HW2 9708   2.752   0.373   4.313
 3112SOL     OW 9709   2.879   0.039   4.477
 3112SOL    HW1 9710   2.807   0.044   4.408
 3112SOL    HW2 9711   2.855  -0.030   4.546
 3113SOL     OW 9712   3.291   1.173   4.591
 3113SOL    HW1 9713   3.236   1.089   4.584
 3113SOL    HW2 9714   3.317   1.202   4.499
 3114SOL     OW 9715   3.328   0.590   4.716
 3114SOL    HW1 9716   3.298   0.495   4.723
 3114SOL    HW2 9717   3.401   0.606   4.782
 3115SOL     OW 9718   3.719   0.833   4.101
 3115SOL    HW1 9719   3.761   0.769   4.165
 3115SOL    HW2 9720   3.681   0.782   4.023
 3116SOL     OW 9721   2.350   1.385   3.898
 3116SOL    HW1 9722   2.263   1.370   3.945
 3116SOL    HW2 9723   2.333   1.411   3.803
 3117SOL     OW 9724   3.526   1.280   4.381
 3117SOL    HW1 9725   3.625   1.288   4.395
 3117SOL    HW2 9726   3.481   1.364   4.412
 3118SOL     OW 9727   3.252   0.575   3.802
 3118SOL    HW1 9728   3.198   0.554   3.883
 3118SOL    HW2 9729   3.343   0.534   3.811
 3119SOL     OW 9730   2.389   0.256   4.052
 3119SOL    HW1 9731   2.416   0.197   3.977
 3119SOL    HW2 9732   2.389   0.351   4.021
 3120SOL     OW 9733   3.616   1.223   5.312
 3120SOL    HW1 9734   3.707   1.184   5.299
 3120SOL    HW2 9735   3.624   1.319   5.336
 3121SOL     OW 9736   2.926   1.347   5.064
 3121SOL    HW1 9737   2.846   1.324   5.119
 3121SOL    HW2 9738   3.009   1.321   5.113
 3122SOL     OW 9739   3.454   1.629   5.349
 3122SOL    HW1 9740   3.481   1.663   5.259
 3122SOL    HW2 9741   3.533   1.591   5.395
 3123SOL     OW 9742   2.973   1.195   4.824
 3123SOL    HW1 9743   2.933   1.239   4.905
 3123SOL    HW2 9744   2.932   1.232   4.741
 3124SOL     OW 9745   3.500   1.099   4.803
 3124SOL    HW1 9746   3.505   1.180   4.862
 3124SOL    HW2 9747   3.414   1.101   4.752
 3125SOL     OW 9748   2.777   0.089   5.126
 3125SOL    HW1 9749   2.802   0.069   5.031
 3125SOL    HW2 9750   2.849   0.145   5.168
 3126SOL     OW 9751   2.842   1.116   5.443
 3126SOL    HW1 9752   2.743   1.122   5.453
 3126SOL    HW2 9753   2.865   1.036   5.387
 3127SOL     OW 9754   2.567   1.050   4.092
 3127SOL    HW1 9755   2.553   1.057   4.191
 3127SOL    HW2 9756   2.651   0.999   4.074
 3128SOL     OW 9757   2.272   0.813   4.975
 3128SOL    HW1 9758   2.358   0.825   5.025
 3128SOL    HW2 9759   2.230   0.726   5.002
 3129SOL     OW 9760   3.136   0.386   4.986
 3129SOL    HW1 9761   3.157   0.460   5.050
 3129SOL    HW2 9762   3.047   0.403   4.943
 3130SOL     OW 9763   1.926   1.564   5.055
 3130SOL    HW1 9764   1.880   1.646   5.021
 3130SOL    HW2 9765   2.024   1.583   5.064
 3131SOL     OW 9766   2.229   1.100   4.225
 3131SOL    HW1 9767   2.222   1.183   4.169
 3131SOL    HW2 9768   2.233   1.020   4.165
 3132SOL     OW 9769   2.428   0.537   4.589
 3132SOL    HW1 9770   2.440   0.603   4.515
 3132SOL    HW2 9771   2.474   0.571   4.672
 3133SOL     OW 9772   3.114   1.348   4.112
 3133SOL    HW1 9773   3.164   1.425   4.152
 3133SOL    HW2 9774   3.019   1.350   4.144
 3134SOL     OW 9775   3.134   1.445   4.866
 3134SOL    HW1 9776   3.181   1.458   4.953
 3134SOL    HW2 9777   3.068   1.371   4.875
 3135SOL     OW 9778   3.444   0.639   4.196
 3135SOL    HW1 9779   3.413   0.700   4.269
 3135SOL    HW2 9780   3.494   0.691   4.127
 3136SOL     OW 9781   2.216   1.510   5.053
 3136SOL    HW1 9782   2.195   1.466   4.966
 3136SOL    HW2 9783   2.313   1.536   5.056
 3137SOL     OW 9784   2.264   0.751   5.322
 3137SOL    HW1 9785   2.332   0.806   5.275
 3137SOL    HW2 9786   2.304   0.663   5.349
 3138SOL     OW 9787   3.449   0.779   5.394
 3138SOL    HW1 9788   3.357   0.817   5.389
 3138SOL    HW2 9789   3.509   0.826   5.329
 3139SOL     OW 9790   2.875   0.105   5.494
 3139SOL    HW1 9791   2.881   0.190   5.442
 3139SOL    HW2 9792   2.907   0.029   5.437
 3140SOL     OW 9793   2.366   0.050   5.464
 3140SOL    HW1 9794   2.324  -0.007   5.394
 3140SOL    HW2 9795   2.300   0.119   5.496
 3141SOL     OW 9796   2.435   0.870   4.753
 3141SOL    HW1 9797   2.479   0.959   4.744
 3141SOL    HW2 9798   2.372   0.870   4.830
 3142SOL     OW 9799   3.222   0.862   4.769
 3142SOL    HW1 9800   3.147   0.862   4.703
 3142SOL    HW2 9801   3.259   0.770   4.778
 3143SOL     OW 9802   3.071   0.525   3.999
 3143SOL    HW1 9803   3.084   0.441   4.053
 3143SOL    HW2 9804   3.042   0.599   4.059
 3144SOL     OW 9805   2.169   0.213   4.955
 3144SOL    HW1 9806   2.146   0.250   5.045
 3144SOL    HW2 9807   2.139   0.118   4.949
 3145SOL     OW 9808   1.899   1.310   5.006
 3145SOL    HW1 9809   1.952   1.261   5.074
 3145SOL    HW2 9810   1.921   1.408   5.011
 3146SOL     OW 9811   2.594   0.634   4.788
 3146SOL    HW1 9812   2.653   0.608   4.712
 3146SOL    HW2 9813   2.566   0.730   4.777
 3147SOL     OW 9814   3.590   0.935   5.578
 3147SOL    HW1 9815   3.544   0.928   5.489
 3147SOL    HW2 9816   3.528   0.979   5.644
 3148SOL     OW 9817   2.169   0.063   4.342
 3148SOL    HW1 9818   2.158   0.157   4.375
 3148SOL    HW2 9819   2.164   0.000   4.419
 3149SOL     OW 9820   3.484   0.367   4.098
 3149SOL    HW1 9821   3.486   0.291   4.162
 3149SOL    HW2 9822   3.436   0.444   4.138
 3150SOL     OW 9823   2.885   0.766   4.690
 3150SOL    HW1 9824   2.900   0.787   4.786
 3150SOL    HW2 9825   2.855   0.671   4.681
 3151SOL     OW 9826   2.842   1.573   5.424
 3151SOL    HW1 9827   2.822   1.617   5.336
 3151SOL    HW2 9828   2.881   1.482   5.408
 3152SOL     OW 9829   3.721   1.518   5.329
 3152SOL    HW1 9830   3.735   1.545   5.234
 3152SOL    HW2 9831   3.804   1.540   5.382
 3153SOL     OW 9832   2.212   0.898   5.528
 3153SOL    HW1 9833   2.288   0.942   5.576
 3153SOL    HW2 9834   2.247   0.851   5.446
 3154SOL     OW 9835   3.402   0.274   3.849
 3154SOL    HW1 9836   3.341   0.199   3.872
 3154SOL    HW2 9837   3.424   0.326   3.932
 3155SOL     OW 9838   3.165   0.838   3.766
 3155SOL    HW1 9839   3.199   0.745   3.781
 3155SOL    HW2 9840   3.183   0.865   3.671
 3156SOL     OW 9841   2.930   1.333   4.573
 3156SOL    HW1 9842   2.937   1.249   4.518
 3156SOL    HW2 9843   2.992   1.402   4.537
 3157SOL     OW 9844   2.181   0.810   4.673
 3157SOL    HW1 9845   2.274   0.846   4.678
 3157SOL    HW2 9846   2.175   0.725   4.725
 3158SOL     OW 9847   2.201   0.509   4.730
 3158SOL    HW1 9848   2.149   0.426   4.713
 3158SOL    HW2 9849   2.278   0.514   4.666
 3159SOL     OW 9850   3.000   0.380   5.402
 3159SOL    HW1 9851   2.955   0.443   5.466
 3159SOL    HW2 9852   3.093   0.411   5.385
 3160SOL     OW 9853   3.022   0.207   5.201
 3160SOL    HW1 9854   3.022   0.271   5.278
 3160SOL    HW2 9855   3.050   0.255   5.118
 3161SOL     OW 9856   1.870   1.326   3.924
 3161SOL    HW1 9857   1.777   1.347   3.893
 3161SOL    HW2 9858   1.880   1.227   3.937
 3162SOL     OW 9859   1.950   1.801   4.651
 3162SOL    HW1 9860   1.908   1.715   4.624
 3162SOL    HW2 9861   2.044   1.804   4.617
 3163SOL     OW 9862   2.366   1.568   4.634
 3163SOL    HW1 9863   2.432   1.642   4.643
 3163SOL    HW2 9864   2.410   1.489   4.592
 3164SOL     OW 9865   2.864   0.796   4.962
 3164SOL    HW1 9866   2.905   0.764   5.048
 3164SOL    HW2 9867   2.768   0.769   4.959
 3165SOL     OW 9868   1.902   0.544   4.838
 3165SOL    HW1 9869   1.987   0.511   4.797
 3165SOL    HW2 9870   1.915   0.559   4.936
 3166SOL     OW 9871   2.051   0.520   5.446
 3166SOL    HW1 9872   2.110   0.480   5.376
 3166SOL    HW2 9873   1.993   0.591   5.405
 3167SOL     OW 9874   3.231   0.950   5.384
 3167SOL    HW1 9875   3.270   1.039   5.404
 3167SOL    HW2 9876   3.241   0.930   5.287
 3168SOL     OW 9877   2.677   0.572   4.049
 3168SOL    HW1 9878   2.684   0.483   4.003
 3168SOL    HW2 9879   2.583   0.606   4.041
 3169SOL     OW 9880   3.519   0.604   4.930
 3169SOL    HW1 9881   3.481   0.535   4.992
 3169SOL    HW2 9882   3.601   0.568   4.886
 3170SOL     OW 9883   2.114   1.564   5.468
 3170SOL    HW1 9884   2.084   1.621   5.544
 3170SOL    HW2 9885   2.107   1.467   5.494
 3171SOL     OW 9886   2.533   0.464   4.993
 3171SOL    HW1 9887   2.499   0.375   4.963
 3171SOL    HW2 9888   2.559   0.518   4.913
 3172SOL     OW 9889   2.792   1.678   5.189
 3172SOL    HW1 9890   2.768   1.660   5.094
 3172SOL    HW2 9891   2.822   1.772   5.199
 3173SOL     OW 9892   2.335   0.500   3.915
 3173SOL    HW1 9893   2.396   0.580   3.919
 3173SOL    HW2 9894   2.240   0.531   3.922
 3174SOL     OW 9895   2.021   1.137   5.190
 3174SOL    HW1 9896   2.043   1.076   5.266
 3174SOL    HW2 9897   2.031   1.088   5.104
 3175SOL     OW 9898   3.209   1.059   4.958
 3175SOL    HW1 9899   3.233   0.996   4.884
 3175SOL    HW2 9900   3.119   1.099   4.940
 3176SOL     OW 9901   3.164   0.855   4.033
 3176SOL    HW1 9902   3.078   0.824   4.075
 3176SOL    HW2 9903   3.160   0.841   3.934
 3177SOL     OW 9904   3.621   1.747   4.878
 3177SOL    HW1 9905   3.682   1.777   4.805
 3177SOL    HW2 9906   3.583   1.658   4.856
 3178SOL     OW 9907   3.114   1.731   4.852
 3178SOL    HW1 9908   3.198   1.736   4.798
 3178SOL    HW2 9909   3.091   1.635   4.870
 3179SOL     OW 9910   1.945   1.258   4.746
 3179SOL    HW1 9911   1.940   1.257   4.846
 3179SOL    HW2 9912   1.862   1.217   4.708
 3180SOL     OW 9913   2.550   1.662   5.440
 3180SOL    HW1 9914   2.494   1.743   5.449
 3180SOL    HW2 9915   2.602   1.666   5.354
 3181SOL     OW 9916   3.588   0.135   4.247
 3181SOL    HW1 9917   3.661   0.118   4.180
 3181SOL    HW2 9918   3.557   0.048   4.285
 3182SOL     OW 9919   3.250   1.573   4.201
 3182SOL    HW1 9920   3.317   1.585   4.127
 3182SOL    HW2 9921   3.210   1.662   4.224
 3183SOL     OW 9922   1.992   1.794   5.575
 3183SOL    HW1 9923   1.951   1.720   5.628
 3183SOL    HW2 9924   2.056   1.845   5.633
 3184SOL     OW 9925   3.142   0.927   4.396
 3184SOL    HW1 9926   3.202   0.846   4.398
 3184SOL    HW2 9927   3.182   0.996   4.336
 3185SOL     OW 9928   2.692   1.273   5.146
 3185SOL    HW1 9929   2.687   1.306   5.241
 3185SOL    HW2 9930   2.606   1.292   5.100
 3186SOL     OW 9931   2.534   1.616   3.878
 3186SOL    HW1 9932   2.543   1.626   3.779
 3186SOL    HW2 9933   2.494   1.527   3.899
 3187SOL     OW 9934   3.512   1.720   5.118
 3187SOL    HW1 9935   3.565   1.730   5.034
 3187SOL    HW2 9936   3.485   1.810   5.152
 3188SOL     OW 9937   3.703   0.175   4.687
 3188SOL    HW1 9938   3.742   0.090   4.651
 3188SOL    HW2 9939   3.605   0.177   4.668
 3189SOL     OW 9940   2.125   0.326   4.444
 3189SOL    HW1 9941   2.046   0.377   4.410
 3189SOL    HW2 9942   2.116   0.311   4.542
 3190SOL     OW 9943   3.056   1.612   3.755
 3190SOL    HW1 9944   3.062   1.519   3.792
 3190SOL    HW2 9945   2.997   1.612   3.675
 3191SOL     OW 9946   2.684   1.002   5.096
 3191SOL    HW1 9947   2.724   1.001   5.004
 3191SOL    HW2 9948   2.694   1.094   5.136
 3192SOL     OW 9949   2.778   0.910   4.015
 3192SOL    HW1 9950   2.841   0.948   3.947
 3192SOL    HW2 9951   2.818   0.827   4.054
 3193SOL     OW 9952   3.366   1.607   3.768
 3193SOL    HW1 9953   3.274   1.644   3.775
 3193SOL    HW2 9954   3.404   1.627   3.678
 3194SOL     OW 9955   2.234   1.288   5.214
 3194SOL    HW1 9956   2.221   1.381   5.180
 3194SOL    HW2 9957   2.150   1.236   5.201
 3195SOL     OW 9958   3.476   1.292   5.013
 3195SOL    HW1 9959   3.536   1.295   5.093
 3195SOL    HW2 9960   3.401   1.356   5.026
 3196SOL     OW 9961   2.901   1.098   4.420
 3196SOL    HW1 9962   2.831   1.051   4.474
 3196SOL    HW2 9963   2.960   1.030   4.377
 3197SOL     OW 9964   2.876   0.236   4.695
 3197SOL    HW1 9965   2.868   0.200   4.602
 3197SOL    HW2 9966   2.874   0.160   4.760
 3198SOL     OW 9967   2.452   1.487   4.215
 3198SOL    HW1 9968   2.494   1.429   4.145
 3198SOL    HW2 9969   2.408   1.566   4.171
 3199SOL     OW 9970   3.571   0.385   5.105
 3199SOL    HW1 9971   3.644   0.454   5.109
 3199SOL    HW2 9972   3.599   0.310   5.046
 3200SOL     OW 9973   2.117   1.348   4.014
 3200SOL    HW1 9974   2.021   1.349   3.987
 3200SOL    HW2 9975   2.129   1.401   4.098
 3201SOL     OW 9976   1.967   1.013   5.450
 3201SOL    HW1 9977   1.890   0.980   5.504
 3201SOL    HW2 9978   2.052   0.983   5.492
 3202SOL     OW 9979   2.534   0.203   5.213
 3202SOL    HW1 9980   2.624   0.187   5.173
 3202SOL    HW2 9981   2.542   0.208   5.312
 3203SOL     OW 9982   1.937   0.345   3.757
 3203SOL    HW1 9983   1.845   0.317   3.728
 3203SOL    HW2 9984   1.968   0.422   3.701
 3204SOL     OW 9985   3.302   0.856   5.122
 3204SOL    HW1 9986   3.245   0.908   5.059
 3204SOL    HW2 9987   3.398   0.868   5.098
 3205SOL     OW 9988   1.934   0.166   4.042
 3205SOL    HW1 9989   1.917   0.249   3.988
 3205SOL    HW2 9990   2.024   0.129   4.020
 3206SOL     OW 9991   3.045   1.335   3.843
 3206SOL    HW1 9992   2.946   1.324   3.845
 3206SOL    HW2 9993   3.079   1.350   3.936
 3207SOL     OW 9994   2.475   0.842   5.155
 3207SOL    HW1 9995   2.531   0.923   5.138
 3207SOL    HW2 9996   2.534   0.762   5.158
 3208SOL     OW 9997   3.355   1.767   4.683
 3208SOL    HW1 9998   3.388   1.831   4.614
 3208SOL    HW2 9999   3.421   1.761   4.758
 3209SOL     OW10000   2.578   0.565   5.432
 3209SOL    HW110001   2.597   0.630   5.506
 3209SOL    HW210002   2.638   0.485   5.441
 3210SOL     OW10003   3.312   1.220   5.357
 3210SOL    HW110004   3.303   1.210   5.456
 3210SOL    HW210005   3.408   1.213   5.331
 3211SOL     OW10006   2.252   1.741   5.284
 3211SOL    HW110007   2.161   1.782   5.282
 3211SOL    HW210008   2.245   1.647   5.316
 3212SOL     OW10009   3.536   0.883   4.978
 3212SOL    HW110010   3.509   0.794   4.941
 3212SOL    HW210011   3.537   0.951   4.905
 3213SOL     OW10012   3.087   0.325   4.173
 3213SOL    HW110013   3.152   0.251   4.162
 3213SOL    HW210014   3.107   0.375   4.257
 3214SOL     OW10015   2.456   0.745   4.376
 3214SOL    HW110016   2.506   0.830   4.357
 3214SOL    HW210017   2.368   0.747   4.328
 3215SOL     OW10018   3.639   0.342   5.366
 3215SOL    HW110019   3.622   0.373   5.272
 3215SOL    HW210020   3.555   0.305   5.404
 3216SOL     OW10021   3.592   0.934   5.241
 3216SOL    HW110022   3.630   1.025   5.256
 3216SOL    HW210023   3.584   0.917   5.142
 3217SOL     OW10024   2.721   1.374   3.740
 3217SOL    HW110025   2.675   1.389   3.828
 3217SOL    HW210026   2.765   1.459   3.710
 3218SOL     OW10027   2.523   1.790   4.677
 3218SOL    HW110028   2.477   1.878   4.664
 3218SOL    HW210029   2.622   1.802   4.670
 3219SOL     OW10030   2.721   0.956   4.585
 3219SOL    HW110031   2.775   0.887   4.633
 3219SOL    HW210032   2.689   1.025   4.651
 3220SOL     OW10033   2.945   0.984   3.811
 3220SOL    HW110034   2.922   1.037   3.729
 3220SOL    HW210035   3.026   0.928   3.792
 3221SOL     OW10036   3.723   1.569   4.575
 3221SOL    HW110037   3.652   1.557   4.505
 3221SOL    HW210038   3.724   1.490   4.635
 3222SOL     OW10039   2.083   1.314   5.568
 3222SOL    HW110040   2.018   1.241   5.547
 3222SOL    HW210041   2.087   1.328   5.666
 3223SOL     OW10042   1.941   1.240   4.377
 3223SOL    HW110043   1.940   1.193   4.465
 3223SOL    HW210044   2.023   1.212   4.326
 3224SOL     OW10045   2.534   1.391   5.348
 3224SOL    HW110046   2.456   1.341   5.386
 3224SOL    HW210047   2.531   1.486   5.379
 3225SOL     OW10048   3.686   0.192   4.951
 3225SOL    HW110049   3.682   0.102   4.995
 3225SOL    HW210050   3.689   0.181   4.852
 3226SOL     OW10051   2.290   0.424   4.244
 3226SOL    HW110052   2.320   0.352   4.182
 3226SOL    HW210053   2.251   0.384   4.327
 3227SOL     OW10054   3.567   1.487   4.828
 3227SOL    HW110055   3.474   1.462   4.801
 3227SOL    HW210056   3.593   1.437   4.910
 3228SOL     OW10057   2.179   0.547   5.004
 3228SOL    HW110058   2.217   0.488   5.076
 3228SOL    HW210059   2.219   0.521   4.916
 3229SOL     OW10060   2.674   1.586   4.411
 3229SOL    HW110061   2.706   1.596   4.317
 3229SOL    HW210062   2.595   1.524   4.413
 3230SOL     OW10063   3.286   0.214   4.836
 3230SOL    HW110064   3.338   0.149   4.891
 3230SOL    HW210065   3.237   0.277   4.897
 3231SOL     OW10066   2.863   0.034   4.878
 3231SOL    HW110067   2.800  -0.038   4.847
 3231SOL    HW210068   2.956  -0.002   4.878
 3232SOL     OW10069   2.632   1.330   4.025
 3232SOL    HW110070   2.586   1.243   4.042
 3232SOL    HW210071   2.723   1.327   4.066
 3233SOL     OW10072   2.480   1.567   5.008
 3233SOL    HW110073   2.475   1.649   5.065
 3233SOL    HW210074   2.569   1.564   4.963
 3234SOL     OW10075   3.214   0.052   3.892
 3234SOL    HW110076   3.249   0.011   3.808
 3234SOL    HW210077   3.124   0.014   3.912
 3235SOL     OW10078   3.162   0.453   4.415
 3235SOL    HW110079   3.103   0.533   4.419
 3235SOL    HW210080   3.177   0.418   4.508
 3236SOL     OW10081   3.455   0.221   4.606
 3236SOL    HW110082   3.371   0.220   4.660
 3236SOL    HW210083   3.457   0.304   4.550
 3237SOL     OW10084   1.901   1.077   4.024
 3237SOL    HW110085   2.000   1.066   4.015
 3237SOL    HW210086   1.861   0.991   4.056
 3238SOL     OW10087   2.737   1.646   4.061
 3238SOL    HW110088   2.660   1.611   4.007
 3238SOL    HW210089   2.705   1.717   4.123
 3239SOL     OW10090   2.092   0.628   5.699
 3239SOL    HW110091   1.999   0.626   5.736
 3239SOL    HW210092   2.093   0.589   5.607
 3240SOL     OW10093   2.087   0.275   6.582
 3240SOL    HW110094   2.122   0.258   6.674
 3240SOL    HW210095   1.999   0.230   6.570
 3241SOL     OW10096   1.881   0.368   6.233
 3241SOL    HW110097   1.799   0.411   6.272
 3241SOL    HW210098   1.853   0.295   6.170
 3242SOL     OW10099   2.431   1.275   6.751
 3242SOL    HW110100   2.338   1.268   6.714
 3242SOL    HW210101   2.442   1.364   6.795
 3243SOL     OW10102   3.417   1.511   6.289
 3243SOL    HW110103   3.360   1.495   6.370
 3243SOL    HW210104   3.358   1.521   6.209
 3244SOL     OW10105   2.997   0.703   6.303
 3244SOL    HW110106   3.054   0.781   6.278
 3244SOL    HW210107   2.937   0.729   6.379
 3245SOL     OW10108   3.617   0.607   5.817
 3245SOL    HW110109   3.605   0.594   5.718
 3245SOL    HW210110   3.587   0.526   5.866
 3246SOL     OW10111   2.630   1.144   6.609
 3246SOL    HW110112   2.552   1.161   6.669
 3246SOL    HW210113   2.664   1.231   6.573
 3247SOL     OW10114   2.712   0.798   7.409
 3247SOL    HW110115   2.708   0.874   7.474
 3247SOL    HW210116   2.734   0.834   7.318
 3248SOL     OW10117   2.547   1.012   6.251
 3248SOL    HW110118   2.616   0.996   6.321
 3248SOL    HW210119   2.474   1.069   6.289
 3249SOL     OW10120   2.548   1.161   7.389
 3249SOL    HW110121   2.608   1.240   7.403
 3249SOL    HW210122   2.462   1.192   7.348
 3250SOL     OW10123   2.197   1.435   6.647
 3250SOL    HW110124   2.119   1.404   6.594
 3250SOL    HW210125   2.255   1.493   6.590
 3251SOL     OW10126   3.322   1.505   6.925
 3251SOL    HW110127   3.346   1.599   6.951
 3251SOL    HW210128   3.306   1.451   7.007
 3252SOL     OW10129   2.300   0.392   7.085
 3252SOL    HW110130   2.382   0.336   7.094
 3252SOL    HW210131   2.219   0.334   7.089
 3253SOL     OW10132   3.465   0.447   6.323
 3253SOL    HW110133   3.391   0.493   6.273
 3253SOL    HW210134   3.516   0.515   6.376
 3254SOL     OW10135   2.093   1.713   6.069
 3254SOL    HW110136   2.127   1.790   6.123
 3254SOL    HW210137   2.137   1.713   5.979
 3255SOL     OW10138   2.989   1.341   7.276
 3255SOL    HW110139   3.036   1.341   7.364
 3255SOL    HW210140   2.941   1.254   7.265
 3256SOL     OW10141   2.092   1.434   6.124
 3256SOL    HW110142   2.066   1.530   6.124
 3256SOL    HW210143   2.021   1.380   6.169
 3257SOL     OW10144   2.102   1.091   6.472
 3257SOL    HW110145   2.116   1.007   6.524
 3257SOL    HW210146   2.047   1.155   6.527
 3258SOL     OW10147   2.482   1.786   7.025
 3258SOL    HW110148   2.390   1.769   7.060
 3258SOL    HW210149   2.510   1.878   7.051
 3259SOL     OW10150   2.468   0.964   5.709
 3259SOL    HW110151   2.475   1.048   5.655
 3259SOL    HW210152   2.514   0.977   5.797
 3260SOL     OW10153   3.456   0.114   7.066
 3260SOL    HW110154   3.438   0.181   6.994
 3260SOL    HW210155   3.453   0.160   7.155
 3261SOL     OW10156   1.984   0.643   6.149
 3261SOL    HW110157   1.939   0.555   6.166
 3261SOL    HW210158   1.983   0.697   6.233
 3262SOL     OW10159   3.704   1.767   5.945
 3262SOL    HW110160   3.758   1.738   6.025
 3262SOL    HW210161   3.734   1.857   5.916
 3263SOL     OW10162   1.889   1.596   5.703
 3263SOL    HW110163   1.870   1.500   5.724
 3263SOL    HW210164   1.856   1.654   5.778
 3264SOL     OW10165   3.551   0.922   6.198
 3264SOL    HW110166   3.646   0.893   6.206
 3264SOL    HW210167   3.543   0.987   6.123
 3265SOL     OW10168   3.503   1.108   6.018
 3265SOL    HW110169   3.589   1.110   5.966
 3265SOL    HW210170   3.517   1.155   6.106
 3266SOL     OW10171   1.975   0.737   7.183
 3266SOL    HW110172   2.063   0.724   7.228
 3266SOL    HW210173   1.962   0.834   7.161
 3267SOL     OW10174   2.475   1.365   6.312
 3267SOL    HW110175   2.426   1.278   6.321
 3267SOL    HW210176   2.452   1.408   6.225
 3268SOL     OW10177   3.155   1.228   7.009
 3268SOL    HW110178   3.192   1.155   6.951
 3268SOL    HW210179   3.207   1.233   7.094
 3269SOL     OW10180   2.671   0.004   6.088
 3269SOL    HW110181   2.711   0.095   6.079
 3269SOL    HW210182   2.571   0.012   6.094
 3270SOL     OW10183   2.059   0.976   6.850
 3270SOL    HW110184   2.148   0.931   6.836
 3270SOL    HW210185   1.986   0.911   6.831
 3271SOL     OW10186   3.387   0.999   5.776
 3271SOL    HW110187   3.324   0.923   5.789
 3271SOL    HW210188   3.435   1.017   5.862
 3272SOL     OW10189   3.049   1.792   7.202
 3272SOL    HW110190   3.073   1.852   7.126
 3272SOL    HW210191   3.056   1.697   7.172
 3273SOL     OW10192   2.179   0.251   7.387
 3273SOL    HW110193   2.250   0.322   7.393
 3273SOL    HW210194   2.091   0.290   7.415
 3274SOL     OW10195   3.328   1.417   6.539
 3274SOL    HW110196   3.269   1.423   6.619
 3274SOL    HW210197   3.313   1.329   6.493
 3275SOL     OW10198   3.529   1.714   6.158
 3275SOL    HW110199   3.488   1.691   6.070
 3275SOL    HW210200   3.511   1.640   6.223
 3276SOL     OW10201   2.460   0.729   5.856
 3276SOL    HW110202   2.484   0.798   5.788
 3276SOL    HW210203   2.382   0.762   5.910
 3277SOL     OW10204   3.143   0.345   6.530
 3277SOL    HW110205   3.057   0.295   6.517
 3277SOL    HW210206   3.205   0.291   6.586
 3278SOL     OW10207   3.438   1.662   5.893
 3278SOL    HW110208   3.527   1.708   5.896
 3278SOL    HW210209   3.417   1.638   5.798
 3279SOL     OW10210   2.669   0.605   7.051
 3279SOL    HW110211   2.622   0.602   7.140
 3279SOL    HW210212   2.618   0.550   6.985
 3280SOL     OW10213   3.256   0.469   7.260
 3280SOL    HW110214   3.236   0.512   7.348
 3280SOL    HW210215   3.334   0.407   7.269
 3281SOL     OW10216   2.835   0.890   7.158
 3281SOL    HW110217   2.881   0.806   7.129
 3281SOL    HW210218   2.779   0.924   7.083
 3282SOL     OW10219   2.853   0.410   6.828
 3282SOL    HW110220   2.776   0.444   6.882
 3282SOL    HW210221   2.819   0.359   6.749
 3283SOL     OW10222   2.903   0.701   6.015
 3283SOL    HW110223   2.929   0.697   6.111
 3283SOL    HW210224   2.818   0.650   6.001
 3284SOL     OW10225   1.938   0.811   6.375
 3284SOL    HW110226   2.037   0.799   6.384
 3284SOL    HW210227   1.914   0.906   6.396
 3285SOL     OW10228   1.992   1.821   7.157
 3285SOL    HW110229   1.982   1.806   7.256
 3285SOL    HW210230   1.906   1.857   7.121
 3286SOL     OW10231   2.727   0.348   5.781
 3286SOL    HW110232   2.786   0.411   5.732
 3286SOL    HW210233   2.746   0.254   5.752
 3287SOL     OW10234   3.581   0.585   7.417
 3287SOL    HW110235   3.555   0.674   7.381
 3287SOL    HW210236   3.579   0.517   7.344
 3288SOL     OW10237   3.224   1.144   6.131
 3288SOL    HW110238   3.307   1.115   6.083
 3288SOL    HW210239   3.175   1.211   6.075
 3289SOL     OW10240   2.412   0.196   6.471
 3289SOL    HW110241   2.407   0.191   6.571
 3289SOL    HW210242   2.414   0.292   6.442
 3290SOL     OW10243   2.870   1.456   6.063
 3290SOL    HW110244   2.824   1.528   6.011
 3290SOL    HW210245   2.866   1.476   6.161
 3291SOL     OW10246   2.213   1.801   6.439
 3291SOL    HW110247   2.263   1.715   6.445
 3291SOL    HW210248   2.278   1.878   6.436
 3292SOL     OW10249   3.657   1.066   6.459
 3292SOL    HW110250   3.595   1.051   6.383
 3292SOL    HW210251   3.605   1.077   6.544
 3293SOL     OW10252   3.089   1.550   7.092
 3293SOL    HW110253   3.095   1.473   7.156
 3293SOL    HW210254   3.037   1.524   7.012
 3294SOL     OW10255   2.183   0.943   5.828
 3294SOL    HW110256   2.265   0.982   5.786
 3294SOL    HW210257   2.156   0.861   5.779
 3295SOL     OW10258   3.320   0.735   6.314
 3295SOL    HW110259   3.315   0.670   6.389
 3295SOL    HW210260   3.400   0.794   6.327
 3296SOL     OW10261   2.323   1.266   7.313
 3296SOL    HW110262   2.273   1.267   7.227
 3296SOL    HW210263   2.260   1.248   7.389
 3297SOL     OW10264   2.973   1.776   5.823
 3297SOL    HW110265   2.913   1.714   5.873
 3297SOL    HW210266   3.004   1.732   5.738
 3298SOL     OW10267   2.064   0.285   7.084
 3298SOL    HW110268   1.984   0.345   7.071
 3298SOL    HW210269   2.054   0.236   7.170
 3299SOL     OW10270   3.494   1.377   5.667
 3299SOL    HW110271   3.462   1.471   5.657
 3299SOL    HW210272   3.418   1.314   5.655
 3300SOL     OW10273   2.326   1.743   5.909
 3300SOL    HW110274   2.359   1.782   5.995
 3300SOL    HW210275   2.402   1.736   5.844
 3301SOL     OW10276   3.262   0.107   6.012
 3301SOL    HW110277   3.238   0.070   5.922
 3301SOL    HW210278   3.361   0.123   6.016
 3302SOL     OW10279   2.111   1.785   6.827
 3302SOL    HW110280   2.168   1.720   6.877
 3302SOL    HW210281   2.095   1.752   6.734
 3303SOL     OW10282   2.802   1.698   6.490
 3303SOL    HW110283   2.882   1.641   6.511
 3303SOL    HW210284   2.753   1.658   6.413
 3304SOL     OW10285   2.244   0.700   6.066
 3304SOL    HW110286   2.289   0.610   6.063
 3304SOL    HW210287   2.150   0.689   6.099
 3305SOL     OW10288   3.409   0.222   7.315
 3305SOL    HW110289   3.404   0.259   7.407
 3305SOL    HW210290   3.337   0.153   7.303
 3306SOL     OW10291   2.476   0.122   5.703
 3306SOL    HW110292   2.574   0.100   5.710
 3306SOL    HW210293   2.445   0.105   5.610
 3307SOL     OW10294   2.643   0.264   7.335
 3307SOL    HW110295   2.710   0.203   7.378
 3307SOL    HW210296   2.570   0.283   7.400
 3308SOL     OW10297   2.750   1.514   6.781
 3308SOL    HW110298   2.727   1.489   6.687
 3308SOL    HW210299   2.811   1.445   6.820
 3309SOL     OW10300   3.213   0.590   7.019
 3309SOL    HW110301   3.241   0.547   7.104
 3309SOL    HW210302   3.238   0.686   7.020
 3310SOL     OW10303   2.665   1.402   6.510
 3310SOL    HW110304   2.755   1.416   6.468
 3310SOL    HW210305   2.594   1.404   6.439
 3311SOL     OW10306   2.784   0.503   6.485
 3311SOL    HW110307   2.759   0.494   6.389
 3311SOL    HW210308   2.832   0.421   6.516
 3312SOL     OW10309   2.401   0.064   6.098
 3312SOL    HW110310   2.320   0.065   6.156
 3312SOL    HW210311   2.404   0.147   6.043
 3313SOL     OW10312   3.296   1.188   5.627
 3313SOL    HW110313   3.328   1.112   5.684
 3313SOL    HW210314   3.204   1.215   5.657
 3314SOL     OW10315   2.159   0.035   5.757
 3314SOL    HW110316   2.208   0.119   5.736
 3314SOL    HW210317   2.221  -0.030   5.802
 3315SOL     OW10318   2.797   0.236   6.066
 3315SOL    HW110319   2.749   0.277   5.988
 3315SOL    HW210320   2.896   0.234   6.047
 3316SOL     OW10321   2.938   0.683   7.050
 3316SOL    HW110322   2.858   0.622   7.053
 3316SOL    HW210323   3.019   0.630   7.026
 3317SOL     OW10324   3.089   1.570   6.379
 3317SOL    HW110325   3.110   1.644   6.314
 3317SOL    HW210326   3.157   1.570   6.452
 3318SOL     OW10327   2.321   1.152   6.327
 3318SOL    HW110328   2.250   1.125   6.392
 3318SOL    HW210329   2.295   1.124   6.234
 3319SOL     OW10330   3.133   1.797   6.177
 3319SOL    HW110331   3.177   1.861   6.113
 3319SOL    HW210332   3.083   1.849   6.247
 3320SOL     OW10333   2.894   0.549   5.602
 3320SOL    HW110334   2.853   0.631   5.563
 3320SOL    HW210335   2.958   0.575   5.675
 3321SOL     OW10336   1.940   0.556   6.972
 3321SOL    HW110337   2.032   0.555   6.931
 3321SOL    HW210338   1.934   0.630   7.039
 3322SOL     OW10339   2.423   0.222   6.733
 3322SOL    HW110340   2.461   0.138   6.770
 3322SOL    HW210341   2.335   0.241   6.777
 3323SOL     OW10342   2.728   0.454   6.228
 3323SOL    HW110343   2.696   0.526   6.166
 3323SOL    HW210344   2.752   0.373   6.175
 3324SOL     OW10345   2.879   0.039   6.339
 3324SOL    HW110346   2.807   0.044   6.270
 3324SOL    HW210347   2.855  -0.030   6.408
 3325SOL     OW10348   3.291   1.173   6.453
 3325SOL    HW110349   3.236   1.089   6.446
 3325SOL    HW210350   3.317   1.202   6.361
 3326SOL     OW10351   3.328   0.590   6.578
 3326SOL    HW110352   3.298   0.495   6.585
 3326SOL    HW210353   3.401   0.606   6.644
 3327SOL     OW10354   3.719   0.833   5.963
 3327SOL    HW110355   3.761   0.769   6.027
 3327SOL    HW210356   3.681   0.782   5.885
 3328SOL     OW10357   2.350   1.385   5.760
 3328SOL    HW110358   2.263   1.370   5.807
 3328SOL    HW210359   2.333   1.411   5.665
 3329SOL     OW10360   3.526   1.280   6.243
 3329SOL    HW110361   3.625   1.288   6.257
 3329SOL    HW210362   3.481   1.364   6.274
 3330SOL     OW10363   3.252   0.575   5.664
 3330SOL    HW110364   3.198   0.554   5.745
 3330SOL    HW210365   3.343   0.534   5.673
 3331SOL     OW10366   2.389   0.256   5.914
 3331SOL    HW110367   2.416   0.197   5.839
 3331SOL    HW210368   2.389   0.351   5.883
 3332SOL     OW10369   3.616   1.223   7.174
 3332SOL    HW110370   3.707   1.184   7.161
 3332SOL    HW210371   3.624   1.319   7.198
 3333SOL     OW10372   2.926   1.347   6.926
 3333SOL    HW110373   2.846   1.324   6.981
 3333SOL    HW210374   3.009   1.321   6.975
 3334SOL     OW10375   3.454   1.629   7.211
 3334SOL    HW110376   3.481   1.663   7.121
 3334SOL    HW210377   3.533   1.591   7.257
 3335SOL     OW10378   2.973   1.195   6.686
 3335SOL    HW110379   2.933   1.239   6.767
 3335SOL    HW210380   2.932   1.232   6.603
 3336SOL     OW10381   3.500   1.099   6.665
 3336SOL    HW110382   3.505   1.180   6.724
 3336SOL    HW210383   3.414   1.101   6.614
 3337SOL     OW10384   2.777   0.089   6.988
 3337SOL    HW110385   2.802   0.069   6.893
 3337SOL    HW210386   2.849   0.145   7.030
 3338SOL     OW10387   2.842   1.116   7.305
 3338SOL    HW110388   2.743   1.122   7.315
 3338SOL    HW210389   2.865   1.036   7.249
 3339SOL     OW10390   2.567   1.050   5.954
 3339SOL    HW110391   2.553   1.057   6.053
 3339SOL    HW210392   2.651   0.999   5.936
 3340SOL     OW10393   2.272   0.813   6.837
 3340SOL    HW110394   2.358   0.825   6.887
 3340SOL    HW210395   2.230   0.726   6.864
 3341SOL     OW10396   3.136   0.386   6.848
 3341SOL    HW110397   3.157   0.460   6.912
 3341SOL    HW210398   3.047   0.403   6.805
 3342SOL     OW10399   1.926   1.564   6.917
 3342SOL    HW110400   1.880   1.646   6.883
 3342SOL    HW210401   2.024   1.583   6.926
 3343SOL     OW10402   2.229   1.100   6.087
 3343SOL    HW110403   2.222   1.183   6.031
 3343SOL    HW210404   2.233   1.020   6.027
 3344SOL     OW10405   2.428   0.537   6.451
 3344SOL    HW110406   2.440   0.603   6.377
 3344SOL    HW210407   2.474   0.571   6.534
 3345SOL     OW10408   3.114   1.348   5.974
 3345SOL    HW110409   3.164   1.425   6.014
 3345SOL    HW210410   3.019   1.350   6.006
 3346SOL     OW10411   3.134   1.445   6.728
 3346SOL    HW110412   3.181   1.458   6.815
 3346SOL    HW210413   3.068   1.371   6.737
 3347SOL     OW10414   3.444   0.639   6.058
 3347SOL    HW110415   3.413   0.700   6.131
 3347SOL    HW210416   3.494   0.691   5.989
 3348SOL     OW10417   2.216   1.510   6.915
 3348SOL    HW110418   2.195   1.466   6.828
 3348SOL    HW210419   2.313   1.536   6.918
 3349SOL     OW10420   2.264   0.751   7.184
 3349SOL    HW110421   2.332   0.806   7.137
 3349SOL    HW210422   2.304   0.663   7.211
 3350SOL     OW10423   3.449   0.779   7.256
 3350SOL    HW110424   3.357   0.817   7.251
 3350SOL    HW210425   3.509   0.826   7.191
 3351SOL     OW10426   2.875   0.105   7.356
 3351SOL    HW110427   2.881   0.190   7.304
 3351SOL    HW210428   2.907   0.029   7.299
 3352SOL     OW10429   2.366   0.050   7.326
 3352SOL    HW110430   2.324  -0.007   7.256
 3352SOL    HW210431   2.300   0.119   7.358
 3353SOL     OW10432   2.435   0.870   6.615
 3353SOL    HW110433   2.479   0.959   6.606
 3353SOL    HW210434   2.372   0.870   6.692
 3354SOL     OW10435   3.222   0.862   6.631
 3354SOL    HW110436   3.147   0.862   6.565
 3354SOL    HW210437   3.259   0.770   6.640
 3355SOL     OW10438   3.071   0.525   5.861
 3355SOL    HW110439   3.084   0.441   5.915
 3355SOL    HW210440   3.042   0.599   5.921
 3356SOL     OW10441   2.169   0.213   6.817
 3356SOL    HW110442   2.146   0.250   6.907
 3356SOL    HW210443   2.139   0.118   6.811
 3357SOL     OW10444   1.899   1.310   6.868
 3357SOL    HW110445   1.952   1.261   6.936
 3357SOL    HW210446   1.921   1.408   6.873
 3358SOL     OW10447   2.594   0.634   6.650
 3358SOL    HW110448   2.653   0.608   6.574
 3358SOL    HW210449   2.566   0.730   6.639
 3359SOL     OW10450   3.590   0.935   7.440
 3359SOL    HW110451   3.544   0.928   7.351
 3359SOL    HW210452   3.528   0.979   7.506
 3360SOL     OW10453   2.169   0.063   6.204
 3360SOL    HW110454   2.158   0.157   6.237
 3360SOL    HW210455   2.164   0.000   6.281
 3361SOL     OW10456   3.484   0.367   5.960
 3361SOL    HW110457   3.486   0.291   6.024
 3361SOL    HW210458   3.436   0.444   6.000
 3362SOL     OW10459   2.885   0.766   6.552
 3362SOL    HW110460   2.900   0.787   6.648
 3362SOL    HW210461   2.855   0.671   6.543
 3363SOL     OW10462   2.842   1.573   7.286
 3363SOL    HW110463   2.822   1.617   7.198
 3363SOL    HW210464   2.881   1.482   7.270
 3364SOL     OW10465   3.721   1.518   7.191
 3364SOL    HW110466   3.735   1.545   7.096
 3364SOL    HW210467   3.804   1.540   7.244
 3365SOL     OW10468   2.212   0.898   7.390
 3365SOL    HW110469   2.288   0.942   7.438
 3365SOL    HW210470   2.247   0.851   7.308
 3366SOL     OW10471   3.402   0.274   5.711
 3366SOL    HW110472   3.341   0.199   5.734
 3366SOL    HW210473   3.424   0.326   5.794
 3367SOL     OW10474   3.165   0.838   5.628
 3367SOL    HW110475   3.199   0.745   5.643
 3367SOL    HW210476   3.183   0.865   5.533
 3368SOL     OW10477   2.930   1.333   6.435
 3368SOL    HW110478   2.937   1.249   6.380
 3368SOL    HW210479   2.992   1.402   6.399
 3369SOL     OW10480   2.181   0.810   6.535
 3369SOL    HW110481   2.274   0.846   6.540
 3369SOL    HW210482   2.175   0.725   6.587
 3370SOL     OW10483   2.201   0.509   6.592
 3370SOL    HW110484   2.149   0.426   6.575
 3370SOL    HW210485   2.278   0.514   6.528
 3371SOL     OW10486   3.000   0.380   7.264
 3371SOL    HW110487   2.955   0.443   7.328
 3371SOL    HW210488   3.093   0.411   7.247
 3372SOL     OW10489   3.022   0.207   7.063
 3372SOL    HW110490   3.022   0.271   7.140
 3372SOL    HW210491   3.050   0.255   6.980
 3373SOL     OW10492   1.870   1.326   5.786
 3373SOL    HW110493   1.777   1.347   5.755
 3373SOL    HW210494   1.880   1.227   5.799
 3374SOL     OW10495   1.950   1.801   6.513
 3374SOL    HW110496   1.908   1.715   6.486
 3374SOL    HW210497   2.044   1.804   6.479
 3375SOL     OW10498   2.366   1.568   6.496
 3375SOL    HW110499   2.432   1.642   6.505
 3375SOL    HW210500   2.410   1.489   6.454
 3376SOL     OW10501   2.864   0.796   6.824
 3376SOL    HW110502   2.905   0.764   6.910
 3376SOL    HW210503   2.768   0.769   6.821
 3377SOL     OW10504   1.902   0.544   6.700
 3377SOL    HW110505   1.987   0.511   6.659
 3377SOL    HW210506   1.915   0.559   6.798
 3378SOL     OW10507   2.051   0.520   7.308
 3378SOL    HW110508   2.110   0.480   7.238
 3378SOL    HW210509   1.993   0.591   7.267
 3379SOL     OW10510   3.231   0.950   7.246
 3379SOL    HW110511   3.270   1.039   7.266
 3379SOL    HW210512   3.241   0.930   7.149
 3380SOL     OW10513   2.677   0.572   5.911
 3380SOL    HW110514   2.684   0.483   5.865
 3380SOL    HW210515   2.583   0.606   5.903
 3381SOL     OW10516   3.519   0.604   6.792
 3381SOL    HW110517   3.481   0.535   6.854
 3381SOL    HW210518   3.601   0.568   6.748
 3382SOL     OW10519   2.114   1.564   7.330
 3382SOL    HW110520   2.084   1.621   7.406
 3382SOL    HW210521   2.107   1.467   7.356
 3383SOL     OW10522   2.533   0.464   6.855
 3383SOL    HW110523   2.499   0.375   6.825
 3383SOL    HW210524   2.559   0.518   6.775
 3384SOL     OW10525   2.792   1.678   7.051
 3384SOL    HW110526   2.768   1.660   6.956
 3384SOL    HW210527   2.822   1.772   7.061
 3385SOL     OW10528   2.335   0.500   5.777
 3385SOL    HW110529   2.396   0.580   5.781
 3385SOL    HW210530   2.240   0.531   5.784
 3386SOL     OW10531   2.021   1.137   7.052
 3386SOL    HW110532   2.043   1.076   7.128
 3386SOL    HW210533   2.031   1.088   6.966
 3387SOL     OW10534   3.209   1.059   6.820
 3387SOL    HW110535   3.233   0.996   6.746
 3387SOL    HW210536   3.119   1.099   6.802
 3388SOL     OW10537   3.164   0.855   5.895
 3388SOL    HW110538   3.078   0.824   5.937
 3388SOL    HW210539   3.160   0.841   5.796
 3389SOL     OW10540   3.621   1.747   6.740
 3389SOL    HW110541   3.682   1.777   6.667
 3389SOL    HW210542   3.583   1.658   6.718
 3390SOL     OW10543   3.114   1.731   6.714
 3390SOL    HW110544   3.198   1.736   6.660
 3390SOL    HW210545   3.091   1.635   6.732
 3391SOL     OW10546   1.945   1.258   6.608
 3391SOL    HW110547   1.940   1.257   6.708
 3391SOL    HW210548   1.862   1.217   6.570
 3392SOL     OW10549   2.550   1.662   7.302
 3392SOL    HW110550   2.494   1.743   7.311
 3392SOL    HW210551   2.602   1.666   7.216
 3393SOL     OW10552   3.588   0.135   6.109
 3393SOL    HW110553   3.661   0.118   6.042
 3393SOL    HW210554   3.557   0.048   6.147
 3394SOL     OW10555   3.250   1.573   6.063
 3394SOL    HW110556   3.317   1.585   5.989
 3394SOL    HW210557   3.210   1.662   6.086
 3395SOL     OW10558   1.992   1.794   7.437
 3395SOL    HW110559   1.951   1.720   7.490
 3395SOL    HW210560   2.056   1.845   7.495
 3396SOL     OW10561   3.142   0.927   6.258
 3396SOL    HW110562   3.202   0.846   6.260
 3396SOL    HW210563   3.182   0.996   6.198
 3397SOL     OW10564   2.692   1.273   7.008
 3397SOL    HW110565   2.687   1.306   7.103
 3397SOL    HW210566   2.606   1.292   6.962
 3398SOL     OW10567   2.534   1.616   5.740
 3398SOL    HW110568   2.543   1.626   5.641
 3398SOL    HW210569   2.494   1.527   5.761
 3399SOL     OW10570   3.512   1.720   6.980
 3399SOL    HW110571   3.565   1.730   6.896
 3399SOL    HW210572   3.485   1.810   7.014
 3400SOL     OW10573   3.703   0.175   6.549
 3400SOL    HW110574   3.742   0.090   6.513
 3400SOL    HW210575   3.605   0.177   6.530
 3401SOL     OW10576   2.125   0.326   6.306
 3401SOL    HW110577   2.046   0.377   6.272
 3401SOL    HW210578   2.116   0.311   6.404
 3402SOL     OW10579   3.056   1.612   5.617
 3402SOL    HW110580   3.062   1.519   5.654
 3402SOL    HW210581   2.997   1.612   5.537
 3403SOL     OW10582   2.684   1.002   6.958
 3403SOL    HW110583   2.724   1.001   6.866
 3403SOL    HW210584   2.694   1.094   6.998
 3404SOL     OW10585   2.778   0.910   5.877
 3404SOL    HW110586   2.841   0.948   5.809
 3404SOL    HW210587   2.818   0.827   5.916
 3405SOL     OW10588   3.366   1.607   5.630
 3405SOL    HW110589   3.274   1.644   5.637
 3405SOL    HW210590   3.404   1.627   5.540
 3406SOL     OW10591   2.234   1.288   7.076
 3406SOL    HW110592   2.221   1.381   7.042
 3406SOL    HW210593   2.150   1.236   7.063
 3407SOL     OW10594   3.476   1.292   6.875
 3407SOL    HW110595   3.536   1.295   6.955
 3407SOL    HW210596   3.401   1.356   6.888
 3408SOL     OW10597   2.901   1.098   6.282
 3408SOL    HW110598   2.831   1.051   6.336
 3408SOL    HW210599   2.960   1.030   6.239
 3409SOL     OW10600   2.876   0.236   6.557
 3409SOL    HW110601   2.868   0.200   6.464
 3409SOL    HW210602   2.874   0.160   6.622
 3410SOL     OW10603   2.452   1.487   6.077
 3410SOL    HW110604   2.494   1.429   6.007
 3410SOL    HW210605   2.408   1.566   6.033
 3411SOL     OW10606   3.571   0.385   6.967
 3411SOL    HW110607   3.644   0.454   6.971
 3411SOL    HW210608   3.599   0.310   6.908
 3412SOL     OW10609   2.117   1.348   5.876
 3412SOL    HW110610   2.021   1.349   5.849
 3412SOL    HW210611   2.129   1.401   5.960
 3413SOL     OW10612   1.967   1.013   7.312
 3413SOL    HW110613   1.890   0.980   7.366
 3413SOL    HW210614   2.052   0.983   7.354
 3414SOL     OW10615   2.534   0.203   7.075
 3414SOL    HW110616   2.624   0.187   7.035
 3414SOL    HW210617   2.542   0.208   7.174
 3415SOL     OW10618   1.937   0.345   5.619
 3415SOL    HW110619   1.845   0.317   5.590
 3415SOL    HW210620   1.968   0.422   5.563
 3416SOL     OW10621   3.302   0.856   6.984
 3416SOL    HW110622   3.245   0.908   6.921
 3416SOL    HW210623   3.398   0.868   6.960
 3417SOL     OW10624   1.934   0.166   5.904
 3417SOL    HW110625   1.917   0.249   5.850
 3417SOL    HW210626   2.024   0.129   5.882
 3418SOL     OW10627   3.045   1.335   5.705
 3418SOL    HW110628   2.946   1.324   5.707
 3418SOL    HW210629   3.079   1.350   5.798
 3419SOL     OW10630   2.475   0.842   7.017
 3419SOL    HW110631   2.531   0.923   7.000
 3419SOL    HW210632   2.534   0.762   7.020
 3420SOL     OW10633   3.355   1.767   6.545
 3420SOL    HW110634   3.388   1.831   6.476
 3420SOL    HW210635   3.421   1.761   6.620
 3421SOL     OW10636   2.578   0.565   7.294
 3421SOL    HW110637   2.597   0.630   7.368
 3421SOL    HW210638   2.638   0.485   7.303
 3422SOL     OW10639   3.312   1.220   7.219
 3422SOL    HW110640   3.303   1.210   7.318
 3422SOL    HW210641   3.408   1.213   7.193
 3423SOL     OW10642   2.252   1.741   7.146
 3423SOL    HW110643   2.161   1.782   7.144
 3423SOL    HW210644   2.245   1.647   7.178
 3424SOL     OW10645   3.536   0.883   6.840
 3424SOL    HW110646   3.509   0.794   6.803
 3424SOL    HW210647   3.537   0.951   6.767
 3425SOL     OW10648   3.087   0.325   6.035
 3425SOL    HW110649   3.152   0.251   6.024
 3425SOL    HW210650   3.107   0.375   6.119
 3426SOL     OW10651   2.456   0.745   6.238
 3426SOL    HW110652   2.506   0.830   6.219
 3426SOL    HW210653   2.368   0.747   6.190
 3427SOL     OW10654   3.639   0.342   7.228
 3427SOL    HW110655   3.622   0.373   7.134
 3427SOL    HW210656   3.555   0.305   7.266
 3428SOL     OW10657   3.592   0.934   7.103
 3428SOL    HW110658   3.630   1.025   7.118
 3428SOL    HW210659   3.584   0.917   7.004
 3429SOL     OW10660   2.721   1.374   5.602
 3429SOL    HW110661   2.675   1.389   5.690
 3429SOL    HW210662   2.765   1.459   5.572
 3430SOL     OW10663   2.523   1.790   6.539
 3430SOL    HW110664   2.477   1.878   6.526
 3430SOL    HW210665   2.622   1.802   6.532
 3431SOL     OW10666   2.721   0.956   6.447
 3431SOL    HW110667   2.775   0.887   6.495
 3431SOL    HW210668   2.689   1.025   6.513
 3432SOL     OW10669   2.945   0.984   5.673
 3432SOL    HW110670   2.922   1.037   5.591
 3432SOL    HW210671   3.026   0.928   5.654
 3433SOL     OW10672   3.723   1.569   6.437
 3433SOL    HW110673   3.652   1.557   6.367
 3433SOL    HW210674   3.724   1.490   6.497
 3434SOL     OW10675   2.083   1.314   7.430
 3434SOL    HW110676   2.018   1.241   7.409
 3434SOL    HW210677   2.087   1.328   7.528
 3435SOL     OW10678   1.941   1.240   6.239
 3435SOL    HW110679   1.940   1.193   6.327
 3435SOL    HW210680   2.023   1.212   6.188
 3436SOL     OW10681   2.534   1.391   7.210
 3436SOL    HW110682   2.456   1.341   7.248
 3436SOL    HW210683   2.531   1.486   7.241
 3437SOL     OW10684   3.686   0.192   6.813
 3437SOL    HW110685   3.682   0.102   6.857
 3437SOL    HW210686   3.689   0.181   6.714
 3438SOL     OW10687   2.290   0.424   6.106
 3438SOL    HW110688   2.320   0.352   6.044
 3438SOL    HW210689   2.251   0.384   6.189
 3439SOL     OW10690   3.567   1.487   6.690
 3439SOL    HW110691   3.474   1.462   6.663
 3439SOL    HW210692   3.593   1.437   6.772
 3440SOL     OW10693   2.179   0.547   6.866
 3440SOL    HW110694   2.217   0.488   6.938
 3440SOL    HW210695   2.219   0.521   6.778
 3441SOL     OW10696   2.674   1.586   6.273
 3441SOL    HW110697   2.706   1.596   6.179
 3441SOL    HW210698   2.595   1.524   6.275
 3442SOL     OW10699   3.286   0.214   6.698
 3442SOL    HW110700   3.338   0.149   6.753
 3442SOL    HW210701   3.237   0.277   6.759
 3443SOL     OW10702   2.863   0.034   6.740
 3443SOL    HW110703   2.800  -0.038   6.709
 3443SOL    HW210704   2.956  -0.002   6.740
 3444SOL     OW10705   2.632   1.330   5.887
 3444SOL    HW110706   2.586   1.243   5.904
 3444SOL    HW210707   2.723   1.327   5.928
 3445SOL     OW10708   2.480   1.567   6.870
 3445SOL    HW110709   2.475   1.649   6.927
 3445SOL    HW210710   2.569   1.564   6.825
 3446SOL     OW10711   3.214   0.052   5.754
 3446SOL    HW110712   3.249   0.011   5.670
 3446SOL    HW210713   3.124   0.014   5.774
 3447SOL     OW10714   3.162   0.453   6.277
 3447SOL    HW110715   3.103   0.533   6.281
 3447SOL    HW210716   3.177   0.418   6.370
 3448SOL     OW10717   3.455   0.221   6.468
 3448SOL    HW110718   3.371   0.220   6.522
 3448SOL    HW210719   3.457   0.304   6.412
 3449SOL     OW10720   1.901   1.077   5.886
 3449SOL    HW110721   2.000   1.066   5.877
 3449SOL    HW210722   1.861   0.991   5.918
 3450SOL     OW10723   2.737   1.646   5.923
 3450SOL    HW110724   2.660   1.611   5.869
 3450SOL    HW210725   2.705   1.717   5.985
 3451SOL     OW10726   2.092   0.628   7.561
 3451SOL    HW110727   1.999   0.626   7.598
 3451SOL    HW210728   2.093   0.589   7.469
 3452SOL     OW10729   3.617   0.607   7.679
 3452SOL    HW110730   3.605   0.594   7.580
 3452SOL    HW210731   3.587   0.526   7.728
 3453SOL     OW10732   2.093   1.713   7.931
 3453SOL    HW110733   2.127   1.790   7.985
 3453SOL    HW210734   2.137   1.713   7.841
 3454SOL     OW10735   2.092   1.434   7.986
 3454SOL    HW110736   2.066   1.530   7.986
 3454SOL    HW210737   2.021   1.380   8.031
 3455SOL     OW10738   2.468   0.964   7.571
 3455SOL    HW110739   2.475   1.048   7.517
 3455SOL    HW210740   2.514   0.977   7.659
 3456SOL     OW10741   3.704   1.767   7.807
 3456SOL    HW110742   3.758   1.738   7.887
 3456SOL    HW210743   3.734   1.857   7.778
 3457SOL     OW10744   1.889   1.596   7.565
 3457SOL    HW110745   1.870   1.500   7.586
 3457SOL    HW210746   1.856   1.654   7.640
 3458SOL     OW10747   3.551   0.922   8.060
 3458SOL    HW110748   3.646   0.893   8.068
 3458SOL    HW210749   3.543   0.987   7.985
 3459SOL     OW10750   3.503   1.108   7.880
 3459SOL    HW110751   3.589   1.110   7.828
 3459SOL    HW210752   3.517   1.155   7.968
 3460SOL     OW10753   2.671   0.004   7.950
 3460SOL    HW110754   2.711   0.095   7.941
 3460SOL    HW210755   2.571   0.012   7.956
 3461SOL     OW10756   3.387   0.999   7.638
 3461SOL    HW110757   3.324   0.923   7.651
 3461SOL    HW210758   3.435   1.017   7.724
 3462SOL     OW10759   2.460   0.729   7.718
 3462SOL    HW110760   2.484   0.798   7.650
 3462SOL    HW210761   2.382   0.762   7.772
 3463SOL     OW10762   3.438   1.662   7.755
 3463SOL    HW110763   3.527   1.708   7.758
 3463SOL    HW210764   3.417   1.638   7.660
 3464SOL     OW10765   1.938   0.811   8.237
 3464SOL    HW110766   2.037   0.799   8.246
 3464SOL    HW210767   1.914   0.906   8.258
 3465SOL     OW10768   2.727   0.348   7.643
 3465SOL    HW110769   2.786   0.411   7.594
 3465SOL    HW210770   2.746   0.254   7.614
 3466SOL     OW10771   2.183   0.943   7.690
 3466SOL    HW110772   2.265   0.982   7.648
 3466SOL    HW210773   2.156   0.861   7.641
 3467SOL     OW10774   2.973   1.776   7.685
 3467SOL    HW110775   2.913   1.714   7.735
 3467SOL    HW210776   3.004   1.732   7.600
 3468SOL     OW10777   3.494   1.377   7.529
 3468SOL    HW110778   3.462   1.471   7.519
 3468SOL    HW210779   3.418   1.314   7.517
 3469SOL     OW10780   2.326   1.743   7.771
 3469SOL    HW110781   2.359   1.782   7.857
 3469SOL    HW210782   2.402   1.736   7.706
 3470SOL     OW10783   3.262   0.107   7.874
 3470SOL    HW110784   3.238   0.070   7.784
 3470SOL    HW210785   3.361   0.123   7.878
 3471SOL     OW10786   2.244   0.700   7.928
 3471SOL    HW110787   2.289   0.610   7.925
 3471SOL    HW210788   2.150   0.689   7.961
 3472SOL     OW10789   2.476   0.122   7.565
 3472SOL    HW110790   2.574   0.100   7.572
 3472SOL    HW210791   2.445   0.105   7.472
 3473SOL     OW10792   2.401   0.064   7.960
 3473SOL    HW110793   2.320   0.065   8.018
 3473SOL    HW210794   2.404   0.147   7.905
 3474SOL     OW10795   3.296   1.188   7.489
 3474SOL    HW110796   3.328   1.112   7.546
 3474SOL    HW210797   3.204   1.215   7.519
 3475SOL     OW10798   2.159   0.035   7.619
 3475SOL    HW110799   2.208   0.119   7.598
 3475SOL    HW210800   2.221  -0.030   7.664
 3476SOL     OW10801   2.797   0.236   7.928
 3476SOL    HW110802   2.749   0.277   7.850
 3476SOL    HW210803   2.896   0.234   7.909
 3477SOL     OW10804   2.321   1.152   8.189
 3477SOL    HW110805   2.250   1.125   8.254
 3477SOL    HW210806   2.295   1.124   8.096
 3478SOL     OW10807   3.133   1.797   8.039
 3478SOL    HW110808   3.177   1.861   7.975
 3478SOL    HW210809   3.083   1.849   8.109
 3479SOL     OW10810   2.894   0.549   7.464
 3479SOL    HW110811   2.853   0.631   7.425
 3479SOL    HW210812   2.958   0.575   7.537
 3480SOL     OW10813   3.719   0.833   7.825
 3480SOL    HW110814   3.761   0.769   7.889
 3480SOL    HW210815   3.681   0.782   7.747
 3481SOL     OW10816   2.350   1.385   7.622
 3481SOL    HW110817   2.263   1.370   7.669
 3481SOL    HW210818   2.333   1.411   7.527
 3482SOL     OW10819   3.252   0.575   7.526
 3482SOL    HW110820   3.198   0.554   7.607
 3482SOL    HW210821   3.343   0.534   7.535
 3483SOL     OW10822   2.389   0.256   7.776
 3483SOL    HW110823   2.416   0.197   7.701
 3483SOL    HW210824   2.389   0.351   7.745
 3484SOL     OW10825   2.567   1.050   7.816
 3484SOL    HW110826   2.553   1.057   7.915
 3484SOL    HW210827   2.651   0.999   7.798
 3485SOL     OW10828   2.229   1.100   7.949
 3485SOL    HW110829   2.222   1.183   7.893
 3485SOL    HW210830   2.233   1.020   7.889
 3486SOL     OW10831   3.114   1.348   7.836
 3486SOL    HW110832   3.164   1.425   7.876
 3486SOL    HW210833   3.019   1.350   7.868
 3487SOL     OW10834   3.444   0.639   7.920
 3487SOL    HW110835   3.413   0.700   7.993
 3487SOL    HW210836   3.494   0.691   7.851
 3488SOL     OW10837   3.071   0.525   7.723
 3488SOL    HW110838   3.084   0.441   7.777
 3488SOL    HW210839   3.042   0.599   7.783
 3489SOL     OW10840   3.484   0.367   7.822
 3489SOL    HW110841   3.486   0.291   7.886
 3489SOL    HW210842   3.436   0.444   7.862
 3490SOL     OW10843   3.402   0.274   7.573
 3490SOL    HW110844   3.341   0.199   7.596
 3490SOL    HW210845   3.424   0.326   7.656
 3491SOL     OW10846   3.165   0.838   7.490
 3491SOL    HW110847   3.199   0.745   7.505
 3491SOL    HW210848   3.183   0.865   7.395
 3492SOL     OW10849   1.870   1.326   7.648
 3492SOL    HW110850   1.777   1.347   7.617
 3492SOL    HW210851   1.880   1.227   7.661
 3493SOL     OW10852   2.677   0.572   7.773
 3493SOL    HW110853   2.684   0.483   7.727
 3493SOL    HW210854   2.583   0.606   7.765
 3494SOL     OW10855   2.335   0.500   7.639
 3494SOL    HW110856   2.396   0.580   7.643
 3494SOL    HW210857   2.240   0.531   7.646
 3495SOL     OW10858   3.164   0.855   7.757
 3495SOL    HW110859   3.078   0.824   7.799
 3495SOL    HW210860   3.160   0.841   7.658
 3496SOL     OW10861   3.588   0.135   7.971
 3496SOL    HW110862   3.661   0.118   7.904
 3496SOL    HW210863   3.557   0.048   8.009
 3497SOL     OW10864   3.250   1.573   7.925
 3497SOL    HW110865   3.317   1.585   7.851
 3497SOL    HW210866   3.210   1.662   7.948
 3498SOL     OW10867   2.534   1.616   7.602
 3498SOL    HW110868   2.543   1.626   7.503
 3498SOL    HW210869   2.494   1.527   7.623
 3499SOL     OW10870   3.056   1.612   7.479
 3499SOL    HW110871   3.062   1.519   7.516
 3499SOL    HW210872   2.997   1.612   7.399
 3500SOL     OW10873   2.778   0.910   7.739
 3500SOL    HW110874   2.841   0.948   7.671
 3500SOL    HW210875   2.818   0.827   7.778
 3501SOL     OW10876   3.366   1.607   7.492
 3501SOL    HW110877   3.274   1.644   7.499
 3501SOL    HW210878   3.404   1.627   7.402
 3502SOL     OW10879   2.452   1.487   7.939
 3502SOL    HW110880   2.494   1.429   7.869
 3502SOL    HW210881   2.408   1.566   7.895
 3503SOL     OW10882   2.117   1.348   7.738
 3503SOL    HW110883   2.021   1.349   7.711
 3503SOL    HW210884   2.129   1.401   7.822
 3504SOL     OW10885   1.937   0.345   7.481
 3504SOL    HW110886   1.845   0.317   7.452
 3504SOL    HW210887   1.968   0.422   7.425
 3505SOL     OW10888   1.934   0.166   7.766
 3505SOL    HW110889   1.917   0.249   7.712
 3505SOL    HW210890   2.024   0.129   7.744
 3506SOL     OW10891   3.045   1.335   7.567
 3506SOL    HW110892   2.946   1.324   7.569
 3506SOL    HW210893   3.079   1.350   7.660
 3507SOL     OW10894   3.087   0.325   7.897
 3507SOL    HW110895   3.152   0.251   7.886
 3507SOL    HW210896   3.107   0.375   7.981
 3508SOL     OW10897   2.456   0.745   8.100
 3508SOL    HW110898   2.506   0.830   8.081
 3508SOL    HW210899   2.368   0.747   8.052
 3509SOL     OW10900   2.721   1.374   7.464
 3509SOL    HW110901   2.675   1.389   7.552
 3509SOL    HW210902   2.765   1.459   7.434
 3510SOL     OW10903   2.945   0.984   7.535
 3510SOL    HW110904   2.922   1.037   7.453
 3510SOL    HW210905   3.026   0.928   7.516
 3511SOL     OW10906   2.290   0.424   7.968
 3511SOL    HW110907   2.320   0.352   7.906
 3511SOL    HW210908   2.251   0.384   8.051
 3512SOL     OW10909   2.632   1.330   7.749
 3512SOL    HW110910   2.586   1.243   7.766
 3512SOL    HW210911   2.723   1.327   7.790
 3513SOL     OW10912   3.214   0.052   7.616
 3513SOL    HW110913   3.249   0.011   7.532
 3513SOL    HW210914   3.124   0.014   7.636
 3514SOL     OW10915   1.901   1.077   7.748
 3514SOL    HW110916   2.000   1.066   7.739
 3514SOL    HW210917   1.861   0.991   7.780
 3515SOL     OW10918   2.737   1.646   7.785
 3515SOL    HW110919   2.660   1.611   7.731
 3515SOL    HW210920   2.705   1.717   7.847
 3516SOL     OW10921   2.092   2.490   0.113
 3516SOL    HW110922   1.999   2.488   0.150
 3516SOL    HW210923   2.093   2.451   0.021
 3517SOL     OW10924   2.087   2.137   0.996
 3517SOL    HW110925   2.122   2.120   1.088
 3517SOL    HW210926   1.999   2.092   0.984
 3518SOL     OW10927   1.881   2.230   0.647
 3518SOL    HW110928   1.799   2.273   0.686
 3518SOL    HW210929   1.853   2.157   0.584
 3519SOL     OW10930   2.431   3.137   1.165
 3519SOL    HW110931   2.338   3.130   1.128
 3519SOL    HW210932   2.442   3.226   1.209
 3520SOL     OW10933   3.417   3.373   0.703
 3520SOL    HW110934   3.360   3.357   0.784
 3520SOL    HW210935   3.358   3.383   0.623
 3521SOL     OW10936   2.997   2.565   0.717
 3521SOL    HW110937   3.054   2.643   0.692
 3521SOL    HW210938   2.937   2.591   0.793
 3522SOL     OW10939   3.617   2.469   0.231
 3522SOL    HW110940   3.605   2.456   0.132
 3522SOL    HW210941   3.587   2.388   0.280
 3523SOL     OW10942   2.630   3.006   1.023
 3523SOL    HW110943   2.552   3.023   1.083
 3523SOL    HW210944   2.664   3.093   0.987
 3524SOL     OW10945   2.548   3.023   1.803
 3524SOL    HW110946   2.608   3.102   1.817
 3524SOL    HW210947   2.462   3.054   1.762
 3525SOL     OW10948   2.197   3.297   1.061
 3525SOL    HW110949   2.119   3.266   1.008
 3525SOL    HW210950   2.255   3.355   1.004
 3526SOL     OW10951   3.322   3.367   1.339
 3526SOL    HW110952   3.346   3.461   1.365
 3526SOL    HW210953   3.306   3.313   1.421
 3527SOL     OW10954   2.300   2.254   1.499
 3527SOL    HW110955   2.382   2.198   1.508
 3527SOL    HW210956   2.219   2.196   1.503
 3528SOL     OW10957   3.465   2.309   0.737
 3528SOL    HW110958   3.391   2.355   0.687
 3528SOL    HW210959   3.516   2.377   0.790
 3529SOL     OW10960   2.093   3.575   0.483
 3529SOL    HW110961   2.127   3.652   0.537
 3529SOL    HW210962   2.137   3.575   0.393
 3530SOL     OW10963   2.989   3.203   1.690
 3530SOL    HW110964   3.036   3.203   1.778
 3530SOL    HW210965   2.941   3.116   1.679
 3531SOL     OW10966   2.092   3.296   0.538
 3531SOL    HW110967   2.066   3.392   0.538
 3531SOL    HW210968   2.021   3.242   0.583
 3532SOL     OW10969   2.102   2.953   0.886
 3532SOL    HW110970   2.116   2.869   0.938
 3532SOL    HW210971   2.047   3.017   0.941
 3533SOL     OW10972   2.482   3.648   1.439
 3533SOL    HW110973   2.390   3.631   1.474
 3533SOL    HW210974   2.510   3.740   1.465
 3534SOL     OW10975   2.468   2.826   0.123
 3534SOL    HW110976   2.475   2.910   0.069
 3534SOL    HW210977   2.514   2.839   0.211
 3535SOL     OW10978   3.456   1.976   1.480
 3535SOL    HW110979   3.438   2.043   1.408
 3535SOL    HW210980   3.453   2.022   1.569
 3536SOL     OW10981   1.984   2.505   0.563
 3536SOL    HW110982   1.939   2.417   0.580
 3536SOL    HW210983   1.983   2.559   0.647
 3537SOL     OW10984   3.704   3.629   0.359
 3537SOL    HW110985   3.758   3.600   0.439
 3537SOL    HW210986   3.734   3.719   0.330
 3538SOL     OW10987   1.889   3.458   0.117
 3538SOL    HW110988   1.870   3.362   0.138
 3538SOL    HW210989   1.856   3.516   0.192
 3539SOL     OW10990   3.551   2.784   0.612
 3539SOL    HW110991   3.646   2.755   0.620
 3539SOL    HW210992   3.543   2.849   0.537
 3540SOL     OW10993   3.503   2.970   0.432
 3540SOL    HW110994   3.589   2.972   0.380
 3540SOL    HW210995   3.517   3.017   0.520
 3541SOL     OW10996   1.975   2.599   1.597
 3541SOL    HW110997   2.063   2.586   1.642
 3541SOL    HW210998   1.962   2.696   1.575
 3542SOL     OW10999   2.475   3.227   0.726
 3542SOL    HW111000   2.426   3.140   0.735
 3542SOL    HW211001   2.452   3.270   0.639
 3543SOL     OW11002   3.155   3.090   1.423
 3543SOL    HW111003   3.192   3.017   1.365
 3543SOL    HW211004   3.207   3.095   1.508
 3544SOL     OW11005   2.671   1.866   0.502
 3544SOL    HW111006   2.711   1.957   0.493
 3544SOL    HW211007   2.571   1.874   0.508
 3545SOL     OW11008   2.059   2.838   1.264
 3545SOL    HW111009   2.148   2.793   1.250
 3545SOL    HW211010   1.986   2.773   1.245
 3546SOL     OW11011   3.387   2.861   0.190
 3546SOL    HW111012   3.324   2.785   0.203
 3546SOL    HW211013   3.435   2.879   0.276
 3547SOL     OW11014   3.049   3.654   1.616
 3547SOL    HW111015   3.073   3.714   1.540
 3547SOL    HW211016   3.056   3.559   1.586
 3548SOL     OW11017   2.179   2.113   1.801
 3548SOL    HW111018   2.250   2.184   1.807
 3548SOL    HW211019   2.091   2.152   1.829
 3549SOL     OW11020   3.328   3.279   0.953
 3549SOL    HW111021   3.269   3.285   1.033
 3549SOL    HW211022   3.313   3.191   0.907
 3550SOL     OW11023   3.529   3.576   0.572
 3550SOL    HW111024   3.488   3.553   0.484
 3550SOL    HW211025   3.511   3.502   0.637
 3551SOL     OW11026   3.143   2.207   0.944
 3551SOL    HW111027   3.057   2.157   0.931
 3551SOL    HW211028   3.205   2.153   1.000
 3552SOL     OW11029   3.438   3.524   0.307
 3552SOL    HW111030   3.527   3.570   0.310
 3552SOL    HW211031   3.417   3.500   0.212
 3553SOL     OW11032   3.256   2.331   1.674
 3553SOL    HW111033   3.236   2.374   1.762
 3553SOL    HW211034   3.334   2.269   1.683
 3554SOL     OW11035   2.853   2.272   1.242
 3554SOL    HW111036   2.776   2.306   1.296
 3554SOL    HW211037   2.819   2.221   1.163
 3555SOL     OW11038   1.938   2.673   0.789
 3555SOL    HW111039   2.037   2.661   0.798
 3555SOL    HW211040   1.914   2.768   0.810
 3556SOL     OW11041   1.992   3.683   1.571
 3556SOL    HW111042   1.982   3.668   1.670
 3556SOL    HW211043   1.906   3.719   1.535
 3557SOL     OW11044   2.727   2.210   0.195
 3557SOL    HW111045   2.786   2.273   0.146
 3557SOL    HW211046   2.746   2.116   0.166
 3558SOL     OW11047   3.581   2.447   1.831
 3558SOL    HW111048   3.555   2.536   1.795
 3558SOL    HW211049   3.579   2.379   1.758
 3559SOL     OW11050   3.224   3.006   0.545
 3559SOL    HW111051   3.307   2.977   0.497
 3559SOL    HW211052   3.175   3.073   0.489
 3560SOL     OW11053   2.412   2.058   0.885
 3560SOL    HW111054   2.407   2.053   0.985
 3560SOL    HW211055   2.414   2.154   0.856
 3561SOL     OW11056   2.870   3.318   0.477
 3561SOL    HW111057   2.824   3.390   0.425
 3561SOL    HW211058   2.866   3.338   0.575
 3562SOL     OW11059   2.213   3.663   0.853
 3562SOL    HW111060   2.263   3.577   0.859
 3562SOL    HW211061   2.278   3.740   0.850
 3563SOL     OW11062   3.657   2.928   0.873
 3563SOL    HW111063   3.595   2.913   0.797
 3563SOL    HW211064   3.605   2.939   0.958
 3564SOL     OW11065   3.089   3.412   1.506
 3564SOL    HW111066   3.095   3.335   1.570
 3564SOL    HW211067   3.037   3.386   1.426
 3565SOL     OW11068   2.183   2.805   0.242
 3565SOL    HW111069   2.265   2.844   0.200
 3565SOL    HW211070   2.156   2.723   0.193
 3566SOL     OW11071   3.320   2.597   0.728
 3566SOL    HW111072   3.315   2.532   0.803
 3566SOL    HW211073   3.400   2.656   0.741
 3567SOL     OW11074   2.323   3.128   1.727
 3567SOL    HW111075   2.273   3.129   1.641
 3567SOL    HW211076   2.260   3.110   1.803
 3568SOL     OW11077   2.973   3.638   0.237
 3568SOL    HW111078   2.913   3.576   0.287
 3568SOL    HW211079   3.004   3.594   0.152
 3569SOL     OW11080   2.064   2.147   1.498
 3569SOL    HW111081   1.984   2.207   1.485
 3569SOL    HW211082   2.054   2.098   1.584
 3570SOL     OW11083   3.494   3.239   0.081
 3570SOL    HW111084   3.462   3.333   0.071
 3570SOL    HW211085   3.418   3.176   0.069
 3571SOL     OW11086   2.326   3.605   0.323
 3571SOL    HW111087   2.359   3.644   0.409
 3571SOL    HW211088   2.402   3.598   0.258
 3572SOL     OW11089   3.262   1.969   0.426
 3572SOL    HW111090   3.238   1.932   0.336
 3572SOL    HW211091   3.361   1.985   0.430
 3573SOL     OW11092   2.111   3.647   1.241
 3573SOL    HW111093   2.168   3.582   1.291
 3573SOL    HW211094   2.095   3.614   1.148
 3574SOL     OW11095   2.802   3.560   0.904
 3574SOL    HW111096   2.882   3.503   0.925
 3574SOL    HW211097   2.753   3.520   0.827
 3575SOL     OW11098   2.244   2.562   0.480
 3575SOL    HW111099   2.289   2.472   0.477
 3575SOL    HW211100   2.150   2.551   0.513
 3576SOL     OW11101   3.409   2.084   1.729
 3576SOL    HW111102   3.404   2.121   1.821
 3576SOL    HW211103   3.337   2.015   1.717
 3577SOL     OW11104   2.476   1.984   0.117
 3577SOL    HW111105   2.574   1.962   0.124
 3577SOL    HW211106   2.445   1.967   0.024
 3578SOL     OW11107   2.643   2.126   1.749
 3578SOL    HW111108   2.710   2.065   1.792
 3578SOL    HW211109   2.570   2.145   1.814
 3579SOL     OW11110   2.750   3.376   1.195
 3579SOL    HW111111   2.727   3.351   1.101
 3579SOL    HW211112   2.811   3.307   1.234
 3580SOL     OW11113   3.213   2.452   1.433
 3580SOL    HW111114   3.241   2.409   1.518
 3580SOL    HW211115   3.238   2.548   1.434
 3581SOL     OW11116   2.665   3.264   0.924
 3581SOL    HW111117   2.755   3.278   0.882
 3581SOL    HW211118   2.594   3.266   0.853
 3582SOL     OW11119   2.784   2.365   0.899
 3582SOL    HW111120   2.759   2.356   0.803
 3582SOL    HW211121   2.832   2.283   0.930
 3583SOL     OW11122   2.401   1.926   0.512
 3583SOL    HW111123   2.320   1.927   0.570
 3583SOL    HW211124   2.404   2.009   0.457
 3584SOL     OW11125   3.296   3.050   0.041
 3584SOL    HW111126   3.328   2.974   0.098
 3584SOL    HW211127   3.204   3.077   0.071
 3585SOL     OW11128   2.159   1.897   0.171
 3585SOL    HW111129   2.208   1.981   0.150
 3585SOL    HW211130   2.221   1.832   0.216
 3586SOL     OW11131   2.797   2.098   0.480
 3586SOL    HW111132   2.749   2.139   0.402
 3586SOL    HW211133   2.896   2.096   0.461
 3587SOL     OW11134   2.938   2.545   1.464
 3587SOL    HW111135   2.858   2.484   1.467
 3587SOL    HW211136   3.019   2.492   1.440
 3588SOL     OW11137   3.089   3.432   0.793
 3588SOL    HW111138   3.110   3.506   0.728
 3588SOL    HW211139   3.157   3.432   0.866
 3589SOL     OW11140   2.321   3.014   0.741
 3589SOL    HW111141   2.250   2.987   0.806
 3589SOL    HW211142   2.295   2.986   0.648
 3590SOL     OW11143   3.133   3.659   0.591
 3590SOL    HW111144   3.177   3.723   0.527
 3590SOL    HW211145   3.083   3.711   0.661
 3591SOL     OW11146   2.894   2.411   0.016
 3591SOL    HW111147   2.853   2.493  -0.023
 3591SOL    HW211148   2.958   2.437   0.089
 3592SOL     OW11149   1.940   2.418   1.386
 3592SOL    HW111150   2.032   2.417   1.345
 3592SOL    HW211151   1.934   2.492   1.453
 3593SOL     OW11152   2.423   2.084   1.147
 3593SOL    HW111153   2.461   2.000   1.184
 3593SOL    HW211154   2.335   2.103   1.191
 3594SOL     OW11155   2.728   2.316   0.642
 3594SOL    HW111156   2.696   2.388   0.580
 3594SOL    HW211157   2.752   2.235   0.589
 3595SOL     OW11158   2.879   1.901   0.753
 3595SOL    HW111159   2.807   1.906   0.684
 3595SOL    HW211160   2.855   1.832   0.822
 3596SOL     OW11161   3.291   3.035   0.867
 3596SOL    HW111162   3.236   2.951   0.860
 3596SOL    HW211163   3.317   3.064   0.775
 3597SOL     OW11164   3.328   2.452   0.992
 3597SOL    HW111165   3.298   2.357   0.999
 3597SOL    HW211166   3.401   2.468   1.058
 3598SOL     OW11167   3.719   2.695   0.377
 3598SOL    HW111168   3.761   2.631   0.441
 3598SOL    HW211169   3.681   2.644   0.299
 3599SOL     OW11170   2.350   3.247   0.174
 3599SOL    HW111171   2.263   3.232   0.221
 3599SOL    HW211172   2.333   3.273   0.079
 3600SOL     OW11173   3.526   3.142   0.657
 3600SOL    HW111174   3.625   3.150   0.671
 3600SOL    HW211175   3.481   3.226   0.688
 3601SOL     OW11176   3.252   2.437   0.078
 3601SOL    HW111177   3.198   2.416   0.159
 3601SOL    HW211178   3.343   2.396   0.087
 3602SOL     OW11179   2.389   2.118   0.328
 3602SOL    HW111180   2.416   2.059   0.253
 3602SOL    HW211181   2.389   2.213   0.297
 3603SOL     OW11182   3.616   3.085   1.588
 3603SOL    HW111183   3.707   3.046   1.575
 3603SOL    HW211184   3.624   3.181   1.612
 3604SOL     OW11185   2.926   3.209   1.340
 3604SOL    HW111186   2.846   3.186   1.395
 3604SOL    HW211187   3.009   3.183   1.389
 3605SOL     OW11188   3.454   3.491   1.625
 3605SOL    HW111189   3.481   3.525   1.535
 3605SOL    HW211190   3.533   3.453   1.671
 3606SOL     OW11191   2.973   3.057   1.100
 3606SOL    HW111192   2.933   3.101   1.181
 3606SOL    HW211193   2.932   3.094   1.017
 3607SOL     OW11194   3.500   2.961   1.079
 3607SOL    HW111195   3.505   3.042   1.138
 3607SOL    HW211196   3.414   2.963   1.028
 3608SOL     OW11197   2.777   1.951   1.402
 3608SOL    HW111198   2.802   1.931   1.307
 3608SOL    HW211199   2.849   2.007   1.444
 3609SOL     OW11200   2.842   2.978   1.719
 3609SOL    HW111201   2.743   2.984   1.729
 3609SOL    HW211202   2.865   2.898   1.663
 3610SOL     OW11203   2.567   2.912   0.368
 3610SOL    HW111204   2.553   2.919   0.467
 3610SOL    HW211205   2.651   2.861   0.350
 3611SOL     OW11206   2.272   2.675   1.251
 3611SOL    HW111207   2.358   2.687   1.301
 3611SOL    HW211208   2.230   2.588   1.278
 3612SOL     OW11209   3.136   2.248   1.262
 3612SOL    HW111210   3.157   2.322   1.326
 3612SOL    HW211211   3.047   2.265   1.219
 3613SOL     OW11212   1.926   3.426   1.331
 3613SOL    HW111213   1.880   3.508   1.297
 3613SOL    HW211214   2.024   3.445   1.340
 3614SOL     OW11215   2.229   2.962   0.501
 3614SOL    HW111216   2.222   3.045   0.445
 3614SOL    HW211217   2.233   2.882   0.441
 3615SOL     OW11218   2.428   2.399   0.865
 3615SOL    HW111219   2.440   2.465   0.791
 3615SOL    HW211220   2.474   2.433   0.948
 3616SOL     OW11221   3.114   3.210   0.388
 3616SOL    HW111222   3.164   3.287   0.428
 3616SOL    HW211223   3.019   3.212   0.420
 3617SOL     OW11224   3.134   3.307   1.142
 3617SOL    HW111225   3.181   3.320   1.229
 3617SOL    HW211226   3.068   3.233   1.151
 3618SOL     OW11227   3.444   2.501   0.472
 3618SOL    HW111228   3.413   2.562   0.545
 3618SOL    HW211229   3.494   2.553   0.403
 3619SOL     OW11230   2.216   3.372   1.329
 3619SOL    HW111231   2.195   3.328   1.242
 3619SOL    HW211232   2.313   3.398   1.332
 3620SOL     OW11233   2.264   2.613   1.598
 3620SOL    HW111234   2.332   2.668   1.551
 3620SOL    HW211235   2.304   2.525   1.625
 3621SOL     OW11236   3.449   2.641   1.670
 3621SOL    HW111237   3.357   2.679   1.665
 3621SOL    HW211238   3.509   2.688   1.605
 3622SOL     OW11239   2.875   1.967   1.770
 3622SOL    HW111240   2.881   2.052   1.718
 3622SOL    HW211241   2.907   1.891   1.713
 3623SOL     OW11242   2.366   1.912   1.740
 3623SOL    HW111243   2.324   1.855   1.670
 3623SOL    HW211244   2.300   1.981   1.772
 3624SOL     OW11245   3.222   2.724   1.045
 3624SOL    HW111246   3.147   2.724   0.979
 3624SOL    HW211247   3.259   2.632   1.054
 3625SOL     OW11248   3.071   2.387   0.275
 3625SOL    HW111249   3.084   2.303   0.329
 3625SOL    HW211250   3.042   2.461   0.335
 3626SOL     OW11251   2.169   2.075   1.231
 3626SOL    HW111252   2.146   2.112   1.321
 3626SOL    HW211253   2.139   1.980   1.225
 3627SOL     OW11254   1.899   3.172   1.282
 3627SOL    HW111255   1.952   3.123   1.350
 3627SOL    HW211256   1.921   3.270   1.287
 3628SOL     OW11257   3.590   2.797   1.854
 3628SOL    HW111258   3.544   2.790   1.765
 3628SOL    HW211259   3.528   2.841   1.920
 3629SOL     OW11260   2.169   1.925   0.618
 3629SOL    HW111261   2.158   2.019   0.651
 3629SOL    HW211262   2.164   1.862   0.695
 3630SOL     OW11263   3.484   2.229   0.374
 3630SOL    HW111264   3.486   2.153   0.438
 3630SOL    HW211265   3.436   2.306   0.414
 3631SOL     OW11266   2.842   3.435   1.700
 3631SOL    HW111267   2.822   3.479   1.612
 3631SOL    HW211268   2.881   3.344   1.684
 3632SOL     OW11269   3.721   3.380   1.605
 3632SOL    HW111270   3.735   3.407   1.510
 3632SOL    HW211271   3.804   3.402   1.658
 3633SOL     OW11272   2.212   2.760   1.804
 3633SOL    HW111273   2.288   2.804   1.852
 3633SOL    HW211274   2.247   2.713   1.722
 3634SOL     OW11275   3.402   2.136   0.125
 3634SOL    HW111276   3.341   2.061   0.148
 3634SOL    HW211277   3.424   2.188   0.208
 3635SOL     OW11278   3.165   2.700   0.042
 3635SOL    HW111279   3.199   2.607   0.057
 3635SOL    HW211280   3.183   2.727  -0.053
 3636SOL     OW11281   2.930   3.195   0.849
 3636SOL    HW111282   2.937   3.111   0.794
 3636SOL    HW211283   2.992   3.264   0.813
 3637SOL     OW11284   2.181   2.672   0.949
 3637SOL    HW111285   2.274   2.708   0.954
 3637SOL    HW211286   2.175   2.587   1.001
 3638SOL     OW11287   2.201   2.371   1.006
 3638SOL    HW111288   2.149   2.288   0.989
 3638SOL    HW211289   2.278   2.376   0.942
 3639SOL     OW11290   3.000   2.242   1.678
 3639SOL    HW111291   2.955   2.305   1.742
 3639SOL    HW211292   3.093   2.273   1.661
 3640SOL     OW11293   3.022   2.069   1.477
 3640SOL    HW111294   3.022   2.133   1.554
 3640SOL    HW211295   3.050   2.117   1.394
 3641SOL     OW11296   1.870   3.188   0.200
 3641SOL    HW111297   1.777   3.209   0.169
 3641SOL    HW211298   1.880   3.089   0.213
 3642SOL     OW11299   1.950   3.663   0.927
 3642SOL    HW111300   1.908   3.577   0.900
 3642SOL    HW211301   2.044   3.666   0.893
 3643SOL     OW11302   2.366   3.430   0.910
 3643SOL    HW111303   2.432   3.504   0.919
 3643SOL    HW211304   2.410   3.351   0.868
 3644SOL     OW11305   1.902   2.406   1.114
 3644SOL    HW111306   1.987   2.373   1.073
 3644SOL    HW211307   1.915   2.421   1.212
 3645SOL     OW11308   2.051   2.382   1.722
 3645SOL    HW111309   2.110   2.342   1.652
 3645SOL    HW211310   1.993   2.453   1.681
 3646SOL     OW11311   3.231   2.812   1.660
 3646SOL    HW111312   3.270   2.901   1.680
 3646SOL    HW211313   3.241   2.792   1.563
 3647SOL     OW11314   3.519   2.466   1.206
 3647SOL    HW111315   3.481   2.397   1.268
 3647SOL    HW211316   3.601   2.430   1.162
 3648SOL     OW11317   2.114   3.426   1.744
 3648SOL    HW111318   2.084   3.483   1.820
 3648SOL    HW211319   2.107   3.329   1.770
 3649SOL     OW11320   2.533   2.326   1.269
 3649SOL    HW111321   2.499   2.237   1.239
 3649SOL    HW211322   2.559   2.380   1.189
 3650SOL     OW11323   2.792   3.540   1.465
 3650SOL    HW111324   2.768   3.522   1.370
 3650SOL    HW211325   2.822   3.634   1.475
 3651SOL     OW11326   2.335   2.362   0.191
 3651SOL    HW111327   2.396   2.442   0.195
 3651SOL    HW211328   2.240   2.393   0.198
 3652SOL     OW11329   2.021   2.999   1.466
 3652SOL    HW111330   2.043   2.938   1.542
 3652SOL    HW211331   2.031   2.950   1.380
 3653SOL     OW11332   3.209   2.921   1.234
 3653SOL    HW111333   3.233   2.858   1.160
 3653SOL    HW211334   3.119   2.961   1.216
 3654SOL     OW11335   3.164   2.717   0.309
 3654SOL    HW111336   3.078   2.686   0.351
 3654SOL    HW211337   3.160   2.703   0.210
 3655SOL     OW11338   3.621   3.609   1.154
 3655SOL    HW111339   3.682   3.639   1.081
 3655SOL    HW211340   3.583   3.520   1.132
 3656SOL     OW11341   3.114   3.593   1.128
 3656SOL    HW111342   3.198   3.598   1.074
 3656SOL    HW211343   3.091   3.497   1.146
 3657SOL     OW11344   1.945   3.120   1.022
 3657SOL    HW111345   1.940   3.119   1.122
 3657SOL    HW211346   1.862   3.079   0.984
 3658SOL     OW11347   2.550   3.524   1.716
 3658SOL    HW111348   2.494   3.605   1.725
 3658SOL    HW211349   2.602   3.528   1.630
 3659SOL     OW11350   2.765   1.948   0.133
 3659SOL    HW111351   2.816   1.949   0.047
 3659SOL    HW211352   2.821   1.906   0.204
 3660SOL     OW11353   3.588   1.997   0.523
 3660SOL    HW111354   3.661   1.980   0.456
 3660SOL    HW211355   3.557   1.910   0.561
 3661SOL     OW11356   3.250   3.435   0.477
 3661SOL    HW111357   3.317   3.447   0.403
 3661SOL    HW211358   3.210   3.524   0.500
 3662SOL     OW11359   1.992   3.656   1.851
 3662SOL    HW111360   1.951   3.582   1.904
 3662SOL    HW211361   2.056   3.707   1.909
 3663SOL     OW11362   3.142   2.789   0.672
 3663SOL    HW111363   3.202   2.708   0.674
 3663SOL    HW211364   3.182   2.858   0.612
 3664SOL     OW11365   2.692   3.135   1.422
 3664SOL    HW111366   2.687   3.168   1.517
 3664SOL    HW211367   2.606   3.154   1.376
 3665SOL     OW11368   2.534   3.478   0.154
 3665SOL    HW111369   2.543   3.488   0.055
 3665SOL    HW211370   2.494   3.389   0.175
 3666SOL     OW11371   3.512   3.582   1.394
 3666SOL    HW111372   3.565   3.592   1.310
 3666SOL    HW211373   3.485   3.672   1.428
 3667SOL     OW11374   3.703   2.037   0.963
 3667SOL    HW111375   3.742   1.952   0.927
 3667SOL    HW211376   3.605   2.039   0.944
 3668SOL     OW11377   2.125   2.188   0.720
 3668SOL    HW111378   2.046   2.239   0.686
 3668SOL    HW211379   2.116   2.173   0.818
 3669SOL     OW11380   3.056   3.474   0.031
 3669SOL    HW111381   3.062   3.381   0.068
 3669SOL    HW211382   2.997   3.474  -0.049
 3670SOL     OW11383   3.366   3.469   0.044
 3670SOL    HW111384   3.274   3.506   0.051
 3670SOL    HW211385   3.404   3.489  -0.046
 3671SOL     OW11386   2.234   3.150   1.490
 3671SOL    HW111387   2.221   3.243   1.456
 3671SOL    HW211388   2.150   3.098   1.477
 3672SOL     OW11389   3.476   3.154   1.289
 3672SOL    HW111390   3.536   3.157   1.369
 3672SOL    HW211391   3.401   3.218   1.302
 3673SOL     OW11392   2.901   2.960   0.696
 3673SOL    HW111393   2.831   2.913   0.750
 3673SOL    HW211394   2.960   2.892   0.653
 3674SOL     OW11395   2.876   2.098   0.971
 3674SOL    HW111396   2.868   2.062   0.878
 3674SOL    HW211397   2.874   2.022   1.036
 3675SOL     OW11398   2.452   3.349   0.491
 3675SOL    HW111399   2.494   3.291   0.421
 3675SOL    HW211400   2.408   3.428   0.447
 3676SOL     OW11401   3.571   2.247   1.381
 3676SOL    HW111402   3.644   2.316   1.385
 3676SOL    HW211403   3.599   2.172   1.322
 3677SOL     OW11404   2.117   3.210   0.290
 3677SOL    HW111405   2.021   3.211   0.263
 3677SOL    HW211406   2.129   3.263   0.374
 3678SOL     OW11407   1.967   2.875   1.726
 3678SOL    HW111408   1.890   2.842   1.780
 3678SOL    HW211409   2.052   2.845   1.768
 3679SOL     OW11410   2.534   2.065   1.489
 3679SOL    HW111411   2.624   2.049   1.449
 3679SOL    HW211412   2.542   2.070   1.588
 3680SOL     OW11413   1.937   2.207   0.033
 3680SOL    HW111414   1.845   2.179   0.004
 3680SOL    HW211415   1.968   2.284  -0.023
 3681SOL     OW11416   3.302   2.718   1.398
 3681SOL    HW111417   3.245   2.770   1.335
 3681SOL    HW211418   3.398   2.730   1.374
 3682SOL     OW11419   1.934   2.028   0.318
 3682SOL    HW111420   1.917   2.111   0.264
 3682SOL    HW211421   2.024   1.991   0.296
 3683SOL     OW11422   3.045   3.197   0.119
 3683SOL    HW111423   2.946   3.186   0.121
 3683SOL    HW211424   3.079   3.212   0.212
 3684SOL     OW11425   3.355   3.629   0.959
 3684SOL    HW111426   3.388   3.693   0.890
 3684SOL    HW211427   3.421   3.623   1.034
 3685SOL     OW11428   3.312   3.082   1.633
 3685SOL    HW111429   3.303   3.072   1.732
 3685SOL    HW211430   3.408   3.075   1.607
 3686SOL     OW11431   2.252   3.603   1.560
 3686SOL    HW111432   2.161   3.644   1.558
 3686SOL    HW211433   2.245   3.509   1.592
 3687SOL     OW11434   3.536   2.745   1.254
 3687SOL    HW111435   3.509   2.656   1.217
 3687SOL    HW211436   3.537   2.813   1.181
 3688SOL     OW11437   3.087   2.187   0.449
 3688SOL    HW111438   3.152   2.113   0.438
 3688SOL    HW211439   3.107   2.237   0.533
 3689SOL     OW11440   3.639   2.204   1.642
 3689SOL    HW111441   3.622   2.235   1.548
 3689SOL    HW211442   3.555   2.167   1.680
 3690SOL     OW11443   3.592   2.796   1.517
 3690SOL    HW111444   3.630   2.887   1.532
 3690SOL    HW211445   3.584   2.779   1.418
 3691SOL     OW11446   2.721   3.236   0.016
 3691SOL    HW111447   2.675   3.251   0.104
 3691SOL    HW211448   2.765   3.321  -0.014
 3692SOL     OW11449   2.523   3.652   0.953
 3692SOL    HW111450   2.477   3.740   0.940
 3692SOL    HW211451   2.622   3.664   0.946
 3693SOL     OW11452   2.945   2.846   0.087
 3693SOL    HW111453   2.922   2.899   0.005
 3693SOL    HW211454   3.026   2.790   0.068
 3694SOL     OW11455   3.723   3.431   0.851
 3694SOL    HW111456   3.652   3.419   0.781
 3694SOL    HW211457   3.724   3.352   0.911
 3695SOL     OW11458   2.083   3.176   1.844
 3695SOL    HW111459   2.018   3.103   1.823
 3695SOL    HW211460   2.087   3.190   1.942
 3696SOL     OW11461   1.941   3.102   0.653
 3696SOL    HW111462   1.940   3.055   0.741
 3696SOL    HW211463   2.023   3.074   0.602
 3697SOL     OW11464   2.534   3.253   1.624
 3697SOL    HW111465   2.456   3.203   1.662
 3697SOL    HW211466   2.531   3.348   1.655
 3698SOL     OW11467   3.686   2.054   1.227
 3698SOL    HW111468   3.682   1.964   1.271
 3698SOL    HW211469   3.689   2.043   1.128
 3699SOL     OW11470   2.290   2.286   0.520
 3699SOL    HW111471   2.320   2.214   0.458
 3699SOL    HW211472   2.251   2.246   0.603
 3700SOL     OW11473   3.567   3.349   1.104
 3700SOL    HW111474   3.474   3.324   1.077
 3700SOL    HW211475   3.593   3.299   1.186
 3701SOL     OW11476   2.179   2.409   1.280
 3701SOL    HW111477   2.217   2.350   1.352
 3701SOL    HW211478   2.219   2.383   1.192
 3702SOL     OW11479   2.674   3.448   0.687
 3702SOL    HW111480   2.706   3.458   0.593
 3702SOL    HW211481   2.595   3.386   0.689
 3703SOL     OW11482   3.286   2.076   1.112
 3703SOL    HW111483   3.338   2.011   1.167
 3703SOL    HW211484   3.237   2.139   1.173
 3704SOL     OW11485   2.863   1.896   1.154
 3704SOL    HW111486   2.800   1.824   1.123
 3704SOL    HW211487   2.956   1.860   1.154
 3705SOL     OW11488   2.632   3.192   0.301
 3705SOL    HW111489   2.586   3.105   0.318
 3705SOL    HW211490   2.723   3.189   0.342
 3706SOL     OW11491   2.480   3.429   1.284
 3706SOL    HW111492   2.475   3.511   1.341
 3706SOL    HW211493   2.569   3.426   1.239
 3707SOL     OW11494   3.214   1.914   0.168
 3707SOL    HW111495   3.249   1.873   0.084
 3707SOL    HW211496   3.124   1.876   0.188
 3708SOL     OW11497   3.162   2.315   0.691
 3708SOL    HW111498   3.103   2.395   0.695
 3708SOL    HW211499   3.177   2.280   0.784
 3709SOL     OW11500   3.455   2.083   0.882
 3709SOL    HW111501   3.371   2.082   0.936
 3709SOL    HW211502   3.457   2.166   0.826
 3710SOL     OW11503   1.901   2.939   0.300
 3710SOL    HW111504   2.000   2.928   0.291
 3710SOL    HW211505   1.861   2.853   0.332
 3711SOL     OW11506   2.737   3.508   0.337
 3711SOL    HW111507   2.660   3.473   0.283
 3711SOL    HW211508   2.705   3.579   0.399
 3712SOL     OW11509   2.092   2.490   1.975
 3712SOL    HW111510   1.999   2.488   2.012
 3712SOL    HW211511   2.093   2.451   1.883
 3713SOL     OW11512   2.087   2.137   2.858
 3713SOL    HW111513   2.122   2.120   2.950
 3713SOL    HW211514   1.999   2.092   2.846
 3714SOL     OW11515   1.881   2.230   2.509
 3714SOL    HW111516   1.799   2.273   2.548
 3714SOL    HW211517   1.853   2.157   2.446
 3715SOL     OW11518   2.431   3.137   3.027
 3715SOL    HW111519   2.338   3.130   2.990
 3715SOL    HW211520   2.442   3.226   3.071
 3716SOL     OW11521   3.417   3.373   2.565
 3716SOL    HW111522   3.360   3.357   2.646
 3716SOL    HW211523   3.358   3.383   2.485
 3717SOL     OW11524   2.997   2.565   2.579
 3717SOL    HW111525   3.054   2.643   2.554
 3717SOL    HW211526   2.937   2.591   2.655
 3718SOL     OW11527   3.617   2.469   2.093
 3718SOL    HW111528   3.605   2.456   1.994
 3718SOL    HW211529   3.587   2.388   2.142
 3719SOL     OW11530   2.630   3.006   2.885
 3719SOL    HW111531   2.552   3.023   2.945
 3719SOL    HW211532   2.664   3.093   2.849
 3720SOL     OW11533   2.548   3.023   3.665
 3720SOL    HW111534   2.608   3.102   3.679
 3720SOL    HW211535   2.462   3.054   3.624
 3721SOL     OW11536   2.197   3.297   2.923
 3721SOL    HW111537   2.119   3.266   2.870
 3721SOL    HW211538   2.255   3.355   2.866
 3722SOL     OW11539   3.322   3.367   3.201
 3722SOL    HW111540   3.346   3.461   3.227
 3722SOL    HW211541   3.306   3.313   3.283
 3723SOL     OW11542   2.300   2.254   3.361
 3723SOL    HW111543   2.382   2.198   3.370
 3723SOL    HW211544   2.219   2.196   3.365
 3724SOL     OW11545   3.465   2.309   2.599
 3724SOL    HW111546   3.391   2.355   2.549
 3724SOL    HW211547   3.516   2.377   2.652
 3725SOL     OW11548   2.093   3.575   2.345
 3725SOL    HW111549   2.127   3.652   2.399
 3725SOL    HW211550   2.137   3.575   2.255
 3726SOL     OW11551   2.092   3.296   2.400
 3726SOL    HW111552   2.066   3.392   2.400
 3726SOL    HW211553   2.021   3.242   2.445
 3727SOL     OW11554   2.102   2.953   2.748
 3727SOL    HW111555   2.116   2.869   2.800
 3727SOL    HW211556   2.047   3.017   2.803
 3728SOL     OW11557   2.482   3.648   3.301
 3728SOL    HW111558   2.390   3.631   3.336
 3728SOL    HW211559   2.510   3.740   3.327
 3729SOL     OW11560   2.468   2.826   1.985
 3729SOL    HW111561   2.475   2.910   1.931
 3729SOL    HW211562   2.514   2.839   2.073
 3730SOL     OW11563   3.456   1.976   3.342
 3730SOL    HW111564   3.438   2.043   3.270
 3730SOL    HW211565   3.453   2.022   3.431
 3731SOL     OW11566   1.984   2.505   2.425
 3731SOL    HW111567   1.939   2.417   2.442
 3731SOL    HW211568   1.983   2.559   2.509
 3732SOL     OW11569   3.704   3.629   2.221
 3732SOL    HW111570   3.758   3.600   2.301
 3732SOL    HW211571   3.734   3.719   2.192
 3733SOL     OW11572   1.889   3.458   1.979
 3733SOL    HW111573   1.870   3.362   2.000
 3733SOL    HW211574   1.856   3.516   2.054
 3734SOL     OW11575   3.551   2.784   2.474
 3734SOL    HW111576   3.646   2.755   2.482
 3734SOL    HW211577   3.543   2.849   2.399
 3735SOL     OW11578   3.503   2.970   2.294
 3735SOL    HW111579   3.589   2.972   2.242
 3735SOL    HW211580   3.517   3.017   2.382
 3736SOL     OW11581   1.975   2.599   3.459
 3736SOL    HW111582   2.063   2.586   3.504
 3736SOL    HW211583   1.962   2.696   3.437
 3737SOL     OW11584   2.475   3.227   2.588
 3737SOL    HW111585   2.426   3.140   2.597
 3737SOL    HW211586   2.452   3.270   2.501
 3738SOL     OW11587   3.155   3.090   3.285
 3738SOL    HW111588   3.192   3.017   3.227
 3738SOL    HW211589   3.207   3.095   3.370
 3739SOL     OW11590   2.671   1.866   2.364
 3739SOL    HW111591   2.711   1.957   2.355
 3739SOL    HW211592   2.571   1.874   2.370
 3740SOL     OW11593   2.059   2.838   3.126
 3740SOL    HW111594   2.148   2.793   3.112
 3740SOL    HW211595   1.986   2.773   3.107
 3741SOL     OW11596   3.387   2.861   2.052
 3741SOL    HW111597   3.324   2.785   2.065
 3741SOL    HW211598   3.435   2.879   2.138
 3742SOL     OW11599   3.049   3.654   3.478
 3742SOL    HW111600   3.073   3.714   3.402
 3742SOL    HW211601   3.056   3.559   3.448
 3743SOL     OW11602   3.328   3.279   2.815
 3743SOL    HW111603   3.269   3.285   2.895
 3743SOL    HW211604   3.313   3.191   2.769
 3744SOL     OW11605   3.529   3.576   2.434
 3744SOL    HW111606   3.488   3.553   2.346
 3744SOL    HW211607   3.511   3.502   2.499
 3745SOL     OW11608   3.143   2.207   2.806
 3745SOL    HW111609   3.057   2.157   2.793
 3745SOL    HW211610   3.205   2.153   2.862
 3746SOL     OW11611   3.438   3.524   2.169
 3746SOL    HW111612   3.527   3.570   2.172
 3746SOL    HW211613   3.417   3.500   2.074
 3747SOL     OW11614   3.256   2.331   3.536
 3747SOL    HW111615   3.236   2.374   3.624
 3747SOL    HW211616   3.334   2.269   3.545
 3748SOL     OW11617   2.853   2.272   3.104
 3748SOL    HW111618   2.776   2.306   3.158
 3748SOL    HW211619   2.819   2.221   3.025
 3749SOL     OW11620   1.938   2.673   2.651
 3749SOL    HW111621   2.037   2.661   2.660
 3749SOL    HW211622   1.914   2.768   2.672
 3750SOL     OW11623   1.992   3.683   3.433
 3750SOL    HW111624   1.982   3.668   3.532
 3750SOL    HW211625   1.906   3.719   3.397
 3751SOL     OW11626   2.727   2.210   2.057
 3751SOL    HW111627   2.786   2.273   2.008
 3751SOL    HW211628   2.746   2.116   2.028
 3752SOL     OW11629   3.581   2.447   3.693
 3752SOL    HW111630   3.555   2.536   3.657
 3752SOL    HW211631   3.579   2.379   3.620
 3753SOL     OW11632   3.224   3.006   2.407
 3753SOL    HW111633   3.307   2.977   2.359
 3753SOL    HW211634   3.175   3.073   2.351
 3754SOL     OW11635   2.412   2.058   2.747
 3754SOL    HW111636   2.407   2.053   2.847
 3754SOL    HW211637   2.414   2.154   2.718
 3755SOL     OW11638   2.870   3.318   2.339
 3755SOL    HW111639   2.824   3.390   2.287
 3755SOL    HW211640   2.866   3.338   2.437
 3756SOL     OW11641   2.213   3.663   2.715
 3756SOL    HW111642   2.263   3.577   2.721
 3756SOL    HW211643   2.278   3.740   2.712
 3757SOL     OW11644   3.657   2.928   2.735
 3757SOL    HW111645   3.595   2.913   2.659
 3757SOL    HW211646   3.605   2.939   2.820
 3758SOL     OW11647   3.089   3.412   3.368
 3758SOL    HW111648   3.095   3.335   3.432
 3758SOL    HW211649   3.037   3.386   3.288
 3759SOL     OW11650   2.183   2.805   2.104
 3759SOL    HW111651   2.265   2.844   2.062
 3759SOL    HW211652   2.156   2.723   2.055
 3760SOL     OW11653   3.320   2.597   2.590
 3760SOL    HW111654   3.315   2.532   2.665
 3760SOL    HW211655   3.400   2.656   2.603
 3761SOL     OW11656   2.323   3.128   3.589
 3761SOL    HW111657   2.273   3.129   3.503
 3761SOL    HW211658   2.260   3.110   3.665
 3762SOL     OW11659   2.973   3.638   2.099
 3762SOL    HW111660   2.913   3.576   2.149
 3762SOL    HW211661   3.004   3.594   2.014
 3763SOL     OW11662   2.064   2.147   3.360
 3763SOL    HW111663   1.984   2.207   3.347
 3763SOL    HW211664   2.054   2.098   3.446
 3764SOL     OW11665   3.494   3.239   1.943
 3764SOL    HW111666   3.462   3.333   1.933
 3764SOL    HW211667   3.418   3.176   1.931
 3765SOL     OW11668   2.326   3.605   2.185
 3765SOL    HW111669   2.359   3.644   2.271
 3765SOL    HW211670   2.402   3.598   2.120
 3766SOL     OW11671   3.262   1.969   2.288
 3766SOL    HW111672   3.238   1.932   2.198
 3766SOL    HW211673   3.361   1.985   2.292
 3767SOL     OW11674   2.111   3.647   3.103
 3767SOL    HW111675   2.168   3.582   3.153
 3767SOL    HW211676   2.095   3.614   3.010
 3768SOL     OW11677   2.802   3.560   2.766
 3768SOL    HW111678   2.882   3.503   2.787
 3768SOL    HW211679   2.753   3.520   2.689
 3769SOL     OW11680   2.244   2.562   2.342
 3769SOL    HW111681   2.289   2.472   2.339
 3769SOL    HW211682   2.150   2.551   2.375
 3770SOL     OW11683   3.409   2.084   3.591
 3770SOL    HW111684   3.404   2.121   3.683
 3770SOL    HW211685   3.337   2.015   3.579
 3771SOL     OW11686   2.476   1.984   1.979
 3771SOL    HW111687   2.574   1.962   1.986
 3771SOL    HW211688   2.445   1.967   1.886
 3772SOL     OW11689   2.643   2.126   3.611
 3772SOL    HW111690   2.710   2.065   3.654
 3772SOL    HW211691   2.570   2.145   3.676
 3773SOL     OW11692   2.750   3.376   3.057
 3773SOL    HW111693   2.727   3.351   2.963
 3773SOL    HW211694   2.811   3.307   3.096
 3774SOL     OW11695   3.213   2.452   3.295
 3774SOL    HW111696   3.241   2.409   3.380
 3774SOL    HW211697   3.238   2.548   3.296
 3775SOL     OW11698   2.665   3.264   2.786
 3775SOL    HW111699   2.755   3.278   2.744
 3775SOL    HW211700   2.594   3.266   2.715
 3776SOL     OW11701   2.784   2.365   2.761
 3776SOL    HW111702   2.759   2.356   2.665
 3776SOL    HW211703   2.832   2.283   2.792
 3777SOL     OW11704   2.401   1.926   2.374
 3777SOL    HW111705   2.320   1.927   2.432
 3777SOL    HW211706   2.404   2.009   2.319
 3778SOL     OW11707   3.296   3.050   1.903
 3778SOL    HW111708   3.328   2.974   1.960
 3778SOL    HW211709   3.204   3.077   1.933
 3779SOL     OW11710   2.159   1.897   2.033
 3779SOL    HW111711   2.208   1.981   2.012
 3779SOL    HW211712   2.221   1.832   2.078
 3780SOL     OW11713   2.797   2.098   2.342
 3780SOL    HW111714   2.749   2.139   2.264
 3780SOL    HW211715   2.896   2.096   2.323
 3781SOL     OW11716   2.938   2.545   3.326
 3781SOL    HW111717   2.858   2.484   3.329
 3781SOL    HW211718   3.019   2.492   3.302
 3782SOL     OW11719   3.089   3.432   2.655
 3782SOL    HW111720   3.110   3.506   2.590
 3782SOL    HW211721   3.157   3.432   2.728
 3783SOL     OW11722   2.321   3.014   2.603
 3783SOL    HW111723   2.250   2.987   2.668
 3783SOL    HW211724   2.295   2.986   2.510
 3784SOL     OW11725   3.133   3.659   2.453
 3784SOL    HW111726   3.177   3.723   2.389
 3784SOL    HW211727   3.083   3.711   2.523
 3785SOL     OW11728   2.894   2.411   1.878
 3785SOL    HW111729   2.853   2.493   1.839
 3785SOL    HW211730   2.958   2.437   1.951
 3786SOL     OW11731   1.940   2.418   3.248
 3786SOL    HW111732   2.032   2.417   3.207
 3786SOL    HW211733   1.934   2.492   3.315
 3787SOL     OW11734   2.423   2.084   3.009
 3787SOL    HW111735   2.461   2.000   3.046
 3787SOL    HW211736   2.335   2.103   3.053
 3788SOL     OW11737   2.728   2.316   2.504
 3788SOL    HW111738   2.696   2.388   2.442
 3788SOL    HW211739   2.752   2.235   2.451
 3789SOL     OW11740   2.879   1.901   2.615
 3789SOL    HW111741   2.807   1.906   2.546
 3789SOL    HW211742   2.855   1.832   2.684
 3790SOL     OW11743   3.291   3.035   2.729
 3790SOL    HW111744   3.236   2.951   2.722
 3790SOL    HW211745   3.317   3.064   2.637
 3791SOL     OW11746   3.328   2.452   2.854
 3791SOL    HW111747   3.298   2.357   2.861
 3791SOL    HW211748   3.401   2.468   2.920
 3792SOL     OW11749   3.719   2.695   2.239
 3792SOL    HW111750   3.761   2.631   2.303
 3792SOL    HW211751   3.681   2.644   2.161
 3793SOL     OW11752   2.350   3.247   2.036
 3793SOL    HW111753   2.263   3.232   2.083
 3793SOL    HW211754   2.333   3.273   1.941
 3794SOL     OW11755   3.526   3.142   2.519
 3794SOL    HW111756   3.625   3.150   2.533
 3794SOL    HW211757   3.481   3.226   2.550
 3795SOL     OW11758   3.252   2.437   1.940
 3795SOL    HW111759   3.198   2.416   2.021
 3795SOL    HW211760   3.343   2.396   1.949
 3796SOL     OW11761   2.389   2.118   2.190
 3796SOL    HW111762   2.416   2.059   2.115
 3796SOL    HW211763   2.389   2.213   2.159
 3797SOL     OW11764   3.616   3.085   3.450
 3797SOL    HW111765   3.707   3.046   3.437
 3797SOL    HW211766   3.624   3.181   3.474
 3798SOL     OW11767   2.926   3.209   3.202
 3798SOL    HW111768   2.846   3.186   3.257
 3798SOL    HW211769   3.009   3.183   3.251
 3799SOL     OW11770   3.454   3.491   3.487
 3799SOL    HW111771   3.481   3.525   3.397
 3799SOL    HW211772   3.533   3.453   3.533
 3800SOL     OW11773   2.973   3.057   2.962
 3800SOL    HW111774   2.933   3.101   3.043
 3800SOL    HW211775   2.932   3.094   2.879
 3801SOL     OW11776   3.500   2.961   2.941
 3801SOL    HW111777   3.505   3.042   3.000
 3801SOL    HW211778   3.414   2.963   2.890
 3802SOL     OW11779   2.777   1.951   3.264
 3802SOL    HW111780   2.802   1.931   3.169
 3802SOL    HW211781   2.849   2.007   3.306
 3803SOL     OW11782   2.842   2.978   3.581
 3803SOL    HW111783   2.743   2.984   3.591
 3803SOL    HW211784   2.865   2.898   3.525
 3804SOL     OW11785   2.272   2.675   3.113
 3804SOL    HW111786   2.358   2.687   3.163
 3804SOL    HW211787   2.230   2.588   3.140
 3805SOL     OW11788   3.136   2.248   3.124
 3805SOL    HW111789   3.157   2.322   3.188
 3805SOL    HW211790   3.047   2.265   3.081
 3806SOL     OW11791   1.926   3.426   3.193
 3806SOL    HW111792   1.880   3.508   3.159
 3806SOL    HW211793   2.024   3.445   3.202
 3807SOL     OW11794   2.229   2.962   2.363
 3807SOL    HW111795   2.222   3.045   2.307
 3807SOL    HW211796   2.233   2.882   2.303
 3808SOL     OW11797   2.428   2.399   2.727
 3808SOL    HW111798   2.440   2.465   2.653
 3808SOL    HW211799   2.474   2.433   2.810
 3809SOL     OW11800   3.114   3.210   2.250
 3809SOL    HW111801   3.164   3.287   2.290
 3809SOL    HW211802   3.019   3.212   2.282
 3810SOL     OW11803   3.134   3.307   3.004
 3810SOL    HW111804   3.181   3.320   3.091
 3810SOL    HW211805   3.068   3.233   3.013
 3811SOL     OW11806   3.444   2.501   2.334
 3811SOL    HW111807   3.413   2.562   2.407
 3811SOL    HW211808   3.494   2.553   2.265
 3812SOL     OW11809   2.216   3.372   3.191
 3812SOL    HW111810   2.195   3.328   3.104
 3812SOL    HW211811   2.313   3.398   3.194
 3813SOL     OW11812   2.264   2.613   3.460
 3813SOL    HW111813   2.332   2.668   3.413
 3813SOL    HW211814   2.304   2.525   3.487
 3814SOL     OW11815   3.449   2.641   3.532
 3814SOL    HW111816   3.357   2.679   3.527
 3814SOL    HW211817   3.509   2.688   3.467
 3815SOL     OW11818   2.875   1.967   3.632
 3815SOL    HW111819   2.881   2.052   3.580
 3815SOL    HW211820   2.907   1.891   3.575
 3816SOL     OW11821   2.366   1.912   3.602
 3816SOL    HW111822   2.324   1.855   3.532
 3816SOL    HW211823   2.300   1.981   3.634
 3817SOL     OW11824   3.222   2.724   2.907
 3817SOL    HW111825   3.147   2.724   2.841
 3817SOL    HW211826   3.259   2.632   2.916
 3818SOL     OW11827   3.071   2.387   2.137
 3818SOL    HW111828   3.084   2.303   2.191
 3818SOL    HW211829   3.042   2.461   2.197
 3819SOL     OW11830   2.169   2.075   3.093
 3819SOL    HW111831   2.146   2.112   3.183
 3819SOL    HW211832   2.139   1.980   3.087
 3820SOL     OW11833   1.899   3.172   3.144
 3820SOL    HW111834   1.952   3.123   3.212
 3820SOL    HW211835   1.921   3.270   3.149
 3821SOL     OW11836   3.590   2.797   3.716
 3821SOL    HW111837   3.544   2.790   3.627
 3821SOL    HW211838   3.528   2.841   3.782
 3822SOL     OW11839   2.169   1.925   2.480
 3822SOL    HW111840   2.158   2.019   2.513
 3822SOL    HW211841   2.164   1.862   2.557
 3823SOL     OW11842   3.484   2.229   2.236
 3823SOL    HW111843   3.486   2.153   2.300
 3823SOL    HW211844   3.436   2.306   2.276
 3824SOL     OW11845   2.842   3.435   3.562
 3824SOL    HW111846   2.822   3.479   3.474
 3824SOL    HW211847   2.881   3.344   3.546
 3825SOL     OW11848   3.721   3.380   3.467
 3825SOL    HW111849   3.735   3.407   3.372
 3825SOL    HW211850   3.804   3.402   3.520
 3826SOL     OW11851   2.212   2.760   3.666
 3826SOL    HW111852   2.288   2.804   3.714
 3826SOL    HW211853   2.247   2.713   3.584
 3827SOL     OW11854   3.402   2.136   1.987
 3827SOL    HW111855   3.341   2.061   2.010
 3827SOL    HW211856   3.424   2.188   2.070
 3828SOL     OW11857   3.165   2.700   1.904
 3828SOL    HW111858   3.199   2.607   1.919
 3828SOL    HW211859   3.183   2.727   1.809
 3829SOL     OW11860   2.930   3.195   2.711
 3829SOL    HW111861   2.937   3.111   2.656
 3829SOL    HW211862   2.992   3.264   2.675
 3830SOL     OW11863   2.181   2.672   2.811
 3830SOL    HW111864   2.274   2.708   2.816
 3830SOL    HW211865   2.175   2.587   2.863
 3831SOL     OW11866   2.201   2.371   2.868
 3831SOL    HW111867   2.149   2.288   2.851
 3831SOL    HW211868   2.278   2.376   2.804
 3832SOL     OW11869   3.000   2.242   3.540
 3832SOL    HW111870   2.955   2.305   3.604
 3832SOL    HW211871   3.093   2.273   3.523
 3833SOL     OW11872   3.022   2.069   3.339
 3833SOL    HW111873   3.022   2.133   3.416
 3833SOL    HW211874   3.050   2.117   3.256
 3834SOL     OW11875   1.870   3.188   2.062
 3834SOL    HW111876   1.777   3.209   2.031
 3834SOL    HW211877   1.880   3.089   2.075
 3835SOL     OW11878   1.950   3.663   2.789
 3835SOL    HW111879   1.908   3.577   2.762
 3835SOL    HW211880   2.044   3.666   2.755
 3836SOL     OW11881   2.366   3.430   2.772
 3836SOL    HW111882   2.432   3.504   2.781
 3836SOL    HW211883   2.410   3.351   2.730
 3837SOL     OW11884   1.902   2.406   2.976
 3837SOL    HW111885   1.987   2.373   2.935
 3837SOL    HW211886   1.915   2.421   3.074
 3838SOL     OW11887   3.231   2.812   3.522
 3838SOL    HW111888   3.270   2.901   3.542
 3838SOL    HW211889   3.241   2.792   3.425
 3839SOL     OW11890   2.677   2.434   2.187
 3839SOL    HW111891   2.684   2.345   2.141
 3839SOL    HW211892   2.583   2.468   2.179
 3840SOL     OW11893   3.519   2.466   3.068
 3840SOL    HW111894   3.481   2.397   3.130
 3840SOL    HW211895   3.601   2.430   3.024
 3841SOL     OW11896   2.114   3.426   3.606
 3841SOL    HW111897   2.084   3.483   3.682
 3841SOL    HW211898   2.107   3.329   3.632
 3842SOL     OW11899   2.533   2.326   3.131
 3842SOL    HW111900   2.499   2.237   3.101
 3842SOL    HW211901   2.559   2.380   3.051
 3843SOL     OW11902   2.792   3.540   3.327
 3843SOL    HW111903   2.768   3.522   3.232
 3843SOL    HW211904   2.822   3.634   3.337
 3844SOL     OW11905   2.335   2.362   2.053
 3844SOL    HW111906   2.396   2.442   2.057
 3844SOL    HW211907   2.240   2.393   2.060
 3845SOL     OW11908   2.021   2.999   3.328
 3845SOL    HW111909   2.043   2.938   3.404
 3845SOL    HW211910   2.031   2.950   3.242
 3846SOL     OW11911   3.209   2.921   3.096
 3846SOL    HW111912   3.233   2.858   3.022
 3846SOL    HW211913   3.119   2.961   3.078
 3847SOL     OW11914   3.164   2.717   2.171
 3847SOL    HW111915   3.078   2.686   2.213
 3847SOL    HW211916   3.160   2.703   2.072
 3848SOL     OW11917   3.621   3.609   3.016
 3848SOL    HW111918   3.682   3.639   2.943
 3848SOL    HW211919   3.583   3.520   2.994
 3849SOL     OW11920   3.114   3.593   2.990
 3849SOL    HW111921   3.198   3.598   2.936
 3849SOL    HW211922   3.091   3.497   3.008
 3850SOL     OW11923   1.945   3.120   2.884
 3850SOL    HW111924   1.940   3.119   2.984
 3850SOL    HW211925   1.862   3.079   2.846
 3851SOL     OW11926   2.550   3.524   3.578
 3851SOL    HW111927   2.494   3.605   3.587
 3851SOL    HW211928   2.602   3.528   3.492
 3852SOL     OW11929   3.588   1.997   2.385
 3852SOL    HW111930   3.661   1.980   2.318
 3852SOL    HW211931   3.557   1.910   2.423
 3853SOL     OW11932   3.250   3.435   2.339
 3853SOL    HW111933   3.317   3.447   2.265
 3853SOL    HW211934   3.210   3.524   2.362
 3854SOL     OW11935   1.992   3.656   3.713
 3854SOL    HW111936   1.951   3.582   3.766
 3854SOL    HW211937   2.056   3.707   3.771
 3855SOL     OW11938   3.142   2.789   2.534
 3855SOL    HW111939   3.202   2.708   2.536
 3855SOL    HW211940   3.182   2.858   2.474
 3856SOL     OW11941   2.692   3.135   3.284
 3856SOL    HW111942   2.687   3.168   3.379
 3856SOL    HW211943   2.606   3.154   3.238
 3857SOL     OW11944   2.534   3.478   2.016
 3857SOL    HW111945   2.543   3.488   1.917
 3857SOL    HW211946   2.494   3.389   2.037
 3858SOL     OW11947   3.512   3.582   3.256
 3858SOL    HW111948   3.565   3.592   3.172
 3858SOL    HW211949   3.485   3.672   3.290
 3859SOL     OW11950   3.703   2.037   2.825
 3859SOL    HW111951   3.742   1.952   2.789
 3859SOL    HW211952   3.605   2.039   2.806
 3860SOL     OW11953   2.125   2.188   2.582
 3860SOL    HW111954   2.046   2.239   2.548
 3860SOL    HW211955   2.116   2.173   2.680
 3861SOL     OW11956   3.056   3.474   1.893
 3861SOL    HW111957   3.062   3.381   1.930
 3861SOL    HW211958   2.997   3.474   1.813
 3862SOL     OW11959   3.366   3.469   1.906
 3862SOL    HW111960   3.274   3.506   1.913
 3862SOL    HW211961   3.404   3.489   1.816
 3863SOL     OW11962   2.234   3.150   3.352
 3863SOL    HW111963   2.221   3.243   3.318
 3863SOL    HW211964   2.150   3.098   3.339
 3864SOL     OW11965   3.476   3.154   3.151
 3864SOL    HW111966   3.536   3.157   3.231
 3864SOL    HW211967   3.401   3.218   3.164
 3865SOL     OW11968   2.901   2.960   2.558
 3865SOL    HW111969   2.831   2.913   2.612
 3865SOL    HW211970   2.960   2.892   2.515
 3866SOL     OW11971   2.876   2.098   2.833
 3866SOL    HW111972   2.868   2.062   2.740
 3866SOL    HW211973   2.874   2.022   2.898
 3867SOL     OW11974   2.452   3.349   2.353
 3867SOL    HW111975   2.494   3.291   2.283
 3867SOL    HW211976   2.408   3.428   2.309
 3868SOL     OW11977   3.571   2.247   3.243
 3868SOL    HW111978   3.644   2.316   3.247
 3868SOL    HW211979   3.599   2.172   3.184
 3869SOL     OW11980   2.117   3.210   2.152
 3869SOL    HW111981   2.021   3.211   2.125
 3869SOL    HW211982   2.129   3.263   2.236
 3870SOL     OW11983   1.967   2.875   3.588
 3870SOL    HW111984   1.890   2.842   3.642
 3870SOL    HW211985   2.052   2.845   3.630
 3871SOL     OW11986   2.534   2.065   3.351
 3871SOL    HW111987   2.624   2.049   3.311
 3871SOL    HW211988   2.542   2.070   3.450
 3872SOL     OW11989   1.937   2.207   1.895
 3872SOL    HW111990   1.845   2.179   1.866
 3872SOL    HW211991   1.968   2.284   1.839
 3873SOL     OW11992   3.302   2.718   3.260
 3873SOL    HW111993   3.245   2.770   3.197
 3873SOL    HW211994   3.398   2.730   3.236
 3874SOL     OW11995   1.934   2.028   2.180
 3874SOL    HW111996   1.917   2.111   2.126
 3874SOL    HW211997   2.024   1.991   2.158
 3875SOL     OW11998   3.045   3.197   1.981
 3875SOL    HW111999   2.946   3.186   1.983
 3875SOL    HW212000   3.079   3.212   2.074
 3876SOL     OW12001   3.355   3.629   2.821
 3876SOL    HW112002   3.388   3.693   2.752
 3876SOL    HW212003   3.421   3.623   2.896
 3877SOL     OW12004   3.312   3.082   3.495
 3877SOL    HW112005   3.303   3.072   3.594
 3877SOL    HW212006   3.408   3.075   3.469
 3878SOL     OW12007   2.252   3.603   3.422
 3878SOL    HW112008   2.161   3.644   3.420
 3878SOL    HW212009   2.245   3.509   3.454
 3879SOL     OW12010   3.536   2.745   3.116
 3879SOL    HW112011   3.509   2.656   3.079
 3879SOL    HW212012   3.537   2.813   3.043
 3880SOL     OW12013   3.087   2.187   2.311
 3880SOL    HW112014   3.152   2.113   2.300
 3880SOL    HW212015   3.107   2.237   2.395
 3881SOL     OW12016   3.639   2.204   3.504
 3881SOL    HW112017   3.622   2.235   3.410
 3881SOL    HW212018   3.555   2.167   3.542
 3882SOL     OW12019   3.592   2.796   3.379
 3882SOL    HW112020   3.630   2.887   3.394
 3882SOL    HW212021   3.584   2.779   3.280
 3883SOL     OW12022   2.721   3.236   1.878
 3883SOL    HW112023   2.675   3.251   1.966
 3883SOL    HW212024   2.765   3.321   1.848
 3884SOL     OW12025   2.523   3.652   2.815
 3884SOL    HW112026   2.477   3.740   2.802
 3884SOL    HW212027   2.622   3.664   2.808
 3885SOL     OW12028   2.945   2.846   1.949
 3885SOL    HW112029   2.922   2.899   1.867
 3885SOL    HW212030   3.026   2.790   1.930
 3886SOL     OW12031   3.723   3.431   2.713
 3886SOL    HW112032   3.652   3.419   2.643
 3886SOL    HW212033   3.724   3.352   2.773
 3887SOL     OW12034   1.941   3.102   2.515
 3887SOL    HW112035   1.940   3.055   2.603
 3887SOL    HW212036   2.023   3.074   2.464
 3888SOL     OW12037   2.534   3.253   3.486
 3888SOL    HW112038   2.456   3.203   3.524
 3888SOL    HW212039   2.531   3.348   3.517
 3889SOL     OW12040   3.686   2.054   3.089
 3889SOL    HW112041   3.682   1.964   3.133
 3889SOL    HW212042   3.689   2.043   2.990
 3890SOL     OW12043   2.290   2.286   2.382
 3890SOL    HW112044   2.320   2.214   2.320
 3890SOL    HW212045   2.251   2.246   2.465
 3891SOL     OW12046   3.567   3.349   2.966
 3891SOL    HW112047   3.474   3.324   2.939
 3891SOL    HW212048   3.593   3.299   3.048
 3892SOL     OW12049   2.179   2.409   3.142
 3892SOL    HW112050   2.217   2.350   3.214
 3892SOL    HW212051   2.219   2.383   3.054
 3893SOL     OW12052   2.674   3.448   2.549
 3893SOL    HW112053   2.706   3.458   2.455
 3893SOL    HW212054   2.595   3.386   2.551
 3894SOL     OW12055   3.286   2.076   2.974
 3894SOL    HW112056   3.338   2.011   3.029
 3894SOL    HW212057   3.237   2.139   3.035
 3895SOL     OW12058   2.863   1.896   3.016
 3895SOL    HW112059   2.800   1.824   2.985
 3895SOL    HW212060   2.956   1.860   3.016
 3896SOL     OW12061   2.632   3.192   2.163
 3896SOL    HW112062   2.586   3.105   2.180
 3896SOL    HW212063   2.723   3.189   2.204
 3897SOL     OW12064   2.480   3.429   3.146
 3897SOL    HW112065   2.475   3.511   3.203
 3897SOL    HW212066   2.569   3.426   3.101
 3898SOL     OW12067   3.214   1.914   2.030
 3898SOL    HW112068   3.249   1.873   1.946
 3898SOL    HW212069   3.124   1.876   2.050
 3899SOL     OW12070   3.162   2.315   2.553
 3899SOL    HW112071   3.103   2.395   2.557
 3899SOL    HW212072   3.177   2.280   2.646
 3900SOL     OW12073   3.455   2.083   2.744
 3900SOL    HW112074   3.371   2.082   2.798
 3900SOL    HW212075   3.457   2.166   2.688
 3901SOL     OW12076   1.901   2.939   2.162
 3901SOL    HW112077   2.000   2.928   2.153
 3901SOL    HW212078   1.861   2.853   2.194
 3902SOL     OW12079   2.737   3.508   2.199
 3902SOL    HW112080   2.660   3.473   2.145
 3902SOL    HW212081   2.705   3.579   2.261
 3903SOL     OW12082   2.087   2.137   4.720
 3903SOL    HW112083   2.122   2.120   4.812
 3903SOL    HW212084   1.999   2.092   4.708
 3904SOL     OW12085   1.881   2.230   4.371
 3904SOL    HW112086   1.799   2.273   4.410
 3904SOL    HW212087   1.853   2.157   4.308
 3905SOL     OW12088   2.431   3.137   4.889
 3905SOL    HW112089   2.338   3.130   4.852
 3905SOL    HW212090   2.442   3.226   4.933
 3906SOL     OW12091   3.417   3.373   4.427
 3906SOL    HW112092   3.360   3.357   4.508
 3906SOL    HW212093   3.358   3.383   4.347
 3907SOL     OW12094   2.997   2.565   4.441
 3907SOL    HW112095   3.054   2.643   4.416
 3907SOL    HW212096   2.937   2.591   4.517
 3908SOL     OW12097   3.617   2.469   3.955
 3908SOL    HW112098   3.605   2.456   3.856
 3908SOL    HW212099   3.587   2.388   4.004
 3909SOL     OW12100   2.630   3.006   4.747
 3909SOL    HW112101   2.552   3.023   4.807
 3909SOL    HW212102   2.664   3.093   4.711
 3910SOL     OW12103   2.548   3.023   5.527
 3910SOL    HW112104   2.608   3.102   5.541
 3910SOL    HW212105   2.462   3.054   5.486
 3911SOL     OW12106   2.197   3.297   4.785
 3911SOL    HW112107   2.119   3.266   4.732
 3911SOL    HW212108   2.255   3.355   4.728
 3912SOL     OW12109   3.322   3.367   5.063
 3912SOL    HW112110   3.346   3.461   5.089
 3912SOL    HW212111   3.306   3.313   5.145
 3913SOL     OW12112   2.300   2.254   5.223
 3913SOL    HW112113   2.382   2.198   5.232
 3913SOL    HW212114   2.219   2.196   5.227
 3914SOL     OW12115   3.465   2.309   4.461
 3914SOL    HW112116   3.391   2.355   4.411
 3914SOL    HW212117   3.516   2.377   4.514
 3915SOL     OW12118   2.093   3.575   4.207
 3915SOL    HW112119   2.127   3.652   4.261
 3915SOL    HW212120   2.137   3.575   4.117
 3916SOL     OW12121   2.989   3.203   5.414
 3916SOL    HW112122   3.036   3.203   5.502
 3916SOL    HW212123   2.941   3.116   5.403
 3917SOL     OW12124   2.102   2.953   4.610
 3917SOL    HW112125   2.116   2.869   4.662
 3917SOL    HW212126   2.047   3.017   4.665
 3918SOL     OW12127   2.482   3.648   5.163
 3918SOL    HW112128   2.390   3.631   5.198
 3918SOL    HW212129   2.510   3.740   5.189
 3919SOL     OW12130   2.468   2.826   3.847
 3919SOL    HW112131   2.475   2.910   3.793
 3919SOL    HW212132   2.514   2.839   3.935
 3920SOL     OW12133   3.456   1.976   5.204
 3920SOL    HW112134   3.438   2.043   5.132
 3920SOL    HW212135   3.453   2.022   5.293
 3921SOL     OW12136   3.704   3.629   4.083
 3921SOL    HW112137   3.758   3.600   4.163
 3921SOL    HW212138   3.734   3.719   4.054
 3922SOL     OW12139   1.889   3.458   3.841
 3922SOL    HW112140   1.870   3.362   3.862
 3922SOL    HW212141   1.856   3.516   3.916
 3923SOL     OW12142   3.551   2.784   4.336
 3923SOL    HW112143   3.646   2.755   4.344
 3923SOL    HW212144   3.543   2.849   4.261
 3924SOL     OW12145   3.503   2.970   4.156
 3924SOL    HW112146   3.589   2.972   4.104
 3924SOL    HW212147   3.517   3.017   4.244
 3925SOL     OW12148   1.975   2.599   5.321
 3925SOL    HW112149   2.063   2.586   5.366
 3925SOL    HW212150   1.962   2.696   5.299
 3926SOL     OW12151   2.475   3.227   4.450
 3926SOL    HW112152   2.426   3.140   4.459
 3926SOL    HW212153   2.452   3.270   4.363
 3927SOL     OW12154   3.155   3.090   5.147
 3927SOL    HW112155   3.192   3.017   5.089
 3927SOL    HW212156   3.207   3.095   5.232
 3928SOL     OW12157   2.059   2.838   4.988
 3928SOL    HW112158   2.148   2.793   4.974
 3928SOL    HW212159   1.986   2.773   4.969
 3929SOL     OW12160   3.049   3.654   5.340
 3929SOL    HW112161   3.073   3.714   5.264
 3929SOL    HW212162   3.056   3.559   5.310
 3930SOL     OW12163   2.179   2.113   5.525
 3930SOL    HW112164   2.250   2.184   5.531
 3930SOL    HW212165   2.091   2.152   5.553
 3931SOL     OW12166   3.328   3.279   4.677
 3931SOL    HW112167   3.269   3.285   4.757
 3931SOL    HW212168   3.313   3.191   4.631
 3932SOL     OW12169   3.529   3.576   4.296
 3932SOL    HW112170   3.488   3.553   4.208
 3932SOL    HW212171   3.511   3.502   4.361
 3933SOL     OW12172   3.143   2.207   4.668
 3933SOL    HW112173   3.057   2.157   4.655
 3933SOL    HW212174   3.205   2.153   4.724
 3934SOL     OW12175   3.438   3.524   4.031
 3934SOL    HW112176   3.527   3.570   4.034
 3934SOL    HW212177   3.417   3.500   3.936
 3935SOL     OW12178   3.256   2.331   5.398
 3935SOL    HW112179   3.236   2.374   5.486
 3935SOL    HW212180   3.334   2.269   5.407
 3936SOL     OW12181   2.853   2.272   4.966
 3936SOL    HW112182   2.776   2.306   5.020
 3936SOL    HW212183   2.819   2.221   4.887
 3937SOL     OW12184   2.903   2.563   4.153
 3937SOL    HW112185   2.929   2.559   4.249
 3937SOL    HW212186   2.818   2.512   4.139
 3938SOL     OW12187   1.938   2.673   4.513
 3938SOL    HW112188   2.037   2.661   4.522
 3938SOL    HW212189   1.914   2.768   4.534
 3939SOL     OW12190   1.992   3.683   5.295
 3939SOL    HW112191   1.982   3.668   5.394
 3939SOL    HW212192   1.906   3.719   5.259
 3940SOL     OW12193   3.581   2.447   5.555
 3940SOL    HW112194   3.555   2.536   5.519
 3940SOL    HW212195   3.579   2.379   5.482
 3941SOL     OW12196   2.412   2.058   4.609
 3941SOL    HW112197   2.407   2.053   4.709
 3941SOL    HW212198   2.414   2.154   4.580
 3942SOL     OW12199   2.213   3.663   4.577
 3942SOL    HW112200   2.263   3.577   4.583
 3942SOL    HW212201   2.278   3.740   4.574
 3943SOL     OW12202   3.657   2.928   4.597
 3943SOL    HW112203   3.595   2.913   4.521
 3943SOL    HW212204   3.605   2.939   4.682
 3944SOL     OW12205   3.089   3.412   5.230
 3944SOL    HW112206   3.095   3.335   5.294
 3944SOL    HW212207   3.037   3.386   5.150
 3945SOL     OW12208   3.320   2.597   4.452
 3945SOL    HW112209   3.315   2.532   4.527
 3945SOL    HW212210   3.400   2.656   4.465
 3946SOL     OW12211   2.323   3.128   5.451
 3946SOL    HW112212   2.273   3.129   5.365
 3946SOL    HW212213   2.260   3.110   5.527
 3947SOL     OW12214   2.973   3.638   3.961
 3947SOL    HW112215   2.913   3.576   4.011
 3947SOL    HW212216   3.004   3.594   3.876
 3948SOL     OW12217   2.064   2.147   5.222
 3948SOL    HW112218   1.984   2.207   5.209
 3948SOL    HW212219   2.054   2.098   5.308
 3949SOL     OW12220   3.494   3.239   3.805
 3949SOL    HW112221   3.462   3.333   3.795
 3949SOL    HW212222   3.418   3.176   3.793
 3950SOL     OW12223   2.326   3.605   4.047
 3950SOL    HW112224   2.359   3.644   4.133
 3950SOL    HW212225   2.402   3.598   3.982
 3951SOL     OW12226   3.262   1.969   4.150
 3951SOL    HW112227   3.238   1.932   4.060
 3951SOL    HW212228   3.361   1.985   4.154
 3952SOL     OW12229   2.111   3.647   4.965
 3952SOL    HW112230   2.168   3.582   5.015
 3952SOL    HW212231   2.095   3.614   4.872
 3953SOL     OW12232   2.802   3.560   4.628
 3953SOL    HW112233   2.882   3.503   4.649
 3953SOL    HW212234   2.753   3.520   4.551
 3954SOL     OW12235   3.409   2.084   5.453
 3954SOL    HW112236   3.404   2.121   5.545
 3954SOL    HW212237   3.337   2.015   5.441
 3955SOL     OW12238   2.643   2.126   5.473
 3955SOL    HW112239   2.710   2.065   5.516
 3955SOL    HW212240   2.570   2.145   5.538
 3956SOL     OW12241   2.750   3.376   4.919
 3956SOL    HW112242   2.727   3.351   4.825
 3956SOL    HW212243   2.811   3.307   4.958
 3957SOL     OW12244   3.213   2.452   5.157
 3957SOL    HW112245   3.241   2.409   5.242
 3957SOL    HW212246   3.238   2.548   5.158
 3958SOL     OW12247   2.665   3.264   4.648
 3958SOL    HW112248   2.755   3.278   4.606
 3958SOL    HW212249   2.594   3.266   4.577
 3959SOL     OW12250   2.784   2.365   4.623
 3959SOL    HW112251   2.759   2.356   4.527
 3959SOL    HW212252   2.832   2.283   4.654
 3960SOL     OW12253   2.938   2.545   5.188
 3960SOL    HW112254   2.858   2.484   5.191
 3960SOL    HW212255   3.019   2.492   5.164
 3961SOL     OW12256   3.089   3.432   4.517
 3961SOL    HW112257   3.110   3.506   4.452
 3961SOL    HW212258   3.157   3.432   4.590
 3962SOL     OW12259   3.133   3.659   4.315
 3962SOL    HW112260   3.177   3.723   4.251
 3962SOL    HW212261   3.083   3.711   4.385
 3963SOL     OW12262   2.894   2.411   3.740
 3963SOL    HW112263   2.853   2.493   3.701
 3963SOL    HW212264   2.958   2.437   3.813
 3964SOL     OW12265   1.940   2.418   5.110
 3964SOL    HW112266   2.032   2.417   5.069
 3964SOL    HW212267   1.934   2.492   5.177
 3965SOL     OW12268   2.423   2.084   4.871
 3965SOL    HW112269   2.461   2.000   4.908
 3965SOL    HW212270   2.335   2.103   4.915
 3966SOL     OW12271   2.879   1.901   4.477
 3966SOL    HW112272   2.807   1.906   4.408
 3966SOL    HW212273   2.855   1.832   4.546
 3967SOL     OW12274   3.291   3.035   4.591
 3967SOL    HW112275   3.236   2.951   4.584
 3967SOL    HW212276   3.317   3.064   4.499
 3968SOL     OW12277   3.328   2.452   4.716
 3968SOL    HW112278   3.298   2.357   4.723
 3968SOL    HW212279   3.401   2.468   4.782
 3969SOL     OW12280   3.719   2.695   4.101
 3969SOL    HW112281   3.761   2.631   4.165
 3969SOL    HW212282   3.681   2.644   4.023
 3970SOL     OW12283   3.526   3.142   4.381
 3970SOL    HW112284   3.625   3.150   4.395
 3970SOL    HW212285   3.481   3.226   4.412
 3971SOL     OW12286   3.616   3.085   5.312
 3971SOL    HW112287   3.707   3.046   5.299
 3971SOL    HW212288   3.624   3.181   5.336
 3972SOL     OW12289   2.926   3.209   5.064
 3972SOL    HW112290   2.846   3.186   5.119
 3972SOL    HW212291   3.009   3.183   5.113
 3973SOL     OW12292   3.454   3.491   5.349
 3973SOL    HW112293   3.481   3.525   5.259
 3973SOL    HW212294   3.533   3.453   5.395
 3974SOL     OW12295   2.973   3.057   4.824
 3974SOL    HW112296   2.933   3.101   4.905
 3974SOL    HW212297   2.932   3.094   4.741
 3975SOL     OW12298   3.500   2.961   4.803
 3975SOL    HW112299   3.505   3.042   4.862
 3975SOL    HW212300   3.414   2.963   4.752
 3976SOL     OW12301   2.777   1.951   5.126
 3976SOL    HW112302   2.802   1.931   5.031
 3976SOL    HW212303   2.849   2.007   5.168
 3977SOL     OW12304   2.842   2.978   5.443
 3977SOL    HW112305   2.743   2.984   5.453
 3977SOL    HW212306   2.865   2.898   5.387
 3978SOL     OW12307   2.567   2.912   4.092
 3978SOL    HW112308   2.553   2.919   4.191
 3978SOL    HW212309   2.651   2.861   4.074
 3979SOL     OW12310   2.272   2.675   4.975
 3979SOL    HW112311   2.358   2.687   5.025
 3979SOL    HW212312   2.230   2.588   5.002
 3980SOL     OW12313   3.136   2.248   4.986
 3980SOL    HW112314   3.157   2.322   5.050
 3980SOL    HW212315   3.047   2.265   4.943
 3981SOL     OW12316   1.926   3.426   5.055
 3981SOL    HW112317   1.880   3.508   5.021
 3981SOL    HW212318   2.024   3.445   5.064
 3982SOL     OW12319   2.428   2.399   4.589
 3982SOL    HW112320   2.440   2.465   4.515
 3982SOL    HW212321   2.474   2.433   4.672
 3983SOL     OW12322   3.134   3.307   4.866
 3983SOL    HW112323   3.181   3.320   4.953
 3983SOL    HW212324   3.068   3.233   4.875
 3984SOL     OW12325   2.216   3.372   5.053
 3984SOL    HW112326   2.195   3.328   4.966
 3984SOL    HW212327   2.313   3.398   5.056
 3985SOL     OW12328   2.264   2.613   5.322
 3985SOL    HW112329   2.332   2.668   5.275
 3985SOL    HW212330   2.304   2.525   5.349
 3986SOL     OW12331   3.449   2.641   5.394
 3986SOL    HW112332   3.357   2.679   5.389
 3986SOL    HW212333   3.509   2.688   5.329
 3987SOL     OW12334   2.875   1.967   5.494
 3987SOL    HW112335   2.881   2.052   5.442
 3987SOL    HW212336   2.907   1.891   5.437
 3988SOL     OW12337   2.366   1.912   5.464
 3988SOL    HW112338   2.324   1.855   5.394
 3988SOL    HW212339   2.300   1.981   5.496
 3989SOL     OW12340   3.222   2.724   4.769
 3989SOL    HW112341   3.147   2.724   4.703
 3989SOL    HW212342   3.259   2.632   4.778
 3990SOL     OW12343   2.169   2.075   4.955
 3990SOL    HW112344   2.146   2.112   5.045
 3990SOL    HW212345   2.139   1.980   4.949
 3991SOL     OW12346   1.899   3.172   5.006
 3991SOL    HW112347   1.952   3.123   5.074
 3991SOL    HW212348   1.921   3.270   5.011
 3992SOL     OW12349   3.590   2.797   5.578
 3992SOL    HW112350   3.544   2.790   5.489
 3992SOL    HW212351   3.528   2.841   5.644
 3993SOL     OW12352   3.484   2.229   4.098
 3993SOL    HW112353   3.486   2.153   4.162
 3993SOL    HW212354   3.436   2.306   4.138
 3994SOL     OW12355   2.842   3.435   5.424
 3994SOL    HW112356   2.822   3.479   5.336
 3994SOL    HW212357   2.881   3.344   5.408
 3995SOL     OW12358   3.721   3.380   5.329
 3995SOL    HW112359   3.735   3.407   5.234
 3995SOL    HW212360   3.804   3.402   5.382
 3996SOL     OW12361   2.212   2.760   5.528
 3996SOL    HW112362   2.288   2.804   5.576
 3996SOL    HW212363   2.247   2.713   5.446
 3997SOL     OW12364   2.930   3.195   4.573
 3997SOL    HW112365   2.937   3.111   4.518
 3997SOL    HW212366   2.992   3.264   4.537
 3998SOL     OW12367   2.181   2.672   4.673
 3998SOL    HW112368   2.274   2.708   4.678
 3998SOL    HW212369   2.175   2.587   4.725
 3999SOL     OW12370   2.201   2.371   4.730
 3999SOL    HW112371   2.149   2.288   4.713
 3999SOL    HW212372   2.278   2.376   4.666
 4000SOL     OW12373   3.000   2.242   5.402
 4000SOL    HW112374   2.955   2.305   5.466
 4000SOL    HW212375   3.093   2.273   5.385
 4001SOL     OW12376   3.022   2.069   5.201
 4001SOL    HW112377   3.022   2.133   5.278
 4001SOL    HW212378   3.050   2.117   5.118
 4002SOL     OW12379   1.950   3.663   4.651
 4002SOL    HW112380   1.908   3.577   4.624
 4002SOL    HW212381   2.044   3.666   4.617
 4003SOL     OW12382   2.366   3.430   4.634
 4003SOL    HW112383   2.432   3.504   4.643
 4003SOL    HW212384   2.410   3.351   4.592
 4004SOL     OW12385   1.902   2.406   4.838
 4004SOL    HW112386   1.987   2.373   4.797
 4004SOL    HW212387   1.915   2.421   4.936
 4005SOL     OW12388   2.051   2.382   5.446
 4005SOL    HW112389   2.110   2.342   5.376
 4005SOL    HW212390   1.993   2.453   5.405
 4006SOL     OW12391   3.231   2.812   5.384
 4006SOL    HW112392   3.270   2.901   5.404
 4006SOL    HW212393   3.241   2.792   5.287
 4007SOL     OW12394   3.519   2.466   4.930
 4007SOL    HW112395   3.481   2.397   4.992
 4007SOL    HW212396   3.601   2.430   4.886
 4008SOL     OW12397   2.114   3.426   5.468
 4008SOL    HW112398   2.084   3.483   5.544
 4008SOL    HW212399   2.107   3.329   5.494
 4009SOL     OW12400   2.533   2.326   4.993
 4009SOL    HW112401   2.499   2.237   4.963
 4009SOL    HW212402   2.559   2.380   4.913
 4010SOL     OW12403   2.792   3.540   5.189
 4010SOL    HW112404   2.768   3.522   5.094
 4010SOL    HW212405   2.822   3.634   5.199
 4011SOL     OW12406   2.021   2.999   5.190
 4011SOL    HW112407   2.043   2.938   5.266
 4011SOL    HW212408   2.031   2.950   5.104
 4012SOL     OW12409   3.209   2.921   4.958
 4012SOL    HW112410   3.233   2.858   4.884
 4012SOL    HW212411   3.119   2.961   4.940
 4013SOL     OW12412   3.621   3.609   4.878
 4013SOL    HW112413   3.682   3.639   4.805
 4013SOL    HW212414   3.583   3.520   4.856
 4014SOL     OW12415   3.114   3.593   4.852
 4014SOL    HW112416   3.198   3.598   4.798
 4014SOL    HW212417   3.091   3.497   4.870
 4015SOL     OW12418   1.945   3.120   4.746
 4015SOL    HW112419   1.940   3.119   4.846
 4015SOL    HW212420   1.862   3.079   4.708
 4016SOL     OW12421   2.550   3.524   5.440
 4016SOL    HW112422   2.494   3.605   5.449
 4016SOL    HW212423   2.602   3.528   5.354
 4017SOL     OW12424   3.588   1.997   4.247
 4017SOL    HW112425   3.661   1.980   4.180
 4017SOL    HW212426   3.557   1.910   4.285
 4018SOL     OW12427   3.250   3.435   4.201
 4018SOL    HW112428   3.317   3.447   4.127
 4018SOL    HW212429   3.210   3.524   4.224
 4019SOL     OW12430   1.992   3.656   5.575
 4019SOL    HW112431   1.951   3.582   5.628
 4019SOL    HW212432   2.056   3.707   5.633
 4020SOL     OW12433   2.692   3.135   5.146
 4020SOL    HW112434   2.687   3.168   5.241
 4020SOL    HW212435   2.606   3.154   5.100
 4021SOL     OW12436   3.512   3.582   5.118
 4021SOL    HW112437   3.565   3.592   5.034
 4021SOL    HW212438   3.485   3.672   5.152
 4022SOL     OW12439   3.703   2.037   4.687
 4022SOL    HW112440   3.742   1.952   4.651
 4022SOL    HW212441   3.605   2.039   4.668
 4023SOL     OW12442   2.125   2.188   4.444
 4023SOL    HW112443   2.046   2.239   4.410
 4023SOL    HW212444   2.116   2.173   4.542
 4024SOL     OW12445   3.056   3.474   3.755
 4024SOL    HW112446   3.062   3.381   3.792
 4024SOL    HW212447   2.997   3.474   3.675
 4025SOL     OW12448   3.366   3.469   3.768
 4025SOL    HW112449   3.274   3.506   3.775
 4025SOL    HW212450   3.404   3.489   3.678
 4026SOL     OW12451   2.234   3.150   5.214
 4026SOL    HW112452   2.221   3.243   5.180
 4026SOL    HW212453   2.150   3.098   5.201
 4027SOL     OW12454   3.476   3.154   5.013
 4027SOL    HW112455   3.536   3.157   5.093
 4027SOL    HW212456   3.401   3.218   5.026
 4028SOL     OW12457   2.901   2.960   4.420
 4028SOL    HW112458   2.831   2.913   4.474
 4028SOL    HW212459   2.960   2.892   4.377
 4029SOL     OW12460   2.876   2.098   4.695
 4029SOL    HW112461   2.868   2.062   4.602
 4029SOL    HW212462   2.874   2.022   4.760
 4030SOL     OW12463   3.571   2.247   5.105
 4030SOL    HW112464   3.644   2.316   5.109
 4030SOL    HW212465   3.599   2.172   5.046
 4031SOL     OW12466   1.967   2.875   5.450
 4031SOL    HW112467   1.890   2.842   5.504
 4031SOL    HW212468   2.052   2.845   5.492
 4032SOL     OW12469   2.534   2.065   5.213
 4032SOL    HW112470   2.624   2.049   5.173
 4032SOL    HW212471   2.542   2.070   5.312
 4033SOL     OW12472   3.302   2.718   5.122
 4033SOL    HW112473   3.245   2.770   5.059
 4033SOL    HW212474   3.398   2.730   5.098
 4034SOL     OW12475   3.355   3.629   4.683
 4034SOL    HW112476   3.388   3.693   4.614
 4034SOL    HW212477   3.421   3.623   4.758
 4035SOL     OW12478   3.312   3.082   5.357
 4035SOL    HW112479   3.303   3.072   5.456
 4035SOL    HW212480   3.408   3.075   5.331
 4036SOL     OW12481   2.252   3.603   5.284
 4036SOL    HW112482   2.161   3.644   5.282
 4036SOL    HW212483   2.245   3.509   5.316
 4037SOL     OW12484   3.536   2.745   4.978
 4037SOL    HW112485   3.509   2.656   4.941
 4037SOL    HW212486   3.537   2.813   4.905
 4038SOL     OW12487   3.639   2.204   5.366
 4038SOL    HW112488   3.622   2.235   5.272
 4038SOL    HW212489   3.555   2.167   5.404
 4039SOL     OW12490   3.592   2.796   5.241
 4039SOL    HW112491   3.630   2.887   5.256
 4039SOL    HW212492   3.584   2.779   5.142
 4040SOL     OW12493   2.523   3.652   4.677
 4040SOL    HW112494   2.477   3.740   4.664
 4040SOL    HW212495   2.622   3.664   4.670
 4041SOL     OW12496   2.945   2.846   3.811
 4041SOL    HW112497   2.922   2.899   3.729
 4041SOL    HW212498   3.026   2.790   3.792
 4042SOL     OW12499   3.723   3.431   4.575
 4042SOL    HW112500   3.652   3.419   4.505
 4042SOL    HW212501   3.724   3.352   4.635
 4043SOL     OW12502   2.083   3.176   5.568
 4043SOL    HW112503   2.018   3.103   5.547
 4043SOL    HW212504   2.087   3.190   5.666
 4044SOL     OW12505   2.534   3.253   5.348
 4044SOL    HW112506   2.456   3.203   5.386
 4044SOL    HW212507   2.531   3.348   5.379
 4045SOL     OW12508   3.686   2.054   4.951
 4045SOL    HW112509   3.682   1.964   4.995
 4045SOL    HW212510   3.689   2.043   4.852
 4046SOL     OW12511   3.567   3.349   4.828
 4046SOL    HW112512   3.474   3.324   4.801
 4046SOL    HW212513   3.593   3.299   4.910
 4047SOL     OW12514   2.179   2.409   5.004
 4047SOL    HW112515   2.217   2.350   5.076
 4047SOL    HW212516   2.219   2.383   4.916
 4048SOL     OW12517   2.674   3.448   4.411
 4048SOL    HW112518   2.706   3.458   4.317
 4048SOL    HW212519   2.595   3.386   4.413
 4049SOL     OW12520   3.286   2.076   4.836
 4049SOL    HW112521   3.338   2.011   4.891
 4049SOL    HW212522   3.237   2.139   4.897
 4050SOL     OW12523   2.863   1.896   4.878
 4050SOL    HW112524   2.800   1.824   4.847
 4050SOL    HW212525   2.956   1.860   4.878
 4051SOL     OW12526   2.480   3.429   5.008
 4051SOL    HW112527   2.475   3.511   5.065
 4051SOL    HW212528   2.569   3.426   4.963
 4052SOL     OW12529   3.455   2.083   4.606
 4052SOL    HW112530   3.371   2.082   4.660
 4052SOL    HW212531   3.457   2.166   4.550
 4053SOL     OW12532   2.092   2.490   5.699
 4053SOL    HW112533   1.999   2.488   5.736
 4053SOL    HW212534   2.093   2.451   5.607
 4054SOL     OW12535   2.087   2.137   6.582
 4054SOL    HW112536   2.122   2.120   6.674
 4054SOL    HW212537   1.999   2.092   6.570
 4055SOL     OW12538   1.881   2.230   6.233
 4055SOL    HW112539   1.799   2.273   6.272
 4055SOL    HW212540   1.853   2.157   6.170
 4056SOL     OW12541   2.431   3.137   6.751
 4056SOL    HW112542   2.338   3.130   6.714
 4056SOL    HW212543   2.442   3.226   6.795
 4057SOL     OW12544   3.417   3.373   6.289
 4057SOL    HW112545   3.360   3.357   6.370
 4057SOL    HW212546   3.358   3.383   6.209
 4058SOL     OW12547   2.997   2.565   6.303
 4058SOL    HW112548   3.054   2.643   6.278
 4058SOL    HW212549   2.937   2.591   6.379
 4059SOL     OW12550   3.617   2.469   5.817
 4059SOL    HW112551   3.605   2.456   5.718
 4059SOL    HW212552   3.587   2.388   5.866
 4060SOL     OW12553   2.630   3.006   6.609
 4060SOL    HW112554   2.552   3.023   6.669
 4060SOL    HW212555   2.664   3.093   6.573
 4061SOL     OW12556   2.548   3.023   7.389
 4061SOL    HW112557   2.608   3.102   7.403
 4061SOL    HW212558   2.462   3.054   7.348
 4062SOL     OW12559   2.197   3.297   6.647
 4062SOL    HW112560   2.119   3.266   6.594
 4062SOL    HW212561   2.255   3.355   6.590
 4063SOL     OW12562   3.322   3.367   6.925
 4063SOL    HW112563   3.346   3.461   6.951
 4063SOL    HW212564   3.306   3.313   7.007
 4064SOL     OW12565   2.300   2.254   7.085
 4064SOL    HW112566   2.382   2.198   7.094
 4064SOL    HW212567   2.219   2.196   7.089
 4065SOL     OW12568   3.465   2.309   6.323
 4065SOL    HW112569   3.391   2.355   6.273
 4065SOL    HW212570   3.516   2.377   6.376
 4066SOL     OW12571   2.093   3.575   6.069
 4066SOL    HW112572   2.127   3.652   6.123
 4066SOL    HW212573   2.137   3.575   5.979
 4067SOL     OW12574   2.989   3.203   7.276
 4067SOL    HW112575   3.036   3.203   7.364
 4067SOL    HW212576   2.941   3.116   7.265
 4068SOL     OW12577   2.092   3.296   6.124
 4068SOL    HW112578   2.066   3.392   6.124
 4068SOL    HW212579   2.021   3.242   6.169
 4069SOL     OW12580   2.102   2.953   6.472
 4069SOL    HW112581   2.116   2.869   6.524
 4069SOL    HW212582   2.047   3.017   6.527
 4070SOL     OW12583   2.482   3.648   7.025
 4070SOL    HW112584   2.390   3.631   7.060
 4070SOL    HW212585   2.510   3.740   7.051
 4071SOL     OW12586   2.468   2.826   5.709
 4071SOL    HW112587   2.475   2.910   5.655
 4071SOL    HW212588   2.514   2.839   5.797
 4072SOL     OW12589   3.456   1.976   7.066
 4072SOL    HW112590   3.438   2.043   6.994
 4072SOL    HW212591   3.453   2.022   7.155
 4073SOL     OW12592   1.984   2.505   6.149
 4073SOL    HW112593   1.939   2.417   6.166
 4073SOL    HW212594   1.983   2.559   6.233
 4074SOL     OW12595   3.704   3.629   5.945
 4074SOL    HW112596   3.758   3.600   6.025
 4074SOL    HW212597   3.734   3.719   5.916
 4075SOL     OW12598   1.889   3.458   5.703
 4075SOL    HW112599   1.870   3.362   5.724
 4075SOL    HW212600   1.856   3.516   5.778
 4076SOL     OW12601   3.551   2.784   6.198
 4076SOL    HW112602   3.646   2.755   6.206
 4076SOL    HW212603   3.543   2.849   6.123
 4077SOL     OW12604   3.503   2.970   6.018
 4077SOL    HW112605   3.589   2.972   5.966
 4077SOL    HW212606   3.517   3.017   6.106
 4078SOL     OW12607   1.975   2.599   7.183
 4078SOL    HW112608   2.063   2.586   7.228
 4078SOL    HW212609   1.962   2.696   7.161
 4079SOL     OW12610   2.475   3.227   6.312
 4079SOL    HW112611   2.426   3.140   6.321
 4079SOL    HW212612   2.452   3.270   6.225
 4080SOL     OW12613   3.155   3.090   7.009
 4080SOL    HW112614   3.192   3.017   6.951
 4080SOL    HW212615   3.207   3.095   7.094
 4081SOL     OW12616   2.671   1.866   6.088
 4081SOL    HW112617   2.711   1.957   6.079
 4081SOL    HW212618   2.571   1.874   6.094
 4082SOL     OW12619   2.059   2.838   6.850
 4082SOL    HW112620   2.148   2.793   6.836
 4082SOL    HW212621   1.986   2.773   6.831
 4083SOL     OW12622   3.387   2.861   5.776
 4083SOL    HW112623   3.324   2.785   5.789
 4083SOL    HW212624   3.435   2.879   5.862
 4084SOL     OW12625   3.049   3.654   7.202
 4084SOL    HW112626   3.073   3.714   7.126
 4084SOL    HW212627   3.056   3.559   7.172
 4085SOL     OW12628   2.179   2.113   7.387
 4085SOL    HW112629   2.250   2.184   7.393
 4085SOL    HW212630   2.091   2.152   7.415
 4086SOL     OW12631   3.328   3.279   6.539
 4086SOL    HW112632   3.269   3.285   6.619
 4086SOL    HW212633   3.313   3.191   6.493
 4087SOL     OW12634   3.529   3.576   6.158
 4087SOL    HW112635   3.488   3.553   6.070
 4087SOL    HW212636   3.511   3.502   6.223
 4088SOL     OW12637   3.143   2.207   6.530
 4088SOL    HW112638   3.057   2.157   6.517
 4088SOL    HW212639   3.205   2.153   6.586
 4089SOL     OW12640   3.438   3.524   5.893
 4089SOL    HW112641   3.527   3.570   5.896
 4089SOL    HW212642   3.417   3.500   5.798
 4090SOL     OW12643   3.256   2.331   7.260
 4090SOL    HW112644   3.236   2.374   7.348
 4090SOL    HW212645   3.334   2.269   7.269
 4091SOL     OW12646   2.853   2.272   6.828
 4091SOL    HW112647   2.776   2.306   6.882
 4091SOL    HW212648   2.819   2.221   6.749
 4092SOL     OW12649   1.938   2.673   6.375
 4092SOL    HW112650   2.037   2.661   6.384
 4092SOL    HW212651   1.914   2.768   6.396
 4093SOL     OW12652   1.992   3.683   7.157
 4093SOL    HW112653   1.982   3.668   7.256
 4093SOL    HW212654   1.906   3.719   7.121
 4094SOL     OW12655   2.727   2.210   5.781
 4094SOL    HW112656   2.786   2.273   5.732
 4094SOL    HW212657   2.746   2.116   5.752
 4095SOL     OW12658   3.581   2.447   7.417
 4095SOL    HW112659   3.555   2.536   7.381
 4095SOL    HW212660   3.579   2.379   7.344
 4096SOL     OW12661   3.224   3.006   6.131
 4096SOL    HW112662   3.307   2.977   6.083
 4096SOL    HW212663   3.175   3.073   6.075
 4097SOL     OW12664   2.412   2.058   6.471
 4097SOL    HW112665   2.407   2.053   6.571
 4097SOL    HW212666   2.414   2.154   6.442
 4098SOL     OW12667   2.870   3.318   6.063
 4098SOL    HW112668   2.824   3.390   6.011
 4098SOL    HW212669   2.866   3.338   6.161
 4099SOL     OW12670   2.213   3.663   6.439
 4099SOL    HW112671   2.263   3.577   6.445
 4099SOL    HW212672   2.278   3.740   6.436
 4100SOL     OW12673   3.657   2.928   6.459
 4100SOL    HW112674   3.595   2.913   6.383
 4100SOL    HW212675   3.605   2.939   6.544
 4101SOL     OW12676   3.089   3.412   7.092
 4101SOL    HW112677   3.095   3.335   7.156
 4101SOL    HW212678   3.037   3.386   7.012
 4102SOL     OW12679   2.183   2.805   5.828
 4102SOL    HW112680   2.265   2.844   5.786
 4102SOL    HW212681   2.156   2.723   5.779
 4103SOL     OW12682   3.320   2.597   6.314
 4103SOL    HW112683   3.315   2.532   6.389
 4103SOL    HW212684   3.400   2.656   6.327
 4104SOL     OW12685   2.323   3.128   7.313
 4104SOL    HW112686   2.273   3.129   7.227
 4104SOL    HW212687   2.260   3.110   7.389
 4105SOL     OW12688   2.973   3.638   5.823
 4105SOL    HW112689   2.913   3.576   5.873
 4105SOL    HW212690   3.004   3.594   5.738
 4106SOL     OW12691   2.064   2.147   7.084
 4106SOL    HW112692   1.984   2.207   7.071
 4106SOL    HW212693   2.054   2.098   7.170
 4107SOL     OW12694   3.494   3.239   5.667
 4107SOL    HW112695   3.462   3.333   5.657
 4107SOL    HW212696   3.418   3.176   5.655
 4108SOL     OW12697   2.326   3.605   5.909
 4108SOL    HW112698   2.359   3.644   5.995
 4108SOL    HW212699   2.402   3.598   5.844
 4109SOL     OW12700   3.262   1.969   6.012
 4109SOL    HW112701   3.238   1.932   5.922
 4109SOL    HW212702   3.361   1.985   6.016
 4110SOL     OW12703   2.111   3.647   6.827
 4110SOL    HW112704   2.168   3.582   6.877
 4110SOL    HW212705   2.095   3.614   6.734
 4111SOL     OW12706   2.802   3.560   6.490
 4111SOL    HW112707   2.882   3.503   6.511
 4111SOL    HW212708   2.753   3.520   6.413
 4112SOL     OW12709   2.244   2.562   6.066
 4112SOL    HW112710   2.289   2.472   6.063
 4112SOL    HW212711   2.150   2.551   6.099
 4113SOL     OW12712   3.409   2.084   7.315
 4113SOL    HW112713   3.404   2.121   7.407
 4113SOL    HW212714   3.337   2.015   7.303
 4114SOL     OW12715   2.476   1.984   5.703
 4114SOL    HW112716   2.574   1.962   5.710
 4114SOL    HW212717   2.445   1.967   5.610
 4115SOL     OW12718   2.643   2.126   7.335
 4115SOL    HW112719   2.710   2.065   7.378
 4115SOL    HW212720   2.570   2.145   7.400
 4116SOL     OW12721   2.750   3.376   6.781
 4116SOL    HW112722   2.727   3.351   6.687
 4116SOL    HW212723   2.811   3.307   6.820
 4117SOL     OW12724   3.213   2.452   7.019
 4117SOL    HW112725   3.241   2.409   7.104
 4117SOL    HW212726   3.238   2.548   7.020
 4118SOL     OW12727   2.665   3.264   6.510
 4118SOL    HW112728   2.755   3.278   6.468
 4118SOL    HW212729   2.594   3.266   6.439
 4119SOL     OW12730   2.784   2.365   6.485
 4119SOL    HW112731   2.759   2.356   6.389
 4119SOL    HW212732   2.832   2.283   6.516
 4120SOL     OW12733   2.401   1.926   6.098
 4120SOL    HW112734   2.320   1.927   6.156
 4120SOL    HW212735   2.404   2.009   6.043
 4121SOL     OW12736   3.296   3.050   5.627
 4121SOL    HW112737   3.328   2.974   5.684
 4121SOL    HW212738   3.204   3.077   5.657
 4122SOL     OW12739   2.159   1.897   5.757
 4122SOL    HW112740   2.208   1.981   5.736
 4122SOL    HW212741   2.221   1.832   5.802
 4123SOL     OW12742   2.797   2.098   6.066
 4123SOL    HW112743   2.749   2.139   5.988
 4123SOL    HW212744   2.896   2.096   6.047
 4124SOL     OW12745   2.938   2.545   7.050
 4124SOL    HW112746   2.858   2.484   7.053
 4124SOL    HW212747   3.019   2.492   7.026
 4125SOL     OW12748   3.089   3.432   6.379
 4125SOL    HW112749   3.110   3.506   6.314
 4125SOL    HW212750   3.157   3.432   6.452
 4126SOL     OW12751   2.321   3.014   6.327
 4126SOL    HW112752   2.250   2.987   6.392
 4126SOL    HW212753   2.295   2.986   6.234
 4127SOL     OW12754   3.133   3.659   6.177
 4127SOL    HW112755   3.177   3.723   6.113
 4127SOL    HW212756   3.083   3.711   6.247
 4128SOL     OW12757   2.894   2.411   5.602
 4128SOL    HW112758   2.853   2.493   5.563
 4128SOL    HW212759   2.958   2.437   5.675
 4129SOL     OW12760   1.940   2.418   6.972
 4129SOL    HW112761   2.032   2.417   6.931
 4129SOL    HW212762   1.934   2.492   7.039
 4130SOL     OW12763   2.423   2.084   6.733
 4130SOL    HW112764   2.461   2.000   6.770
 4130SOL    HW212765   2.335   2.103   6.777
 4131SOL     OW12766   2.728   2.316   6.228
 4131SOL    HW112767   2.696   2.388   6.166
 4131SOL    HW212768   2.752   2.235   6.175
 4132SOL     OW12769   2.879   1.901   6.339
 4132SOL    HW112770   2.807   1.906   6.270
 4132SOL    HW212771   2.855   1.832   6.408
 4133SOL     OW12772   3.291   3.035   6.453
 4133SOL    HW112773   3.236   2.951   6.446
 4133SOL    HW212774   3.317   3.064   6.361
 4134SOL     OW12775   3.328   2.452   6.578
 4134SOL    HW112776   3.298   2.357   6.585
 4134SOL    HW212777   3.401   2.468   6.644
 4135SOL     OW12778   3.719   2.695   5.963
 4135SOL    HW112779   3.761   2.631   6.027
 4135SOL    HW212780   3.681   2.644   5.885
 4136SOL     OW12781   2.350   3.247   5.760
 4136SOL    HW112782   2.263   3.232   5.807
 4136SOL    HW212783   2.333   3.273   5.665
 4137SOL     OW12784   3.526   3.142   6.243
 4137SOL    HW112785   3.625   3.150   6.257
 4137SOL    HW212786   3.481   3.226   6.274
 4138SOL     OW12787   3.252   2.437   5.664
 4138SOL    HW112788   3.198   2.416   5.745
 4138SOL    HW212789   3.343   2.396   5.673
 4139SOL     OW12790   2.389   2.118   5.914
 4139SOL    HW112791   2.416   2.059   5.839
 4139SOL    HW212792   2.389   2.213   5.883
 4140SOL     OW12793   3.616   3.085   7.174
 4140SOL    HW112794   3.707   3.046   7.161
 4140SOL    HW212795   3.624   3.181   7.198
 4141SOL     OW12796   2.926   3.209   6.926
 4141SOL    HW112797   2.846   3.186   6.981
 4141SOL    HW212798   3.009   3.183   6.975
 4142SOL     OW12799   3.454   3.491   7.211
 4142SOL    HW112800   3.481   3.525   7.121
 4142SOL    HW212801   3.533   3.453   7.257
 4143SOL     OW12802   2.973   3.057   6.686
 4143SOL    HW112803   2.933   3.101   6.767
 4143SOL    HW212804   2.932   3.094   6.603
 4144SOL     OW12805   3.500   2.961   6.665
 4144SOL    HW112806   3.505   3.042   6.724
 4144SOL    HW212807   3.414   2.963   6.614
 4145SOL     OW12808   2.777   1.951   6.988
 4145SOL    HW112809   2.802   1.931   6.893
 4145SOL    HW212810   2.849   2.007   7.030
 4146SOL     OW12811   2.842   2.978   7.305
 4146SOL    HW112812   2.743   2.984   7.315
 4146SOL    HW212813   2.865   2.898   7.249
 4147SOL     OW12814   2.272   2.675   6.837
 4147SOL    HW112815   2.358   2.687   6.887
 4147SOL    HW212816   2.230   2.588   6.864
 4148SOL     OW12817   3.136   2.248   6.848
 4148SOL    HW112818   3.157   2.322   6.912
 4148SOL    HW212819   3.047   2.265   6.805
 4149SOL     OW12820   1.926   3.426   6.917
 4149SOL    HW112821   1.880   3.508   6.883
 4149SOL    HW212822   2.024   3.445   6.926
 4150SOL     OW12823   2.229   2.962   6.087
 4150SOL    HW112824   2.222   3.045   6.031
 4150SOL    HW212825   2.233   2.882   6.027
 4151SOL     OW12826   2.428   2.399   6.451
 4151SOL    HW112827   2.440   2.465   6.377
 4151SOL    HW212828   2.474   2.433   6.534
 4152SOL     OW12829   3.114   3.210   5.974
 4152SOL    HW112830   3.164   3.287   6.014
 4152SOL    HW212831   3.019   3.212   6.006
 4153SOL     OW12832   3.134   3.307   6.728
 4153SOL    HW112833   3.181   3.320   6.815
 4153SOL    HW212834   3.068   3.233   6.737
 4154SOL     OW12835   3.444   2.501   6.058
 4154SOL    HW112836   3.413   2.562   6.131
 4154SOL    HW212837   3.494   2.553   5.989
 4155SOL     OW12838   2.216   3.372   6.915
 4155SOL    HW112839   2.195   3.328   6.828
 4155SOL    HW212840   2.313   3.398   6.918
 4156SOL     OW12841   2.264   2.613   7.184
 4156SOL    HW112842   2.332   2.668   7.137
 4156SOL    HW212843   2.304   2.525   7.211
 4157SOL     OW12844   3.449   2.641   7.256
 4157SOL    HW112845   3.357   2.679   7.251
 4157SOL    HW212846   3.509   2.688   7.191
 4158SOL     OW12847   2.875   1.967   7.356
 4158SOL    HW112848   2.881   2.052   7.304
 4158SOL    HW212849   2.907   1.891   7.299
 4159SOL     OW12850   2.366   1.912   7.326
 4159SOL    HW112851   2.324   1.855   7.256
 4159SOL    HW212852   2.300   1.981   7.358
 4160SOL     OW12853   3.222   2.724   6.631
 4160SOL    HW112854   3.147   2.724   6.565
 4160SOL    HW212855   3.259   2.632   6.640
 4161SOL     OW12856   3.071   2.387   5.861
 4161SOL    HW112857   3.084   2.303   5.915
 4161SOL    HW212858   3.042   2.461   5.921
 4162SOL     OW12859   2.169   2.075   6.817
 4162SOL    HW112860   2.146   2.112   6.907
 4162SOL    HW212861   2.139   1.980   6.811
 4163SOL     OW12862   1.899   3.172   6.868
 4163SOL    HW112863   1.952   3.123   6.936
 4163SOL    HW212864   1.921   3.270   6.873
 4164SOL     OW12865   3.590   2.797   7.440
 4164SOL    HW112866   3.544   2.790   7.351
 4164SOL    HW212867   3.528   2.841   7.506
 4165SOL     OW12868   2.169   1.925   6.204
 4165SOL    HW112869   2.158   2.019   6.237
 4165SOL    HW212870   2.164   1.862   6.281
 4166SOL     OW12871   3.484   2.229   5.960
 4166SOL    HW112872   3.486   2.153   6.024
 4166SOL    HW212873   3.436   2.306   6.000
 4167SOL     OW12874   2.842   3.435   7.286
 4167SOL    HW112875   2.822   3.479   7.198
 4167SOL    HW212876   2.881   3.344   7.270
 4168SOL     OW12877   3.721   3.380   7.191
 4168SOL    HW112878   3.735   3.407   7.096
 4168SOL    HW212879   3.804   3.402   7.244
 4169SOL     OW12880   2.212   2.760   7.390
 4169SOL    HW112881   2.288   2.804   7.438
 4169SOL    HW212882   2.247   2.713   7.308
 4170SOL     OW12883   3.402   2.136   5.711
 4170SOL    HW112884   3.341   2.061   5.734
 4170SOL    HW212885   3.424   2.188   5.794
 4171SOL     OW12886   3.165   2.700   5.628
 4171SOL    HW112887   3.199   2.607   5.643
 4171SOL    HW212888   3.183   2.727   5.533
 4172SOL     OW12889   2.930   3.195   6.435
 4172SOL    HW112890   2.937   3.111   6.380
 4172SOL    HW212891   2.992   3.264   6.399
 4173SOL     OW12892   2.181   2.672   6.535
 4173SOL    HW112893   2.274   2.708   6.540
 4173SOL    HW212894   2.175   2.587   6.587
 4174SOL     OW12895   2.201   2.371   6.592
 4174SOL    HW112896   2.149   2.288   6.575
 4174SOL    HW212897   2.278   2.376   6.528
 4175SOL     OW12898   3.000   2.242   7.264
 4175SOL    HW112899   2.955   2.305   7.328
 4175SOL    HW212900   3.093   2.273   7.247
 4176SOL     OW12901   3.022   2.069   7.063
 4176SOL    HW112902   3.022   2.133   7.140
 4176SOL    HW212903   3.050   2.117   6.980
 4177SOL     OW12904   1.870   3.188   5.786
 4177SOL    HW112905   1.777   3.209   5.755
 4177SOL    HW212906   1.880   3.089   5.799
 4178SOL     OW12907   1.950   3.663   6.513
 4178SOL    HW112908   1.908   3.577   6.486
 4178SOL    HW212909   2.044   3.666   6.479
 4179SOL     OW12910   2.366   3.430   6.496
 4179SOL    HW112911   2.432   3.504   6.505
 4179SOL    HW212912   2.410   3.351   6.454
 4180SOL     OW12913   1.902   2.406   6.700
 4180SOL    HW112914   1.987   2.373   6.659
 4180SOL    HW212915   1.915   2.421   6.798
 4181SOL     OW12916   2.051   2.382   7.308
 4181SOL    HW112917   2.110   2.342   7.238
 4181SOL    HW212918   1.993   2.453   7.267
 4182SOL     OW12919   3.231   2.812   7.246
 4182SOL    HW112920   3.270   2.901   7.266
 4182SOL    HW212921   3.241   2.792   7.149
 4183SOL     OW12922   2.677   2.434   5.911
 4183SOL    HW112923   2.684   2.345   5.865
 4183SOL    HW212924   2.583   2.468   5.903
 4184SOL     OW12925   3.519   2.466   6.792
 4184SOL    HW112926   3.481   2.397   6.854
 4184SOL    HW212927   3.601   2.430   6.748
 4185SOL     OW12928   2.114   3.426   7.330
 4185SOL    HW112929   2.084   3.483   7.406
 4185SOL    HW212930   2.107   3.329   7.356
 4186SOL     OW12931   2.533   2.326   6.855
 4186SOL    HW112932   2.499   2.237   6.825
 4186SOL    HW212933   2.559   2.380   6.775
 4187SOL     OW12934   2.792   3.540   7.051
 4187SOL    HW112935   2.768   3.522   6.956
 4187SOL    HW212936   2.822   3.634   7.061
 4188SOL     OW12937   2.335   2.362   5.777
 4188SOL    HW112938   2.396   2.442   5.781
 4188SOL    HW212939   2.240   2.393   5.784
 4189SOL     OW12940   2.021   2.999   7.052
 4189SOL    HW112941   2.043   2.938   7.128
 4189SOL    HW212942   2.031   2.950   6.966
 4190SOL     OW12943   3.209   2.921   6.820
 4190SOL    HW112944   3.233   2.858   6.746
 4190SOL    HW212945   3.119   2.961   6.802
 4191SOL     OW12946   3.164   2.717   5.895
 4191SOL    HW112947   3.078   2.686   5.937
 4191SOL    HW212948   3.160   2.703   5.796
 4192SOL     OW12949   3.621   3.609   6.740
 4192SOL    HW112950   3.682   3.639   6.667
 4192SOL    HW212951   3.583   3.520   6.718
 4193SOL     OW12952   3.114   3.593   6.714
 4193SOL    HW112953   3.198   3.598   6.660
 4193SOL    HW212954   3.091   3.497   6.732
 4194SOL     OW12955   1.945   3.120   6.608
 4194SOL    HW112956   1.940   3.119   6.708
 4194SOL    HW212957   1.862   3.079   6.570
 4195SOL     OW12958   2.550   3.524   7.302
 4195SOL    HW112959   2.494   3.605   7.311
 4195SOL    HW212960   2.602   3.528   7.216
 4196SOL     OW12961   3.588   1.997   6.109
 4196SOL    HW112962   3.661   1.980   6.042
 4196SOL    HW212963   3.557   1.910   6.147
 4197SOL     OW12964   3.250   3.435   6.063
 4197SOL    HW112965   3.317   3.447   5.989
 4197SOL    HW212966   3.210   3.524   6.086
 4198SOL     OW12967   1.992   3.656   7.437
 4198SOL    HW112968   1.951   3.582   7.490
 4198SOL    HW212969   2.056   3.707   7.495
 4199SOL     OW12970   3.142   2.789   6.258
 4199SOL    HW112971   3.202   2.708   6.260
 4199SOL    HW212972   3.182   2.858   6.198
 4200SOL     OW12973   2.692   3.135   7.008
 4200SOL    HW112974   2.687   3.168   7.103
 4200SOL    HW212975   2.606   3.154   6.962
 4201SOL     OW12976   2.534   3.478   5.740
 4201SOL    HW112977   2.543   3.488   5.641
 4201SOL    HW212978   2.494   3.389   5.761
 4202SOL     OW12979   3.512   3.582   6.980
 4202SOL    HW112980   3.565   3.592   6.896
 4202SOL    HW212981   3.485   3.672   7.014
 4203SOL     OW12982   3.703   2.037   6.549
 4203SOL    HW112983   3.742   1.952   6.513
 4203SOL    HW212984   3.605   2.039   6.530
 4204SOL     OW12985   2.125   2.188   6.306
 4204SOL    HW112986   2.046   2.239   6.272
 4204SOL    HW212987   2.116   2.173   6.404
 4205SOL     OW12988   3.056   3.474   5.617
 4205SOL    HW112989   3.062   3.381   5.654
 4205SOL    HW212990   2.997   3.474   5.537
 4206SOL     OW12991   3.366   3.469   5.630
 4206SOL    HW112992   3.274   3.506   5.637
 4206SOL    HW212993   3.404   3.489   5.540
 4207SOL     OW12994   2.234   3.150   7.076
 4207SOL    HW112995   2.221   3.243   7.042
 4207SOL    HW212996   2.150   3.098   7.063
 4208SOL     OW12997   3.476   3.154   6.875
 4208SOL    HW112998   3.536   3.157   6.955
 4208SOL    HW212999   3.401   3.218   6.888
 4209SOL     OW13000   2.901   2.960   6.282
 4209SOL    HW113001   2.831   2.913   6.336
 4209SOL    HW213002   2.960   2.892   6.239
 4210SOL     OW13003   2.876   2.098   6.557
 4210SOL    HW113004   2.868   2.062   6.464
 4210SOL    HW213005   2.874   2.022   6.622
 4211SOL     OW13006   2.452   3.349   6.077
 4211SOL    HW113007   2.494   3.291   6.007
 4211SOL    HW213008   2.408   3.428   6.033
 4212SOL     OW13009   3.571   2.247   6.967
 4212SOL    HW113010   3.644   2.316   6.971
 4212SOL    HW213011   3.599   2.172   6.908
 4213SOL     OW13012   2.117   3.210   5.876
 4213SOL    HW113013   2.021   3.211   5.849
 4213SOL    HW213014   2.129   3.263   5.960
 4214SOL     OW13015   1.967   2.875   7.312
 4214SOL    HW113016   1.890   2.842   7.366
 4214SOL    HW213017   2.052   2.845   7.354
 4215SOL     OW13018   2.534   2.065   7.075
 4215SOL    HW113019   2.624   2.049   7.035
 4215SOL    HW213020   2.542   2.070   7.174
 4216SOL     OW13021   1.937   2.207   5.619
 4216SOL    HW113022   1.845   2.179   5.590
 4216SOL    HW213023   1.968   2.284   5.563
 4217SOL     OW13024   3.302   2.718   6.984
 4217SOL    HW113025   3.245   2.770   6.921
 4217SOL    HW213026   3.398   2.730   6.960
 4218SOL     OW13027   1.934   2.028   5.904
 4218SOL    HW113028   1.917   2.111   5.850
 4218SOL    HW213029   2.024   1.991   5.882
 4219SOL     OW13030   3.045   3.197   5.705
 4219SOL    HW113031   2.946   3.186   5.707
 4219SOL    HW213032   3.079   3.212   5.798
 4220SOL     OW13033   3.355   3.629   6.545
 4220SOL    HW113034   3.388   3.693   6.476
 4220SOL    HW213035   3.421   3.623   6.620
 4221SOL     OW13036   3.312   3.082   7.219
 4221SOL    HW113037   3.303   3.072   7.318
 4221SOL    HW213038   3.408   3.075   7.193
 4222SOL     OW13039   2.252   3.603   7.146
 4222SOL    HW113040   2.161   3.644   7.144
 4222SOL    HW213041   2.245   3.509   7.178
 4223SOL     OW13042   3.536   2.745   6.840
 4223SOL    HW113043   3.509   2.656   6.803
 4223SOL    HW213044   3.537   2.813   6.767
 4224SOL     OW13045   3.087   2.187   6.035
 4224SOL    HW113046   3.152   2.113   6.024
 4224SOL    HW213047   3.107   2.237   6.119
 4225SOL     OW13048   3.639   2.204   7.228
 4225SOL    HW113049   3.622   2.235   7.134
 4225SOL    HW213050   3.555   2.167   7.266
 4226SOL     OW13051   3.592   2.796   7.103
 4226SOL    HW113052   3.630   2.887   7.118
 4226SOL    HW213053   3.584   2.779   7.004
 4227SOL     OW13054   2.721   3.236   5.602
 4227SOL    HW113055   2.675   3.251   5.690
 4227SOL    HW213056   2.765   3.321   5.572
 4228SOL     OW13057   2.523   3.652   6.539
 4228SOL    HW113058   2.477   3.740   6.526
 4228SOL    HW213059   2.622   3.664   6.532
 4229SOL     OW13060   2.945   2.846   5.673
 4229SOL    HW113061   2.922   2.899   5.591
 4229SOL    HW213062   3.026   2.790   5.654
 4230SOL     OW13063   3.723   3.431   6.437
 4230SOL    HW113064   3.652   3.419   6.367
 4230SOL    HW213065   3.724   3.352   6.497
 4231SOL     OW13066   2.083   3.176   7.430
 4231SOL    HW113067   2.018   3.103   7.409
 4231SOL    HW213068   2.087   3.190   7.528
 4232SOL     OW13069   1.941   3.102   6.239
 4232SOL    HW113070   1.940   3.055   6.327
 4232SOL    HW213071   2.023   3.074   6.188
 4233SOL     OW13072   2.534   3.253   7.210
 4233SOL    HW113073   2.456   3.203   7.248
 4233SOL    HW213074   2.531   3.348   7.241
 4234SOL     OW13075   3.686   2.054   6.813
 4234SOL    HW113076   3.682   1.964   6.857
 4234SOL    HW213077   3.689   2.043   6.714
 4235SOL     OW13078   2.290   2.286   6.106
 4235SOL    HW113079   2.320   2.214   6.044
 4235SOL    HW213080   2.251   2.246   6.189
 4236SOL     OW13081   3.567   3.349   6.690
 4236SOL    HW113082   3.474   3.324   6.663
 4236SOL    HW213083   3.593   3.299   6.772
 4237SOL     OW13084   2.179   2.409   6.866
 4237SOL    HW113085   2.217   2.350   6.938
 4237SOL    HW213086   2.219   2.383   6.778
 4238SOL     OW13087   2.674   3.448   6.273
 4238SOL    HW113088   2.706   3.458   6.179
 4238SOL    HW213089   2.595   3.386   6.275
 4239SOL     OW13090   3.286   2.076   6.698
 4239SOL    HW113091   3.338   2.011   6.753
 4239SOL    HW213092   3.237   2.139   6.759
 4240SOL     OW13093   2.863   1.896   6.740
 4240SOL    HW113094   2.800   1.824   6.709
 4240SOL    HW213095   2.956   1.860   6.740
 4241SOL     OW13096   2.632   3.192   5.887
 4241SOL    HW113097   2.586   3.105   5.904
 4241SOL    HW213098   2.723   3.189   5.928
 4242SOL     OW13099   2.480   3.429   6.870
 4242SOL    HW113100   2.475   3.511   6.927
 4242SOL    HW213101   2.569   3.426   6.825
 4243SOL     OW13102   3.214   1.914   5.754
 4243SOL    HW113103   3.249   1.873   5.670
 4243SOL    HW213104   3.124   1.876   5.774
 4244SOL     OW13105   3.162   2.315   6.277
 4244SOL    HW113106   3.103   2.395   6.281
 4244SOL    HW213107   3.177   2.280   6.370
 4245SOL     OW13108   3.455   2.083   6.468
 4245SOL    HW113109   3.371   2.082   6.522
 4245SOL    HW213110   3.457   2.166   6.412
 4246SOL     OW13111   1.901   2.939   5.886
 4246SOL    HW113112   2.000   2.928   5.877
 4246SOL    HW213113   1.861   2.853   5.918
 4247SOL     OW13114   2.737   3.508   5.923
 4247SOL    HW113115   2.660   3.473   5.869
 4247SOL    HW213116   2.705   3.579   5.985
 4248SOL     OW13117   2.092   2.490   7.561
 4248SOL    HW113118   1.999   2.488   7.598
 4248SOL    HW213119   2.093   2.451   7.469
 4249SOL     OW13120   3.617   2.469   7.679
 4249SOL    HW113121   3.605   2.456   7.580
 4249SOL    HW213122   3.587   2.388   7.728
 4250SOL     OW13123   2.093   3.575   7.931
 4250SOL    HW113124   2.127   3.652   7.985
 4250SOL    HW213125   2.137   3.575   7.841
 4251SOL     OW13126   2.092   3.296   7.986
 4251SOL    HW113127   2.066   3.392   7.986
 4251SOL    HW213128   2.021   3.242   8.031
 4252SOL     OW13129   2.468   2.826   7.571
 4252SOL    HW113130   2.475   2.910   7.517
 4252SOL    HW213131   2.514   2.839   7.659
 4253SOL     OW13132   3.704   3.629   7.807
 4253SOL    HW113133   3.758   3.600   7.887
 4253SOL    HW213134   3.734   3.719   7.778
 4254SOL     OW13135   1.889   3.458   7.565
 4254SOL    HW113136   1.870   3.362   7.586
 4254SOL    HW213137   1.856   3.516   7.640
 4255SOL     OW13138   3.551   2.784   8.060
 4255SOL    HW113139   3.646   2.755   8.068
 4255SOL    HW213140   3.543   2.849   7.985
 4256SOL     OW13141   3.503   2.970   7.880
 4256SOL    HW113142   3.589   2.972   7.828
 4256SOL    HW213143   3.517   3.017   7.968
 4257SOL     OW13144   2.671   1.866   7.950
 4257SOL    HW113145   2.711   1.957   7.941
 4257SOL    HW213146   2.571   1.874   7.956
 4258SOL     OW13147   3.387   2.861   7.638
 4258SOL    HW113148   3.324   2.785   7.651
 4258SOL    HW213149   3.435   2.879   7.724
 4259SOL     OW13150   3.438   3.524   7.755
 4259SOL    HW113151   3.527   3.570   7.758
 4259SOL    HW213152   3.417   3.500   7.660
 4260SOL     OW13153   1.938   2.673   8.237
 4260SOL    HW113154   2.037   2.661   8.246
 4260SOL    HW213155   1.914   2.768   8.258
 4261SOL     OW13156   2.727   2.210   7.643
 4261SOL    HW113157   2.786   2.273   7.594
 4261SOL    HW213158   2.746   2.116   7.614
 4262SOL     OW13159   2.183   2.805   7.690
 4262SOL    HW113160   2.265   2.844   7.648
 4262SOL    HW213161   2.156   2.723   7.641
 4263SOL     OW13162   2.973   3.638   7.685
 4263SOL    HW113163   2.913   3.576   7.735
 4263SOL    HW213164   3.004   3.594   7.600
 4264SOL     OW13165   3.494   3.239   7.529
 4264SOL    HW113166   3.462   3.333   7.519
 4264SOL    HW213167   3.418   3.176   7.517
 4265SOL     OW13168   2.326   3.605   7.771
 4265SOL    HW113169   2.359   3.644   7.857
 4265SOL    HW213170   2.402   3.598   7.706
 4266SOL     OW13171   3.262   1.969   7.874
 4266SOL    HW113172   3.238   1.932   7.784
 4266SOL    HW213173   3.361   1.985   7.878
 4267SOL     OW13174   2.244   2.562   7.928
 4267SOL    HW113175   2.289   2.472   7.925
 4267SOL    HW213176   2.150   2.551   7.961
 4268SOL     OW13177   2.476   1.984   7.565
 4268SOL    HW113178   2.574   1.962   7.572
 4268SOL    HW213179   2.445   1.967   7.472
 4269SOL     OW13180   2.401   1.926   7.960
 4269SOL    HW113181   2.320   1.927   8.018
 4269SOL    HW213182   2.404   2.009   7.905
 4270SOL     OW13183   3.296   3.050   7.489
 4270SOL    HW113184   3.328   2.974   7.546
 4270SOL    HW213185   3.204   3.077   7.519
 4271SOL     OW13186   2.159   1.897   7.619
 4271SOL    HW113187   2.208   1.981   7.598
 4271SOL    HW213188   2.221   1.832   7.664
 4272SOL     OW13189   2.797   2.098   7.928
 4272SOL    HW113190   2.749   2.139   7.850
 4272SOL    HW213191   2.896   2.096   7.909
 4273SOL     OW13192   2.321   3.014   8.189
 4273SOL    HW113193   2.250   2.987   8.254
 4273SOL    HW213194   2.295   2.986   8.096
 4274SOL     OW13195   3.133   3.659   8.039
 4274SOL    HW113196   3.177   3.723   7.975
 4274SOL    HW213197   3.083   3.711   8.109
 4275SOL     OW13198   2.894   2.411   7.464
 4275SOL    HW113199   2.853   2.493   7.425
 4275SOL    HW213200   2.958   2.437   7.537
 4276SOL     OW13201   3.719   2.695   7.825
 4276SOL    HW113202   3.761   2.631   7.889
 4276SOL    HW213203   3.681   2.644   7.747
 4277SOL     OW13204   2.350   3.247   7.622
 4277SOL    HW113205   2.263   3.232   7.669
 4277SOL    HW213206   2.333   3.273   7.527
 4278SOL     OW13207   3.252   2.437   7.526
 4278SOL    HW113208   3.198   2.416   7.607
 4278SOL    HW213209   3.343   2.396   7.535
 4279SOL     OW13210   2.389   2.118   7.776
 4279SOL    HW113211   2.416   2.059   7.701
 4279SOL    HW213212   2.389   2.213   7.745
 4280SOL     OW13213   2.567   2.912   7.816
 4280SOL    HW113214   2.553   2.919   7.915
 4280SOL    HW213215   2.651   2.861   7.798
 4281SOL     OW13216   2.229   2.962   7.949
 4281SOL    HW113217   2.222   3.045   7.893
 4281SOL    HW213218   2.233   2.882   7.889
 4282SOL     OW13219   3.114   3.210   7.836
 4282SOL    HW113220   3.164   3.287   7.876
 4282SOL    HW213221   3.019   3.212   7.868
 4283SOL     OW13222   3.444   2.501   7.920
 4283SOL    HW113223   3.413   2.562   7.993
 4283SOL    HW213224   3.494   2.553   7.851
 4284SOL     OW13225   3.071   2.387   7.723
 4284SOL    HW113226   3.084   2.303   7.777
 4284SOL    HW213227   3.042   2.461   7.783
 4285SOL     OW13228   3.484   2.229   7.822
 4285SOL    HW113229   3.486   2.153   7.886
 4285SOL    HW213230   3.436   2.306   7.862
 4286SOL     OW13231   3.402   2.136   7.573
 4286SOL    HW113232   3.341   2.061   7.596
 4286SOL    HW213233   3.424   2.188   7.656
 4287SOL     OW13234   3.165   2.700   7.490
 4287SOL    HW113235   3.199   2.607   7.505
 4287SOL    HW213236   3.183   2.727   7.395
 4288SOL     OW13237   1.870   3.188   7.648
 4288SOL    HW113238   1.777   3.209   7.617
 4288SOL    HW213239   1.880   3.089   7.661
 4289SOL     OW13240   2.335   2.362   7.639
 4289SOL    HW113241   2.396   2.442   7.643
 4289SOL    HW213242   2.240   2.393   7.646
 4290SOL     OW13243   3.164   2.717   7.757
 4290SOL    HW113244   3.078   2.686   7.799
 4290SOL    HW213245   3.160   2.703   7.658
 4291SOL     OW13246   3.588   1.997   7.971
 4291SOL    HW113247   3.661   1.980   7.904
 4291SOL    HW213248   3.557   1.910   8.009
 4292SOL     OW13249   3.250   3.435   7.925
 4292SOL    HW113250   3.317   3.447   7.851
 4292SOL    HW213251   3.210   3.524   7.948
 4293SOL     OW13252   2.534   3.478   7.602
 4293SOL    HW113253   2.543   3.488   7.503
 4293SOL    HW213254   2.494   3.389   7.623
 4294SOL     OW13255   3.056   3.474   7.479
 4294SOL    HW113256   3.062   3.381   7.516
 4294SOL    HW213257   2.997   3.474   7.399
 4295SOL     OW13258   3.366   3.469   7.492
 4295SOL    HW113259   3.274   3.506   7.499
 4295SOL    HW213260   3.404   3.489   7.402
 4296SOL     OW13261   2.452   3.349   7.939
 4296SOL    HW113262   2.494   3.291   7.869
 4296SOL    HW213263   2.408   3.428   7.895
 4297SOL     OW13264   2.117   3.210   7.738
 4297SOL    HW113265   2.021   3.211   7.711
 4297SOL    HW213266   2.129   3.263   7.822
 4298SOL     OW13267   1.937   2.207   7.481
 4298SOL    HW113268   1.845   2.179   7.452
 4298SOL    HW213269   1.968   2.284   7.425
 4299SOL     OW13270   1.934   2.028   7.766
 4299SOL    HW113271   1.917   2.111   7.712
 4299SOL    HW213272   2.024   1.991   7.744
 4300SOL     OW13273   3.045   3.197   7.567
 4300SOL    HW113274   2.946   3.186   7.569
 4300SOL    HW213275   3.079   3.212   7.660
 4301SOL     OW13276   3.087   2.187   7.897
 4301SOL    HW113277   3.152   2.113   7.886
 4301SOL    HW213278   3.107   2.237   7.981
 4302SOL     OW13279   2.721   3.236   7.464
 4302SOL    HW113280   2.675   3.251   7.552
 4302SOL    HW213281   2.765   3.321   7.434
 4303SOL     OW13282   2.945   2.846   7.535
 4303SOL    HW113283   2.922   2.899   7.453
 4303SOL    HW213284   3.026   2.790   7.516
 4304SOL     OW13285   2.290   2.286   7.968
 4304SOL    HW113286   2.320   2.214   7.906
 4304SOL    HW213287   2.251   2.246   8.051
 4305SOL     OW13288   2.632   3.192   7.749
 4305SOL    HW113289   2.586   3.105   7.766
 4305SOL    HW213290   2.723   3.189   7.790
 4306SOL     OW13291   3.214   1.914   7.616
 4306SOL    HW113292   3.249   1.873   7.532
 4306SOL    HW213293   3.124   1.876   7.636
 4307SOL     OW13294   1.901   2.939   7.748
 4307SOL    HW113295   2.000   2.928   7.739
 4307SOL    HW213296   1.861   2.853   7.780
 4308SOL     OW13297   2.737   3.508   7.785
 4308SOL    HW113298   2.660   3.473   7.731
 4308SOL    HW213299   2.705   3.579   7.847
 4309SOL     OW13300   2.092   4.352   0.113
 4309SOL    HW113301   1.999   4.350   0.150
 4309SOL    HW213302   2.093   4.313   0.021
 4310SOL     OW13303   2.087   3.999   0.996
 4310SOL    HW113304   2.122   3.982   1.088
 4310SOL    HW213305   1.999   3.954   0.984
 4311SOL     OW13306   1.881   4.092   0.647
 4311SOL    HW113307   1.799   4.135   0.686
 4311SOL    HW213308   1.853   4.019   0.584
 4312SOL     OW13309   2.431   4.999   1.165
 4312SOL    HW113310   2.338   4.992   1.128
 4312SOL    HW213311   2.442   5.088   1.209
 4313SOL     OW13312   3.417   5.235   0.703
 4313SOL    HW113313   3.360   5.219   0.784
 4313SOL    HW213314   3.358   5.245   0.623
 4314SOL     OW13315   2.997   4.427   0.717
 4314SOL    HW113316   3.054   4.505   0.692
 4314SOL    HW213317   2.937   4.453   0.793
 4315SOL     OW13318   3.617   4.331   0.231
 4315SOL    HW113319   3.605   4.318   0.132
 4315SOL    HW213320   3.587   4.250   0.280
 4316SOL     OW13321   2.630   4.868   1.023
 4316SOL    HW113322   2.552   4.885   1.083
 4316SOL    HW213323   2.664   4.955   0.987
 4317SOL     OW13324   2.712   4.522   1.823
 4317SOL    HW113325   2.708   4.598   1.888
 4317SOL    HW213326   2.734   4.558   1.732
 4318SOL     OW13327   2.547   4.736   0.665
 4318SOL    HW113328   2.616   4.720   0.735
 4318SOL    HW213329   2.474   4.793   0.703
 4319SOL     OW13330   2.548   4.885   1.803
 4319SOL    HW113331   2.608   4.964   1.817
 4319SOL    HW213332   2.462   4.916   1.762
 4320SOL     OW13333   2.197   5.159   1.061
 4320SOL    HW113334   2.119   5.128   1.008
 4320SOL    HW213335   2.255   5.217   1.004
 4321SOL     OW13336   3.322   5.229   1.339
 4321SOL    HW113337   3.346   5.323   1.365
 4321SOL    HW213338   3.306   5.175   1.421
 4322SOL     OW13339   2.300   4.116   1.499
 4322SOL    HW113340   2.382   4.060   1.508
 4322SOL    HW213341   2.219   4.058   1.503
 4323SOL     OW13342   3.465   4.171   0.737
 4323SOL    HW113343   3.391   4.217   0.687
 4323SOL    HW213344   3.516   4.239   0.790
 4324SOL     OW13345   2.989   5.065   1.690
 4324SOL    HW113346   3.036   5.065   1.778
 4324SOL    HW213347   2.941   4.978   1.679
 4325SOL     OW13348   2.092   5.158   0.538
 4325SOL    HW113349   2.066   5.254   0.538
 4325SOL    HW213350   2.021   5.104   0.583
 4326SOL     OW13351   2.102   4.815   0.886
 4326SOL    HW113352   2.116   4.731   0.938
 4326SOL    HW213353   2.047   4.879   0.941
 4327SOL     OW13354   2.468   4.688   0.123
 4327SOL    HW113355   2.475   4.772   0.069
 4327SOL    HW213356   2.514   4.701   0.211
 4328SOL     OW13357   3.456   3.838   1.480
 4328SOL    HW113358   3.438   3.905   1.408
 4328SOL    HW213359   3.453   3.884   1.569
 4329SOL     OW13360   1.984   4.367   0.563
 4329SOL    HW113361   1.939   4.279   0.580
 4329SOL    HW213362   1.983   4.421   0.647
 4330SOL     OW13363   1.889   5.320   0.117
 4330SOL    HW113364   1.870   5.224   0.138
 4330SOL    HW213365   1.856   5.378   0.192
 4331SOL     OW13366   3.551   4.646   0.612
 4331SOL    HW113367   3.646   4.617   0.620
 4331SOL    HW213368   3.543   4.711   0.537
 4332SOL     OW13369   3.503   4.832   0.432
 4332SOL    HW113370   3.589   4.834   0.380
 4332SOL    HW213371   3.517   4.879   0.520
 4333SOL     OW13372   1.975   4.461   1.597
 4333SOL    HW113373   2.063   4.448   1.642
 4333SOL    HW213374   1.962   4.558   1.575
 4334SOL     OW13375   2.475   5.089   0.726
 4334SOL    HW113376   2.426   5.002   0.735
 4334SOL    HW213377   2.452   5.132   0.639
 4335SOL     OW13378   3.155   4.952   1.423
 4335SOL    HW113379   3.192   4.879   1.365
 4335SOL    HW213380   3.207   4.957   1.508
 4336SOL     OW13381   2.671   3.728   0.502
 4336SOL    HW113382   2.711   3.819   0.493
 4336SOL    HW213383   2.571   3.736   0.508
 4337SOL     OW13384   2.059   4.700   1.264
 4337SOL    HW113385   2.148   4.655   1.250
 4337SOL    HW213386   1.986   4.635   1.245
 4338SOL     OW13387   3.387   4.723   0.190
 4338SOL    HW113388   3.324   4.647   0.203
 4338SOL    HW213389   3.435   4.741   0.276
 4339SOL     OW13390   2.179   3.975   1.801
 4339SOL    HW113391   2.250   4.046   1.807
 4339SOL    HW213392   2.091   4.014   1.829
 4340SOL     OW13393   3.328   5.141   0.953
 4340SOL    HW113394   3.269   5.147   1.033
 4340SOL    HW213395   3.313   5.053   0.907
 4341SOL     OW13396   2.460   4.453   0.270
 4341SOL    HW113397   2.484   4.522   0.202
 4341SOL    HW213398   2.382   4.486   0.324
 4342SOL     OW13399   3.143   4.069   0.944
 4342SOL    HW113400   3.057   4.019   0.931
 4342SOL    HW213401   3.205   4.015   1.000
 4343SOL     OW13402   2.669   4.329   1.465
 4343SOL    HW113403   2.622   4.326   1.554
 4343SOL    HW213404   2.618   4.274   1.399
 4344SOL     OW13405   3.256   4.193   1.674
 4344SOL    HW113406   3.236   4.236   1.762
 4344SOL    HW213407   3.334   4.131   1.683
 4345SOL     OW13408   2.835   4.614   1.572
 4345SOL    HW113409   2.881   4.530   1.543
 4345SOL    HW213410   2.779   4.648   1.497
 4346SOL     OW13411   2.853   4.134   1.242
 4346SOL    HW113412   2.776   4.168   1.296
 4346SOL    HW213413   2.819   4.083   1.163
 4347SOL     OW13414   2.903   4.425   0.429
 4347SOL    HW113415   2.929   4.421   0.525
 4347SOL    HW213416   2.818   4.374   0.415
 4348SOL     OW13417   1.938   4.535   0.789
 4348SOL    HW113418   2.037   4.523   0.798
 4348SOL    HW213419   1.914   4.630   0.810
 4349SOL     OW13420   2.727   4.072   0.195
 4349SOL    HW113421   2.786   4.135   0.146
 4349SOL    HW213422   2.746   3.978   0.166
 4350SOL     OW13423   3.581   4.309   1.831
 4350SOL    HW113424   3.555   4.398   1.795
 4350SOL    HW213425   3.579   4.241   1.758
 4351SOL     OW13426   3.224   4.868   0.545
 4351SOL    HW113427   3.307   4.839   0.497
 4351SOL    HW213428   3.175   4.935   0.489
 4352SOL     OW13429   2.412   3.920   0.885
 4352SOL    HW113430   2.407   3.915   0.985
 4352SOL    HW213431   2.414   4.016   0.856
 4353SOL     OW13432   2.870   5.180   0.477
 4353SOL    HW113433   2.824   5.252   0.425
 4353SOL    HW213434   2.866   5.200   0.575
 4354SOL     OW13435   3.657   4.790   0.873
 4354SOL    HW113436   3.595   4.775   0.797
 4354SOL    HW213437   3.605   4.801   0.958
 4355SOL     OW13438   3.089   5.274   1.506
 4355SOL    HW113439   3.095   5.197   1.570
 4355SOL    HW213440   3.037   5.248   1.426
 4356SOL     OW13441   2.183   4.667   0.242
 4356SOL    HW113442   2.265   4.706   0.200
 4356SOL    HW213443   2.156   4.585   0.193
 4357SOL     OW13444   3.320   4.459   0.728
 4357SOL    HW113445   3.315   4.394   0.803
 4357SOL    HW213446   3.400   4.518   0.741
 4358SOL     OW13447   2.323   4.990   1.727
 4358SOL    HW113448   2.273   4.991   1.641
 4358SOL    HW213449   2.260   4.972   1.803
 4359SOL     OW13450   2.973   5.500   0.237
 4359SOL    HW113451   2.913   5.438   0.287
 4359SOL    HW213452   3.004   5.456   0.152
 4360SOL     OW13453   2.064   4.009   1.498
 4360SOL    HW113454   1.984   4.069   1.485
 4360SOL    HW213455   2.054   3.960   1.584
 4361SOL     OW13456   3.494   5.101   0.081
 4361SOL    HW113457   3.462   5.195   0.071
 4361SOL    HW213458   3.418   5.038   0.069
 4362SOL     OW13459   3.262   3.831   0.426
 4362SOL    HW113460   3.238   3.794   0.336
 4362SOL    HW213461   3.361   3.847   0.430
 4363SOL     OW13462   2.244   4.424   0.480
 4363SOL    HW113463   2.289   4.334   0.477
 4363SOL    HW213464   2.150   4.413   0.513
 4364SOL     OW13465   3.409   3.946   1.729
 4364SOL    HW113466   3.404   3.983   1.821
 4364SOL    HW213467   3.337   3.877   1.717
 4365SOL     OW13468   2.476   3.846   0.117
 4365SOL    HW113469   2.574   3.824   0.124
 4365SOL    HW213470   2.445   3.829   0.024
 4366SOL     OW13471   2.643   3.988   1.749
 4366SOL    HW113472   2.710   3.927   1.792
 4366SOL    HW213473   2.570   4.007   1.814
 4367SOL     OW13474   3.213   4.314   1.433
 4367SOL    HW113475   3.241   4.271   1.518
 4367SOL    HW213476   3.238   4.410   1.434
 4368SOL     OW13477   2.665   5.126   0.924
 4368SOL    HW113478   2.755   5.140   0.882
 4368SOL    HW213479   2.594   5.128   0.853
 4369SOL     OW13480   2.784   4.227   0.899
 4369SOL    HW113481   2.759   4.218   0.803
 4369SOL    HW213482   2.832   4.145   0.930
 4370SOL     OW13483   2.401   3.788   0.512
 4370SOL    HW113484   2.320   3.789   0.570
 4370SOL    HW213485   2.404   3.871   0.457
 4371SOL     OW13486   3.296   4.912   0.041
 4371SOL    HW113487   3.328   4.836   0.098
 4371SOL    HW213488   3.204   4.939   0.071
 4372SOL     OW13489   2.159   3.759   0.171
 4372SOL    HW113490   2.208   3.843   0.150
 4372SOL    HW213491   2.221   3.694   0.216
 4373SOL     OW13492   2.797   3.960   0.480
 4373SOL    HW113493   2.749   4.001   0.402
 4373SOL    HW213494   2.896   3.958   0.461
 4374SOL     OW13495   2.938   4.407   1.464
 4374SOL    HW113496   2.858   4.346   1.467
 4374SOL    HW213497   3.019   4.354   1.440
 4375SOL     OW13498   3.089   5.294   0.793
 4375SOL    HW113499   3.110   5.368   0.728
 4375SOL    HW213500   3.157   5.294   0.866
 4376SOL     OW13501   2.321   4.876   0.741
 4376SOL    HW113502   2.250   4.849   0.806
 4376SOL    HW213503   2.295   4.848   0.648
 4377SOL     OW13504   2.894   4.273   0.016
 4377SOL    HW113505   2.853   4.355  -0.023
 4377SOL    HW213506   2.958   4.299   0.089
 4378SOL     OW13507   1.940   4.280   1.386
 4378SOL    HW113508   2.032   4.279   1.345
 4378SOL    HW213509   1.934   4.354   1.453
 4379SOL     OW13510   2.423   3.946   1.147
 4379SOL    HW113511   2.461   3.862   1.184
 4379SOL    HW213512   2.335   3.965   1.191
 4380SOL     OW13513   2.728   4.178   0.642
 4380SOL    HW113514   2.696   4.250   0.580
 4380SOL    HW213515   2.752   4.097   0.589
 4381SOL     OW13516   2.879   3.763   0.753
 4381SOL    HW113517   2.807   3.768   0.684
 4381SOL    HW213518   2.855   3.694   0.822
 4382SOL     OW13519   3.291   4.897   0.867
 4382SOL    HW113520   3.236   4.813   0.860
 4382SOL    HW213521   3.317   4.926   0.775
 4383SOL     OW13522   3.328   4.314   0.992
 4383SOL    HW113523   3.298   4.219   0.999
 4383SOL    HW213524   3.401   4.330   1.058
 4384SOL     OW13525   3.719   4.557   0.377
 4384SOL    HW113526   3.761   4.493   0.441
 4384SOL    HW213527   3.681   4.506   0.299
 4385SOL     OW13528   2.350   5.109   0.174
 4385SOL    HW113529   2.263   5.094   0.221
 4385SOL    HW213530   2.333   5.135   0.079
 4386SOL     OW13531   3.526   5.004   0.657
 4386SOL    HW113532   3.625   5.012   0.671
 4386SOL    HW213533   3.481   5.088   0.688
 4387SOL     OW13534   3.252   4.299   0.078
 4387SOL    HW113535   3.198   4.278   0.159
 4387SOL    HW213536   3.343   4.258   0.087
 4388SOL     OW13537   2.389   3.980   0.328
 4388SOL    HW113538   2.416   3.921   0.253
 4388SOL    HW213539   2.389   4.075   0.297
 4389SOL     OW13540   3.616   4.947   1.588
 4389SOL    HW113541   3.707   4.908   1.575
 4389SOL    HW213542   3.624   5.043   1.612
 4390SOL     OW13543   2.926   5.071   1.340
 4390SOL    HW113544   2.846   5.048   1.395
 4390SOL    HW213545   3.009   5.045   1.389
 4391SOL     OW13546   2.973   4.919   1.100
 4391SOL    HW113547   2.933   4.963   1.181
 4391SOL    HW213548   2.932   4.956   1.017
 4392SOL     OW13549   3.500   4.823   1.079
 4392SOL    HW113550   3.505   4.904   1.138
 4392SOL    HW213551   3.414   4.825   1.028
 4393SOL     OW13552   2.777   3.813   1.402
 4393SOL    HW113553   2.802   3.793   1.307
 4393SOL    HW213554   2.849   3.869   1.444
 4394SOL     OW13555   2.842   4.840   1.719
 4394SOL    HW113556   2.743   4.846   1.729
 4394SOL    HW213557   2.865   4.760   1.663
 4395SOL     OW13558   2.567   4.774   0.368
 4395SOL    HW113559   2.553   4.781   0.467
 4395SOL    HW213560   2.651   4.723   0.350
 4396SOL     OW13561   2.272   4.537   1.251
 4396SOL    HW113562   2.358   4.549   1.301
 4396SOL    HW213563   2.230   4.450   1.278
 4397SOL     OW13564   3.136   4.110   1.262
 4397SOL    HW113565   3.157   4.184   1.326
 4397SOL    HW213566   3.047   4.127   1.219
 4398SOL     OW13567   2.229   4.824   0.501
 4398SOL    HW113568   2.222   4.907   0.445
 4398SOL    HW213569   2.233   4.744   0.441
 4399SOL     OW13570   2.428   4.261   0.865
 4399SOL    HW113571   2.440   4.327   0.791
 4399SOL    HW213572   2.474   4.295   0.948
 4400SOL     OW13573   3.114   5.072   0.388
 4400SOL    HW113574   3.164   5.149   0.428
 4400SOL    HW213575   3.019   5.074   0.420
 4401SOL     OW13576   3.134   5.169   1.142
 4401SOL    HW113577   3.181   5.182   1.229
 4401SOL    HW213578   3.068   5.095   1.151
 4402SOL     OW13579   3.444   4.363   0.472
 4402SOL    HW113580   3.413   4.424   0.545
 4402SOL    HW213581   3.494   4.415   0.403
 4403SOL     OW13582   2.216   5.234   1.329
 4403SOL    HW113583   2.195   5.190   1.242
 4403SOL    HW213584   2.313   5.260   1.332
 4404SOL     OW13585   2.264   4.475   1.598
 4404SOL    HW113586   2.332   4.530   1.551
 4404SOL    HW213587   2.304   4.387   1.625
 4405SOL     OW13588   3.449   4.503   1.670
 4405SOL    HW113589   3.357   4.541   1.665
 4405SOL    HW213590   3.509   4.550   1.605
 4406SOL     OW13591   2.875   3.829   1.770
 4406SOL    HW113592   2.881   3.914   1.718
 4406SOL    HW213593   2.907   3.753   1.713
 4407SOL     OW13594   2.366   3.774   1.740
 4407SOL    HW113595   2.324   3.717   1.670
 4407SOL    HW213596   2.300   3.843   1.772
 4408SOL     OW13597   2.435   4.594   1.029
 4408SOL    HW113598   2.479   4.683   1.020
 4408SOL    HW213599   2.372   4.594   1.106
 4409SOL     OW13600   3.222   4.586   1.045
 4409SOL    HW113601   3.147   4.586   0.979
 4409SOL    HW213602   3.259   4.494   1.054
 4410SOL     OW13603   3.071   4.249   0.275
 4410SOL    HW113604   3.084   4.165   0.329
 4410SOL    HW213605   3.042   4.323   0.335
 4411SOL     OW13606   2.169   3.937   1.231
 4411SOL    HW113607   2.146   3.974   1.321
 4411SOL    HW213608   2.139   3.842   1.225
 4412SOL     OW13609   1.899   5.034   1.282
 4412SOL    HW113610   1.952   4.985   1.350
 4412SOL    HW213611   1.921   5.132   1.287
 4413SOL     OW13612   2.594   4.358   1.064
 4413SOL    HW113613   2.653   4.332   0.988
 4413SOL    HW213614   2.566   4.454   1.053
 4414SOL     OW13615   3.590   4.659   1.854
 4414SOL    HW113616   3.544   4.652   1.765
 4414SOL    HW213617   3.528   4.703   1.920
 4415SOL     OW13618   2.169   3.787   0.618
 4415SOL    HW113619   2.158   3.881   0.651
 4415SOL    HW213620   2.164   3.724   0.695
 4416SOL     OW13621   3.484   4.091   0.374
 4416SOL    HW113622   3.486   4.015   0.438
 4416SOL    HW213623   3.436   4.168   0.414
 4417SOL     OW13624   2.885   4.490   0.966
 4417SOL    HW113625   2.900   4.511   1.062
 4417SOL    HW213626   2.855   4.395   0.957
 4418SOL     OW13627   3.721   5.242   1.605
 4418SOL    HW113628   3.735   5.269   1.510
 4418SOL    HW213629   3.804   5.264   1.658
 4419SOL     OW13630   2.212   4.622   1.804
 4419SOL    HW113631   2.288   4.666   1.852
 4419SOL    HW213632   2.247   4.575   1.722
 4420SOL     OW13633   3.402   3.998   0.125
 4420SOL    HW113634   3.341   3.923   0.148
 4420SOL    HW213635   3.424   4.050   0.208
 4421SOL     OW13636   3.165   4.562   0.042
 4421SOL    HW113637   3.199   4.469   0.057
 4421SOL    HW213638   3.183   4.589  -0.053
 4422SOL     OW13639   2.930   5.057   0.849
 4422SOL    HW113640   2.937   4.973   0.794
 4422SOL    HW213641   2.992   5.126   0.813
 4423SOL     OW13642   2.181   4.534   0.949
 4423SOL    HW113643   2.274   4.570   0.954
 4423SOL    HW213644   2.175   4.449   1.001
 4424SOL     OW13645   2.201   4.233   1.006
 4424SOL    HW113646   2.149   4.150   0.989
 4424SOL    HW213647   2.278   4.238   0.942
 4425SOL     OW13648   3.000   4.104   1.678
 4425SOL    HW113649   2.955   4.167   1.742
 4425SOL    HW213650   3.093   4.135   1.661
 4426SOL     OW13651   3.022   3.931   1.477
 4426SOL    HW113652   3.022   3.995   1.554
 4426SOL    HW213653   3.050   3.979   1.394
 4427SOL     OW13654   1.870   5.050   0.200
 4427SOL    HW113655   1.777   5.071   0.169
 4427SOL    HW213656   1.880   4.951   0.213
 4428SOL     OW13657   2.864   4.520   1.238
 4428SOL    HW113658   2.905   4.488   1.324
 4428SOL    HW213659   2.768   4.493   1.235
 4429SOL     OW13660   1.902   4.268   1.114
 4429SOL    HW113661   1.987   4.235   1.073
 4429SOL    HW213662   1.915   4.283   1.212
 4430SOL     OW13663   2.051   4.244   1.722
 4430SOL    HW113664   2.110   4.204   1.652
 4430SOL    HW213665   1.993   4.315   1.681
 4431SOL     OW13666   3.231   4.674   1.660
 4431SOL    HW113667   3.270   4.763   1.680
 4431SOL    HW213668   3.241   4.654   1.563
 4432SOL     OW13669   2.677   4.296   0.325
 4432SOL    HW113670   2.684   4.207   0.279
 4432SOL    HW213671   2.583   4.330   0.317
 4433SOL     OW13672   3.519   4.328   1.206
 4433SOL    HW113673   3.481   4.259   1.268
 4433SOL    HW213674   3.601   4.292   1.162
 4434SOL     OW13675   2.114   5.288   1.744
 4434SOL    HW113676   2.084   5.345   1.820
 4434SOL    HW213677   2.107   5.191   1.770
 4435SOL     OW13678   2.533   4.188   1.269
 4435SOL    HW113679   2.499   4.099   1.239
 4435SOL    HW213680   2.559   4.242   1.189
 4436SOL     OW13681   2.335   4.224   0.191
 4436SOL    HW113682   2.396   4.304   0.195
 4436SOL    HW213683   2.240   4.255   0.198
 4437SOL     OW13684   2.021   4.861   1.466
 4437SOL    HW113685   2.043   4.800   1.542
 4437SOL    HW213686   2.031   4.812   1.380
 4438SOL     OW13687   3.209   4.783   1.234
 4438SOL    HW113688   3.233   4.720   1.160
 4438SOL    HW213689   3.119   4.823   1.216
 4439SOL     OW13690   3.164   4.579   0.309
 4439SOL    HW113691   3.078   4.548   0.351
 4439SOL    HW213692   3.160   4.565   0.210
 4440SOL     OW13693   1.945   4.982   1.022
 4440SOL    HW113694   1.940   4.981   1.122
 4440SOL    HW213695   1.862   4.941   0.984
 4441SOL     OW13696   2.550   5.386   1.716
 4441SOL    HW113697   2.494   5.467   1.725
 4441SOL    HW213698   2.602   5.390   1.630
 4442SOL     OW13699   2.765   3.810   0.133
 4442SOL    HW113700   2.816   3.811   0.047
 4442SOL    HW213701   2.821   3.768   0.204
 4443SOL     OW13702   3.588   3.859   0.523
 4443SOL    HW113703   3.661   3.842   0.456
 4443SOL    HW213704   3.557   3.772   0.561
 4444SOL     OW13705   3.142   4.651   0.672
 4444SOL    HW113706   3.202   4.570   0.674
 4444SOL    HW213707   3.182   4.720   0.612
 4445SOL     OW13708   2.692   4.997   1.422
 4445SOL    HW113709   2.687   5.030   1.517
 4445SOL    HW213710   2.606   5.016   1.376
 4446SOL     OW13711   3.703   3.899   0.963
 4446SOL    HW113712   3.742   3.814   0.927
 4446SOL    HW213713   3.605   3.901   0.944
 4447SOL     OW13714   2.125   4.050   0.720
 4447SOL    HW113715   2.046   4.101   0.686
 4447SOL    HW213716   2.116   4.035   0.818
 4448SOL     OW13717   3.056   5.336   0.031
 4448SOL    HW113718   3.062   5.243   0.068
 4448SOL    HW213719   2.997   5.336  -0.049
 4449SOL     OW13720   2.684   4.726   1.372
 4449SOL    HW113721   2.724   4.725   1.280
 4449SOL    HW213722   2.694   4.818   1.412
 4450SOL     OW13723   2.778   4.634   0.291
 4450SOL    HW113724   2.841   4.672   0.223
 4450SOL    HW213725   2.818   4.551   0.330
 4451SOL     OW13726   2.234   5.012   1.490
 4451SOL    HW113727   2.221   5.105   1.456
 4451SOL    HW213728   2.150   4.960   1.477
 4452SOL     OW13729   3.476   5.016   1.289
 4452SOL    HW113730   3.536   5.019   1.369
 4452SOL    HW213731   3.401   5.080   1.302
 4453SOL     OW13732   2.901   4.822   0.696
 4453SOL    HW113733   2.831   4.775   0.750
 4453SOL    HW213734   2.960   4.754   0.653
 4454SOL     OW13735   2.876   3.960   0.971
 4454SOL    HW113736   2.868   3.924   0.878
 4454SOL    HW213737   2.874   3.884   1.036
 4455SOL     OW13738   3.571   4.109   1.381
 4455SOL    HW113739   3.644   4.178   1.385
 4455SOL    HW213740   3.599   4.034   1.322
 4456SOL     OW13741   2.117   5.072   0.290
 4456SOL    HW113742   2.021   5.073   0.263
 4456SOL    HW213743   2.129   5.125   0.374
 4457SOL     OW13744   1.967   4.737   1.726
 4457SOL    HW113745   1.890   4.704   1.780
 4457SOL    HW213746   2.052   4.707   1.768
 4458SOL     OW13747   2.534   3.927   1.489
 4458SOL    HW113748   2.624   3.911   1.449
 4458SOL    HW213749   2.542   3.932   1.588
 4459SOL     OW13750   1.937   4.069   0.033
 4459SOL    HW113751   1.845   4.041   0.004
 4459SOL    HW213752   1.968   4.146  -0.023
 4460SOL     OW13753   3.302   4.580   1.398
 4460SOL    HW113754   3.245   4.632   1.335
 4460SOL    HW213755   3.398   4.592   1.374
 4461SOL     OW13756   1.934   3.890   0.318
 4461SOL    HW113757   1.917   3.973   0.264
 4461SOL    HW213758   2.024   3.853   0.296
 4462SOL     OW13759   3.045   5.059   0.119
 4462SOL    HW113760   2.946   5.048   0.121
 4462SOL    HW213761   3.079   5.074   0.212
 4463SOL     OW13762   2.475   4.566   1.431
 4463SOL    HW113763   2.531   4.647   1.414
 4463SOL    HW213764   2.534   4.486   1.434
 4464SOL     OW13765   2.578   4.289   1.708
 4464SOL    HW113766   2.597   4.354   1.782
 4464SOL    HW213767   2.638   4.209   1.717
 4465SOL     OW13768   3.312   4.944   1.633
 4465SOL    HW113769   3.303   4.934   1.732
 4465SOL    HW213770   3.408   4.937   1.607
 4466SOL     OW13771   3.536   4.607   1.254
 4466SOL    HW113772   3.509   4.518   1.217
 4466SOL    HW213773   3.537   4.675   1.181
 4467SOL     OW13774   3.087   4.049   0.449
 4467SOL    HW113775   3.152   3.975   0.438
 4467SOL    HW213776   3.107   4.099   0.533
 4468SOL     OW13777   2.456   4.469   0.652
 4468SOL    HW113778   2.506   4.554   0.633
 4468SOL    HW213779   2.368   4.471   0.604
 4469SOL     OW13780   3.639   4.066   1.642
 4469SOL    HW113781   3.622   4.097   1.548
 4469SOL    HW213782   3.555   4.029   1.680
 4470SOL     OW13783   3.592   4.658   1.517
 4470SOL    HW113784   3.630   4.749   1.532
 4470SOL    HW213785   3.584   4.641   1.418
 4471SOL     OW13786   2.721   5.098   0.016
 4471SOL    HW113787   2.675   5.113   0.104
 4471SOL    HW213788   2.765   5.183  -0.014
 4472SOL     OW13789   2.721   4.680   0.861
 4472SOL    HW113790   2.775   4.611   0.909
 4472SOL    HW213791   2.689   4.749   0.927
 4473SOL     OW13792   2.945   4.708   0.087
 4473SOL    HW113793   2.922   4.761   0.005
 4473SOL    HW213794   3.026   4.652   0.068
 4474SOL     OW13795   2.083   5.038   1.844
 4474SOL    HW113796   2.018   4.965   1.823
 4474SOL    HW213797   2.087   5.052   1.942
 4475SOL     OW13798   1.941   4.964   0.653
 4475SOL    HW113799   1.940   4.917   0.741
 4475SOL    HW213800   2.023   4.936   0.602
 4476SOL     OW13801   2.534   5.115   1.624
 4476SOL    HW113802   2.456   5.065   1.662
 4476SOL    HW213803   2.531   5.210   1.655
 4477SOL     OW13804   3.686   3.916   1.227
 4477SOL    HW113805   3.682   3.826   1.271
 4477SOL    HW213806   3.689   3.905   1.128
 4478SOL     OW13807   2.290   4.148   0.520
 4478SOL    HW113808   2.320   4.076   0.458
 4478SOL    HW213809   2.251   4.108   0.603
 4479SOL     OW13810   3.567   5.211   1.104
 4479SOL    HW113811   3.474   5.186   1.077
 4479SOL    HW213812   3.593   5.161   1.186
 4480SOL     OW13813   2.179   4.271   1.280
 4480SOL    HW113814   2.217   4.212   1.352
 4480SOL    HW213815   2.219   4.245   1.192
 4481SOL     OW13816   3.286   3.938   1.112
 4481SOL    HW113817   3.338   3.873   1.167
 4481SOL    HW213818   3.237   4.001   1.173
 4482SOL     OW13819   2.863   3.758   1.154
 4482SOL    HW113820   2.800   3.686   1.123
 4482SOL    HW213821   2.956   3.722   1.154
 4483SOL     OW13822   2.632   5.054   0.301
 4483SOL    HW113823   2.586   4.967   0.318
 4483SOL    HW213824   2.723   5.051   0.342
 4484SOL     OW13825   2.480   5.291   1.284
 4484SOL    HW113826   2.475   5.373   1.341
 4484SOL    HW213827   2.569   5.288   1.239
 4485SOL     OW13828   3.214   3.776   0.168
 4485SOL    HW113829   3.249   3.735   0.084
 4485SOL    HW213830   3.124   3.738   0.188
 4486SOL     OW13831   3.162   4.177   0.691
 4486SOL    HW113832   3.103   4.257   0.695
 4486SOL    HW213833   3.177   4.142   0.784
 4487SOL     OW13834   3.455   3.945   0.882
 4487SOL    HW113835   3.371   3.944   0.936
 4487SOL    HW213836   3.457   4.028   0.826
 4488SOL     OW13837   1.901   4.801   0.300
 4488SOL    HW113838   2.000   4.790   0.291
 4488SOL    HW213839   1.861   4.715   0.332
 4489SOL     OW13840   2.092   4.352   1.975
 4489SOL    HW113841   1.999   4.350   2.012
 4489SOL    HW213842   2.093   4.313   1.883
 4490SOL     OW13843   2.087   3.999   2.858
 4490SOL    HW113844   2.122   3.982   2.950
 4490SOL    HW213845   1.999   3.954   2.846
 4491SOL     OW13846   1.881   4.092   2.509
 4491SOL    HW113847   1.799   4.135   2.548
 4491SOL    HW213848   1.853   4.019   2.446
 4492SOL     OW13849   2.431   4.999   3.027
 4492SOL    HW113850   2.338   4.992   2.990
 4492SOL    HW213851   2.442   5.088   3.071
 4493SOL     OW13852   3.417   5.235   2.565
 4493SOL    HW113853   3.360   5.219   2.646
 4493SOL    HW213854   3.358   5.245   2.485
 4494SOL     OW13855   2.997   4.427   2.579
 4494SOL    HW113856   3.054   4.505   2.554
 4494SOL    HW213857   2.937   4.453   2.655
 4495SOL     OW13858   3.617   4.331   2.093
 4495SOL    HW113859   3.605   4.318   1.994
 4495SOL    HW213860   3.587   4.250   2.142
 4496SOL     OW13861   2.630   4.868   2.885
 4496SOL    HW113862   2.552   4.885   2.945
 4496SOL    HW213863   2.664   4.955   2.849
 4497SOL     OW13864   2.712   4.522   3.685
 4497SOL    HW113865   2.708   4.598   3.750
 4497SOL    HW213866   2.734   4.558   3.594
 4498SOL     OW13867   2.547   4.736   2.527
 4498SOL    HW113868   2.616   4.720   2.597
 4498SOL    HW213869   2.474   4.793   2.565
 4499SOL     OW13870   2.548   4.885   3.665
 4499SOL    HW113871   2.608   4.964   3.679
 4499SOL    HW213872   2.462   4.916   3.624
 4500SOL     OW13873   2.197   5.159   2.923
 4500SOL    HW113874   2.119   5.128   2.870
 4500SOL    HW213875   2.255   5.217   2.866
 4501SOL     OW13876   3.322   5.229   3.201
 4501SOL    HW113877   3.346   5.323   3.227
 4501SOL    HW213878   3.306   5.175   3.283
 4502SOL     OW13879   2.300   4.116   3.361
 4502SOL    HW113880   2.382   4.060   3.370
 4502SOL    HW213881   2.219   4.058   3.365
 4503SOL     OW13882   3.465   4.171   2.599
 4503SOL    HW113883   3.391   4.217   2.549
 4503SOL    HW213884   3.516   4.239   2.652
 4504SOL     OW13885   2.989   5.065   3.552
 4504SOL    HW113886   3.036   5.065   3.640
 4504SOL    HW213887   2.941   4.978   3.541
 4505SOL     OW13888   2.092   5.158   2.400
 4505SOL    HW113889   2.066   5.254   2.400
 4505SOL    HW213890   2.021   5.104   2.445
 4506SOL     OW13891   2.102   4.815   2.748
 4506SOL    HW113892   2.116   4.731   2.800
 4506SOL    HW213893   2.047   4.879   2.803
 4507SOL     OW13894   2.468   4.688   1.985
 4507SOL    HW113895   2.475   4.772   1.931
 4507SOL    HW213896   2.514   4.701   2.073
 4508SOL     OW13897   3.456   3.838   3.342
 4508SOL    HW113898   3.438   3.905   3.270
 4508SOL    HW213899   3.453   3.884   3.431
 4509SOL     OW13900   1.984   4.367   2.425
 4509SOL    HW113901   1.939   4.279   2.442
 4509SOL    HW213902   1.983   4.421   2.509
 4510SOL     OW13903   1.889   5.320   1.979
 4510SOL    HW113904   1.870   5.224   2.000
 4510SOL    HW213905   1.856   5.378   2.054
 4511SOL     OW13906   3.551   4.646   2.474
 4511SOL    HW113907   3.646   4.617   2.482
 4511SOL    HW213908   3.543   4.711   2.399
 4512SOL     OW13909   3.503   4.832   2.294
 4512SOL    HW113910   3.589   4.834   2.242
 4512SOL    HW213911   3.517   4.879   2.382
 4513SOL     OW13912   1.975   4.461   3.459
 4513SOL    HW113913   2.063   4.448   3.504
 4513SOL    HW213914   1.962   4.558   3.437
 4514SOL     OW13915   2.475   5.089   2.588
 4514SOL    HW113916   2.426   5.002   2.597
 4514SOL    HW213917   2.452   5.132   2.501
 4515SOL     OW13918   3.155   4.952   3.285
 4515SOL    HW113919   3.192   4.879   3.227
 4515SOL    HW213920   3.207   4.957   3.370
 4516SOL     OW13921   2.671   3.728   2.364
 4516SOL    HW113922   2.711   3.819   2.355
 4516SOL    HW213923   2.571   3.736   2.370
 4517SOL     OW13924   2.059   4.700   3.126
 4517SOL    HW113925   2.148   4.655   3.112
 4517SOL    HW213926   1.986   4.635   3.107
 4518SOL     OW13927   3.387   4.723   2.052
 4518SOL    HW113928   3.324   4.647   2.065
 4518SOL    HW213929   3.435   4.741   2.138
 4519SOL     OW13930   2.179   3.975   3.663
 4519SOL    HW113931   2.250   4.046   3.669
 4519SOL    HW213932   2.091   4.014   3.691
 4520SOL     OW13933   3.328   5.141   2.815
 4520SOL    HW113934   3.269   5.147   2.895
 4520SOL    HW213935   3.313   5.053   2.769
 4521SOL     OW13936   2.460   4.453   2.132
 4521SOL    HW113937   2.484   4.522   2.064
 4521SOL    HW213938   2.382   4.486   2.186
 4522SOL     OW13939   3.143   4.069   2.806
 4522SOL    HW113940   3.057   4.019   2.793
 4522SOL    HW213941   3.205   4.015   2.862
 4523SOL     OW13942   2.669   4.329   3.327
 4523SOL    HW113943   2.622   4.326   3.416
 4523SOL    HW213944   2.618   4.274   3.261
 4524SOL     OW13945   3.256   4.193   3.536
 4524SOL    HW113946   3.236   4.236   3.624
 4524SOL    HW213947   3.334   4.131   3.545
 4525SOL     OW13948   2.835   4.614   3.434
 4525SOL    HW113949   2.881   4.530   3.405
 4525SOL    HW213950   2.779   4.648   3.359
 4526SOL     OW13951   2.853   4.134   3.104
 4526SOL    HW113952   2.776   4.168   3.158
 4526SOL    HW213953   2.819   4.083   3.025
 4527SOL     OW13954   2.903   4.425   2.291
 4527SOL    HW113955   2.929   4.421   2.387
 4527SOL    HW213956   2.818   4.374   2.277
 4528SOL     OW13957   1.938   4.535   2.651
 4528SOL    HW113958   2.037   4.523   2.660
 4528SOL    HW213959   1.914   4.630   2.672
 4529SOL     OW13960   2.727   4.072   2.057
 4529SOL    HW113961   2.786   4.135   2.008
 4529SOL    HW213962   2.746   3.978   2.028
 4530SOL     OW13963   3.581   4.309   3.693
 4530SOL    HW113964   3.555   4.398   3.657
 4530SOL    HW213965   3.579   4.241   3.620
 4531SOL     OW13966   3.224   4.868   2.407
 4531SOL    HW113967   3.307   4.839   2.359
 4531SOL    HW213968   3.175   4.935   2.351
 4532SOL     OW13969   2.412   3.920   2.747
 4532SOL    HW113970   2.407   3.915   2.847
 4532SOL    HW213971   2.414   4.016   2.718
 4533SOL     OW13972   2.870   5.180   2.339
 4533SOL    HW113973   2.824   5.252   2.287
 4533SOL    HW213974   2.866   5.200   2.437
 4534SOL     OW13975   3.657   4.790   2.735
 4534SOL    HW113976   3.595   4.775   2.659
 4534SOL    HW213977   3.605   4.801   2.820
 4535SOL     OW13978   3.089   5.274   3.368
 4535SOL    HW113979   3.095   5.197   3.432
 4535SOL    HW213980   3.037   5.248   3.288
 4536SOL     OW13981   2.183   4.667   2.104
 4536SOL    HW113982   2.265   4.706   2.062
 4536SOL    HW213983   2.156   4.585   2.055
 4537SOL     OW13984   3.320   4.459   2.590
 4537SOL    HW113985   3.315   4.394   2.665
 4537SOL    HW213986   3.400   4.518   2.603
 4538SOL     OW13987   2.323   4.990   3.589
 4538SOL    HW113988   2.273   4.991   3.503
 4538SOL    HW213989   2.260   4.972   3.665
 4539SOL     OW13990   2.973   5.500   2.099
 4539SOL    HW113991   2.913   5.438   2.149
 4539SOL    HW213992   3.004   5.456   2.014
 4540SOL     OW13993   2.064   4.009   3.360
 4540SOL    HW113994   1.984   4.069   3.347
 4540SOL    HW213995   2.054   3.960   3.446
 4541SOL     OW13996   3.494   5.101   1.943
 4541SOL    HW113997   3.462   5.195   1.933
 4541SOL    HW213998   3.418   5.038   1.931
 4542SOL     OW13999   3.262   3.831   2.288
 4542SOL    HW114000   3.238   3.794   2.198
 4542SOL    HW214001   3.361   3.847   2.292
 4543SOL     OW14002   2.244   4.424   2.342
 4543SOL    HW114003   2.289   4.334   2.339
 4543SOL    HW214004   2.150   4.413   2.375
 4544SOL     OW14005   3.409   3.946   3.591
 4544SOL    HW114006   3.404   3.983   3.683
 4544SOL    HW214007   3.337   3.877   3.579
 4545SOL     OW14008   2.476   3.846   1.979
 4545SOL    HW114009   2.574   3.824   1.986
 4545SOL    HW214010   2.445   3.829   1.886
 4546SOL     OW14011   2.643   3.988   3.611
 4546SOL    HW114012   2.710   3.927   3.654
 4546SOL    HW214013   2.570   4.007   3.676
 4547SOL     OW14014   3.213   4.314   3.295
 4547SOL    HW114015   3.241   4.271   3.380
 4547SOL    HW214016   3.238   4.410   3.296
 4548SOL     OW14017   2.665   5.126   2.786
 4548SOL    HW114018   2.755   5.140   2.744
 4548SOL    HW214019   2.594   5.128   2.715
 4549SOL     OW14020   2.784   4.227   2.761
 4549SOL    HW114021   2.759   4.218   2.665
 4549SOL    HW214022   2.832   4.145   2.792
 4550SOL     OW14023   2.401   3.788   2.374
 4550SOL    HW114024   2.320   3.789   2.432
 4550SOL    HW214025   2.404   3.871   2.319
 4551SOL     OW14026   3.296   4.912   1.903
 4551SOL    HW114027   3.328   4.836   1.960
 4551SOL    HW214028   3.204   4.939   1.933
 4552SOL     OW14029   2.159   3.759   2.033
 4552SOL    HW114030   2.208   3.843   2.012
 4552SOL    HW214031   2.221   3.694   2.078
 4553SOL     OW14032   2.797   3.960   2.342
 4553SOL    HW114033   2.749   4.001   2.264
 4553SOL    HW214034   2.896   3.958   2.323
 4554SOL     OW14035   2.938   4.407   3.326
 4554SOL    HW114036   2.858   4.346   3.329
 4554SOL    HW214037   3.019   4.354   3.302
 4555SOL     OW14038   3.089   5.294   2.655
 4555SOL    HW114039   3.110   5.368   2.590
 4555SOL    HW214040   3.157   5.294   2.728
 4556SOL     OW14041   2.321   4.876   2.603
 4556SOL    HW114042   2.250   4.849   2.668
 4556SOL    HW214043   2.295   4.848   2.510
 4557SOL     OW14044   2.894   4.273   1.878
 4557SOL    HW114045   2.853   4.355   1.839
 4557SOL    HW214046   2.958   4.299   1.951
 4558SOL     OW14047   1.940   4.280   3.248
 4558SOL    HW114048   2.032   4.279   3.207
 4558SOL    HW214049   1.934   4.354   3.315
 4559SOL     OW14050   2.423   3.946   3.009
 4559SOL    HW114051   2.461   3.862   3.046
 4559SOL    HW214052   2.335   3.965   3.053
 4560SOL     OW14053   2.728   4.178   2.504
 4560SOL    HW114054   2.696   4.250   2.442
 4560SOL    HW214055   2.752   4.097   2.451
 4561SOL     OW14056   2.879   3.763   2.615
 4561SOL    HW114057   2.807   3.768   2.546
 4561SOL    HW214058   2.855   3.694   2.684
 4562SOL     OW14059   3.291   4.897   2.729
 4562SOL    HW114060   3.236   4.813   2.722
 4562SOL    HW214061   3.317   4.926   2.637
 4563SOL     OW14062   3.328   4.314   2.854
 4563SOL    HW114063   3.298   4.219   2.861
 4563SOL    HW214064   3.401   4.330   2.920
 4564SOL     OW14065   3.719   4.557   2.239
 4564SOL    HW114066   3.761   4.493   2.303
 4564SOL    HW214067   3.681   4.506   2.161
 4565SOL     OW14068   2.350   5.109   2.036
 4565SOL    HW114069   2.263   5.094   2.083
 4565SOL    HW214070   2.333   5.135   1.941
 4566SOL     OW14071   3.526   5.004   2.519
 4566SOL    HW114072   3.625   5.012   2.533
 4566SOL    HW214073   3.481   5.088   2.550
 4567SOL     OW14074   3.252   4.299   1.940
 4567SOL    HW114075   3.198   4.278   2.021
 4567SOL    HW214076   3.343   4.258   1.949
 4568SOL     OW14077   2.389   3.980   2.190
 4568SOL    HW114078   2.416   3.921   2.115
 4568SOL    HW214079   2.389   4.075   2.159
 4569SOL     OW14080   3.616   4.947   3.450
 4569SOL    HW114081   3.707   4.908   3.437
 4569SOL    HW214082   3.624   5.043   3.474
 4570SOL     OW14083   2.926   5.071   3.202
 4570SOL    HW114084   2.846   5.048   3.257
 4570SOL    HW214085   3.009   5.045   3.251
 4571SOL     OW14086   2.973   4.919   2.962
 4571SOL    HW114087   2.933   4.963   3.043
 4571SOL    HW214088   2.932   4.956   2.879
 4572SOL     OW14089   3.500   4.823   2.941
 4572SOL    HW114090   3.505   4.904   3.000
 4572SOL    HW214091   3.414   4.825   2.890
 4573SOL     OW14092   2.777   3.813   3.264
 4573SOL    HW114093   2.802   3.793   3.169
 4573SOL    HW214094   2.849   3.869   3.306
 4574SOL     OW14095   2.842   4.840   3.581
 4574SOL    HW114096   2.743   4.846   3.591
 4574SOL    HW214097   2.865   4.760   3.525
 4575SOL     OW14098   2.567   4.774   2.230
 4575SOL    HW114099   2.553   4.781   2.329
 4575SOL    HW214100   2.651   4.723   2.212
 4576SOL     OW14101   2.272   4.537   3.113
 4576SOL    HW114102   2.358   4.549   3.163
 4576SOL    HW214103   2.230   4.450   3.140
 4577SOL     OW14104   3.136   4.110   3.124
 4577SOL    HW114105   3.157   4.184   3.188
 4577SOL    HW214106   3.047   4.127   3.081
 4578SOL     OW14107   2.229   4.824   2.363
 4578SOL    HW114108   2.222   4.907   2.307
 4578SOL    HW214109   2.233   4.744   2.303
 4579SOL     OW14110   2.428   4.261   2.727
 4579SOL    HW114111   2.440   4.327   2.653
 4579SOL    HW214112   2.474   4.295   2.810
 4580SOL     OW14113   3.114   5.072   2.250
 4580SOL    HW114114   3.164   5.149   2.290
 4580SOL    HW214115   3.019   5.074   2.282
 4581SOL     OW14116   3.134   5.169   3.004
 4581SOL    HW114117   3.181   5.182   3.091
 4581SOL    HW214118   3.068   5.095   3.013
 4582SOL     OW14119   3.444   4.363   2.334
 4582SOL    HW114120   3.413   4.424   2.407
 4582SOL    HW214121   3.494   4.415   2.265
 4583SOL     OW14122   2.216   5.234   3.191
 4583SOL    HW114123   2.195   5.190   3.104
 4583SOL    HW214124   2.313   5.260   3.194
 4584SOL     OW14125   2.264   4.475   3.460
 4584SOL    HW114126   2.332   4.530   3.413
 4584SOL    HW214127   2.304   4.387   3.487
 4585SOL     OW14128   3.449   4.503   3.532
 4585SOL    HW114129   3.357   4.541   3.527
 4585SOL    HW214130   3.509   4.550   3.467
 4586SOL     OW14131   2.875   3.829   3.632
 4586SOL    HW114132   2.881   3.914   3.580
 4586SOL    HW214133   2.907   3.753   3.575
 4587SOL     OW14134   2.366   3.774   3.602
 4587SOL    HW114135   2.324   3.717   3.532
 4587SOL    HW214136   2.300   3.843   3.634
 4588SOL     OW14137   2.435   4.594   2.891
 4588SOL    HW114138   2.479   4.683   2.882
 4588SOL    HW214139   2.372   4.594   2.968
 4589SOL     OW14140   3.222   4.586   2.907
 4589SOL    HW114141   3.147   4.586   2.841
 4589SOL    HW214142   3.259   4.494   2.916
 4590SOL     OW14143   3.071   4.249   2.137
 4590SOL    HW114144   3.084   4.165   2.191
 4590SOL    HW214145   3.042   4.323   2.197
 4591SOL     OW14146   2.169   3.937   3.093
 4591SOL    HW114147   2.146   3.974   3.183
 4591SOL    HW214148   2.139   3.842   3.087
 4592SOL     OW14149   1.899   5.034   3.144
 4592SOL    HW114150   1.952   4.985   3.212
 4592SOL    HW214151   1.921   5.132   3.149
 4593SOL     OW14152   2.594   4.358   2.926
 4593SOL    HW114153   2.653   4.332   2.850
 4593SOL    HW214154   2.566   4.454   2.915
 4594SOL     OW14155   3.590   4.659   3.716
 4594SOL    HW114156   3.544   4.652   3.627
 4594SOL    HW214157   3.528   4.703   3.782
 4595SOL     OW14158   2.169   3.787   2.480
 4595SOL    HW114159   2.158   3.881   2.513
 4595SOL    HW214160   2.164   3.724   2.557
 4596SOL     OW14161   3.484   4.091   2.236
 4596SOL    HW114162   3.486   4.015   2.300
 4596SOL    HW214163   3.436   4.168   2.276
 4597SOL     OW14164   2.885   4.490   2.828
 4597SOL    HW114165   2.900   4.511   2.924
 4597SOL    HW214166   2.855   4.395   2.819
 4598SOL     OW14167   3.721   5.242   3.467
 4598SOL    HW114168   3.735   5.269   3.372
 4598SOL    HW214169   3.804   5.264   3.520
 4599SOL     OW14170   2.212   4.622   3.666
 4599SOL    HW114171   2.288   4.666   3.714
 4599SOL    HW214172   2.247   4.575   3.584
 4600SOL     OW14173   3.402   3.998   1.987
 4600SOL    HW114174   3.341   3.923   2.010
 4600SOL    HW214175   3.424   4.050   2.070
 4601SOL     OW14176   3.165   4.562   1.904
 4601SOL    HW114177   3.199   4.469   1.919
 4601SOL    HW214178   3.183   4.589   1.809
 4602SOL     OW14179   2.930   5.057   2.711
 4602SOL    HW114180   2.937   4.973   2.656
 4602SOL    HW214181   2.992   5.126   2.675
 4603SOL     OW14182   2.181   4.534   2.811
 4603SOL    HW114183   2.274   4.570   2.816
 4603SOL    HW214184   2.175   4.449   2.863
 4604SOL     OW14185   2.201   4.233   2.868
 4604SOL    HW114186   2.149   4.150   2.851
 4604SOL    HW214187   2.278   4.238   2.804
 4605SOL     OW14188   3.000   4.104   3.540
 4605SOL    HW114189   2.955   4.167   3.604
 4605SOL    HW214190   3.093   4.135   3.523
 4606SOL     OW14191   3.022   3.931   3.339
 4606SOL    HW114192   3.022   3.995   3.416
 4606SOL    HW214193   3.050   3.979   3.256
 4607SOL     OW14194   1.870   5.050   2.062
 4607SOL    HW114195   1.777   5.071   2.031
 4607SOL    HW214196   1.880   4.951   2.075
 4608SOL     OW14197   2.864   4.520   3.100
 4608SOL    HW114198   2.905   4.488   3.186
 4608SOL    HW214199   2.768   4.493   3.097
 4609SOL     OW14200   1.902   4.268   2.976
 4609SOL    HW114201   1.987   4.235   2.935
 4609SOL    HW214202   1.915   4.283   3.074
 4610SOL     OW14203   2.051   4.244   3.584
 4610SOL    HW114204   2.110   4.204   3.514
 4610SOL    HW214205   1.993   4.315   3.543
 4611SOL     OW14206   3.231   4.674   3.522
 4611SOL    HW114207   3.270   4.763   3.542
 4611SOL    HW214208   3.241   4.654   3.425
 4612SOL     OW14209   2.677   4.296   2.187
 4612SOL    HW114210   2.684   4.207   2.141
 4612SOL    HW214211   2.583   4.330   2.179
 4613SOL     OW14212   3.519   4.328   3.068
 4613SOL    HW114213   3.481   4.259   3.130
 4613SOL    HW214214   3.601   4.292   3.024
 4614SOL     OW14215   2.114   5.288   3.606
 4614SOL    HW114216   2.084   5.345   3.682
 4614SOL    HW214217   2.107   5.191   3.632
 4615SOL     OW14218   2.533   4.188   3.131
 4615SOL    HW114219   2.499   4.099   3.101
 4615SOL    HW214220   2.559   4.242   3.051
 4616SOL     OW14221   2.335   4.224   2.053
 4616SOL    HW114222   2.396   4.304   2.057
 4616SOL    HW214223   2.240   4.255   2.060
 4617SOL     OW14224   2.021   4.861   3.328
 4617SOL    HW114225   2.043   4.800   3.404
 4617SOL    HW214226   2.031   4.812   3.242
 4618SOL     OW14227   3.209   4.783   3.096
 4618SOL    HW114228   3.233   4.720   3.022
 4618SOL    HW214229   3.119   4.823   3.078
 4619SOL     OW14230   3.164   4.579   2.171
 4619SOL    HW114231   3.078   4.548   2.213
 4619SOL    HW214232   3.160   4.565   2.072
 4620SOL     OW14233   1.945   4.982   2.884
 4620SOL    HW114234   1.940   4.981   2.984
 4620SOL    HW214235   1.862   4.941   2.846
 4621SOL     OW14236   2.550   5.386   3.578
 4621SOL    HW114237   2.494   5.467   3.587
 4621SOL    HW214238   2.602   5.390   3.492
 4622SOL     OW14239   3.588   3.859   2.385
 4622SOL    HW114240   3.661   3.842   2.318
 4622SOL    HW214241   3.557   3.772   2.423
 4623SOL     OW14242   3.142   4.651   2.534
 4623SOL    HW114243   3.202   4.570   2.536
 4623SOL    HW214244   3.182   4.720   2.474
 4624SOL     OW14245   2.692   4.997   3.284
 4624SOL    HW114246   2.687   5.030   3.379
 4624SOL    HW214247   2.606   5.016   3.238
 4625SOL     OW14248   3.703   3.899   2.825
 4625SOL    HW114249   3.742   3.814   2.789
 4625SOL    HW214250   3.605   3.901   2.806
 4626SOL     OW14251   2.125   4.050   2.582
 4626SOL    HW114252   2.046   4.101   2.548
 4626SOL    HW214253   2.116   4.035   2.680
 4627SOL     OW14254   2.684   4.726   3.234
 4627SOL    HW114255   2.724   4.725   3.142
 4627SOL    HW214256   2.694   4.818   3.274
 4628SOL     OW14257   2.778   4.634   2.153
 4628SOL    HW114258   2.841   4.672   2.085
 4628SOL    HW214259   2.818   4.551   2.192
 4629SOL     OW14260   2.234   5.012   3.352
 4629SOL    HW114261   2.221   5.105   3.318
 4629SOL    HW214262   2.150   4.960   3.339
 4630SOL     OW14263   3.476   5.016   3.151
 4630SOL    HW114264   3.536   5.019   3.231
 4630SOL    HW214265   3.401   5.080   3.164
 4631SOL     OW14266   2.901   4.822   2.558
 4631SOL    HW114267   2.831   4.775   2.612
 4631SOL    HW214268   2.960   4.754   2.515
 4632SOL     OW14269   2.876   3.960   2.833
 4632SOL    HW114270   2.868   3.924   2.740
 4632SOL    HW214271   2.874   3.884   2.898
 4633SOL     OW14272   3.571   4.109   3.243
 4633SOL    HW114273   3.644   4.178   3.247
 4633SOL    HW214274   3.599   4.034   3.184
 4634SOL     OW14275   2.117   5.072   2.152
 4634SOL    HW114276   2.021   5.073   2.125
 4634SOL    HW214277   2.129   5.125   2.236
 4635SOL     OW14278   1.967   4.737   3.588
 4635SOL    HW114279   1.890   4.704   3.642
 4635SOL    HW214280   2.052   4.707   3.630
 4636SOL     OW14281   2.534   3.927   3.351
 4636SOL    HW114282   2.624   3.911   3.311
 4636SOL    HW214283   2.542   3.932   3.450
 4637SOL     OW14284   1.937   4.069   1.895
 4637SOL    HW114285   1.845   4.041   1.866
 4637SOL    HW214286   1.968   4.146   1.839
 4638SOL     OW14287   3.302   4.580   3.260
 4638SOL    HW114288   3.245   4.632   3.197
 4638SOL    HW214289   3.398   4.592   3.236
 4639SOL     OW14290   1.934   3.890   2.180
 4639SOL    HW114291   1.917   3.973   2.126
 4639SOL    HW214292   2.024   3.853   2.158
 4640SOL     OW14293   3.045   5.059   1.981
 4640SOL    HW114294   2.946   5.048   1.983
 4640SOL    HW214295   3.079   5.074   2.074
 4641SOL     OW14296   2.475   4.566   3.293
 4641SOL    HW114297   2.531   4.647   3.276
 4641SOL    HW214298   2.534   4.486   3.296
 4642SOL     OW14299   2.578   4.289   3.570
 4642SOL    HW114300   2.597   4.354   3.644
 4642SOL    HW214301   2.638   4.209   3.579
 4643SOL     OW14302   3.312   4.944   3.495
 4643SOL    HW114303   3.303   4.934   3.594
 4643SOL    HW214304   3.408   4.937   3.469
 4644SOL     OW14305   3.536   4.607   3.116
 4644SOL    HW114306   3.509   4.518   3.079
 4644SOL    HW214307   3.537   4.675   3.043
 4645SOL     OW14308   3.087   4.049   2.311
 4645SOL    HW114309   3.152   3.975   2.300
 4645SOL    HW214310   3.107   4.099   2.395
 4646SOL     OW14311   2.456   4.469   2.514
 4646SOL    HW114312   2.506   4.554   2.495
 4646SOL    HW214313   2.368   4.471   2.466
 4647SOL     OW14314   3.639   4.066   3.504
 4647SOL    HW114315   3.622   4.097   3.410
 4647SOL    HW214316   3.555   4.029   3.542
 4648SOL     OW14317   3.592   4.658   3.379
 4648SOL    HW114318   3.630   4.749   3.394
 4648SOL    HW214319   3.584   4.641   3.280
 4649SOL     OW14320   2.721   5.098   1.878
 4649SOL    HW114321   2.675   5.113   1.966
 4649SOL    HW214322   2.765   5.183   1.848
 4650SOL     OW14323   2.721   4.680   2.723
 4650SOL    HW114324   2.775   4.611   2.771
 4650SOL    HW214325   2.689   4.749   2.789
 4651SOL     OW14326   2.945   4.708   1.949
 4651SOL    HW114327   2.922   4.761   1.867
 4651SOL    HW214328   3.026   4.652   1.930
 4652SOL     OW14329   2.083   5.038   3.706
 4652SOL    HW114330   2.018   4.965   3.685
 4652SOL    HW214331   2.087   5.052   3.804
 4653SOL     OW14332   1.941   4.964   2.515
 4653SOL    HW114333   1.940   4.917   2.603
 4653SOL    HW214334   2.023   4.936   2.464
 4654SOL     OW14335   2.534   5.115   3.486
 4654SOL    HW114336   2.456   5.065   3.524
 4654SOL    HW214337   2.531   5.210   3.517
 4655SOL     OW14338   3.686   3.916   3.089
 4655SOL    HW114339   3.682   3.826   3.133
 4655SOL    HW214340   3.689   3.905   2.990
 4656SOL     OW14341   2.290   4.148   2.382
 4656SOL    HW114342   2.320   4.076   2.320
 4656SOL    HW214343   2.251   4.108   2.465
 4657SOL     OW14344   3.567   5.211   2.966
 4657SOL    HW114345   3.474   5.186   2.939
 4657SOL    HW214346   3.593   5.161   3.048
 4658SOL     OW14347   2.179   4.271   3.142
 4658SOL    HW114348   2.217   4.212   3.214
 4658SOL    HW214349   2.219   4.245   3.054
 4659SOL     OW14350   3.286   3.938   2.974
 4659SOL    HW114351   3.338   3.873   3.029
 4659SOL    HW214352   3.237   4.001   3.035
 4660SOL     OW14353   2.863   3.758   3.016
 4660SOL    HW114354   2.800   3.686   2.985
 4660SOL    HW214355   2.956   3.722   3.016
 4661SOL     OW14356   2.632   5.054   2.163
 4661SOL    HW114357   2.586   4.967   2.180
 4661SOL    HW214358   2.723   5.051   2.204
 4662SOL     OW14359   2.480   5.291   3.146
 4662SOL    HW114360   2.475   5.373   3.203
 4662SOL    HW214361   2.569   5.288   3.101
 4663SOL     OW14362   3.214   3.776   2.030
 4663SOL    HW114363   3.249   3.735   1.946
 4663SOL    HW214364   3.124   3.738   2.050
 4664SOL     OW14365   3.162   4.177   2.553
 4664SOL    HW114366   3.103   4.257   2.557
 4664SOL    HW214367   3.177   4.142   2.646
 4665SOL     OW14368   3.455   3.945   2.744
 4665SOL    HW114369   3.371   3.944   2.798
 4665SOL    HW214370   3.457   4.028   2.688
 4666SOL     OW14371   1.901   4.801   2.162
 4666SOL    HW114372   2.000   4.790   2.153
 4666SOL    HW214373   1.861   4.715   2.194
 4667SOL     OW14374   2.092   4.352   3.837
 4667SOL    HW114375   1.999   4.350   3.874
 4667SOL    HW214376   2.093   4.313   3.745
 4668SOL     OW14377   2.087   3.999   4.720
 4668SOL    HW114378   2.122   3.982   4.812
 4668SOL    HW214379   1.999   3.954   4.708
 4669SOL     OW14380   1.881   4.092   4.371
 4669SOL    HW114381   1.799   4.135   4.410
 4669SOL    HW214382   1.853   4.019   4.308
 4670SOL     OW14383   2.431   4.999   4.889
 4670SOL    HW114384   2.338   4.992   4.852
 4670SOL    HW214385   2.442   5.088   4.933
 4671SOL     OW14386   3.417   5.235   4.427
 4671SOL    HW114387   3.360   5.219   4.508
 4671SOL    HW214388   3.358   5.245   4.347
 4672SOL     OW14389   2.997   4.427   4.441
 4672SOL    HW114390   3.054   4.505   4.416
 4672SOL    HW214391   2.937   4.453   4.517
 4673SOL     OW14392   3.617   4.331   3.955
 4673SOL    HW114393   3.605   4.318   3.856
 4673SOL    HW214394   3.587   4.250   4.004
 4674SOL     OW14395   2.630   4.868   4.747
 4674SOL    HW114396   2.552   4.885   4.807
 4674SOL    HW214397   2.664   4.955   4.711
 4675SOL     OW14398   2.712   4.522   5.547
 4675SOL    HW114399   2.708   4.598   5.612
 4675SOL    HW214400   2.734   4.558   5.456
 4676SOL     OW14401   2.547   4.736   4.389
 4676SOL    HW114402   2.616   4.720   4.459
 4676SOL    HW214403   2.474   4.793   4.427
 4677SOL     OW14404   2.548   4.885   5.527
 4677SOL    HW114405   2.608   4.964   5.541
 4677SOL    HW214406   2.462   4.916   5.486
 4678SOL     OW14407   2.197   5.159   4.785
 4678SOL    HW114408   2.119   5.128   4.732
 4678SOL    HW214409   2.255   5.217   4.728
 4679SOL     OW14410   3.322   5.229   5.063
 4679SOL    HW114411   3.346   5.323   5.089
 4679SOL    HW214412   3.306   5.175   5.145
 4680SOL     OW14413   2.300   4.116   5.223
 4680SOL    HW114414   2.382   4.060   5.232
 4680SOL    HW214415   2.219   4.058   5.227
 4681SOL     OW14416   3.465   4.171   4.461
 4681SOL    HW114417   3.391   4.217   4.411
 4681SOL    HW214418   3.516   4.239   4.514
 4682SOL     OW14419   2.989   5.065   5.414
 4682SOL    HW114420   3.036   5.065   5.502
 4682SOL    HW214421   2.941   4.978   5.403
 4683SOL     OW14422   2.092   5.158   4.262
 4683SOL    HW114423   2.066   5.254   4.262
 4683SOL    HW214424   2.021   5.104   4.307
 4684SOL     OW14425   2.102   4.815   4.610
 4684SOL    HW114426   2.116   4.731   4.662
 4684SOL    HW214427   2.047   4.879   4.665
 4685SOL     OW14428   2.468   4.688   3.847
 4685SOL    HW114429   2.475   4.772   3.793
 4685SOL    HW214430   2.514   4.701   3.935
 4686SOL     OW14431   3.456   3.838   5.204
 4686SOL    HW114432   3.438   3.905   5.132
 4686SOL    HW214433   3.453   3.884   5.293
 4687SOL     OW14434   1.984   4.367   4.287
 4687SOL    HW114435   1.939   4.279   4.304
 4687SOL    HW214436   1.983   4.421   4.371
 4688SOL     OW14437   1.889   5.320   3.841
 4688SOL    HW114438   1.870   5.224   3.862
 4688SOL    HW214439   1.856   5.378   3.916
 4689SOL     OW14440   3.551   4.646   4.336
 4689SOL    HW114441   3.646   4.617   4.344
 4689SOL    HW214442   3.543   4.711   4.261
 4690SOL     OW14443   3.503   4.832   4.156
 4690SOL    HW114444   3.589   4.834   4.104
 4690SOL    HW214445   3.517   4.879   4.244
 4691SOL     OW14446   1.975   4.461   5.321
 4691SOL    HW114447   2.063   4.448   5.366
 4691SOL    HW214448   1.962   4.558   5.299
 4692SOL     OW14449   2.475   5.089   4.450
 4692SOL    HW114450   2.426   5.002   4.459
 4692SOL    HW214451   2.452   5.132   4.363
 4693SOL     OW14452   3.155   4.952   5.147
 4693SOL    HW114453   3.192   4.879   5.089
 4693SOL    HW214454   3.207   4.957   5.232
 4694SOL     OW14455   2.671   3.728   4.226
 4694SOL    HW114456   2.711   3.819   4.217
 4694SOL    HW214457   2.571   3.736   4.232
 4695SOL     OW14458   2.059   4.700   4.988
 4695SOL    HW114459   2.148   4.655   4.974
 4695SOL    HW214460   1.986   4.635   4.969
 4696SOL     OW14461   3.387   4.723   3.914
 4696SOL    HW114462   3.324   4.647   3.927
 4696SOL    HW214463   3.435   4.741   4.000
 4697SOL     OW14464   2.179   3.975   5.525
 4697SOL    HW114465   2.250   4.046   5.531
 4697SOL    HW214466   2.091   4.014   5.553
 4698SOL     OW14467   3.328   5.141   4.677
 4698SOL    HW114468   3.269   5.147   4.757
 4698SOL    HW214469   3.313   5.053   4.631
 4699SOL     OW14470   2.460   4.453   3.994
 4699SOL    HW114471   2.484   4.522   3.926
 4699SOL    HW214472   2.382   4.486   4.048
 4700SOL     OW14473   3.143   4.069   4.668
 4700SOL    HW114474   3.057   4.019   4.655
 4700SOL    HW214475   3.205   4.015   4.724
 4701SOL     OW14476   2.669   4.329   5.189
 4701SOL    HW114477   2.622   4.326   5.278
 4701SOL    HW214478   2.618   4.274   5.123
 4702SOL     OW14479   3.256   4.193   5.398
 4702SOL    HW114480   3.236   4.236   5.486
 4702SOL    HW214481   3.334   4.131   5.407
 4703SOL     OW14482   2.835   4.614   5.296
 4703SOL    HW114483   2.881   4.530   5.267
 4703SOL    HW214484   2.779   4.648   5.221
 4704SOL     OW14485   2.853   4.134   4.966
 4704SOL    HW114486   2.776   4.168   5.020
 4704SOL    HW214487   2.819   4.083   4.887
 4705SOL     OW14488   2.903   4.425   4.153
 4705SOL    HW114489   2.929   4.421   4.249
 4705SOL    HW214490   2.818   4.374   4.139
 4706SOL     OW14491   1.938   4.535   4.513
 4706SOL    HW114492   2.037   4.523   4.522
 4706SOL    HW214493   1.914   4.630   4.534
 4707SOL     OW14494   2.727   4.072   3.919
 4707SOL    HW114495   2.786   4.135   3.870
 4707SOL    HW214496   2.746   3.978   3.890
 4708SOL     OW14497   3.581   4.309   5.555
 4708SOL    HW114498   3.555   4.398   5.519
 4708SOL    HW214499   3.579   4.241   5.482
 4709SOL     OW14500   3.224   4.868   4.269
 4709SOL    HW114501   3.307   4.839   4.221
 4709SOL    HW214502   3.175   4.935   4.213
 4710SOL     OW14503   2.412   3.920   4.609
 4710SOL    HW114504   2.407   3.915   4.709
 4710SOL    HW214505   2.414   4.016   4.580
 4711SOL     OW14506   2.870   5.180   4.201
 4711SOL    HW114507   2.824   5.252   4.149
 4711SOL    HW214508   2.866   5.200   4.299
 4712SOL     OW14509   3.657   4.790   4.597
 4712SOL    HW114510   3.595   4.775   4.521
 4712SOL    HW214511   3.605   4.801   4.682
 4713SOL     OW14512   3.089   5.274   5.230
 4713SOL    HW114513   3.095   5.197   5.294
 4713SOL    HW214514   3.037   5.248   5.150
 4714SOL     OW14515   2.183   4.667   3.966
 4714SOL    HW114516   2.265   4.706   3.924
 4714SOL    HW214517   2.156   4.585   3.917
 4715SOL     OW14518   3.320   4.459   4.452
 4715SOL    HW114519   3.315   4.394   4.527
 4715SOL    HW214520   3.400   4.518   4.465
 4716SOL     OW14521   2.323   4.990   5.451
 4716SOL    HW114522   2.273   4.991   5.365
 4716SOL    HW214523   2.260   4.972   5.527
 4717SOL     OW14524   2.973   5.500   3.961
 4717SOL    HW114525   2.913   5.438   4.011
 4717SOL    HW214526   3.004   5.456   3.876
 4718SOL     OW14527   2.064   4.009   5.222
 4718SOL    HW114528   1.984   4.069   5.209
 4718SOL    HW214529   2.054   3.960   5.308
 4719SOL     OW14530   3.494   5.101   3.805
 4719SOL    HW114531   3.462   5.195   3.795
 4719SOL    HW214532   3.418   5.038   3.793
 4720SOL     OW14533   3.262   3.831   4.150
 4720SOL    HW114534   3.238   3.794   4.060
 4720SOL    HW214535   3.361   3.847   4.154
 4721SOL     OW14536   2.244   4.424   4.204
 4721SOL    HW114537   2.289   4.334   4.201
 4721SOL    HW214538   2.150   4.413   4.237
 4722SOL     OW14539   3.409   3.946   5.453
 4722SOL    HW114540   3.404   3.983   5.545
 4722SOL    HW214541   3.337   3.877   5.441
 4723SOL     OW14542   2.476   3.846   3.841
 4723SOL    HW114543   2.574   3.824   3.848
 4723SOL    HW214544   2.445   3.829   3.748
 4724SOL     OW14545   2.643   3.988   5.473
 4724SOL    HW114546   2.710   3.927   5.516
 4724SOL    HW214547   2.570   4.007   5.538
 4725SOL     OW14548   3.213   4.314   5.157
 4725SOL    HW114549   3.241   4.271   5.242
 4725SOL    HW214550   3.238   4.410   5.158
 4726SOL     OW14551   2.665   5.126   4.648
 4726SOL    HW114552   2.755   5.140   4.606
 4726SOL    HW214553   2.594   5.128   4.577
 4727SOL     OW14554   2.784   4.227   4.623
 4727SOL    HW114555   2.759   4.218   4.527
 4727SOL    HW214556   2.832   4.145   4.654
 4728SOL     OW14557   2.401   3.788   4.236
 4728SOL    HW114558   2.320   3.789   4.294
 4728SOL    HW214559   2.404   3.871   4.181
 4729SOL     OW14560   3.296   4.912   3.765
 4729SOL    HW114561   3.328   4.836   3.822
 4729SOL    HW214562   3.204   4.939   3.795
 4730SOL     OW14563   2.159   3.759   3.895
 4730SOL    HW114564   2.208   3.843   3.874
 4730SOL    HW214565   2.221   3.694   3.940
 4731SOL     OW14566   2.797   3.960   4.204
 4731SOL    HW114567   2.749   4.001   4.126
 4731SOL    HW214568   2.896   3.958   4.185
 4732SOL     OW14569   2.938   4.407   5.188
 4732SOL    HW114570   2.858   4.346   5.191
 4732SOL    HW214571   3.019   4.354   5.164
 4733SOL     OW14572   3.089   5.294   4.517
 4733SOL    HW114573   3.110   5.368   4.452
 4733SOL    HW214574   3.157   5.294   4.590
 4734SOL     OW14575   2.321   4.876   4.465
 4734SOL    HW114576   2.250   4.849   4.530
 4734SOL    HW214577   2.295   4.848   4.372
 4735SOL     OW14578   2.894   4.273   3.740
 4735SOL    HW114579   2.853   4.355   3.701
 4735SOL    HW214580   2.958   4.299   3.813
 4736SOL     OW14581   1.940   4.280   5.110
 4736SOL    HW114582   2.032   4.279   5.069
 4736SOL    HW214583   1.934   4.354   5.177
 4737SOL     OW14584   2.423   3.946   4.871
 4737SOL    HW114585   2.461   3.862   4.908
 4737SOL    HW214586   2.335   3.965   4.915
 4738SOL     OW14587   2.728   4.178   4.366
 4738SOL    HW114588   2.696   4.250   4.304
 4738SOL    HW214589   2.752   4.097   4.313
 4739SOL     OW14590   2.879   3.763   4.477
 4739SOL    HW114591   2.807   3.768   4.408
 4739SOL    HW214592   2.855   3.694   4.546
 4740SOL     OW14593   3.291   4.897   4.591
 4740SOL    HW114594   3.236   4.813   4.584
 4740SOL    HW214595   3.317   4.926   4.499
 4741SOL     OW14596   3.328   4.314   4.716
 4741SOL    HW114597   3.298   4.219   4.723
 4741SOL    HW214598   3.401   4.330   4.782
 4742SOL     OW14599   3.719   4.557   4.101
 4742SOL    HW114600   3.761   4.493   4.165
 4742SOL    HW214601   3.681   4.506   4.023
 4743SOL     OW14602   2.350   5.109   3.898
 4743SOL    HW114603   2.263   5.094   3.945
 4743SOL    HW214604   2.333   5.135   3.803
 4744SOL     OW14605   3.526   5.004   4.381
 4744SOL    HW114606   3.625   5.012   4.395
 4744SOL    HW214607   3.481   5.088   4.412
 4745SOL     OW14608   3.252   4.299   3.802
 4745SOL    HW114609   3.198   4.278   3.883
 4745SOL    HW214610   3.343   4.258   3.811
 4746SOL     OW14611   2.389   3.980   4.052
 4746SOL    HW114612   2.416   3.921   3.977
 4746SOL    HW214613   2.389   4.075   4.021
 4747SOL     OW14614   3.616   4.947   5.312
 4747SOL    HW114615   3.707   4.908   5.299
 4747SOL    HW214616   3.624   5.043   5.336
 4748SOL     OW14617   2.926   5.071   5.064
 4748SOL    HW114618   2.846   5.048   5.119
 4748SOL    HW214619   3.009   5.045   5.113
 4749SOL     OW14620   2.973   4.919   4.824
 4749SOL    HW114621   2.933   4.963   4.905
 4749SOL    HW214622   2.932   4.956   4.741
 4750SOL     OW14623   3.500   4.823   4.803
 4750SOL    HW114624   3.505   4.904   4.862
 4750SOL    HW214625   3.414   4.825   4.752
 4751SOL     OW14626   2.777   3.813   5.126
 4751SOL    HW114627   2.802   3.793   5.031
 4751SOL    HW214628   2.849   3.869   5.168
 4752SOL     OW14629   2.842   4.840   5.443
 4752SOL    HW114630   2.743   4.846   5.453
 4752SOL    HW214631   2.865   4.760   5.387
 4753SOL     OW14632   2.567   4.774   4.092
 4753SOL    HW114633   2.553   4.781   4.191
 4753SOL    HW214634   2.651   4.723   4.074
 4754SOL     OW14635   2.272   4.537   4.975
 4754SOL    HW114636   2.358   4.549   5.025
 4754SOL    HW214637   2.230   4.450   5.002
 4755SOL     OW14638   3.136   4.110   4.986
 4755SOL    HW114639   3.157   4.184   5.050
 4755SOL    HW214640   3.047   4.127   4.943
 4756SOL     OW14641   2.229   4.824   4.225
 4756SOL    HW114642   2.222   4.907   4.169
 4756SOL    HW214643   2.233   4.744   4.165
 4757SOL     OW14644   2.428   4.261   4.589
 4757SOL    HW114645   2.440   4.327   4.515
 4757SOL    HW214646   2.474   4.295   4.672
 4758SOL     OW14647   3.114   5.072   4.112
 4758SOL    HW114648   3.164   5.149   4.152
 4758SOL    HW214649   3.019   5.074   4.144
 4759SOL     OW14650   3.134   5.169   4.866
 4759SOL    HW114651   3.181   5.182   4.953
 4759SOL    HW214652   3.068   5.095   4.875
 4760SOL     OW14653   3.444   4.363   4.196
 4760SOL    HW114654   3.413   4.424   4.269
 4760SOL    HW214655   3.494   4.415   4.127
 4761SOL     OW14656   2.216   5.234   5.053
 4761SOL    HW114657   2.195   5.190   4.966
 4761SOL    HW214658   2.313   5.260   5.056
 4762SOL     OW14659   2.264   4.475   5.322
 4762SOL    HW114660   2.332   4.530   5.275
 4762SOL    HW214661   2.304   4.387   5.349
 4763SOL     OW14662   3.449   4.503   5.394
 4763SOL    HW114663   3.357   4.541   5.389
 4763SOL    HW214664   3.509   4.550   5.329
 4764SOL     OW14665   2.875   3.829   5.494
 4764SOL    HW114666   2.881   3.914   5.442
 4764SOL    HW214667   2.907   3.753   5.437
 4765SOL     OW14668   2.366   3.774   5.464
 4765SOL    HW114669   2.324   3.717   5.394
 4765SOL    HW214670   2.300   3.843   5.496
 4766SOL     OW14671   2.435   4.594   4.753
 4766SOL    HW114672   2.479   4.683   4.744
 4766SOL    HW214673   2.372   4.594   4.830
 4767SOL     OW14674   3.222   4.586   4.769
 4767SOL    HW114675   3.147   4.586   4.703
 4767SOL    HW214676   3.259   4.494   4.778
 4768SOL     OW14677   3.071   4.249   3.999
 4768SOL    HW114678   3.084   4.165   4.053
 4768SOL    HW214679   3.042   4.323   4.059
 4769SOL     OW14680   2.169   3.937   4.955
 4769SOL    HW114681   2.146   3.974   5.045
 4769SOL    HW214682   2.139   3.842   4.949
 4770SOL     OW14683   1.899   5.034   5.006
 4770SOL    HW114684   1.952   4.985   5.074
 4770SOL    HW214685   1.921   5.132   5.011
 4771SOL     OW14686   2.594   4.358   4.788
 4771SOL    HW114687   2.653   4.332   4.712
 4771SOL    HW214688   2.566   4.454   4.777
 4772SOL     OW14689   3.590   4.659   5.578
 4772SOL    HW114690   3.544   4.652   5.489
 4772SOL    HW214691   3.528   4.703   5.644
 4773SOL     OW14692   2.169   3.787   4.342
 4773SOL    HW114693   2.158   3.881   4.375
 4773SOL    HW214694   2.164   3.724   4.419
 4774SOL     OW14695   3.484   4.091   4.098
 4774SOL    HW114696   3.486   4.015   4.162
 4774SOL    HW214697   3.436   4.168   4.138
 4775SOL     OW14698   2.885   4.490   4.690
 4775SOL    HW114699   2.900   4.511   4.786
 4775SOL    HW214700   2.855   4.395   4.681
 4776SOL     OW14701   3.721   5.242   5.329
 4776SOL    HW114702   3.735   5.269   5.234
 4776SOL    HW214703   3.804   5.264   5.382
 4777SOL     OW14704   2.212   4.622   5.528
 4777SOL    HW114705   2.288   4.666   5.576
 4777SOL    HW214706   2.247   4.575   5.446
 4778SOL     OW14707   3.402   3.998   3.849
 4778SOL    HW114708   3.341   3.923   3.872
 4778SOL    HW214709   3.424   4.050   3.932
 4779SOL     OW14710   3.165   4.562   3.766
 4779SOL    HW114711   3.199   4.469   3.781
 4779SOL    HW214712   3.183   4.589   3.671
 4780SOL     OW14713   2.930   5.057   4.573
 4780SOL    HW114714   2.937   4.973   4.518
 4780SOL    HW214715   2.992   5.126   4.537
 4781SOL     OW14716   2.181   4.534   4.673
 4781SOL    HW114717   2.274   4.570   4.678
 4781SOL    HW214718   2.175   4.449   4.725
 4782SOL     OW14719   2.201   4.233   4.730
 4782SOL    HW114720   2.149   4.150   4.713
 4782SOL    HW214721   2.278   4.238   4.666
 4783SOL     OW14722   3.000   4.104   5.402
 4783SOL    HW114723   2.955   4.167   5.466
 4783SOL    HW214724   3.093   4.135   5.385
 4784SOL     OW14725   3.022   3.931   5.201
 4784SOL    HW114726   3.022   3.995   5.278
 4784SOL    HW214727   3.050   3.979   5.118
 4785SOL     OW14728   1.870   5.050   3.924
 4785SOL    HW114729   1.777   5.071   3.893
 4785SOL    HW214730   1.880   4.951   3.937
 4786SOL     OW14731   2.864   4.520   4.962
 4786SOL    HW114732   2.905   4.488   5.048
 4786SOL    HW214733   2.768   4.493   4.959
 4787SOL     OW14734   1.902   4.268   4.838
 4787SOL    HW114735   1.987   4.235   4.797
 4787SOL    HW214736   1.915   4.283   4.936
 4788SOL     OW14737   2.051   4.244   5.446
 4788SOL    HW114738   2.110   4.204   5.376
 4788SOL    HW214739   1.993   4.315   5.405
 4789SOL     OW14740   3.231   4.674   5.384
 4789SOL    HW114741   3.270   4.763   5.404
 4789SOL    HW214742   3.241   4.654   5.287
 4790SOL     OW14743   2.677   4.296   4.049
 4790SOL    HW114744   2.684   4.207   4.003
 4790SOL    HW214745   2.583   4.330   4.041
 4791SOL     OW14746   3.519   4.328   4.930
 4791SOL    HW114747   3.481   4.259   4.992
 4791SOL    HW214748   3.601   4.292   4.886
 4792SOL     OW14749   2.114   5.288   5.468
 4792SOL    HW114750   2.084   5.345   5.544
 4792SOL    HW214751   2.107   5.191   5.494
 4793SOL     OW14752   2.533   4.188   4.993
 4793SOL    HW114753   2.499   4.099   4.963
 4793SOL    HW214754   2.559   4.242   4.913
 4794SOL     OW14755   2.335   4.224   3.915
 4794SOL    HW114756   2.396   4.304   3.919
 4794SOL    HW214757   2.240   4.255   3.922
 4795SOL     OW14758   2.021   4.861   5.190
 4795SOL    HW114759   2.043   4.800   5.266
 4795SOL    HW214760   2.031   4.812   5.104
 4796SOL     OW14761   3.209   4.783   4.958
 4796SOL    HW114762   3.233   4.720   4.884
 4796SOL    HW214763   3.119   4.823   4.940
 4797SOL     OW14764   3.164   4.579   4.033
 4797SOL    HW114765   3.078   4.548   4.075
 4797SOL    HW214766   3.160   4.565   3.934
 4798SOL     OW14767   1.945   4.982   4.746
 4798SOL    HW114768   1.940   4.981   4.846
 4798SOL    HW214769   1.862   4.941   4.708
 4799SOL     OW14770   2.550   5.386   5.440
 4799SOL    HW114771   2.494   5.467   5.449
 4799SOL    HW214772   2.602   5.390   5.354
 4800SOL     OW14773   3.588   3.859   4.247
 4800SOL    HW114774   3.661   3.842   4.180
 4800SOL    HW214775   3.557   3.772   4.285
 4801SOL     OW14776   3.142   4.651   4.396
 4801SOL    HW114777   3.202   4.570   4.398
 4801SOL    HW214778   3.182   4.720   4.336
 4802SOL     OW14779   2.692   4.997   5.146
 4802SOL    HW114780   2.687   5.030   5.241
 4802SOL    HW214781   2.606   5.016   5.100
 4803SOL     OW14782   3.703   3.899   4.687
 4803SOL    HW114783   3.742   3.814   4.651
 4803SOL    HW214784   3.605   3.901   4.668
 4804SOL     OW14785   2.125   4.050   4.444
 4804SOL    HW114786   2.046   4.101   4.410
 4804SOL    HW214787   2.116   4.035   4.542
 4805SOL     OW14788   2.684   4.726   5.096
 4805SOL    HW114789   2.724   4.725   5.004
 4805SOL    HW214790   2.694   4.818   5.136
 4806SOL     OW14791   2.778   4.634   4.015
 4806SOL    HW114792   2.841   4.672   3.947
 4806SOL    HW214793   2.818   4.551   4.054
 4807SOL     OW14794   2.234   5.012   5.214
 4807SOL    HW114795   2.221   5.105   5.180
 4807SOL    HW214796   2.150   4.960   5.201
 4808SOL     OW14797   3.476   5.016   5.013
 4808SOL    HW114798   3.536   5.019   5.093
 4808SOL    HW214799   3.401   5.080   5.026
 4809SOL     OW14800   2.901   4.822   4.420
 4809SOL    HW114801   2.831   4.775   4.474
 4809SOL    HW214802   2.960   4.754   4.377
 4810SOL     OW14803   2.876   3.960   4.695
 4810SOL    HW114804   2.868   3.924   4.602
 4810SOL    HW214805   2.874   3.884   4.760
 4811SOL     OW14806   3.571   4.109   5.105
 4811SOL    HW114807   3.644   4.178   5.109
 4811SOL    HW214808   3.599   4.034   5.046
 4812SOL     OW14809   2.117   5.072   4.014
 4812SOL    HW114810   2.021   5.073   3.987
 4812SOL    HW214811   2.129   5.125   4.098
 4813SOL     OW14812   1.967   4.737   5.450
 4813SOL    HW114813   1.890   4.704   5.504
 4813SOL    HW214814   2.052   4.707   5.492
 4814SOL     OW14815   2.534   3.927   5.213
 4814SOL    HW114816   2.624   3.911   5.173
 4814SOL    HW214817   2.542   3.932   5.312
 4815SOL     OW14818   1.937   4.069   3.757
 4815SOL    HW114819   1.845   4.041   3.728
 4815SOL    HW214820   1.968   4.146   3.701
 4816SOL     OW14821   3.302   4.580   5.122
 4816SOL    HW114822   3.245   4.632   5.059
 4816SOL    HW214823   3.398   4.592   5.098
 4817SOL     OW14824   1.934   3.890   4.042
 4817SOL    HW114825   1.917   3.973   3.988
 4817SOL    HW214826   2.024   3.853   4.020
 4818SOL     OW14827   3.045   5.059   3.843
 4818SOL    HW114828   2.946   5.048   3.845
 4818SOL    HW214829   3.079   5.074   3.936
 4819SOL     OW14830   2.475   4.566   5.155
 4819SOL    HW114831   2.531   4.647   5.138
 4819SOL    HW214832   2.534   4.486   5.158
 4820SOL     OW14833   2.578   4.289   5.432
 4820SOL    HW114834   2.597   4.354   5.506
 4820SOL    HW214835   2.638   4.209   5.441
 4821SOL     OW14836   3.312   4.944   5.357
 4821SOL    HW114837   3.303   4.934   5.456
 4821SOL    HW214838   3.408   4.937   5.331
 4822SOL     OW14839   3.536   4.607   4.978
 4822SOL    HW114840   3.509   4.518   4.941
 4822SOL    HW214841   3.537   4.675   4.905
 4823SOL     OW14842   3.087   4.049   4.173
 4823SOL    HW114843   3.152   3.975   4.162
 4823SOL    HW214844   3.107   4.099   4.257
 4824SOL     OW14845   2.456   4.469   4.376
 4824SOL    HW114846   2.506   4.554   4.357
 4824SOL    HW214847   2.368   4.471   4.328
 4825SOL     OW14848   3.639   4.066   5.366
 4825SOL    HW114849   3.622   4.097   5.272
 4825SOL    HW214850   3.555   4.029   5.404
 4826SOL     OW14851   3.592   4.658   5.241
 4826SOL    HW114852   3.630   4.749   5.256
 4826SOL    HW214853   3.584   4.641   5.142
 4827SOL     OW14854   2.721   5.098   3.740
 4827SOL    HW114855   2.675   5.113   3.828
 4827SOL    HW214856   2.765   5.183   3.710
 4828SOL     OW14857   2.721   4.680   4.585
 4828SOL    HW114858   2.775   4.611   4.633
 4828SOL    HW214859   2.689   4.749   4.651
 4829SOL     OW14860   2.945   4.708   3.811
 4829SOL    HW114861   2.922   4.761   3.729
 4829SOL    HW214862   3.026   4.652   3.792
 4830SOL     OW14863   2.083   5.038   5.568
 4830SOL    HW114864   2.018   4.965   5.547
 4830SOL    HW214865   2.087   5.052   5.666
 4831SOL     OW14866   1.941   4.964   4.377
 4831SOL    HW114867   1.940   4.917   4.465
 4831SOL    HW214868   2.023   4.936   4.326
 4832SOL     OW14869   2.534   5.115   5.348
 4832SOL    HW114870   2.456   5.065   5.386
 4832SOL    HW214871   2.531   5.210   5.379
 4833SOL     OW14872   3.686   3.916   4.951
 4833SOL    HW114873   3.682   3.826   4.995
 4833SOL    HW214874   3.689   3.905   4.852
 4834SOL     OW14875   2.290   4.148   4.244
 4834SOL    HW114876   2.320   4.076   4.182
 4834SOL    HW214877   2.251   4.108   4.327
 4835SOL     OW14878   3.567   5.211   4.828
 4835SOL    HW114879   3.474   5.186   4.801
 4835SOL    HW214880   3.593   5.161   4.910
 4836SOL     OW14881   2.179   4.271   5.004
 4836SOL    HW114882   2.217   4.212   5.076
 4836SOL    HW214883   2.219   4.245   4.916
 4837SOL     OW14884   3.286   3.938   4.836
 4837SOL    HW114885   3.338   3.873   4.891
 4837SOL    HW214886   3.237   4.001   4.897
 4838SOL     OW14887   2.863   3.758   4.878
 4838SOL    HW114888   2.800   3.686   4.847
 4838SOL    HW214889   2.956   3.722   4.878
 4839SOL     OW14890   2.632   5.054   4.025
 4839SOL    HW114891   2.586   4.967   4.042
 4839SOL    HW214892   2.723   5.051   4.066
 4840SOL     OW14893   2.480   5.291   5.008
 4840SOL    HW114894   2.475   5.373   5.065
 4840SOL    HW214895   2.569   5.288   4.963
 4841SOL     OW14896   3.214   3.776   3.892
 4841SOL    HW114897   3.249   3.735   3.808
 4841SOL    HW214898   3.124   3.738   3.912
 4842SOL     OW14899   3.162   4.177   4.415
 4842SOL    HW114900   3.103   4.257   4.419
 4842SOL    HW214901   3.177   4.142   4.508
 4843SOL     OW14902   3.455   3.945   4.606
 4843SOL    HW114903   3.371   3.944   4.660
 4843SOL    HW214904   3.457   4.028   4.550
 4844SOL     OW14905   1.901   4.801   4.024
 4844SOL    HW114906   2.000   4.790   4.015
 4844SOL    HW214907   1.861   4.715   4.056
 4845SOL     OW14908   2.092   4.352   5.699
 4845SOL    HW114909   1.999   4.350   5.736
 4845SOL    HW214910   2.093   4.313   5.607
 4846SOL     OW14911   2.087   3.999   6.582
 4846SOL    HW114912   2.122   3.982   6.674
 4846SOL    HW214913   1.999   3.954   6.570
 4847SOL     OW14914   1.881   4.092   6.233
 4847SOL    HW114915   1.799   4.135   6.272
 4847SOL    HW214916   1.853   4.019   6.170
 4848SOL     OW14917   2.431   4.999   6.751
 4848SOL    HW114918   2.338   4.992   6.714
 4848SOL    HW214919   2.442   5.088   6.795
 4849SOL     OW14920   3.417   5.235   6.289
 4849SOL    HW114921   3.360   5.219   6.370
 4849SOL    HW214922   3.358   5.245   6.209
 4850SOL     OW14923   2.997   4.427   6.303
 4850SOL    HW114924   3.054   4.505   6.278
 4850SOL    HW214925   2.937   4.453   6.379
 4851SOL     OW14926   3.617   4.331   5.817
 4851SOL    HW114927   3.605   4.318   5.718
 4851SOL    HW214928   3.587   4.250   5.866
 4852SOL     OW14929   2.630   4.868   6.609
 4852SOL    HW114930   2.552   4.885   6.669
 4852SOL    HW214931   2.664   4.955   6.573
 4853SOL     OW14932   2.712   4.522   7.409
 4853SOL    HW114933   2.708   4.598   7.474
 4853SOL    HW214934   2.734   4.558   7.318
 4854SOL     OW14935   2.547   4.736   6.251
 4854SOL    HW114936   2.616   4.720   6.321
 4854SOL    HW214937   2.474   4.793   6.289
 4855SOL     OW14938   2.548   4.885   7.389
 4855SOL    HW114939   2.608   4.964   7.403
 4855SOL    HW214940   2.462   4.916   7.348
 4856SOL     OW14941   2.197   5.159   6.647
 4856SOL    HW114942   2.119   5.128   6.594
 4856SOL    HW214943   2.255   5.217   6.590
 4857SOL     OW14944   3.322   5.229   6.925
 4857SOL    HW114945   3.346   5.323   6.951
 4857SOL    HW214946   3.306   5.175   7.007
 4858SOL     OW14947   2.300   4.116   7.085
 4858SOL    HW114948   2.382   4.060   7.094
 4858SOL    HW214949   2.219   4.058   7.089
 4859SOL     OW14950   3.465   4.171   6.323
 4859SOL    HW114951   3.391   4.217   6.273
 4859SOL    HW214952   3.516   4.239   6.376
 4860SOL     OW14953   2.989   5.065   7.276
 4860SOL    HW114954   3.036   5.065   7.364
 4860SOL    HW214955   2.941   4.978   7.265
 4861SOL     OW14956   2.092   5.158   6.124
 4861SOL    HW114957   2.066   5.254   6.124
 4861SOL    HW214958   2.021   5.104   6.169
 4862SOL     OW14959   2.102   4.815   6.472
 4862SOL    HW114960   2.116   4.731   6.524
 4862SOL    HW214961   2.047   4.879   6.527
 4863SOL     OW14962   2.468   4.688   5.709
 4863SOL    HW114963   2.475   4.772   5.655
 4863SOL    HW214964   2.514   4.701   5.797
 4864SOL     OW14965   3.456   3.838   7.066
 4864SOL    HW114966   3.438   3.905   6.994
 4864SOL    HW214967   3.453   3.884   7.155
 4865SOL     OW14968   1.984   4.367   6.149
 4865SOL    HW114969   1.939   4.279   6.166
 4865SOL    HW214970   1.983   4.421   6.233
 4866SOL     OW14971   1.889   5.320   5.703
 4866SOL    HW114972   1.870   5.224   5.724
 4866SOL    HW214973   1.856   5.378   5.778
 4867SOL     OW14974   3.551   4.646   6.198
 4867SOL    HW114975   3.646   4.617   6.206
 4867SOL    HW214976   3.543   4.711   6.123
 4868SOL     OW14977   3.503   4.832   6.018
 4868SOL    HW114978   3.589   4.834   5.966
 4868SOL    HW214979   3.517   4.879   6.106
 4869SOL     OW14980   1.975   4.461   7.183
 4869SOL    HW114981   2.063   4.448   7.228
 4869SOL    HW214982   1.962   4.558   7.161
 4870SOL     OW14983   2.475   5.089   6.312
 4870SOL    HW114984   2.426   5.002   6.321
 4870SOL    HW214985   2.452   5.132   6.225
 4871SOL     OW14986   3.155   4.952   7.009
 4871SOL    HW114987   3.192   4.879   6.951
 4871SOL    HW214988   3.207   4.957   7.094
 4872SOL     OW14989   2.671   3.728   6.088
 4872SOL    HW114990   2.711   3.819   6.079
 4872SOL    HW214991   2.571   3.736   6.094
 4873SOL     OW14992   2.059   4.700   6.850
 4873SOL    HW114993   2.148   4.655   6.836
 4873SOL    HW214994   1.986   4.635   6.831
 4874SOL     OW14995   3.387   4.723   5.776
 4874SOL    HW114996   3.324   4.647   5.789
 4874SOL    HW214997   3.435   4.741   5.862
 4875SOL     OW14998   2.179   3.975   7.387
 4875SOL    HW114999   2.250   4.046   7.393
 4875SOL    HW215000   2.091   4.014   7.415
 4876SOL     OW15001   3.328   5.141   6.539
 4876SOL    HW115002   3.269   5.147   6.619
 4876SOL    HW215003   3.313   5.053   6.493
 4877SOL     OW15004   2.460   4.453   5.856
 4877SOL    HW115005   2.484   4.522   5.788
 4877SOL    HW215006   2.382   4.486   5.910
 4878SOL     OW15007   3.143   4.069   6.530
 4878SOL    HW115008   3.057   4.019   6.517
 4878SOL    HW215009   3.205   4.015   6.586
 4879SOL     OW15010   2.669   4.329   7.051
 4879SOL    HW115011   2.622   4.326   7.140
 4879SOL    HW215012   2.618   4.274   6.985
 4880SOL     OW15013   3.256   4.193   7.260
 4880SOL    HW115014   3.236   4.236   7.348
 4880SOL    HW215015   3.334   4.131   7.269
 4881SOL     OW15016   2.835   4.614   7.158
 4881SOL    HW115017   2.881   4.530   7.129
 4881SOL    HW215018   2.779   4.648   7.083
 4882SOL     OW15019   2.853   4.134   6.828
 4882SOL    HW115020   2.776   4.168   6.882
 4882SOL    HW215021   2.819   4.083   6.749
 4883SOL     OW15022   2.903   4.425   6.015
 4883SOL    HW115023   2.929   4.421   6.111
 4883SOL    HW215024   2.818   4.374   6.001
 4884SOL     OW15025   1.938   4.535   6.375
 4884SOL    HW115026   2.037   4.523   6.384
 4884SOL    HW215027   1.914   4.630   6.396
 4885SOL     OW15028   2.727   4.072   5.781
 4885SOL    HW115029   2.786   4.135   5.732
 4885SOL    HW215030   2.746   3.978   5.752
 4886SOL     OW15031   3.581   4.309   7.417
 4886SOL    HW115032   3.555   4.398   7.381
 4886SOL    HW215033   3.579   4.241   7.344
 4887SOL     OW15034   3.224   4.868   6.131
 4887SOL    HW115035   3.307   4.839   6.083
 4887SOL    HW215036   3.175   4.935   6.075
 4888SOL     OW15037   2.412   3.920   6.471
 4888SOL    HW115038   2.407   3.915   6.571
 4888SOL    HW215039   2.414   4.016   6.442
 4889SOL     OW15040   2.870   5.180   6.063
 4889SOL    HW115041   2.824   5.252   6.011
 4889SOL    HW215042   2.866   5.200   6.161
 4890SOL     OW15043   3.657   4.790   6.459
 4890SOL    HW115044   3.595   4.775   6.383
 4890SOL    HW215045   3.605   4.801   6.544
 4891SOL     OW15046   3.089   5.274   7.092
 4891SOL    HW115047   3.095   5.197   7.156
 4891SOL    HW215048   3.037   5.248   7.012
 4892SOL     OW15049   2.183   4.667   5.828
 4892SOL    HW115050   2.265   4.706   5.786
 4892SOL    HW215051   2.156   4.585   5.779
 4893SOL     OW15052   3.320   4.459   6.314
 4893SOL    HW115053   3.315   4.394   6.389
 4893SOL    HW215054   3.400   4.518   6.327
 4894SOL     OW15055   2.323   4.990   7.313
 4894SOL    HW115056   2.273   4.991   7.227
 4894SOL    HW215057   2.260   4.972   7.389
 4895SOL     OW15058   2.973   5.500   5.823
 4895SOL    HW115059   2.913   5.438   5.873
 4895SOL    HW215060   3.004   5.456   5.738
 4896SOL     OW15061   2.064   4.009   7.084
 4896SOL    HW115062   1.984   4.069   7.071
 4896SOL    HW215063   2.054   3.960   7.170
 4897SOL     OW15064   3.494   5.101   5.667
 4897SOL    HW115065   3.462   5.195   5.657
 4897SOL    HW215066   3.418   5.038   5.655
 4898SOL     OW15067   3.262   3.831   6.012
 4898SOL    HW115068   3.238   3.794   5.922
 4898SOL    HW215069   3.361   3.847   6.016
 4899SOL     OW15070   2.244   4.424   6.066
 4899SOL    HW115071   2.289   4.334   6.063
 4899SOL    HW215072   2.150   4.413   6.099
 4900SOL     OW15073   3.409   3.946   7.315
 4900SOL    HW115074   3.404   3.983   7.407
 4900SOL    HW215075   3.337   3.877   7.303
 4901SOL     OW15076   2.476   3.846   5.703
 4901SOL    HW115077   2.574   3.824   5.710
 4901SOL    HW215078   2.445   3.829   5.610
 4902SOL     OW15079   2.643   3.988   7.335
 4902SOL    HW115080   2.710   3.927   7.378
 4902SOL    HW215081   2.570   4.007   7.400
 4903SOL     OW15082   3.213   4.314   7.019
 4903SOL    HW115083   3.241   4.271   7.104
 4903SOL    HW215084   3.238   4.410   7.020
 4904SOL     OW15085   2.665   5.126   6.510
 4904SOL    HW115086   2.755   5.140   6.468
 4904SOL    HW215087   2.594   5.128   6.439
 4905SOL     OW15088   2.784   4.227   6.485
 4905SOL    HW115089   2.759   4.218   6.389
 4905SOL    HW215090   2.832   4.145   6.516
 4906SOL     OW15091   2.401   3.788   6.098
 4906SOL    HW115092   2.320   3.789   6.156
 4906SOL    HW215093   2.404   3.871   6.043
 4907SOL     OW15094   3.296   4.912   5.627
 4907SOL    HW115095   3.328   4.836   5.684
 4907SOL    HW215096   3.204   4.939   5.657
 4908SOL     OW15097   2.159   3.759   5.757
 4908SOL    HW115098   2.208   3.843   5.736
 4908SOL    HW215099   2.221   3.694   5.802
 4909SOL     OW15100   2.797   3.960   6.066
 4909SOL    HW115101   2.749   4.001   5.988
 4909SOL    HW215102   2.896   3.958   6.047
 4910SOL     OW15103   2.938   4.407   7.050
 4910SOL    HW115104   2.858   4.346   7.053
 4910SOL    HW215105   3.019   4.354   7.026
 4911SOL     OW15106   3.089   5.294   6.379
 4911SOL    HW115107   3.110   5.368   6.314
 4911SOL    HW215108   3.157   5.294   6.452
 4912SOL     OW15109   2.321   4.876   6.327
 4912SOL    HW115110   2.250   4.849   6.392
 4912SOL    HW215111   2.295   4.848   6.234
 4913SOL     OW15112   2.894   4.273   5.602
 4913SOL    HW115113   2.853   4.355   5.563
 4913SOL    HW215114   2.958   4.299   5.675
 4914SOL     OW15115   1.940   4.280   6.972
 4914SOL    HW115116   2.032   4.279   6.931
 4914SOL    HW215117   1.934   4.354   7.039
 4915SOL     OW15118   2.423   3.946   6.733
 4915SOL    HW115119   2.461   3.862   6.770
 4915SOL    HW215120   2.335   3.965   6.777
 4916SOL     OW15121   2.728   4.178   6.228
 4916SOL    HW115122   2.696   4.250   6.166
 4916SOL    HW215123   2.752   4.097   6.175
 4917SOL     OW15124   2.879   3.763   6.339
 4917SOL    HW115125   2.807   3.768   6.270
 4917SOL    HW215126   2.855   3.694   6.408
 4918SOL     OW15127   3.291   4.897   6.453
 4918SOL    HW115128   3.236   4.813   6.446
 4918SOL    HW215129   3.317   4.926   6.361
 4919SOL     OW15130   3.328   4.314   6.578
 4919SOL    HW115131   3.298   4.219   6.585
 4919SOL    HW215132   3.401   4.330   6.644
 4920SOL     OW15133   3.719   4.557   5.963
 4920SOL    HW115134   3.761   4.493   6.027
 4920SOL    HW215135   3.681   4.506   5.885
 4921SOL     OW15136   2.350   5.109   5.760
 4921SOL    HW115137   2.263   5.094   5.807
 4921SOL    HW215138   2.333   5.135   5.665
 4922SOL     OW15139   3.526   5.004   6.243
 4922SOL    HW115140   3.625   5.012   6.257
 4922SOL    HW215141   3.481   5.088   6.274
 4923SOL     OW15142   3.252   4.299   5.664
 4923SOL    HW115143   3.198   4.278   5.745
 4923SOL    HW215144   3.343   4.258   5.673
 4924SOL     OW15145   2.389   3.980   5.914
 4924SOL    HW115146   2.416   3.921   5.839
 4924SOL    HW215147   2.389   4.075   5.883
 4925SOL     OW15148   3.616   4.947   7.174
 4925SOL    HW115149   3.707   4.908   7.161
 4925SOL    HW215150   3.624   5.043   7.198
 4926SOL     OW15151   2.926   5.071   6.926
 4926SOL    HW115152   2.846   5.048   6.981
 4926SOL    HW215153   3.009   5.045   6.975
 4927SOL     OW15154   2.973   4.919   6.686
 4927SOL    HW115155   2.933   4.963   6.767
 4927SOL    HW215156   2.932   4.956   6.603
 4928SOL     OW15157   3.500   4.823   6.665
 4928SOL    HW115158   3.505   4.904   6.724
 4928SOL    HW215159   3.414   4.825   6.614
 4929SOL     OW15160   2.777   3.813   6.988
 4929SOL    HW115161   2.802   3.793   6.893
 4929SOL    HW215162   2.849   3.869   7.030
 4930SOL     OW15163   2.842   4.840   7.305
 4930SOL    HW115164   2.743   4.846   7.315
 4930SOL    HW215165   2.865   4.760   7.249
 4931SOL     OW15166   2.567   4.774   5.954
 4931SOL    HW115167   2.553   4.781   6.053
 4931SOL    HW215168   2.651   4.723   5.936
 4932SOL     OW15169   2.272   4.537   6.837
 4932SOL    HW115170   2.358   4.549   6.887
 4932SOL    HW215171   2.230   4.450   6.864
 4933SOL     OW15172   3.136   4.110   6.848
 4933SOL    HW115173   3.157   4.184   6.912
 4933SOL    HW215174   3.047   4.127   6.805
 4934SOL     OW15175   2.229   4.824   6.087
 4934SOL    HW115176   2.222   4.907   6.031
 4934SOL    HW215177   2.233   4.744   6.027
 4935SOL     OW15178   2.428   4.261   6.451
 4935SOL    HW115179   2.440   4.327   6.377
 4935SOL    HW215180   2.474   4.295   6.534
 4936SOL     OW15181   3.114   5.072   5.974
 4936SOL    HW115182   3.164   5.149   6.014
 4936SOL    HW215183   3.019   5.074   6.006
 4937SOL     OW15184   3.134   5.169   6.728
 4937SOL    HW115185   3.181   5.182   6.815
 4937SOL    HW215186   3.068   5.095   6.737
 4938SOL     OW15187   3.444   4.363   6.058
 4938SOL    HW115188   3.413   4.424   6.131
 4938SOL    HW215189   3.494   4.415   5.989
 4939SOL     OW15190   2.216   5.234   6.915
 4939SOL    HW115191   2.195   5.190   6.828
 4939SOL    HW215192   2.313   5.260   6.918
 4940SOL     OW15193   2.264   4.475   7.184
 4940SOL    HW115194   2.332   4.530   7.137
 4940SOL    HW215195   2.304   4.387   7.211
 4941SOL     OW15196   3.449   4.503   7.256
 4941SOL    HW115197   3.357   4.541   7.251
 4941SOL    HW215198   3.509   4.550   7.191
 4942SOL     OW15199   2.875   3.829   7.356
 4942SOL    HW115200   2.881   3.914   7.304
 4942SOL    HW215201   2.907   3.753   7.299
 4943SOL     OW15202   2.366   3.774   7.326
 4943SOL    HW115203   2.324   3.717   7.256
 4943SOL    HW215204   2.300   3.843   7.358
 4944SOL     OW15205   2.435   4.594   6.615
 4944SOL    HW115206   2.479   4.683   6.606
 4944SOL    HW215207   2.372   4.594   6.692
 4945SOL     OW15208   3.222   4.586   6.631
 4945SOL    HW115209   3.147   4.586   6.565
 4945SOL    HW215210   3.259   4.494   6.640
 4946SOL     OW15211   3.071   4.249   5.861
 4946SOL    HW115212   3.084   4.165   5.915
 4946SOL    HW215213   3.042   4.323   5.921
 4947SOL     OW15214   2.169   3.937   6.817
 4947SOL    HW115215   2.146   3.974   6.907
 4947SOL    HW215216   2.139   3.842   6.811
 4948SOL     OW15217   1.899   5.034   6.868
 4948SOL    HW115218   1.952   4.985   6.936
 4948SOL    HW215219   1.921   5.132   6.873
 4949SOL     OW15220   2.594   4.358   6.650
 4949SOL    HW115221   2.653   4.332   6.574
 4949SOL    HW215222   2.566   4.454   6.639
 4950SOL     OW15223   3.590   4.659   7.440
 4950SOL    HW115224   3.544   4.652   7.351
 4950SOL    HW215225   3.528   4.703   7.506
 4951SOL     OW15226   2.169   3.787   6.204
 4951SOL    HW115227   2.158   3.881   6.237
 4951SOL    HW215228   2.164   3.724   6.281
 4952SOL     OW15229   3.484   4.091   5.960
 4952SOL    HW115230   3.486   4.015   6.024
 4952SOL    HW215231   3.436   4.168   6.000
 4953SOL     OW15232   2.885   4.490   6.552
 4953SOL    HW115233   2.900   4.511   6.648
 4953SOL    HW215234   2.855   4.395   6.543
 4954SOL     OW15235   3.721   5.242   7.191
 4954SOL    HW115236   3.735   5.269   7.096
 4954SOL    HW215237   3.804   5.264   7.244
 4955SOL     OW15238   2.212   4.622   7.390
 4955SOL    HW115239   2.288   4.666   7.438
 4955SOL    HW215240   2.247   4.575   7.308
 4956SOL     OW15241   3.402   3.998   5.711
 4956SOL    HW115242   3.341   3.923   5.734
 4956SOL    HW215243   3.424   4.050   5.794
 4957SOL     OW15244   3.165   4.562   5.628
 4957SOL    HW115245   3.199   4.469   5.643
 4957SOL    HW215246   3.183   4.589   5.533
 4958SOL     OW15247   2.930   5.057   6.435
 4958SOL    HW115248   2.937   4.973   6.380
 4958SOL    HW215249   2.992   5.126   6.399
 4959SOL     OW15250   2.181   4.534   6.535
 4959SOL    HW115251   2.274   4.570   6.540
 4959SOL    HW215252   2.175   4.449   6.587
 4960SOL     OW15253   2.201   4.233   6.592
 4960SOL    HW115254   2.149   4.150   6.575
 4960SOL    HW215255   2.278   4.238   6.528
 4961SOL     OW15256   3.000   4.104   7.264
 4961SOL    HW115257   2.955   4.167   7.328
 4961SOL    HW215258   3.093   4.135   7.247
 4962SOL     OW15259   3.022   3.931   7.063
 4962SOL    HW115260   3.022   3.995   7.140
 4962SOL    HW215261   3.050   3.979   6.980
 4963SOL     OW15262   1.870   5.050   5.786
 4963SOL    HW115263   1.777   5.071   5.755
 4963SOL    HW215264   1.880   4.951   5.799
 4964SOL     OW15265   2.864   4.520   6.824
 4964SOL    HW115266   2.905   4.488   6.910
 4964SOL    HW215267   2.768   4.493   6.821
 4965SOL     OW15268   1.902   4.268   6.700
 4965SOL    HW115269   1.987   4.235   6.659
 4965SOL    HW215270   1.915   4.283   6.798
 4966SOL     OW15271   2.051   4.244   7.308
 4966SOL    HW115272   2.110   4.204   7.238
 4966SOL    HW215273   1.993   4.315   7.267
 4967SOL     OW15274   3.231   4.674   7.246
 4967SOL    HW115275   3.270   4.763   7.266
 4967SOL    HW215276   3.241   4.654   7.149
 4968SOL     OW15277   2.677   4.296   5.911
 4968SOL    HW115278   2.684   4.207   5.865
 4968SOL    HW215279   2.583   4.330   5.903
 4969SOL     OW15280   3.519   4.328   6.792
 4969SOL    HW115281   3.481   4.259   6.854
 4969SOL    HW215282   3.601   4.292   6.748
 4970SOL     OW15283   2.114   5.288   7.330
 4970SOL    HW115284   2.084   5.345   7.406
 4970SOL    HW215285   2.107   5.191   7.356
 4971SOL     OW15286   2.533   4.188   6.855
 4971SOL    HW115287   2.499   4.099   6.825
 4971SOL    HW215288   2.559   4.242   6.775
 4972SOL     OW15289   2.335   4.224   5.777
 4972SOL    HW115290   2.396   4.304   5.781
 4972SOL    HW215291   2.240   4.255   5.784
 4973SOL     OW15292   2.021   4.861   7.052
 4973SOL    HW115293   2.043   4.800   7.128
 4973SOL    HW215294   2.031   4.812   6.966
 4974SOL     OW15295   3.209   4.783   6.820
 4974SOL    HW115296   3.233   4.720   6.746
 4974SOL    HW215297   3.119   4.823   6.802
 4975SOL     OW15298   3.164   4.579   5.895
 4975SOL    HW115299   3.078   4.548   5.937
 4975SOL    HW215300   3.160   4.565   5.796
 4976SOL     OW15301   1.945   4.982   6.608
 4976SOL    HW115302   1.940   4.981   6.708
 4976SOL    HW215303   1.862   4.941   6.570
 4977SOL     OW15304   2.550   5.386   7.302
 4977SOL    HW115305   2.494   5.467   7.311
 4977SOL    HW215306   2.602   5.390   7.216
 4978SOL     OW15307   3.588   3.859   6.109
 4978SOL    HW115308   3.661   3.842   6.042
 4978SOL    HW215309   3.557   3.772   6.147
 4979SOL     OW15310   3.142   4.651   6.258
 4979SOL    HW115311   3.202   4.570   6.260
 4979SOL    HW215312   3.182   4.720   6.198
 4980SOL     OW15313   2.692   4.997   7.008
 4980SOL    HW115314   2.687   5.030   7.103
 4980SOL    HW215315   2.606   5.016   6.962
 4981SOL     OW15316   3.703   3.899   6.549
 4981SOL    HW115317   3.742   3.814   6.513
 4981SOL    HW215318   3.605   3.901   6.530
 4982SOL     OW15319   2.125   4.050   6.306
 4982SOL    HW115320   2.046   4.101   6.272
 4982SOL    HW215321   2.116   4.035   6.404
 4983SOL     OW15322   2.684   4.726   6.958
 4983SOL    HW115323   2.724   4.725   6.866
 4983SOL    HW215324   2.694   4.818   6.998
 4984SOL     OW15325   2.778   4.634   5.877
 4984SOL    HW115326   2.841   4.672   5.809
 4984SOL    HW215327   2.818   4.551   5.916
 4985SOL     OW15328   2.234   5.012   7.076
 4985SOL    HW115329   2.221   5.105   7.042
 4985SOL    HW215330   2.150   4.960   7.063
 4986SOL     OW15331   3.476   5.016   6.875
 4986SOL    HW115332   3.536   5.019   6.955
 4986SOL    HW215333   3.401   5.080   6.888
 4987SOL     OW15334   2.901   4.822   6.282
 4987SOL    HW115335   2.831   4.775   6.336
 4987SOL    HW215336   2.960   4.754   6.239
 4988SOL     OW15337   2.876   3.960   6.557
 4988SOL    HW115338   2.868   3.924   6.464
 4988SOL    HW215339   2.874   3.884   6.622
 4989SOL     OW15340   3.571   4.109   6.967
 4989SOL    HW115341   3.644   4.178   6.971
 4989SOL    HW215342   3.599   4.034   6.908
 4990SOL     OW15343   2.117   5.072   5.876
 4990SOL    HW115344   2.021   5.073   5.849
 4990SOL    HW215345   2.129   5.125   5.960
 4991SOL     OW15346   1.967   4.737   7.312
 4991SOL    HW115347   1.890   4.704   7.366
 4991SOL    HW215348   2.052   4.707   7.354
 4992SOL     OW15349   2.534   3.927   7.075
 4992SOL    HW115350   2.624   3.911   7.035
 4992SOL    HW215351   2.542   3.932   7.174
 4993SOL     OW15352   1.937   4.069   5.619
 4993SOL    HW115353   1.845   4.041   5.590
 4993SOL    HW215354   1.968   4.146   5.563
 4994SOL     OW15355   3.302   4.580   6.984
 4994SOL    HW115356   3.245   4.632   6.921
 4994SOL    HW215357   3.398   4.592   6.960
 4995SOL     OW15358   1.934   3.890   5.904
 4995SOL    HW115359   1.917   3.973   5.850
 4995SOL    HW215360   2.024   3.853   5.882
 4996SOL     OW15361   3.045   5.059   5.705
 4996SOL    HW115362   2.946   5.048   5.707
 4996SOL    HW215363   3.079   5.074   5.798
 4997SOL     OW15364   2.475   4.566   7.017
 4997SOL    HW115365   2.531   4.647   7.000
 4997SOL    HW215366   2.534   4.486   7.020
 4998SOL     OW15367   2.578   4.289   7.294
 4998SOL    HW115368   2.597   4.354   7.368
 4998SOL    HW215369   2.638   4.209   7.303
 4999SOL     OW15370   3.312   4.944   7.219
 4999SOL    HW115371   3.303   4.934   7.318
 4999SOL    HW215372   3.408   4.937   7.193
 5000SOL     OW15373   3.536   4.607   6.840
 5000SOL    HW115374   3.509   4.518   6.803
 5000SOL    HW215375   3.537   4.675   6.767
 5001SOL     OW15376   3.087   4.049   6.035
 5001SOL    HW115377   3.152   3.975   6.024
 5001SOL    HW215378   3.107   4.099   6.119
 5002SOL     OW15379   2.456   4.469   6.238
 5002SOL    HW115380   2.506   4.554   6.219
 5002SOL    HW215381   2.368   4.471   6.190
 5003SOL     OW15382   3.639   4.066   7.228
 5003SOL    HW115383   3.622   4.097   7.134
 5003SOL    HW215384   3.555   4.029   7.266
 5004SOL     OW15385   3.592   4.658   7.103
 5004SOL    HW115386   3.630   4.749   7.118
 5004SOL    HW215387   3.584   4.641   7.004
 5005SOL     OW15388   2.721   5.098   5.602
 5005SOL    HW115389   2.675   5.113   5.690
 5005SOL    HW215390   2.765   5.183   5.572
 5006SOL     OW15391   2.721   4.680   6.447
 5006SOL    HW115392   2.775   4.611   6.495
 5006SOL    HW215393   2.689   4.749   6.513
 5007SOL     OW15394   2.945   4.708   5.673
 5007SOL    HW115395   2.922   4.761   5.591
 5007SOL    HW215396   3.026   4.652   5.654
 5008SOL     OW15397   2.083   5.038   7.430
 5008SOL    HW115398   2.018   4.965   7.409
 5008SOL    HW215399   2.087   5.052   7.528
 5009SOL     OW15400   1.941   4.964   6.239
 5009SOL    HW115401   1.940   4.917   6.327
 5009SOL    HW215402   2.023   4.936   6.188
 5010SOL     OW15403   2.534   5.115   7.210
 5010SOL    HW115404   2.456   5.065   7.248
 5010SOL    HW215405   2.531   5.210   7.241
 5011SOL     OW15406   3.686   3.916   6.813
 5011SOL    HW115407   3.682   3.826   6.857
 5011SOL    HW215408   3.689   3.905   6.714
 5012SOL     OW15409   2.290   4.148   6.106
 5012SOL    HW115410   2.320   4.076   6.044
 5012SOL    HW215411   2.251   4.108   6.189
 5013SOL     OW15412   3.567   5.211   6.690
 5013SOL    HW115413   3.474   5.186   6.663
 5013SOL    HW215414   3.593   5.161   6.772
 5014SOL     OW15415   2.179   4.271   6.866
 5014SOL    HW115416   2.217   4.212   6.938
 5014SOL    HW215417   2.219   4.245   6.778
 5015SOL     OW15418   3.286   3.938   6.698
 5015SOL    HW115419   3.338   3.873   6.753
 5015SOL    HW215420   3.237   4.001   6.759
 5016SOL     OW15421   2.863   3.758   6.740
 5016SOL    HW115422   2.800   3.686   6.709
 5016SOL    HW215423   2.956   3.722   6.740
 5017SOL     OW15424   2.632   5.054   5.887
 5017SOL    HW115425   2.586   4.967   5.904
 5017SOL    HW215426   2.723   5.051   5.928
 5018SOL     OW15427   2.480   5.291   6.870
 5018SOL    HW115428   2.475   5.373   6.927
 5018SOL    HW215429   2.569   5.288   6.825
 5019SOL     OW15430   3.214   3.776   5.754
 5019SOL    HW115431   3.249   3.735   5.670
 5019SOL    HW215432   3.124   3.738   5.774
 5020SOL     OW15433   3.162   4.177   6.277
 5020SOL    HW115434   3.103   4.257   6.281
 5020SOL    HW215435   3.177   4.142   6.370
 5021SOL     OW15436   3.455   3.945   6.468
 5021SOL    HW115437   3.371   3.944   6.522
 5021SOL    HW215438   3.457   4.028   6.412
 5022SOL     OW15439   1.901   4.801   5.886
 5022SOL    HW115440   2.000   4.790   5.877
 5022SOL    HW215441   1.861   4.715   5.918
 5023SOL     OW15442   2.092   4.352   7.561
 5023SOL    HW115443   1.999   4.350   7.598
 5023SOL    HW215444   2.093   4.313   7.469
 5024SOL     OW15445   3.617   4.331   7.679
 5024SOL    HW115446   3.605   4.318   7.580
 5024SOL    HW215447   3.587   4.250   7.728
 5025SOL     OW15448   2.093   5.437   7.931
 5025SOL    HW115449   2.127   5.514   7.985
 5025SOL    HW215450   2.137   5.437   7.841
 5026SOL     OW15451   2.092   5.158   7.986
 5026SOL    HW115452   2.066   5.254   7.986
 5026SOL    HW215453   2.021   5.104   8.031
 5027SOL     OW15454   2.468   4.688   7.571
 5027SOL    HW115455   2.475   4.772   7.517
 5027SOL    HW215456   2.514   4.701   7.659
 5028SOL     OW15457   1.889   5.320   7.565
 5028SOL    HW115458   1.870   5.224   7.586
 5028SOL    HW215459   1.856   5.378   7.640
 5029SOL     OW15460   3.551   4.646   8.060
 5029SOL    HW115461   3.646   4.617   8.068
 5029SOL    HW215462   3.543   4.711   7.985
 5030SOL     OW15463   3.503   4.832   7.880
 5030SOL    HW115464   3.589   4.834   7.828
 5030SOL    HW215465   3.517   4.879   7.968
 5031SOL     OW15466   2.671   3.728   7.950
 5031SOL    HW115467   2.711   3.819   7.941
 5031SOL    HW215468   2.571   3.736   7.956
 5032SOL     OW15469   3.387   4.723   7.638
 5032SOL    HW115470   3.324   4.647   7.651
 5032SOL    HW215471   3.435   4.741   7.724
 5033SOL     OW15472   2.460   4.453   7.718
 5033SOL    HW115473   2.484   4.522   7.650
 5033SOL    HW215474   2.382   4.486   7.772
 5034SOL     OW15475   1.938   4.535   8.237
 5034SOL    HW115476   2.037   4.523   8.246
 5034SOL    HW215477   1.914   4.630   8.258
 5035SOL     OW15478   2.727   4.072   7.643
 5035SOL    HW115479   2.786   4.135   7.594
 5035SOL    HW215480   2.746   3.978   7.614
 5036SOL     OW15481   2.183   4.667   7.690
 5036SOL    HW115482   2.265   4.706   7.648
 5036SOL    HW215483   2.156   4.585   7.641
 5037SOL     OW15484   2.973   5.500   7.685
 5037SOL    HW115485   2.913   5.438   7.735
 5037SOL    HW215486   3.004   5.456   7.600
 5038SOL     OW15487   3.494   5.101   7.529
 5038SOL    HW115488   3.462   5.195   7.519
 5038SOL    HW215489   3.418   5.038   7.517
 5039SOL     OW15490   3.262   3.831   7.874
 5039SOL    HW115491   3.238   3.794   7.784
 5039SOL    HW215492   3.361   3.847   7.878
 5040SOL     OW15493   2.244   4.424   7.928
 5040SOL    HW115494   2.289   4.334   7.925
 5040SOL    HW215495   2.150   4.413   7.961
 5041SOL     OW15496   2.476   3.846   7.565
 5041SOL    HW115497   2.574   3.824   7.572
 5041SOL    HW215498   2.445   3.829   7.472
 5042SOL     OW15499   2.401   3.788   7.960
 5042SOL    HW115500   2.320   3.789   8.018
 5042SOL    HW215501   2.404   3.871   7.905
 5043SOL     OW15502   3.296   4.912   7.489
 5043SOL    HW115503   3.328   4.836   7.546
 5043SOL    HW215504   3.204   4.939   7.519
 5044SOL     OW15505   2.159   3.759   7.619
 5044SOL    HW115506   2.208   3.843   7.598
 5044SOL    HW215507   2.221   3.694   7.664
 5045SOL     OW15508   2.797   3.960   7.928
 5045SOL    HW115509   2.749   4.001   7.850
 5045SOL    HW215510   2.896   3.958   7.909
 5046SOL     OW15511   2.321   4.876   8.189
 5046SOL    HW115512   2.250   4.849   8.254
 5046SOL    HW215513   2.295   4.848   8.096
 5047SOL     OW15514   2.894   4.273   7.464
 5047SOL    HW115515   2.853   4.355   7.425
 5047SOL    HW215516   2.958   4.299   7.537
 5048SOL     OW15517   3.719   4.557   7.825
 5048SOL    HW115518   3.761   4.493   7.889
 5048SOL    HW215519   3.681   4.506   7.747
 5049SOL     OW15520   2.350   5.109   7.622
 5049SOL    HW115521   2.263   5.094   7.669
 5049SOL    HW215522   2.333   5.135   7.527
 5050SOL     OW15523   3.252   4.299   7.526
 5050SOL    HW115524   3.198   4.278   7.607
 5050SOL    HW215525   3.343   4.258   7.535
 5051SOL     OW15526   2.389   3.980   7.776
 5051SOL    HW115527   2.416   3.921   7.701
 5051SOL    HW215528   2.389   4.075   7.745
 5052SOL     OW15529   2.567   4.774   7.816
 5052SOL    HW115530   2.553   4.781   7.915
 5052SOL    HW215531   2.651   4.723   7.798
 5053SOL     OW15532   2.229   4.824   7.949
 5053SOL    HW115533   2.222   4.907   7.893
 5053SOL    HW215534   2.233   4.744   7.889
 5054SOL     OW15535   3.114   5.072   7.836
 5054SOL    HW115536   3.164   5.149   7.876
 5054SOL    HW215537   3.019   5.074   7.868
 5055SOL     OW15538   3.444   4.363   7.920
 5055SOL    HW115539   3.413   4.424   7.993
 5055SOL    HW215540   3.494   4.415   7.851
 5056SOL     OW15541   3.071   4.249   7.723
 5056SOL    HW115542   3.084   4.165   7.777
 5056SOL    HW215543   3.042   4.323   7.783
 5057SOL     OW15544   3.484   4.091   7.822
 5057SOL    HW115545   3.486   4.015   7.886
 5057SOL    HW215546   3.436   4.168   7.862
 5058SOL     OW15547   3.402   3.998   7.573
 5058SOL    HW115548   3.341   3.923   7.596
 5058SOL    HW215549   3.424   4.050   7.656
 5059SOL     OW15550   3.165   4.562   7.490
 5059SOL    HW115551   3.199   4.469   7.505
 5059SOL    HW215552   3.183   4.589   7.395
 5060SOL     OW15553   1.870   5.050   7.648
 5060SOL    HW115554   1.777   5.071   7.617
 5060SOL    HW215555   1.880   4.951   7.661
 5061SOL     OW15556   2.677   4.296   7.773
 5061SOL    HW115557   2.684   4.207   7.727
 5061SOL    HW215558   2.583   4.330   7.765
 5062SOL     OW15559   2.335   4.224   7.639
 5062SOL    HW115560   2.396   4.304   7.643
 5062SOL    HW215561   2.240   4.255   7.646
 5063SOL     OW15562   3.164   4.579   7.757
 5063SOL    HW115563   3.078   4.548   7.799
 5063SOL    HW215564   3.160   4.565   7.658
 5064SOL     OW15565   3.588   3.859   7.971
 5064SOL    HW115566   3.661   3.842   7.904
 5064SOL    HW215567   3.557   3.772   8.009
 5065SOL     OW15568   2.778   4.634   7.739
 5065SOL    HW115569   2.841   4.672   7.671
 5065SOL    HW215570   2.818   4.551   7.778
 5066SOL     OW15571   2.117   5.072   7.738
 5066SOL    HW115572   2.021   5.073   7.711
 5066SOL    HW215573   2.129   5.125   7.822
 5067SOL     OW15574   1.937   4.069   7.481
 5067SOL    HW115575   1.845   4.041   7.452
 5067SOL    HW215576   1.968   4.146   7.425
 5068SOL     OW15577   1.934   3.890   7.766
 5068SOL    HW115578   1.917   3.973   7.712
 5068SOL    HW215579   2.024   3.853   7.744
 5069SOL     OW15580   3.045   5.059   7.567
 5069SOL    HW115581   2.946   5.048   7.569
 5069SOL    HW215582   3.079   5.074   7.660
 5070SOL     OW15583   3.087   4.049   7.897
 5070SOL    HW115584   3.152   3.975   7.886
 5070SOL    HW215585   3.107   4.099   7.981
 5071SOL     OW15586   2.456   4.469   8.100
 5071SOL    HW115587   2.506   4.554   8.081
 5071SOL    HW215588   2.368   4.471   8.052
 5072SOL     OW15589   2.721   5.098   7.464
 5072SOL    HW115590   2.675   5.113   7.552
 5072SOL    HW215591   2.765   5.183   7.434
 5073SOL     OW15592   2.945   4.708   7.535
 5073SOL    HW115593   2.922   4.761   7.453
 5073SOL    HW215594   3.026   4.652   7.516
 5074SOL     OW15595   2.290   4.148   7.968
 5074SOL    HW115596   2.320   4.076   7.906
 5074SOL    HW215597   2.251   4.108   8.051
 5075SOL     OW15598   2.632   5.054   7.749
 5075SOL    HW115599   2.586   4.967   7.766
 5075SOL    HW215600   2.723   5.051   7.790
 5076SOL     OW15601   3.214   3.776   7.616
 5076SOL    HW115602   3.249   3.735   7.532
 5076SOL    HW215603   3.124   3.738   7.636
 5077SOL     OW15604   1.901   4.801   7.748
 5077SOL    HW115605   2.000   4.790   7.739
 5077SOL    HW215606   1.861   4.715   7.780
 5078SOL     OW15607   3.954   0.628   0.113
 5078SOL    HW115608   3.861   0.626   0.150
 5078SOL    HW215609   3.955   0.589   0.021
 5079SOL     OW15610   3.949   0.275   0.996
 5079SOL    HW115611   3.984   0.258   1.088
 5079SOL    HW215612   3.861   0.230   0.984
 5080SOL     OW15613   3.743   0.368   0.647
 5080SOL    HW115614   3.661   0.411   0.686
 5080SOL    HW215615   3.715   0.295   0.584
 5081SOL     OW15616   4.293   1.275   1.165
 5081SOL    HW115617   4.200   1.268   1.128
 5081SOL    HW215618   4.304   1.364   1.209
 5082SOL     OW15619   5.279   1.511   0.703
 5082SOL    HW115620   5.222   1.495   0.784
 5082SOL    HW215621   5.220   1.521   0.623
 5083SOL     OW15622   4.859   0.703   0.717
 5083SOL    HW115623   4.916   0.781   0.692
 5083SOL    HW215624   4.799   0.729   0.793
 5084SOL     OW15625   4.492   1.144   1.023
 5084SOL    HW115626   4.414   1.161   1.083
 5084SOL    HW215627   4.526   1.231   0.987
 5085SOL     OW15628   4.574   0.798   1.823
 5085SOL    HW115629   4.570   0.874   1.888
 5085SOL    HW215630   4.596   0.834   1.732
 5086SOL     OW15631   4.409   1.012   0.665
 5086SOL    HW115632   4.478   0.996   0.735
 5086SOL    HW215633   4.336   1.069   0.703
 5087SOL     OW15634   4.410   1.161   1.803
 5087SOL    HW115635   4.470   1.240   1.817
 5087SOL    HW215636   4.324   1.192   1.762
 5088SOL     OW15637   4.059   1.435   1.061
 5088SOL    HW115638   3.981   1.404   1.008
 5088SOL    HW215639   4.117   1.493   1.004
 5089SOL     OW15640   5.184   1.505   1.339
 5089SOL    HW115641   5.208   1.599   1.365
 5089SOL    HW215642   5.168   1.451   1.421
 5090SOL     OW15643   4.162   0.392   1.499
 5090SOL    HW115644   4.244   0.336   1.508
 5090SOL    HW215645   4.081   0.334   1.503
 5091SOL     OW15646   3.955   1.713   0.483
 5091SOL    HW115647   3.989   1.790   0.537
 5091SOL    HW215648   3.999   1.713   0.393
 5092SOL     OW15649   4.851   1.341   1.690
 5092SOL    HW115650   4.898   1.341   1.778
 5092SOL    HW215651   4.803   1.254   1.679
 5093SOL     OW15652   3.954   1.434   0.538
 5093SOL    HW115653   3.928   1.530   0.538
 5093SOL    HW215654   3.883   1.380   0.583
 5094SOL     OW15655   3.964   1.091   0.886
 5094SOL    HW115656   3.978   1.007   0.938
 5094SOL    HW215657   3.909   1.155   0.941
 5095SOL     OW15658   4.344   1.786   1.439
 5095SOL    HW115659   4.252   1.769   1.474
 5095SOL    HW215660   4.372   1.878   1.465
 5096SOL     OW15661   4.330   0.964   0.123
 5096SOL    HW115662   4.337   1.048   0.069
 5096SOL    HW215663   4.376   0.977   0.211
 5097SOL     OW15664   5.318   0.114   1.480
 5097SOL    HW115665   5.300   0.181   1.408
 5097SOL    HW215666   5.315   0.160   1.569
 5098SOL     OW15667   3.846   0.643   0.563
 5098SOL    HW115668   3.801   0.555   0.580
 5098SOL    HW215669   3.845   0.697   0.647
 5099SOL     OW15670   3.751   1.596   0.117
 5099SOL    HW115671   3.732   1.500   0.138
 5099SOL    HW215672   3.718   1.654   0.192
 5100SOL     OW15673   5.413   0.922   0.612
 5100SOL    HW115674   5.508   0.893   0.620
 5100SOL    HW215675   5.405   0.987   0.537
 5101SOL     OW15676   3.837   0.737   1.597
 5101SOL    HW115677   3.925   0.724   1.642
 5101SOL    HW215678   3.824   0.834   1.575
 5102SOL     OW15679   4.337   1.365   0.726
 5102SOL    HW115680   4.288   1.278   0.735
 5102SOL    HW215681   4.314   1.408   0.639
 5103SOL     OW15682   5.017   1.228   1.423
 5103SOL    HW115683   5.054   1.155   1.365
 5103SOL    HW215684   5.069   1.233   1.508
 5104SOL     OW15685   4.533   0.004   0.502
 5104SOL    HW115686   4.573   0.095   0.493
 5104SOL    HW215687   4.433   0.012   0.508
 5105SOL     OW15688   3.921   0.976   1.264
 5105SOL    HW115689   4.010   0.931   1.250
 5105SOL    HW215690   3.848   0.911   1.245
 5106SOL     OW15691   4.911   1.792   1.616
 5106SOL    HW115692   4.935   1.852   1.540
 5106SOL    HW215693   4.918   1.697   1.586
 5107SOL     OW15694   4.041   0.251   1.801
 5107SOL    HW115695   4.112   0.322   1.807
 5107SOL    HW215696   3.953   0.290   1.829
 5108SOL     OW15697   5.190   1.417   0.953
 5108SOL    HW115698   5.131   1.423   1.033
 5108SOL    HW215699   5.175   1.329   0.907
 5109SOL     OW15700   4.322   0.729   0.270
 5109SOL    HW115701   4.346   0.798   0.202
 5109SOL    HW215702   4.244   0.762   0.324
 5110SOL     OW15703   5.005   0.345   0.944
 5110SOL    HW115704   4.919   0.295   0.931
 5110SOL    HW215705   5.067   0.291   1.000
 5111SOL     OW15706   4.531   0.605   1.465
 5111SOL    HW115707   4.484   0.602   1.554
 5111SOL    HW215708   4.480   0.550   1.399
 5112SOL     OW15709   5.118   0.469   1.674
 5112SOL    HW115710   5.098   0.512   1.762
 5112SOL    HW215711   5.196   0.407   1.683
 5113SOL     OW15712   4.697   0.890   1.572
 5113SOL    HW115713   4.743   0.806   1.543
 5113SOL    HW215714   4.641   0.924   1.497
 5114SOL     OW15715   4.715   0.410   1.242
 5114SOL    HW115716   4.638   0.444   1.296
 5114SOL    HW215717   4.681   0.359   1.163
 5115SOL     OW15718   4.765   0.701   0.429
 5115SOL    HW115719   4.791   0.697   0.525
 5115SOL    HW215720   4.680   0.650   0.415
 5116SOL     OW15721   3.800   0.811   0.789
 5116SOL    HW115722   3.899   0.799   0.798
 5116SOL    HW215723   3.776   0.906   0.810
 5117SOL     OW15724   3.854   1.821   1.571
 5117SOL    HW115725   3.844   1.806   1.670
 5117SOL    HW215726   3.768   1.857   1.535
 5118SOL     OW15727   4.589   0.348   0.195
 5118SOL    HW115728   4.648   0.411   0.146
 5118SOL    HW215729   4.608   0.254   0.166
 5119SOL     OW15730   5.086   1.144   0.545
 5119SOL    HW115731   5.169   1.115   0.497
 5119SOL    HW215732   5.037   1.211   0.489
 5120SOL     OW15733   4.274   0.196   0.885
 5120SOL    HW115734   4.269   0.191   0.985
 5120SOL    HW215735   4.276   0.292   0.856
 5121SOL     OW15736   4.732   1.456   0.477
 5121SOL    HW115737   4.686   1.528   0.425
 5121SOL    HW215738   4.728   1.476   0.575
 5122SOL     OW15739   4.075   1.801   0.853
 5122SOL    HW115740   4.125   1.715   0.859
 5122SOL    HW215741   4.140   1.878   0.850
 5123SOL     OW15742   4.951   1.550   1.506
 5123SOL    HW115743   4.957   1.473   1.570
 5123SOL    HW215744   4.899   1.524   1.426
 5124SOL     OW15745   4.045   0.943   0.242
 5124SOL    HW115746   4.127   0.982   0.200
 5124SOL    HW215747   4.018   0.861   0.193
 5125SOL     OW15748   4.185   1.266   1.727
 5125SOL    HW115749   4.135   1.267   1.641
 5125SOL    HW215750   4.122   1.248   1.803
 5126SOL     OW15751   4.835   1.776   0.237
 5126SOL    HW115752   4.775   1.714   0.287
 5126SOL    HW215753   4.866   1.732   0.152
 5127SOL     OW15754   3.926   0.285   1.498
 5127SOL    HW115755   3.846   0.345   1.485
 5127SOL    HW215756   3.916   0.236   1.584
 5128SOL     OW15757   4.188   1.743   0.323
 5128SOL    HW115758   4.221   1.782   0.409
 5128SOL    HW215759   4.264   1.736   0.258
 5129SOL     OW15760   5.124   0.107   0.426
 5129SOL    HW115761   5.100   0.070   0.336
 5129SOL    HW215762   5.223   0.123   0.430
 5130SOL     OW15763   3.973   1.785   1.241
 5130SOL    HW115764   4.030   1.720   1.291
 5130SOL    HW215765   3.957   1.752   1.148
 5131SOL     OW15766   4.664   1.698   0.904
 5131SOL    HW115767   4.744   1.641   0.925
 5131SOL    HW215768   4.615   1.658   0.827
 5132SOL     OW15769   4.106   0.700   0.480
 5132SOL    HW115770   4.151   0.610   0.477
 5132SOL    HW215771   4.012   0.689   0.513
 5133SOL     OW15772   4.338   0.122   0.117
 5133SOL    HW115773   4.436   0.100   0.124
 5133SOL    HW215774   4.307   0.105   0.024
 5134SOL     OW15775   4.505   0.264   1.749
 5134SOL    HW115776   4.572   0.203   1.792
 5134SOL    HW215777   4.432   0.283   1.814
 5135SOL     OW15778   4.612   1.514   1.195
 5135SOL    HW115779   4.589   1.489   1.101
 5135SOL    HW215780   4.673   1.445   1.234
 5136SOL     OW15781   5.075   0.590   1.433
 5136SOL    HW115782   5.103   0.547   1.518
 5136SOL    HW215783   5.100   0.686   1.434
 5137SOL     OW15784   4.527   1.402   0.924
 5137SOL    HW115785   4.617   1.416   0.882
 5137SOL    HW215786   4.456   1.404   0.853
 5138SOL     OW15787   4.646   0.503   0.899
 5138SOL    HW115788   4.621   0.494   0.803
 5138SOL    HW215789   4.694   0.421   0.930
 5139SOL     OW15790   4.263   0.064   0.512
 5139SOL    HW115791   4.182   0.065   0.570
 5139SOL    HW215792   4.266   0.147   0.457
 5140SOL     OW15793   5.158   1.188   0.041
 5140SOL    HW115794   5.190   1.112   0.098
 5140SOL    HW215795   5.066   1.215   0.071
 5141SOL     OW15796   4.021   0.035   0.171
 5141SOL    HW115797   4.070   0.119   0.150
 5141SOL    HW215798   4.083  -0.030   0.216
 5142SOL     OW15799   4.659   0.236   0.480
 5142SOL    HW115800   4.611   0.277   0.402
 5142SOL    HW215801   4.758   0.234   0.461
 5143SOL     OW15802   4.800   0.683   1.464
 5143SOL    HW115803   4.720   0.622   1.467
 5143SOL    HW215804   4.881   0.630   1.440
 5144SOL     OW15805   4.951   1.570   0.793
 5144SOL    HW115806   4.972   1.644   0.728
 5144SOL    HW215807   5.019   1.570   0.866
 5145SOL     OW15808   4.183   1.152   0.741
 5145SOL    HW115809   4.112   1.125   0.806
 5145SOL    HW215810   4.157   1.124   0.648
 5146SOL     OW15811   4.995   1.797   0.591
 5146SOL    HW115812   5.039   1.861   0.527
 5146SOL    HW215813   4.945   1.849   0.661
 5147SOL     OW15814   4.756   0.549   0.016
 5147SOL    HW115815   4.715   0.631  -0.023
 5147SOL    HW215816   4.820   0.575   0.089
 5148SOL     OW15817   3.802   0.556   1.386
 5148SOL    HW115818   3.894   0.555   1.345
 5148SOL    HW215819   3.796   0.630   1.453
 5149SOL     OW15820   4.285   0.222   1.147
 5149SOL    HW115821   4.323   0.138   1.184
 5149SOL    HW215822   4.197   0.241   1.191
 5150SOL     OW15823   4.590   0.454   0.642
 5150SOL    HW115824   4.558   0.526   0.580
 5150SOL    HW215825   4.614   0.373   0.589
 5151SOL     OW15826   4.741   0.039   0.753
 5151SOL    HW115827   4.669   0.044   0.684
 5151SOL    HW215828   4.717  -0.030   0.822
 5152SOL     OW15829   5.153   1.173   0.867
 5152SOL    HW115830   5.098   1.089   0.860
 5152SOL    HW215831   5.179   1.202   0.775
 5153SOL     OW15832   4.212   1.385   0.174
 5153SOL    HW115833   4.125   1.370   0.221
 5153SOL    HW215834   4.195   1.411   0.079
 5154SOL     OW15835   5.114   0.575   0.078
 5154SOL    HW115836   5.060   0.554   0.159
 5154SOL    HW215837   5.205   0.534   0.087
 5155SOL     OW15838   4.251   0.256   0.328
 5155SOL    HW115839   4.278   0.197   0.253
 5155SOL    HW215840   4.251   0.351   0.297
 5156SOL     OW15841   4.788   1.347   1.340
 5156SOL    HW115842   4.708   1.324   1.395
 5156SOL    HW215843   4.871   1.321   1.389
 5157SOL     OW15844   5.316   1.629   1.625
 5157SOL    HW115845   5.343   1.663   1.535
 5157SOL    HW215846   5.395   1.591   1.671
 5158SOL     OW15847   4.835   1.195   1.100
 5158SOL    HW115848   4.795   1.239   1.181
 5158SOL    HW215849   4.794   1.232   1.017
 5159SOL     OW15850   4.639   0.089   1.402
 5159SOL    HW115851   4.664   0.069   1.307
 5159SOL    HW215852   4.711   0.145   1.444
 5160SOL     OW15853   4.704   1.116   1.719
 5160SOL    HW115854   4.605   1.122   1.729
 5160SOL    HW215855   4.727   1.036   1.663
 5161SOL     OW15856   4.429   1.050   0.368
 5161SOL    HW115857   4.415   1.057   0.467
 5161SOL    HW215858   4.513   0.999   0.350
 5162SOL     OW15859   4.134   0.813   1.251
 5162SOL    HW115860   4.220   0.825   1.301
 5162SOL    HW215861   4.092   0.726   1.278
 5163SOL     OW15862   4.998   0.386   1.262
 5163SOL    HW115863   5.019   0.460   1.326
 5163SOL    HW215864   4.909   0.403   1.219
 5164SOL     OW15865   3.788   1.564   1.331
 5164SOL    HW115866   3.742   1.646   1.297
 5164SOL    HW215867   3.886   1.583   1.340
 5165SOL     OW15868   4.091   1.100   0.501
 5165SOL    HW115869   4.084   1.183   0.445
 5165SOL    HW215870   4.095   1.020   0.441
 5166SOL     OW15871   4.290   0.537   0.865
 5166SOL    HW115872   4.302   0.603   0.791
 5166SOL    HW215873   4.336   0.571   0.948
 5167SOL     OW15874   4.976   1.348   0.388
 5167SOL    HW115875   5.026   1.425   0.428
 5167SOL    HW215876   4.881   1.350   0.420
 5168SOL     OW15877   4.996   1.445   1.142
 5168SOL    HW115878   5.043   1.458   1.229
 5168SOL    HW215879   4.930   1.371   1.151
 5169SOL     OW15880   4.078   1.510   1.329
 5169SOL    HW115881   4.057   1.466   1.242
 5169SOL    HW215882   4.175   1.536   1.332
 5170SOL     OW15883   4.126   0.751   1.598
 5170SOL    HW115884   4.194   0.806   1.551
 5170SOL    HW215885   4.166   0.663   1.625
 5171SOL     OW15886   4.737   0.105   1.770
 5171SOL    HW115887   4.743   0.190   1.718
 5171SOL    HW215888   4.769   0.029   1.713
 5172SOL     OW15889   4.228   0.050   1.740
 5172SOL    HW115890   4.186  -0.007   1.670
 5172SOL    HW215891   4.162   0.119   1.772
 5173SOL     OW15892   4.297   0.870   1.029
 5173SOL    HW115893   4.341   0.959   1.020
 5173SOL    HW215894   4.234   0.870   1.106
 5174SOL     OW15895   5.084   0.862   1.045
 5174SOL    HW115896   5.009   0.862   0.979
 5174SOL    HW215897   5.121   0.770   1.054
 5175SOL     OW15898   4.933   0.525   0.275
 5175SOL    HW115899   4.946   0.441   0.329
 5175SOL    HW215900   4.904   0.599   0.335
 5176SOL     OW15901   4.031   0.213   1.231
 5176SOL    HW115902   4.008   0.250   1.321
 5176SOL    HW215903   4.001   0.118   1.225
 5177SOL     OW15904   3.761   1.310   1.282
 5177SOL    HW115905   3.814   1.261   1.350
 5177SOL    HW215906   3.783   1.408   1.287
 5178SOL     OW15907   4.456   0.634   1.064
 5178SOL    HW115908   4.515   0.608   0.988
 5178SOL    HW215909   4.428   0.730   1.053
 5179SOL     OW15910   4.031   0.063   0.618
 5179SOL    HW115911   4.020   0.157   0.651
 5179SOL    HW215912   4.026   0.000   0.695
 5180SOL     OW15913   5.346   0.367   0.374
 5180SOL    HW115914   5.348   0.291   0.438
 5180SOL    HW215915   5.298   0.444   0.414
 5181SOL     OW15916   4.747   0.766   0.966
 5181SOL    HW115917   4.762   0.787   1.062
 5181SOL    HW215918   4.717   0.671   0.957
 5182SOL     OW15919   4.704   1.573   1.700
 5182SOL    HW115920   4.684   1.617   1.612
 5182SOL    HW215921   4.743   1.482   1.684
 5183SOL     OW15922   4.074   0.898   1.804
 5183SOL    HW115923   4.150   0.942   1.852
 5183SOL    HW215924   4.109   0.851   1.722
 5184SOL     OW15925   5.027   0.838   0.042
 5184SOL    HW115926   5.061   0.745   0.057
 5184SOL    HW215927   5.045   0.865  -0.053
 5185SOL     OW15928   4.792   1.333   0.849
 5185SOL    HW115929   4.799   1.249   0.794
 5185SOL    HW215930   4.854   1.402   0.813
 5186SOL     OW15931   4.043   0.810   0.949
 5186SOL    HW115932   4.136   0.846   0.954
 5186SOL    HW215933   4.037   0.725   1.001
 5187SOL     OW15934   4.063   0.509   1.006
 5187SOL    HW115935   4.011   0.426   0.989
 5187SOL    HW215936   4.140   0.514   0.942
 5188SOL     OW15937   4.862   0.380   1.678
 5188SOL    HW115938   4.817   0.443   1.742
 5188SOL    HW215939   4.955   0.411   1.661
 5189SOL     OW15940   4.884   0.207   1.477
 5189SOL    HW115941   4.884   0.271   1.554
 5189SOL    HW215942   4.912   0.255   1.394
 5190SOL     OW15943   3.732   1.326   0.200
 5190SOL    HW115944   3.639   1.347   0.169
 5190SOL    HW215945   3.742   1.227   0.213
 5191SOL     OW15946   3.812   1.801   0.927
 5191SOL    HW115947   3.770   1.715   0.900
 5191SOL    HW215948   3.906   1.804   0.893
 5192SOL     OW15949   4.228   1.568   0.910
 5192SOL    HW115950   4.294   1.642   0.919
 5192SOL    HW215951   4.272   1.489   0.868
 5193SOL     OW15952   4.726   0.796   1.238
 5193SOL    HW115953   4.767   0.764   1.324
 5193SOL    HW215954   4.630   0.769   1.235
 5194SOL     OW15955   3.764   0.544   1.114
 5194SOL    HW115956   3.849   0.511   1.073
 5194SOL    HW215957   3.777   0.559   1.212
 5195SOL     OW15958   3.913   0.520   1.722
 5195SOL    HW115959   3.972   0.480   1.652
 5195SOL    HW215960   3.855   0.591   1.681
 5196SOL     OW15961   5.093   0.950   1.660
 5196SOL    HW115962   5.132   1.039   1.680
 5196SOL    HW215963   5.103   0.930   1.563
 5197SOL     OW15964   4.539   0.572   0.325
 5197SOL    HW115965   4.546   0.483   0.279
 5197SOL    HW215966   4.445   0.606   0.317
 5198SOL     OW15967   3.976   1.564   1.744
 5198SOL    HW115968   3.946   1.621   1.820
 5198SOL    HW215969   3.969   1.467   1.770
 5199SOL     OW15970   4.395   0.464   1.269
 5199SOL    HW115971   4.361   0.375   1.239
 5199SOL    HW215972   4.421   0.518   1.189
 5200SOL     OW15973   4.654   1.678   1.465
 5200SOL    HW115974   4.630   1.660   1.370
 5200SOL    HW215975   4.684   1.772   1.475
 5201SOL     OW15976   4.197   0.500   0.191
 5201SOL    HW115977   4.258   0.580   0.195
 5201SOL    HW215978   4.102   0.531   0.198
 5202SOL     OW15979   3.883   1.137   1.466
 5202SOL    HW115980   3.905   1.076   1.542
 5202SOL    HW215981   3.893   1.088   1.380
 5203SOL     OW15982   5.071   1.059   1.234
 5203SOL    HW115983   5.095   0.996   1.160
 5203SOL    HW215984   4.981   1.099   1.216
 5204SOL     OW15985   5.026   0.855   0.309
 5204SOL    HW115986   4.940   0.824   0.351
 5204SOL    HW215987   5.022   0.841   0.210
 5205SOL     OW15988   4.976   1.731   1.128
 5205SOL    HW115989   5.060   1.736   1.074
 5205SOL    HW215990   4.953   1.635   1.146
 5206SOL     OW15991   3.807   1.258   1.022
 5206SOL    HW115992   3.802   1.257   1.122
 5206SOL    HW215993   3.724   1.217   0.984
 5207SOL     OW15994   4.412   1.662   1.716
 5207SOL    HW115995   4.356   1.743   1.725
 5207SOL    HW215996   4.464   1.666   1.630
 5208SOL     OW15997   4.627   0.086   0.133
 5208SOL    HW115998   4.678   0.087   0.047
 5208SOL    HW215999   4.683   0.044   0.204
 5209SOL     OW16000   5.112   1.573   0.477
 5209SOL    HW116001   5.179   1.585   0.403
 5209SOL    HW216002   5.072   1.662   0.500
 5210SOL     OW16003   3.854   1.794   1.851
 5210SOL    HW116004   3.813   1.720   1.904
 5210SOL    HW216005   3.918   1.845   1.909
 5211SOL     OW16006   5.004   0.927   0.672
 5211SOL    HW116007   5.064   0.846   0.674
 5211SOL    HW216008   5.044   0.996   0.612
 5212SOL     OW16009   4.554   1.273   1.422
 5212SOL    HW116010   4.549   1.306   1.517
 5212SOL    HW216011   4.468   1.292   1.376
 5213SOL     OW16012   4.396   1.616   0.154
 5213SOL    HW116013   4.405   1.626   0.055
 5213SOL    HW216014   4.356   1.527   0.175
 5214SOL     OW16015   3.987   0.326   0.720
 5214SOL    HW116016   3.908   0.377   0.686
 5214SOL    HW216017   3.978   0.311   0.818
 5215SOL     OW16018   4.918   1.612   0.031
 5215SOL    HW116019   4.924   1.519   0.068
 5215SOL    HW216020   4.859   1.612  -0.049
 5216SOL     OW16021   4.546   1.002   1.372
 5216SOL    HW116022   4.586   1.001   1.280
 5216SOL    HW216023   4.556   1.094   1.412
 5217SOL     OW16024   4.640   0.910   0.291
 5217SOL    HW116025   4.703   0.948   0.223
 5217SOL    HW216026   4.680   0.827   0.330
 5218SOL     OW16027   4.096   1.288   1.490
 5218SOL    HW116028   4.083   1.381   1.456
 5218SOL    HW216029   4.012   1.236   1.477
 5219SOL     OW16030   4.763   1.098   0.696
 5219SOL    HW116031   4.693   1.051   0.750
 5219SOL    HW216032   4.822   1.030   0.653
 5220SOL     OW16033   4.738   0.236   0.971
 5220SOL    HW116034   4.730   0.200   0.878
 5220SOL    HW216035   4.736   0.160   1.036
 5221SOL     OW16036   4.314   1.487   0.491
 5221SOL    HW116037   4.356   1.429   0.421
 5221SOL    HW216038   4.270   1.566   0.447
 5222SOL     OW16039   3.979   1.348   0.290
 5222SOL    HW116040   3.883   1.349   0.263
 5222SOL    HW216041   3.991   1.401   0.374
 5223SOL     OW16042   3.829   1.013   1.726
 5223SOL    HW116043   3.752   0.980   1.780
 5223SOL    HW216044   3.914   0.983   1.768
 5224SOL     OW16045   4.396   0.203   1.489
 5224SOL    HW116046   4.486   0.187   1.449
 5224SOL    HW216047   4.404   0.208   1.588
 5225SOL     OW16048   3.799   0.345   0.033
 5225SOL    HW116049   3.707   0.317   0.004
 5225SOL    HW216050   3.830   0.422  -0.023
 5226SOL     OW16051   5.164   0.856   1.398
 5226SOL    HW116052   5.107   0.908   1.335
 5226SOL    HW216053   5.260   0.868   1.374
 5227SOL     OW16054   3.796   0.166   0.318
 5227SOL    HW116055   3.779   0.249   0.264
 5227SOL    HW216056   3.886   0.129   0.296
 5228SOL     OW16057   4.907   1.335   0.119
 5228SOL    HW116058   4.808   1.324   0.121
 5228SOL    HW216059   4.941   1.350   0.212
 5229SOL     OW16060   4.337   0.842   1.431
 5229SOL    HW116061   4.393   0.923   1.414
 5229SOL    HW216062   4.396   0.762   1.434
 5230SOL     OW16063   4.440   0.565   1.708
 5230SOL    HW116064   4.459   0.630   1.782
 5230SOL    HW216065   4.500   0.485   1.717
 5231SOL     OW16066   5.174   1.220   1.633
 5231SOL    HW116067   5.165   1.210   1.732
 5231SOL    HW216068   5.270   1.213   1.607
 5232SOL     OW16069   4.114   1.741   1.560
 5232SOL    HW116070   4.023   1.782   1.558
 5232SOL    HW216071   4.107   1.647   1.592
 5233SOL     OW16072   4.949   0.325   0.449
 5233SOL    HW116073   5.014   0.251   0.438
 5233SOL    HW216074   4.969   0.375   0.533
 5234SOL     OW16075   4.318   0.745   0.652
 5234SOL    HW116076   4.368   0.830   0.633
 5234SOL    HW216077   4.230   0.747   0.604
 5235SOL     OW16078   4.583   1.374   0.016
 5235SOL    HW116079   4.537   1.389   0.104
 5235SOL    HW216080   4.627   1.459  -0.014
 5236SOL     OW16081   4.385   1.790   0.953
 5236SOL    HW116082   4.339   1.878   0.940
 5236SOL    HW216083   4.484   1.802   0.946
 5237SOL     OW16084   4.583   0.956   0.861
 5237SOL    HW116085   4.637   0.887   0.909
 5237SOL    HW216086   4.551   1.025   0.927
 5238SOL     OW16087   4.807   0.984   0.087
 5238SOL    HW116088   4.784   1.037   0.005
 5238SOL    HW216089   4.888   0.928   0.068
 5239SOL     OW16090   3.945   1.314   1.844
 5239SOL    HW116091   3.880   1.241   1.823
 5239SOL    HW216092   3.949   1.328   1.942
 5240SOL     OW16093   3.803   1.240   0.653
 5240SOL    HW116094   3.802   1.193   0.741
 5240SOL    HW216095   3.885   1.212   0.602
 5241SOL     OW16096   4.396   1.391   1.624
 5241SOL    HW116097   4.318   1.341   1.662
 5241SOL    HW216098   4.393   1.486   1.655
 5242SOL     OW16099   4.152   0.424   0.520
 5242SOL    HW116100   4.182   0.352   0.458
 5242SOL    HW216101   4.113   0.384   0.603
 5243SOL     OW16102   5.429   1.487   1.104
 5243SOL    HW116103   5.336   1.462   1.077
 5243SOL    HW216104   5.455   1.437   1.186
 5244SOL     OW16105   4.041   0.547   1.280
 5244SOL    HW116106   4.079   0.488   1.352
 5244SOL    HW216107   4.081   0.521   1.192
 5245SOL     OW16108   4.536   1.586   0.687
 5245SOL    HW116109   4.568   1.596   0.593
 5245SOL    HW216110   4.457   1.524   0.689
 5246SOL     OW16111   5.148   0.214   1.112
 5246SOL    HW116112   5.200   0.149   1.167
 5246SOL    HW216113   5.099   0.277   1.173
 5247SOL     OW16114   4.725   0.034   1.154
 5247SOL    HW116115   4.662  -0.038   1.123
 5247SOL    HW216116   4.818  -0.002   1.154
 5248SOL     OW16117   4.494   1.330   0.301
 5248SOL    HW116118   4.448   1.243   0.318
 5248SOL    HW216119   4.585   1.327   0.342
 5249SOL     OW16120   4.342   1.567   1.284
 5249SOL    HW116121   4.337   1.649   1.341
 5249SOL    HW216122   4.431   1.564   1.239
 5250SOL     OW16123   5.076   0.052   0.168
 5250SOL    HW116124   5.111   0.011   0.084
 5250SOL    HW216125   4.986   0.014   0.188
 5251SOL     OW16126   5.024   0.453   0.691
 5251SOL    HW116127   4.965   0.533   0.695
 5251SOL    HW216128   5.039   0.418   0.784
 5252SOL     OW16129   5.317   0.221   0.882
 5252SOL    HW116130   5.233   0.220   0.936
 5252SOL    HW216131   5.319   0.304   0.826
 5253SOL     OW16132   3.763   1.077   0.300
 5253SOL    HW116133   3.862   1.066   0.291
 5253SOL    HW216134   3.723   0.991   0.332
 5254SOL     OW16135   4.599   1.646   0.337
 5254SOL    HW116136   4.522   1.611   0.283
 5254SOL    HW216137   4.567   1.717   0.399
 5255SOL     OW16138   3.954   0.628   1.975
 5255SOL    HW116139   3.861   0.626   2.012
 5255SOL    HW216140   3.955   0.589   1.883
 5256SOL     OW16141   3.949   0.275   2.858
 5256SOL    HW116142   3.984   0.258   2.950
 5256SOL    HW216143   3.861   0.230   2.846
 5257SOL     OW16144   3.743   0.368   2.509
 5257SOL    HW116145   3.661   0.411   2.548
 5257SOL    HW216146   3.715   0.295   2.446
 5258SOL     OW16147   4.293   1.275   3.027
 5258SOL    HW116148   4.200   1.268   2.990
 5258SOL    HW216149   4.304   1.364   3.071
 5259SOL     OW16150   5.279   1.511   2.565
 5259SOL    HW116151   5.222   1.495   2.646
 5259SOL    HW216152   5.220   1.521   2.485
 5260SOL     OW16153   4.859   0.703   2.579
 5260SOL    HW116154   4.916   0.781   2.554
 5260SOL    HW216155   4.799   0.729   2.655
 5261SOL     OW16156   4.492   1.144   2.885
 5261SOL    HW116157   4.414   1.161   2.945
 5261SOL    HW216158   4.526   1.231   2.849
 5262SOL     OW16159   4.574   0.798   3.685
 5262SOL    HW116160   4.570   0.874   3.750
 5262SOL    HW216161   4.596   0.834   3.594
 5263SOL     OW16162   4.409   1.012   2.527
 5263SOL    HW116163   4.478   0.996   2.597
 5263SOL    HW216164   4.336   1.069   2.565
 5264SOL     OW16165   4.410   1.161   3.665
 5264SOL    HW116166   4.470   1.240   3.679
 5264SOL    HW216167   4.324   1.192   3.624
 5265SOL     OW16168   4.059   1.435   2.923
 5265SOL    HW116169   3.981   1.404   2.870
 5265SOL    HW216170   4.117   1.493   2.866
 5266SOL     OW16171   5.184   1.505   3.201
 5266SOL    HW116172   5.208   1.599   3.227
 5266SOL    HW216173   5.168   1.451   3.283
 5267SOL     OW16174   4.162   0.392   3.361
 5267SOL    HW116175   4.244   0.336   3.370
 5267SOL    HW216176   4.081   0.334   3.365
 5268SOL     OW16177   3.955   1.713   2.345
 5268SOL    HW116178   3.989   1.790   2.399
 5268SOL    HW216179   3.999   1.713   2.255
 5269SOL     OW16180   4.851   1.341   3.552
 5269SOL    HW116181   4.898   1.341   3.640
 5269SOL    HW216182   4.803   1.254   3.541
 5270SOL     OW16183   3.954   1.434   2.400
 5270SOL    HW116184   3.928   1.530   2.400
 5270SOL    HW216185   3.883   1.380   2.445
 5271SOL     OW16186   3.964   1.091   2.748
 5271SOL    HW116187   3.978   1.007   2.800
 5271SOL    HW216188   3.909   1.155   2.803
 5272SOL     OW16189   4.344   1.786   3.301
 5272SOL    HW116190   4.252   1.769   3.336
 5272SOL    HW216191   4.372   1.878   3.327
 5273SOL     OW16192   4.330   0.964   1.985
 5273SOL    HW116193   4.337   1.048   1.931
 5273SOL    HW216194   4.376   0.977   2.073
 5274SOL     OW16195   5.318   0.114   3.342
 5274SOL    HW116196   5.300   0.181   3.270
 5274SOL    HW216197   5.315   0.160   3.431
 5275SOL     OW16198   3.846   0.643   2.425
 5275SOL    HW116199   3.801   0.555   2.442
 5275SOL    HW216200   3.845   0.697   2.509
 5276SOL     OW16201   3.751   1.596   1.979
 5276SOL    HW116202   3.732   1.500   2.000
 5276SOL    HW216203   3.718   1.654   2.054
 5277SOL     OW16204   5.413   0.922   2.474
 5277SOL    HW116205   5.508   0.893   2.482
 5277SOL    HW216206   5.405   0.987   2.399
 5278SOL     OW16207   3.837   0.737   3.459
 5278SOL    HW116208   3.925   0.724   3.504
 5278SOL    HW216209   3.824   0.834   3.437
 5279SOL     OW16210   4.337   1.365   2.588
 5279SOL    HW116211   4.288   1.278   2.597
 5279SOL    HW216212   4.314   1.408   2.501
 5280SOL     OW16213   5.017   1.228   3.285
 5280SOL    HW116214   5.054   1.155   3.227
 5280SOL    HW216215   5.069   1.233   3.370
 5281SOL     OW16216   4.533   0.004   2.364
 5281SOL    HW116217   4.573   0.095   2.355
 5281SOL    HW216218   4.433   0.012   2.370
 5282SOL     OW16219   3.921   0.976   3.126
 5282SOL    HW116220   4.010   0.931   3.112
 5282SOL    HW216221   3.848   0.911   3.107
 5283SOL     OW16222   4.911   1.792   3.478
 5283SOL    HW116223   4.935   1.852   3.402
 5283SOL    HW216224   4.918   1.697   3.448
 5284SOL     OW16225   4.041   0.251   3.663
 5284SOL    HW116226   4.112   0.322   3.669
 5284SOL    HW216227   3.953   0.290   3.691
 5285SOL     OW16228   5.190   1.417   2.815
 5285SOL    HW116229   5.131   1.423   2.895
 5285SOL    HW216230   5.175   1.329   2.769
 5286SOL     OW16231   4.322   0.729   2.132
 5286SOL    HW116232   4.346   0.798   2.064
 5286SOL    HW216233   4.244   0.762   2.186
 5287SOL     OW16234   5.005   0.345   2.806
 5287SOL    HW116235   4.919   0.295   2.793
 5287SOL    HW216236   5.067   0.291   2.862
 5288SOL     OW16237   4.531   0.605   3.327
 5288SOL    HW116238   4.484   0.602   3.416
 5288SOL    HW216239   4.480   0.550   3.261
 5289SOL     OW16240   5.118   0.469   3.536
 5289SOL    HW116241   5.098   0.512   3.624
 5289SOL    HW216242   5.196   0.407   3.545
 5290SOL     OW16243   4.697   0.890   3.434
 5290SOL    HW116244   4.743   0.806   3.405
 5290SOL    HW216245   4.641   0.924   3.359
 5291SOL     OW16246   4.715   0.410   3.104
 5291SOL    HW116247   4.638   0.444   3.158
 5291SOL    HW216248   4.681   0.359   3.025
 5292SOL     OW16249   4.765   0.701   2.291
 5292SOL    HW116250   4.791   0.697   2.387
 5292SOL    HW216251   4.680   0.650   2.277
 5293SOL     OW16252   3.800   0.811   2.651
 5293SOL    HW116253   3.899   0.799   2.660
 5293SOL    HW216254   3.776   0.906   2.672
 5294SOL     OW16255   3.854   1.821   3.433
 5294SOL    HW116256   3.844   1.806   3.532
 5294SOL    HW216257   3.768   1.857   3.397
 5295SOL     OW16258   4.589   0.348   2.057
 5295SOL    HW116259   4.648   0.411   2.008
 5295SOL    HW216260   4.608   0.254   2.028
 5296SOL     OW16261   5.086   1.144   2.407
 5296SOL    HW116262   5.169   1.115   2.359
 5296SOL    HW216263   5.037   1.211   2.351
 5297SOL     OW16264   4.274   0.196   2.747
 5297SOL    HW116265   4.269   0.191   2.847
 5297SOL    HW216266   4.276   0.292   2.718
 5298SOL     OW16267   4.732   1.456   2.339
 5298SOL    HW116268   4.686   1.528   2.287
 5298SOL    HW216269   4.728   1.476   2.437
 5299SOL     OW16270   4.075   1.801   2.715
 5299SOL    HW116271   4.125   1.715   2.721
 5299SOL    HW216272   4.140   1.878   2.712
 5300SOL     OW16273   4.951   1.550   3.368
 5300SOL    HW116274   4.957   1.473   3.432
 5300SOL    HW216275   4.899   1.524   3.288
 5301SOL     OW16276   4.045   0.943   2.104
 5301SOL    HW116277   4.127   0.982   2.062
 5301SOL    HW216278   4.018   0.861   2.055
 5302SOL     OW16279   4.185   1.266   3.589
 5302SOL    HW116280   4.135   1.267   3.503
 5302SOL    HW216281   4.122   1.248   3.665
 5303SOL     OW16282   4.835   1.776   2.099
 5303SOL    HW116283   4.775   1.714   2.149
 5303SOL    HW216284   4.866   1.732   2.014
 5304SOL     OW16285   3.926   0.285   3.360
 5304SOL    HW116286   3.846   0.345   3.347
 5304SOL    HW216287   3.916   0.236   3.446
 5305SOL     OW16288   4.188   1.743   2.185
 5305SOL    HW116289   4.221   1.782   2.271
 5305SOL    HW216290   4.264   1.736   2.120
 5306SOL     OW16291   5.124   0.107   2.288
 5306SOL    HW116292   5.100   0.070   2.198
 5306SOL    HW216293   5.223   0.123   2.292
 5307SOL     OW16294   3.973   1.785   3.103
 5307SOL    HW116295   4.030   1.720   3.153
 5307SOL    HW216296   3.957   1.752   3.010
 5308SOL     OW16297   4.664   1.698   2.766
 5308SOL    HW116298   4.744   1.641   2.787
 5308SOL    HW216299   4.615   1.658   2.689
 5309SOL     OW16300   4.106   0.700   2.342
 5309SOL    HW116301   4.151   0.610   2.339
 5309SOL    HW216302   4.012   0.689   2.375
 5310SOL     OW16303   4.338   0.122   1.979
 5310SOL    HW116304   4.436   0.100   1.986
 5310SOL    HW216305   4.307   0.105   1.886
 5311SOL     OW16306   4.505   0.264   3.611
 5311SOL    HW116307   4.572   0.203   3.654
 5311SOL    HW216308   4.432   0.283   3.676
 5312SOL     OW16309   4.612   1.514   3.057
 5312SOL    HW116310   4.589   1.489   2.963
 5312SOL    HW216311   4.673   1.445   3.096
 5313SOL     OW16312   5.075   0.590   3.295
 5313SOL    HW116313   5.103   0.547   3.380
 5313SOL    HW216314   5.100   0.686   3.296
 5314SOL     OW16315   4.527   1.402   2.786
 5314SOL    HW116316   4.617   1.416   2.744
 5314SOL    HW216317   4.456   1.404   2.715
 5315SOL     OW16318   4.646   0.503   2.761
 5315SOL    HW116319   4.621   0.494   2.665
 5315SOL    HW216320   4.694   0.421   2.792
 5316SOL     OW16321   4.263   0.064   2.374
 5316SOL    HW116322   4.182   0.065   2.432
 5316SOL    HW216323   4.266   0.147   2.319
 5317SOL     OW16324   5.158   1.188   1.903
 5317SOL    HW116325   5.190   1.112   1.960
 5317SOL    HW216326   5.066   1.215   1.933
 5318SOL     OW16327   4.021   0.035   2.033
 5318SOL    HW116328   4.070   0.119   2.012
 5318SOL    HW216329   4.083  -0.030   2.078
 5319SOL     OW16330   4.659   0.236   2.342
 5319SOL    HW116331   4.611   0.277   2.264
 5319SOL    HW216332   4.758   0.234   2.323
 5320SOL     OW16333   4.800   0.683   3.326
 5320SOL    HW116334   4.720   0.622   3.329
 5320SOL    HW216335   4.881   0.630   3.302
 5321SOL     OW16336   4.951   1.570   2.655
 5321SOL    HW116337   4.972   1.644   2.590
 5321SOL    HW216338   5.019   1.570   2.728
 5322SOL     OW16339   4.183   1.152   2.603
 5322SOL    HW116340   4.112   1.125   2.668
 5322SOL    HW216341   4.157   1.124   2.510
 5323SOL     OW16342   4.995   1.797   2.453
 5323SOL    HW116343   5.039   1.861   2.389
 5323SOL    HW216344   4.945   1.849   2.523
 5324SOL     OW16345   4.756   0.549   1.878
 5324SOL    HW116346   4.715   0.631   1.839
 5324SOL    HW216347   4.820   0.575   1.951
 5325SOL     OW16348   3.802   0.556   3.248
 5325SOL    HW116349   3.894   0.555   3.207
 5325SOL    HW216350   3.796   0.630   3.315
 5326SOL     OW16351   4.285   0.222   3.009
 5326SOL    HW116352   4.323   0.138   3.046
 5326SOL    HW216353   4.197   0.241   3.053
 5327SOL     OW16354   4.590   0.454   2.504
 5327SOL    HW116355   4.558   0.526   2.442
 5327SOL    HW216356   4.614   0.373   2.451
 5328SOL     OW16357   4.741   0.039   2.615
 5328SOL    HW116358   4.669   0.044   2.546
 5328SOL    HW216359   4.717  -0.030   2.684
 5329SOL     OW16360   5.153   1.173   2.729
 5329SOL    HW116361   5.098   1.089   2.722
 5329SOL    HW216362   5.179   1.202   2.637
 5330SOL     OW16363   4.212   1.385   2.036
 5330SOL    HW116364   4.125   1.370   2.083
 5330SOL    HW216365   4.195   1.411   1.941
 5331SOL     OW16366   5.114   0.575   1.940
 5331SOL    HW116367   5.060   0.554   2.021
 5331SOL    HW216368   5.205   0.534   1.949
 5332SOL     OW16369   4.251   0.256   2.190
 5332SOL    HW116370   4.278   0.197   2.115
 5332SOL    HW216371   4.251   0.351   2.159
 5333SOL     OW16372   4.788   1.347   3.202
 5333SOL    HW116373   4.708   1.324   3.257
 5333SOL    HW216374   4.871   1.321   3.251
 5334SOL     OW16375   5.316   1.629   3.487
 5334SOL    HW116376   5.343   1.663   3.397
 5334SOL    HW216377   5.395   1.591   3.533
 5335SOL     OW16378   4.835   1.195   2.962
 5335SOL    HW116379   4.795   1.239   3.043
 5335SOL    HW216380   4.794   1.232   2.879
 5336SOL     OW16381   4.639   0.089   3.264
 5336SOL    HW116382   4.664   0.069   3.169
 5336SOL    HW216383   4.711   0.145   3.306
 5337SOL     OW16384   4.704   1.116   3.581
 5337SOL    HW116385   4.605   1.122   3.591
 5337SOL    HW216386   4.727   1.036   3.525
 5338SOL     OW16387   4.429   1.050   2.230
 5338SOL    HW116388   4.415   1.057   2.329
 5338SOL    HW216389   4.513   0.999   2.212
 5339SOL     OW16390   4.134   0.813   3.113
 5339SOL    HW116391   4.220   0.825   3.163
 5339SOL    HW216392   4.092   0.726   3.140
 5340SOL     OW16393   4.998   0.386   3.124
 5340SOL    HW116394   5.019   0.460   3.188
 5340SOL    HW216395   4.909   0.403   3.081
 5341SOL     OW16396   3.788   1.564   3.193
 5341SOL    HW116397   3.742   1.646   3.159
 5341SOL    HW216398   3.886   1.583   3.202
 5342SOL     OW16399   4.091   1.100   2.363
 5342SOL    HW116400   4.084   1.183   2.307
 5342SOL    HW216401   4.095   1.020   2.303
 5343SOL     OW16402   4.290   0.537   2.727
 5343SOL    HW116403   4.302   0.603   2.653
 5343SOL    HW216404   4.336   0.571   2.810
 5344SOL     OW16405   4.976   1.348   2.250
 5344SOL    HW116406   5.026   1.425   2.290
 5344SOL    HW216407   4.881   1.350   2.282
 5345SOL     OW16408   4.996   1.445   3.004
 5345SOL    HW116409   5.043   1.458   3.091
 5345SOL    HW216410   4.930   1.371   3.013
 5346SOL     OW16411   4.078   1.510   3.191
 5346SOL    HW116412   4.057   1.466   3.104
 5346SOL    HW216413   4.175   1.536   3.194
 5347SOL     OW16414   4.126   0.751   3.460
 5347SOL    HW116415   4.194   0.806   3.413
 5347SOL    HW216416   4.166   0.663   3.487
 5348SOL     OW16417   4.737   0.105   3.632
 5348SOL    HW116418   4.743   0.190   3.580
 5348SOL    HW216419   4.769   0.029   3.575
 5349SOL     OW16420   4.228   0.050   3.602
 5349SOL    HW116421   4.186  -0.007   3.532
 5349SOL    HW216422   4.162   0.119   3.634
 5350SOL     OW16423   4.297   0.870   2.891
 5350SOL    HW116424   4.341   0.959   2.882
 5350SOL    HW216425   4.234   0.870   2.968
 5351SOL     OW16426   5.084   0.862   2.907
 5351SOL    HW116427   5.009   0.862   2.841
 5351SOL    HW216428   5.121   0.770   2.916
 5352SOL     OW16429   4.933   0.525   2.137
 5352SOL    HW116430   4.946   0.441   2.191
 5352SOL    HW216431   4.904   0.599   2.197
 5353SOL     OW16432   4.031   0.213   3.093
 5353SOL    HW116433   4.008   0.250   3.183
 5353SOL    HW216434   4.001   0.118   3.087
 5354SOL     OW16435   3.761   1.310   3.144
 5354SOL    HW116436   3.814   1.261   3.212
 5354SOL    HW216437   3.783   1.408   3.149
 5355SOL     OW16438   4.456   0.634   2.926
 5355SOL    HW116439   4.515   0.608   2.850
 5355SOL    HW216440   4.428   0.730   2.915
 5356SOL     OW16441   4.031   0.063   2.480
 5356SOL    HW116442   4.020   0.157   2.513
 5356SOL    HW216443   4.026   0.000   2.557
 5357SOL     OW16444   5.346   0.367   2.236
 5357SOL    HW116445   5.348   0.291   2.300
 5357SOL    HW216446   5.298   0.444   2.276
 5358SOL     OW16447   4.747   0.766   2.828
 5358SOL    HW116448   4.762   0.787   2.924
 5358SOL    HW216449   4.717   0.671   2.819
 5359SOL     OW16450   4.704   1.573   3.562
 5359SOL    HW116451   4.684   1.617   3.474
 5359SOL    HW216452   4.743   1.482   3.546
 5360SOL     OW16453   4.074   0.898   3.666
 5360SOL    HW116454   4.150   0.942   3.714
 5360SOL    HW216455   4.109   0.851   3.584
 5361SOL     OW16456   5.027   0.838   1.904
 5361SOL    HW116457   5.061   0.745   1.919
 5361SOL    HW216458   5.045   0.865   1.809
 5362SOL     OW16459   4.792   1.333   2.711
 5362SOL    HW116460   4.799   1.249   2.656
 5362SOL    HW216461   4.854   1.402   2.675
 5363SOL     OW16462   4.043   0.810   2.811
 5363SOL    HW116463   4.136   0.846   2.816
 5363SOL    HW216464   4.037   0.725   2.863
 5364SOL     OW16465   4.063   0.509   2.868
 5364SOL    HW116466   4.011   0.426   2.851
 5364SOL    HW216467   4.140   0.514   2.804
 5365SOL     OW16468   4.862   0.380   3.540
 5365SOL    HW116469   4.817   0.443   3.604
 5365SOL    HW216470   4.955   0.411   3.523
 5366SOL     OW16471   4.884   0.207   3.339
 5366SOL    HW116472   4.884   0.271   3.416
 5366SOL    HW216473   4.912   0.255   3.256
 5367SOL     OW16474   3.732   1.326   2.062
 5367SOL    HW116475   3.639   1.347   2.031
 5367SOL    HW216476   3.742   1.227   2.075
 5368SOL     OW16477   3.812   1.801   2.789
 5368SOL    HW116478   3.770   1.715   2.762
 5368SOL    HW216479   3.906   1.804   2.755
 5369SOL     OW16480   4.228   1.568   2.772
 5369SOL    HW116481   4.294   1.642   2.781
 5369SOL    HW216482   4.272   1.489   2.730
 5370SOL     OW16483   4.726   0.796   3.100
 5370SOL    HW116484   4.767   0.764   3.186
 5370SOL    HW216485   4.630   0.769   3.097
 5371SOL     OW16486   3.764   0.544   2.976
 5371SOL    HW116487   3.849   0.511   2.935
 5371SOL    HW216488   3.777   0.559   3.074
 5372SOL     OW16489   3.913   0.520   3.584
 5372SOL    HW116490   3.972   0.480   3.514
 5372SOL    HW216491   3.855   0.591   3.543
 5373SOL     OW16492   5.093   0.950   3.522
 5373SOL    HW116493   5.132   1.039   3.542
 5373SOL    HW216494   5.103   0.930   3.425
 5374SOL     OW16495   4.539   0.572   2.187
 5374SOL    HW116496   4.546   0.483   2.141
 5374SOL    HW216497   4.445   0.606   2.179
 5375SOL     OW16498   3.976   1.564   3.606
 5375SOL    HW116499   3.946   1.621   3.682
 5375SOL    HW216500   3.969   1.467   3.632
 5376SOL     OW16501   4.395   0.464   3.131
 5376SOL    HW116502   4.361   0.375   3.101
 5376SOL    HW216503   4.421   0.518   3.051
 5377SOL     OW16504   4.654   1.678   3.327
 5377SOL    HW116505   4.630   1.660   3.232
 5377SOL    HW216506   4.684   1.772   3.337
 5378SOL     OW16507   4.197   0.500   2.053
 5378SOL    HW116508   4.258   0.580   2.057
 5378SOL    HW216509   4.102   0.531   2.060
 5379SOL     OW16510   3.883   1.137   3.328
 5379SOL    HW116511   3.905   1.076   3.404
 5379SOL    HW216512   3.893   1.088   3.242
 5380SOL     OW16513   5.071   1.059   3.096
 5380SOL    HW116514   5.095   0.996   3.022
 5380SOL    HW216515   4.981   1.099   3.078
 5381SOL     OW16516   5.026   0.855   2.171
 5381SOL    HW116517   4.940   0.824   2.213
 5381SOL    HW216518   5.022   0.841   2.072
 5382SOL     OW16519   4.976   1.731   2.990
 5382SOL    HW116520   5.060   1.736   2.936
 5382SOL    HW216521   4.953   1.635   3.008
 5383SOL     OW16522   3.807   1.258   2.884
 5383SOL    HW116523   3.802   1.257   2.984
 5383SOL    HW216524   3.724   1.217   2.846
 5384SOL     OW16525   4.412   1.662   3.578
 5384SOL    HW116526   4.356   1.743   3.587
 5384SOL    HW216527   4.464   1.666   3.492
 5385SOL     OW16528   5.112   1.573   2.339
 5385SOL    HW116529   5.179   1.585   2.265
 5385SOL    HW216530   5.072   1.662   2.362
 5386SOL     OW16531   3.854   1.794   3.713
 5386SOL    HW116532   3.813   1.720   3.766
 5386SOL    HW216533   3.918   1.845   3.771
 5387SOL     OW16534   5.004   0.927   2.534
 5387SOL    HW116535   5.064   0.846   2.536
 5387SOL    HW216536   5.044   0.996   2.474
 5388SOL     OW16537   4.554   1.273   3.284
 5388SOL    HW116538   4.549   1.306   3.379
 5388SOL    HW216539   4.468   1.292   3.238
 5389SOL     OW16540   4.396   1.616   2.016
 5389SOL    HW116541   4.405   1.626   1.917
 5389SOL    HW216542   4.356   1.527   2.037
 5390SOL     OW16543   3.987   0.326   2.582
 5390SOL    HW116544   3.908   0.377   2.548
 5390SOL    HW216545   3.978   0.311   2.680
 5391SOL     OW16546   4.918   1.612   1.893
 5391SOL    HW116547   4.924   1.519   1.930
 5391SOL    HW216548   4.859   1.612   1.813
 5392SOL     OW16549   4.546   1.002   3.234
 5392SOL    HW116550   4.586   1.001   3.142
 5392SOL    HW216551   4.556   1.094   3.274
 5393SOL     OW16552   4.640   0.910   2.153
 5393SOL    HW116553   4.703   0.948   2.085
 5393SOL    HW216554   4.680   0.827   2.192
 5394SOL     OW16555   4.096   1.288   3.352
 5394SOL    HW116556   4.083   1.381   3.318
 5394SOL    HW216557   4.012   1.236   3.339
 5395SOL     OW16558   4.763   1.098   2.558
 5395SOL    HW116559   4.693   1.051   2.612
 5395SOL    HW216560   4.822   1.030   2.515
 5396SOL     OW16561   4.738   0.236   2.833
 5396SOL    HW116562   4.730   0.200   2.740
 5396SOL    HW216563   4.736   0.160   2.898
 5397SOL     OW16564   4.314   1.487   2.353
 5397SOL    HW116565   4.356   1.429   2.283
 5397SOL    HW216566   4.270   1.566   2.309
 5398SOL     OW16567   3.979   1.348   2.152
 5398SOL    HW116568   3.883   1.349   2.125
 5398SOL    HW216569   3.991   1.401   2.236
 5399SOL     OW16570   3.829   1.013   3.588
 5399SOL    HW116571   3.752   0.980   3.642
 5399SOL    HW216572   3.914   0.983   3.630
 5400SOL     OW16573   4.396   0.203   3.351
 5400SOL    HW116574   4.486   0.187   3.311
 5400SOL    HW216575   4.404   0.208   3.450
 5401SOL     OW16576   3.799   0.345   1.895
 5401SOL    HW116577   3.707   0.317   1.866
 5401SOL    HW216578   3.830   0.422   1.839
 5402SOL     OW16579   5.164   0.856   3.260
 5402SOL    HW116580   5.107   0.908   3.197
 5402SOL    HW216581   5.260   0.868   3.236
 5403SOL     OW16582   3.796   0.166   2.180
 5403SOL    HW116583   3.779   0.249   2.126
 5403SOL    HW216584   3.886   0.129   2.158
 5404SOL     OW16585   4.907   1.335   1.981
 5404SOL    HW116586   4.808   1.324   1.983
 5404SOL    HW216587   4.941   1.350   2.074
 5405SOL     OW16588   4.337   0.842   3.293
 5405SOL    HW116589   4.393   0.923   3.276
 5405SOL    HW216590   4.396   0.762   3.296
 5406SOL     OW16591   4.440   0.565   3.570
 5406SOL    HW116592   4.459   0.630   3.644
 5406SOL    HW216593   4.500   0.485   3.579
 5407SOL     OW16594   5.174   1.220   3.495
 5407SOL    HW116595   5.165   1.210   3.594
 5407SOL    HW216596   5.270   1.213   3.469
 5408SOL     OW16597   4.114   1.741   3.422
 5408SOL    HW116598   4.023   1.782   3.420
 5408SOL    HW216599   4.107   1.647   3.454
 5409SOL     OW16600   4.949   0.325   2.311
 5409SOL    HW116601   5.014   0.251   2.300
 5409SOL    HW216602   4.969   0.375   2.395
 5410SOL     OW16603   4.318   0.745   2.514
 5410SOL    HW116604   4.368   0.830   2.495
 5410SOL    HW216605   4.230   0.747   2.466
 5411SOL     OW16606   4.583   1.374   1.878
 5411SOL    HW116607   4.537   1.389   1.966
 5411SOL    HW216608   4.627   1.459   1.848
 5412SOL     OW16609   4.385   1.790   2.815
 5412SOL    HW116610   4.339   1.878   2.802
 5412SOL    HW216611   4.484   1.802   2.808
 5413SOL     OW16612   4.583   0.956   2.723
 5413SOL    HW116613   4.637   0.887   2.771
 5413SOL    HW216614   4.551   1.025   2.789
 5414SOL     OW16615   4.807   0.984   1.949
 5414SOL    HW116616   4.784   1.037   1.867
 5414SOL    HW216617   4.888   0.928   1.930
 5415SOL     OW16618   3.945   1.314   3.706
 5415SOL    HW116619   3.880   1.241   3.685
 5415SOL    HW216620   3.949   1.328   3.804
 5416SOL     OW16621   3.803   1.240   2.515
 5416SOL    HW116622   3.802   1.193   2.603
 5416SOL    HW216623   3.885   1.212   2.464
 5417SOL     OW16624   4.396   1.391   3.486
 5417SOL    HW116625   4.318   1.341   3.524
 5417SOL    HW216626   4.393   1.486   3.517
 5418SOL     OW16627   4.152   0.424   2.382
 5418SOL    HW116628   4.182   0.352   2.320
 5418SOL    HW216629   4.113   0.384   2.465
 5419SOL     OW16630   5.429   1.487   2.966
 5419SOL    HW116631   5.336   1.462   2.939
 5419SOL    HW216632   5.455   1.437   3.048
 5420SOL     OW16633   4.041   0.547   3.142
 5420SOL    HW116634   4.079   0.488   3.214
 5420SOL    HW216635   4.081   0.521   3.054
 5421SOL     OW16636   4.536   1.586   2.549
 5421SOL    HW116637   4.568   1.596   2.455
 5421SOL    HW216638   4.457   1.524   2.551
 5422SOL     OW16639   5.148   0.214   2.974
 5422SOL    HW116640   5.200   0.149   3.029
 5422SOL    HW216641   5.099   0.277   3.035
 5423SOL     OW16642   4.725   0.034   3.016
 5423SOL    HW116643   4.662  -0.038   2.985
 5423SOL    HW216644   4.818  -0.002   3.016
 5424SOL     OW16645   4.494   1.330   2.163
 5424SOL    HW116646   4.448   1.243   2.180
 5424SOL    HW216647   4.585   1.327   2.204
 5425SOL     OW16648   4.342   1.567   3.146
 5425SOL    HW116649   4.337   1.649   3.203
 5425SOL    HW216650   4.431   1.564   3.101
 5426SOL     OW16651   5.076   0.052   2.030
 5426SOL    HW116652   5.111   0.011   1.946
 5426SOL    HW216653   4.986   0.014   2.050
 5427SOL     OW16654   5.024   0.453   2.553
 5427SOL    HW116655   4.965   0.533   2.557
 5427SOL    HW216656   5.039   0.418   2.646
 5428SOL     OW16657   5.317   0.221   2.744
 5428SOL    HW116658   5.233   0.220   2.798
 5428SOL    HW216659   5.319   0.304   2.688
 5429SOL     OW16660   3.763   1.077   2.162
 5429SOL    HW116661   3.862   1.066   2.153
 5429SOL    HW216662   3.723   0.991   2.194
 5430SOL     OW16663   4.599   1.646   2.199
 5430SOL    HW116664   4.522   1.611   2.145
 5430SOL    HW216665   4.567   1.717   2.261
 5431SOL     OW16666   3.954   0.628   3.837
 5431SOL    HW116667   3.861   0.626   3.874
 5431SOL    HW216668   3.955   0.589   3.745
 5432SOL     OW16669   3.949   0.275   4.720
 5432SOL    HW116670   3.984   0.258   4.812
 5432SOL    HW216671   3.861   0.230   4.708
 5433SOL     OW16672   3.743   0.368   4.371
 5433SOL    HW116673   3.661   0.411   4.410
 5433SOL    HW216674   3.715   0.295   4.308
 5434SOL     OW16675   4.293   1.275   4.889
 5434SOL    HW116676   4.200   1.268   4.852
 5434SOL    HW216677   4.304   1.364   4.933
 5435SOL     OW16678   5.279   1.511   4.427
 5435SOL    HW116679   5.222   1.495   4.508
 5435SOL    HW216680   5.220   1.521   4.347
 5436SOL     OW16681   4.859   0.703   4.441
 5436SOL    HW116682   4.916   0.781   4.416
 5436SOL    HW216683   4.799   0.729   4.517
 5437SOL     OW16684   4.492   1.144   4.747
 5437SOL    HW116685   4.414   1.161   4.807
 5437SOL    HW216686   4.526   1.231   4.711
 5438SOL     OW16687   4.574   0.798   5.547
 5438SOL    HW116688   4.570   0.874   5.612
 5438SOL    HW216689   4.596   0.834   5.456
 5439SOL     OW16690   4.409   1.012   4.389
 5439SOL    HW116691   4.478   0.996   4.459
 5439SOL    HW216692   4.336   1.069   4.427
 5440SOL     OW16693   4.410   1.161   5.527
 5440SOL    HW116694   4.470   1.240   5.541
 5440SOL    HW216695   4.324   1.192   5.486
 5441SOL     OW16696   4.059   1.435   4.785
 5441SOL    HW116697   3.981   1.404   4.732
 5441SOL    HW216698   4.117   1.493   4.728
 5442SOL     OW16699   5.184   1.505   5.063
 5442SOL    HW116700   5.208   1.599   5.089
 5442SOL    HW216701   5.168   1.451   5.145
 5443SOL     OW16702   4.162   0.392   5.223
 5443SOL    HW116703   4.244   0.336   5.232
 5443SOL    HW216704   4.081   0.334   5.227
 5444SOL     OW16705   3.955   1.713   4.207
 5444SOL    HW116706   3.989   1.790   4.261
 5444SOL    HW216707   3.999   1.713   4.117
 5445SOL     OW16708   4.851   1.341   5.414
 5445SOL    HW116709   4.898   1.341   5.502
 5445SOL    HW216710   4.803   1.254   5.403
 5446SOL     OW16711   3.954   1.434   4.262
 5446SOL    HW116712   3.928   1.530   4.262
 5446SOL    HW216713   3.883   1.380   4.307
 5447SOL     OW16714   3.964   1.091   4.610
 5447SOL    HW116715   3.978   1.007   4.662
 5447SOL    HW216716   3.909   1.155   4.665
 5448SOL     OW16717   4.344   1.786   5.163
 5448SOL    HW116718   4.252   1.769   5.198
 5448SOL    HW216719   4.372   1.878   5.189
 5449SOL     OW16720   4.330   0.964   3.847
 5449SOL    HW116721   4.337   1.048   3.793
 5449SOL    HW216722   4.376   0.977   3.935
 5450SOL     OW16723   5.318   0.114   5.204
 5450SOL    HW116724   5.300   0.181   5.132
 5450SOL    HW216725   5.315   0.160   5.293
 5451SOL     OW16726   3.846   0.643   4.287
 5451SOL    HW116727   3.801   0.555   4.304
 5451SOL    HW216728   3.845   0.697   4.371
 5452SOL     OW16729   3.751   1.596   3.841
 5452SOL    HW116730   3.732   1.500   3.862
 5452SOL    HW216731   3.718   1.654   3.916
 5453SOL     OW16732   5.413   0.922   4.336
 5453SOL    HW116733   5.508   0.893   4.344
 5453SOL    HW216734   5.405   0.987   4.261
 5454SOL     OW16735   3.837   0.737   5.321
 5454SOL    HW116736   3.925   0.724   5.366
 5454SOL    HW216737   3.824   0.834   5.299
 5455SOL     OW16738   4.337   1.365   4.450
 5455SOL    HW116739   4.288   1.278   4.459
 5455SOL    HW216740   4.314   1.408   4.363
 5456SOL     OW16741   5.017   1.228   5.147
 5456SOL    HW116742   5.054   1.155   5.089
 5456SOL    HW216743   5.069   1.233   5.232
 5457SOL     OW16744   4.533   0.004   4.226
 5457SOL    HW116745   4.573   0.095   4.217
 5457SOL    HW216746   4.433   0.012   4.232
 5458SOL     OW16747   3.921   0.976   4.988
 5458SOL    HW116748   4.010   0.931   4.974
 5458SOL    HW216749   3.848   0.911   4.969
 5459SOL     OW16750   4.911   1.792   5.340
 5459SOL    HW116751   4.935   1.852   5.264
 5459SOL    HW216752   4.918   1.697   5.310
 5460SOL     OW16753   4.041   0.251   5.525
 5460SOL    HW116754   4.112   0.322   5.531
 5460SOL    HW216755   3.953   0.290   5.553
 5461SOL     OW16756   5.190   1.417   4.677
 5461SOL    HW116757   5.131   1.423   4.757
 5461SOL    HW216758   5.175   1.329   4.631
 5462SOL     OW16759   4.322   0.729   3.994
 5462SOL    HW116760   4.346   0.798   3.926
 5462SOL    HW216761   4.244   0.762   4.048
 5463SOL     OW16762   5.005   0.345   4.668
 5463SOL    HW116763   4.919   0.295   4.655
 5463SOL    HW216764   5.067   0.291   4.724
 5464SOL     OW16765   4.531   0.605   5.189
 5464SOL    HW116766   4.484   0.602   5.278
 5464SOL    HW216767   4.480   0.550   5.123
 5465SOL     OW16768   5.118   0.469   5.398
 5465SOL    HW116769   5.098   0.512   5.486
 5465SOL    HW216770   5.196   0.407   5.407
 5466SOL     OW16771   4.697   0.890   5.296
 5466SOL    HW116772   4.743   0.806   5.267
 5466SOL    HW216773   4.641   0.924   5.221
 5467SOL     OW16774   4.715   0.410   4.966
 5467SOL    HW116775   4.638   0.444   5.020
 5467SOL    HW216776   4.681   0.359   4.887
 5468SOL     OW16777   4.765   0.701   4.153
 5468SOL    HW116778   4.791   0.697   4.249
 5468SOL    HW216779   4.680   0.650   4.139
 5469SOL     OW16780   3.800   0.811   4.513
 5469SOL    HW116781   3.899   0.799   4.522
 5469SOL    HW216782   3.776   0.906   4.534
 5470SOL     OW16783   3.854   1.821   5.295
 5470SOL    HW116784   3.844   1.806   5.394
 5470SOL    HW216785   3.768   1.857   5.259
 5471SOL     OW16786   4.589   0.348   3.919
 5471SOL    HW116787   4.648   0.411   3.870
 5471SOL    HW216788   4.608   0.254   3.890
 5472SOL     OW16789   5.086   1.144   4.269
 5472SOL    HW116790   5.169   1.115   4.221
 5472SOL    HW216791   5.037   1.211   4.213
 5473SOL     OW16792   4.274   0.196   4.609
 5473SOL    HW116793   4.269   0.191   4.709
 5473SOL    HW216794   4.276   0.292   4.580
 5474SOL     OW16795   4.732   1.456   4.201
 5474SOL    HW116796   4.686   1.528   4.149
 5474SOL    HW216797   4.728   1.476   4.299
 5475SOL     OW16798   4.075   1.801   4.577
 5475SOL    HW116799   4.125   1.715   4.583
 5475SOL    HW216800   4.140   1.878   4.574
 5476SOL     OW16801   4.951   1.550   5.230
 5476SOL    HW116802   4.957   1.473   5.294
 5476SOL    HW216803   4.899   1.524   5.150
 5477SOL     OW16804   4.045   0.943   3.966
 5477SOL    HW116805   4.127   0.982   3.924
 5477SOL    HW216806   4.018   0.861   3.917
 5478SOL     OW16807   4.185   1.266   5.451
 5478SOL    HW116808   4.135   1.267   5.365
 5478SOL    HW216809   4.122   1.248   5.527
 5479SOL     OW16810   4.835   1.776   3.961
 5479SOL    HW116811   4.775   1.714   4.011
 5479SOL    HW216812   4.866   1.732   3.876
 5480SOL     OW16813   3.926   0.285   5.222
 5480SOL    HW116814   3.846   0.345   5.209
 5480SOL    HW216815   3.916   0.236   5.308
 5481SOL     OW16816   4.188   1.743   4.047
 5481SOL    HW116817   4.221   1.782   4.133
 5481SOL    HW216818   4.264   1.736   3.982
 5482SOL     OW16819   5.124   0.107   4.150
 5482SOL    HW116820   5.100   0.070   4.060
 5482SOL    HW216821   5.223   0.123   4.154
 5483SOL     OW16822   3.973   1.785   4.965
 5483SOL    HW116823   4.030   1.720   5.015
 5483SOL    HW216824   3.957   1.752   4.872
 5484SOL     OW16825   4.664   1.698   4.628
 5484SOL    HW116826   4.744   1.641   4.649
 5484SOL    HW216827   4.615   1.658   4.551
 5485SOL     OW16828   4.106   0.700   4.204
 5485SOL    HW116829   4.151   0.610   4.201
 5485SOL    HW216830   4.012   0.689   4.237
 5486SOL     OW16831   4.338   0.122   3.841
 5486SOL    HW116832   4.436   0.100   3.848
 5486SOL    HW216833   4.307   0.105   3.748
 5487SOL     OW16834   4.505   0.264   5.473
 5487SOL    HW116835   4.572   0.203   5.516
 5487SOL    HW216836   4.432   0.283   5.538
 5488SOL     OW16837   4.612   1.514   4.919
 5488SOL    HW116838   4.589   1.489   4.825
 5488SOL    HW216839   4.673   1.445   4.958
 5489SOL     OW16840   5.075   0.590   5.157
 5489SOL    HW116841   5.103   0.547   5.242
 5489SOL    HW216842   5.100   0.686   5.158
 5490SOL     OW16843   4.527   1.402   4.648
 5490SOL    HW116844   4.617   1.416   4.606
 5490SOL    HW216845   4.456   1.404   4.577
 5491SOL     OW16846   4.646   0.503   4.623
 5491SOL    HW116847   4.621   0.494   4.527
 5491SOL    HW216848   4.694   0.421   4.654
 5492SOL     OW16849   4.263   0.064   4.236
 5492SOL    HW116850   4.182   0.065   4.294
 5492SOL    HW216851   4.266   0.147   4.181
 5493SOL     OW16852   5.158   1.188   3.765
 5493SOL    HW116853   5.190   1.112   3.822
 5493SOL    HW216854   5.066   1.215   3.795
 5494SOL     OW16855   4.021   0.035   3.895
 5494SOL    HW116856   4.070   0.119   3.874
 5494SOL    HW216857   4.083  -0.030   3.940
 5495SOL     OW16858   4.659   0.236   4.204
 5495SOL    HW116859   4.611   0.277   4.126
 5495SOL    HW216860   4.758   0.234   4.185
 5496SOL     OW16861   4.800   0.683   5.188
 5496SOL    HW116862   4.720   0.622   5.191
 5496SOL    HW216863   4.881   0.630   5.164
 5497SOL     OW16864   4.951   1.570   4.517
 5497SOL    HW116865   4.972   1.644   4.452
 5497SOL    HW216866   5.019   1.570   4.590
 5498SOL     OW16867   4.183   1.152   4.465
 5498SOL    HW116868   4.112   1.125   4.530
 5498SOL    HW216869   4.157   1.124   4.372
 5499SOL     OW16870   4.995   1.797   4.315
 5499SOL    HW116871   5.039   1.861   4.251
 5499SOL    HW216872   4.945   1.849   4.385
 5500SOL     OW16873   4.756   0.549   3.740
 5500SOL    HW116874   4.715   0.631   3.701
 5500SOL    HW216875   4.820   0.575   3.813
 5501SOL     OW16876   3.802   0.556   5.110
 5501SOL    HW116877   3.894   0.555   5.069
 5501SOL    HW216878   3.796   0.630   5.177
 5502SOL     OW16879   4.285   0.222   4.871
 5502SOL    HW116880   4.323   0.138   4.908
 5502SOL    HW216881   4.197   0.241   4.915
 5503SOL     OW16882   4.590   0.454   4.366
 5503SOL    HW116883   4.558   0.526   4.304
 5503SOL    HW216884   4.614   0.373   4.313
 5504SOL     OW16885   4.741   0.039   4.477
 5504SOL    HW116886   4.669   0.044   4.408
 5504SOL    HW216887   4.717  -0.030   4.546
 5505SOL     OW16888   5.153   1.173   4.591
 5505SOL    HW116889   5.098   1.089   4.584
 5505SOL    HW216890   5.179   1.202   4.499
 5506SOL     OW16891   4.212   1.385   3.898
 5506SOL    HW116892   4.125   1.370   3.945
 5506SOL    HW216893   4.195   1.411   3.803
 5507SOL     OW16894   5.114   0.575   3.802
 5507SOL    HW116895   5.060   0.554   3.883
 5507SOL    HW216896   5.205   0.534   3.811
 5508SOL     OW16897   4.251   0.256   4.052
 5508SOL    HW116898   4.278   0.197   3.977
 5508SOL    HW216899   4.251   0.351   4.021
 5509SOL     OW16900   4.788   1.347   5.064
 5509SOL    HW116901   4.708   1.324   5.119
 5509SOL    HW216902   4.871   1.321   5.113
 5510SOL     OW16903   5.316   1.629   5.349
 5510SOL    HW116904   5.343   1.663   5.259
 5510SOL    HW216905   5.395   1.591   5.395
 5511SOL     OW16906   4.835   1.195   4.824
 5511SOL    HW116907   4.795   1.239   4.905
 5511SOL    HW216908   4.794   1.232   4.741
 5512SOL     OW16909   4.639   0.089   5.126
 5512SOL    HW116910   4.664   0.069   5.031
 5512SOL    HW216911   4.711   0.145   5.168
 5513SOL     OW16912   4.704   1.116   5.443
 5513SOL    HW116913   4.605   1.122   5.453
 5513SOL    HW216914   4.727   1.036   5.387
 5514SOL     OW16915   4.429   1.050   4.092
 5514SOL    HW116916   4.415   1.057   4.191
 5514SOL    HW216917   4.513   0.999   4.074
 5515SOL     OW16918   4.134   0.813   4.975
 5515SOL    HW116919   4.220   0.825   5.025
 5515SOL    HW216920   4.092   0.726   5.002
 5516SOL     OW16921   4.998   0.386   4.986
 5516SOL    HW116922   5.019   0.460   5.050
 5516SOL    HW216923   4.909   0.403   4.943
 5517SOL     OW16924   3.788   1.564   5.055
 5517SOL    HW116925   3.742   1.646   5.021
 5517SOL    HW216926   3.886   1.583   5.064
 5518SOL     OW16927   4.091   1.100   4.225
 5518SOL    HW116928   4.084   1.183   4.169
 5518SOL    HW216929   4.095   1.020   4.165
 5519SOL     OW16930   4.290   0.537   4.589
 5519SOL    HW116931   4.302   0.603   4.515
 5519SOL    HW216932   4.336   0.571   4.672
 5520SOL     OW16933   4.976   1.348   4.112
 5520SOL    HW116934   5.026   1.425   4.152
 5520SOL    HW216935   4.881   1.350   4.144
 5521SOL     OW16936   4.996   1.445   4.866
 5521SOL    HW116937   5.043   1.458   4.953
 5521SOL    HW216938   4.930   1.371   4.875
 5522SOL     OW16939   4.078   1.510   5.053
 5522SOL    HW116940   4.057   1.466   4.966
 5522SOL    HW216941   4.175   1.536   5.056
 5523SOL     OW16942   4.126   0.751   5.322
 5523SOL    HW116943   4.194   0.806   5.275
 5523SOL    HW216944   4.166   0.663   5.349
 5524SOL     OW16945   4.737   0.105   5.494
 5524SOL    HW116946   4.743   0.190   5.442
 5524SOL    HW216947   4.769   0.029   5.437
 5525SOL     OW16948   4.228   0.050   5.464
 5525SOL    HW116949   4.186  -0.007   5.394
 5525SOL    HW216950   4.162   0.119   5.496
 5526SOL     OW16951   4.297   0.870   4.753
 5526SOL    HW116952   4.341   0.959   4.744
 5526SOL    HW216953   4.234   0.870   4.830
 5527SOL     OW16954   5.084   0.862   4.769
 5527SOL    HW116955   5.009   0.862   4.703
 5527SOL    HW216956   5.121   0.770   4.778
 5528SOL     OW16957   4.933   0.525   3.999
 5528SOL    HW116958   4.946   0.441   4.053
 5528SOL    HW216959   4.904   0.599   4.059
 5529SOL     OW16960   4.031   0.213   4.955
 5529SOL    HW116961   4.008   0.250   5.045
 5529SOL    HW216962   4.001   0.118   4.949
 5530SOL     OW16963   3.761   1.310   5.006
 5530SOL    HW116964   3.814   1.261   5.074
 5530SOL    HW216965   3.783   1.408   5.011
 5531SOL     OW16966   4.456   0.634   4.788
 5531SOL    HW116967   4.515   0.608   4.712
 5531SOL    HW216968   4.428   0.730   4.777
 5532SOL     OW16969   4.031   0.063   4.342
 5532SOL    HW116970   4.020   0.157   4.375
 5532SOL    HW216971   4.026   0.000   4.419
 5533SOL     OW16972   5.346   0.367   4.098
 5533SOL    HW116973   5.348   0.291   4.162
 5533SOL    HW216974   5.298   0.444   4.138
 5534SOL     OW16975   4.747   0.766   4.690
 5534SOL    HW116976   4.762   0.787   4.786
 5534SOL    HW216977   4.717   0.671   4.681
 5535SOL     OW16978   4.704   1.573   5.424
 5535SOL    HW116979   4.684   1.617   5.336
 5535SOL    HW216980   4.743   1.482   5.408
 5536SOL     OW16981   4.074   0.898   5.528
 5536SOL    HW116982   4.150   0.942   5.576
 5536SOL    HW216983   4.109   0.851   5.446
 5537SOL     OW16984   5.027   0.838   3.766
 5537SOL    HW116985   5.061   0.745   3.781
 5537SOL    HW216986   5.045   0.865   3.671
 5538SOL     OW16987   4.792   1.333   4.573
 5538SOL    HW116988   4.799   1.249   4.518
 5538SOL    HW216989   4.854   1.402   4.537
 5539SOL     OW16990   4.043   0.810   4.673
 5539SOL    HW116991   4.136   0.846   4.678
 5539SOL    HW216992   4.037   0.725   4.725
 5540SOL     OW16993   4.063   0.509   4.730
 5540SOL    HW116994   4.011   0.426   4.713
 5540SOL    HW216995   4.140   0.514   4.666
 5541SOL     OW16996   4.862   0.380   5.402
 5541SOL    HW116997   4.817   0.443   5.466
 5541SOL    HW216998   4.955   0.411   5.385
 5542SOL     OW16999   4.884   0.207   5.201
 5542SOL    HW117000   4.884   0.271   5.278
 5542SOL    HW217001   4.912   0.255   5.118
 5543SOL     OW17002   3.732   1.326   3.924
 5543SOL    HW117003   3.639   1.347   3.893
 5543SOL    HW217004   3.742   1.227   3.937
 5544SOL     OW17005   3.812   1.801   4.651
 5544SOL    HW117006   3.770   1.715   4.624
 5544SOL    HW217007   3.906   1.804   4.617
 5545SOL     OW17008   4.228   1.568   4.634
 5545SOL    HW117009   4.294   1.642   4.643
 5545SOL    HW217010   4.272   1.489   4.592
 5546SOL     OW17011   4.726   0.796   4.962
 5546SOL    HW117012   4.767   0.764   5.048
 5546SOL    HW217013   4.630   0.769   4.959
 5547SOL     OW17014   3.764   0.544   4.838
 5547SOL    HW117015   3.849   0.511   4.797
 5547SOL    HW217016   3.777   0.559   4.936
 5548SOL     OW17017   3.913   0.520   5.446
 5548SOL    HW117018   3.972   0.480   5.376
 5548SOL    HW217019   3.855   0.591   5.405
 5549SOL     OW17020   5.093   0.950   5.384
 5549SOL    HW117021   5.132   1.039   5.404
 5549SOL    HW217022   5.103   0.930   5.287
 5550SOL     OW17023   4.539   0.572   4.049
 5550SOL    HW117024   4.546   0.483   4.003
 5550SOL    HW217025   4.445   0.606   4.041
 5551SOL     OW17026   3.976   1.564   5.468
 5551SOL    HW117027   3.946   1.621   5.544
 5551SOL    HW217028   3.969   1.467   5.494
 5552SOL     OW17029   4.395   0.464   4.993
 5552SOL    HW117030   4.361   0.375   4.963
 5552SOL    HW217031   4.421   0.518   4.913
 5553SOL     OW17032   4.654   1.678   5.189
 5553SOL    HW117033   4.630   1.660   5.094
 5553SOL    HW217034   4.684   1.772   5.199
 5554SOL     OW17035   4.197   0.500   3.915
 5554SOL    HW117036   4.258   0.580   3.919
 5554SOL    HW217037   4.102   0.531   3.922
 5555SOL     OW17038   3.883   1.137   5.190
 5555SOL    HW117039   3.905   1.076   5.266
 5555SOL    HW217040   3.893   1.088   5.104
 5556SOL     OW17041   5.071   1.059   4.958
 5556SOL    HW117042   5.095   0.996   4.884
 5556SOL    HW217043   4.981   1.099   4.940
 5557SOL     OW17044   5.026   0.855   4.033
 5557SOL    HW117045   4.940   0.824   4.075
 5557SOL    HW217046   5.022   0.841   3.934
 5558SOL     OW17047   4.976   1.731   4.852
 5558SOL    HW117048   5.060   1.736   4.798
 5558SOL    HW217049   4.953   1.635   4.870
 5559SOL     OW17050   3.807   1.258   4.746
 5559SOL    HW117051   3.802   1.257   4.846
 5559SOL    HW217052   3.724   1.217   4.708
 5560SOL     OW17053   4.412   1.662   5.440
 5560SOL    HW117054   4.356   1.743   5.449
 5560SOL    HW217055   4.464   1.666   5.354
 5561SOL     OW17056   5.112   1.573   4.201
 5561SOL    HW117057   5.179   1.585   4.127
 5561SOL    HW217058   5.072   1.662   4.224
 5562SOL     OW17059   3.854   1.794   5.575
 5562SOL    HW117060   3.813   1.720   5.628
 5562SOL    HW217061   3.918   1.845   5.633
 5563SOL     OW17062   5.004   0.927   4.396
 5563SOL    HW117063   5.064   0.846   4.398
 5563SOL    HW217064   5.044   0.996   4.336
 5564SOL     OW17065   4.554   1.273   5.146
 5564SOL    HW117066   4.549   1.306   5.241
 5564SOL    HW217067   4.468   1.292   5.100
 5565SOL     OW17068   4.396   1.616   3.878
 5565SOL    HW117069   4.405   1.626   3.779
 5565SOL    HW217070   4.356   1.527   3.899
 5566SOL     OW17071   3.987   0.326   4.444
 5566SOL    HW117072   3.908   0.377   4.410
 5566SOL    HW217073   3.978   0.311   4.542
 5567SOL     OW17074   4.918   1.612   3.755
 5567SOL    HW117075   4.924   1.519   3.792
 5567SOL    HW217076   4.859   1.612   3.675
 5568SOL     OW17077   4.546   1.002   5.096
 5568SOL    HW117078   4.586   1.001   5.004
 5568SOL    HW217079   4.556   1.094   5.136
 5569SOL     OW17080   4.640   0.910   4.015
 5569SOL    HW117081   4.703   0.948   3.947
 5569SOL    HW217082   4.680   0.827   4.054
 5570SOL     OW17083   4.096   1.288   5.214
 5570SOL    HW117084   4.083   1.381   5.180
 5570SOL    HW217085   4.012   1.236   5.201
 5571SOL     OW17086   4.763   1.098   4.420
 5571SOL    HW117087   4.693   1.051   4.474
 5571SOL    HW217088   4.822   1.030   4.377
 5572SOL     OW17089   4.738   0.236   4.695
 5572SOL    HW117090   4.730   0.200   4.602
 5572SOL    HW217091   4.736   0.160   4.760
 5573SOL     OW17092   4.314   1.487   4.215
 5573SOL    HW117093   4.356   1.429   4.145
 5573SOL    HW217094   4.270   1.566   4.171
 5574SOL     OW17095   3.979   1.348   4.014
 5574SOL    HW117096   3.883   1.349   3.987
 5574SOL    HW217097   3.991   1.401   4.098
 5575SOL     OW17098   3.829   1.013   5.450
 5575SOL    HW117099   3.752   0.980   5.504
 5575SOL    HW217100   3.914   0.983   5.492
 5576SOL     OW17101   4.396   0.203   5.213
 5576SOL    HW117102   4.486   0.187   5.173
 5576SOL    HW217103   4.404   0.208   5.312
 5577SOL     OW17104   3.799   0.345   3.757
 5577SOL    HW117105   3.707   0.317   3.728
 5577SOL    HW217106   3.830   0.422   3.701
 5578SOL     OW17107   5.164   0.856   5.122
 5578SOL    HW117108   5.107   0.908   5.059
 5578SOL    HW217109   5.260   0.868   5.098
 5579SOL     OW17110   3.796   0.166   4.042
 5579SOL    HW117111   3.779   0.249   3.988
 5579SOL    HW217112   3.886   0.129   4.020
 5580SOL     OW17113   4.907   1.335   3.843
 5580SOL    HW117114   4.808   1.324   3.845
 5580SOL    HW217115   4.941   1.350   3.936
 5581SOL     OW17116   4.337   0.842   5.155
 5581SOL    HW117117   4.393   0.923   5.138
 5581SOL    HW217118   4.396   0.762   5.158
 5582SOL     OW17119   4.440   0.565   5.432
 5582SOL    HW117120   4.459   0.630   5.506
 5582SOL    HW217121   4.500   0.485   5.441
 5583SOL     OW17122   5.174   1.220   5.357
 5583SOL    HW117123   5.165   1.210   5.456
 5583SOL    HW217124   5.270   1.213   5.331
 5584SOL     OW17125   4.114   1.741   5.284
 5584SOL    HW117126   4.023   1.782   5.282
 5584SOL    HW217127   4.107   1.647   5.316
 5585SOL     OW17128   4.949   0.325   4.173
 5585SOL    HW117129   5.014   0.251   4.162
 5585SOL    HW217130   4.969   0.375   4.257
 5586SOL     OW17131   4.318   0.745   4.376
 5586SOL    HW117132   4.368   0.830   4.357
 5586SOL    HW217133   4.230   0.747   4.328
 5587SOL     OW17134   4.583   1.374   3.740
 5587SOL    HW117135   4.537   1.389   3.828
 5587SOL    HW217136   4.627   1.459   3.710
 5588SOL     OW17137   4.385   1.790   4.677
 5588SOL    HW117138   4.339   1.878   4.664
 5588SOL    HW217139   4.484   1.802   4.670
 5589SOL     OW17140   4.583   0.956   4.585
 5589SOL    HW117141   4.637   0.887   4.633
 5589SOL    HW217142   4.551   1.025   4.651
 5590SOL     OW17143   4.807   0.984   3.811
 5590SOL    HW117144   4.784   1.037   3.729
 5590SOL    HW217145   4.888   0.928   3.792
 5591SOL     OW17146   3.945   1.314   5.568
 5591SOL    HW117147   3.880   1.241   5.547
 5591SOL    HW217148   3.949   1.328   5.666
 5592SOL     OW17149   3.803   1.240   4.377
 5592SOL    HW117150   3.802   1.193   4.465
 5592SOL    HW217151   3.885   1.212   4.326
 5593SOL     OW17152   4.396   1.391   5.348
 5593SOL    HW117153   4.318   1.341   5.386
 5593SOL    HW217154   4.393   1.486   5.379
 5594SOL     OW17155   4.152   0.424   4.244
 5594SOL    HW117156   4.182   0.352   4.182
 5594SOL    HW217157   4.113   0.384   4.327
 5595SOL     OW17158   5.429   1.487   4.828
 5595SOL    HW117159   5.336   1.462   4.801
 5595SOL    HW217160   5.455   1.437   4.910
 5596SOL     OW17161   4.041   0.547   5.004
 5596SOL    HW117162   4.079   0.488   5.076
 5596SOL    HW217163   4.081   0.521   4.916
 5597SOL     OW17164   4.536   1.586   4.411
 5597SOL    HW117165   4.568   1.596   4.317
 5597SOL    HW217166   4.457   1.524   4.413
 5598SOL     OW17167   5.148   0.214   4.836
 5598SOL    HW117168   5.200   0.149   4.891
 5598SOL    HW217169   5.099   0.277   4.897
 5599SOL     OW17170   4.725   0.034   4.878
 5599SOL    HW117171   4.662  -0.038   4.847
 5599SOL    HW217172   4.818  -0.002   4.878
 5600SOL     OW17173   4.494   1.330   4.025
 5600SOL    HW117174   4.448   1.243   4.042
 5600SOL    HW217175   4.585   1.327   4.066
 5601SOL     OW17176   4.342   1.567   5.008
 5601SOL    HW117177   4.337   1.649   5.065
 5601SOL    HW217178   4.431   1.564   4.963
 5602SOL     OW17179   5.076   0.052   3.892
 5602SOL    HW117180   5.111   0.011   3.808
 5602SOL    HW217181   4.986   0.014   3.912
 5603SOL     OW17182   5.024   0.453   4.415
 5603SOL    HW117183   4.965   0.533   4.419
 5603SOL    HW217184   5.039   0.418   4.508
 5604SOL     OW17185   5.317   0.221   4.606
 5604SOL    HW117186   5.233   0.220   4.660
 5604SOL    HW217187   5.319   0.304   4.550
 5605SOL     OW17188   3.763   1.077   4.024
 5605SOL    HW117189   3.862   1.066   4.015
 5605SOL    HW217190   3.723   0.991   4.056
 5606SOL     OW17191   4.599   1.646   4.061
 5606SOL    HW117192   4.522   1.611   4.007
 5606SOL    HW217193   4.567   1.717   4.123
 5607SOL     OW17194   3.954   0.628   5.699
 5607SOL    HW117195   3.861   0.626   5.736
 5607SOL    HW217196   3.955   0.589   5.607
 5608SOL     OW17197   3.949   0.275   6.582
 5608SOL    HW117198   3.984   0.258   6.674
 5608SOL    HW217199   3.861   0.230   6.570
 5609SOL     OW17200   3.743   0.368   6.233
 5609SOL    HW117201   3.661   0.411   6.272
 5609SOL    HW217202   3.715   0.295   6.170
 5610SOL     OW17203   4.293   1.275   6.751
 5610SOL    HW117204   4.200   1.268   6.714
 5610SOL    HW217205   4.304   1.364   6.795
 5611SOL     OW17206   5.279   1.511   6.289
 5611SOL    HW117207   5.222   1.495   6.370
 5611SOL    HW217208   5.220   1.521   6.209
 5612SOL     OW17209   4.859   0.703   6.303
 5612SOL    HW117210   4.916   0.781   6.278
 5612SOL    HW217211   4.799   0.729   6.379
 5613SOL     OW17212   4.492   1.144   6.609
 5613SOL    HW117213   4.414   1.161   6.669
 5613SOL    HW217214   4.526   1.231   6.573
 5614SOL     OW17215   4.574   0.798   7.409
 5614SOL    HW117216   4.570   0.874   7.474
 5614SOL    HW217217   4.596   0.834   7.318
 5615SOL     OW17218   4.409   1.012   6.251
 5615SOL    HW117219   4.478   0.996   6.321
 5615SOL    HW217220   4.336   1.069   6.289
 5616SOL     OW17221   4.410   1.161   7.389
 5616SOL    HW117222   4.470   1.240   7.403
 5616SOL    HW217223   4.324   1.192   7.348
 5617SOL     OW17224   4.059   1.435   6.647
 5617SOL    HW117225   3.981   1.404   6.594
 5617SOL    HW217226   4.117   1.493   6.590
 5618SOL     OW17227   5.184   1.505   6.925
 5618SOL    HW117228   5.208   1.599   6.951
 5618SOL    HW217229   5.168   1.451   7.007
 5619SOL     OW17230   4.162   0.392   7.085
 5619SOL    HW117231   4.244   0.336   7.094
 5619SOL    HW217232   4.081   0.334   7.089
 5620SOL     OW17233   3.955   1.713   6.069
 5620SOL    HW117234   3.989   1.790   6.123
 5620SOL    HW217235   3.999   1.713   5.979
 5621SOL     OW17236   4.851   1.341   7.276
 5621SOL    HW117237   4.898   1.341   7.364
 5621SOL    HW217238   4.803   1.254   7.265
 5622SOL     OW17239   3.954   1.434   6.124
 5622SOL    HW117240   3.928   1.530   6.124
 5622SOL    HW217241   3.883   1.380   6.169
 5623SOL     OW17242   3.964   1.091   6.472
 5623SOL    HW117243   3.978   1.007   6.524
 5623SOL    HW217244   3.909   1.155   6.527
 5624SOL     OW17245   4.344   1.786   7.025
 5624SOL    HW117246   4.252   1.769   7.060
 5624SOL    HW217247   4.372   1.878   7.051
 5625SOL     OW17248   4.330   0.964   5.709
 5625SOL    HW117249   4.337   1.048   5.655
 5625SOL    HW217250   4.376   0.977   5.797
 5626SOL     OW17251   5.318   0.114   7.066
 5626SOL    HW117252   5.300   0.181   6.994
 5626SOL    HW217253   5.315   0.160   7.155
 5627SOL     OW17254   3.846   0.643   6.149
 5627SOL    HW117255   3.801   0.555   6.166
 5627SOL    HW217256   3.845   0.697   6.233
 5628SOL     OW17257   3.751   1.596   5.703
 5628SOL    HW117258   3.732   1.500   5.724
 5628SOL    HW217259   3.718   1.654   5.778
 5629SOL     OW17260   5.413   0.922   6.198
 5629SOL    HW117261   5.508   0.893   6.206
 5629SOL    HW217262   5.405   0.987   6.123
 5630SOL     OW17263   3.837   0.737   7.183
 5630SOL    HW117264   3.925   0.724   7.228
 5630SOL    HW217265   3.824   0.834   7.161
 5631SOL     OW17266   4.337   1.365   6.312
 5631SOL    HW117267   4.288   1.278   6.321
 5631SOL    HW217268   4.314   1.408   6.225
 5632SOL     OW17269   5.017   1.228   7.009
 5632SOL    HW117270   5.054   1.155   6.951
 5632SOL    HW217271   5.069   1.233   7.094
 5633SOL     OW17272   4.533   0.004   6.088
 5633SOL    HW117273   4.573   0.095   6.079
 5633SOL    HW217274   4.433   0.012   6.094
 5634SOL     OW17275   3.921   0.976   6.850
 5634SOL    HW117276   4.010   0.931   6.836
 5634SOL    HW217277   3.848   0.911   6.831
 5635SOL     OW17278   4.911   1.792   7.202
 5635SOL    HW117279   4.935   1.852   7.126
 5635SOL    HW217280   4.918   1.697   7.172
 5636SOL     OW17281   4.041   0.251   7.387
 5636SOL    HW117282   4.112   0.322   7.393
 5636SOL    HW217283   3.953   0.290   7.415
 5637SOL     OW17284   5.190   1.417   6.539
 5637SOL    HW117285   5.131   1.423   6.619
 5637SOL    HW217286   5.175   1.329   6.493
 5638SOL     OW17287   4.322   0.729   5.856
 5638SOL    HW117288   4.346   0.798   5.788
 5638SOL    HW217289   4.244   0.762   5.910
 5639SOL     OW17290   5.005   0.345   6.530
 5639SOL    HW117291   4.919   0.295   6.517
 5639SOL    HW217292   5.067   0.291   6.586
 5640SOL     OW17293   4.531   0.605   7.051
 5640SOL    HW117294   4.484   0.602   7.140
 5640SOL    HW217295   4.480   0.550   6.985
 5641SOL     OW17296   5.118   0.469   7.260
 5641SOL    HW117297   5.098   0.512   7.348
 5641SOL    HW217298   5.196   0.407   7.269
 5642SOL     OW17299   4.697   0.890   7.158
 5642SOL    HW117300   4.743   0.806   7.129
 5642SOL    HW217301   4.641   0.924   7.083
 5643SOL     OW17302   4.715   0.410   6.828
 5643SOL    HW117303   4.638   0.444   6.882
 5643SOL    HW217304   4.681   0.359   6.749
 5644SOL     OW17305   4.765   0.701   6.015
 5644SOL    HW117306   4.791   0.697   6.111
 5644SOL    HW217307   4.680   0.650   6.001
 5645SOL     OW17308   3.800   0.811   6.375
 5645SOL    HW117309   3.899   0.799   6.384
 5645SOL    HW217310   3.776   0.906   6.396
 5646SOL     OW17311   3.854   1.821   7.157
 5646SOL    HW117312   3.844   1.806   7.256
 5646SOL    HW217313   3.768   1.857   7.121
 5647SOL     OW17314   4.589   0.348   5.781
 5647SOL    HW117315   4.648   0.411   5.732
 5647SOL    HW217316   4.608   0.254   5.752
 5648SOL     OW17317   5.086   1.144   6.131
 5648SOL    HW117318   5.169   1.115   6.083
 5648SOL    HW217319   5.037   1.211   6.075
 5649SOL     OW17320   4.274   0.196   6.471
 5649SOL    HW117321   4.269   0.191   6.571
 5649SOL    HW217322   4.276   0.292   6.442
 5650SOL     OW17323   4.732   1.456   6.063
 5650SOL    HW117324   4.686   1.528   6.011
 5650SOL    HW217325   4.728   1.476   6.161
 5651SOL     OW17326   4.075   1.801   6.439
 5651SOL    HW117327   4.125   1.715   6.445
 5651SOL    HW217328   4.140   1.878   6.436
 5652SOL     OW17329   4.951   1.550   7.092
 5652SOL    HW117330   4.957   1.473   7.156
 5652SOL    HW217331   4.899   1.524   7.012
 5653SOL     OW17332   4.045   0.943   5.828
 5653SOL    HW117333   4.127   0.982   5.786
 5653SOL    HW217334   4.018   0.861   5.779
 5654SOL     OW17335   4.185   1.266   7.313
 5654SOL    HW117336   4.135   1.267   7.227
 5654SOL    HW217337   4.122   1.248   7.389
 5655SOL     OW17338   4.835   1.776   5.823
 5655SOL    HW117339   4.775   1.714   5.873
 5655SOL    HW217340   4.866   1.732   5.738
 5656SOL     OW17341   3.926   0.285   7.084
 5656SOL    HW117342   3.846   0.345   7.071
 5656SOL    HW217343   3.916   0.236   7.170
 5657SOL     OW17344   4.188   1.743   5.909
 5657SOL    HW117345   4.221   1.782   5.995
 5657SOL    HW217346   4.264   1.736   5.844
 5658SOL     OW17347   5.124   0.107   6.012
 5658SOL    HW117348   5.100   0.070   5.922
 5658SOL    HW217349   5.223   0.123   6.016
 5659SOL     OW17350   3.973   1.785   6.827
 5659SOL    HW117351   4.030   1.720   6.877
 5659SOL    HW217352   3.957   1.752   6.734
 5660SOL     OW17353   4.664   1.698   6.490
 5660SOL    HW117354   4.744   1.641   6.511
 5660SOL    HW217355   4.615   1.658   6.413
 5661SOL     OW17356   4.106   0.700   6.066
 5661SOL    HW117357   4.151   0.610   6.063
 5661SOL    HW217358   4.012   0.689   6.099
 5662SOL     OW17359   4.338   0.122   5.703
 5662SOL    HW117360   4.436   0.100   5.710
 5662SOL    HW217361   4.307   0.105   5.610
 5663SOL     OW17362   4.505   0.264   7.335
 5663SOL    HW117363   4.572   0.203   7.378
 5663SOL    HW217364   4.432   0.283   7.400
 5664SOL     OW17365   4.612   1.514   6.781
 5664SOL    HW117366   4.589   1.489   6.687
 5664SOL    HW217367   4.673   1.445   6.820
 5665SOL     OW17368   5.075   0.590   7.019
 5665SOL    HW117369   5.103   0.547   7.104
 5665SOL    HW217370   5.100   0.686   7.020
 5666SOL     OW17371   4.527   1.402   6.510
 5666SOL    HW117372   4.617   1.416   6.468
 5666SOL    HW217373   4.456   1.404   6.439
 5667SOL     OW17374   4.646   0.503   6.485
 5667SOL    HW117375   4.621   0.494   6.389
 5667SOL    HW217376   4.694   0.421   6.516
 5668SOL     OW17377   4.263   0.064   6.098
 5668SOL    HW117378   4.182   0.065   6.156
 5668SOL    HW217379   4.266   0.147   6.043
 5669SOL     OW17380   5.158   1.188   5.627
 5669SOL    HW117381   5.190   1.112   5.684
 5669SOL    HW217382   5.066   1.215   5.657
 5670SOL     OW17383   4.021   0.035   5.757
 5670SOL    HW117384   4.070   0.119   5.736
 5670SOL    HW217385   4.083  -0.030   5.802
 5671SOL     OW17386   4.659   0.236   6.066
 5671SOL    HW117387   4.611   0.277   5.988
 5671SOL    HW217388   4.758   0.234   6.047
 5672SOL     OW17389   4.800   0.683   7.050
 5672SOL    HW117390   4.720   0.622   7.053
 5672SOL    HW217391   4.881   0.630   7.026
 5673SOL     OW17392   4.951   1.570   6.379
 5673SOL    HW117393   4.972   1.644   6.314
 5673SOL    HW217394   5.019   1.570   6.452
 5674SOL     OW17395   4.183   1.152   6.327
 5674SOL    HW117396   4.112   1.125   6.392
 5674SOL    HW217397   4.157   1.124   6.234
 5675SOL     OW17398   4.995   1.797   6.177
 5675SOL    HW117399   5.039   1.861   6.113
 5675SOL    HW217400   4.945   1.849   6.247
 5676SOL     OW17401   4.756   0.549   5.602
 5676SOL    HW117402   4.715   0.631   5.563
 5676SOL    HW217403   4.820   0.575   5.675
 5677SOL     OW17404   3.802   0.556   6.972
 5677SOL    HW117405   3.894   0.555   6.931
 5677SOL    HW217406   3.796   0.630   7.039
 5678SOL     OW17407   4.285   0.222   6.733
 5678SOL    HW117408   4.323   0.138   6.770
 5678SOL    HW217409   4.197   0.241   6.777
 5679SOL     OW17410   4.590   0.454   6.228
 5679SOL    HW117411   4.558   0.526   6.166
 5679SOL    HW217412   4.614   0.373   6.175
 5680SOL     OW17413   4.741   0.039   6.339
 5680SOL    HW117414   4.669   0.044   6.270
 5680SOL    HW217415   4.717  -0.030   6.408
 5681SOL     OW17416   5.153   1.173   6.453
 5681SOL    HW117417   5.098   1.089   6.446
 5681SOL    HW217418   5.179   1.202   6.361
 5682SOL     OW17419   4.212   1.385   5.760
 5682SOL    HW117420   4.125   1.370   5.807
 5682SOL    HW217421   4.195   1.411   5.665
 5683SOL     OW17422   5.114   0.575   5.664
 5683SOL    HW117423   5.060   0.554   5.745
 5683SOL    HW217424   5.205   0.534   5.673
 5684SOL     OW17425   4.251   0.256   5.914
 5684SOL    HW117426   4.278   0.197   5.839
 5684SOL    HW217427   4.251   0.351   5.883
 5685SOL     OW17428   4.788   1.347   6.926
 5685SOL    HW117429   4.708   1.324   6.981
 5685SOL    HW217430   4.871   1.321   6.975
 5686SOL     OW17431   5.316   1.629   7.211
 5686SOL    HW117432   5.343   1.663   7.121
 5686SOL    HW217433   5.395   1.591   7.257
 5687SOL     OW17434   4.835   1.195   6.686
 5687SOL    HW117435   4.795   1.239   6.767
 5687SOL    HW217436   4.794   1.232   6.603
 5688SOL     OW17437   4.639   0.089   6.988
 5688SOL    HW117438   4.664   0.069   6.893
 5688SOL    HW217439   4.711   0.145   7.030
 5689SOL     OW17440   4.704   1.116   7.305
 5689SOL    HW117441   4.605   1.122   7.315
 5689SOL    HW217442   4.727   1.036   7.249
 5690SOL     OW17443   4.429   1.050   5.954
 5690SOL    HW117444   4.415   1.057   6.053
 5690SOL    HW217445   4.513   0.999   5.936
 5691SOL     OW17446   4.134   0.813   6.837
 5691SOL    HW117447   4.220   0.825   6.887
 5691SOL    HW217448   4.092   0.726   6.864
 5692SOL     OW17449   4.998   0.386   6.848
 5692SOL    HW117450   5.019   0.460   6.912
 5692SOL    HW217451   4.909   0.403   6.805
 5693SOL     OW17452   3.788   1.564   6.917
 5693SOL    HW117453   3.742   1.646   6.883
 5693SOL    HW217454   3.886   1.583   6.926
 5694SOL     OW17455   4.091   1.100   6.087
 5694SOL    HW117456   4.084   1.183   6.031
 5694SOL    HW217457   4.095   1.020   6.027
 5695SOL     OW17458   4.290   0.537   6.451
 5695SOL    HW117459   4.302   0.603   6.377
 5695SOL    HW217460   4.336   0.571   6.534
 5696SOL     OW17461   4.976   1.348   5.974
 5696SOL    HW117462   5.026   1.425   6.014
 5696SOL    HW217463   4.881   1.350   6.006
 5697SOL     OW17464   4.996   1.445   6.728
 5697SOL    HW117465   5.043   1.458   6.815
 5697SOL    HW217466   4.930   1.371   6.737
 5698SOL     OW17467   4.078   1.510   6.915
 5698SOL    HW117468   4.057   1.466   6.828
 5698SOL    HW217469   4.175   1.536   6.918
 5699SOL     OW17470   4.126   0.751   7.184
 5699SOL    HW117471   4.194   0.806   7.137
 5699SOL    HW217472   4.166   0.663   7.211
 5700SOL     OW17473   4.737   0.105   7.356
 5700SOL    HW117474   4.743   0.190   7.304
 5700SOL    HW217475   4.769   0.029   7.299
 5701SOL     OW17476   4.228   0.050   7.326
 5701SOL    HW117477   4.186  -0.007   7.256
 5701SOL    HW217478   4.162   0.119   7.358
 5702SOL     OW17479   4.297   0.870   6.615
 5702SOL    HW117480   4.341   0.959   6.606
 5702SOL    HW217481   4.234   0.870   6.692
 5703SOL     OW17482   5.084   0.862   6.631
 5703SOL    HW117483   5.009   0.862   6.565
 5703SOL    HW217484   5.121   0.770   6.640
 5704SOL     OW17485   4.933   0.525   5.861
 5704SOL    HW117486   4.946   0.441   5.915
 5704SOL    HW217487   4.904   0.599   5.921
 5705SOL     OW17488   4.031   0.213   6.817
 5705SOL    HW117489   4.008   0.250   6.907
 5705SOL    HW217490   4.001   0.118   6.811
 5706SOL     OW17491   3.761   1.310   6.868
 5706SOL    HW117492   3.814   1.261   6.936
 5706SOL    HW217493   3.783   1.408   6.873
 5707SOL     OW17494   4.456   0.634   6.650
 5707SOL    HW117495   4.515   0.608   6.574
 5707SOL    HW217496   4.428   0.730   6.639
 5708SOL     OW17497   4.031   0.063   6.204
 5708SOL    HW117498   4.020   0.157   6.237
 5708SOL    HW217499   4.026   0.000   6.281
 5709SOL     OW17500   5.346   0.367   5.960
 5709SOL    HW117501   5.348   0.291   6.024
 5709SOL    HW217502   5.298   0.444   6.000
 5710SOL     OW17503   4.747   0.766   6.552
 5710SOL    HW117504   4.762   0.787   6.648
 5710SOL    HW217505   4.717   0.671   6.543
 5711SOL     OW17506   4.704   1.573   7.286
 5711SOL    HW117507   4.684   1.617   7.198
 5711SOL    HW217508   4.743   1.482   7.270
 5712SOL     OW17509   4.074   0.898   7.390
 5712SOL    HW117510   4.150   0.942   7.438
 5712SOL    HW217511   4.109   0.851   7.308
 5713SOL     OW17512   5.027   0.838   5.628
 5713SOL    HW117513   5.061   0.745   5.643
 5713SOL    HW217514   5.045   0.865   5.533
 5714SOL     OW17515   4.792   1.333   6.435
 5714SOL    HW117516   4.799   1.249   6.380
 5714SOL    HW217517   4.854   1.402   6.399
 5715SOL     OW17518   4.043   0.810   6.535
 5715SOL    HW117519   4.136   0.846   6.540
 5715SOL    HW217520   4.037   0.725   6.587
 5716SOL     OW17521   4.063   0.509   6.592
 5716SOL    HW117522   4.011   0.426   6.575
 5716SOL    HW217523   4.140   0.514   6.528
 5717SOL     OW17524   4.862   0.380   7.264
 5717SOL    HW117525   4.817   0.443   7.328
 5717SOL    HW217526   4.955   0.411   7.247
 5718SOL     OW17527   4.884   0.207   7.063
 5718SOL    HW117528   4.884   0.271   7.140
 5718SOL    HW217529   4.912   0.255   6.980
 5719SOL     OW17530   3.732   1.326   5.786
 5719SOL    HW117531   3.639   1.347   5.755
 5719SOL    HW217532   3.742   1.227   5.799
 5720SOL     OW17533   3.812   1.801   6.513
 5720SOL    HW117534   3.770   1.715   6.486
 5720SOL    HW217535   3.906   1.804   6.479
 5721SOL     OW17536   4.228   1.568   6.496
 5721SOL    HW117537   4.294   1.642   6.505
 5721SOL    HW217538   4.272   1.489   6.454
 5722SOL     OW17539   4.726   0.796   6.824
 5722SOL    HW117540   4.767   0.764   6.910
 5722SOL    HW217541   4.630   0.769   6.821
 5723SOL     OW17542   3.764   0.544   6.700
 5723SOL    HW117543   3.849   0.511   6.659
 5723SOL    HW217544   3.777   0.559   6.798
 5724SOL     OW17545   3.913   0.520   7.308
 5724SOL    HW117546   3.972   0.480   7.238
 5724SOL    HW217547   3.855   0.591   7.267
 5725SOL     OW17548   5.093   0.950   7.246
 5725SOL    HW117549   5.132   1.039   7.266
 5725SOL    HW217550   5.103   0.930   7.149
 5726SOL     OW17551   4.539   0.572   5.911
 5726SOL    HW117552   4.546   0.483   5.865
 5726SOL    HW217553   4.445   0.606   5.903
 5727SOL     OW17554   3.976   1.564   7.330
 5727SOL    HW117555   3.946   1.621   7.406
 5727SOL    HW217556   3.969   1.467   7.356
 5728SOL     OW17557   4.395   0.464   6.855
 5728SOL    HW117558   4.361   0.375   6.825
 5728SOL    HW217559   4.421   0.518   6.775
 5729SOL     OW17560   4.654   1.678   7.051
 5729SOL    HW117561   4.630   1.660   6.956
 5729SOL    HW217562   4.684   1.772   7.061
 5730SOL     OW17563   4.197   0.500   5.777
 5730SOL    HW117564   4.258   0.580   5.781
 5730SOL    HW217565   4.102   0.531   5.784
 5731SOL     OW17566   3.883   1.137   7.052
 5731SOL    HW117567   3.905   1.076   7.128
 5731SOL    HW217568   3.893   1.088   6.966
 5732SOL     OW17569   5.071   1.059   6.820
 5732SOL    HW117570   5.095   0.996   6.746
 5732SOL    HW217571   4.981   1.099   6.802
 5733SOL     OW17572   5.026   0.855   5.895
 5733SOL    HW117573   4.940   0.824   5.937
 5733SOL    HW217574   5.022   0.841   5.796
 5734SOL     OW17575   4.976   1.731   6.714
 5734SOL    HW117576   5.060   1.736   6.660
 5734SOL    HW217577   4.953   1.635   6.732
 5735SOL     OW17578   3.807   1.258   6.608
 5735SOL    HW117579   3.802   1.257   6.708
 5735SOL    HW217580   3.724   1.217   6.570
 5736SOL     OW17581   4.412   1.662   7.302
 5736SOL    HW117582   4.356   1.743   7.311
 5736SOL    HW217583   4.464   1.666   7.216
 5737SOL     OW17584   5.112   1.573   6.063
 5737SOL    HW117585   5.179   1.585   5.989
 5737SOL    HW217586   5.072   1.662   6.086
 5738SOL     OW17587   3.854   1.794   7.437
 5738SOL    HW117588   3.813   1.720   7.490
 5738SOL    HW217589   3.918   1.845   7.495
 5739SOL     OW17590   5.004   0.927   6.258
 5739SOL    HW117591   5.064   0.846   6.260
 5739SOL    HW217592   5.044   0.996   6.198
 5740SOL     OW17593   4.554   1.273   7.008
 5740SOL    HW117594   4.549   1.306   7.103
 5740SOL    HW217595   4.468   1.292   6.962
 5741SOL     OW17596   4.396   1.616   5.740
 5741SOL    HW117597   4.405   1.626   5.641
 5741SOL    HW217598   4.356   1.527   5.761
 5742SOL     OW17599   3.987   0.326   6.306
 5742SOL    HW117600   3.908   0.377   6.272
 5742SOL    HW217601   3.978   0.311   6.404
 5743SOL     OW17602   4.918   1.612   5.617
 5743SOL    HW117603   4.924   1.519   5.654
 5743SOL    HW217604   4.859   1.612   5.537
 5744SOL     OW17605   4.546   1.002   6.958
 5744SOL    HW117606   4.586   1.001   6.866
 5744SOL    HW217607   4.556   1.094   6.998
 5745SOL     OW17608   4.640   0.910   5.877
 5745SOL    HW117609   4.703   0.948   5.809
 5745SOL    HW217610   4.680   0.827   5.916
 5746SOL     OW17611   4.096   1.288   7.076
 5746SOL    HW117612   4.083   1.381   7.042
 5746SOL    HW217613   4.012   1.236   7.063
 5747SOL     OW17614   4.763   1.098   6.282
 5747SOL    HW117615   4.693   1.051   6.336
 5747SOL    HW217616   4.822   1.030   6.239
 5748SOL     OW17617   4.738   0.236   6.557
 5748SOL    HW117618   4.730   0.200   6.464
 5748SOL    HW217619   4.736   0.160   6.622
 5749SOL     OW17620   4.314   1.487   6.077
 5749SOL    HW117621   4.356   1.429   6.007
 5749SOL    HW217622   4.270   1.566   6.033
 5750SOL     OW17623   3.979   1.348   5.876
 5750SOL    HW117624   3.883   1.349   5.849
 5750SOL    HW217625   3.991   1.401   5.960
 5751SOL     OW17626   3.829   1.013   7.312
 5751SOL    HW117627   3.752   0.980   7.366
 5751SOL    HW217628   3.914   0.983   7.354
 5752SOL     OW17629   4.396   0.203   7.075
 5752SOL    HW117630   4.486   0.187   7.035
 5752SOL    HW217631   4.404   0.208   7.174
 5753SOL     OW17632   3.799   0.345   5.619
 5753SOL    HW117633   3.707   0.317   5.590
 5753SOL    HW217634   3.830   0.422   5.563
 5754SOL     OW17635   5.164   0.856   6.984
 5754SOL    HW117636   5.107   0.908   6.921
 5754SOL    HW217637   5.260   0.868   6.960
 5755SOL     OW17638   3.796   0.166   5.904
 5755SOL    HW117639   3.779   0.249   5.850
 5755SOL    HW217640   3.886   0.129   5.882
 5756SOL     OW17641   4.907   1.335   5.705
 5756SOL    HW117642   4.808   1.324   5.707
 5756SOL    HW217643   4.941   1.350   5.798
 5757SOL     OW17644   4.337   0.842   7.017
 5757SOL    HW117645   4.393   0.923   7.000
 5757SOL    HW217646   4.396   0.762   7.020
 5758SOL     OW17647   4.440   0.565   7.294
 5758SOL    HW117648   4.459   0.630   7.368
 5758SOL    HW217649   4.500   0.485   7.303
 5759SOL     OW17650   5.174   1.220   7.219
 5759SOL    HW117651   5.165   1.210   7.318
 5759SOL    HW217652   5.270   1.213   7.193
 5760SOL     OW17653   4.114   1.741   7.146
 5760SOL    HW117654   4.023   1.782   7.144
 5760SOL    HW217655   4.107   1.647   7.178
 5761SOL     OW17656   4.949   0.325   6.035
 5761SOL    HW117657   5.014   0.251   6.024
 5761SOL    HW217658   4.969   0.375   6.119
 5762SOL     OW17659   4.318   0.745   6.238
 5762SOL    HW117660   4.368   0.830   6.219
 5762SOL    HW217661   4.230   0.747   6.190
 5763SOL     OW17662   4.583   1.374   5.602
 5763SOL    HW117663   4.537   1.389   5.690
 5763SOL    HW217664   4.627   1.459   5.572
 5764SOL     OW17665   4.385   1.790   6.539
 5764SOL    HW117666   4.339   1.878   6.526
 5764SOL    HW217667   4.484   1.802   6.532
 5765SOL     OW17668   4.583   0.956   6.447
 5765SOL    HW117669   4.637   0.887   6.495
 5765SOL    HW217670   4.551   1.025   6.513
 5766SOL     OW17671   4.807   0.984   5.673
 5766SOL    HW117672   4.784   1.037   5.591
 5766SOL    HW217673   4.888   0.928   5.654
 5767SOL     OW17674   3.945   1.314   7.430
 5767SOL    HW117675   3.880   1.241   7.409
 5767SOL    HW217676   3.949   1.328   7.528
 5768SOL     OW17677   3.803   1.240   6.239
 5768SOL    HW117678   3.802   1.193   6.327
 5768SOL    HW217679   3.885   1.212   6.188
 5769SOL     OW17680   4.396   1.391   7.210
 5769SOL    HW117681   4.318   1.341   7.248
 5769SOL    HW217682   4.393   1.486   7.241
 5770SOL     OW17683   4.152   0.424   6.106
 5770SOL    HW117684   4.182   0.352   6.044
 5770SOL    HW217685   4.113   0.384   6.189
 5771SOL     OW17686   5.429   1.487   6.690
 5771SOL    HW117687   5.336   1.462   6.663
 5771SOL    HW217688   5.455   1.437   6.772
 5772SOL     OW17689   4.041   0.547   6.866
 5772SOL    HW117690   4.079   0.488   6.938
 5772SOL    HW217691   4.081   0.521   6.778
 5773SOL     OW17692   4.536   1.586   6.273
 5773SOL    HW117693   4.568   1.596   6.179
 5773SOL    HW217694   4.457   1.524   6.275
 5774SOL     OW17695   5.148   0.214   6.698
 5774SOL    HW117696   5.200   0.149   6.753
 5774SOL    HW217697   5.099   0.277   6.759
 5775SOL     OW17698   4.725   0.034   6.740
 5775SOL    HW117699   4.662  -0.038   6.709
 5775SOL    HW217700   4.818  -0.002   6.740
 5776SOL     OW17701   4.494   1.330   5.887
 5776SOL    HW117702   4.448   1.243   5.904
 5776SOL    HW217703   4.585   1.327   5.928
 5777SOL     OW17704   4.342   1.567   6.870
 5777SOL    HW117705   4.337   1.649   6.927
 5777SOL    HW217706   4.431   1.564   6.825
 5778SOL     OW17707   5.076   0.052   5.754
 5778SOL    HW117708   5.111   0.011   5.670
 5778SOL    HW217709   4.986   0.014   5.774
 5779SOL     OW17710   5.024   0.453   6.277
 5779SOL    HW117711   4.965   0.533   6.281
 5779SOL    HW217712   5.039   0.418   6.370
 5780SOL     OW17713   5.317   0.221   6.468
 5780SOL    HW117714   5.233   0.220   6.522
 5780SOL    HW217715   5.319   0.304   6.412
 5781SOL     OW17716   3.763   1.077   5.886
 5781SOL    HW117717   3.862   1.066   5.877
 5781SOL    HW217718   3.723   0.991   5.918
 5782SOL     OW17719   4.599   1.646   5.923
 5782SOL    HW117720   4.522   1.611   5.869
 5782SOL    HW217721   4.567   1.717   5.985
 5783SOL     OW17722   3.954   0.628   7.561
 5783SOL    HW117723   3.861   0.626   7.598
 5783SOL    HW217724   3.955   0.589   7.469
 5784SOL     OW17725   3.955   1.713   7.931
 5784SOL    HW117726   3.989   1.790   7.985
 5784SOL    HW217727   3.999   1.713   7.841
 5785SOL     OW17728   3.954   1.434   7.986
 5785SOL    HW117729   3.928   1.530   7.986
 5785SOL    HW217730   3.883   1.380   8.031
 5786SOL     OW17731   4.330   0.964   7.571
 5786SOL    HW117732   4.337   1.048   7.517
 5786SOL    HW217733   4.376   0.977   7.659
 5787SOL     OW17734   3.751   1.596   7.565
 5787SOL    HW117735   3.732   1.500   7.586
 5787SOL    HW217736   3.718   1.654   7.640
 5788SOL     OW17737   5.413   0.922   8.060
 5788SOL    HW117738   5.508   0.893   8.068
 5788SOL    HW217739   5.405   0.987   7.985
 5789SOL     OW17740   4.533   0.004   7.950
 5789SOL    HW117741   4.573   0.095   7.941
 5789SOL    HW217742   4.433   0.012   7.956
 5790SOL     OW17743   4.322   0.729   7.718
 5790SOL    HW117744   4.346   0.798   7.650
 5790SOL    HW217745   4.244   0.762   7.772
 5791SOL     OW17746   3.800   0.811   8.237
 5791SOL    HW117747   3.899   0.799   8.246
 5791SOL    HW217748   3.776   0.906   8.258
 5792SOL     OW17749   4.589   0.348   7.643
 5792SOL    HW117750   4.648   0.411   7.594
 5792SOL    HW217751   4.608   0.254   7.614
 5793SOL     OW17752   4.045   0.943   7.690
 5793SOL    HW117753   4.127   0.982   7.648
 5793SOL    HW217754   4.018   0.861   7.641
 5794SOL     OW17755   4.835   1.776   7.685
 5794SOL    HW117756   4.775   1.714   7.735
 5794SOL    HW217757   4.866   1.732   7.600
 5795SOL     OW17758   4.188   1.743   7.771
 5795SOL    HW117759   4.221   1.782   7.857
 5795SOL    HW217760   4.264   1.736   7.706
 5796SOL     OW17761   5.124   0.107   7.874
 5796SOL    HW117762   5.100   0.070   7.784
 5796SOL    HW217763   5.223   0.123   7.878
 5797SOL     OW17764   4.106   0.700   7.928
 5797SOL    HW117765   4.151   0.610   7.925
 5797SOL    HW217766   4.012   0.689   7.961
 5798SOL     OW17767   4.338   0.122   7.565
 5798SOL    HW117768   4.436   0.100   7.572
 5798SOL    HW217769   4.307   0.105   7.472
 5799SOL     OW17770   4.263   0.064   7.960
 5799SOL    HW117771   4.182   0.065   8.018
 5799SOL    HW217772   4.266   0.147   7.905
 5800SOL     OW17773   5.158   1.188   7.489
 5800SOL    HW117774   5.190   1.112   7.546
 5800SOL    HW217775   5.066   1.215   7.519
 5801SOL     OW17776   4.021   0.035   7.619
 5801SOL    HW117777   4.070   0.119   7.598
 5801SOL    HW217778   4.083  -0.030   7.664
 5802SOL     OW17779   4.659   0.236   7.928
 5802SOL    HW117780   4.611   0.277   7.850
 5802SOL    HW217781   4.758   0.234   7.909
 5803SOL     OW17782   4.183   1.152   8.189
 5803SOL    HW117783   4.112   1.125   8.254
 5803SOL    HW217784   4.157   1.124   8.096
 5804SOL     OW17785   4.995   1.797   8.039
 5804SOL    HW117786   5.039   1.861   7.975
 5804SOL    HW217787   4.945   1.849   8.109
 5805SOL     OW17788   4.756   0.549   7.464
 5805SOL    HW117789   4.715   0.631   7.425
 5805SOL    HW217790   4.820   0.575   7.537
 5806SOL     OW17791   4.212   1.385   7.622
 5806SOL    HW117792   4.125   1.370   7.669
 5806SOL    HW217793   4.195   1.411   7.527
 5807SOL     OW17794   5.114   0.575   7.526
 5807SOL    HW117795   5.060   0.554   7.607
 5807SOL    HW217796   5.205   0.534   7.535
 5808SOL     OW17797   4.251   0.256   7.776
 5808SOL    HW117798   4.278   0.197   7.701
 5808SOL    HW217799   4.251   0.351   7.745
 5809SOL     OW17800   4.429   1.050   7.816
 5809SOL    HW117801   4.415   1.057   7.915
 5809SOL    HW217802   4.513   0.999   7.798
 5810SOL     OW17803   4.091   1.100   7.949
 5810SOL    HW117804   4.084   1.183   7.893
 5810SOL    HW217805   4.095   1.020   7.889
 5811SOL     OW17806   4.976   1.348   7.836
 5811SOL    HW117807   5.026   1.425   7.876
 5811SOL    HW217808   4.881   1.350   7.868
 5812SOL     OW17809   5.306   0.639   7.920
 5812SOL    HW117810   5.275   0.700   7.993
 5812SOL    HW217811   5.356   0.691   7.851
 5813SOL     OW17812   4.933   0.525   7.723
 5813SOL    HW117813   4.946   0.441   7.777
 5813SOL    HW217814   4.904   0.599   7.783
 5814SOL     OW17815   5.346   0.367   7.822
 5814SOL    HW117816   5.348   0.291   7.886
 5814SOL    HW217817   5.298   0.444   7.862
 5815SOL     OW17818   5.027   0.838   7.490
 5815SOL    HW117819   5.061   0.745   7.505
 5815SOL    HW217820   5.045   0.865   7.395
 5816SOL     OW17821   3.732   1.326   7.648
 5816SOL    HW117822   3.639   1.347   7.617
 5816SOL    HW217823   3.742   1.227   7.661
 5817SOL     OW17824   4.539   0.572   7.773
 5817SOL    HW117825   4.546   0.483   7.727
 5817SOL    HW217826   4.445   0.606   7.765
 5818SOL     OW17827   4.197   0.500   7.639
 5818SOL    HW117828   4.258   0.580   7.643
 5818SOL    HW217829   4.102   0.531   7.646
 5819SOL     OW17830   5.026   0.855   7.757
 5819SOL    HW117831   4.940   0.824   7.799
 5819SOL    HW217832   5.022   0.841   7.658
 5820SOL     OW17833   5.112   1.573   7.925
 5820SOL    HW117834   5.179   1.585   7.851
 5820SOL    HW217835   5.072   1.662   7.948
 5821SOL     OW17836   4.396   1.616   7.602
 5821SOL    HW117837   4.405   1.626   7.503
 5821SOL    HW217838   4.356   1.527   7.623
 5822SOL     OW17839   4.918   1.612   7.479
 5822SOL    HW117840   4.924   1.519   7.516
 5822SOL    HW217841   4.859   1.612   7.399
 5823SOL     OW17842   4.640   0.910   7.739
 5823SOL    HW117843   4.703   0.948   7.671
 5823SOL    HW217844   4.680   0.827   7.778
 5824SOL     OW17845   4.314   1.487   7.939
 5824SOL    HW117846   4.356   1.429   7.869
 5824SOL    HW217847   4.270   1.566   7.895
 5825SOL     OW17848   3.979   1.348   7.738
 5825SOL    HW117849   3.883   1.349   7.711
 5825SOL    HW217850   3.991   1.401   7.822
 5826SOL     OW17851   3.799   0.345   7.481
 5826SOL    HW117852   3.707   0.317   7.452
 5826SOL    HW217853   3.830   0.422   7.425
 5827SOL     OW17854   3.796   0.166   7.766
 5827SOL    HW117855   3.779   0.249   7.712
 5827SOL    HW217856   3.886   0.129   7.744
 5828SOL     OW17857   4.907   1.335   7.567
 5828SOL    HW117858   4.808   1.324   7.569
 5828SOL    HW217859   4.941   1.350   7.660
 5829SOL     OW17860   5.217   1.767   8.407
 5829SOL    HW117861   5.250   1.831   8.338
 5829SOL    HW217862   5.283   1.761   8.482
 5830SOL     OW17863   4.949   0.325   7.897
 5830SOL    HW117864   5.014   0.251   7.886
 5830SOL    HW217865   4.969   0.375   7.981
 5831SOL     OW17866   4.318   0.745   8.100
 5831SOL    HW117867   4.368   0.830   8.081
 5831SOL    HW217868   4.230   0.747   8.052
 5832SOL     OW17869   4.583   1.374   7.464
 5832SOL    HW117870   4.537   1.389   7.552
 5832SOL    HW217871   4.627   1.459   7.434
 5833SOL     OW17872   4.807   0.984   7.535
 5833SOL    HW117873   4.784   1.037   7.453
 5833SOL    HW217874   4.888   0.928   7.516
 5834SOL     OW17875   4.152   0.424   7.968
 5834SOL    HW117876   4.182   0.352   7.906
 5834SOL    HW217877   4.113   0.384   8.051
 5835SOL     OW17878   4.494   1.330   7.749
 5835SOL    HW117879   4.448   1.243   7.766
 5835SOL    HW217880   4.585   1.327   7.790
 5836SOL     OW17881   5.076   0.052   7.616
 5836SOL    HW117882   5.111   0.011   7.532
 5836SOL    HW217883   4.986   0.014   7.636
 5837SOL     OW17884   3.763   1.077   7.748
 5837SOL    HW117885   3.862   1.066   7.739
 5837SOL    HW217886   3.723   0.991   7.780
 5838SOL     OW17887   4.599   1.646   7.785
 5838SOL    HW117888   4.522   1.611   7.731
 5838SOL    HW217889   4.567   1.717   7.847
 5839SOL     OW17890   3.954   2.490   0.113
 5839SOL    HW117891   3.861   2.488   0.150
 5839SOL    HW217892   3.955   2.451   0.021
 5840SOL     OW17893   3.949   2.137   0.996
 5840SOL    HW117894   3.984   2.120   1.088
 5840SOL    HW217895   3.861   2.092   0.984
 5841SOL     OW17896   3.743   2.230   0.647
 5841SOL    HW117897   3.661   2.273   0.686
 5841SOL    HW217898   3.715   2.157   0.584
 5842SOL     OW17899   4.293   3.137   1.165
 5842SOL    HW117900   4.200   3.130   1.128
 5842SOL    HW217901   4.304   3.226   1.209
 5843SOL     OW17902   5.279   3.373   0.703
 5843SOL    HW117903   5.222   3.357   0.784
 5843SOL    HW217904   5.220   3.383   0.623
 5844SOL     OW17905   4.859   2.565   0.717
 5844SOL    HW117906   4.916   2.643   0.692
 5844SOL    HW217907   4.799   2.591   0.793
 5845SOL     OW17908   4.492   3.006   1.023
 5845SOL    HW117909   4.414   3.023   1.083
 5845SOL    HW217910   4.526   3.093   0.987
 5846SOL     OW17911   4.574   2.660   1.823
 5846SOL    HW117912   4.570   2.736   1.888
 5846SOL    HW217913   4.596   2.696   1.732
 5847SOL     OW17914   4.409   2.874   0.665
 5847SOL    HW117915   4.478   2.858   0.735
 5847SOL    HW217916   4.336   2.931   0.703
 5848SOL     OW17917   4.410   3.023   1.803
 5848SOL    HW117918   4.470   3.102   1.817
 5848SOL    HW217919   4.324   3.054   1.762
 5849SOL     OW17920   4.059   3.297   1.061
 5849SOL    HW117921   3.981   3.266   1.008
 5849SOL    HW217922   4.117   3.355   1.004
 5850SOL     OW17923   5.184   3.367   1.339
 5850SOL    HW117924   5.208   3.461   1.365
 5850SOL    HW217925   5.168   3.313   1.421
 5851SOL     OW17926   4.162   2.254   1.499
 5851SOL    HW117927   4.244   2.198   1.508
 5851SOL    HW217928   4.081   2.196   1.503
 5852SOL     OW17929   3.955   3.575   0.483
 5852SOL    HW117930   3.989   3.652   0.537
 5852SOL    HW217931   3.999   3.575   0.393
 5853SOL     OW17932   4.851   3.203   1.690
 5853SOL    HW117933   4.898   3.203   1.778
 5853SOL    HW217934   4.803   3.116   1.679
 5854SOL     OW17935   3.954   3.296   0.538
 5854SOL    HW117936   3.928   3.392   0.538
 5854SOL    HW217937   3.883   3.242   0.583
 5855SOL     OW17938   3.964   2.953   0.886
 5855SOL    HW117939   3.978   2.869   0.938
 5855SOL    HW217940   3.909   3.017   0.941
 5856SOL     OW17941   4.344   3.648   1.439
 5856SOL    HW117942   4.252   3.631   1.474
 5856SOL    HW217943   4.372   3.740   1.465
 5857SOL     OW17944   4.330   2.826   0.123
 5857SOL    HW117945   4.337   2.910   0.069
 5857SOL    HW217946   4.376   2.839   0.211
 5858SOL     OW17947   3.846   2.505   0.563
 5858SOL    HW117948   3.801   2.417   0.580
 5858SOL    HW217949   3.845   2.559   0.647
 5859SOL     OW17950   3.751   3.458   0.117
 5859SOL    HW117951   3.732   3.362   0.138
 5859SOL    HW217952   3.718   3.516   0.192
 5860SOL     OW17953   5.413   2.784   0.612
 5860SOL    HW117954   5.508   2.755   0.620
 5860SOL    HW217955   5.405   2.849   0.537
 5861SOL     OW17956   3.837   2.599   1.597
 5861SOL    HW117957   3.925   2.586   1.642
 5861SOL    HW217958   3.824   2.696   1.575
 5862SOL     OW17959   4.337   3.227   0.726
 5862SOL    HW117960   4.288   3.140   0.735
 5862SOL    HW217961   4.314   3.270   0.639
 5863SOL     OW17962   5.017   3.090   1.423
 5863SOL    HW117963   5.054   3.017   1.365
 5863SOL    HW217964   5.069   3.095   1.508
 5864SOL     OW17965   4.533   1.866   0.502
 5864SOL    HW117966   4.573   1.957   0.493
 5864SOL    HW217967   4.433   1.874   0.508
 5865SOL     OW17968   3.921   2.838   1.264
 5865SOL    HW117969   4.010   2.793   1.250
 5865SOL    HW217970   3.848   2.773   1.245
 5866SOL     OW17971   4.911   3.654   1.616
 5866SOL    HW117972   4.935   3.714   1.540
 5866SOL    HW217973   4.918   3.559   1.586
 5867SOL     OW17974   4.041   2.113   1.801
 5867SOL    HW117975   4.112   2.184   1.807
 5867SOL    HW217976   3.953   2.152   1.829
 5868SOL     OW17977   5.190   3.279   0.953
 5868SOL    HW117978   5.131   3.285   1.033
 5868SOL    HW217979   5.175   3.191   0.907
 5869SOL     OW17980   4.322   2.591   0.270
 5869SOL    HW117981   4.346   2.660   0.202
 5869SOL    HW217982   4.244   2.624   0.324
 5870SOL     OW17983   5.005   2.207   0.944
 5870SOL    HW117984   4.919   2.157   0.931
 5870SOL    HW217985   5.067   2.153   1.000
 5871SOL     OW17986   4.531   2.467   1.465
 5871SOL    HW117987   4.484   2.464   1.554
 5871SOL    HW217988   4.480   2.412   1.399
 5872SOL     OW17989   5.118   2.331   1.674
 5872SOL    HW117990   5.098   2.374   1.762
 5872SOL    HW217991   5.196   2.269   1.683
 5873SOL     OW17992   4.697   2.752   1.572
 5873SOL    HW117993   4.743   2.668   1.543
 5873SOL    HW217994   4.641   2.786   1.497
 5874SOL     OW17995   4.715   2.272   1.242
 5874SOL    HW117996   4.638   2.306   1.296
 5874SOL    HW217997   4.681   2.221   1.163
 5875SOL     OW17998   4.765   2.563   0.429
 5875SOL    HW117999   4.791   2.559   0.525
 5875SOL    HW218000   4.680   2.512   0.415
 5876SOL     OW18001   3.800   2.673   0.789
 5876SOL    HW118002   3.899   2.661   0.798
 5876SOL    HW218003   3.776   2.768   0.810
 5877SOL     OW18004   3.854   3.683   1.571
 5877SOL    HW118005   3.844   3.668   1.670
 5877SOL    HW218006   3.768   3.719   1.535
 5878SOL     OW18007   4.589   2.210   0.195
 5878SOL    HW118008   4.648   2.273   0.146
 5878SOL    HW218009   4.608   2.116   0.166
 5879SOL     OW18010   5.086   3.006   0.545
 5879SOL    HW118011   5.169   2.977   0.497
 5879SOL    HW218012   5.037   3.073   0.489
 5880SOL     OW18013   4.274   2.058   0.885
 5880SOL    HW118014   4.269   2.053   0.985
 5880SOL    HW218015   4.276   2.154   0.856
 5881SOL     OW18016   4.732   3.318   0.477
 5881SOL    HW118017   4.686   3.390   0.425
 5881SOL    HW218018   4.728   3.338   0.575
 5882SOL     OW18019   4.075   3.663   0.853
 5882SOL    HW118020   4.125   3.577   0.859
 5882SOL    HW218021   4.140   3.740   0.850
 5883SOL     OW18022   4.951   3.412   1.506
 5883SOL    HW118023   4.957   3.335   1.570
 5883SOL    HW218024   4.899   3.386   1.426
 5884SOL     OW18025   4.045   2.805   0.242
 5884SOL    HW118026   4.127   2.844   0.200
 5884SOL    HW218027   4.018   2.723   0.193
 5885SOL     OW18028   4.185   3.128   1.727
 5885SOL    HW118029   4.135   3.129   1.641
 5885SOL    HW218030   4.122   3.110   1.803
 5886SOL     OW18031   4.835   3.638   0.237
 5886SOL    HW118032   4.775   3.576   0.287
 5886SOL    HW218033   4.866   3.594   0.152
 5887SOL     OW18034   3.926   2.147   1.498
 5887SOL    HW118035   3.846   2.207   1.485
 5887SOL    HW218036   3.916   2.098   1.584
 5888SOL     OW18037   4.188   3.605   0.323
 5888SOL    HW118038   4.221   3.644   0.409
 5888SOL    HW218039   4.264   3.598   0.258
 5889SOL     OW18040   5.124   1.969   0.426
 5889SOL    HW118041   5.100   1.932   0.336
 5889SOL    HW218042   5.223   1.985   0.430
 5890SOL     OW18043   3.973   3.647   1.241
 5890SOL    HW118044   4.030   3.582   1.291
 5890SOL    HW218045   3.957   3.614   1.148
 5891SOL     OW18046   4.664   3.560   0.904
 5891SOL    HW118047   4.744   3.503   0.925
 5891SOL    HW218048   4.615   3.520   0.827
 5892SOL     OW18049   4.106   2.562   0.480
 5892SOL    HW118050   4.151   2.472   0.477
 5892SOL    HW218051   4.012   2.551   0.513
 5893SOL     OW18052   4.338   1.984   0.117
 5893SOL    HW118053   4.436   1.962   0.124
 5893SOL    HW218054   4.307   1.967   0.024
 5894SOL     OW18055   4.505   2.126   1.749
 5894SOL    HW118056   4.572   2.065   1.792
 5894SOL    HW218057   4.432   2.145   1.814
 5895SOL     OW18058   4.612   3.376   1.195
 5895SOL    HW118059   4.589   3.351   1.101
 5895SOL    HW218060   4.673   3.307   1.234
 5896SOL     OW18061   5.075   2.452   1.433
 5896SOL    HW118062   5.103   2.409   1.518
 5896SOL    HW218063   5.100   2.548   1.434
 5897SOL     OW18064   4.527   3.264   0.924
 5897SOL    HW118065   4.617   3.278   0.882
 5897SOL    HW218066   4.456   3.266   0.853
 5898SOL     OW18067   4.646   2.365   0.899
 5898SOL    HW118068   4.621   2.356   0.803
 5898SOL    HW218069   4.694   2.283   0.930
 5899SOL     OW18070   4.263   1.926   0.512
 5899SOL    HW118071   4.182   1.927   0.570
 5899SOL    HW218072   4.266   2.009   0.457
 5900SOL     OW18073   5.158   3.050   0.041
 5900SOL    HW118074   5.190   2.974   0.098
 5900SOL    HW218075   5.066   3.077   0.071
 5901SOL     OW18076   4.021   1.897   0.171
 5901SOL    HW118077   4.070   1.981   0.150
 5901SOL    HW218078   4.083   1.832   0.216
 5902SOL     OW18079   4.659   2.098   0.480
 5902SOL    HW118080   4.611   2.139   0.402
 5902SOL    HW218081   4.758   2.096   0.461
 5903SOL     OW18082   4.800   2.545   1.464
 5903SOL    HW118083   4.720   2.484   1.467
 5903SOL    HW218084   4.881   2.492   1.440
 5904SOL     OW18085   4.951   3.432   0.793
 5904SOL    HW118086   4.972   3.506   0.728
 5904SOL    HW218087   5.019   3.432   0.866
 5905SOL     OW18088   4.183   3.014   0.741
 5905SOL    HW118089   4.112   2.987   0.806
 5905SOL    HW218090   4.157   2.986   0.648
 5906SOL     OW18091   4.995   3.659   0.591
 5906SOL    HW118092   5.039   3.723   0.527
 5906SOL    HW218093   4.945   3.711   0.661
 5907SOL     OW18094   4.756   2.411   0.016
 5907SOL    HW118095   4.715   2.493  -0.023
 5907SOL    HW218096   4.820   2.437   0.089
 5908SOL     OW18097   3.802   2.418   1.386
 5908SOL    HW118098   3.894   2.417   1.345
 5908SOL    HW218099   3.796   2.492   1.453
 5909SOL     OW18100   4.285   2.084   1.147
 5909SOL    HW118101   4.323   2.000   1.184
 5909SOL    HW218102   4.197   2.103   1.191
 5910SOL     OW18103   4.590   2.316   0.642
 5910SOL    HW118104   4.558   2.388   0.580
 5910SOL    HW218105   4.614   2.235   0.589
 5911SOL     OW18106   4.741   1.901   0.753
 5911SOL    HW118107   4.669   1.906   0.684
 5911SOL    HW218108   4.717   1.832   0.822
 5912SOL     OW18109   5.153   3.035   0.867
 5912SOL    HW118110   5.098   2.951   0.860
 5912SOL    HW218111   5.179   3.064   0.775
 5913SOL     OW18112   4.212   3.247   0.174
 5913SOL    HW118113   4.125   3.232   0.221
 5913SOL    HW218114   4.195   3.273   0.079
 5914SOL     OW18115   5.114   2.437   0.078
 5914SOL    HW118116   5.060   2.416   0.159
 5914SOL    HW218117   5.205   2.396   0.087
 5915SOL     OW18118   4.251   2.118   0.328
 5915SOL    HW118119   4.278   2.059   0.253
 5915SOL    HW218120   4.251   2.213   0.297
 5916SOL     OW18121   4.788   3.209   1.340
 5916SOL    HW118122   4.708   3.186   1.395
 5916SOL    HW218123   4.871   3.183   1.389
 5917SOL     OW18124   5.316   3.491   1.625
 5917SOL    HW118125   5.343   3.525   1.535
 5917SOL    HW218126   5.395   3.453   1.671
 5918SOL     OW18127   4.835   3.057   1.100
 5918SOL    HW118128   4.795   3.101   1.181
 5918SOL    HW218129   4.794   3.094   1.017
 5919SOL     OW18130   4.639   1.951   1.402
 5919SOL    HW118131   4.664   1.931   1.307
 5919SOL    HW218132   4.711   2.007   1.444
 5920SOL     OW18133   4.704   2.978   1.719
 5920SOL    HW118134   4.605   2.984   1.729
 5920SOL    HW218135   4.727   2.898   1.663
 5921SOL     OW18136   4.429   2.912   0.368
 5921SOL    HW118137   4.415   2.919   0.467
 5921SOL    HW218138   4.513   2.861   0.350
 5922SOL     OW18139   4.134   2.675   1.251
 5922SOL    HW118140   4.220   2.687   1.301
 5922SOL    HW218141   4.092   2.588   1.278
 5923SOL     OW18142   4.998   2.248   1.262
 5923SOL    HW118143   5.019   2.322   1.326
 5923SOL    HW218144   4.909   2.265   1.219
 5924SOL     OW18145   3.788   3.426   1.331
 5924SOL    HW118146   3.742   3.508   1.297
 5924SOL    HW218147   3.886   3.445   1.340
 5925SOL     OW18148   4.091   2.962   0.501
 5925SOL    HW118149   4.084   3.045   0.445
 5925SOL    HW218150   4.095   2.882   0.441
 5926SOL     OW18151   4.290   2.399   0.865
 5926SOL    HW118152   4.302   2.465   0.791
 5926SOL    HW218153   4.336   2.433   0.948
 5927SOL     OW18154   4.976   3.210   0.388
 5927SOL    HW118155   5.026   3.287   0.428
 5927SOL    HW218156   4.881   3.212   0.420
 5928SOL     OW18157   4.996   3.307   1.142
 5928SOL    HW118158   5.043   3.320   1.229
 5928SOL    HW218159   4.930   3.233   1.151
 5929SOL     OW18160   4.078   3.372   1.329
 5929SOL    HW118161   4.057   3.328   1.242
 5929SOL    HW218162   4.175   3.398   1.332
 5930SOL     OW18163   4.126   2.613   1.598
 5930SOL    HW118164   4.194   2.668   1.551
 5930SOL    HW218165   4.166   2.525   1.625
 5931SOL     OW18166   4.737   1.967   1.770
 5931SOL    HW118167   4.743   2.052   1.718
 5931SOL    HW218168   4.769   1.891   1.713
 5932SOL     OW18169   4.228   1.912   1.740
 5932SOL    HW118170   4.186   1.855   1.670
 5932SOL    HW218171   4.162   1.981   1.772
 5933SOL     OW18172   4.297   2.732   1.029
 5933SOL    HW118173   4.341   2.821   1.020
 5933SOL    HW218174   4.234   2.732   1.106
 5934SOL     OW18175   5.084   2.724   1.045
 5934SOL    HW118176   5.009   2.724   0.979
 5934SOL    HW218177   5.121   2.632   1.054
 5935SOL     OW18178   4.933   2.387   0.275
 5935SOL    HW118179   4.946   2.303   0.329
 5935SOL    HW218180   4.904   2.461   0.335
 5936SOL     OW18181   4.031   2.075   1.231
 5936SOL    HW118182   4.008   2.112   1.321
 5936SOL    HW218183   4.001   1.980   1.225
 5937SOL     OW18184   3.761   3.172   1.282
 5937SOL    HW118185   3.814   3.123   1.350
 5937SOL    HW218186   3.783   3.270   1.287
 5938SOL     OW18187   4.456   2.496   1.064
 5938SOL    HW118188   4.515   2.470   0.988
 5938SOL    HW218189   4.428   2.592   1.053
 5939SOL     OW18190   4.031   1.925   0.618
 5939SOL    HW118191   4.020   2.019   0.651
 5939SOL    HW218192   4.026   1.862   0.695
 5940SOL     OW18193   5.346   2.229   0.374
 5940SOL    HW118194   5.348   2.153   0.438
 5940SOL    HW218195   5.298   2.306   0.414
 5941SOL     OW18196   4.747   2.628   0.966
 5941SOL    HW118197   4.762   2.649   1.062
 5941SOL    HW218198   4.717   2.533   0.957
 5942SOL     OW18199   4.704   3.435   1.700
 5942SOL    HW118200   4.684   3.479   1.612
 5942SOL    HW218201   4.743   3.344   1.684
 5943SOL     OW18202   4.074   2.760   1.804
 5943SOL    HW118203   4.150   2.804   1.852
 5943SOL    HW218204   4.109   2.713   1.722
 5944SOL     OW18205   5.027   2.700   0.042
 5944SOL    HW118206   5.061   2.607   0.057
 5944SOL    HW218207   5.045   2.727  -0.053
 5945SOL     OW18208   4.792   3.195   0.849
 5945SOL    HW118209   4.799   3.111   0.794
 5945SOL    HW218210   4.854   3.264   0.813
 5946SOL     OW18211   4.043   2.672   0.949
 5946SOL    HW118212   4.136   2.708   0.954
 5946SOL    HW218213   4.037   2.587   1.001
 5947SOL     OW18214   4.063   2.371   1.006
 5947SOL    HW118215   4.011   2.288   0.989
 5947SOL    HW218216   4.140   2.376   0.942
 5948SOL     OW18217   4.862   2.242   1.678
 5948SOL    HW118218   4.817   2.305   1.742
 5948SOL    HW218219   4.955   2.273   1.661
 5949SOL     OW18220   4.884   2.069   1.477
 5949SOL    HW118221   4.884   2.133   1.554
 5949SOL    HW218222   4.912   2.117   1.394
 5950SOL     OW18223   3.732   3.188   0.200
 5950SOL    HW118224   3.639   3.209   0.169
 5950SOL    HW218225   3.742   3.089   0.213
 5951SOL     OW18226   3.812   3.663   0.927
 5951SOL    HW118227   3.770   3.577   0.900
 5951SOL    HW218228   3.906   3.666   0.893
 5952SOL     OW18229   4.228   3.430   0.910
 5952SOL    HW118230   4.294   3.504   0.919
 5952SOL    HW218231   4.272   3.351   0.868
 5953SOL     OW18232   4.726   2.658   1.238
 5953SOL    HW118233   4.767   2.626   1.324
 5953SOL    HW218234   4.630   2.631   1.235
 5954SOL     OW18235   3.764   2.406   1.114
 5954SOL    HW118236   3.849   2.373   1.073
 5954SOL    HW218237   3.777   2.421   1.212
 5955SOL     OW18238   3.913   2.382   1.722
 5955SOL    HW118239   3.972   2.342   1.652
 5955SOL    HW218240   3.855   2.453   1.681
 5956SOL     OW18241   5.093   2.812   1.660
 5956SOL    HW118242   5.132   2.901   1.680
 5956SOL    HW218243   5.103   2.792   1.563
 5957SOL     OW18244   4.539   2.434   0.325
 5957SOL    HW118245   4.546   2.345   0.279
 5957SOL    HW218246   4.445   2.468   0.317
 5958SOL     OW18247   3.976   3.426   1.744
 5958SOL    HW118248   3.946   3.483   1.820
 5958SOL    HW218249   3.969   3.329   1.770
 5959SOL     OW18250   4.395   2.326   1.269
 5959SOL    HW118251   4.361   2.237   1.239
 5959SOL    HW218252   4.421   2.380   1.189
 5960SOL     OW18253   4.654   3.540   1.465
 5960SOL    HW118254   4.630   3.522   1.370
 5960SOL    HW218255   4.684   3.634   1.475
 5961SOL     OW18256   4.197   2.362   0.191
 5961SOL    HW118257   4.258   2.442   0.195
 5961SOL    HW218258   4.102   2.393   0.198
 5962SOL     OW18259   3.883   2.999   1.466
 5962SOL    HW118260   3.905   2.938   1.542
 5962SOL    HW218261   3.893   2.950   1.380
 5963SOL     OW18262   5.071   2.921   1.234
 5963SOL    HW118263   5.095   2.858   1.160
 5963SOL    HW218264   4.981   2.961   1.216
 5964SOL     OW18265   5.026   2.717   0.309
 5964SOL    HW118266   4.940   2.686   0.351
 5964SOL    HW218267   5.022   2.703   0.210
 5965SOL     OW18268   4.976   3.593   1.128
 5965SOL    HW118269   5.060   3.598   1.074
 5965SOL    HW218270   4.953   3.497   1.146
 5966SOL     OW18271   3.807   3.120   1.022
 5966SOL    HW118272   3.802   3.119   1.122
 5966SOL    HW218273   3.724   3.079   0.984
 5967SOL     OW18274   4.412   3.524   1.716
 5967SOL    HW118275   4.356   3.605   1.725
 5967SOL    HW218276   4.464   3.528   1.630
 5968SOL     OW18277   4.627   1.948   0.133
 5968SOL    HW118278   4.678   1.949   0.047
 5968SOL    HW218279   4.683   1.906   0.204
 5969SOL     OW18280   5.450   1.997   0.523
 5969SOL    HW118281   5.523   1.980   0.456
 5969SOL    HW218282   5.419   1.910   0.561
 5970SOL     OW18283   5.112   3.435   0.477
 5970SOL    HW118284   5.179   3.447   0.403
 5970SOL    HW218285   5.072   3.524   0.500
 5971SOL     OW18286   3.854   3.656   1.851
 5971SOL    HW118287   3.813   3.582   1.904
 5971SOL    HW218288   3.918   3.707   1.909
 5972SOL     OW18289   5.004   2.789   0.672
 5972SOL    HW118290   5.064   2.708   0.674
 5972SOL    HW218291   5.044   2.858   0.612
 5973SOL     OW18292   4.554   3.135   1.422
 5973SOL    HW118293   4.549   3.168   1.517
 5973SOL    HW218294   4.468   3.154   1.376
 5974SOL     OW18295   4.396   3.478   0.154
 5974SOL    HW118296   4.405   3.488   0.055
 5974SOL    HW218297   4.356   3.389   0.175
 5975SOL     OW18298   3.987   2.188   0.720
 5975SOL    HW118299   3.908   2.239   0.686
 5975SOL    HW218300   3.978   2.173   0.818
 5976SOL     OW18301   4.918   3.474   0.031
 5976SOL    HW118302   4.924   3.381   0.068
 5976SOL    HW218303   4.859   3.474  -0.049
 5977SOL     OW18304   4.546   2.864   1.372
 5977SOL    HW118305   4.586   2.863   1.280
 5977SOL    HW218306   4.556   2.956   1.412
 5978SOL     OW18307   4.640   2.772   0.291
 5978SOL    HW118308   4.703   2.810   0.223
 5978SOL    HW218309   4.680   2.689   0.330
 5979SOL     OW18310   4.096   3.150   1.490
 5979SOL    HW118311   4.083   3.243   1.456
 5979SOL    HW218312   4.012   3.098   1.477
 5980SOL     OW18313   4.763   2.960   0.696
 5980SOL    HW118314   4.693   2.913   0.750
 5980SOL    HW218315   4.822   2.892   0.653
 5981SOL     OW18316   4.738   2.098   0.971
 5981SOL    HW118317   4.730   2.062   0.878
 5981SOL    HW218318   4.736   2.022   1.036
 5982SOL     OW18319   4.314   3.349   0.491
 5982SOL    HW118320   4.356   3.291   0.421
 5982SOL    HW218321   4.270   3.428   0.447
 5983SOL     OW18322   3.979   3.210   0.290
 5983SOL    HW118323   3.883   3.211   0.263
 5983SOL    HW218324   3.991   3.263   0.374
 5984SOL     OW18325   3.829   2.875   1.726
 5984SOL    HW118326   3.752   2.842   1.780
 5984SOL    HW218327   3.914   2.845   1.768
 5985SOL     OW18328   4.396   2.065   1.489
 5985SOL    HW118329   4.486   2.049   1.449
 5985SOL    HW218330   4.404   2.070   1.588
 5986SOL     OW18331   3.799   2.207   0.033
 5986SOL    HW118332   3.707   2.179   0.004
 5986SOL    HW218333   3.830   2.284  -0.023
 5987SOL     OW18334   5.164   2.718   1.398
 5987SOL    HW118335   5.107   2.770   1.335
 5987SOL    HW218336   5.260   2.730   1.374
 5988SOL     OW18337   3.796   2.028   0.318
 5988SOL    HW118338   3.779   2.111   0.264
 5988SOL    HW218339   3.886   1.991   0.296
 5989SOL     OW18340   4.907   3.197   0.119
 5989SOL    HW118341   4.808   3.186   0.121
 5989SOL    HW218342   4.941   3.212   0.212
 5990SOL     OW18343   4.337   2.704   1.431
 5990SOL    HW118344   4.393   2.785   1.414
 5990SOL    HW218345   4.396   2.624   1.434
 5991SOL     OW18346   4.440   2.427   1.708
 5991SOL    HW118347   4.459   2.492   1.782
 5991SOL    HW218348   4.500   2.347   1.717
 5992SOL     OW18349   5.174   3.082   1.633
 5992SOL    HW118350   5.165   3.072   1.732
 5992SOL    HW218351   5.270   3.075   1.607
 5993SOL     OW18352   4.114   3.603   1.560
 5993SOL    HW118353   4.023   3.644   1.558
 5993SOL    HW218354   4.107   3.509   1.592
 5994SOL     OW18355   4.949   2.187   0.449
 5994SOL    HW118356   5.014   2.113   0.438
 5994SOL    HW218357   4.969   2.237   0.533
 5995SOL     OW18358   4.318   2.607   0.652
 5995SOL    HW118359   4.368   2.692   0.633
 5995SOL    HW218360   4.230   2.609   0.604
 5996SOL     OW18361   4.583   3.236   0.016
 5996SOL    HW118362   4.537   3.251   0.104
 5996SOL    HW218363   4.627   3.321  -0.014
 5997SOL     OW18364   4.385   3.652   0.953
 5997SOL    HW118365   4.339   3.740   0.940
 5997SOL    HW218366   4.484   3.664   0.946
 5998SOL     OW18367   4.583   2.818   0.861
 5998SOL    HW118368   4.637   2.749   0.909
 5998SOL    HW218369   4.551   2.887   0.927
 5999SOL     OW18370   4.807   2.846   0.087
 5999SOL    HW118371   4.784   2.899   0.005
 5999SOL    HW218372   4.888   2.790   0.068
 6000SOL     OW18373   3.945   3.176   1.844
 6000SOL    HW118374   3.880   3.103   1.823
 6000SOL    HW218375   3.949   3.190   1.942
 6001SOL     OW18376   3.803   3.102   0.653
 6001SOL    HW118377   3.802   3.055   0.741
 6001SOL    HW218378   3.885   3.074   0.602
 6002SOL     OW18379   4.396   3.253   1.624
 6002SOL    HW118380   4.318   3.203   1.662
 6002SOL    HW218381   4.393   3.348   1.655
 6003SOL     OW18382   4.152   2.286   0.520
 6003SOL    HW118383   4.182   2.214   0.458
 6003SOL    HW218384   4.113   2.246   0.603
 6004SOL     OW18385   5.429   3.349   1.104
 6004SOL    HW118386   5.336   3.324   1.077
 6004SOL    HW218387   5.455   3.299   1.186
 6005SOL     OW18388   4.041   2.409   1.280
 6005SOL    HW118389   4.079   2.350   1.352
 6005SOL    HW218390   4.081   2.383   1.192
 6006SOL     OW18391   4.536   3.448   0.687
 6006SOL    HW118392   4.568   3.458   0.593
 6006SOL    HW218393   4.457   3.386   0.689
 6007SOL     OW18394   5.148   2.076   1.112
 6007SOL    HW118395   5.200   2.011   1.167
 6007SOL    HW218396   5.099   2.139   1.173
 6008SOL     OW18397   4.725   1.896   1.154
 6008SOL    HW118398   4.662   1.824   1.123
 6008SOL    HW218399   4.818   1.860   1.154
 6009SOL     OW18400   4.494   3.192   0.301
 6009SOL    HW118401   4.448   3.105   0.318
 6009SOL    HW218402   4.585   3.189   0.342
 6010SOL     OW18403   4.342   3.429   1.284
 6010SOL    HW118404   4.337   3.511   1.341
 6010SOL    HW218405   4.431   3.426   1.239
 6011SOL     OW18406   5.076   1.914   0.168
 6011SOL    HW118407   5.111   1.873   0.084
 6011SOL    HW218408   4.986   1.876   0.188
 6012SOL     OW18409   5.024   2.315   0.691
 6012SOL    HW118410   4.965   2.395   0.695
 6012SOL    HW218411   5.039   2.280   0.784
 6013SOL     OW18412   5.317   2.083   0.882
 6013SOL    HW118413   5.233   2.082   0.936
 6013SOL    HW218414   5.319   2.166   0.826
 6014SOL     OW18415   3.763   2.939   0.300
 6014SOL    HW118416   3.862   2.928   0.291
 6014SOL    HW218417   3.723   2.853   0.332
 6015SOL     OW18418   4.599   3.508   0.337
 6015SOL    HW118419   4.522   3.473   0.283
 6015SOL    HW218420   4.567   3.579   0.399
 6016SOL     OW18421   3.954   2.490   1.975
 6016SOL    HW118422   3.861   2.488   2.012
 6016SOL    HW218423   3.955   2.451   1.883
 6017SOL     OW18424   3.949   2.137   2.858
 6017SOL    HW118425   3.984   2.120   2.950
 6017SOL    HW218426   3.861   2.092   2.846
 6018SOL     OW18427   3.743   2.230   2.509
 6018SOL    HW118428   3.661   2.273   2.548
 6018SOL    HW218429   3.715   2.157   2.446
 6019SOL     OW18430   4.293   3.137   3.027
 6019SOL    HW118431   4.200   3.130   2.990
 6019SOL    HW218432   4.304   3.226   3.071
 6020SOL     OW18433   5.279   3.373   2.565
 6020SOL    HW118434   5.222   3.357   2.646
 6020SOL    HW218435   5.220   3.383   2.485
 6021SOL     OW18436   4.859   2.565   2.579
 6021SOL    HW118437   4.916   2.643   2.554
 6021SOL    HW218438   4.799   2.591   2.655
 6022SOL     OW18439   4.492   3.006   2.885
 6022SOL    HW118440   4.414   3.023   2.945
 6022SOL    HW218441   4.526   3.093   2.849
 6023SOL     OW18442   4.574   2.660   3.685
 6023SOL    HW118443   4.570   2.736   3.750
 6023SOL    HW218444   4.596   2.696   3.594
 6024SOL     OW18445   4.409   2.874   2.527
 6024SOL    HW118446   4.478   2.858   2.597
 6024SOL    HW218447   4.336   2.931   2.565
 6025SOL     OW18448   4.410   3.023   3.665
 6025SOL    HW118449   4.470   3.102   3.679
 6025SOL    HW218450   4.324   3.054   3.624
 6026SOL     OW18451   4.059   3.297   2.923
 6026SOL    HW118452   3.981   3.266   2.870
 6026SOL    HW218453   4.117   3.355   2.866
 6027SOL     OW18454   5.184   3.367   3.201
 6027SOL    HW118455   5.208   3.461   3.227
 6027SOL    HW218456   5.168   3.313   3.283
 6028SOL     OW18457   4.162   2.254   3.361
 6028SOL    HW118458   4.244   2.198   3.370
 6028SOL    HW218459   4.081   2.196   3.365
 6029SOL     OW18460   3.955   3.575   2.345
 6029SOL    HW118461   3.989   3.652   2.399
 6029SOL    HW218462   3.999   3.575   2.255
 6030SOL     OW18463   4.851   3.203   3.552
 6030SOL    HW118464   4.898   3.203   3.640
 6030SOL    HW218465   4.803   3.116   3.541
 6031SOL     OW18466   3.954   3.296   2.400
 6031SOL    HW118467   3.928   3.392   2.400
 6031SOL    HW218468   3.883   3.242   2.445
 6032SOL     OW18469   3.964   2.953   2.748
 6032SOL    HW118470   3.978   2.869   2.800
 6032SOL    HW218471   3.909   3.017   2.803
 6033SOL     OW18472   4.344   3.648   3.301
 6033SOL    HW118473   4.252   3.631   3.336
 6033SOL    HW218474   4.372   3.740   3.327
 6034SOL     OW18475   4.330   2.826   1.985
 6034SOL    HW118476   4.337   2.910   1.931
 6034SOL    HW218477   4.376   2.839   2.073
 6035SOL     OW18478   3.846   2.505   2.425
 6035SOL    HW118479   3.801   2.417   2.442
 6035SOL    HW218480   3.845   2.559   2.509
 6036SOL     OW18481   3.751   3.458   1.979
 6036SOL    HW118482   3.732   3.362   2.000
 6036SOL    HW218483   3.718   3.516   2.054
 6037SOL     OW18484   5.413   2.784   2.474
 6037SOL    HW118485   5.508   2.755   2.482
 6037SOL    HW218486   5.405   2.849   2.399
 6038SOL     OW18487   3.837   2.599   3.459
 6038SOL    HW118488   3.925   2.586   3.504
 6038SOL    HW218489   3.824   2.696   3.437
 6039SOL     OW18490   4.337   3.227   2.588
 6039SOL    HW118491   4.288   3.140   2.597
 6039SOL    HW218492   4.314   3.270   2.501
 6040SOL     OW18493   5.017   3.090   3.285
 6040SOL    HW118494   5.054   3.017   3.227
 6040SOL    HW218495   5.069   3.095   3.370
 6041SOL     OW18496   4.533   1.866   2.364
 6041SOL    HW118497   4.573   1.957   2.355
 6041SOL    HW218498   4.433   1.874   2.370
 6042SOL     OW18499   3.921   2.838   3.126
 6042SOL    HW118500   4.010   2.793   3.112
 6042SOL    HW218501   3.848   2.773   3.107
 6043SOL     OW18502   4.911   3.654   3.478
 6043SOL    HW118503   4.935   3.714   3.402
 6043SOL    HW218504   4.918   3.559   3.448
 6044SOL     OW18505   4.041   2.113   3.663
 6044SOL    HW118506   4.112   2.184   3.669
 6044SOL    HW218507   3.953   2.152   3.691
 6045SOL     OW18508   5.190   3.279   2.815
 6045SOL    HW118509   5.131   3.285   2.895
 6045SOL    HW218510   5.175   3.191   2.769
 6046SOL     OW18511   4.322   2.591   2.132
 6046SOL    HW118512   4.346   2.660   2.064
 6046SOL    HW218513   4.244   2.624   2.186
 6047SOL     OW18514   5.005   2.207   2.806
 6047SOL    HW118515   4.919   2.157   2.793
 6047SOL    HW218516   5.067   2.153   2.862
 6048SOL     OW18517   4.531   2.467   3.327
 6048SOL    HW118518   4.484   2.464   3.416
 6048SOL    HW218519   4.480   2.412   3.261
 6049SOL     OW18520   5.118   2.331   3.536
 6049SOL    HW118521   5.098   2.374   3.624
 6049SOL    HW218522   5.196   2.269   3.545
 6050SOL     OW18523   4.697   2.752   3.434
 6050SOL    HW118524   4.743   2.668   3.405
 6050SOL    HW218525   4.641   2.786   3.359
 6051SOL     OW18526   4.715   2.272   3.104
 6051SOL    HW118527   4.638   2.306   3.158
 6051SOL    HW218528   4.681   2.221   3.025
 6052SOL     OW18529   4.765   2.563   2.291
 6052SOL    HW118530   4.791   2.559   2.387
 6052SOL    HW218531   4.680   2.512   2.277
 6053SOL     OW18532   3.800   2.673   2.651
 6053SOL    HW118533   3.899   2.661   2.660
 6053SOL    HW218534   3.776   2.768   2.672
 6054SOL     OW18535   3.854   3.683   3.433
 6054SOL    HW118536   3.844   3.668   3.532
 6054SOL    HW218537   3.768   3.719   3.397
 6055SOL     OW18538   4.589   2.210   2.057
 6055SOL    HW118539   4.648   2.273   2.008
 6055SOL    HW218540   4.608   2.116   2.028
 6056SOL     OW18541   5.086   3.006   2.407
 6056SOL    HW118542   5.169   2.977   2.359
 6056SOL    HW218543   5.037   3.073   2.351
 6057SOL     OW18544   4.274   2.058   2.747
 6057SOL    HW118545   4.269   2.053   2.847
 6057SOL    HW218546   4.276   2.154   2.718
 6058SOL     OW18547   4.732   3.318   2.339
 6058SOL    HW118548   4.686   3.390   2.287
 6058SOL    HW218549   4.728   3.338   2.437
 6059SOL     OW18550   4.075   3.663   2.715
 6059SOL    HW118551   4.125   3.577   2.721
 6059SOL    HW218552   4.140   3.740   2.712
 6060SOL     OW18553   4.951   3.412   3.368
 6060SOL    HW118554   4.957   3.335   3.432
 6060SOL    HW218555   4.899   3.386   3.288
 6061SOL     OW18556   4.045   2.805   2.104
 6061SOL    HW118557   4.127   2.844   2.062
 6061SOL    HW218558   4.018   2.723   2.055
 6062SOL     OW18559   4.185   3.128   3.589
 6062SOL    HW118560   4.135   3.129   3.503
 6062SOL    HW218561   4.122   3.110   3.665
 6063SOL     OW18562   4.835   3.638   2.099
 6063SOL    HW118563   4.775   3.576   2.149
 6063SOL    HW218564   4.866   3.594   2.014
 6064SOL     OW18565   3.926   2.147   3.360
 6064SOL    HW118566   3.846   2.207   3.347
 6064SOL    HW218567   3.916   2.098   3.446
 6065SOL     OW18568   4.188   3.605   2.185
 6065SOL    HW118569   4.221   3.644   2.271
 6065SOL    HW218570   4.264   3.598   2.120
 6066SOL     OW18571   5.124   1.969   2.288
 6066SOL    HW118572   5.100   1.932   2.198
 6066SOL    HW218573   5.223   1.985   2.292
 6067SOL     OW18574   3.973   3.647   3.103
 6067SOL    HW118575   4.030   3.582   3.153
 6067SOL    HW218576   3.957   3.614   3.010
 6068SOL     OW18577   4.664   3.560   2.766
 6068SOL    HW118578   4.744   3.503   2.787
 6068SOL    HW218579   4.615   3.520   2.689
 6069SOL     OW18580   4.106   2.562   2.342
 6069SOL    HW118581   4.151   2.472   2.339
 6069SOL    HW218582   4.012   2.551   2.375
 6070SOL     OW18583   4.338   1.984   1.979
 6070SOL    HW118584   4.436   1.962   1.986
 6070SOL    HW218585   4.307   1.967   1.886
 6071SOL     OW18586   4.505   2.126   3.611
 6071SOL    HW118587   4.572   2.065   3.654
 6071SOL    HW218588   4.432   2.145   3.676
 6072SOL     OW18589   4.612   3.376   3.057
 6072SOL    HW118590   4.589   3.351   2.963
 6072SOL    HW218591   4.673   3.307   3.096
 6073SOL     OW18592   5.075   2.452   3.295
 6073SOL    HW118593   5.103   2.409   3.380
 6073SOL    HW218594   5.100   2.548   3.296
 6074SOL     OW18595   4.527   3.264   2.786
 6074SOL    HW118596   4.617   3.278   2.744
 6074SOL    HW218597   4.456   3.266   2.715
 6075SOL     OW18598   4.646   2.365   2.761
 6075SOL    HW118599   4.621   2.356   2.665
 6075SOL    HW218600   4.694   2.283   2.792
 6076SOL     OW18601   4.263   1.926   2.374
 6076SOL    HW118602   4.182   1.927   2.432
 6076SOL    HW218603   4.266   2.009   2.319
 6077SOL     OW18604   5.158   3.050   1.903
 6077SOL    HW118605   5.190   2.974   1.960
 6077SOL    HW218606   5.066   3.077   1.933
 6078SOL     OW18607   4.021   1.897   2.033
 6078SOL    HW118608   4.070   1.981   2.012
 6078SOL    HW218609   4.083   1.832   2.078
 6079SOL     OW18610   4.659   2.098   2.342
 6079SOL    HW118611   4.611   2.139   2.264
 6079SOL    HW218612   4.758   2.096   2.323
 6080SOL     OW18613   4.800   2.545   3.326
 6080SOL    HW118614   4.720   2.484   3.329
 6080SOL    HW218615   4.881   2.492   3.302
 6081SOL     OW18616   4.951   3.432   2.655
 6081SOL    HW118617   4.972   3.506   2.590
 6081SOL    HW218618   5.019   3.432   2.728
 6082SOL     OW18619   4.183   3.014   2.603
 6082SOL    HW118620   4.112   2.987   2.668
 6082SOL    HW218621   4.157   2.986   2.510
 6083SOL     OW18622   4.995   3.659   2.453
 6083SOL    HW118623   5.039   3.723   2.389
 6083SOL    HW218624   4.945   3.711   2.523
 6084SOL     OW18625   4.756   2.411   1.878
 6084SOL    HW118626   4.715   2.493   1.839
 6084SOL    HW218627   4.820   2.437   1.951
 6085SOL     OW18628   3.802   2.418   3.248
 6085SOL    HW118629   3.894   2.417   3.207
 6085SOL    HW218630   3.796   2.492   3.315
 6086SOL     OW18631   4.285   2.084   3.009
 6086SOL    HW118632   4.323   2.000   3.046
 6086SOL    HW218633   4.197   2.103   3.053
 6087SOL     OW18634   4.590   2.316   2.504
 6087SOL    HW118635   4.558   2.388   2.442
 6087SOL    HW218636   4.614   2.235   2.451
 6088SOL     OW18637   4.741   1.901   2.615
 6088SOL    HW118638   4.669   1.906   2.546
 6088SOL    HW218639   4.717   1.832   2.684
 6089SOL     OW18640   5.153   3.035   2.729
 6089SOL    HW118641   5.098   2.951   2.722
 6089SOL    HW218642   5.179   3.064   2.637
 6090SOL     OW18643   4.212   3.247   2.036
 6090SOL    HW118644   4.125   3.232   2.083
 6090SOL    HW218645   4.195   3.273   1.941
 6091SOL     OW18646   5.114   2.437   1.940
 6091SOL    HW118647   5.060   2.416   2.021
 6091SOL    HW218648   5.205   2.396   1.949
 6092SOL     OW18649   4.251   2.118   2.190
 6092SOL    HW118650   4.278   2.059   2.115
 6092SOL    HW218651   4.251   2.213   2.159
 6093SOL     OW18652   4.788   3.209   3.202
 6093SOL    HW118653   4.708   3.186   3.257
 6093SOL    HW218654   4.871   3.183   3.251
 6094SOL     OW18655   5.316   3.491   3.487
 6094SOL    HW118656   5.343   3.525   3.397
 6094SOL    HW218657   5.395   3.453   3.533
 6095SOL     OW18658   4.835   3.057   2.962
 6095SOL    HW118659   4.795   3.101   3.043
 6095SOL    HW218660   4.794   3.094   2.879
 6096SOL     OW18661   4.639   1.951   3.264
 6096SOL    HW118662   4.664   1.931   3.169
 6096SOL    HW218663   4.711   2.007   3.306
 6097SOL     OW18664   4.704   2.978   3.581
 6097SOL    HW118665   4.605   2.984   3.591
 6097SOL    HW218666   4.727   2.898   3.525
 6098SOL     OW18667   4.429   2.912   2.230
 6098SOL    HW118668   4.415   2.919   2.329
 6098SOL    HW218669   4.513   2.861   2.212
 6099SOL     OW18670   4.134   2.675   3.113
 6099SOL    HW118671   4.220   2.687   3.163
 6099SOL    HW218672   4.092   2.588   3.140
 6100SOL     OW18673   4.998   2.248   3.124
 6100SOL    HW118674   5.019   2.322   3.188
 6100SOL    HW218675   4.909   2.265   3.081
 6101SOL     OW18676   3.788   3.426   3.193
 6101SOL    HW118677   3.742   3.508   3.159
 6101SOL    HW218678   3.886   3.445   3.202
 6102SOL     OW18679   4.091   2.962   2.363
 6102SOL    HW118680   4.084   3.045   2.307
 6102SOL    HW218681   4.095   2.882   2.303
 6103SOL     OW18682   4.290   2.399   2.727
 6103SOL    HW118683   4.302   2.465   2.653
 6103SOL    HW218684   4.336   2.433   2.810
 6104SOL     OW18685   4.976   3.210   2.250
 6104SOL    HW118686   5.026   3.287   2.290
 6104SOL    HW218687   4.881   3.212   2.282
 6105SOL     OW18688   4.996   3.307   3.004
 6105SOL    HW118689   5.043   3.320   3.091
 6105SOL    HW218690   4.930   3.233   3.013
 6106SOL     OW18691   4.078   3.372   3.191
 6106SOL    HW118692   4.057   3.328   3.104
 6106SOL    HW218693   4.175   3.398   3.194
 6107SOL     OW18694   4.126   2.613   3.460
 6107SOL    HW118695   4.194   2.668   3.413
 6107SOL    HW218696   4.166   2.525   3.487
 6108SOL     OW18697   4.737   1.967   3.632
 6108SOL    HW118698   4.743   2.052   3.580
 6108SOL    HW218699   4.769   1.891   3.575
 6109SOL     OW18700   4.228   1.912   3.602
 6109SOL    HW118701   4.186   1.855   3.532
 6109SOL    HW218702   4.162   1.981   3.634
 6110SOL     OW18703   4.297   2.732   2.891
 6110SOL    HW118704   4.341   2.821   2.882
 6110SOL    HW218705   4.234   2.732   2.968
 6111SOL     OW18706   5.084   2.724   2.907
 6111SOL    HW118707   5.009   2.724   2.841
 6111SOL    HW218708   5.121   2.632   2.916
 6112SOL     OW18709   4.933   2.387   2.137
 6112SOL    HW118710   4.946   2.303   2.191
 6112SOL    HW218711   4.904   2.461   2.197
 6113SOL     OW18712   4.031   2.075   3.093
 6113SOL    HW118713   4.008   2.112   3.183
 6113SOL    HW218714   4.001   1.980   3.087
 6114SOL     OW18715   3.761   3.172   3.144
 6114SOL    HW118716   3.814   3.123   3.212
 6114SOL    HW218717   3.783   3.270   3.149
 6115SOL     OW18718   4.456   2.496   2.926
 6115SOL    HW118719   4.515   2.470   2.850
 6115SOL    HW218720   4.428   2.592   2.915
 6116SOL     OW18721   4.031   1.925   2.480
 6116SOL    HW118722   4.020   2.019   2.513
 6116SOL    HW218723   4.026   1.862   2.557
 6117SOL     OW18724   5.346   2.229   2.236
 6117SOL    HW118725   5.348   2.153   2.300
 6117SOL    HW218726   5.298   2.306   2.276
 6118SOL     OW18727   4.747   2.628   2.828
 6118SOL    HW118728   4.762   2.649   2.924
 6118SOL    HW218729   4.717   2.533   2.819
 6119SOL     OW18730   4.704   3.435   3.562
 6119SOL    HW118731   4.684   3.479   3.474
 6119SOL    HW218732   4.743   3.344   3.546
 6120SOL     OW18733   4.074   2.760   3.666
 6120SOL    HW118734   4.150   2.804   3.714
 6120SOL    HW218735   4.109   2.713   3.584
 6121SOL     OW18736   5.027   2.700   1.904
 6121SOL    HW118737   5.061   2.607   1.919
 6121SOL    HW218738   5.045   2.727   1.809
 6122SOL     OW18739   4.792   3.195   2.711
 6122SOL    HW118740   4.799   3.111   2.656
 6122SOL    HW218741   4.854   3.264   2.675
 6123SOL     OW18742   4.043   2.672   2.811
 6123SOL    HW118743   4.136   2.708   2.816
 6123SOL    HW218744   4.037   2.587   2.863
 6124SOL     OW18745   4.063   2.371   2.868
 6124SOL    HW118746   4.011   2.288   2.851
 6124SOL    HW218747   4.140   2.376   2.804
 6125SOL     OW18748   4.862   2.242   3.540
 6125SOL    HW118749   4.817   2.305   3.604
 6125SOL    HW218750   4.955   2.273   3.523
 6126SOL     OW18751   4.884   2.069   3.339
 6126SOL    HW118752   4.884   2.133   3.416
 6126SOL    HW218753   4.912   2.117   3.256
 6127SOL     OW18754   3.732   3.188   2.062
 6127SOL    HW118755   3.639   3.209   2.031
 6127SOL    HW218756   3.742   3.089   2.075
 6128SOL     OW18757   3.812   3.663   2.789
 6128SOL    HW118758   3.770   3.577   2.762
 6128SOL    HW218759   3.906   3.666   2.755
 6129SOL     OW18760   4.228   3.430   2.772
 6129SOL    HW118761   4.294   3.504   2.781
 6129SOL    HW218762   4.272   3.351   2.730
 6130SOL     OW18763   4.726   2.658   3.100
 6130SOL    HW118764   4.767   2.626   3.186
 6130SOL    HW218765   4.630   2.631   3.097
 6131SOL     OW18766   3.764   2.406   2.976
 6131SOL    HW118767   3.849   2.373   2.935
 6131SOL    HW218768   3.777   2.421   3.074
 6132SOL     OW18769   3.913   2.382   3.584
 6132SOL    HW118770   3.972   2.342   3.514
 6132SOL    HW218771   3.855   2.453   3.543
 6133SOL     OW18772   5.093   2.812   3.522
 6133SOL    HW118773   5.132   2.901   3.542
 6133SOL    HW218774   5.103   2.792   3.425
 6134SOL     OW18775   4.539   2.434   2.187
 6134SOL    HW118776   4.546   2.345   2.141
 6134SOL    HW218777   4.445   2.468   2.179
 6135SOL     OW18778   3.976   3.426   3.606
 6135SOL    HW118779   3.946   3.483   3.682
 6135SOL    HW218780   3.969   3.329   3.632
 6136SOL     OW18781   4.395   2.326   3.131
 6136SOL    HW118782   4.361   2.237   3.101
 6136SOL    HW218783   4.421   2.380   3.051
 6137SOL     OW18784   4.654   3.540   3.327
 6137SOL    HW118785   4.630   3.522   3.232
 6137SOL    HW218786   4.684   3.634   3.337
 6138SOL     OW18787   4.197   2.362   2.053
 6138SOL    HW118788   4.258   2.442   2.057
 6138SOL    HW218789   4.102   2.393   2.060
 6139SOL     OW18790   3.883   2.999   3.328
 6139SOL    HW118791   3.905   2.938   3.404
 6139SOL    HW218792   3.893   2.950   3.242
 6140SOL     OW18793   5.071   2.921   3.096
 6140SOL    HW118794   5.095   2.858   3.022
 6140SOL    HW218795   4.981   2.961   3.078
 6141SOL     OW18796   5.026   2.717   2.171
 6141SOL    HW118797   4.940   2.686   2.213
 6141SOL    HW218798   5.022   2.703   2.072
 6142SOL     OW18799   4.976   3.593   2.990
 6142SOL    HW118800   5.060   3.598   2.936
 6142SOL    HW218801   4.953   3.497   3.008
 6143SOL     OW18802   3.807   3.120   2.884
 6143SOL    HW118803   3.802   3.119   2.984
 6143SOL    HW218804   3.724   3.079   2.846
 6144SOL     OW18805   4.412   3.524   3.578
 6144SOL    HW118806   4.356   3.605   3.587
 6144SOL    HW218807   4.464   3.528   3.492
 6145SOL     OW18808   5.450   1.997   2.385
 6145SOL    HW118809   5.523   1.980   2.318
 6145SOL    HW218810   5.419   1.910   2.423
 6146SOL     OW18811   5.112   3.435   2.339
 6146SOL    HW118812   5.179   3.447   2.265
 6146SOL    HW218813   5.072   3.524   2.362
 6147SOL     OW18814   3.854   3.656   3.713
 6147SOL    HW118815   3.813   3.582   3.766
 6147SOL    HW218816   3.918   3.707   3.771
 6148SOL     OW18817   5.004   2.789   2.534
 6148SOL    HW118818   5.064   2.708   2.536
 6148SOL    HW218819   5.044   2.858   2.474
 6149SOL     OW18820   4.554   3.135   3.284
 6149SOL    HW118821   4.549   3.168   3.379
 6149SOL    HW218822   4.468   3.154   3.238
 6150SOL     OW18823   4.396   3.478   2.016
 6150SOL    HW118824   4.405   3.488   1.917
 6150SOL    HW218825   4.356   3.389   2.037
 6151SOL     OW18826   3.987   2.188   2.582
 6151SOL    HW118827   3.908   2.239   2.548
 6151SOL    HW218828   3.978   2.173   2.680
 6152SOL     OW18829   4.918   3.474   1.893
 6152SOL    HW118830   4.924   3.381   1.930
 6152SOL    HW218831   4.859   3.474   1.813
 6153SOL     OW18832   4.546   2.864   3.234
 6153SOL    HW118833   4.586   2.863   3.142
 6153SOL    HW218834   4.556   2.956   3.274
 6154SOL     OW18835   4.640   2.772   2.153
 6154SOL    HW118836   4.703   2.810   2.085
 6154SOL    HW218837   4.680   2.689   2.192
 6155SOL     OW18838   4.096   3.150   3.352
 6155SOL    HW118839   4.083   3.243   3.318
 6155SOL    HW218840   4.012   3.098   3.339
 6156SOL     OW18841   4.763   2.960   2.558
 6156SOL    HW118842   4.693   2.913   2.612
 6156SOL    HW218843   4.822   2.892   2.515
 6157SOL     OW18844   4.738   2.098   2.833
 6157SOL    HW118845   4.730   2.062   2.740
 6157SOL    HW218846   4.736   2.022   2.898
 6158SOL     OW18847   4.314   3.349   2.353
 6158SOL    HW118848   4.356   3.291   2.283
 6158SOL    HW218849   4.270   3.428   2.309
 6159SOL     OW18850   3.979   3.210   2.152
 6159SOL    HW118851   3.883   3.211   2.125
 6159SOL    HW218852   3.991   3.263   2.236
 6160SOL     OW18853   3.829   2.875   3.588
 6160SOL    HW118854   3.752   2.842   3.642
 6160SOL    HW218855   3.914   2.845   3.630
 6161SOL     OW18856   4.396   2.065   3.351
 6161SOL    HW118857   4.486   2.049   3.311
 6161SOL    HW218858   4.404   2.070   3.450
 6162SOL     OW18859   3.799   2.207   1.895
 6162SOL    HW118860   3.707   2.179   1.866
 6162SOL    HW218861   3.830   2.284   1.839
 6163SOL     OW18862   5.164   2.718   3.260
 6163SOL    HW118863   5.107   2.770   3.197
 6163SOL    HW218864   5.260   2.730   3.236
 6164SOL     OW18865   3.796   2.028   2.180
 6164SOL    HW118866   3.779   2.111   2.126
 6164SOL    HW218867   3.886   1.991   2.158
 6165SOL     OW18868   4.907   3.197   1.981
 6165SOL    HW118869   4.808   3.186   1.983
 6165SOL    HW218870   4.941   3.212   2.074
 6166SOL     OW18871   4.337   2.704   3.293
 6166SOL    HW118872   4.393   2.785   3.276
 6166SOL    HW218873   4.396   2.624   3.296
 6167SOL     OW18874   4.440   2.427   3.570
 6167SOL    HW118875   4.459   2.492   3.644
 6167SOL    HW218876   4.500   2.347   3.579
 6168SOL     OW18877   5.174   3.082   3.495
 6168SOL    HW118878   5.165   3.072   3.594
 6168SOL    HW218879   5.270   3.075   3.469
 6169SOL     OW18880   4.114   3.603   3.422
 6169SOL    HW118881   4.023   3.644   3.420
 6169SOL    HW218882   4.107   3.509   3.454
 6170SOL     OW18883   4.949   2.187   2.311
 6170SOL    HW118884   5.014   2.113   2.300
 6170SOL    HW218885   4.969   2.237   2.395
 6171SOL     OW18886   4.318   2.607   2.514
 6171SOL    HW118887   4.368   2.692   2.495
 6171SOL    HW218888   4.230   2.609   2.466
 6172SOL     OW18889   4.583   3.236   1.878
 6172SOL    HW118890   4.537   3.251   1.966
 6172SOL    HW218891   4.627   3.321   1.848
 6173SOL     OW18892   4.385   3.652   2.815
 6173SOL    HW118893   4.339   3.740   2.802
 6173SOL    HW218894   4.484   3.664   2.808
 6174SOL     OW18895   4.583   2.818   2.723
 6174SOL    HW118896   4.637   2.749   2.771
 6174SOL    HW218897   4.551   2.887   2.789
 6175SOL     OW18898   4.807   2.846   1.949
 6175SOL    HW118899   4.784   2.899   1.867
 6175SOL    HW218900   4.888   2.790   1.930
 6176SOL     OW18901   3.945   3.176   3.706
 6176SOL    HW118902   3.880   3.103   3.685
 6176SOL    HW218903   3.949   3.190   3.804
 6177SOL     OW18904   3.803   3.102   2.515
 6177SOL    HW118905   3.802   3.055   2.603
 6177SOL    HW218906   3.885   3.074   2.464
 6178SOL     OW18907   4.396   3.253   3.486
 6178SOL    HW118908   4.318   3.203   3.524
 6178SOL    HW218909   4.393   3.348   3.517
 6179SOL     OW18910   4.152   2.286   2.382
 6179SOL    HW118911   4.182   2.214   2.320
 6179SOL    HW218912   4.113   2.246   2.465
 6180SOL     OW18913   5.429   3.349   2.966
 6180SOL    HW118914   5.336   3.324   2.939
 6180SOL    HW218915   5.455   3.299   3.048
 6181SOL     OW18916   4.041   2.409   3.142
 6181SOL    HW118917   4.079   2.350   3.214
 6181SOL    HW218918   4.081   2.383   3.054
 6182SOL     OW18919   4.536   3.448   2.549
 6182SOL    HW118920   4.568   3.458   2.455
 6182SOL    HW218921   4.457   3.386   2.551
 6183SOL     OW18922   5.148   2.076   2.974
 6183SOL    HW118923   5.200   2.011   3.029
 6183SOL    HW218924   5.099   2.139   3.035
 6184SOL     OW18925   4.725   1.896   3.016
 6184SOL    HW118926   4.662   1.824   2.985
 6184SOL    HW218927   4.818   1.860   3.016
 6185SOL     OW18928   4.494   3.192   2.163
 6185SOL    HW118929   4.448   3.105   2.180
 6185SOL    HW218930   4.585   3.189   2.204
 6186SOL     OW18931   4.342   3.429   3.146
 6186SOL    HW118932   4.337   3.511   3.203
 6186SOL    HW218933   4.431   3.426   3.101
 6187SOL     OW18934   5.076   1.914   2.030
 6187SOL    HW118935   5.111   1.873   1.946
 6187SOL    HW218936   4.986   1.876   2.050
 6188SOL     OW18937   5.024   2.315   2.553
 6188SOL    HW118938   4.965   2.395   2.557
 6188SOL    HW218939   5.039   2.280   2.646
 6189SOL     OW18940   5.317   2.083   2.744
 6189SOL    HW118941   5.233   2.082   2.798
 6189SOL    HW218942   5.319   2.166   2.688
 6190SOL     OW18943   3.763   2.939   2.162
 6190SOL    HW118944   3.862   2.928   2.153
 6190SOL    HW218945   3.723   2.853   2.194
 6191SOL     OW18946   4.599   3.508   2.199
 6191SOL    HW118947   4.522   3.473   2.145
 6191SOL    HW218948   4.567   3.579   2.261
 6192SOL     OW18949   3.954   2.490   3.837
 6192SOL    HW118950   3.861   2.488   3.874
 6192SOL    HW218951   3.955   2.451   3.745
 6193SOL     OW18952   3.949   2.137   4.720
 6193SOL    HW118953   3.984   2.120   4.812
 6193SOL    HW218954   3.861   2.092   4.708
 6194SOL     OW18955   3.743   2.230   4.371
 6194SOL    HW118956   3.661   2.273   4.410
 6194SOL    HW218957   3.715   2.157   4.308
 6195SOL     OW18958   4.293   3.137   4.889
 6195SOL    HW118959   4.200   3.130   4.852
 6195SOL    HW218960   4.304   3.226   4.933
 6196SOL     OW18961   5.279   3.373   4.427
 6196SOL    HW118962   5.222   3.357   4.508
 6196SOL    HW218963   5.220   3.383   4.347
 6197SOL     OW18964   4.859   2.565   4.441
 6197SOL    HW118965   4.916   2.643   4.416
 6197SOL    HW218966   4.799   2.591   4.517
 6198SOL     OW18967   4.492   3.006   4.747
 6198SOL    HW118968   4.414   3.023   4.807
 6198SOL    HW218969   4.526   3.093   4.711
 6199SOL     OW18970   4.574   2.660   5.547
 6199SOL    HW118971   4.570   2.736   5.612
 6199SOL    HW218972   4.596   2.696   5.456
 6200SOL     OW18973   4.409   2.874   4.389
 6200SOL    HW118974   4.478   2.858   4.459
 6200SOL    HW218975   4.336   2.931   4.427
 6201SOL     OW18976   4.410   3.023   5.527
 6201SOL    HW118977   4.470   3.102   5.541
 6201SOL    HW218978   4.324   3.054   5.486
 6202SOL     OW18979   4.059   3.297   4.785
 6202SOL    HW118980   3.981   3.266   4.732
 6202SOL    HW218981   4.117   3.355   4.728
 6203SOL     OW18982   5.184   3.367   5.063
 6203SOL    HW118983   5.208   3.461   5.089
 6203SOL    HW218984   5.168   3.313   5.145
 6204SOL     OW18985   4.162   2.254   5.223
 6204SOL    HW118986   4.244   2.198   5.232
 6204SOL    HW218987   4.081   2.196   5.227
 6205SOL     OW18988   3.955   3.575   4.207
 6205SOL    HW118989   3.989   3.652   4.261
 6205SOL    HW218990   3.999   3.575   4.117
 6206SOL     OW18991   4.851   3.203   5.414
 6206SOL    HW118992   4.898   3.203   5.502
 6206SOL    HW218993   4.803   3.116   5.403
 6207SOL     OW18994   3.954   3.296   4.262
 6207SOL    HW118995   3.928   3.392   4.262
 6207SOL    HW218996   3.883   3.242   4.307
 6208SOL     OW18997   3.964   2.953   4.610
 6208SOL    HW118998   3.978   2.869   4.662
 6208SOL    HW218999   3.909   3.017   4.665
 6209SOL     OW19000   4.344   3.648   5.163
 6209SOL    HW119001   4.252   3.631   5.198
 6209SOL    HW219002   4.372   3.740   5.189
 6210SOL     OW19003   4.330   2.826   3.847
 6210SOL    HW119004   4.337   2.910   3.793
 6210SOL    HW219005   4.376   2.839   3.935
 6211SOL     OW19006   3.846   2.505   4.287
 6211SOL    HW119007   3.801   2.417   4.304
 6211SOL    HW219008   3.845   2.559   4.371
 6212SOL     OW19009   3.751   3.458   3.841
 6212SOL    HW119010   3.732   3.362   3.862
 6212SOL    HW219011   3.718   3.516   3.916
 6213SOL     OW19012   5.413   2.784   4.336
 6213SOL    HW119013   5.508   2.755   4.344
 6213SOL    HW219014   5.405   2.849   4.261
 6214SOL     OW19015   3.837   2.599   5.321
 6214SOL    HW119016   3.925   2.586   5.366
 6214SOL    HW219017   3.824   2.696   5.299
 6215SOL     OW19018   4.337   3.227   4.450
 6215SOL    HW119019   4.288   3.140   4.459
 6215SOL    HW219020   4.314   3.270   4.363
 6216SOL     OW19021   5.017   3.090   5.147
 6216SOL    HW119022   5.054   3.017   5.089
 6216SOL    HW219023   5.069   3.095   5.232
 6217SOL     OW19024   4.533   1.866   4.226
 6217SOL    HW119025   4.573   1.957   4.217
 6217SOL    HW219026   4.433   1.874   4.232
 6218SOL     OW19027   3.921   2.838   4.988
 6218SOL    HW119028   4.010   2.793   4.974
 6218SOL    HW219029   3.848   2.773   4.969
 6219SOL     OW19030   4.911   3.654   5.340
 6219SOL    HW119031   4.935   3.714   5.264
 6219SOL    HW219032   4.918   3.559   5.310
 6220SOL     OW19033   4.041   2.113   5.525
 6220SOL    HW119034   4.112   2.184   5.531
 6220SOL    HW219035   3.953   2.152   5.553
 6221SOL     OW19036   5.190   3.279   4.677
 6221SOL    HW119037   5.131   3.285   4.757
 6221SOL    HW219038   5.175   3.191   4.631
 6222SOL     OW19039   4.322   2.591   3.994
 6222SOL    HW119040   4.346   2.660   3.926
 6222SOL    HW219041   4.244   2.624   4.048
 6223SOL     OW19042   5.005   2.207   4.668
 6223SOL    HW119043   4.919   2.157   4.655
 6223SOL    HW219044   5.067   2.153   4.724
 6224SOL     OW19045   4.531   2.467   5.189
 6224SOL    HW119046   4.484   2.464   5.278
 6224SOL    HW219047   4.480   2.412   5.123
 6225SOL     OW19048   5.118   2.331   5.398
 6225SOL    HW119049   5.098   2.374   5.486
 6225SOL    HW219050   5.196   2.269   5.407
 6226SOL     OW19051   4.697   2.752   5.296
 6226SOL    HW119052   4.743   2.668   5.267
 6226SOL    HW219053   4.641   2.786   5.221
 6227SOL     OW19054   4.715   2.272   4.966
 6227SOL    HW119055   4.638   2.306   5.020
 6227SOL    HW219056   4.681   2.221   4.887
 6228SOL     OW19057   4.765   2.563   4.153
 6228SOL    HW119058   4.791   2.559   4.249
 6228SOL    HW219059   4.680   2.512   4.139
 6229SOL     OW19060   3.800   2.673   4.513
 6229SOL    HW119061   3.899   2.661   4.522
 6229SOL    HW219062   3.776   2.768   4.534
 6230SOL     OW19063   3.854   3.683   5.295
 6230SOL    HW119064   3.844   3.668   5.394
 6230SOL    HW219065   3.768   3.719   5.259
 6231SOL     OW19066   4.589   2.210   3.919
 6231SOL    HW119067   4.648   2.273   3.870
 6231SOL    HW219068   4.608   2.116   3.890
 6232SOL     OW19069   5.086   3.006   4.269
 6232SOL    HW119070   5.169   2.977   4.221
 6232SOL    HW219071   5.037   3.073   4.213
 6233SOL     OW19072   4.274   2.058   4.609
 6233SOL    HW119073   4.269   2.053   4.709
 6233SOL    HW219074   4.276   2.154   4.580
 6234SOL     OW19075   4.732   3.318   4.201
 6234SOL    HW119076   4.686   3.390   4.149
 6234SOL    HW219077   4.728   3.338   4.299
 6235SOL     OW19078   4.075   3.663   4.577
 6235SOL    HW119079   4.125   3.577   4.583
 6235SOL    HW219080   4.140   3.740   4.574
 6236SOL     OW19081   4.951   3.412   5.230
 6236SOL    HW119082   4.957   3.335   5.294
 6236SOL    HW219083   4.899   3.386   5.150
 6237SOL     OW19084   4.045   2.805   3.966
 6237SOL    HW119085   4.127   2.844   3.924
 6237SOL    HW219086   4.018   2.723   3.917
 6238SOL     OW19087   4.185   3.128   5.451
 6238SOL    HW119088   4.135   3.129   5.365
 6238SOL    HW219089   4.122   3.110   5.527
 6239SOL     OW19090   4.835   3.638   3.961
 6239SOL    HW119091   4.775   3.576   4.011
 6239SOL    HW219092   4.866   3.594   3.876
 6240SOL     OW19093   3.926   2.147   5.222
 6240SOL    HW119094   3.846   2.207   5.209
 6240SOL    HW219095   3.916   2.098   5.308
 6241SOL     OW19096   4.188   3.605   4.047
 6241SOL    HW119097   4.221   3.644   4.133
 6241SOL    HW219098   4.264   3.598   3.982
 6242SOL     OW19099   5.124   1.969   4.150
 6242SOL    HW119100   5.100   1.932   4.060
 6242SOL    HW219101   5.223   1.985   4.154
 6243SOL     OW19102   3.973   3.647   4.965
 6243SOL    HW119103   4.030   3.582   5.015
 6243SOL    HW219104   3.957   3.614   4.872
 6244SOL     OW19105   4.664   3.560   4.628
 6244SOL    HW119106   4.744   3.503   4.649
 6244SOL    HW219107   4.615   3.520   4.551
 6245SOL     OW19108   4.106   2.562   4.204
 6245SOL    HW119109   4.151   2.472   4.201
 6245SOL    HW219110   4.012   2.551   4.237
 6246SOL     OW19111   4.338   1.984   3.841
 6246SOL    HW119112   4.436   1.962   3.848
 6246SOL    HW219113   4.307   1.967   3.748
 6247SOL     OW19114   4.505   2.126   5.473
 6247SOL    HW119115   4.572   2.065   5.516
 6247SOL    HW219116   4.432   2.145   5.538
 6248SOL     OW19117   4.612   3.376   4.919
 6248SOL    HW119118   4.589   3.351   4.825
 6248SOL    HW219119   4.673   3.307   4.958
 6249SOL     OW19120   5.075   2.452   5.157
 6249SOL    HW119121   5.103   2.409   5.242
 6249SOL    HW219122   5.100   2.548   5.158
 6250SOL     OW19123   4.527   3.264   4.648
 6250SOL    HW119124   4.617   3.278   4.606
 6250SOL    HW219125   4.456   3.266   4.577
 6251SOL     OW19126   4.646   2.365   4.623
 6251SOL    HW119127   4.621   2.356   4.527
 6251SOL    HW219128   4.694   2.283   4.654
 6252SOL     OW19129   4.263   1.926   4.236
 6252SOL    HW119130   4.182   1.927   4.294
 6252SOL    HW219131   4.266   2.009   4.181
 6253SOL     OW19132   5.158   3.050   3.765
 6253SOL    HW119133   5.190   2.974   3.822
 6253SOL    HW219134   5.066   3.077   3.795
 6254SOL     OW19135   4.021   1.897   3.895
 6254SOL    HW119136   4.070   1.981   3.874
 6254SOL    HW219137   4.083   1.832   3.940
 6255SOL     OW19138   4.659   2.098   4.204
 6255SOL    HW119139   4.611   2.139   4.126
 6255SOL    HW219140   4.758   2.096   4.185
 6256SOL     OW19141   4.800   2.545   5.188
 6256SOL    HW119142   4.720   2.484   5.191
 6256SOL    HW219143   4.881   2.492   5.164
 6257SOL     OW19144   4.951   3.432   4.517
 6257SOL    HW119145   4.972   3.506   4.452
 6257SOL    HW219146   5.019   3.432   4.590
 6258SOL     OW19147   4.183   3.014   4.465
 6258SOL    HW119148   4.112   2.987   4.530
 6258SOL    HW219149   4.157   2.986   4.372
 6259SOL     OW19150   4.995   3.659   4.315
 6259SOL    HW119151   5.039   3.723   4.251
 6259SOL    HW219152   4.945   3.711   4.385
 6260SOL     OW19153   4.756   2.411   3.740
 6260SOL    HW119154   4.715   2.493   3.701
 6260SOL    HW219155   4.820   2.437   3.813
 6261SOL     OW19156   3.802   2.418   5.110
 6261SOL    HW119157   3.894   2.417   5.069
 6261SOL    HW219158   3.796   2.492   5.177
 6262SOL     OW19159   4.285   2.084   4.871
 6262SOL    HW119160   4.323   2.000   4.908
 6262SOL    HW219161   4.197   2.103   4.915
 6263SOL     OW19162   4.590   2.316   4.366
 6263SOL    HW119163   4.558   2.388   4.304
 6263SOL    HW219164   4.614   2.235   4.313
 6264SOL     OW19165   4.741   1.901   4.477
 6264SOL    HW119166   4.669   1.906   4.408
 6264SOL    HW219167   4.717   1.832   4.546
 6265SOL     OW19168   5.153   3.035   4.591
 6265SOL    HW119169   5.098   2.951   4.584
 6265SOL    HW219170   5.179   3.064   4.499
 6266SOL     OW19171   4.212   3.247   3.898
 6266SOL    HW119172   4.125   3.232   3.945
 6266SOL    HW219173   4.195   3.273   3.803
 6267SOL     OW19174   5.114   2.437   3.802
 6267SOL    HW119175   5.060   2.416   3.883
 6267SOL    HW219176   5.205   2.396   3.811
 6268SOL     OW19177   4.251   2.118   4.052
 6268SOL    HW119178   4.278   2.059   3.977
 6268SOL    HW219179   4.251   2.213   4.021
 6269SOL     OW19180   4.788   3.209   5.064
 6269SOL    HW119181   4.708   3.186   5.119
 6269SOL    HW219182   4.871   3.183   5.113
 6270SOL     OW19183   5.316   3.491   5.349
 6270SOL    HW119184   5.343   3.525   5.259
 6270SOL    HW219185   5.395   3.453   5.395
 6271SOL     OW19186   4.835   3.057   4.824
 6271SOL    HW119187   4.795   3.101   4.905
 6271SOL    HW219188   4.794   3.094   4.741
 6272SOL     OW19189   4.639   1.951   5.126
 6272SOL    HW119190   4.664   1.931   5.031
 6272SOL    HW219191   4.711   2.007   5.168
 6273SOL     OW19192   4.704   2.978   5.443
 6273SOL    HW119193   4.605   2.984   5.453
 6273SOL    HW219194   4.727   2.898   5.387
 6274SOL     OW19195   4.429   2.912   4.092
 6274SOL    HW119196   4.415   2.919   4.191
 6274SOL    HW219197   4.513   2.861   4.074
 6275SOL     OW19198   4.134   2.675   4.975
 6275SOL    HW119199   4.220   2.687   5.025
 6275SOL    HW219200   4.092   2.588   5.002
 6276SOL     OW19201   4.998   2.248   4.986
 6276SOL    HW119202   5.019   2.322   5.050
 6276SOL    HW219203   4.909   2.265   4.943
 6277SOL     OW19204   3.788   3.426   5.055
 6277SOL    HW119205   3.742   3.508   5.021
 6277SOL    HW219206   3.886   3.445   5.064
 6278SOL     OW19207   4.091   2.962   4.225
 6278SOL    HW119208   4.084   3.045   4.169
 6278SOL    HW219209   4.095   2.882   4.165
 6279SOL     OW19210   4.290   2.399   4.589
 6279SOL    HW119211   4.302   2.465   4.515
 6279SOL    HW219212   4.336   2.433   4.672
 6280SOL     OW19213   4.976   3.210   4.112
 6280SOL    HW119214   5.026   3.287   4.152
 6280SOL    HW219215   4.881   3.212   4.144
 6281SOL     OW19216   4.996   3.307   4.866
 6281SOL    HW119217   5.043   3.320   4.953
 6281SOL    HW219218   4.930   3.233   4.875
 6282SOL     OW19219   4.078   3.372   5.053
 6282SOL    HW119220   4.057   3.328   4.966
 6282SOL    HW219221   4.175   3.398   5.056
 6283SOL     OW19222   4.126   2.613   5.322
 6283SOL    HW119223   4.194   2.668   5.275
 6283SOL    HW219224   4.166   2.525   5.349
 6284SOL     OW19225   4.737   1.967   5.494
 6284SOL    HW119226   4.743   2.052   5.442
 6284SOL    HW219227   4.769   1.891   5.437
 6285SOL     OW19228   4.228   1.912   5.464
 6285SOL    HW119229   4.186   1.855   5.394
 6285SOL    HW219230   4.162   1.981   5.496
 6286SOL     OW19231   4.297   2.732   4.753
 6286SOL    HW119232   4.341   2.821   4.744
 6286SOL    HW219233   4.234   2.732   4.830
 6287SOL     OW19234   5.084   2.724   4.769
 6287SOL    HW119235   5.009   2.724   4.703
 6287SOL    HW219236   5.121   2.632   4.778
 6288SOL     OW19237   4.933   2.387   3.999
 6288SOL    HW119238   4.946   2.303   4.053
 6288SOL    HW219239   4.904   2.461   4.059
 6289SOL     OW19240   4.031   2.075   4.955
 6289SOL    HW119241   4.008   2.112   5.045
 6289SOL    HW219242   4.001   1.980   4.949
 6290SOL     OW19243   3.761   3.172   5.006
 6290SOL    HW119244   3.814   3.123   5.074
 6290SOL    HW219245   3.783   3.270   5.011
 6291SOL     OW19246   4.456   2.496   4.788
 6291SOL    HW119247   4.515   2.470   4.712
 6291SOL    HW219248   4.428   2.592   4.777
 6292SOL     OW19249   4.031   1.925   4.342
 6292SOL    HW119250   4.020   2.019   4.375
 6292SOL    HW219251   4.026   1.862   4.419
 6293SOL     OW19252   5.346   2.229   4.098
 6293SOL    HW119253   5.348   2.153   4.162
 6293SOL    HW219254   5.298   2.306   4.138
 6294SOL     OW19255   4.747   2.628   4.690
 6294SOL    HW119256   4.762   2.649   4.786
 6294SOL    HW219257   4.717   2.533   4.681
 6295SOL     OW19258   4.704   3.435   5.424
 6295SOL    HW119259   4.684   3.479   5.336
 6295SOL    HW219260   4.743   3.344   5.408
 6296SOL     OW19261   4.074   2.760   5.528
 6296SOL    HW119262   4.150   2.804   5.576
 6296SOL    HW219263   4.109   2.713   5.446
 6297SOL     OW19264   5.027   2.700   3.766
 6297SOL    HW119265   5.061   2.607   3.781
 6297SOL    HW219266   5.045   2.727   3.671
 6298SOL     OW19267   4.792   3.195   4.573
 6298SOL    HW119268   4.799   3.111   4.518
 6298SOL    HW219269   4.854   3.264   4.537
 6299SOL     OW19270   4.043   2.672   4.673
 6299SOL    HW119271   4.136   2.708   4.678
 6299SOL    HW219272   4.037   2.587   4.725
 6300SOL     OW19273   4.063   2.371   4.730
 6300SOL    HW119274   4.011   2.288   4.713
 6300SOL    HW219275   4.140   2.376   4.666
 6301SOL     OW19276   4.862   2.242   5.402
 6301SOL    HW119277   4.817   2.305   5.466
 6301SOL    HW219278   4.955   2.273   5.385
 6302SOL     OW19279   4.884   2.069   5.201
 6302SOL    HW119280   4.884   2.133   5.278
 6302SOL    HW219281   4.912   2.117   5.118
 6303SOL     OW19282   3.732   3.188   3.924
 6303SOL    HW119283   3.639   3.209   3.893
 6303SOL    HW219284   3.742   3.089   3.937
 6304SOL     OW19285   3.812   3.663   4.651
 6304SOL    HW119286   3.770   3.577   4.624
 6304SOL    HW219287   3.906   3.666   4.617
 6305SOL     OW19288   4.228   3.430   4.634
 6305SOL    HW119289   4.294   3.504   4.643
 6305SOL    HW219290   4.272   3.351   4.592
 6306SOL     OW19291   4.726   2.658   4.962
 6306SOL    HW119292   4.767   2.626   5.048
 6306SOL    HW219293   4.630   2.631   4.959
 6307SOL     OW19294   3.764   2.406   4.838
 6307SOL    HW119295   3.849   2.373   4.797
 6307SOL    HW219296   3.777   2.421   4.936
 6308SOL     OW19297   3.913   2.382   5.446
 6308SOL    HW119298   3.972   2.342   5.376
 6308SOL    HW219299   3.855   2.453   5.405
 6309SOL     OW19300   5.093   2.812   5.384
 6309SOL    HW119301   5.132   2.901   5.404
 6309SOL    HW219302   5.103   2.792   5.287
 6310SOL     OW19303   4.539   2.434   4.049
 6310SOL    HW119304   4.546   2.345   4.003
 6310SOL    HW219305   4.445   2.468   4.041
 6311SOL     OW19306   3.976   3.426   5.468
 6311SOL    HW119307   3.946   3.483   5.544
 6311SOL    HW219308   3.969   3.329   5.494
 6312SOL     OW19309   4.395   2.326   4.993
 6312SOL    HW119310   4.361   2.237   4.963
 6312SOL    HW219311   4.421   2.380   4.913
 6313SOL     OW19312   4.654   3.540   5.189
 6313SOL    HW119313   4.630   3.522   5.094
 6313SOL    HW219314   4.684   3.634   5.199
 6314SOL     OW19315   4.197   2.362   3.915
 6314SOL    HW119316   4.258   2.442   3.919
 6314SOL    HW219317   4.102   2.393   3.922
 6315SOL     OW19318   3.883   2.999   5.190
 6315SOL    HW119319   3.905   2.938   5.266
 6315SOL    HW219320   3.893   2.950   5.104
 6316SOL     OW19321   5.071   2.921   4.958
 6316SOL    HW119322   5.095   2.858   4.884
 6316SOL    HW219323   4.981   2.961   4.940
 6317SOL     OW19324   5.026   2.717   4.033
 6317SOL    HW119325   4.940   2.686   4.075
 6317SOL    HW219326   5.022   2.703   3.934
 6318SOL     OW19327   4.976   3.593   4.852
 6318SOL    HW119328   5.060   3.598   4.798
 6318SOL    HW219329   4.953   3.497   4.870
 6319SOL     OW19330   3.807   3.120   4.746
 6319SOL    HW119331   3.802   3.119   4.846
 6319SOL    HW219332   3.724   3.079   4.708
 6320SOL     OW19333   4.412   3.524   5.440
 6320SOL    HW119334   4.356   3.605   5.449
 6320SOL    HW219335   4.464   3.528   5.354
 6321SOL     OW19336   5.450   1.997   4.247
 6321SOL    HW119337   5.523   1.980   4.180
 6321SOL    HW219338   5.419   1.910   4.285
 6322SOL     OW19339   5.112   3.435   4.201
 6322SOL    HW119340   5.179   3.447   4.127
 6322SOL    HW219341   5.072   3.524   4.224
 6323SOL     OW19342   3.854   3.656   5.575
 6323SOL    HW119343   3.813   3.582   5.628
 6323SOL    HW219344   3.918   3.707   5.633
 6324SOL     OW19345   5.004   2.789   4.396
 6324SOL    HW119346   5.064   2.708   4.398
 6324SOL    HW219347   5.044   2.858   4.336
 6325SOL     OW19348   4.554   3.135   5.146
 6325SOL    HW119349   4.549   3.168   5.241
 6325SOL    HW219350   4.468   3.154   5.100
 6326SOL     OW19351   4.396   3.478   3.878
 6326SOL    HW119352   4.405   3.488   3.779
 6326SOL    HW219353   4.356   3.389   3.899
 6327SOL     OW19354   3.987   2.188   4.444
 6327SOL    HW119355   3.908   2.239   4.410
 6327SOL    HW219356   3.978   2.173   4.542
 6328SOL     OW19357   4.918   3.474   3.755
 6328SOL    HW119358   4.924   3.381   3.792
 6328SOL    HW219359   4.859   3.474   3.675
 6329SOL     OW19360   4.546   2.864   5.096
 6329SOL    HW119361   4.586   2.863   5.004
 6329SOL    HW219362   4.556   2.956   5.136
 6330SOL     OW19363   4.640   2.772   4.015
 6330SOL    HW119364   4.703   2.810   3.947
 6330SOL    HW219365   4.680   2.689   4.054
 6331SOL     OW19366   4.096   3.150   5.214
 6331SOL    HW119367   4.083   3.243   5.180
 6331SOL    HW219368   4.012   3.098   5.201
 6332SOL     OW19369   4.763   2.960   4.420
 6332SOL    HW119370   4.693   2.913   4.474
 6332SOL    HW219371   4.822   2.892   4.377
 6333SOL     OW19372   4.738   2.098   4.695
 6333SOL    HW119373   4.730   2.062   4.602
 6333SOL    HW219374   4.736   2.022   4.760
 6334SOL     OW19375   4.314   3.349   4.215
 6334SOL    HW119376   4.356   3.291   4.145
 6334SOL    HW219377   4.270   3.428   4.171
 6335SOL     OW19378   3.979   3.210   4.014
 6335SOL    HW119379   3.883   3.211   3.987
 6335SOL    HW219380   3.991   3.263   4.098
 6336SOL     OW19381   3.829   2.875   5.450
 6336SOL    HW119382   3.752   2.842   5.504
 6336SOL    HW219383   3.914   2.845   5.492
 6337SOL     OW19384   4.396   2.065   5.213
 6337SOL    HW119385   4.486   2.049   5.173
 6337SOL    HW219386   4.404   2.070   5.312
 6338SOL     OW19387   3.799   2.207   3.757
 6338SOL    HW119388   3.707   2.179   3.728
 6338SOL    HW219389   3.830   2.284   3.701
 6339SOL     OW19390   5.164   2.718   5.122
 6339SOL    HW119391   5.107   2.770   5.059
 6339SOL    HW219392   5.260   2.730   5.098
 6340SOL     OW19393   3.796   2.028   4.042
 6340SOL    HW119394   3.779   2.111   3.988
 6340SOL    HW219395   3.886   1.991   4.020
 6341SOL     OW19396   4.907   3.197   3.843
 6341SOL    HW119397   4.808   3.186   3.845
 6341SOL    HW219398   4.941   3.212   3.936
 6342SOL     OW19399   4.337   2.704   5.155
 6342SOL    HW119400   4.393   2.785   5.138
 6342SOL    HW219401   4.396   2.624   5.158
 6343SOL     OW19402   4.440   2.427   5.432
 6343SOL    HW119403   4.459   2.492   5.506
 6343SOL    HW219404   4.500   2.347   5.441
 6344SOL     OW19405   5.174   3.082   5.357
 6344SOL    HW119406   5.165   3.072   5.456
 6344SOL    HW219407   5.270   3.075   5.331
 6345SOL     OW19408   4.114   3.603   5.284
 6345SOL    HW119409   4.023   3.644   5.282
 6345SOL    HW219410   4.107   3.509   5.316
 6346SOL     OW19411   4.949   2.187   4.173
 6346SOL    HW119412   5.014   2.113   4.162
 6346SOL    HW219413   4.969   2.237   4.257
 6347SOL     OW19414   4.318   2.607   4.376
 6347SOL    HW119415   4.368   2.692   4.357
 6347SOL    HW219416   4.230   2.609   4.328
 6348SOL     OW19417   4.583   3.236   3.740
 6348SOL    HW119418   4.537   3.251   3.828
 6348SOL    HW219419   4.627   3.321   3.710
 6349SOL     OW19420   4.385   3.652   4.677
 6349SOL    HW119421   4.339   3.740   4.664
 6349SOL    HW219422   4.484   3.664   4.670
 6350SOL     OW19423   4.583   2.818   4.585
 6350SOL    HW119424   4.637   2.749   4.633
 6350SOL    HW219425   4.551   2.887   4.651
 6351SOL     OW19426   4.807   2.846   3.811
 6351SOL    HW119427   4.784   2.899   3.729
 6351SOL    HW219428   4.888   2.790   3.792
 6352SOL     OW19429   3.945   3.176   5.568
 6352SOL    HW119430   3.880   3.103   5.547
 6352SOL    HW219431   3.949   3.190   5.666
 6353SOL     OW19432   3.803   3.102   4.377
 6353SOL    HW119433   3.802   3.055   4.465
 6353SOL    HW219434   3.885   3.074   4.326
 6354SOL     OW19435   4.396   3.253   5.348
 6354SOL    HW119436   4.318   3.203   5.386
 6354SOL    HW219437   4.393   3.348   5.379
 6355SOL     OW19438   4.152   2.286   4.244
 6355SOL    HW119439   4.182   2.214   4.182
 6355SOL    HW219440   4.113   2.246   4.327
 6356SOL     OW19441   5.429   3.349   4.828
 6356SOL    HW119442   5.336   3.324   4.801
 6356SOL    HW219443   5.455   3.299   4.910
 6357SOL     OW19444   4.041   2.409   5.004
 6357SOL    HW119445   4.079   2.350   5.076
 6357SOL    HW219446   4.081   2.383   4.916
 6358SOL     OW19447   4.536   3.448   4.411
 6358SOL    HW119448   4.568   3.458   4.317
 6358SOL    HW219449   4.457   3.386   4.413
 6359SOL     OW19450   5.148   2.076   4.836
 6359SOL    HW119451   5.200   2.011   4.891
 6359SOL    HW219452   5.099   2.139   4.897
 6360SOL     OW19453   4.725   1.896   4.878
 6360SOL    HW119454   4.662   1.824   4.847
 6360SOL    HW219455   4.818   1.860   4.878
 6361SOL     OW19456   4.494   3.192   4.025
 6361SOL    HW119457   4.448   3.105   4.042
 6361SOL    HW219458   4.585   3.189   4.066
 6362SOL     OW19459   4.342   3.429   5.008
 6362SOL    HW119460   4.337   3.511   5.065
 6362SOL    HW219461   4.431   3.426   4.963
 6363SOL     OW19462   5.076   1.914   3.892
 6363SOL    HW119463   5.111   1.873   3.808
 6363SOL    HW219464   4.986   1.876   3.912
 6364SOL     OW19465   5.024   2.315   4.415
 6364SOL    HW119466   4.965   2.395   4.419
 6364SOL    HW219467   5.039   2.280   4.508
 6365SOL     OW19468   5.317   2.083   4.606
 6365SOL    HW119469   5.233   2.082   4.660
 6365SOL    HW219470   5.319   2.166   4.550
 6366SOL     OW19471   3.763   2.939   4.024
 6366SOL    HW119472   3.862   2.928   4.015
 6366SOL    HW219473   3.723   2.853   4.056
 6367SOL     OW19474   4.599   3.508   4.061
 6367SOL    HW119475   4.522   3.473   4.007
 6367SOL    HW219476   4.567   3.579   4.123
 6368SOL     OW19477   3.954   2.490   5.699
 6368SOL    HW119478   3.861   2.488   5.736
 6368SOL    HW219479   3.955   2.451   5.607
 6369SOL     OW19480   3.949   2.137   6.582
 6369SOL    HW119481   3.984   2.120   6.674
 6369SOL    HW219482   3.861   2.092   6.570
 6370SOL     OW19483   3.743   2.230   6.233
 6370SOL    HW119484   3.661   2.273   6.272
 6370SOL    HW219485   3.715   2.157   6.170
 6371SOL     OW19486   4.293   3.137   6.751
 6371SOL    HW119487   4.200   3.130   6.714
 6371SOL    HW219488   4.304   3.226   6.795
 6372SOL     OW19489   5.279   3.373   6.289
 6372SOL    HW119490   5.222   3.357   6.370
 6372SOL    HW219491   5.220   3.383   6.209
 6373SOL     OW19492   4.859   2.565   6.303
 6373SOL    HW119493   4.916   2.643   6.278
 6373SOL    HW219494   4.799   2.591   6.379
 6374SOL     OW19495   4.492   3.006   6.609
 6374SOL    HW119496   4.414   3.023   6.669
 6374SOL    HW219497   4.526   3.093   6.573
 6375SOL     OW19498   4.574   2.660   7.409
 6375SOL    HW119499   4.570   2.736   7.474
 6375SOL    HW219500   4.596   2.696   7.318
 6376SOL     OW19501   4.409   2.874   6.251
 6376SOL    HW119502   4.478   2.858   6.321
 6376SOL    HW219503   4.336   2.931   6.289
 6377SOL     OW19504   4.410   3.023   7.389
 6377SOL    HW119505   4.470   3.102   7.403
 6377SOL    HW219506   4.324   3.054   7.348
 6378SOL     OW19507   4.059   3.297   6.647
 6378SOL    HW119508   3.981   3.266   6.594
 6378SOL    HW219509   4.117   3.355   6.590
 6379SOL     OW19510   5.184   3.367   6.925
 6379SOL    HW119511   5.208   3.461   6.951
 6379SOL    HW219512   5.168   3.313   7.007
 6380SOL     OW19513   4.162   2.254   7.085
 6380SOL    HW119514   4.244   2.198   7.094
 6380SOL    HW219515   4.081   2.196   7.089
 6381SOL     OW19516   3.955   3.575   6.069
 6381SOL    HW119517   3.989   3.652   6.123
 6381SOL    HW219518   3.999   3.575   5.979
 6382SOL     OW19519   4.851   3.203   7.276
 6382SOL    HW119520   4.898   3.203   7.364
 6382SOL    HW219521   4.803   3.116   7.265
 6383SOL     OW19522   3.954   3.296   6.124
 6383SOL    HW119523   3.928   3.392   6.124
 6383SOL    HW219524   3.883   3.242   6.169
 6384SOL     OW19525   3.964   2.953   6.472
 6384SOL    HW119526   3.978   2.869   6.524
 6384SOL    HW219527   3.909   3.017   6.527
 6385SOL     OW19528   4.344   3.648   7.025
 6385SOL    HW119529   4.252   3.631   7.060
 6385SOL    HW219530   4.372   3.740   7.051
 6386SOL     OW19531   4.330   2.826   5.709
 6386SOL    HW119532   4.337   2.910   5.655
 6386SOL    HW219533   4.376   2.839   5.797
 6387SOL     OW19534   3.846   2.505   6.149
 6387SOL    HW119535   3.801   2.417   6.166
 6387SOL    HW219536   3.845   2.559   6.233
 6388SOL     OW19537   3.751   3.458   5.703
 6388SOL    HW119538   3.732   3.362   5.724
 6388SOL    HW219539   3.718   3.516   5.778
 6389SOL     OW19540   5.413   2.784   6.198
 6389SOL    HW119541   5.508   2.755   6.206
 6389SOL    HW219542   5.405   2.849   6.123
 6390SOL     OW19543   3.837   2.599   7.183
 6390SOL    HW119544   3.925   2.586   7.228
 6390SOL    HW219545   3.824   2.696   7.161
 6391SOL     OW19546   4.337   3.227   6.312
 6391SOL    HW119547   4.288   3.140   6.321
 6391SOL    HW219548   4.314   3.270   6.225
 6392SOL     OW19549   5.017   3.090   7.009
 6392SOL    HW119550   5.054   3.017   6.951
 6392SOL    HW219551   5.069   3.095   7.094
 6393SOL     OW19552   4.533   1.866   6.088
 6393SOL    HW119553   4.573   1.957   6.079
 6393SOL    HW219554   4.433   1.874   6.094
 6394SOL     OW19555   3.921   2.838   6.850
 6394SOL    HW119556   4.010   2.793   6.836
 6394SOL    HW219557   3.848   2.773   6.831
 6395SOL     OW19558   4.911   3.654   7.202
 6395SOL    HW119559   4.935   3.714   7.126
 6395SOL    HW219560   4.918   3.559   7.172
 6396SOL     OW19561   4.041   2.113   7.387
 6396SOL    HW119562   4.112   2.184   7.393
 6396SOL    HW219563   3.953   2.152   7.415
 6397SOL     OW19564   5.190   3.279   6.539
 6397SOL    HW119565   5.131   3.285   6.619
 6397SOL    HW219566   5.175   3.191   6.493
 6398SOL     OW19567   4.322   2.591   5.856
 6398SOL    HW119568   4.346   2.660   5.788
 6398SOL    HW219569   4.244   2.624   5.910
 6399SOL     OW19570   5.005   2.207   6.530
 6399SOL    HW119571   4.919   2.157   6.517
 6399SOL    HW219572   5.067   2.153   6.586
 6400SOL     OW19573   4.531   2.467   7.051
 6400SOL    HW119574   4.484   2.464   7.140
 6400SOL    HW219575   4.480   2.412   6.985
 6401SOL     OW19576   5.118   2.331   7.260
 6401SOL    HW119577   5.098   2.374   7.348
 6401SOL    HW219578   5.196   2.269   7.269
 6402SOL     OW19579   4.697   2.752   7.158
 6402SOL    HW119580   4.743   2.668   7.129
 6402SOL    HW219581   4.641   2.786   7.083
 6403SOL     OW19582   4.715   2.272   6.828
 6403SOL    HW119583   4.638   2.306   6.882
 6403SOL    HW219584   4.681   2.221   6.749
 6404SOL     OW19585   4.765   2.563   6.015
 6404SOL    HW119586   4.791   2.559   6.111
 6404SOL    HW219587   4.680   2.512   6.001
 6405SOL     OW19588   3.800   2.673   6.375
 6405SOL    HW119589   3.899   2.661   6.384
 6405SOL    HW219590   3.776   2.768   6.396
 6406SOL     OW19591   3.854   3.683   7.157
 6406SOL    HW119592   3.844   3.668   7.256
 6406SOL    HW219593   3.768   3.719   7.121
 6407SOL     OW19594   4.589   2.210   5.781
 6407SOL    HW119595   4.648   2.273   5.732
 6407SOL    HW219596   4.608   2.116   5.752
 6408SOL     OW19597   5.086   3.006   6.131
 6408SOL    HW119598   5.169   2.977   6.083
 6408SOL    HW219599   5.037   3.073   6.075
 6409SOL     OW19600   4.274   2.058   6.471
 6409SOL    HW119601   4.269   2.053   6.571
 6409SOL    HW219602   4.276   2.154   6.442
 6410SOL     OW19603   4.732   3.318   6.063
 6410SOL    HW119604   4.686   3.390   6.011
 6410SOL    HW219605   4.728   3.338   6.161
 6411SOL     OW19606   4.075   3.663   6.439
 6411SOL    HW119607   4.125   3.577   6.445
 6411SOL    HW219608   4.140   3.740   6.436
 6412SOL     OW19609   4.951   3.412   7.092
 6412SOL    HW119610   4.957   3.335   7.156
 6412SOL    HW219611   4.899   3.386   7.012
 6413SOL     OW19612   4.045   2.805   5.828
 6413SOL    HW119613   4.127   2.844   5.786
 6413SOL    HW219614   4.018   2.723   5.779
 6414SOL     OW19615   4.185   3.128   7.313
 6414SOL    HW119616   4.135   3.129   7.227
 6414SOL    HW219617   4.122   3.110   7.389
 6415SOL     OW19618   4.835   3.638   5.823
 6415SOL    HW119619   4.775   3.576   5.873
 6415SOL    HW219620   4.866   3.594   5.738
 6416SOL     OW19621   3.926   2.147   7.084
 6416SOL    HW119622   3.846   2.207   7.071
 6416SOL    HW219623   3.916   2.098   7.170
 6417SOL     OW19624   4.188   3.605   5.909
 6417SOL    HW119625   4.221   3.644   5.995
 6417SOL    HW219626   4.264   3.598   5.844
 6418SOL     OW19627   5.124   1.969   6.012
 6418SOL    HW119628   5.100   1.932   5.922
 6418SOL    HW219629   5.223   1.985   6.016
 6419SOL     OW19630   3.973   3.647   6.827
 6419SOL    HW119631   4.030   3.582   6.877
 6419SOL    HW219632   3.957   3.614   6.734
 6420SOL     OW19633   4.664   3.560   6.490
 6420SOL    HW119634   4.744   3.503   6.511
 6420SOL    HW219635   4.615   3.520   6.413
 6421SOL     OW19636   4.106   2.562   6.066
 6421SOL    HW119637   4.151   2.472   6.063
 6421SOL    HW219638   4.012   2.551   6.099
 6422SOL     OW19639   4.338   1.984   5.703
 6422SOL    HW119640   4.436   1.962   5.710
 6422SOL    HW219641   4.307   1.967   5.610
 6423SOL     OW19642   4.505   2.126   7.335
 6423SOL    HW119643   4.572   2.065   7.378
 6423SOL    HW219644   4.432   2.145   7.400
 6424SOL     OW19645   4.612   3.376   6.781
 6424SOL    HW119646   4.589   3.351   6.687
 6424SOL    HW219647   4.673   3.307   6.820
 6425SOL     OW19648   5.075   2.452   7.019
 6425SOL    HW119649   5.103   2.409   7.104
 6425SOL    HW219650   5.100   2.548   7.020
 6426SOL     OW19651   4.527   3.264   6.510
 6426SOL    HW119652   4.617   3.278   6.468
 6426SOL    HW219653   4.456   3.266   6.439
 6427SOL     OW19654   4.646   2.365   6.485
 6427SOL    HW119655   4.621   2.356   6.389
 6427SOL    HW219656   4.694   2.283   6.516
 6428SOL     OW19657   4.263   1.926   6.098
 6428SOL    HW119658   4.182   1.927   6.156
 6428SOL    HW219659   4.266   2.009   6.043
 6429SOL     OW19660   5.158   3.050   5.627
 6429SOL    HW119661   5.190   2.974   5.684
 6429SOL    HW219662   5.066   3.077   5.657
 6430SOL     OW19663   4.021   1.897   5.757
 6430SOL    HW119664   4.070   1.981   5.736
 6430SOL    HW219665   4.083   1.832   5.802
 6431SOL     OW19666   4.659   2.098   6.066
 6431SOL    HW119667   4.611   2.139   5.988
 6431SOL    HW219668   4.758   2.096   6.047
 6432SOL     OW19669   4.800   2.545   7.050
 6432SOL    HW119670   4.720   2.484   7.053
 6432SOL    HW219671   4.881   2.492   7.026
 6433SOL     OW19672   4.951   3.432   6.379
 6433SOL    HW119673   4.972   3.506   6.314
 6433SOL    HW219674   5.019   3.432   6.452
 6434SOL     OW19675   4.183   3.014   6.327
 6434SOL    HW119676   4.112   2.987   6.392
 6434SOL    HW219677   4.157   2.986   6.234
 6435SOL     OW19678   4.995   3.659   6.177
 6435SOL    HW119679   5.039   3.723   6.113
 6435SOL    HW219680   4.945   3.711   6.247
 6436SOL     OW19681   4.756   2.411   5.602
 6436SOL    HW119682   4.715   2.493   5.563
 6436SOL    HW219683   4.820   2.437   5.675
 6437SOL     OW19684   3.802   2.418   6.972
 6437SOL    HW119685   3.894   2.417   6.931
 6437SOL    HW219686   3.796   2.492   7.039
 6438SOL     OW19687   4.285   2.084   6.733
 6438SOL    HW119688   4.323   2.000   6.770
 6438SOL    HW219689   4.197   2.103   6.777
 6439SOL     OW19690   4.590   2.316   6.228
 6439SOL    HW119691   4.558   2.388   6.166
 6439SOL    HW219692   4.614   2.235   6.175
 6440SOL     OW19693   4.741   1.901   6.339
 6440SOL    HW119694   4.669   1.906   6.270
 6440SOL    HW219695   4.717   1.832   6.408
 6441SOL     OW19696   5.153   3.035   6.453
 6441SOL    HW119697   5.098   2.951   6.446
 6441SOL    HW219698   5.179   3.064   6.361
 6442SOL     OW19699   4.212   3.247   5.760
 6442SOL    HW119700   4.125   3.232   5.807
 6442SOL    HW219701   4.195   3.273   5.665
 6443SOL     OW19702   5.114   2.437   5.664
 6443SOL    HW119703   5.060   2.416   5.745
 6443SOL    HW219704   5.205   2.396   5.673
 6444SOL     OW19705   4.251   2.118   5.914
 6444SOL    HW119706   4.278   2.059   5.839
 6444SOL    HW219707   4.251   2.213   5.883
 6445SOL     OW19708   4.788   3.209   6.926
 6445SOL    HW119709   4.708   3.186   6.981
 6445SOL    HW219710   4.871   3.183   6.975
 6446SOL     OW19711   5.316   3.491   7.211
 6446SOL    HW119712   5.343   3.525   7.121
 6446SOL    HW219713   5.395   3.453   7.257
 6447SOL     OW19714   4.835   3.057   6.686
 6447SOL    HW119715   4.795   3.101   6.767
 6447SOL    HW219716   4.794   3.094   6.603
 6448SOL     OW19717   4.639   1.951   6.988
 6448SOL    HW119718   4.664   1.931   6.893
 6448SOL    HW219719   4.711   2.007   7.030
 6449SOL     OW19720   4.704   2.978   7.305
 6449SOL    HW119721   4.605   2.984   7.315
 6449SOL    HW219722   4.727   2.898   7.249
 6450SOL     OW19723   4.429   2.912   5.954
 6450SOL    HW119724   4.415   2.919   6.053
 6450SOL    HW219725   4.513   2.861   5.936
 6451SOL     OW19726   4.134   2.675   6.837
 6451SOL    HW119727   4.220   2.687   6.887
 6451SOL    HW219728   4.092   2.588   6.864
 6452SOL     OW19729   4.998   2.248   6.848
 6452SOL    HW119730   5.019   2.322   6.912
 6452SOL    HW219731   4.909   2.265   6.805
 6453SOL     OW19732   3.788   3.426   6.917
 6453SOL    HW119733   3.742   3.508   6.883
 6453SOL    HW219734   3.886   3.445   6.926
 6454SOL     OW19735   4.091   2.962   6.087
 6454SOL    HW119736   4.084   3.045   6.031
 6454SOL    HW219737   4.095   2.882   6.027
 6455SOL     OW19738   4.290   2.399   6.451
 6455SOL    HW119739   4.302   2.465   6.377
 6455SOL    HW219740   4.336   2.433   6.534
 6456SOL     OW19741   4.976   3.210   5.974
 6456SOL    HW119742   5.026   3.287   6.014
 6456SOL    HW219743   4.881   3.212   6.006
 6457SOL     OW19744   4.996   3.307   6.728
 6457SOL    HW119745   5.043   3.320   6.815
 6457SOL    HW219746   4.930   3.233   6.737
 6458SOL     OW19747   4.078   3.372   6.915
 6458SOL    HW119748   4.057   3.328   6.828
 6458SOL    HW219749   4.175   3.398   6.918
 6459SOL     OW19750   4.126   2.613   7.184
 6459SOL    HW119751   4.194   2.668   7.137
 6459SOL    HW219752   4.166   2.525   7.211
 6460SOL     OW19753   4.737   1.967   7.356
 6460SOL    HW119754   4.743   2.052   7.304
 6460SOL    HW219755   4.769   1.891   7.299
 6461SOL     OW19756   4.228   1.912   7.326
 6461SOL    HW119757   4.186   1.855   7.256
 6461SOL    HW219758   4.162   1.981   7.358
 6462SOL     OW19759   4.297   2.732   6.615
 6462SOL    HW119760   4.341   2.821   6.606
 6462SOL    HW219761   4.234   2.732   6.692
 6463SOL     OW19762   5.084   2.724   6.631
 6463SOL    HW119763   5.009   2.724   6.565
 6463SOL    HW219764   5.121   2.632   6.640
 6464SOL     OW19765   4.933   2.387   5.861
 6464SOL    HW119766   4.946   2.303   5.915
 6464SOL    HW219767   4.904   2.461   5.921
 6465SOL     OW19768   4.031   2.075   6.817
 6465SOL    HW119769   4.008   2.112   6.907
 6465SOL    HW219770   4.001   1.980   6.811
 6466SOL     OW19771   3.761   3.172   6.868
 6466SOL    HW119772   3.814   3.123   6.936
 6466SOL    HW219773   3.783   3.270   6.873
 6467SOL     OW19774   4.456   2.496   6.650
 6467SOL    HW119775   4.515   2.470   6.574
 6467SOL    HW219776   4.428   2.592   6.639
 6468SOL     OW19777   4.031   1.925   6.204
 6468SOL    HW119778   4.020   2.019   6.237
 6468SOL    HW219779   4.026   1.862   6.281
 6469SOL     OW19780   5.346   2.229   5.960
 6469SOL    HW119781   5.348   2.153   6.024
 6469SOL    HW219782   5.298   2.306   6.000
 6470SOL     OW19783   4.747   2.628   6.552
 6470SOL    HW119784   4.762   2.649   6.648
 6470SOL    HW219785   4.717   2.533   6.543
 6471SOL     OW19786   4.704   3.435   7.286
 6471SOL    HW119787   4.684   3.479   7.198
 6471SOL    HW219788   4.743   3.344   7.270
 6472SOL     OW19789   4.074   2.760   7.390
 6472SOL    HW119790   4.150   2.804   7.438
 6472SOL    HW219791   4.109   2.713   7.308
 6473SOL     OW19792   5.027   2.700   5.628
 6473SOL    HW119793   5.061   2.607   5.643
 6473SOL    HW219794   5.045   2.727   5.533
 6474SOL     OW19795   4.792   3.195   6.435
 6474SOL    HW119796   4.799   3.111   6.380
 6474SOL    HW219797   4.854   3.264   6.399
 6475SOL     OW19798   4.043   2.672   6.535
 6475SOL    HW119799   4.136   2.708   6.540
 6475SOL    HW219800   4.037   2.587   6.587
 6476SOL     OW19801   4.063   2.371   6.592
 6476SOL    HW119802   4.011   2.288   6.575
 6476SOL    HW219803   4.140   2.376   6.528
 6477SOL     OW19804   4.862   2.242   7.264
 6477SOL    HW119805   4.817   2.305   7.328
 6477SOL    HW219806   4.955   2.273   7.247
 6478SOL     OW19807   4.884   2.069   7.063
 6478SOL    HW119808   4.884   2.133   7.140
 6478SOL    HW219809   4.912   2.117   6.980
 6479SOL     OW19810   3.732   3.188   5.786
 6479SOL    HW119811   3.639   3.209   5.755
 6479SOL    HW219812   3.742   3.089   5.799
 6480SOL     OW19813   3.812   3.663   6.513
 6480SOL    HW119814   3.770   3.577   6.486
 6480SOL    HW219815   3.906   3.666   6.479
 6481SOL     OW19816   4.228   3.430   6.496
 6481SOL    HW119817   4.294   3.504   6.505
 6481SOL    HW219818   4.272   3.351   6.454
 6482SOL     OW19819   4.726   2.658   6.824
 6482SOL    HW119820   4.767   2.626   6.910
 6482SOL    HW219821   4.630   2.631   6.821
 6483SOL     OW19822   3.764   2.406   6.700
 6483SOL    HW119823   3.849   2.373   6.659
 6483SOL    HW219824   3.777   2.421   6.798
 6484SOL     OW19825   3.913   2.382   7.308
 6484SOL    HW119826   3.972   2.342   7.238
 6484SOL    HW219827   3.855   2.453   7.267
 6485SOL     OW19828   5.093   2.812   7.246
 6485SOL    HW119829   5.132   2.901   7.266
 6485SOL    HW219830   5.103   2.792   7.149
 6486SOL     OW19831   4.539   2.434   5.911
 6486SOL    HW119832   4.546   2.345   5.865
 6486SOL    HW219833   4.445   2.468   5.903
 6487SOL     OW19834   3.976   3.426   7.330
 6487SOL    HW119835   3.946   3.483   7.406
 6487SOL    HW219836   3.969   3.329   7.356
 6488SOL     OW19837   4.395   2.326   6.855
 6488SOL    HW119838   4.361   2.237   6.825
 6488SOL    HW219839   4.421   2.380   6.775
 6489SOL     OW19840   4.654   3.540   7.051
 6489SOL    HW119841   4.630   3.522   6.956
 6489SOL    HW219842   4.684   3.634   7.061
 6490SOL     OW19843   4.197   2.362   5.777
 6490SOL    HW119844   4.258   2.442   5.781
 6490SOL    HW219845   4.102   2.393   5.784
 6491SOL     OW19846   3.883   2.999   7.052
 6491SOL    HW119847   3.905   2.938   7.128
 6491SOL    HW219848   3.893   2.950   6.966
 6492SOL     OW19849   5.071   2.921   6.820
 6492SOL    HW119850   5.095   2.858   6.746
 6492SOL    HW219851   4.981   2.961   6.802
 6493SOL     OW19852   5.026   2.717   5.895
 6493SOL    HW119853   4.940   2.686   5.937
 6493SOL    HW219854   5.022   2.703   5.796
 6494SOL     OW19855   4.976   3.593   6.714
 6494SOL    HW119856   5.060   3.598   6.660
 6494SOL    HW219857   4.953   3.497   6.732
 6495SOL     OW19858   3.807   3.120   6.608
 6495SOL    HW119859   3.802   3.119   6.708
 6495SOL    HW219860   3.724   3.079   6.570
 6496SOL     OW19861   4.412   3.524   7.302
 6496SOL    HW119862   4.356   3.605   7.311
 6496SOL    HW219863   4.464   3.528   7.216
 6497SOL     OW19864   5.450   1.997   6.109
 6497SOL    HW119865   5.523   1.980   6.042
 6497SOL    HW219866   5.419   1.910   6.147
 6498SOL     OW19867   5.112   3.435   6.063
 6498SOL    HW119868   5.179   3.447   5.989
 6498SOL    HW219869   5.072   3.524   6.086
 6499SOL     OW19870   3.854   3.656   7.437
 6499SOL    HW119871   3.813   3.582   7.490
 6499SOL    HW219872   3.918   3.707   7.495
 6500SOL     OW19873   5.004   2.789   6.258
 6500SOL    HW119874   5.064   2.708   6.260
 6500SOL    HW219875   5.044   2.858   6.198
 6501SOL     OW19876   4.554   3.135   7.008
 6501SOL    HW119877   4.549   3.168   7.103
 6501SOL    HW219878   4.468   3.154   6.962
 6502SOL     OW19879   4.396   3.478   5.740
 6502SOL    HW119880   4.405   3.488   5.641
 6502SOL    HW219881   4.356   3.389   5.761
 6503SOL     OW19882   3.987   2.188   6.306
 6503SOL    HW119883   3.908   2.239   6.272
 6503SOL    HW219884   3.978   2.173   6.404
 6504SOL     OW19885   4.918   3.474   5.617
 6504SOL    HW119886   4.924   3.381   5.654
 6504SOL    HW219887   4.859   3.474   5.537
 6505SOL     OW19888   4.546   2.864   6.958
 6505SOL    HW119889   4.586   2.863   6.866
 6505SOL    HW219890   4.556   2.956   6.998
 6506SOL     OW19891   4.640   2.772   5.877
 6506SOL    HW119892   4.703   2.810   5.809
 6506SOL    HW219893   4.680   2.689   5.916
 6507SOL     OW19894   4.096   3.150   7.076
 6507SOL    HW119895   4.083   3.243   7.042
 6507SOL    HW219896   4.012   3.098   7.063
 6508SOL     OW19897   4.763   2.960   6.282
 6508SOL    HW119898   4.693   2.913   6.336
 6508SOL    HW219899   4.822   2.892   6.239
 6509SOL     OW19900   4.738   2.098   6.557
 6509SOL    HW119901   4.730   2.062   6.464
 6509SOL    HW219902   4.736   2.022   6.622
 6510SOL     OW19903   4.314   3.349   6.077
 6510SOL    HW119904   4.356   3.291   6.007
 6510SOL    HW219905   4.270   3.428   6.033
 6511SOL     OW19906   3.979   3.210   5.876
 6511SOL    HW119907   3.883   3.211   5.849
 6511SOL    HW219908   3.991   3.263   5.960
 6512SOL     OW19909   3.829   2.875   7.312
 6512SOL    HW119910   3.752   2.842   7.366
 6512SOL    HW219911   3.914   2.845   7.354
 6513SOL     OW19912   4.396   2.065   7.075
 6513SOL    HW119913   4.486   2.049   7.035
 6513SOL    HW219914   4.404   2.070   7.174
 6514SOL     OW19915   3.799   2.207   5.619
 6514SOL    HW119916   3.707   2.179   5.590
 6514SOL    HW219917   3.830   2.284   5.563
 6515SOL     OW19918   5.164   2.718   6.984
 6515SOL    HW119919   5.107   2.770   6.921
 6515SOL    HW219920   5.260   2.730   6.960
 6516SOL     OW19921   3.796   2.028   5.904
 6516SOL    HW119922   3.779   2.111   5.850
 6516SOL    HW219923   3.886   1.991   5.882
 6517SOL     OW19924   4.907   3.197   5.705
 6517SOL    HW119925   4.808   3.186   5.707
 6517SOL    HW219926   4.941   3.212   5.798
 6518SOL     OW19927   4.337   2.704   7.017
 6518SOL    HW119928   4.393   2.785   7.000
 6518SOL    HW219929   4.396   2.624   7.020
 6519SOL     OW19930   4.440   2.427   7.294
 6519SOL    HW119931   4.459   2.492   7.368
 6519SOL    HW219932   4.500   2.347   7.303
 6520SOL     OW19933   5.174   3.082   7.219
 6520SOL    HW119934   5.165   3.072   7.318
 6520SOL    HW219935   5.270   3.075   7.193
 6521SOL     OW19936   4.114   3.603   7.146
 6521SOL    HW119937   4.023   3.644   7.144
 6521SOL    HW219938   4.107   3.509   7.178
 6522SOL     OW19939   4.949   2.187   6.035
 6522SOL    HW119940   5.014   2.113   6.024
 6522SOL    HW219941   4.969   2.237   6.119
 6523SOL     OW19942   4.318   2.607   6.238
 6523SOL    HW119943   4.368   2.692   6.219
 6523SOL    HW219944   4.230   2.609   6.190
 6524SOL     OW19945   4.583   3.236   5.602
 6524SOL    HW119946   4.537   3.251   5.690
 6524SOL    HW219947   4.627   3.321   5.572
 6525SOL     OW19948   4.385   3.652   6.539
 6525SOL    HW119949   4.339   3.740   6.526
 6525SOL    HW219950   4.484   3.664   6.532
 6526SOL     OW19951   4.583   2.818   6.447
 6526SOL    HW119952   4.637   2.749   6.495
 6526SOL    HW219953   4.551   2.887   6.513
 6527SOL     OW19954   4.807   2.846   5.673
 6527SOL    HW119955   4.784   2.899   5.591
 6527SOL    HW219956   4.888   2.790   5.654
 6528SOL     OW19957   3.945   3.176   7.430
 6528SOL    HW119958   3.880   3.103   7.409
 6528SOL    HW219959   3.949   3.190   7.528
 6529SOL     OW19960   3.803   3.102   6.239
 6529SOL    HW119961   3.802   3.055   6.327
 6529SOL    HW219962   3.885   3.074   6.188
 6530SOL     OW19963   4.396   3.253   7.210
 6530SOL    HW119964   4.318   3.203   7.248
 6530SOL    HW219965   4.393   3.348   7.241
 6531SOL     OW19966   4.152   2.286   6.106
 6531SOL    HW119967   4.182   2.214   6.044
 6531SOL    HW219968   4.113   2.246   6.189
 6532SOL     OW19969   5.429   3.349   6.690
 6532SOL    HW119970   5.336   3.324   6.663
 6532SOL    HW219971   5.455   3.299   6.772
 6533SOL     OW19972   4.041   2.409   6.866
 6533SOL    HW119973   4.079   2.350   6.938
 6533SOL    HW219974   4.081   2.383   6.778
 6534SOL     OW19975   4.536   3.448   6.273
 6534SOL    HW119976   4.568   3.458   6.179
 6534SOL    HW219977   4.457   3.386   6.275
 6535SOL     OW19978   5.148   2.076   6.698
 6535SOL    HW119979   5.200   2.011   6.753
 6535SOL    HW219980   5.099   2.139   6.759
 6536SOL     OW19981   4.725   1.896   6.740
 6536SOL    HW119982   4.662   1.824   6.709
 6536SOL    HW219983   4.818   1.860   6.740
 6537SOL     OW19984   4.494   3.192   5.887
 6537SOL    HW119985   4.448   3.105   5.904
 6537SOL    HW219986   4.585   3.189   5.928
 6538SOL     OW19987   4.342   3.429   6.870
 6538SOL    HW119988   4.337   3.511   6.927
 6538SOL    HW219989   4.431   3.426   6.825
 6539SOL     OW19990   5.076   1.914   5.754
 6539SOL    HW119991   5.111   1.873   5.670
 6539SOL    HW219992   4.986   1.876   5.774
 6540SOL     OW19993   5.024   2.315   6.277
 6540SOL    HW119994   4.965   2.395   6.281
 6540SOL    HW219995   5.039   2.280   6.370
 6541SOL     OW19996   5.317   2.083   6.468
 6541SOL    HW119997   5.233   2.082   6.522
 6541SOL    HW219998   5.319   2.166   6.412
 6542SOL     OW19999   3.763   2.939   5.886
 6542SOL    HW120000   3.862   2.928   5.877
 6542SOL    HW220001   3.723   2.853   5.918
 6543SOL     OW20002   4.599   3.508   5.923
 6543SOL    HW120003   4.522   3.473   5.869
 6543SOL    HW220004   4.567   3.579   5.985
 6544SOL     OW20005   3.954   2.490   7.561
 6544SOL    HW120006   3.861   2.488   7.598
 6544SOL    HW220007   3.955   2.451   7.469
 6545SOL     OW20008   3.955   3.575   7.931
 6545SOL    HW120009   3.989   3.652   7.985
 6545SOL    HW220010   3.999   3.575   7.841
 6546SOL     OW20011   3.954   3.296   7.986
 6546SOL    HW120012   3.928   3.392   7.986
 6546SOL    HW220013   3.883   3.242   8.031
 6547SOL     OW20014   4.330   2.826   7.571
 6547SOL    HW120015   4.337   2.910   7.517
 6547SOL    HW220016   4.376   2.839   7.659
 6548SOL     OW20017   3.751   3.458   7.565
 6548SOL    HW120018   3.732   3.362   7.586
 6548SOL    HW220019   3.718   3.516   7.640
 6549SOL     OW20020   5.413   2.784   8.060
 6549SOL    HW120021   5.508   2.755   8.068
 6549SOL    HW220022   5.405   2.849   7.985
 6550SOL     OW20023   4.533   1.866   7.950
 6550SOL    HW120024   4.573   1.957   7.941
 6550SOL    HW220025   4.433   1.874   7.956
 6551SOL     OW20026   4.322   2.591   7.718
 6551SOL    HW120027   4.346   2.660   7.650
 6551SOL    HW220028   4.244   2.624   7.772
 6552SOL     OW20029   3.800   2.673   8.237
 6552SOL    HW120030   3.899   2.661   8.246
 6552SOL    HW220031   3.776   2.768   8.258
 6553SOL     OW20032   4.589   2.210   7.643
 6553SOL    HW120033   4.648   2.273   7.594
 6553SOL    HW220034   4.608   2.116   7.614
 6554SOL     OW20035   4.045   2.805   7.690
 6554SOL    HW120036   4.127   2.844   7.648
 6554SOL    HW220037   4.018   2.723   7.641
 6555SOL     OW20038   4.835   3.638   7.685
 6555SOL    HW120039   4.775   3.576   7.735
 6555SOL    HW220040   4.866   3.594   7.600
 6556SOL     OW20041   4.188   3.605   7.771
 6556SOL    HW120042   4.221   3.644   7.857
 6556SOL    HW220043   4.264   3.598   7.706
 6557SOL     OW20044   5.124   1.969   7.874
 6557SOL    HW120045   5.100   1.932   7.784
 6557SOL    HW220046   5.223   1.985   7.878
 6558SOL     OW20047   4.106   2.562   7.928
 6558SOL    HW120048   4.151   2.472   7.925
 6558SOL    HW220049   4.012   2.551   7.961
 6559SOL     OW20050   4.338   1.984   7.565
 6559SOL    HW120051   4.436   1.962   7.572
 6559SOL    HW220052   4.307   1.967   7.472
 6560SOL     OW20053   4.263   1.926   7.960
 6560SOL    HW120054   4.182   1.927   8.018
 6560SOL    HW220055   4.266   2.009   7.905
 6561SOL     OW20056   5.158   3.050   7.489
 6561SOL    HW120057   5.190   2.974   7.546
 6561SOL    HW220058   5.066   3.077   7.519
 6562SOL     OW20059   4.021   1.897   7.619
 6562SOL    HW120060   4.070   1.981   7.598
 6562SOL    HW220061   4.083   1.832   7.664
 6563SOL     OW20062   4.659   2.098   7.928
 6563SOL    HW120063   4.611   2.139   7.850
 6563SOL    HW220064   4.758   2.096   7.909
 6564SOL     OW20065   4.183   3.014   8.189
 6564SOL    HW120066   4.112   2.987   8.254
 6564SOL    HW220067   4.157   2.986   8.096
 6565SOL     OW20068   4.995   3.659   8.039
 6565SOL    HW120069   5.039   3.723   7.975
 6565SOL    HW220070   4.945   3.711   8.109
 6566SOL     OW20071   4.756   2.411   7.464
 6566SOL    HW120072   4.715   2.493   7.425
 6566SOL    HW220073   4.820   2.437   7.537
 6567SOL     OW20074   4.212   3.247   7.622
 6567SOL    HW120075   4.125   3.232   7.669
 6567SOL    HW220076   4.195   3.273   7.527
 6568SOL     OW20077   5.114   2.437   7.526
 6568SOL    HW120078   5.060   2.416   7.607
 6568SOL    HW220079   5.205   2.396   7.535
 6569SOL     OW20080   4.251   2.118   7.776
 6569SOL    HW120081   4.278   2.059   7.701
 6569SOL    HW220082   4.251   2.213   7.745
 6570SOL     OW20083   4.429   2.912   7.816
 6570SOL    HW120084   4.415   2.919   7.915
 6570SOL    HW220085   4.513   2.861   7.798
 6571SOL     OW20086   4.091   2.962   7.949
 6571SOL    HW120087   4.084   3.045   7.893
 6571SOL    HW220088   4.095   2.882   7.889
 6572SOL     OW20089   4.976   3.210   7.836
 6572SOL    HW120090   5.026   3.287   7.876
 6572SOL    HW220091   4.881   3.212   7.868
 6573SOL     OW20092   5.306   2.501   7.920
 6573SOL    HW120093   5.275   2.562   7.993
 6573SOL    HW220094   5.356   2.553   7.851
 6574SOL     OW20095   4.933   2.387   7.723
 6574SOL    HW120096   4.946   2.303   7.777
 6574SOL    HW220097   4.904   2.461   7.783
 6575SOL     OW20098   5.346   2.229   7.822
 6575SOL    HW120099   5.348   2.153   7.886
 6575SOL    HW220100   5.298   2.306   7.862
 6576SOL     OW20101   5.027   2.700   7.490
 6576SOL    HW120102   5.061   2.607   7.505
 6576SOL    HW220103   5.045   2.727   7.395
 6577SOL     OW20104   3.732   3.188   7.648
 6577SOL    HW120105   3.639   3.209   7.617
 6577SOL    HW220106   3.742   3.089   7.661
 6578SOL     OW20107   4.539   2.434   7.773
 6578SOL    HW120108   4.546   2.345   7.727
 6578SOL    HW220109   4.445   2.468   7.765
 6579SOL     OW20110   4.197   2.362   7.639
 6579SOL    HW120111   4.258   2.442   7.643
 6579SOL    HW220112   4.102   2.393   7.646
 6580SOL     OW20113   5.026   2.717   7.757
 6580SOL    HW120114   4.940   2.686   7.799
 6580SOL    HW220115   5.022   2.703   7.658
 6581SOL     OW20116   5.450   1.997   7.971
 6581SOL    HW120117   5.523   1.980   7.904
 6581SOL    HW220118   5.419   1.910   8.009
 6582SOL     OW20119   5.112   3.435   7.925
 6582SOL    HW120120   5.179   3.447   7.851
 6582SOL    HW220121   5.072   3.524   7.948
 6583SOL     OW20122   4.396   3.478   7.602
 6583SOL    HW120123   4.405   3.488   7.503
 6583SOL    HW220124   4.356   3.389   7.623
 6584SOL     OW20125   4.918   3.474   7.479
 6584SOL    HW120126   4.924   3.381   7.516
 6584SOL    HW220127   4.859   3.474   7.399
 6585SOL     OW20128   4.640   2.772   7.739
 6585SOL    HW120129   4.703   2.810   7.671
 6585SOL    HW220130   4.680   2.689   7.778
 6586SOL     OW20131   4.314   3.349   7.939
 6586SOL    HW120132   4.356   3.291   7.869
 6586SOL    HW220133   4.270   3.428   7.895
 6587SOL     OW20134   3.979   3.210   7.738
 6587SOL    HW120135   3.883   3.211   7.711
 6587SOL    HW220136   3.991   3.263   7.822
 6588SOL     OW20137   3.799   2.207   7.481
 6588SOL    HW120138   3.707   2.179   7.452
 6588SOL    HW220139   3.830   2.284   7.425
 6589SOL     OW20140   3.796   2.028   7.766
 6589SOL    HW120141   3.779   2.111   7.712
 6589SOL    HW220142   3.886   1.991   7.744
 6590SOL     OW20143   4.907   3.197   7.567
 6590SOL    HW120144   4.808   3.186   7.569
 6590SOL    HW220145   4.941   3.212   7.660
 6591SOL     OW20146   5.217   3.629   8.407
 6591SOL    HW120147   5.250   3.693   8.338
 6591SOL    HW220148   5.283   3.623   8.482
 6592SOL     OW20149   4.949   2.187   7.897
 6592SOL    HW120150   5.014   2.113   7.886
 6592SOL    HW220151   4.969   2.237   7.981
 6593SOL     OW20152   4.318   2.607   8.100
 6593SOL    HW120153   4.368   2.692   8.081
 6593SOL    HW220154   4.230   2.609   8.052
 6594SOL     OW20155   4.583   3.236   7.464
 6594SOL    HW120156   4.537   3.251   7.552
 6594SOL    HW220157   4.627   3.321   7.434
 6595SOL     OW20158   4.807   2.846   7.535
 6595SOL    HW120159   4.784   2.899   7.453
 6595SOL    HW220160   4.888   2.790   7.516
 6596SOL     OW20161   4.152   2.286   7.968
 6596SOL    HW120162   4.182   2.214   7.906
 6596SOL    HW220163   4.113   2.246   8.051
 6597SOL     OW20164   4.494   3.192   7.749
 6597SOL    HW120165   4.448   3.105   7.766
 6597SOL    HW220166   4.585   3.189   7.790
 6598SOL     OW20167   5.076   1.914   7.616
 6598SOL    HW120168   5.111   1.873   7.532
 6598SOL    HW220169   4.986   1.876   7.636
 6599SOL     OW20170   3.763   2.939   7.748
 6599SOL    HW120171   3.862   2.928   7.739
 6599SOL    HW220172   3.723   2.853   7.780
 6600SOL     OW20173   4.599   3.508   7.785
 6600SOL    HW120174   4.522   3.473   7.731
 6600SOL    HW220175   4.567   3.579   7.847
 6601SOL     OW20176   3.954   4.352   0.113
 6601SOL    HW120177   3.861   4.350   0.150
 6601SOL    HW220178   3.955   4.313   0.021
 6602SOL     OW20179   3.949   3.999   0.996
 6602SOL    HW120180   3.984   3.982   1.088
 6602SOL    HW220181   3.861   3.954   0.984
 6603SOL     OW20182   3.743   4.092   0.647
 6603SOL    HW120183   3.661   4.135   0.686
 6603SOL    HW220184   3.715   4.019   0.584
 6604SOL     OW20185   4.293   4.999   1.165
 6604SOL    HW120186   4.200   4.992   1.128
 6604SOL    HW220187   4.304   5.088   1.209
 6605SOL     OW20188   5.279   5.235   0.703
 6605SOL    HW120189   5.222   5.219   0.784
 6605SOL    HW220190   5.220   5.245   0.623
 6606SOL     OW20191   4.859   4.427   0.717
 6606SOL    HW120192   4.916   4.505   0.692
 6606SOL    HW220193   4.799   4.453   0.793
 6607SOL     OW20194   4.492   4.868   1.023
 6607SOL    HW120195   4.414   4.885   1.083
 6607SOL    HW220196   4.526   4.955   0.987
 6608SOL     OW20197   4.574   4.522   1.823
 6608SOL    HW120198   4.570   4.598   1.888
 6608SOL    HW220199   4.596   4.558   1.732
 6609SOL     OW20200   4.409   4.736   0.665
 6609SOL    HW120201   4.478   4.720   0.735
 6609SOL    HW220202   4.336   4.793   0.703
 6610SOL     OW20203   4.410   4.885   1.803
 6610SOL    HW120204   4.470   4.964   1.817
 6610SOL    HW220205   4.324   4.916   1.762
 6611SOL     OW20206   4.059   5.159   1.061
 6611SOL    HW120207   3.981   5.128   1.008
 6611SOL    HW220208   4.117   5.217   1.004
 6612SOL     OW20209   5.184   5.229   1.339
 6612SOL    HW120210   5.208   5.323   1.365
 6612SOL    HW220211   5.168   5.175   1.421
 6613SOL     OW20212   4.162   4.116   1.499
 6613SOL    HW120213   4.244   4.060   1.508
 6613SOL    HW220214   4.081   4.058   1.503
 6614SOL     OW20215   4.851   5.065   1.690
 6614SOL    HW120216   4.898   5.065   1.778
 6614SOL    HW220217   4.803   4.978   1.679
 6615SOL     OW20218   3.954   5.158   0.538
 6615SOL    HW120219   3.928   5.254   0.538
 6615SOL    HW220220   3.883   5.104   0.583
 6616SOL     OW20221   3.964   4.815   0.886
 6616SOL    HW120222   3.978   4.731   0.938
 6616SOL    HW220223   3.909   4.879   0.941
 6617SOL     OW20224   4.330   4.688   0.123
 6617SOL    HW120225   4.337   4.772   0.069
 6617SOL    HW220226   4.376   4.701   0.211
 6618SOL     OW20227   3.846   4.367   0.563
 6618SOL    HW120228   3.801   4.279   0.580
 6618SOL    HW220229   3.845   4.421   0.647
 6619SOL     OW20230   3.751   5.320   0.117
 6619SOL    HW120231   3.732   5.224   0.138
 6619SOL    HW220232   3.718   5.378   0.192
 6620SOL     OW20233   5.413   4.646   0.612
 6620SOL    HW120234   5.508   4.617   0.620
 6620SOL    HW220235   5.405   4.711   0.537
 6621SOL     OW20236   3.837   4.461   1.597
 6621SOL    HW120237   3.925   4.448   1.642
 6621SOL    HW220238   3.824   4.558   1.575
 6622SOL     OW20239   4.337   5.089   0.726
 6622SOL    HW120240   4.288   5.002   0.735
 6622SOL    HW220241   4.314   5.132   0.639
 6623SOL     OW20242   5.017   4.952   1.423
 6623SOL    HW120243   5.054   4.879   1.365
 6623SOL    HW220244   5.069   4.957   1.508
 6624SOL     OW20245   4.533   3.728   0.502
 6624SOL    HW120246   4.573   3.819   0.493
 6624SOL    HW220247   4.433   3.736   0.508
 6625SOL     OW20248   3.921   4.700   1.264
 6625SOL    HW120249   4.010   4.655   1.250
 6625SOL    HW220250   3.848   4.635   1.245
 6626SOL     OW20251   4.041   3.975   1.801
 6626SOL    HW120252   4.112   4.046   1.807
 6626SOL    HW220253   3.953   4.014   1.829
 6627SOL     OW20254   5.190   5.141   0.953
 6627SOL    HW120255   5.131   5.147   1.033
 6627SOL    HW220256   5.175   5.053   0.907
 6628SOL     OW20257   5.391   5.438   0.572
 6628SOL    HW120258   5.350   5.415   0.484
 6628SOL    HW220259   5.373   5.364   0.637
 6629SOL     OW20260   4.322   4.453   0.270
 6629SOL    HW120261   4.346   4.522   0.202
 6629SOL    HW220262   4.244   4.486   0.324
 6630SOL     OW20263   5.005   4.069   0.944
 6630SOL    HW120264   4.919   4.019   0.931
 6630SOL    HW220265   5.067   4.015   1.000
 6631SOL     OW20266   4.531   4.329   1.465
 6631SOL    HW120267   4.484   4.326   1.554
 6631SOL    HW220268   4.480   4.274   1.399
 6632SOL     OW20269   5.118   4.193   1.674
 6632SOL    HW120270   5.098   4.236   1.762
 6632SOL    HW220271   5.196   4.131   1.683
 6633SOL     OW20272   4.697   4.614   1.572
 6633SOL    HW120273   4.743   4.530   1.543
 6633SOL    HW220274   4.641   4.648   1.497
 6634SOL     OW20275   4.715   4.134   1.242
 6634SOL    HW120276   4.638   4.168   1.296
 6634SOL    HW220277   4.681   4.083   1.163
 6635SOL     OW20278   4.765   4.425   0.429
 6635SOL    HW120279   4.791   4.421   0.525
 6635SOL    HW220280   4.680   4.374   0.415
 6636SOL     OW20281   3.800   4.535   0.789
 6636SOL    HW120282   3.899   4.523   0.798
 6636SOL    HW220283   3.776   4.630   0.810
 6637SOL     OW20284   4.589   4.072   0.195
 6637SOL    HW120285   4.648   4.135   0.146
 6637SOL    HW220286   4.608   3.978   0.166
 6638SOL     OW20287   5.086   4.868   0.545
 6638SOL    HW120288   5.169   4.839   0.497
 6638SOL    HW220289   5.037   4.935   0.489
 6639SOL     OW20290   4.274   3.920   0.885
 6639SOL    HW120291   4.269   3.915   0.985
 6639SOL    HW220292   4.276   4.016   0.856
 6640SOL     OW20293   4.732   5.180   0.477
 6640SOL    HW120294   4.686   5.252   0.425
 6640SOL    HW220295   4.728   5.200   0.575
 6641SOL     OW20296   4.951   5.274   1.506
 6641SOL    HW120297   4.957   5.197   1.570
 6641SOL    HW220298   4.899   5.248   1.426
 6642SOL     OW20299   4.045   4.667   0.242
 6642SOL    HW120300   4.127   4.706   0.200
 6642SOL    HW220301   4.018   4.585   0.193
 6643SOL     OW20302   4.185   4.990   1.727
 6643SOL    HW120303   4.135   4.991   1.641
 6643SOL    HW220304   4.122   4.972   1.803
 6644SOL     OW20305   4.835   5.500   0.237
 6644SOL    HW120306   4.775   5.438   0.287
 6644SOL    HW220307   4.866   5.456   0.152
 6645SOL     OW20308   3.926   4.009   1.498
 6645SOL    HW120309   3.846   4.069   1.485
 6645SOL    HW220310   3.916   3.960   1.584
 6646SOL     OW20311   5.124   3.831   0.426
 6646SOL    HW120312   5.100   3.794   0.336
 6646SOL    HW220313   5.223   3.847   0.430
 6647SOL     OW20314   4.106   4.424   0.480
 6647SOL    HW120315   4.151   4.334   0.477
 6647SOL    HW220316   4.012   4.413   0.513
 6648SOL     OW20317   4.338   3.846   0.117
 6648SOL    HW120318   4.436   3.824   0.124
 6648SOL    HW220319   4.307   3.829   0.024
 6649SOL     OW20320   4.505   3.988   1.749
 6649SOL    HW120321   4.572   3.927   1.792
 6649SOL    HW220322   4.432   4.007   1.814
 6650SOL     OW20323   5.075   4.314   1.433
 6650SOL    HW120324   5.103   4.271   1.518
 6650SOL    HW220325   5.100   4.410   1.434
 6651SOL     OW20326   4.527   5.126   0.924
 6651SOL    HW120327   4.617   5.140   0.882
 6651SOL    HW220328   4.456   5.128   0.853
 6652SOL     OW20329   4.646   4.227   0.899
 6652SOL    HW120330   4.621   4.218   0.803
 6652SOL    HW220331   4.694   4.145   0.930
 6653SOL     OW20332   4.263   3.788   0.512
 6653SOL    HW120333   4.182   3.789   0.570
 6653SOL    HW220334   4.266   3.871   0.457
 6654SOL     OW20335   5.158   4.912   0.041
 6654SOL    HW120336   5.190   4.836   0.098
 6654SOL    HW220337   5.066   4.939   0.071
 6655SOL     OW20338   4.021   3.759   0.171
 6655SOL    HW120339   4.070   3.843   0.150
 6655SOL    HW220340   4.083   3.694   0.216
 6656SOL     OW20341   4.659   3.960   0.480
 6656SOL    HW120342   4.611   4.001   0.402
 6656SOL    HW220343   4.758   3.958   0.461
 6657SOL     OW20344   4.800   4.407   1.464
 6657SOL    HW120345   4.720   4.346   1.467
 6657SOL    HW220346   4.881   4.354   1.440
 6658SOL     OW20347   4.951   5.294   0.793
 6658SOL    HW120348   4.972   5.368   0.728
 6658SOL    HW220349   5.019   5.294   0.866
 6659SOL     OW20350   4.183   4.876   0.741
 6659SOL    HW120351   4.112   4.849   0.806
 6659SOL    HW220352   4.157   4.848   0.648
 6660SOL     OW20353   4.756   4.273   0.016
 6660SOL    HW120354   4.715   4.355  -0.023
 6660SOL    HW220355   4.820   4.299   0.089
 6661SOL     OW20356   3.802   4.280   1.386
 6661SOL    HW120357   3.894   4.279   1.345
 6661SOL    HW220358   3.796   4.354   1.453
 6662SOL     OW20359   4.285   3.946   1.147
 6662SOL    HW120360   4.323   3.862   1.184
 6662SOL    HW220361   4.197   3.965   1.191
 6663SOL     OW20362   4.590   4.178   0.642
 6663SOL    HW120363   4.558   4.250   0.580
 6663SOL    HW220364   4.614   4.097   0.589
 6664SOL     OW20365   4.741   3.763   0.753
 6664SOL    HW120366   4.669   3.768   0.684
 6664SOL    HW220367   4.717   3.694   0.822
 6665SOL     OW20368   5.153   4.897   0.867
 6665SOL    HW120369   5.098   4.813   0.860
 6665SOL    HW220370   5.179   4.926   0.775
 6666SOL     OW20371   4.212   5.109   0.174
 6666SOL    HW120372   4.125   5.094   0.221
 6666SOL    HW220373   4.195   5.135   0.079
 6667SOL     OW20374   5.114   4.299   0.078
 6667SOL    HW120375   5.060   4.278   0.159
 6667SOL    HW220376   5.205   4.258   0.087
 6668SOL     OW20377   4.251   3.980   0.328
 6668SOL    HW120378   4.278   3.921   0.253
 6668SOL    HW220379   4.251   4.075   0.297
 6669SOL     OW20380   4.788   5.071   1.340
 6669SOL    HW120381   4.708   5.048   1.395
 6669SOL    HW220382   4.871   5.045   1.389
 6670SOL     OW20383   4.835   4.919   1.100
 6670SOL    HW120384   4.795   4.963   1.181
 6670SOL    HW220385   4.794   4.956   1.017
 6671SOL     OW20386   4.639   3.813   1.402
 6671SOL    HW120387   4.664   3.793   1.307
 6671SOL    HW220388   4.711   3.869   1.444
 6672SOL     OW20389   4.704   4.840   1.719
 6672SOL    HW120390   4.605   4.846   1.729
 6672SOL    HW220391   4.727   4.760   1.663
 6673SOL     OW20392   4.429   4.774   0.368
 6673SOL    HW120393   4.415   4.781   0.467
 6673SOL    HW220394   4.513   4.723   0.350
 6674SOL     OW20395   4.134   4.537   1.251
 6674SOL    HW120396   4.220   4.549   1.301
 6674SOL    HW220397   4.092   4.450   1.278
 6675SOL     OW20398   4.998   4.110   1.262
 6675SOL    HW120399   5.019   4.184   1.326
 6675SOL    HW220400   4.909   4.127   1.219
 6676SOL     OW20401   4.091   4.824   0.501
 6676SOL    HW120402   4.084   4.907   0.445
 6676SOL    HW220403   4.095   4.744   0.441
 6677SOL     OW20404   4.290   4.261   0.865
 6677SOL    HW120405   4.302   4.327   0.791
 6677SOL    HW220406   4.336   4.295   0.948
 6678SOL     OW20407   4.976   5.072   0.388
 6678SOL    HW120408   5.026   5.149   0.428
 6678SOL    HW220409   4.881   5.074   0.420
 6679SOL     OW20410   4.996   5.169   1.142
 6679SOL    HW120411   5.043   5.182   1.229
 6679SOL    HW220412   4.930   5.095   1.151
 6680SOL     OW20413   4.078   5.234   1.329
 6680SOL    HW120414   4.057   5.190   1.242
 6680SOL    HW220415   4.175   5.260   1.332
 6681SOL     OW20416   4.126   4.475   1.598
 6681SOL    HW120417   4.194   4.530   1.551
 6681SOL    HW220418   4.166   4.387   1.625
 6682SOL     OW20419   4.737   3.829   1.770
 6682SOL    HW120420   4.743   3.914   1.718
 6682SOL    HW220421   4.769   3.753   1.713
 6683SOL     OW20422   4.228   3.774   1.740
 6683SOL    HW120423   4.186   3.717   1.670
 6683SOL    HW220424   4.162   3.843   1.772
 6684SOL     OW20425   4.297   4.594   1.029
 6684SOL    HW120426   4.341   4.683   1.020
 6684SOL    HW220427   4.234   4.594   1.106
 6685SOL     OW20428   5.084   4.586   1.045
 6685SOL    HW120429   5.009   4.586   0.979
 6685SOL    HW220430   5.121   4.494   1.054
 6686SOL     OW20431   4.933   4.249   0.275
 6686SOL    HW120432   4.946   4.165   0.329
 6686SOL    HW220433   4.904   4.323   0.335
 6687SOL     OW20434   4.031   3.937   1.231
 6687SOL    HW120435   4.008   3.974   1.321
 6687SOL    HW220436   4.001   3.842   1.225
 6688SOL     OW20437   3.761   5.034   1.282
 6688SOL    HW120438   3.814   4.985   1.350
 6688SOL    HW220439   3.783   5.132   1.287
 6689SOL     OW20440   4.456   4.358   1.064
 6689SOL    HW120441   4.515   4.332   0.988
 6689SOL    HW220442   4.428   4.454   1.053
 6690SOL     OW20443   4.031   3.787   0.618
 6690SOL    HW120444   4.020   3.881   0.651
 6690SOL    HW220445   4.026   3.724   0.695
 6691SOL     OW20446   5.346   4.091   0.374
 6691SOL    HW120447   5.348   4.015   0.438
 6691SOL    HW220448   5.298   4.168   0.414
 6692SOL     OW20449   4.747   4.490   0.966
 6692SOL    HW120450   4.762   4.511   1.062
 6692SOL    HW220451   4.717   4.395   0.957
 6693SOL     OW20452   4.074   4.622   1.804
 6693SOL    HW120453   4.150   4.666   1.852
 6693SOL    HW220454   4.109   4.575   1.722
 6694SOL     OW20455   5.027   4.562   0.042
 6694SOL    HW120456   5.061   4.469   0.057
 6694SOL    HW220457   5.045   4.589  -0.053
 6695SOL     OW20458   4.792   5.057   0.849
 6695SOL    HW120459   4.799   4.973   0.794
 6695SOL    HW220460   4.854   5.126   0.813
 6696SOL     OW20461   4.043   4.534   0.949
 6696SOL    HW120462   4.136   4.570   0.954
 6696SOL    HW220463   4.037   4.449   1.001
 6697SOL     OW20464   4.063   4.233   1.006
 6697SOL    HW120465   4.011   4.150   0.989
 6697SOL    HW220466   4.140   4.238   0.942
 6698SOL     OW20467   4.862   4.104   1.678
 6698SOL    HW120468   4.817   4.167   1.742
 6698SOL    HW220469   4.955   4.135   1.661
 6699SOL     OW20470   4.884   3.931   1.477
 6699SOL    HW120471   4.884   3.995   1.554
 6699SOL    HW220472   4.912   3.979   1.394
 6700SOL     OW20473   3.732   5.050   0.200
 6700SOL    HW120474   3.639   5.071   0.169
 6700SOL    HW220475   3.742   4.951   0.213
 6701SOL     OW20476   4.726   4.520   1.238
 6701SOL    HW120477   4.767   4.488   1.324
 6701SOL    HW220478   4.630   4.493   1.235
 6702SOL     OW20479   3.764   4.268   1.114
 6702SOL    HW120480   3.849   4.235   1.073
 6702SOL    HW220481   3.777   4.283   1.212
 6703SOL     OW20482   3.913   4.244   1.722
 6703SOL    HW120483   3.972   4.204   1.652
 6703SOL    HW220484   3.855   4.315   1.681
 6704SOL     OW20485   5.093   4.674   1.660
 6704SOL    HW120486   5.132   4.763   1.680
 6704SOL    HW220487   5.103   4.654   1.563
 6705SOL     OW20488   4.539   4.296   0.325
 6705SOL    HW120489   4.546   4.207   0.279
 6705SOL    HW220490   4.445   4.330   0.317
 6706SOL     OW20491   3.976   5.288   1.744
 6706SOL    HW120492   3.946   5.345   1.820
 6706SOL    HW220493   3.969   5.191   1.770
 6707SOL     OW20494   4.395   4.188   1.269
 6707SOL    HW120495   4.361   4.099   1.239
 6707SOL    HW220496   4.421   4.242   1.189
 6708SOL     OW20497   4.197   4.224   0.191
 6708SOL    HW120498   4.258   4.304   0.195
 6708SOL    HW220499   4.102   4.255   0.198
 6709SOL     OW20500   3.883   4.861   1.466
 6709SOL    HW120501   3.905   4.800   1.542
 6709SOL    HW220502   3.893   4.812   1.380
 6710SOL     OW20503   5.071   4.783   1.234
 6710SOL    HW120504   5.095   4.720   1.160
 6710SOL    HW220505   4.981   4.823   1.216
 6711SOL     OW20506   5.026   4.579   0.309
 6711SOL    HW120507   4.940   4.548   0.351
 6711SOL    HW220508   5.022   4.565   0.210
 6712SOL     OW20509   3.807   4.982   1.022
 6712SOL    HW120510   3.802   4.981   1.122
 6712SOL    HW220511   3.724   4.941   0.984
 6713SOL     OW20512   4.412   5.386   1.716
 6713SOL    HW120513   4.356   5.467   1.725
 6713SOL    HW220514   4.464   5.390   1.630
 6714SOL     OW20515   4.627   3.810   0.133
 6714SOL    HW120516   4.678   3.811   0.047
 6714SOL    HW220517   4.683   3.768   0.204
 6715SOL     OW20518   5.450   3.859   0.523
 6715SOL    HW120519   5.523   3.842   0.456
 6715SOL    HW220520   5.419   3.772   0.561
 6716SOL     OW20521   5.004   4.651   0.672
 6716SOL    HW120522   5.064   4.570   0.674
 6716SOL    HW220523   5.044   4.720   0.612
 6717SOL     OW20524   4.554   4.997   1.422
 6717SOL    HW120525   4.549   5.030   1.517
 6717SOL    HW220526   4.468   5.016   1.376
 6718SOL     OW20527   3.987   4.050   0.720
 6718SOL    HW120528   3.908   4.101   0.686
 6718SOL    HW220529   3.978   4.035   0.818
 6719SOL     OW20530   4.918   5.336   0.031
 6719SOL    HW120531   4.924   5.243   0.068
 6719SOL    HW220532   4.859   5.336  -0.049
 6720SOL     OW20533   4.546   4.726   1.372
 6720SOL    HW120534   4.586   4.725   1.280
 6720SOL    HW220535   4.556   4.818   1.412
 6721SOL     OW20536   4.640   4.634   0.291
 6721SOL    HW120537   4.703   4.672   0.223
 6721SOL    HW220538   4.680   4.551   0.330
 6722SOL     OW20539   4.096   5.012   1.490
 6722SOL    HW120540   4.083   5.105   1.456
 6722SOL    HW220541   4.012   4.960   1.477
 6723SOL     OW20542   4.763   4.822   0.696
 6723SOL    HW120543   4.693   4.775   0.750
 6723SOL    HW220544   4.822   4.754   0.653
 6724SOL     OW20545   4.738   3.960   0.971
 6724SOL    HW120546   4.730   3.924   0.878
 6724SOL    HW220547   4.736   3.884   1.036
 6725SOL     OW20548   3.979   5.072   0.290
 6725SOL    HW120549   3.883   5.073   0.263
 6725SOL    HW220550   3.991   5.125   0.374
 6726SOL     OW20551   3.829   4.737   1.726
 6726SOL    HW120552   3.752   4.704   1.780
 6726SOL    HW220553   3.914   4.707   1.768
 6727SOL     OW20554   4.396   3.927   1.489
 6727SOL    HW120555   4.486   3.911   1.449
 6727SOL    HW220556   4.404   3.932   1.588
 6728SOL     OW20557   3.799   4.069   0.033
 6728SOL    HW120558   3.707   4.041   0.004
 6728SOL    HW220559   3.830   4.146  -0.023
 6729SOL     OW20560   5.164   4.580   1.398
 6729SOL    HW120561   5.107   4.632   1.335
 6729SOL    HW220562   5.260   4.592   1.374
 6730SOL     OW20563   3.796   3.890   0.318
 6730SOL    HW120564   3.779   3.973   0.264
 6730SOL    HW220565   3.886   3.853   0.296
 6731SOL     OW20566   4.907   5.059   0.119
 6731SOL    HW120567   4.808   5.048   0.121
 6731SOL    HW220568   4.941   5.074   0.212
 6732SOL     OW20569   4.337   4.566   1.431
 6732SOL    HW120570   4.393   4.647   1.414
 6732SOL    HW220571   4.396   4.486   1.434
 6733SOL     OW20572   4.440   4.289   1.708
 6733SOL    HW120573   4.459   4.354   1.782
 6733SOL    HW220574   4.500   4.209   1.717
 6734SOL     OW20575   5.174   4.944   1.633
 6734SOL    HW120576   5.165   4.934   1.732
 6734SOL    HW220577   5.270   4.937   1.607
 6735SOL     OW20578   4.949   4.049   0.449
 6735SOL    HW120579   5.014   3.975   0.438
 6735SOL    HW220580   4.969   4.099   0.533
 6736SOL     OW20581   4.318   4.469   0.652
 6736SOL    HW120582   4.368   4.554   0.633
 6736SOL    HW220583   4.230   4.471   0.604
 6737SOL     OW20584   4.583   5.098   0.016
 6737SOL    HW120585   4.537   5.113   0.104
 6737SOL    HW220586   4.627   5.183  -0.014
 6738SOL     OW20587   4.583   4.680   0.861
 6738SOL    HW120588   4.637   4.611   0.909
 6738SOL    HW220589   4.551   4.749   0.927
 6739SOL     OW20590   4.807   4.708   0.087
 6739SOL    HW120591   4.784   4.761   0.005
 6739SOL    HW220592   4.888   4.652   0.068
 6740SOL     OW20593   3.945   5.038   1.844
 6740SOL    HW120594   3.880   4.965   1.823
 6740SOL    HW220595   3.949   5.052   1.942
 6741SOL     OW20596   3.803   4.964   0.653
 6741SOL    HW120597   3.802   4.917   0.741
 6741SOL    HW220598   3.885   4.936   0.602
 6742SOL     OW20599   4.396   5.115   1.624
 6742SOL    HW120600   4.318   5.065   1.662
 6742SOL    HW220601   4.393   5.210   1.655
 6743SOL     OW20602   4.152   4.148   0.520
 6743SOL    HW120603   4.182   4.076   0.458
 6743SOL    HW220604   4.113   4.108   0.603
 6744SOL     OW20605   5.429   5.211   1.104
 6744SOL    HW120606   5.336   5.186   1.077
 6744SOL    HW220607   5.455   5.161   1.186
 6745SOL     OW20608   4.041   4.271   1.280
 6745SOL    HW120609   4.079   4.212   1.352
 6745SOL    HW220610   4.081   4.245   1.192
 6746SOL     OW20611   5.148   3.938   1.112
 6746SOL    HW120612   5.200   3.873   1.167
 6746SOL    HW220613   5.099   4.001   1.173
 6747SOL     OW20614   4.725   3.758   1.154
 6747SOL    HW120615   4.662   3.686   1.123
 6747SOL    HW220616   4.818   3.722   1.154
 6748SOL     OW20617   4.494   5.054   0.301
 6748SOL    HW120618   4.448   4.967   0.318
 6748SOL    HW220619   4.585   5.051   0.342
 6749SOL     OW20620   4.342   5.291   1.284
 6749SOL    HW120621   4.337   5.373   1.341
 6749SOL    HW220622   4.431   5.288   1.239
 6750SOL     OW20623   5.076   3.776   0.168
 6750SOL    HW120624   5.111   3.735   0.084
 6750SOL    HW220625   4.986   3.738   0.188
 6751SOL     OW20626   5.024   4.177   0.691
 6751SOL    HW120627   4.965   4.257   0.695
 6751SOL    HW220628   5.039   4.142   0.784
 6752SOL     OW20629   5.317   3.945   0.882
 6752SOL    HW120630   5.233   3.944   0.936
 6752SOL    HW220631   5.319   4.028   0.826
 6753SOL     OW20632   3.763   4.801   0.300
 6753SOL    HW120633   3.862   4.790   0.291
 6753SOL    HW220634   3.723   4.715   0.332
 6754SOL     OW20635   3.954   4.352   1.975
 6754SOL    HW120636   3.861   4.350   2.012
 6754SOL    HW220637   3.955   4.313   1.883
 6755SOL     OW20638   3.949   3.999   2.858
 6755SOL    HW120639   3.984   3.982   2.950
 6755SOL    HW220640   3.861   3.954   2.846
 6756SOL     OW20641   3.743   4.092   2.509
 6756SOL    HW120642   3.661   4.135   2.548
 6756SOL    HW220643   3.715   4.019   2.446
 6757SOL     OW20644   4.293   4.999   3.027
 6757SOL    HW120645   4.200   4.992   2.990
 6757SOL    HW220646   4.304   5.088   3.071
 6758SOL     OW20647   5.279   5.235   2.565
 6758SOL    HW120648   5.222   5.219   2.646
 6758SOL    HW220649   5.220   5.245   2.485
 6759SOL     OW20650   4.859   4.427   2.579
 6759SOL    HW120651   4.916   4.505   2.554
 6759SOL    HW220652   4.799   4.453   2.655
 6760SOL     OW20653   4.492   4.868   2.885
 6760SOL    HW120654   4.414   4.885   2.945
 6760SOL    HW220655   4.526   4.955   2.849
 6761SOL     OW20656   4.574   4.522   3.685
 6761SOL    HW120657   4.570   4.598   3.750
 6761SOL    HW220658   4.596   4.558   3.594
 6762SOL     OW20659   4.409   4.736   2.527
 6762SOL    HW120660   4.478   4.720   2.597
 6762SOL    HW220661   4.336   4.793   2.565
 6763SOL     OW20662   4.410   4.885   3.665
 6763SOL    HW120663   4.470   4.964   3.679
 6763SOL    HW220664   4.324   4.916   3.624
 6764SOL     OW20665   4.059   5.159   2.923
 6764SOL    HW120666   3.981   5.128   2.870
 6764SOL    HW220667   4.117   5.217   2.866
 6765SOL     OW20668   5.184   5.229   3.201
 6765SOL    HW120669   5.208   5.323   3.227
 6765SOL    HW220670   5.168   5.175   3.283
 6766SOL     OW20671   4.162   4.116   3.361
 6766SOL    HW120672   4.244   4.060   3.370
 6766SOL    HW220673   4.081   4.058   3.365
 6767SOL     OW20674   4.851   5.065   3.552
 6767SOL    HW120675   4.898   5.065   3.640
 6767SOL    HW220676   4.803   4.978   3.541
 6768SOL     OW20677   3.954   5.158   2.400
 6768SOL    HW120678   3.928   5.254   2.400
 6768SOL    HW220679   3.883   5.104   2.445
 6769SOL     OW20680   3.964   4.815   2.748
 6769SOL    HW120681   3.978   4.731   2.800
 6769SOL    HW220682   3.909   4.879   2.803
 6770SOL     OW20683   4.330   4.688   1.985
 6770SOL    HW120684   4.337   4.772   1.931
 6770SOL    HW220685   4.376   4.701   2.073
 6771SOL     OW20686   3.846   4.367   2.425
 6771SOL    HW120687   3.801   4.279   2.442
 6771SOL    HW220688   3.845   4.421   2.509
 6772SOL     OW20689   3.751   5.320   1.979
 6772SOL    HW120690   3.732   5.224   2.000
 6772SOL    HW220691   3.718   5.378   2.054
 6773SOL     OW20692   5.413   4.646   2.474
 6773SOL    HW120693   5.508   4.617   2.482
 6773SOL    HW220694   5.405   4.711   2.399
 6774SOL     OW20695   3.837   4.461   3.459
 6774SOL    HW120696   3.925   4.448   3.504
 6774SOL    HW220697   3.824   4.558   3.437
 6775SOL     OW20698   4.337   5.089   2.588
 6775SOL    HW120699   4.288   5.002   2.597
 6775SOL    HW220700   4.314   5.132   2.501
 6776SOL     OW20701   5.017   4.952   3.285
 6776SOL    HW120702   5.054   4.879   3.227
 6776SOL    HW220703   5.069   4.957   3.370
 6777SOL     OW20704   4.533   3.728   2.364
 6777SOL    HW120705   4.573   3.819   2.355
 6777SOL    HW220706   4.433   3.736   2.370
 6778SOL     OW20707   3.921   4.700   3.126
 6778SOL    HW120708   4.010   4.655   3.112
 6778SOL    HW220709   3.848   4.635   3.107
 6779SOL     OW20710   4.041   3.975   3.663
 6779SOL    HW120711   4.112   4.046   3.669
 6779SOL    HW220712   3.953   4.014   3.691
 6780SOL     OW20713   5.190   5.141   2.815
 6780SOL    HW120714   5.131   5.147   2.895
 6780SOL    HW220715   5.175   5.053   2.769
 6781SOL     OW20716   5.391   5.438   2.434
 6781SOL    HW120717   5.350   5.415   2.346
 6781SOL    HW220718   5.373   5.364   2.499
 6782SOL     OW20719   4.322   4.453   2.132
 6782SOL    HW120720   4.346   4.522   2.064
 6782SOL    HW220721   4.244   4.486   2.186
 6783SOL     OW20722   5.005   4.069   2.806
 6783SOL    HW120723   4.919   4.019   2.793
 6783SOL    HW220724   5.067   4.015   2.862
 6784SOL     OW20725   4.531   4.329   3.327
 6784SOL    HW120726   4.484   4.326   3.416
 6784SOL    HW220727   4.480   4.274   3.261
 6785SOL     OW20728   5.118   4.193   3.536
 6785SOL    HW120729   5.098   4.236   3.624
 6785SOL    HW220730   5.196   4.131   3.545
 6786SOL     OW20731   4.697   4.614   3.434
 6786SOL    HW120732   4.743   4.530   3.405
 6786SOL    HW220733   4.641   4.648   3.359
 6787SOL     OW20734   4.715   4.134   3.104
 6787SOL    HW120735   4.638   4.168   3.158
 6787SOL    HW220736   4.681   4.083   3.025
 6788SOL     OW20737   4.765   4.425   2.291
 6788SOL    HW120738   4.791   4.421   2.387
 6788SOL    HW220739   4.680   4.374   2.277
 6789SOL     OW20740   3.800   4.535   2.651
 6789SOL    HW120741   3.899   4.523   2.660
 6789SOL    HW220742   3.776   4.630   2.672
 6790SOL     OW20743   4.589   4.072   2.057
 6790SOL    HW120744   4.648   4.135   2.008
 6790SOL    HW220745   4.608   3.978   2.028
 6791SOL     OW20746   5.086   4.868   2.407
 6791SOL    HW120747   5.169   4.839   2.359
 6791SOL    HW220748   5.037   4.935   2.351
 6792SOL     OW20749   4.274   3.920   2.747
 6792SOL    HW120750   4.269   3.915   2.847
 6792SOL    HW220751   4.276   4.016   2.718
 6793SOL     OW20752   4.732   5.180   2.339
 6793SOL    HW120753   4.686   5.252   2.287
 6793SOL    HW220754   4.728   5.200   2.437
 6794SOL     OW20755   4.951   5.274   3.368
 6794SOL    HW120756   4.957   5.197   3.432
 6794SOL    HW220757   4.899   5.248   3.288
 6795SOL     OW20758   4.045   4.667   2.104
 6795SOL    HW120759   4.127   4.706   2.062
 6795SOL    HW220760   4.018   4.585   2.055
 6796SOL     OW20761   4.185   4.990   3.589
 6796SOL    HW120762   4.135   4.991   3.503
 6796SOL    HW220763   4.122   4.972   3.665
 6797SOL     OW20764   4.835   5.500   2.099
 6797SOL    HW120765   4.775   5.438   2.149
 6797SOL    HW220766   4.866   5.456   2.014
 6798SOL     OW20767   3.926   4.009   3.360
 6798SOL    HW120768   3.846   4.069   3.347
 6798SOL    HW220769   3.916   3.960   3.446
 6799SOL     OW20770   5.124   3.831   2.288
 6799SOL    HW120771   5.100   3.794   2.198
 6799SOL    HW220772   5.223   3.847   2.292
 6800SOL     OW20773   4.106   4.424   2.342
 6800SOL    HW120774   4.151   4.334   2.339
 6800SOL    HW220775   4.012   4.413   2.375
 6801SOL     OW20776   4.338   3.846   1.979
 6801SOL    HW120777   4.436   3.824   1.986
 6801SOL    HW220778   4.307   3.829   1.886
 6802SOL     OW20779   4.505   3.988   3.611
 6802SOL    HW120780   4.572   3.927   3.654
 6802SOL    HW220781   4.432   4.007   3.676
 6803SOL     OW20782   5.075   4.314   3.295
 6803SOL    HW120783   5.103   4.271   3.380
 6803SOL    HW220784   5.100   4.410   3.296
 6804SOL     OW20785   4.527   5.126   2.786
 6804SOL    HW120786   4.617   5.140   2.744
 6804SOL    HW220787   4.456   5.128   2.715
 6805SOL     OW20788   4.646   4.227   2.761
 6805SOL    HW120789   4.621   4.218   2.665
 6805SOL    HW220790   4.694   4.145   2.792
 6806SOL     OW20791   4.263   3.788   2.374
 6806SOL    HW120792   4.182   3.789   2.432
 6806SOL    HW220793   4.266   3.871   2.319
 6807SOL     OW20794   5.158   4.912   1.903
 6807SOL    HW120795   5.190   4.836   1.960
 6807SOL    HW220796   5.066   4.939   1.933
 6808SOL     OW20797   4.021   3.759   2.033
 6808SOL    HW120798   4.070   3.843   2.012
 6808SOL    HW220799   4.083   3.694   2.078
 6809SOL     OW20800   4.659   3.960   2.342
 6809SOL    HW120801   4.611   4.001   2.264
 6809SOL    HW220802   4.758   3.958   2.323
 6810SOL     OW20803   4.800   4.407   3.326
 6810SOL    HW120804   4.720   4.346   3.329
 6810SOL    HW220805   4.881   4.354   3.302
 6811SOL     OW20806   4.951   5.294   2.655
 6811SOL    HW120807   4.972   5.368   2.590
 6811SOL    HW220808   5.019   5.294   2.728
 6812SOL     OW20809   4.183   4.876   2.603
 6812SOL    HW120810   4.112   4.849   2.668
 6812SOL    HW220811   4.157   4.848   2.510
 6813SOL     OW20812   4.756   4.273   1.878
 6813SOL    HW120813   4.715   4.355   1.839
 6813SOL    HW220814   4.820   4.299   1.951
 6814SOL     OW20815   3.802   4.280   3.248
 6814SOL    HW120816   3.894   4.279   3.207
 6814SOL    HW220817   3.796   4.354   3.315
 6815SOL     OW20818   4.285   3.946   3.009
 6815SOL    HW120819   4.323   3.862   3.046
 6815SOL    HW220820   4.197   3.965   3.053
 6816SOL     OW20821   4.590   4.178   2.504
 6816SOL    HW120822   4.558   4.250   2.442
 6816SOL    HW220823   4.614   4.097   2.451
 6817SOL     OW20824   4.741   3.763   2.615
 6817SOL    HW120825   4.669   3.768   2.546
 6817SOL    HW220826   4.717   3.694   2.684
 6818SOL     OW20827   5.153   4.897   2.729
 6818SOL    HW120828   5.098   4.813   2.722
 6818SOL    HW220829   5.179   4.926   2.637
 6819SOL     OW20830   4.212   5.109   2.036
 6819SOL    HW120831   4.125   5.094   2.083
 6819SOL    HW220832   4.195   5.135   1.941
 6820SOL     OW20833   5.114   4.299   1.940
 6820SOL    HW120834   5.060   4.278   2.021
 6820SOL    HW220835   5.205   4.258   1.949
 6821SOL     OW20836   4.251   3.980   2.190
 6821SOL    HW120837   4.278   3.921   2.115
 6821SOL    HW220838   4.251   4.075   2.159
 6822SOL     OW20839   4.788   5.071   3.202
 6822SOL    HW120840   4.708   5.048   3.257
 6822SOL    HW220841   4.871   5.045   3.251
 6823SOL     OW20842   4.835   4.919   2.962
 6823SOL    HW120843   4.795   4.963   3.043
 6823SOL    HW220844   4.794   4.956   2.879
 6824SOL     OW20845   4.639   3.813   3.264
 6824SOL    HW120846   4.664   3.793   3.169
 6824SOL    HW220847   4.711   3.869   3.306
 6825SOL     OW20848   4.704   4.840   3.581
 6825SOL    HW120849   4.605   4.846   3.591
 6825SOL    HW220850   4.727   4.760   3.525
 6826SOL     OW20851   4.429   4.774   2.230
 6826SOL    HW120852   4.415   4.781   2.329
 6826SOL    HW220853   4.513   4.723   2.212
 6827SOL     OW20854   4.134   4.537   3.113
 6827SOL    HW120855   4.220   4.549   3.163
 6827SOL    HW220856   4.092   4.450   3.140
 6828SOL     OW20857   4.998   4.110   3.124
 6828SOL    HW120858   5.019   4.184   3.188
 6828SOL    HW220859   4.909   4.127   3.081
 6829SOL     OW20860   4.091   4.824   2.363
 6829SOL    HW120861   4.084   4.907   2.307
 6829SOL    HW220862   4.095   4.744   2.303
 6830SOL     OW20863   4.290   4.261   2.727
 6830SOL    HW120864   4.302   4.327   2.653
 6830SOL    HW220865   4.336   4.295   2.810
 6831SOL     OW20866   4.976   5.072   2.250
 6831SOL    HW120867   5.026   5.149   2.290
 6831SOL    HW220868   4.881   5.074   2.282
 6832SOL     OW20869   4.996   5.169   3.004
 6832SOL    HW120870   5.043   5.182   3.091
 6832SOL    HW220871   4.930   5.095   3.013
 6833SOL     OW20872   4.078   5.234   3.191
 6833SOL    HW120873   4.057   5.190   3.104
 6833SOL    HW220874   4.175   5.260   3.194
 6834SOL     OW20875   4.126   4.475   3.460
 6834SOL    HW120876   4.194   4.530   3.413
 6834SOL    HW220877   4.166   4.387   3.487
 6835SOL     OW20878   4.737   3.829   3.632
 6835SOL    HW120879   4.743   3.914   3.580
 6835SOL    HW220880   4.769   3.753   3.575
 6836SOL     OW20881   4.228   3.774   3.602
 6836SOL    HW120882   4.186   3.717   3.532
 6836SOL    HW220883   4.162   3.843   3.634
 6837SOL     OW20884   4.297   4.594   2.891
 6837SOL    HW120885   4.341   4.683   2.882
 6837SOL    HW220886   4.234   4.594   2.968
 6838SOL     OW20887   5.084   4.586   2.907
 6838SOL    HW120888   5.009   4.586   2.841
 6838SOL    HW220889   5.121   4.494   2.916
 6839SOL     OW20890   4.933   4.249   2.137
 6839SOL    HW120891   4.946   4.165   2.191
 6839SOL    HW220892   4.904   4.323   2.197
 6840SOL     OW20893   4.031   3.937   3.093
 6840SOL    HW120894   4.008   3.974   3.183
 6840SOL    HW220895   4.001   3.842   3.087
 6841SOL     OW20896   3.761   5.034   3.144
 6841SOL    HW120897   3.814   4.985   3.212
 6841SOL    HW220898   3.783   5.132   3.149
 6842SOL     OW20899   4.456   4.358   2.926
 6842SOL    HW120900   4.515   4.332   2.850
 6842SOL    HW220901   4.428   4.454   2.915
 6843SOL     OW20902   4.031   3.787   2.480
 6843SOL    HW120903   4.020   3.881   2.513
 6843SOL    HW220904   4.026   3.724   2.557
 6844SOL     OW20905   5.346   4.091   2.236
 6844SOL    HW120906   5.348   4.015   2.300
 6844SOL    HW220907   5.298   4.168   2.276
 6845SOL     OW20908   4.747   4.490   2.828
 6845SOL    HW120909   4.762   4.511   2.924
 6845SOL    HW220910   4.717   4.395   2.819
 6846SOL     OW20911   4.074   4.622   3.666
 6846SOL    HW120912   4.150   4.666   3.714
 6846SOL    HW220913   4.109   4.575   3.584
 6847SOL     OW20914   5.027   4.562   1.904
 6847SOL    HW120915   5.061   4.469   1.919
 6847SOL    HW220916   5.045   4.589   1.809
 6848SOL     OW20917   4.792   5.057   2.711
 6848SOL    HW120918   4.799   4.973   2.656
 6848SOL    HW220919   4.854   5.126   2.675
 6849SOL     OW20920   4.043   4.534   2.811
 6849SOL    HW120921   4.136   4.570   2.816
 6849SOL    HW220922   4.037   4.449   2.863
 6850SOL     OW20923   4.063   4.233   2.868
 6850SOL    HW120924   4.011   4.150   2.851
 6850SOL    HW220925   4.140   4.238   2.804
 6851SOL     OW20926   4.862   4.104   3.540
 6851SOL    HW120927   4.817   4.167   3.604
 6851SOL    HW220928   4.955   4.135   3.523
 6852SOL     OW20929   4.884   3.931   3.339
 6852SOL    HW120930   4.884   3.995   3.416
 6852SOL    HW220931   4.912   3.979   3.256
 6853SOL     OW20932   3.732   5.050   2.062
 6853SOL    HW120933   3.639   5.071   2.031
 6853SOL    HW220934   3.742   4.951   2.075
 6854SOL     OW20935   4.726   4.520   3.100
 6854SOL    HW120936   4.767   4.488   3.186
 6854SOL    HW220937   4.630   4.493   3.097
 6855SOL     OW20938   3.764   4.268   2.976
 6855SOL    HW120939   3.849   4.235   2.935
 6855SOL    HW220940   3.777   4.283   3.074
 6856SOL     OW20941   3.913   4.244   3.584
 6856SOL    HW120942   3.972   4.204   3.514
 6856SOL    HW220943   3.855   4.315   3.543
 6857SOL     OW20944   5.093   4.674   3.522
 6857SOL    HW120945   5.132   4.763   3.542
 6857SOL    HW220946   5.103   4.654   3.425
 6858SOL     OW20947   4.539   4.296   2.187
 6858SOL    HW120948   4.546   4.207   2.141
 6858SOL    HW220949   4.445   4.330   2.179
 6859SOL     OW20950   3.976   5.288   3.606
 6859SOL    HW120951   3.946   5.345   3.682
 6859SOL    HW220952   3.969   5.191   3.632
 6860SOL     OW20953   4.395   4.188   3.131
 6860SOL    HW120954   4.361   4.099   3.101
 6860SOL    HW220955   4.421   4.242   3.051
 6861SOL     OW20956   4.197   4.224   2.053
 6861SOL    HW120957   4.258   4.304   2.057
 6861SOL    HW220958   4.102   4.255   2.060
 6862SOL     OW20959   3.883   4.861   3.328
 6862SOL    HW120960   3.905   4.800   3.404
 6862SOL    HW220961   3.893   4.812   3.242
 6863SOL     OW20962   5.071   4.783   3.096
 6863SOL    HW120963   5.095   4.720   3.022
 6863SOL    HW220964   4.981   4.823   3.078
 6864SOL     OW20965   5.026   4.579   2.171
 6864SOL    HW120966   4.940   4.548   2.213
 6864SOL    HW220967   5.022   4.565   2.072
 6865SOL     OW20968   3.807   4.982   2.884
 6865SOL    HW120969   3.802   4.981   2.984
 6865SOL    HW220970   3.724   4.941   2.846
 6866SOL     OW20971   4.412   5.386   3.578
 6866SOL    HW120972   4.356   5.467   3.587
 6866SOL    HW220973   4.464   5.390   3.492
 6867SOL     OW20974   5.450   3.859   2.385
 6867SOL    HW120975   5.523   3.842   2.318
 6867SOL    HW220976   5.419   3.772   2.423
 6868SOL     OW20977   5.004   4.651   2.534
 6868SOL    HW120978   5.064   4.570   2.536
 6868SOL    HW220979   5.044   4.720   2.474
 6869SOL     OW20980   4.554   4.997   3.284
 6869SOL    HW120981   4.549   5.030   3.379
 6869SOL    HW220982   4.468   5.016   3.238
 6870SOL     OW20983   3.987   4.050   2.582
 6870SOL    HW120984   3.908   4.101   2.548
 6870SOL    HW220985   3.978   4.035   2.680
 6871SOL     OW20986   4.546   4.726   3.234
 6871SOL    HW120987   4.586   4.725   3.142
 6871SOL    HW220988   4.556   4.818   3.274
 6872SOL     OW20989   4.640   4.634   2.153
 6872SOL    HW120990   4.703   4.672   2.085
 6872SOL    HW220991   4.680   4.551   2.192
 6873SOL     OW20992   4.096   5.012   3.352
 6873SOL    HW120993   4.083   5.105   3.318
 6873SOL    HW220994   4.012   4.960   3.339
 6874SOL     OW20995   4.763   4.822   2.558
 6874SOL    HW120996   4.693   4.775   2.612
 6874SOL    HW220997   4.822   4.754   2.515
 6875SOL     OW20998   4.738   3.960   2.833
 6875SOL    HW120999   4.730   3.924   2.740
 6875SOL    HW221000   4.736   3.884   2.898
 6876SOL     OW21001   3.979   5.072   2.152
 6876SOL    HW121002   3.883   5.073   2.125
 6876SOL    HW221003   3.991   5.125   2.236
 6877SOL     OW21004   3.829   4.737   3.588
 6877SOL    HW121005   3.752   4.704   3.642
 6877SOL    HW221006   3.914   4.707   3.630
 6878SOL     OW21007   4.396   3.927   3.351
 6878SOL    HW121008   4.486   3.911   3.311
 6878SOL    HW221009   4.404   3.932   3.450
 6879SOL     OW21010   3.799   4.069   1.895
 6879SOL    HW121011   3.707   4.041   1.866
 6879SOL    HW221012   3.830   4.146   1.839
 6880SOL     OW21013   5.164   4.580   3.260
 6880SOL    HW121014   5.107   4.632   3.197
 6880SOL    HW221015   5.260   4.592   3.236
 6881SOL     OW21016   3.796   3.890   2.180
 6881SOL    HW121017   3.779   3.973   2.126
 6881SOL    HW221018   3.886   3.853   2.158
 6882SOL     OW21019   4.907   5.059   1.981
 6882SOL    HW121020   4.808   5.048   1.983
 6882SOL    HW221021   4.941   5.074   2.074
 6883SOL     OW21022   4.337   4.566   3.293
 6883SOL    HW121023   4.393   4.647   3.276
 6883SOL    HW221024   4.396   4.486   3.296
 6884SOL     OW21025   4.440   4.289   3.570
 6884SOL    HW121026   4.459   4.354   3.644
 6884SOL    HW221027   4.500   4.209   3.579
 6885SOL     OW21028   5.174   4.944   3.495
 6885SOL    HW121029   5.165   4.934   3.594
 6885SOL    HW221030   5.270   4.937   3.469
 6886SOL     OW21031   4.949   4.049   2.311
 6886SOL    HW121032   5.014   3.975   2.300
 6886SOL    HW221033   4.969   4.099   2.395
 6887SOL     OW21034   4.318   4.469   2.514
 6887SOL    HW121035   4.368   4.554   2.495
 6887SOL    HW221036   4.230   4.471   2.466
 6888SOL     OW21037   4.583   5.098   1.878
 6888SOL    HW121038   4.537   5.113   1.966
 6888SOL    HW221039   4.627   5.183   1.848
 6889SOL     OW21040   4.583   4.680   2.723
 6889SOL    HW121041   4.637   4.611   2.771
 6889SOL    HW221042   4.551   4.749   2.789
 6890SOL     OW21043   4.807   4.708   1.949
 6890SOL    HW121044   4.784   4.761   1.867
 6890SOL    HW221045   4.888   4.652   1.930
 6891SOL     OW21046   3.945   5.038   3.706
 6891SOL    HW121047   3.880   4.965   3.685
 6891SOL    HW221048   3.949   5.052   3.804
 6892SOL     OW21049   3.803   4.964   2.515
 6892SOL    HW121050   3.802   4.917   2.603
 6892SOL    HW221051   3.885   4.936   2.464
 6893SOL     OW21052   4.396   5.115   3.486
 6893SOL    HW121053   4.318   5.065   3.524
 6893SOL    HW221054   4.393   5.210   3.517
 6894SOL     OW21055   4.152   4.148   2.382
 6894SOL    HW121056   4.182   4.076   2.320
 6894SOL    HW221057   4.113   4.108   2.465
 6895SOL     OW21058   5.429   5.211   2.966
 6895SOL    HW121059   5.336   5.186   2.939
 6895SOL    HW221060   5.455   5.161   3.048
 6896SOL     OW21061   4.041   4.271   3.142
 6896SOL    HW121062   4.079   4.212   3.214
 6896SOL    HW221063   4.081   4.245   3.054
 6897SOL     OW21064   5.148   3.938   2.974
 6897SOL    HW121065   5.200   3.873   3.029
 6897SOL    HW221066   5.099   4.001   3.035
 6898SOL     OW21067   4.725   3.758   3.016
 6898SOL    HW121068   4.662   3.686   2.985
 6898SOL    HW221069   4.818   3.722   3.016
 6899SOL     OW21070   4.494   5.054   2.163
 6899SOL    HW121071   4.448   4.967   2.180
 6899SOL    HW221072   4.585   5.051   2.204
 6900SOL     OW21073   4.342   5.291   3.146
 6900SOL    HW121074   4.337   5.373   3.203
 6900SOL    HW221075   4.431   5.288   3.101
 6901SOL     OW21076   5.076   3.776   2.030
 6901SOL    HW121077   5.111   3.735   1.946
 6901SOL    HW221078   4.986   3.738   2.050
 6902SOL     OW21079   5.024   4.177   2.553
 6902SOL    HW121080   4.965   4.257   2.557
 6902SOL    HW221081   5.039   4.142   2.646
 6903SOL     OW21082   5.317   3.945   2.744
 6903SOL    HW121083   5.233   3.944   2.798
 6903SOL    HW221084   5.319   4.028   2.688
 6904SOL     OW21085   3.763   4.801   2.162
 6904SOL    HW121086   3.862   4.790   2.153
 6904SOL    HW221087   3.723   4.715   2.194
 6905SOL     OW21088   3.954   4.352   3.837
 6905SOL    HW121089   3.861   4.350   3.874
 6905SOL    HW221090   3.955   4.313   3.745
 6906SOL     OW21091   3.949   3.999   4.720
 6906SOL    HW121092   3.984   3.982   4.812
 6906SOL    HW221093   3.861   3.954   4.708
 6907SOL     OW21094   3.743   4.092   4.371
 6907SOL    HW121095   3.661   4.135   4.410
 6907SOL    HW221096   3.715   4.019   4.308
 6908SOL     OW21097   4.293   4.999   4.889
 6908SOL    HW121098   4.200   4.992   4.852
 6908SOL    HW221099   4.304   5.088   4.933
 6909SOL     OW21100   5.279   5.235   4.427
 6909SOL    HW121101   5.222   5.219   4.508
 6909SOL    HW221102   5.220   5.245   4.347
 6910SOL     OW21103   4.859   4.427   4.441
 6910SOL    HW121104   4.916   4.505   4.416
 6910SOL    HW221105   4.799   4.453   4.517
 6911SOL     OW21106   4.492   4.868   4.747
 6911SOL    HW121107   4.414   4.885   4.807
 6911SOL    HW221108   4.526   4.955   4.711
 6912SOL     OW21109   4.574   4.522   5.547
 6912SOL    HW121110   4.570   4.598   5.612
 6912SOL    HW221111   4.596   4.558   5.456
 6913SOL     OW21112   4.409   4.736   4.389
 6913SOL    HW121113   4.478   4.720   4.459
 6913SOL    HW221114   4.336   4.793   4.427
 6914SOL     OW21115   4.410   4.885   5.527
 6914SOL    HW121116   4.470   4.964   5.541
 6914SOL    HW221117   4.324   4.916   5.486
 6915SOL     OW21118   4.059   5.159   4.785
 6915SOL    HW121119   3.981   5.128   4.732
 6915SOL    HW221120   4.117   5.217   4.728
 6916SOL     OW21121   5.184   5.229   5.063
 6916SOL    HW121122   5.208   5.323   5.089
 6916SOL    HW221123   5.168   5.175   5.145
 6917SOL     OW21124   4.162   4.116   5.223
 6917SOL    HW121125   4.244   4.060   5.232
 6917SOL    HW221126   4.081   4.058   5.227
 6918SOL     OW21127   4.851   5.065   5.414
 6918SOL    HW121128   4.898   5.065   5.502
 6918SOL    HW221129   4.803   4.978   5.403
 6919SOL     OW21130   3.954   5.158   4.262
 6919SOL    HW121131   3.928   5.254   4.262
 6919SOL    HW221132   3.883   5.104   4.307
 6920SOL     OW21133   3.964   4.815   4.610
 6920SOL    HW121134   3.978   4.731   4.662
 6920SOL    HW221135   3.909   4.879   4.665
 6921SOL     OW21136   4.330   4.688   3.847
 6921SOL    HW121137   4.337   4.772   3.793
 6921SOL    HW221138   4.376   4.701   3.935
 6922SOL     OW21139   3.846   4.367   4.287
 6922SOL    HW121140   3.801   4.279   4.304
 6922SOL    HW221141   3.845   4.421   4.371
 6923SOL     OW21142   3.751   5.320   3.841
 6923SOL    HW121143   3.732   5.224   3.862
 6923SOL    HW221144   3.718   5.378   3.916
 6924SOL     OW21145   5.413   4.646   4.336
 6924SOL    HW121146   5.508   4.617   4.344
 6924SOL    HW221147   5.405   4.711   4.261
 6925SOL     OW21148   3.837   4.461   5.321
 6925SOL    HW121149   3.925   4.448   5.366
 6925SOL    HW221150   3.824   4.558   5.299
 6926SOL     OW21151   4.337   5.089   4.450
 6926SOL    HW121152   4.288   5.002   4.459
 6926SOL    HW221153   4.314   5.132   4.363
 6927SOL     OW21154   5.017   4.952   5.147
 6927SOL    HW121155   5.054   4.879   5.089
 6927SOL    HW221156   5.069   4.957   5.232
 6928SOL     OW21157   4.533   3.728   4.226
 6928SOL    HW121158   4.573   3.819   4.217
 6928SOL    HW221159   4.433   3.736   4.232
 6929SOL     OW21160   3.921   4.700   4.988
 6929SOL    HW121161   4.010   4.655   4.974
 6929SOL    HW221162   3.848   4.635   4.969
 6930SOL     OW21163   4.041   3.975   5.525
 6930SOL    HW121164   4.112   4.046   5.531
 6930SOL    HW221165   3.953   4.014   5.553
 6931SOL     OW21166   5.190   5.141   4.677
 6931SOL    HW121167   5.131   5.147   4.757
 6931SOL    HW221168   5.175   5.053   4.631
 6932SOL     OW21169   5.391   5.438   4.296
 6932SOL    HW121170   5.350   5.415   4.208
 6932SOL    HW221171   5.373   5.364   4.361
 6933SOL     OW21172   4.322   4.453   3.994
 6933SOL    HW121173   4.346   4.522   3.926
 6933SOL    HW221174   4.244   4.486   4.048
 6934SOL     OW21175   5.005   4.069   4.668
 6934SOL    HW121176   4.919   4.019   4.655
 6934SOL    HW221177   5.067   4.015   4.724
 6935SOL     OW21178   4.531   4.329   5.189
 6935SOL    HW121179   4.484   4.326   5.278
 6935SOL    HW221180   4.480   4.274   5.123
 6936SOL     OW21181   5.118   4.193   5.398
 6936SOL    HW121182   5.098   4.236   5.486
 6936SOL    HW221183   5.196   4.131   5.407
 6937SOL     OW21184   4.697   4.614   5.296
 6937SOL    HW121185   4.743   4.530   5.267
 6937SOL    HW221186   4.641   4.648   5.221
 6938SOL     OW21187   4.715   4.134   4.966
 6938SOL    HW121188   4.638   4.168   5.020
 6938SOL    HW221189   4.681   4.083   4.887
 6939SOL     OW21190   4.765   4.425   4.153
 6939SOL    HW121191   4.791   4.421   4.249
 6939SOL    HW221192   4.680   4.374   4.139
 6940SOL     OW21193   3.800   4.535   4.513
 6940SOL    HW121194   3.899   4.523   4.522
 6940SOL    HW221195   3.776   4.630   4.534
 6941SOL     OW21196   4.589   4.072   3.919
 6941SOL    HW121197   4.648   4.135   3.870
 6941SOL    HW221198   4.608   3.978   3.890
 6942SOL     OW21199   5.086   4.868   4.269
 6942SOL    HW121200   5.169   4.839   4.221
 6942SOL    HW221201   5.037   4.935   4.213
 6943SOL     OW21202   4.274   3.920   4.609
 6943SOL    HW121203   4.269   3.915   4.709
 6943SOL    HW221204   4.276   4.016   4.580
 6944SOL     OW21205   4.732   5.180   4.201
 6944SOL    HW121206   4.686   5.252   4.149
 6944SOL    HW221207   4.728   5.200   4.299
 6945SOL     OW21208   4.951   5.274   5.230
 6945SOL    HW121209   4.957   5.197   5.294
 6945SOL    HW221210   4.899   5.248   5.150
 6946SOL     OW21211   4.045   4.667   3.966
 6946SOL    HW121212   4.127   4.706   3.924
 6946SOL    HW221213   4.018   4.585   3.917
 6947SOL     OW21214   4.185   4.990   5.451
 6947SOL    HW121215   4.135   4.991   5.365
 6947SOL    HW221216   4.122   4.972   5.527
 6948SOL     OW21217   4.835   5.500   3.961
 6948SOL    HW121218   4.775   5.438   4.011
 6948SOL    HW221219   4.866   5.456   3.876
 6949SOL     OW21220   3.926   4.009   5.222
 6949SOL    HW121221   3.846   4.069   5.209
 6949SOL    HW221222   3.916   3.960   5.308
 6950SOL     OW21223   5.124   3.831   4.150
 6950SOL    HW121224   5.100   3.794   4.060
 6950SOL    HW221225   5.223   3.847   4.154
 6951SOL     OW21226   4.106   4.424   4.204
 6951SOL    HW121227   4.151   4.334   4.201
 6951SOL    HW221228   4.012   4.413   4.237
 6952SOL     OW21229   4.338   3.846   3.841
 6952SOL    HW121230   4.436   3.824   3.848
 6952SOL    HW221231   4.307   3.829   3.748
 6953SOL     OW21232   4.505   3.988   5.473
 6953SOL    HW121233   4.572   3.927   5.516
 6953SOL    HW221234   4.432   4.007   5.538
 6954SOL     OW21235   5.075   4.314   5.157
 6954SOL    HW121236   5.103   4.271   5.242
 6954SOL    HW221237   5.100   4.410   5.158
 6955SOL     OW21238   4.527   5.126   4.648
 6955SOL    HW121239   4.617   5.140   4.606
 6955SOL    HW221240   4.456   5.128   4.577
 6956SOL     OW21241   4.646   4.227   4.623
 6956SOL    HW121242   4.621   4.218   4.527
 6956SOL    HW221243   4.694   4.145   4.654
 6957SOL     OW21244   4.263   3.788   4.236
 6957SOL    HW121245   4.182   3.789   4.294
 6957SOL    HW221246   4.266   3.871   4.181
 6958SOL     OW21247   5.158   4.912   3.765
 6958SOL    HW121248   5.190   4.836   3.822
 6958SOL    HW221249   5.066   4.939   3.795
 6959SOL     OW21250   4.021   3.759   3.895
 6959SOL    HW121251   4.070   3.843   3.874
 6959SOL    HW221252   4.083   3.694   3.940
 6960SOL     OW21253   4.659   3.960   4.204
 6960SOL    HW121254   4.611   4.001   4.126
 6960SOL    HW221255   4.758   3.958   4.185
 6961SOL     OW21256   4.800   4.407   5.188
 6961SOL    HW121257   4.720   4.346   5.191
 6961SOL    HW221258   4.881   4.354   5.164
 6962SOL     OW21259   4.951   5.294   4.517
 6962SOL    HW121260   4.972   5.368   4.452
 6962SOL    HW221261   5.019   5.294   4.590
 6963SOL     OW21262   4.183   4.876   4.465
 6963SOL    HW121263   4.112   4.849   4.530
 6963SOL    HW221264   4.157   4.848   4.372
 6964SOL     OW21265   4.756   4.273   3.740
 6964SOL    HW121266   4.715   4.355   3.701
 6964SOL    HW221267   4.820   4.299   3.813
 6965SOL     OW21268   3.802   4.280   5.110
 6965SOL    HW121269   3.894   4.279   5.069
 6965SOL    HW221270   3.796   4.354   5.177
 6966SOL     OW21271   4.285   3.946   4.871
 6966SOL    HW121272   4.323   3.862   4.908
 6966SOL    HW221273   4.197   3.965   4.915
 6967SOL     OW21274   4.590   4.178   4.366
 6967SOL    HW121275   4.558   4.250   4.304
 6967SOL    HW221276   4.614   4.097   4.313
 6968SOL     OW21277   4.741   3.763   4.477
 6968SOL    HW121278   4.669   3.768   4.408
 6968SOL    HW221279   4.717   3.694   4.546
 6969SOL     OW21280   5.153   4.897   4.591
 6969SOL    HW121281   5.098   4.813   4.584
 6969SOL    HW221282   5.179   4.926   4.499
 6970SOL     OW21283   4.212   5.109   3.898
 6970SOL    HW121284   4.125   5.094   3.945
 6970SOL    HW221285   4.195   5.135   3.803
 6971SOL     OW21286   5.114   4.299   3.802
 6971SOL    HW121287   5.060   4.278   3.883
 6971SOL    HW221288   5.205   4.258   3.811
 6972SOL     OW21289   4.251   3.980   4.052
 6972SOL    HW121290   4.278   3.921   3.977
 6972SOL    HW221291   4.251   4.075   4.021
 6973SOL     OW21292   4.788   5.071   5.064
 6973SOL    HW121293   4.708   5.048   5.119
 6973SOL    HW221294   4.871   5.045   5.113
 6974SOL     OW21295   4.835   4.919   4.824
 6974SOL    HW121296   4.795   4.963   4.905
 6974SOL    HW221297   4.794   4.956   4.741
 6975SOL     OW21298   4.639   3.813   5.126
 6975SOL    HW121299   4.664   3.793   5.031
 6975SOL    HW221300   4.711   3.869   5.168
 6976SOL     OW21301   4.704   4.840   5.443
 6976SOL    HW121302   4.605   4.846   5.453
 6976SOL    HW221303   4.727   4.760   5.387
 6977SOL     OW21304   4.429   4.774   4.092
 6977SOL    HW121305   4.415   4.781   4.191
 6977SOL    HW221306   4.513   4.723   4.074
 6978SOL     OW21307   4.134   4.537   4.975
 6978SOL    HW121308   4.220   4.549   5.025
 6978SOL    HW221309   4.092   4.450   5.002
 6979SOL     OW21310   4.998   4.110   4.986
 6979SOL    HW121311   5.019   4.184   5.050
 6979SOL    HW221312   4.909   4.127   4.943
 6980SOL     OW21313   4.091   4.824   4.225
 6980SOL    HW121314   4.084   4.907   4.169
 6980SOL    HW221315   4.095   4.744   4.165
 6981SOL     OW21316   4.290   4.261   4.589
 6981SOL    HW121317   4.302   4.327   4.515
 6981SOL    HW221318   4.336   4.295   4.672
 6982SOL     OW21319   4.976   5.072   4.112
 6982SOL    HW121320   5.026   5.149   4.152
 6982SOL    HW221321   4.881   5.074   4.144
 6983SOL     OW21322   4.996   5.169   4.866
 6983SOL    HW121323   5.043   5.182   4.953
 6983SOL    HW221324   4.930   5.095   4.875
 6984SOL     OW21325   4.078   5.234   5.053
 6984SOL    HW121326   4.057   5.190   4.966
 6984SOL    HW221327   4.175   5.260   5.056
 6985SOL     OW21328   4.126   4.475   5.322
 6985SOL    HW121329   4.194   4.530   5.275
 6985SOL    HW221330   4.166   4.387   5.349
 6986SOL     OW21331   4.737   3.829   5.494
 6986SOL    HW121332   4.743   3.914   5.442
 6986SOL    HW221333   4.769   3.753   5.437
 6987SOL     OW21334   4.228   3.774   5.464
 6987SOL    HW121335   4.186   3.717   5.394
 6987SOL    HW221336   4.162   3.843   5.496
 6988SOL     OW21337   4.297   4.594   4.753
 6988SOL    HW121338   4.341   4.683   4.744
 6988SOL    HW221339   4.234   4.594   4.830
 6989SOL     OW21340   5.084   4.586   4.769
 6989SOL    HW121341   5.009   4.586   4.703
 6989SOL    HW221342   5.121   4.494   4.778
 6990SOL     OW21343   4.933   4.249   3.999
 6990SOL    HW121344   4.946   4.165   4.053
 6990SOL    HW221345   4.904   4.323   4.059
 6991SOL     OW21346   4.031   3.937   4.955
 6991SOL    HW121347   4.008   3.974   5.045
 6991SOL    HW221348   4.001   3.842   4.949
 6992SOL     OW21349   3.761   5.034   5.006
 6992SOL    HW121350   3.814   4.985   5.074
 6992SOL    HW221351   3.783   5.132   5.011
 6993SOL     OW21352   4.456   4.358   4.788
 6993SOL    HW121353   4.515   4.332   4.712
 6993SOL    HW221354   4.428   4.454   4.777
 6994SOL     OW21355   4.031   3.787   4.342
 6994SOL    HW121356   4.020   3.881   4.375
 6994SOL    HW221357   4.026   3.724   4.419
 6995SOL     OW21358   5.346   4.091   4.098
 6995SOL    HW121359   5.348   4.015   4.162
 6995SOL    HW221360   5.298   4.168   4.138
 6996SOL     OW21361   4.747   4.490   4.690
 6996SOL    HW121362   4.762   4.511   4.786
 6996SOL    HW221363   4.717   4.395   4.681
 6997SOL     OW21364   4.074   4.622   5.528
 6997SOL    HW121365   4.150   4.666   5.576
 6997SOL    HW221366   4.109   4.575   5.446
 6998SOL     OW21367   5.027   4.562   3.766
 6998SOL    HW121368   5.061   4.469   3.781
 6998SOL    HW221369   5.045   4.589   3.671
 6999SOL     OW21370   4.792   5.057   4.573
 6999SOL    HW121371   4.799   4.973   4.518
 6999SOL    HW221372   4.854   5.126   4.537
 7000SOL     OW21373   4.043   4.534   4.673
 7000SOL    HW121374   4.136   4.570   4.678
 7000SOL    HW221375   4.037   4.449   4.725
 7001SOL     OW21376   4.063   4.233   4.730
 7001SOL    HW121377   4.011   4.150   4.713
 7001SOL    HW221378   4.140   4.238   4.666
 7002SOL     OW21379   4.862   4.104   5.402
 7002SOL    HW121380   4.817   4.167   5.466
 7002SOL    HW221381   4.955   4.135   5.385
 7003SOL     OW21382   4.884   3.931   5.201
 7003SOL    HW121383   4.884   3.995   5.278
 7003SOL    HW221384   4.912   3.979   5.118
 7004SOL     OW21385   3.732   5.050   3.924
 7004SOL    HW121386   3.639   5.071   3.893
 7004SOL    HW221387   3.742   4.951   3.937
 7005SOL     OW21388   4.726   4.520   4.962
 7005SOL    HW121389   4.767   4.488   5.048
 7005SOL    HW221390   4.630   4.493   4.959
 7006SOL     OW21391   3.764   4.268   4.838
 7006SOL    HW121392   3.849   4.235   4.797
 7006SOL    HW221393   3.777   4.283   4.936
 7007SOL     OW21394   3.913   4.244   5.446
 7007SOL    HW121395   3.972   4.204   5.376
 7007SOL    HW221396   3.855   4.315   5.405
 7008SOL     OW21397   5.093   4.674   5.384
 7008SOL    HW121398   5.132   4.763   5.404
 7008SOL    HW221399   5.103   4.654   5.287
 7009SOL     OW21400   4.539   4.296   4.049
 7009SOL    HW121401   4.546   4.207   4.003
 7009SOL    HW221402   4.445   4.330   4.041
 7010SOL     OW21403   3.976   5.288   5.468
 7010SOL    HW121404   3.946   5.345   5.544
 7010SOL    HW221405   3.969   5.191   5.494
 7011SOL     OW21406   4.395   4.188   4.993
 7011SOL    HW121407   4.361   4.099   4.963
 7011SOL    HW221408   4.421   4.242   4.913
 7012SOL     OW21409   4.197   4.224   3.915
 7012SOL    HW121410   4.258   4.304   3.919
 7012SOL    HW221411   4.102   4.255   3.922
 7013SOL     OW21412   3.883   4.861   5.190
 7013SOL    HW121413   3.905   4.800   5.266
 7013SOL    HW221414   3.893   4.812   5.104
 7014SOL     OW21415   5.071   4.783   4.958
 7014SOL    HW121416   5.095   4.720   4.884
 7014SOL    HW221417   4.981   4.823   4.940
 7015SOL     OW21418   5.026   4.579   4.033
 7015SOL    HW121419   4.940   4.548   4.075
 7015SOL    HW221420   5.022   4.565   3.934
 7016SOL     OW21421   3.807   4.982   4.746
 7016SOL    HW121422   3.802   4.981   4.846
 7016SOL    HW221423   3.724   4.941   4.708
 7017SOL     OW21424   4.412   5.386   5.440
 7017SOL    HW121425   4.356   5.467   5.449
 7017SOL    HW221426   4.464   5.390   5.354
 7018SOL     OW21427   5.450   3.859   4.247
 7018SOL    HW121428   5.523   3.842   4.180
 7018SOL    HW221429   5.419   3.772   4.285
 7019SOL     OW21430   5.004   4.651   4.396
 7019SOL    HW121431   5.064   4.570   4.398
 7019SOL    HW221432   5.044   4.720   4.336
 7020SOL     OW21433   4.554   4.997   5.146
 7020SOL    HW121434   4.549   5.030   5.241
 7020SOL    HW221435   4.468   5.016   5.100
 7021SOL     OW21436   3.987   4.050   4.444
 7021SOL    HW121437   3.908   4.101   4.410
 7021SOL    HW221438   3.978   4.035   4.542
 7022SOL     OW21439   4.546   4.726   5.096
 7022SOL    HW121440   4.586   4.725   5.004
 7022SOL    HW221441   4.556   4.818   5.136
 7023SOL     OW21442   4.640   4.634   4.015
 7023SOL    HW121443   4.703   4.672   3.947
 7023SOL    HW221444   4.680   4.551   4.054
 7024SOL     OW21445   4.096   5.012   5.214
 7024SOL    HW121446   4.083   5.105   5.180
 7024SOL    HW221447   4.012   4.960   5.201
 7025SOL     OW21448   4.763   4.822   4.420
 7025SOL    HW121449   4.693   4.775   4.474
 7025SOL    HW221450   4.822   4.754   4.377
 7026SOL     OW21451   4.738   3.960   4.695
 7026SOL    HW121452   4.730   3.924   4.602
 7026SOL    HW221453   4.736   3.884   4.760
 7027SOL     OW21454   3.979   5.072   4.014
 7027SOL    HW121455   3.883   5.073   3.987
 7027SOL    HW221456   3.991   5.125   4.098
 7028SOL     OW21457   3.829   4.737   5.450
 7028SOL    HW121458   3.752   4.704   5.504
 7028SOL    HW221459   3.914   4.707   5.492
 7029SOL     OW21460   4.396   3.927   5.213
 7029SOL    HW121461   4.486   3.911   5.173
 7029SOL    HW221462   4.404   3.932   5.312
 7030SOL     OW21463   3.799   4.069   3.757
 7030SOL    HW121464   3.707   4.041   3.728
 7030SOL    HW221465   3.830   4.146   3.701
 7031SOL     OW21466   5.164   4.580   5.122
 7031SOL    HW121467   5.107   4.632   5.059
 7031SOL    HW221468   5.260   4.592   5.098
 7032SOL     OW21469   3.796   3.890   4.042
 7032SOL    HW121470   3.779   3.973   3.988
 7032SOL    HW221471   3.886   3.853   4.020
 7033SOL     OW21472   4.907   5.059   3.843
 7033SOL    HW121473   4.808   5.048   3.845
 7033SOL    HW221474   4.941   5.074   3.936
 7034SOL     OW21475   4.337   4.566   5.155
 7034SOL    HW121476   4.393   4.647   5.138
 7034SOL    HW221477   4.396   4.486   5.158
 7035SOL     OW21478   4.440   4.289   5.432
 7035SOL    HW121479   4.459   4.354   5.506
 7035SOL    HW221480   4.500   4.209   5.441
 7036SOL     OW21481   5.174   4.944   5.357
 7036SOL    HW121482   5.165   4.934   5.456
 7036SOL    HW221483   5.270   4.937   5.331
 7037SOL     OW21484   4.949   4.049   4.173
 7037SOL    HW121485   5.014   3.975   4.162
 7037SOL    HW221486   4.969   4.099   4.257
 7038SOL     OW21487   4.318   4.469   4.376
 7038SOL    HW121488   4.368   4.554   4.357
 7038SOL    HW221489   4.230   4.471   4.328
 7039SOL     OW21490   4.583   5.098   3.740
 7039SOL    HW121491   4.537   5.113   3.828
 7039SOL    HW221492   4.627   5.183   3.710
 7040SOL     OW21493   4.583   4.680   4.585
 7040SOL    HW121494   4.637   4.611   4.633
 7040SOL    HW221495   4.551   4.749   4.651
 7041SOL     OW21496   4.807   4.708   3.811
 7041SOL    HW121497   4.784   4.761   3.729
 7041SOL    HW221498   4.888   4.652   3.792
 7042SOL     OW21499   3.945   5.038   5.568
 7042SOL    HW121500   3.880   4.965   5.547
 7042SOL    HW221501   3.949   5.052   5.666
 7043SOL     OW21502   3.803   4.964   4.377
 7043SOL    HW121503   3.802   4.917   4.465
 7043SOL    HW221504   3.885   4.936   4.326
 7044SOL     OW21505   4.396   5.115   5.348
 7044SOL    HW121506   4.318   5.065   5.386
 7044SOL    HW221507   4.393   5.210   5.379
 7045SOL     OW21508   4.152   4.148   4.244
 7045SOL    HW121509   4.182   4.076   4.182
 7045SOL    HW221510   4.113   4.108   4.327
 7046SOL     OW21511   5.429   5.211   4.828
 7046SOL    HW121512   5.336   5.186   4.801
 7046SOL    HW221513   5.455   5.161   4.910
 7047SOL     OW21514   4.041   4.271   5.004
 7047SOL    HW121515   4.079   4.212   5.076
 7047SOL    HW221516   4.081   4.245   4.916
 7048SOL     OW21517   5.148   3.938   4.836
 7048SOL    HW121518   5.200   3.873   4.891
 7048SOL    HW221519   5.099   4.001   4.897
 7049SOL     OW21520   4.725   3.758   4.878
 7049SOL    HW121521   4.662   3.686   4.847
 7049SOL    HW221522   4.818   3.722   4.878
 7050SOL     OW21523   4.494   5.054   4.025
 7050SOL    HW121524   4.448   4.967   4.042
 7050SOL    HW221525   4.585   5.051   4.066
 7051SOL     OW21526   4.342   5.291   5.008
 7051SOL    HW121527   4.337   5.373   5.065
 7051SOL    HW221528   4.431   5.288   4.963
 7052SOL     OW21529   5.076   3.776   3.892
 7052SOL    HW121530   5.111   3.735   3.808
 7052SOL    HW221531   4.986   3.738   3.912
 7053SOL     OW21532   5.024   4.177   4.415
 7053SOL    HW121533   4.965   4.257   4.419
 7053SOL    HW221534   5.039   4.142   4.508
 7054SOL     OW21535   5.317   3.945   4.606
 7054SOL    HW121536   5.233   3.944   4.660
 7054SOL    HW221537   5.319   4.028   4.550
 7055SOL     OW21538   3.763   4.801   4.024
 7055SOL    HW121539   3.862   4.790   4.015
 7055SOL    HW221540   3.723   4.715   4.056
 7056SOL     OW21541   3.954   4.352   5.699
 7056SOL    HW121542   3.861   4.350   5.736
 7056SOL    HW221543   3.955   4.313   5.607
 7057SOL     OW21544   3.949   3.999   6.582
 7057SOL    HW121545   3.984   3.982   6.674
 7057SOL    HW221546   3.861   3.954   6.570
 7058SOL     OW21547   3.743   4.092   6.233
 7058SOL    HW121548   3.661   4.135   6.272
 7058SOL    HW221549   3.715   4.019   6.170
 7059SOL     OW21550   4.293   4.999   6.751
 7059SOL    HW121551   4.200   4.992   6.714
 7059SOL    HW221552   4.304   5.088   6.795
 7060SOL     OW21553   5.279   5.235   6.289
 7060SOL    HW121554   5.222   5.219   6.370
 7060SOL    HW221555   5.220   5.245   6.209
 7061SOL     OW21556   4.859   4.427   6.303
 7061SOL    HW121557   4.916   4.505   6.278
 7061SOL    HW221558   4.799   4.453   6.379
 7062SOL     OW21559   4.492   4.868   6.609
 7062SOL    HW121560   4.414   4.885   6.669
 7062SOL    HW221561   4.526   4.955   6.573
 7063SOL     OW21562   4.574   4.522   7.409
 7063SOL    HW121563   4.570   4.598   7.474
 7063SOL    HW221564   4.596   4.558   7.318
 7064SOL     OW21565   4.409   4.736   6.251
 7064SOL    HW121566   4.478   4.720   6.321
 7064SOL    HW221567   4.336   4.793   6.289
 7065SOL     OW21568   4.410   4.885   7.389
 7065SOL    HW121569   4.470   4.964   7.403
 7065SOL    HW221570   4.324   4.916   7.348
 7066SOL     OW21571   4.059   5.159   6.647
 7066SOL    HW121572   3.981   5.128   6.594
 7066SOL    HW221573   4.117   5.217   6.590
 7067SOL     OW21574   5.184   5.229   6.925
 7067SOL    HW121575   5.208   5.323   6.951
 7067SOL    HW221576   5.168   5.175   7.007
 7068SOL     OW21577   4.162   4.116   7.085
 7068SOL    HW121578   4.244   4.060   7.094
 7068SOL    HW221579   4.081   4.058   7.089
 7069SOL     OW21580   4.851   5.065   7.276
 7069SOL    HW121581   4.898   5.065   7.364
 7069SOL    HW221582   4.803   4.978   7.265
 7070SOL     OW21583   3.954   5.158   6.124
 7070SOL    HW121584   3.928   5.254   6.124
 7070SOL    HW221585   3.883   5.104   6.169
 7071SOL     OW21586   3.964   4.815   6.472
 7071SOL    HW121587   3.978   4.731   6.524
 7071SOL    HW221588   3.909   4.879   6.527
 7072SOL     OW21589   4.330   4.688   5.709
 7072SOL    HW121590   4.337   4.772   5.655
 7072SOL    HW221591   4.376   4.701   5.797
 7073SOL     OW21592   3.846   4.367   6.149
 7073SOL    HW121593   3.801   4.279   6.166
 7073SOL    HW221594   3.845   4.421   6.233
 7074SOL     OW21595   3.751   5.320   5.703
 7074SOL    HW121596   3.732   5.224   5.724
 7074SOL    HW221597   3.718   5.378   5.778
 7075SOL     OW21598   5.413   4.646   6.198
 7075SOL    HW121599   5.508   4.617   6.206
 7075SOL    HW221600   5.405   4.711   6.123
 7076SOL     OW21601   3.837   4.461   7.183
 7076SOL    HW121602   3.925   4.448   7.228
 7076SOL    HW221603   3.824   4.558   7.161
 7077SOL     OW21604   4.337   5.089   6.312
 7077SOL    HW121605   4.288   5.002   6.321
 7077SOL    HW221606   4.314   5.132   6.225
 7078SOL     OW21607   5.017   4.952   7.009
 7078SOL    HW121608   5.054   4.879   6.951
 7078SOL    HW221609   5.069   4.957   7.094
 7079SOL     OW21610   4.533   3.728   6.088
 7079SOL    HW121611   4.573   3.819   6.079
 7079SOL    HW221612   4.433   3.736   6.094
 7080SOL     OW21613   3.921   4.700   6.850
 7080SOL    HW121614   4.010   4.655   6.836
 7080SOL    HW221615   3.848   4.635   6.831
 7081SOL     OW21616   4.041   3.975   7.387
 7081SOL    HW121617   4.112   4.046   7.393
 7081SOL    HW221618   3.953   4.014   7.415
 7082SOL     OW21619   5.190   5.141   6.539
 7082SOL    HW121620   5.131   5.147   6.619
 7082SOL    HW221621   5.175   5.053   6.493
 7083SOL     OW21622   5.391   5.438   6.158
 7083SOL    HW121623   5.350   5.415   6.070
 7083SOL    HW221624   5.373   5.364   6.223
 7084SOL     OW21625   4.322   4.453   5.856
 7084SOL    HW121626   4.346   4.522   5.788
 7084SOL    HW221627   4.244   4.486   5.910
 7085SOL     OW21628   5.005   4.069   6.530
 7085SOL    HW121629   4.919   4.019   6.517
 7085SOL    HW221630   5.067   4.015   6.586
 7086SOL     OW21631   4.531   4.329   7.051
 7086SOL    HW121632   4.484   4.326   7.140
 7086SOL    HW221633   4.480   4.274   6.985
 7087SOL     OW21634   5.118   4.193   7.260
 7087SOL    HW121635   5.098   4.236   7.348
 7087SOL    HW221636   5.196   4.131   7.269
 7088SOL     OW21637   4.697   4.614   7.158
 7088SOL    HW121638   4.743   4.530   7.129
 7088SOL    HW221639   4.641   4.648   7.083
 7089SOL     OW21640   4.715   4.134   6.828
 7089SOL    HW121641   4.638   4.168   6.882
 7089SOL    HW221642   4.681   4.083   6.749
 7090SOL     OW21643   4.765   4.425   6.015
 7090SOL    HW121644   4.791   4.421   6.111
 7090SOL    HW221645   4.680   4.374   6.001
 7091SOL     OW21646   3.800   4.535   6.375
 7091SOL    HW121647   3.899   4.523   6.384
 7091SOL    HW221648   3.776   4.630   6.396
 7092SOL     OW21649   4.589   4.072   5.781
 7092SOL    HW121650   4.648   4.135   5.732
 7092SOL    HW221651   4.608   3.978   5.752
 7093SOL     OW21652   5.086   4.868   6.131
 7093SOL    HW121653   5.169   4.839   6.083
 7093SOL    HW221654   5.037   4.935   6.075
 7094SOL     OW21655   4.274   3.920   6.471
 7094SOL    HW121656   4.269   3.915   6.571
 7094SOL    HW221657   4.276   4.016   6.442
 7095SOL     OW21658   4.732   5.180   6.063
 7095SOL    HW121659   4.686   5.252   6.011
 7095SOL    HW221660   4.728   5.200   6.161
 7096SOL     OW21661   4.951   5.274   7.092
 7096SOL    HW121662   4.957   5.197   7.156
 7096SOL    HW221663   4.899   5.248   7.012
 7097SOL     OW21664   4.045   4.667   5.828
 7097SOL    HW121665   4.127   4.706   5.786
 7097SOL    HW221666   4.018   4.585   5.779
 7098SOL     OW21667   4.185   4.990   7.313
 7098SOL    HW121668   4.135   4.991   7.227
 7098SOL    HW221669   4.122   4.972   7.389
 7099SOL     OW21670   4.835   5.500   5.823
 7099SOL    HW121671   4.775   5.438   5.873
 7099SOL    HW221672   4.866   5.456   5.738
 7100SOL     OW21673   3.926   4.009   7.084
 7100SOL    HW121674   3.846   4.069   7.071
 7100SOL    HW221675   3.916   3.960   7.170
 7101SOL     OW21676   5.124   3.831   6.012
 7101SOL    HW121677   5.100   3.794   5.922
 7101SOL    HW221678   5.223   3.847   6.016
 7102SOL     OW21679   4.106   4.424   6.066
 7102SOL    HW121680   4.151   4.334   6.063
 7102SOL    HW221681   4.012   4.413   6.099
 7103SOL     OW21682   4.338   3.846   5.703
 7103SOL    HW121683   4.436   3.824   5.710
 7103SOL    HW221684   4.307   3.829   5.610
 7104SOL     OW21685   4.505   3.988   7.335
 7104SOL    HW121686   4.572   3.927   7.378
 7104SOL    HW221687   4.432   4.007   7.400
 7105SOL     OW21688   5.075   4.314   7.019
 7105SOL    HW121689   5.103   4.271   7.104
 7105SOL    HW221690   5.100   4.410   7.020
 7106SOL     OW21691   4.527   5.126   6.510
 7106SOL    HW121692   4.617   5.140   6.468
 7106SOL    HW221693   4.456   5.128   6.439
 7107SOL     OW21694   4.646   4.227   6.485
 7107SOL    HW121695   4.621   4.218   6.389
 7107SOL    HW221696   4.694   4.145   6.516
 7108SOL     OW21697   4.263   3.788   6.098
 7108SOL    HW121698   4.182   3.789   6.156
 7108SOL    HW221699   4.266   3.871   6.043
 7109SOL     OW21700   5.158   4.912   5.627
 7109SOL    HW121701   5.190   4.836   5.684
 7109SOL    HW221702   5.066   4.939   5.657
 7110SOL     OW21703   4.021   3.759   5.757
 7110SOL    HW121704   4.070   3.843   5.736
 7110SOL    HW221705   4.083   3.694   5.802
 7111SOL     OW21706   4.659   3.960   6.066
 7111SOL    HW121707   4.611   4.001   5.988
 7111SOL    HW221708   4.758   3.958   6.047
 7112SOL     OW21709   4.800   4.407   7.050
 7112SOL    HW121710   4.720   4.346   7.053
 7112SOL    HW221711   4.881   4.354   7.026
 7113SOL     OW21712   4.951   5.294   6.379
 7113SOL    HW121713   4.972   5.368   6.314
 7113SOL    HW221714   5.019   5.294   6.452
 7114SOL     OW21715   4.183   4.876   6.327
 7114SOL    HW121716   4.112   4.849   6.392
 7114SOL    HW221717   4.157   4.848   6.234
 7115SOL     OW21718   4.756   4.273   5.602
 7115SOL    HW121719   4.715   4.355   5.563
 7115SOL    HW221720   4.820   4.299   5.675
 7116SOL     OW21721   3.802   4.280   6.972
 7116SOL    HW121722   3.894   4.279   6.931
 7116SOL    HW221723   3.796   4.354   7.039
 7117SOL     OW21724   4.285   3.946   6.733
 7117SOL    HW121725   4.323   3.862   6.770
 7117SOL    HW221726   4.197   3.965   6.777
 7118SOL     OW21727   4.590   4.178   6.228
 7118SOL    HW121728   4.558   4.250   6.166
 7118SOL    HW221729   4.614   4.097   6.175
 7119SOL     OW21730   4.741   3.763   6.339
 7119SOL    HW121731   4.669   3.768   6.270
 7119SOL    HW221732   4.717   3.694   6.408
 7120SOL     OW21733   5.153   4.897   6.453
 7120SOL    HW121734   5.098   4.813   6.446
 7120SOL    HW221735   5.179   4.926   6.361
 7121SOL     OW21736   4.212   5.109   5.760
 7121SOL    HW121737   4.125   5.094   5.807
 7121SOL    HW221738   4.195   5.135   5.665
 7122SOL     OW21739   5.114   4.299   5.664
 7122SOL    HW121740   5.060   4.278   5.745
 7122SOL    HW221741   5.205   4.258   5.673
 7123SOL     OW21742   4.251   3.980   5.914
 7123SOL    HW121743   4.278   3.921   5.839
 7123SOL    HW221744   4.251   4.075   5.883
 7124SOL     OW21745   4.788   5.071   6.926
 7124SOL    HW121746   4.708   5.048   6.981
 7124SOL    HW221747   4.871   5.045   6.975
 7125SOL     OW21748   4.835   4.919   6.686
 7125SOL    HW121749   4.795   4.963   6.767
 7125SOL    HW221750   4.794   4.956   6.603
 7126SOL     OW21751   4.639   3.813   6.988
 7126SOL    HW121752   4.664   3.793   6.893
 7126SOL    HW221753   4.711   3.869   7.030
 7127SOL     OW21754   4.704   4.840   7.305
 7127SOL    HW121755   4.605   4.846   7.315
 7127SOL    HW221756   4.727   4.760   7.249
 7128SOL     OW21757   4.429   4.774   5.954
 7128SOL    HW121758   4.415   4.781   6.053
 7128SOL    HW221759   4.513   4.723   5.936
 7129SOL     OW21760   4.134   4.537   6.837
 7129SOL    HW121761   4.220   4.549   6.887
 7129SOL    HW221762   4.092   4.450   6.864
 7130SOL     OW21763   4.998   4.110   6.848
 7130SOL    HW121764   5.019   4.184   6.912
 7130SOL    HW221765   4.909   4.127   6.805
 7131SOL     OW21766   4.091   4.824   6.087
 7131SOL    HW121767   4.084   4.907   6.031
 7131SOL    HW221768   4.095   4.744   6.027
 7132SOL     OW21769   4.290   4.261   6.451
 7132SOL    HW121770   4.302   4.327   6.377
 7132SOL    HW221771   4.336   4.295   6.534
 7133SOL     OW21772   4.976   5.072   5.974
 7133SOL    HW121773   5.026   5.149   6.014
 7133SOL    HW221774   4.881   5.074   6.006
 7134SOL     OW21775   4.996   5.169   6.728
 7134SOL    HW121776   5.043   5.182   6.815
 7134SOL    HW221777   4.930   5.095   6.737
 7135SOL     OW21778   4.078   5.234   6.915
 7135SOL    HW121779   4.057   5.190   6.828
 7135SOL    HW221780   4.175   5.260   6.918
 7136SOL     OW21781   4.126   4.475   7.184
 7136SOL    HW121782   4.194   4.530   7.137
 7136SOL    HW221783   4.166   4.387   7.211
 7137SOL     OW21784   4.737   3.829   7.356
 7137SOL    HW121785   4.743   3.914   7.304
 7137SOL    HW221786   4.769   3.753   7.299
 7138SOL     OW21787   4.228   3.774   7.326
 7138SOL    HW121788   4.186   3.717   7.256
 7138SOL    HW221789   4.162   3.843   7.358
 7139SOL     OW21790   4.297   4.594   6.615
 7139SOL    HW121791   4.341   4.683   6.606
 7139SOL    HW221792   4.234   4.594   6.692
 7140SOL     OW21793   5.084   4.586   6.631
 7140SOL    HW121794   5.009   4.586   6.565
 7140SOL    HW221795   5.121   4.494   6.640
 7141SOL     OW21796   4.933   4.249   5.861
 7141SOL    HW121797   4.946   4.165   5.915
 7141SOL    HW221798   4.904   4.323   5.921
 7142SOL     OW21799   4.031   3.937   6.817
 7142SOL    HW121800   4.008   3.974   6.907
 7142SOL    HW221801   4.001   3.842   6.811
 7143SOL     OW21802   3.761   5.034   6.868
 7143SOL    HW121803   3.814   4.985   6.936
 7143SOL    HW221804   3.783   5.132   6.873
 7144SOL     OW21805   4.456   4.358   6.650
 7144SOL    HW121806   4.515   4.332   6.574
 7144SOL    HW221807   4.428   4.454   6.639
 7145SOL     OW21808   4.031   3.787   6.204
 7145SOL    HW121809   4.020   3.881   6.237
 7145SOL    HW221810   4.026   3.724   6.281
 7146SOL     OW21811   5.346   4.091   5.960
 7146SOL    HW121812   5.348   4.015   6.024
 7146SOL    HW221813   5.298   4.168   6.000
 7147SOL     OW21814   4.747   4.490   6.552
 7147SOL    HW121815   4.762   4.511   6.648
 7147SOL    HW221816   4.717   4.395   6.543
 7148SOL     OW21817   4.074   4.622   7.390
 7148SOL    HW121818   4.150   4.666   7.438
 7148SOL    HW221819   4.109   4.575   7.308
 7149SOL     OW21820   5.027   4.562   5.628
 7149SOL    HW121821   5.061   4.469   5.643
 7149SOL    HW221822   5.045   4.589   5.533
 7150SOL     OW21823   4.792   5.057   6.435
 7150SOL    HW121824   4.799   4.973   6.380
 7150SOL    HW221825   4.854   5.126   6.399
 7151SOL     OW21826   4.043   4.534   6.535
 7151SOL    HW121827   4.136   4.570   6.540
 7151SOL    HW221828   4.037   4.449   6.587
 7152SOL     OW21829   4.063   4.233   6.592
 7152SOL    HW121830   4.011   4.150   6.575
 7152SOL    HW221831   4.140   4.238   6.528
 7153SOL     OW21832   4.862   4.104   7.264
 7153SOL    HW121833   4.817   4.167   7.328
 7153SOL    HW221834   4.955   4.135   7.247
 7154SOL     OW21835   4.884   3.931   7.063
 7154SOL    HW121836   4.884   3.995   7.140
 7154SOL    HW221837   4.912   3.979   6.980
 7155SOL     OW21838   3.732   5.050   5.786
 7155SOL    HW121839   3.639   5.071   5.755
 7155SOL    HW221840   3.742   4.951   5.799
 7156SOL     OW21841   4.726   4.520   6.824
 7156SOL    HW121842   4.767   4.488   6.910
 7156SOL    HW221843   4.630   4.493   6.821
 7157SOL     OW21844   3.764   4.268   6.700
 7157SOL    HW121845   3.849   4.235   6.659
 7157SOL    HW221846   3.777   4.283   6.798
 7158SOL     OW21847   3.913   4.244   7.308
 7158SOL    HW121848   3.972   4.204   7.238
 7158SOL    HW221849   3.855   4.315   7.267
 7159SOL     OW21850   5.093   4.674   7.246
 7159SOL    HW121851   5.132   4.763   7.266
 7159SOL    HW221852   5.103   4.654   7.149
 7160SOL     OW21853   4.539   4.296   5.911
 7160SOL    HW121854   4.546   4.207   5.865
 7160SOL    HW221855   4.445   4.330   5.903
 7161SOL     OW21856   3.976   5.288   7.330
 7161SOL    HW121857   3.946   5.345   7.406
 7161SOL    HW221858   3.969   5.191   7.356
 7162SOL     OW21859   4.395   4.188   6.855
 7162SOL    HW121860   4.361   4.099   6.825
 7162SOL    HW221861   4.421   4.242   6.775
 7163SOL     OW21862   4.197   4.224   5.777
 7163SOL    HW121863   4.258   4.304   5.781
 7163SOL    HW221864   4.102   4.255   5.784
 7164SOL     OW21865   3.883   4.861   7.052
 7164SOL    HW121866   3.905   4.800   7.128
 7164SOL    HW221867   3.893   4.812   6.966
 7165SOL     OW21868   5.071   4.783   6.820
 7165SOL    HW121869   5.095   4.720   6.746
 7165SOL    HW221870   4.981   4.823   6.802
 7166SOL     OW21871   5.026   4.579   5.895
 7166SOL    HW121872   4.940   4.548   5.937
 7166SOL    HW221873   5.022   4.565   5.796
 7167SOL     OW21874   3.807   4.982   6.608
 7167SOL    HW121875   3.802   4.981   6.708
 7167SOL    HW221876   3.724   4.941   6.570
 7168SOL     OW21877   4.412   5.386   7.302
 7168SOL    HW121878   4.356   5.467   7.311
 7168SOL    HW221879   4.464   5.390   7.216
 7169SOL     OW21880   5.450   3.859   6.109
 7169SOL    HW121881   5.523   3.842   6.042
 7169SOL    HW221882   5.419   3.772   6.147
 7170SOL     OW21883   5.004   4.651   6.258
 7170SOL    HW121884   5.064   4.570   6.260
 7170SOL    HW221885   5.044   4.720   6.198
 7171SOL     OW21886   4.554   4.997   7.008
 7171SOL    HW121887   4.549   5.030   7.103
 7171SOL    HW221888   4.468   5.016   6.962
 7172SOL     OW21889   3.987   4.050   6.306
 7172SOL    HW121890   3.908   4.101   6.272
 7172SOL    HW221891   3.978   4.035   6.404
 7173SOL     OW21892   4.546   4.726   6.958
 7173SOL    HW121893   4.586   4.725   6.866
 7173SOL    HW221894   4.556   4.818   6.998
 7174SOL     OW21895   4.640   4.634   5.877
 7174SOL    HW121896   4.703   4.672   5.809
 7174SOL    HW221897   4.680   4.551   5.916
 7175SOL     OW21898   4.096   5.012   7.076
 7175SOL    HW121899   4.083   5.105   7.042
 7175SOL    HW221900   4.012   4.960   7.063
 7176SOL     OW21901   4.763   4.822   6.282
 7176SOL    HW121902   4.693   4.775   6.336
 7176SOL    HW221903   4.822   4.754   6.239
 7177SOL     OW21904   4.738   3.960   6.557
 7177SOL    HW121905   4.730   3.924   6.464
 7177SOL    HW221906   4.736   3.884   6.622
 7178SOL     OW21907   3.979   5.072   5.876
 7178SOL    HW121908   3.883   5.073   5.849
 7178SOL    HW221909   3.991   5.125   5.960
 7179SOL     OW21910   3.829   4.737   7.312
 7179SOL    HW121911   3.752   4.704   7.366
 7179SOL    HW221912   3.914   4.707   7.354
 7180SOL     OW21913   4.396   3.927   7.075
 7180SOL    HW121914   4.486   3.911   7.035
 7180SOL    HW221915   4.404   3.932   7.174
 7181SOL     OW21916   3.799   4.069   5.619
 7181SOL    HW121917   3.707   4.041   5.590
 7181SOL    HW221918   3.830   4.146   5.563
 7182SOL     OW21919   5.164   4.580   6.984
 7182SOL    HW121920   5.107   4.632   6.921
 7182SOL    HW221921   5.260   4.592   6.960
 7183SOL     OW21922   3.796   3.890   5.904
 7183SOL    HW121923   3.779   3.973   5.850
 7183SOL    HW221924   3.886   3.853   5.882
 7184SOL     OW21925   4.907   5.059   5.705
 7184SOL    HW121926   4.808   5.048   5.707
 7184SOL    HW221927   4.941   5.074   5.798
 7185SOL     OW21928   4.337   4.566   7.017
 7185SOL    HW121929   4.393   4.647   7.000
 7185SOL    HW221930   4.396   4.486   7.020
 7186SOL     OW21931   4.440   4.289   7.294
 7186SOL    HW121932   4.459   4.354   7.368
 7186SOL    HW221933   4.500   4.209   7.303
 7187SOL     OW21934   5.174   4.944   7.219
 7187SOL    HW121935   5.165   4.934   7.318
 7187SOL    HW221936   5.270   4.937   7.193
 7188SOL     OW21937   4.949   4.049   6.035
 7188SOL    HW121938   5.014   3.975   6.024
 7188SOL    HW221939   4.969   4.099   6.119
 7189SOL     OW21940   4.318   4.469   6.238
 7189SOL    HW121941   4.368   4.554   6.219
 7189SOL    HW221942   4.230   4.471   6.190
 7190SOL     OW21943   4.583   5.098   5.602
 7190SOL    HW121944   4.537   5.113   5.690
 7190SOL    HW221945   4.627   5.183   5.572
 7191SOL     OW21946   4.583   4.680   6.447
 7191SOL    HW121947   4.637   4.611   6.495
 7191SOL    HW221948   4.551   4.749   6.513
 7192SOL     OW21949   4.807   4.708   5.673
 7192SOL    HW121950   4.784   4.761   5.591
 7192SOL    HW221951   4.888   4.652   5.654
 7193SOL     OW21952   3.945   5.038   7.430
 7193SOL    HW121953   3.880   4.965   7.409
 7193SOL    HW221954   3.949   5.052   7.528
 7194SOL     OW21955   3.803   4.964   6.239
 7194SOL    HW121956   3.802   4.917   6.327
 7194SOL    HW221957   3.885   4.936   6.188
 7195SOL     OW21958   4.396   5.115   7.210
 7195SOL    HW121959   4.318   5.065   7.248
 7195SOL    HW221960   4.393   5.210   7.241
 7196SOL     OW21961   4.152   4.148   6.106
 7196SOL    HW121962   4.182   4.076   6.044
 7196SOL    HW221963   4.113   4.108   6.189
 7197SOL     OW21964   5.429   5.211   6.690
 7197SOL    HW121965   5.336   5.186   6.663
 7197SOL    HW221966   5.455   5.161   6.772
 7198SOL     OW21967   4.041   4.271   6.866
 7198SOL    HW121968   4.079   4.212   6.938
 7198SOL    HW221969   4.081   4.245   6.778
 7199SOL     OW21970   5.148   3.938   6.698
 7199SOL    HW121971   5.200   3.873   6.753
 7199SOL    HW221972   5.099   4.001   6.759
 7200SOL     OW21973   4.725   3.758   6.740
 7200SOL    HW121974   4.662   3.686   6.709
 7200SOL    HW221975   4.818   3.722   6.740
 7201SOL     OW21976   4.494   5.054   5.887
 7201SOL    HW121977   4.448   4.967   5.904
 7201SOL    HW221978   4.585   5.051   5.928
 7202SOL     OW21979   4.342   5.291   6.870
 7202SOL    HW121980   4.337   5.373   6.927
 7202SOL    HW221981   4.431   5.288   6.825
 7203SOL     OW21982   5.076   3.776   5.754
 7203SOL    HW121983   5.111   3.735   5.670
 7203SOL    HW221984   4.986   3.738   5.774
 7204SOL     OW21985   5.024   4.177   6.277
 7204SOL    HW121986   4.965   4.257   6.281
 7204SOL    HW221987   5.039   4.142   6.370
 7205SOL     OW21988   5.317   3.945   6.468
 7205SOL    HW121989   5.233   3.944   6.522
 7205SOL    HW221990   5.319   4.028   6.412
 7206SOL     OW21991   3.763   4.801   5.886
 7206SOL    HW121992   3.862   4.790   5.877
 7206SOL    HW221993   3.723   4.715   5.918
 7207SOL     OW21994   3.954   4.352   7.561
 7207SOL    HW121995   3.861   4.350   7.598
 7207SOL    HW221996   3.955   4.313   7.469
 7208SOL     OW21997   3.955   5.437   7.931
 7208SOL    HW121998   3.989   5.514   7.985
 7208SOL    HW221999   3.999   5.437   7.841
 7209SOL     OW22000   3.954   5.158   7.986
 7209SOL    HW122001   3.928   5.254   7.986
 7209SOL    HW222002   3.883   5.104   8.031
 7210SOL     OW22003   4.330   4.688   7.571
 7210SOL    HW122004   4.337   4.772   7.517
 7210SOL    HW222005   4.376   4.701   7.659
 7211SOL     OW22006   3.751   5.320   7.565
 7211SOL    HW122007   3.732   5.224   7.586
 7211SOL    HW222008   3.718   5.378   7.640
 7212SOL     OW22009   5.413   4.646   8.060
 7212SOL    HW122010   5.508   4.617   8.068
 7212SOL    HW222011   5.405   4.711   7.985
 7213SOL     OW22012   4.533   3.728   7.950
 7213SOL    HW122013   4.573   3.819   7.941
 7213SOL    HW222014   4.433   3.736   7.956
 7214SOL     OW22015   4.322   4.453   7.718
 7214SOL    HW122016   4.346   4.522   7.650
 7214SOL    HW222017   4.244   4.486   7.772
 7215SOL     OW22018   3.800   4.535   8.237
 7215SOL    HW122019   3.899   4.523   8.246
 7215SOL    HW222020   3.776   4.630   8.258
 7216SOL     OW22021   4.589   4.072   7.643
 7216SOL    HW122022   4.648   4.135   7.594
 7216SOL    HW222023   4.608   3.978   7.614
 7217SOL     OW22024   4.045   4.667   7.690
 7217SOL    HW122025   4.127   4.706   7.648
 7217SOL    HW222026   4.018   4.585   7.641
 7218SOL     OW22027   4.835   5.500   7.685
 7218SOL    HW122028   4.775   5.438   7.735
 7218SOL    HW222029   4.866   5.456   7.600
 7219SOL     OW22030   5.124   3.831   7.874
 7219SOL    HW122031   5.100   3.794   7.784
 7219SOL    HW222032   5.223   3.847   7.878
 7220SOL     OW22033   4.106   4.424   7.928
 7220SOL    HW122034   4.151   4.334   7.925
 7220SOL    HW222035   4.012   4.413   7.961
 7221SOL     OW22036   4.338   3.846   7.565
 7221SOL    HW122037   4.436   3.824   7.572
 7221SOL    HW222038   4.307   3.829   7.472
 7222SOL     OW22039   4.263   3.788   7.960
 7222SOL    HW122040   4.182   3.789   8.018
 7222SOL    HW222041   4.266   3.871   7.905
 7223SOL     OW22042   5.158   4.912   7.489
 7223SOL    HW122043   5.190   4.836   7.546
 7223SOL    HW222044   5.066   4.939   7.519
 7224SOL     OW22045   4.021   3.759   7.619
 7224SOL    HW122046   4.070   3.843   7.598
 7224SOL    HW222047   4.083   3.694   7.664
 7225SOL     OW22048   4.659   3.960   7.928
 7225SOL    HW122049   4.611   4.001   7.850
 7225SOL    HW222050   4.758   3.958   7.909
 7226SOL     OW22051   4.183   4.876   8.189
 7226SOL    HW122052   4.112   4.849   8.254
 7226SOL    HW222053   4.157   4.848   8.096
 7227SOL     OW22054   4.756   4.273   7.464
 7227SOL    HW122055   4.715   4.355   7.425
 7227SOL    HW222056   4.820   4.299   7.537
 7228SOL     OW22057   4.212   5.109   7.622
 7228SOL    HW122058   4.125   5.094   7.669
 7228SOL    HW222059   4.195   5.135   7.527
 7229SOL     OW22060   5.114   4.299   7.526
 7229SOL    HW122061   5.060   4.278   7.607
 7229SOL    HW222062   5.205   4.258   7.535
 7230SOL     OW22063   4.251   3.980   7.776
 7230SOL    HW122064   4.278   3.921   7.701
 7230SOL    HW222065   4.251   4.075   7.745
 7231SOL     OW22066   4.429   4.774   7.816
 7231SOL    HW122067   4.415   4.781   7.915
 7231SOL    HW222068   4.513   4.723   7.798
 7232SOL     OW22069   4.091   4.824   7.949
 7232SOL    HW122070   4.084   4.907   7.893
 7232SOL    HW222071   4.095   4.744   7.889
 7233SOL     OW22072   4.976   5.072   7.836
 7233SOL    HW122073   5.026   5.149   7.876
 7233SOL    HW222074   4.881   5.074   7.868
 7234SOL     OW22075   5.306   4.363   7.920
 7234SOL    HW122076   5.275   4.424   7.993
 7234SOL    HW222077   5.356   4.415   7.851
 7235SOL     OW22078   4.933   4.249   7.723
 7235SOL    HW122079   4.946   4.165   7.777
 7235SOL    HW222080   4.904   4.323   7.783
 7236SOL     OW22081   5.346   4.091   7.822
 7236SOL    HW122082   5.348   4.015   7.886
 7236SOL    HW222083   5.298   4.168   7.862
 7237SOL     OW22084   5.027   4.562   7.490
 7237SOL    HW122085   5.061   4.469   7.505
 7237SOL    HW222086   5.045   4.589   7.395
 7238SOL     OW22087   3.732   5.050   7.648
 7238SOL    HW122088   3.639   5.071   7.617
 7238SOL    HW222089   3.742   4.951   7.661
 7239SOL     OW22090   4.539   4.296   7.773
 7239SOL    HW122091   4.546   4.207   7.727
 7239SOL    HW222092   4.445   4.330   7.765
 7240SOL     OW22093   4.197   4.224   7.639
 7240SOL    HW122094   4.258   4.304   7.643
 7240SOL    HW222095   4.102   4.255   7.646
 7241SOL     OW22096   5.026   4.579   7.757
 7241SOL    HW122097   4.940   4.548   7.799
 7241SOL    HW222098   5.022   4.565   7.658
 7242SOL     OW22099   5.450   3.859   7.971
 7242SOL    HW122100   5.523   3.842   7.904
 7242SOL    HW222101   5.419   3.772   8.009
 7243SOL     OW22102   4.640   4.634   7.739
 7243SOL    HW122103   4.703   4.672   7.671
 7243SOL    HW222104   4.680   4.551   7.778
 7244SOL     OW22105   3.979   5.072   7.738
 7244SOL    HW122106   3.883   5.073   7.711
 7244SOL    HW222107   3.991   5.125   7.822
 7245SOL     OW22108   3.799   4.069   7.481
 7245SOL    HW122109   3.707   4.041   7.452
 7245SOL    HW222110   3.830   4.146   7.425
 7246SOL     OW22111   3.796   3.890   7.766
 7246SOL    HW122112   3.779   3.973   7.712
 7246SOL    HW222113   3.886   3.853   7.744
 7247SOL     OW22114   4.907   5.059   7.567
 7247SOL    HW122115   4.808   5.048   7.569
 7247SOL    HW222116   4.941   5.074   7.660
 7248SOL     OW22117   4.949   4.049   7.897
 7248SOL    HW122118   5.014   3.975   7.886
 7248SOL    HW222119   4.969   4.099   7.981
 7249SOL     OW22120   4.318   4.469   8.100
 7249SOL    HW122121   4.368   4.554   8.081
 7249SOL    HW222122   4.230   4.471   8.052
 7250SOL     OW22123   4.583   5.098   7.464
 7250SOL    HW122124   4.537   5.113   7.552
 7250SOL    HW222125   4.627   5.183   7.434
 7251SOL     OW22126   4.807   4.708   7.535
 7251SOL    HW122127   4.784   4.761   7.453
 7251SOL    HW222128   4.888   4.652   7.516
 7252SOL     OW22129   4.152   4.148   7.968
 7252SOL    HW122130   4.182   4.076   7.906
 7252SOL    HW222131   4.113   4.108   8.051
 7253SOL     OW22132   4.494   5.054   7.749
 7253SOL    HW122133   4.448   4.967   7.766
 7253SOL    HW222134   4.585   5.051   7.790
 7254SOL     OW22135   5.076   3.776   7.616
 7254SOL    HW122136   5.111   3.735   7.532
 7254SOL    HW222137   4.986   3.738   7.636
 7255SOL     OW22138   3.763   4.801   7.748
 7255SOL    HW122139   3.862   4.790   7.739
 7255SOL    HW222140   3.723   4.715   7.780
   5.30000   5.30000   8.08000
