Built with Packmol
22242
    1LIG      O    1   1.977   1.970   0.066
    1LIG      C    2   2.042   2.020   0.217
    1LIG     C1    3   1.971   1.967   0.377
    1LIG     O1    4   2.035   2.017   0.530
    1LIG     C2    5   1.970   1.968   0.681
    1LIG     C3    6   2.041   2.023   0.838
    1LIG     O2    7   1.977   1.975   0.990
    1LIG     C4    8   2.040   2.025   1.142
    1LIG     C5    9   1.968   1.971   1.300
    1LIG     O3   10   2.031   2.020   1.452
    1LIG     C6   11   1.966   1.971   1.603
    1LIG     C7   12   2.038   2.027   1.760
    1LIG     O4   13   1.974   1.979   1.913
    1LIG     C8   14   2.038   2.029   2.065
    1LIG     C9   15   1.965   1.973   2.221
    1LIG     O5   16   2.029   2.023   2.373
    1LIG    C10   17   1.965   1.974   2.525
    1LIG    C11   18   2.037   2.030   2.682
    1LIG     O6   19   1.973   1.981   2.833
    1LIG    C12   20   2.036   2.030   2.985
    1LIG    C13   21   1.963   1.975   3.142
    1LIG     O7   22   2.027   2.024   3.294
    1LIG    C14   23   1.963   1.975   3.446
    1LIG    C15   24   2.035   2.030   3.604
    1LIG     O8   25   1.971   1.982   3.757
    1LIG    C16   26   2.035   2.031   3.908
    1LIG    C17   27   1.964   1.976   4.066
    1LIG     O9   28   2.027   2.025   4.219
    1LIG    C18   29   1.962   1.976   4.369
    1LIG    C19   30   2.034   2.031   4.526
    1LIG    O10   31   1.971   1.982   4.678
    1LIG    C20   32   2.035   2.032   4.830
    1LIG    C21   33   1.962   1.976   4.986
    1LIG    O11   34   2.026   2.025   5.138
    1LIG    C22   35   1.962   1.976   5.290
    1LIG    C23   36   2.034   2.032   5.447
    1LIG    O12   37   1.970   1.983   5.598
    1LIG    C24   38   2.034   2.032   5.751
    1LIG    C25   39   1.962   1.977   5.909
    1LIG    O13   40   2.025   2.026   6.061
    1LIG    C26   41   1.961   1.977   6.212
    1LIG    C27   42   2.033   2.032   6.369
    1LIG    O14   43   1.969   1.983   6.521
    1LIG    C28   44   2.034   2.032   6.673
    1LIG    C29   45   1.962   1.976   6.831
    1LIG    O15   46   2.026   2.026   6.983
    1LIG    C30   47   1.962   1.976   7.134
    1LIG    C31   48   2.034   2.031   7.291
    1LIG    O16   49   1.970   1.982   7.442
    1LIG    C32   50   2.034   2.031   7.594
    1LIG    C33   51   1.962   1.976   7.752
    1LIG    O17   52   2.026   2.025   7.904
    1LIG    C34   53   1.962   1.975   8.056
    1LIG    C35   54   2.034   2.030   8.213
    1LIG    O18   55   1.970   1.981   8.365
    1LIG    C36   56   2.034   2.031   8.516
    1LIG    C37   57   1.963   1.975   8.674
    1LIG    O19   58   2.027   2.024   8.827
    1LIG    C38   59   1.963   1.974   8.978
    1LIG    C39   60   2.034   2.029   9.136
    1LIG    O20   61   1.971   1.980   9.288
    1LIG    C40   62   2.035   2.029   9.439
    1LIG    C41   63   1.964   1.974   9.597
    1LIG    O21   64   2.027   2.023   9.749
    1LIG    C42   65   1.963   1.973   9.900
    1LIG    C43   66   2.035   2.028  10.057
    1LIG    O22   67   1.972   1.979  10.209
    1LIG    C44   68   2.036   2.028  10.361
    1LIG    C45   69   1.964   1.972  10.518
    1LIG    O23   70   2.028   2.021  10.670
    1LIG    C46   71   1.964   1.972  10.822
    1LIG    C47   72   2.037   2.028  10.979
    1LIG    O24   73   1.973   1.978  11.130
    1LIG    C48   74   2.036   2.027  11.282
    1LIG    C49   75   1.964   1.971  11.439
    1LIG    O25   76   2.028   2.020  11.591
    1LIG    C50   77   1.965   1.971  11.743
    1LIG    C51   78   2.037   2.027  11.900
    1LIG    O26   79   1.974   1.977  12.051
    1LIG    C52   80   2.037   2.026  12.204
    1LIG    C53   81   1.965   1.970  12.360
    1LIG    O27   82   2.029   2.019  12.512
    1LIG    C54   83   1.966   1.969  12.664
    1LIG    C55   84   2.038   2.025  12.822
    1LIG    O28   85   1.974   1.975  12.974
    1LIG    C56   86   2.038   2.024  13.127
    1LIG    C57   87   1.967   1.968  13.285
    1LIG    O29   88   2.031   2.017  13.438
    1LIG    C58   89   1.967   1.967  13.589
    1LIG    C59   90   2.038   2.022  13.747
    1LIG      H   91   2.039   2.130   0.214
    1LIG     H1   92   2.147   1.989   0.215
    1LIG     H2   93   1.974   1.858   0.377
    1LIG     H3   94   1.866   1.998   0.375
    1LIG     H4   95   1.973   1.858   0.683
    1LIG     H5   96   1.865   1.999   0.682
    1LIG     H6   97   2.039   2.133   0.836
    1LIG     H7   98   2.147   1.992   0.837
    1LIG     H8   99   2.038   2.134   1.143
    1LIG     H9  100   2.145   1.994   1.145
    1LIG    H10  101   1.971   1.861   1.299
    1LIG    H11  102   1.863   2.001   1.297
    1LIG    H12  103   1.969   1.862   1.606
    1LIG    H13  104   1.861   2.002   1.604
    1LIG    H14  105   2.035   2.137   1.758
    1LIG    H15  106   2.143   1.997   1.759
    1LIG    H16  107   2.035   2.138   2.066
    1LIG    H17  108   2.143   1.998   2.067
    1LIG    H18  109   1.968   1.864   2.219
    1LIG    H19  110   1.860   2.005   2.219
    1LIG    H20  111   1.967   1.865   2.527
    1LIG    H21  112   1.859   2.005   2.527
    1LIG    H22  113   2.034   2.139   2.679
    1LIG    H23  114   2.142   1.999   2.680
    1LIG    H24  115   2.033   2.140   2.987
    1LIG    H25  116   2.141   1.999   2.988
    1LIG    H26  117   1.966   1.865   3.141
    1LIG    H27  118   1.858   2.006   3.140
    1LIG    H28  119   1.966   1.865   3.448
    1LIG    H29  120   1.858   2.006   3.448
    1LIG    H30  121   2.032   2.140   3.602
    1LIG    H31  122   2.140   1.999   3.603
    1LIG    H32  123   2.032   2.141   3.909
    1LIG    H33  124   2.140   2.000   3.910
    1LIG    H34  125   1.966   1.867   4.064
    1LIG    H35  126   1.858   2.007   4.064
    1LIG    H36  127   1.965   1.866   4.371
    1LIG    H37  128   1.857   2.007   4.371
    1LIG    H38  129   2.031   2.141   4.524
    1LIG    H39  130   2.139   2.000   4.524
    1LIG    H40  131   2.032   2.141   4.832
    1LIG    H41  132   2.140   2.001   4.832
    1LIG    H42  133   1.965   1.867   4.985
    1LIG    H43  134   1.857   2.007   4.984
    1LIG    H44  135   1.965   1.867   5.292
    1LIG    H45  136   1.857   2.007   5.292
    1LIG    H46  137   2.031   2.142   5.445
    1LIG    H47  138   2.140   2.001   5.445
    1LIG    H48  139   2.031   2.142   5.753
    1LIG    H49  140   2.139   2.001   5.753
    1LIG    H50  141   1.965   1.867   5.907
    1LIG    H51  142   1.857   2.008   5.907
    1LIG    H52  143   1.964   1.867   6.214
    1LIG    H53  144   1.856   2.008   6.214
    1LIG    H54  145   2.030   2.142   6.368
    1LIG    H55  146   2.138   2.001   6.367
    1LIG    H56  147   2.031   2.141   6.675
    1LIG    H57  148   2.139   2.001   6.675
    1LIG    H58  149   1.965   1.867   6.829
    1LIG    H59  150   1.857   2.007   6.830
    1LIG    H60  151   1.965   1.866   7.136
    1LIG    H61  152   1.857   2.007   7.136
    1LIG    H62  153   2.031   2.141   7.289
    1LIG    H63  154   2.139   2.001   7.289
    1LIG    H64  155   2.031   2.141   7.596
    1LIG    H65  156   2.139   2.000   7.596
    1LIG    H66  157   1.965   1.866   7.750
    1LIG    H67  158   1.857   2.007   7.751
    1LIG    H68  159   1.965   1.866   8.057
    1LIG    H69  160   1.857   2.006   8.057
    1LIG    H70  161   2.031   2.140   8.212
    1LIG    H71  162   2.139   2.000   8.211
    1LIG    H72  163   2.031   2.140   8.518
    1LIG    H73  164   2.140   2.000   8.518
    1LIG    H74  165   1.966   1.866   8.673
    1LIG    H75  166   1.858   2.006   8.673
    1LIG    H76  167   1.966   1.865   8.979
    1LIG    H77  168   1.858   2.005   8.979
    1LIG    H78  169   2.031   2.139   9.134
    1LIG    H79  170   2.140   1.998   9.134
    1LIG    H80  171   2.032   2.139   9.441
    1LIG    H81  172   2.140   1.999   9.440
    1LIG    H82  173   1.967   1.864   9.595
    1LIG    H83  174   1.858   2.004   9.595
    1LIG    H84  175   1.967   1.863   9.902
    1LIG    H85  176   1.858   2.004   9.902
    1LIG    H86  177   2.032   2.138  10.055
    1LIG    H87  178   2.141   1.998  10.055
    1LIG    H88  179   2.033   2.138  10.363
    1LIG    H89  180   2.141   1.998  10.363
    1LIG    H90  181   1.967   1.863  10.516
    1LIG    H91  182   1.859   2.003  10.516
    1LIG    H92  183   1.968   1.862  10.824
    1LIG    H93  184   1.859   2.002  10.824
    1LIG    H94  185   2.033   2.137  10.977
    1LIG    H95  186   2.142   1.997  10.977
    1LIG    H96  187   2.033   2.136  11.285
    1LIG    H97  188   2.141   1.996  11.284
    1LIG    H98  189   1.968   1.861  11.437
    1LIG    H99  190   1.859   2.001  11.438
    1LIG   H100  191   1.968   1.861  11.745
    1LIG   H101  192   1.860   2.001  11.746
    1LIG   H102  193   2.034   2.136  11.898
    1LIG   H103  194   2.142   1.996  11.898
    1LIG   H104  195   2.034   2.135  12.206
    1LIG   H105  196   2.142   1.995  12.206
    1LIG   H106  197   1.969   1.860  12.358
    1LIG   H107  198   1.860   2.000  12.359
    1LIG   H108  199   1.970   1.860  12.666
    1LIG   H109  200   1.861   2.000  12.666
    1LIG   H110  201   2.034   2.134  12.821
    1LIG   H111  202   2.143   1.994  12.820
    1LIG   H112  203   2.035   2.134  13.128
    1LIG   H113  204   2.144   1.994  13.128
    1LIG   H114  205   1.971   1.859  13.283
    1LIG   H115  206   1.862   1.999  13.284
    1LIG   H116  207   1.971   1.858  13.589
    1LIG   H117  208   1.862   1.999  13.590
    1LIG   H118  209   2.143   1.992  13.747
    1LIG   H119  210   1.991   1.985  13.866
    1MOL     C1  211   1.653   1.587   6.447
    1MOL     H1  212   1.646   1.480   6.469
    1MOL     O1  213   1.604   1.651   6.564
    1MOL     C2  214   1.607   1.795   6.562
    1MOL     H2  215   1.711   1.830   6.556
    1MOL     C3  216   1.545   1.841   6.692
    1MOL     H3  217   1.444   1.797   6.700
    1MOL     H4  218   1.535   1.950   6.692
    1MOL     O2  219   1.624   1.798   6.802
    1MOL     C4  220   1.568   1.840   6.925
    1MOL     C5  221   1.560   1.625   6.330
    1MOL     H5  222   1.459   1.594   6.359
    1MOL     O3  223   1.595   1.565   6.207
    1MOL     C6  224   1.560   1.428   6.196
    1MOL     C7  225   1.560   1.777   6.309
    1MOL     H6  226   1.659   1.808   6.274
    1MOL     O4  227   1.459   1.813   6.216
    1MOL     C8  228   1.508   1.844   6.086
    1MOL     C9  229   1.529   1.851   6.440
    1MOL     H7  230   1.421   1.841   6.459
    1MOL     O5  231   1.561   1.989   6.418
    1MOL    C10  232   1.469   2.087   6.456
    1MOL     H8  233   1.371   2.042   6.478
    1MOL     O6  234   1.505   2.153   6.576
    1MOL    C11  235   1.634   2.216   6.573
    1MOL     H9  236   1.712   2.142   6.550
    1MOL    C12  237   1.658   2.272   6.712
    1MOL    H10  238   1.572   2.335   6.741
    1MOL    H11  239   1.748   2.336   6.712
    1MOL     O7  240   1.675   2.165   6.804
    1MOL    C13  241   1.713   2.211   6.932
    1MOL    C14  242   1.455   2.194   6.346
    1MOL    H12  243   1.376   2.263   6.379
    1MOL     O8  244   1.421   2.142   6.219
    1MOL    C15  245   1.287   2.098   6.206
    1MOL    C16  246   1.584   2.275   6.330
    1MOL    H13  247   1.661   2.210   6.286
    1MOL     O9  248   1.560   2.388   6.247
    1MOL    C17  249   1.607   2.374   6.113
    1MOL    C18  250   1.637   2.326   6.465
    1MOL    H14  251   1.572   2.409   6.496
    1MOL    O10  252   1.770   2.374   6.442
    1MOL    C19  253   1.806   2.502   6.489
    1MOL    H15  254   1.717   2.556   6.522
    1MOL    O11  255   1.890   2.496   6.602
    1MOL    C20  256   2.013   2.425   6.584
    1MOL    H16  257   1.993   2.320   6.561
    1MOL    C21  258   2.088   2.435   6.716
    1MOL    H17  259   2.085   2.540   6.750
    1MOL    H18  260   2.193   2.406   6.702
    1MOL    O12  261   2.026   2.351   6.812
    1MOL    C22  262   2.093   2.355   6.937
    1MOL    C23  263   1.879   2.580   6.378
    1MOL    H19  264   1.901   2.680   6.420
    1MOL    O13  265   1.805   2.594   6.259
    1MOL    C24  266   1.698   2.687   6.265
    1MOL    C25  267   2.012   2.513   6.343
    1MOL    H20  268   1.991   2.418   6.294
    1MOL    O14  269   2.088   2.598   6.258
    1MOL    C26  270   2.085   2.562   6.121
    1MOL    C27  271   2.096   2.485   6.468
    1MOL    H21  272   2.141   2.581   6.500
    1MOL    O15  273   2.200   2.395   6.429
    1MOL    C28  274   2.334   2.425   6.459
    1MOL    H22  275   2.344   2.530   6.487
    1MOL    O16  276   2.381   2.353   6.572
    1MOL    C29  277   2.373   2.210   6.559
    1MOL    H23  278   2.268   2.181   6.544
    1MOL    C30  279   2.420   2.151   6.691
    1MOL    H24  280   2.394   2.044   6.694
    1MOL    H25  281   2.366   2.201   6.774
    1MOL    O17  282   2.560   2.168   6.705
    1MOL    C31  283   2.611   2.102   6.818
    1MOL    C32  284   2.424   2.391   6.338
    1MOL    H26  285   2.526   2.421   6.367
    1MOL    O18  286   2.386   2.456   6.219
    1MOL    C33  287   2.422   2.593   6.213
    1MOL    C34  288   2.425   2.240   6.311
    1MOL    H27  289   2.326   2.210   6.273
    1MOL    O19  290   2.526   2.210   6.216
    1MOL    C35  291   2.478   2.180   6.086
    1MOL    C36  292   2.455   2.161   6.438
    1MOL    H28  293   2.562   2.172   6.462
    1MOL    O20  294   2.425   2.023   6.410
    1MOL    C37  295   2.518   1.924   6.449
    1MOL    H29  296   2.613   1.970   6.476
    1MOL    O21  297   2.477   1.855   6.565
    1MOL    C38  298   2.349   1.789   6.554
    1MOL    H30  299   2.272   1.864   6.531
    1MOL    C39  300   2.318   1.729   6.691
    1MOL    H31  301   2.211   1.705   6.697
    1MOL    H32  302   2.339   1.805   6.768
    1MOL    O22  303   2.397   1.614   6.712
    1MOL    C40  304   2.359   1.545   6.830
    1MOL    C41  305   2.535   1.823   6.334
    1MOL    H33  306   2.613   1.752   6.366
    1MOL    O23  307   2.572   1.881   6.211
    1MOL    C42  308   2.706   1.926   6.204
    1MOL    C43  309   2.407   1.743   6.310
    1MOL    H34  310   2.331   1.810   6.267
    1MOL    O24  311   2.433   1.634   6.222
    1MOL    C44  312   2.387   1.653   6.089
    1MOL    C45  313   2.352   1.685   6.441
    1MOL    H35  314   2.416   1.601   6.471
    1MOL    O25  315   2.219   1.637   6.413
    1MOL    C46  316   2.182   1.509   6.458
    1MOL    H36  317   2.271   1.453   6.488
    1MOL    O26  318   2.101   1.513   6.574
    1MOL    C47  319   1.980   1.588   6.561
    1MOL    H37  320   2.003   1.692   6.536
    1MOL    C48  321   1.913   1.583   6.698
    1MOL    H38  322   1.904   1.478   6.729
    1MOL    H39  323   1.812   1.626   6.692
    1MOL    O27  324   1.993   1.656   6.789
    1MOL    C49  325   1.934   1.666   6.917
    1MOL    C50  326   2.104   1.436   6.347
    1MOL    H40  327   2.083   1.335   6.386
    1MOL    O28  328   2.173   1.426   6.224
    1MOL    C51  329   2.283   1.336   6.225
    1MOL    C52  330   1.970   1.505   6.320
    1MOL    H41  331   1.990   1.602   6.273
    1MOL    O29  332   1.889   1.423   6.236
    1MOL    C53  333   1.891   1.460   6.098
    1MOL    C54  334   1.891   1.530   6.449
    1MOL    H42  335   1.848   1.434   6.482
    1MOL    O30  336   1.786   1.622   6.417
    1MOL    H43  337   1.729   2.123   6.994
    1MOL    H44  338   1.806   2.269   6.927
    1MOL    H45  339   1.635   2.273   6.978
    1MOL    H46  340   1.636   1.807   7.004
    1MOL    H47  341   1.557   1.949   6.929
    1MOL    H48  342   1.469   1.794   6.942
    1MOL    H49  343   2.001   1.725   6.979
    1MOL    H50  344   1.836   1.716   6.911
    1MOL    H51  345   1.920   1.567   6.963
    1MOL    H52  346   2.421   1.455   6.836
    1MOL    H53  347   2.378   1.606   6.920
    1MOL    H54  348   2.253   1.517   6.828
    1MOL    H55  349   2.719   2.121   6.820
    1MOL    H56  350   2.567   2.141   6.911
    1MOL    H57  351   2.594   1.994   6.813
    1MOL    H58  352   2.040   2.287   7.004
    1MOL    H59  353   2.198   2.323   6.928
    1MOL    H60  354   2.091   2.456   6.980
    1MOL    H61  355   2.727   1.948   6.099
    1MOL    H62  356   2.722   2.018   6.262
    1MOL    H63  357   2.776   1.849   6.239
    1MOL    H64  358   2.567   2.166   6.023
    1MOL    H65  359   2.419   2.088   6.086
    1MOL    H66  360   2.419   2.263   6.045
    1MOL    H67  361   2.407   2.625   6.110
    1MOL    H68  362   2.359   2.656   6.278
    1MOL    H69  363   2.528   2.608   6.240
    1MOL    H70  364   2.142   2.640   6.067
    1MOL    H71  365   2.134   2.465   6.104
    1MOL    H72  366   1.982   2.560   6.082
    1MOL    H73  367   1.665   2.704   6.162
    1MOL    H74  368   1.613   2.649   6.323
    1MOL    H75  369   1.731   2.783   6.308
    1MOL    H76  370   1.577   2.466   6.061
    1MOL    H77  371   1.716   2.366   6.110
    1MOL    H78  372   1.561   2.288   6.064
    1MOL    H79  373   1.269   2.083   6.099
    1MOL    H80  374   1.269   2.004   6.258
    1MOL    H81  375   1.217   2.175   6.243
    1MOL    H82  376   1.420   1.863   6.024
    1MOL    H83  377   1.570   1.934   6.088
    1MOL    H84  378   1.564   1.760   6.043
    1MOL    H85  379   1.571   1.401   6.091
    1MOL    H86  380   1.625   1.364   6.256
    1MOL    H87  381   1.455   1.412   6.226
    1MOL    H88  382   1.831   1.386   6.045
    1MOL    H89  383   1.845   1.559   6.084
    1MOL    H90  384   1.993   1.460   6.058
    1MOL    H91  385   2.311   1.321   6.120
    1MOL    H92  386   2.369   1.377   6.279
    1MOL    H93  387   2.254   1.239   6.268
    1MOL    H94  388   2.419   1.565   6.033
    1MOL    H95  389   2.277   1.659   6.086
    1MOL    H96  390   2.430   1.743   6.044
    1MOL     C1  391   2.347   1.587   7.453
    1MOL     H1  392   2.355   1.480   7.430
    1MOL     O1  393   2.396   1.651   7.336
    1MOL     C2  394   2.393   1.795   7.338
    1MOL     H2  395   2.289   1.830   7.344
    1MOL     C3  396   2.455   1.841   7.208
    1MOL     H3  397   2.556   1.797   7.200
    1MOL     H4  398   2.465   1.950   7.208
    1MOL     O2  399   2.376   1.798   7.098
    1MOL     C4  400   2.432   1.840   6.975
    1MOL     C5  401   2.440   1.625   7.570
    1MOL     H5  402   2.541   1.594   7.541
    1MOL     O3  403   2.405   1.565   7.693
    1MOL     C6  404   2.441   1.428   7.704
    1MOL     C7  405   2.440   1.777   7.590
    1MOL     H6  406   2.341   1.808   7.626
    1MOL     O4  407   2.541   1.813   7.684
    1MOL     C8  408   2.493   1.844   7.814
    1MOL     C9  409   2.471   1.851   7.460
    1MOL     H7  410   2.579   1.841   7.441
    1MOL     O5  411   2.439   1.989   7.482
    1MOL    C10  412   2.532   2.087   7.444
    1MOL     H8  413   2.629   2.042   7.422
    1MOL     O6  414   2.495   2.153   7.324
    1MOL    C11  415   2.366   2.216   7.327
    1MOL     H9  416   2.288   2.142   7.349
    1MOL    C12  417   2.342   2.272   7.187
    1MOL    H10  418   2.428   2.335   7.159
    1MOL    H11  419   2.252   2.336   7.188
    1MOL     O7  420   2.325   2.165   7.096
    1MOL    C13  421   2.287   2.211   6.968
    1MOL    C14  422   2.545   2.194   7.554
    1MOL    H12  423   2.624   2.263   7.521
    1MOL     O8  424   2.579   2.142   7.681
    1MOL    C15  425   2.713   2.098   7.694
    1MOL    C16  426   2.416   2.275   7.570
    1MOL    H13  427   2.339   2.210   7.614
    1MOL     O9  428   2.440   2.388   7.653
    1MOL    C17  429   2.393   2.374   7.786
    1MOL    C18  430   2.364   2.326   7.435
    1MOL    H14  431   2.428   2.409   7.404
    1MOL    O10  432   2.230   2.374   7.458
    1MOL    C19  433   2.194   2.502   7.411
    1MOL    H15  434   2.283   2.556   7.377
    1MOL    O11  435   2.110   2.496   7.298
    1MOL    C20  436   1.987   2.425   7.316
    1MOL    H16  437   2.008   2.320   7.339
    1MOL    C21  438   1.912   2.435   7.184
    1MOL    H17  439   1.915   2.540   7.150
    1MOL    H18  440   1.807   2.406   7.198
    1MOL    O12  441   1.974   2.351   7.088
    1MOL    C22  442   1.907   2.355   6.963
    1MOL    C23  443   2.121   2.580   7.522
    1MOL    H19  444   2.099   2.680   7.480
    1MOL    O13  445   2.195   2.594   7.641
    1MOL    C24  446   2.302   2.687   7.635
    1MOL    C25  447   1.988   2.513   7.557
    1MOL    H20  448   2.009   2.418   7.606
    1MOL    O14  449   1.912   2.598   7.642
    1MOL    C26  450   1.915   2.562   7.779
    1MOL    C27  451   1.904   2.485   7.432
    1MOL    H21  452   1.859   2.581   7.399
    1MOL    O15  453   1.800   2.395   7.471
    1MOL    C28  454   1.666   2.425   7.441
    1MOL    H22  455   1.657   2.530   7.413
    1MOL    O16  456   1.619   2.353   7.328
    1MOL    C29  457   1.627   2.210   7.341
    1MOL    H23  458   1.732   2.181   7.356
    1MOL    C30  459   1.580   2.151   7.209
    1MOL    H24  460   1.606   2.044   7.206
    1MOL    H25  461   1.634   2.201   7.126
    1MOL    O17  462   1.440   2.168   7.195
    1MOL    C31  463   1.389   2.102   7.082
    1MOL    C32  464   1.576   2.391   7.561
    1MOL    H26  465   1.474   2.421   7.533
    1MOL    O18  466   1.614   2.456   7.681
    1MOL    C33  467   1.578   2.593   7.687
    1MOL    C34  468   1.575   2.240   7.589
    1MOL    H27  469   1.674   2.210   7.627
    1MOL    O19  470   1.474   2.210   7.684
    1MOL    C35  471   1.522   2.180   7.814
    1MOL    C36  472   1.545   2.161   7.462
    1MOL    H28  473   1.438   2.172   7.438
    1MOL    O20  474   1.575   2.023   7.490
    1MOL    C37  475   1.483   1.924   7.451
    1MOL    H29  476   1.387   1.970   7.424
    1MOL    O21  477   1.523   1.855   7.335
    1MOL    C38  478   1.651   1.789   7.346
    1MOL    H30  479   1.728   1.864   7.369
    1MOL    C39  480   1.682   1.729   7.209
    1MOL    H31  481   1.789   1.705   7.203
    1MOL    H32  482   1.661   1.805   7.132
    1MOL    O22  483   1.603   1.614   7.188
    1MOL    C40  484   1.641   1.545   7.070
    1MOL    C41  485   1.465   1.823   7.566
    1MOL    H33  486   1.387   1.752   7.533
    1MOL    O23  487   1.428   1.881   7.689
    1MOL    C42  488   1.294   1.926   7.695
    1MOL    C43  489   1.594   1.743   7.590
    1MOL    H34  490   1.669   1.810   7.633
    1MOL    O24  491   1.567   1.634   7.678
    1MOL    C44  492   1.613   1.653   7.810
    1MOL    C45  493   1.649   1.685   7.459
    1MOL    H35  494   1.585   1.601   7.428
    1MOL    O25  495   1.781   1.637   7.487
    1MOL    C46  496   1.818   1.509   7.442
    1MOL    H36  497   1.729   1.453   7.412
    1MOL    O26  498   1.899   1.513   7.326
    1MOL    C47  499   2.020   1.588   7.339
    1MOL    H37  500   1.997   1.692   7.364
    1MOL    C48  501   2.087   1.583   7.202
    1MOL    H38  502   2.096   1.478   7.170
    1MOL    H39  503   2.188   1.626   7.208
    1MOL    O27  504   2.007   1.656   7.111
    1MOL    C49  505   2.067   1.666   6.983
    1MOL    C50  506   1.896   1.436   7.553
    1MOL    H40  507   1.917   1.335   7.514
    1MOL    O28  508   1.827   1.426   7.675
    1MOL    C51  509   1.717   1.336   7.675
    1MOL    C52  510   2.030   1.505   7.580
    1MOL    H41  511   2.011   1.602   7.627
    1MOL    O29  512   2.111   1.423   7.664
    1MOL    C53  513   2.109   1.460   7.801
    1MOL    C54  514   2.109   1.530   7.451
    1MOL    H42  515   2.152   1.434   7.418
    1MOL    O30  516   2.215   1.622   7.483
    1MOL    H43  517   2.271   2.123   6.906
    1MOL    H44  518   2.194   2.269   6.973
    1MOL    H45  519   2.365   2.273   6.922
    1MOL    H46  520   2.364   1.807   6.896
    1MOL    H47  521   2.443   1.949   6.971
    1MOL    H48  522   2.531   1.794   6.958
    1MOL    H49  523   1.999   1.725   6.921
    1MOL    H50  524   2.164   1.716   6.989
    1MOL    H51  525   2.080   1.567   6.937
    1MOL    H52  526   1.579   1.455   7.064
    1MOL    H53  527   1.622   1.606   6.980
    1MOL    H54  528   1.747   1.517   7.072
    1MOL    H55  529   1.281   2.121   7.080
    1MOL    H56  530   1.433   2.141   6.988
    1MOL    H57  531   1.407   1.994   7.087
    1MOL    H58  532   1.960   2.287   6.896
    1MOL    H59  533   1.802   2.323   6.972
    1MOL    H60  534   1.909   2.456   6.920
    1MOL    H61  535   1.273   1.948   7.801
    1MOL    H62  536   1.278   2.018   7.638
    1MOL    H63  537   1.224   1.849   7.661
    1MOL    H64  538   1.434   2.166   7.877
    1MOL    H65  539   1.581   2.088   7.814
    1MOL    H66  540   1.581   2.263   7.855
    1MOL    H67  541   1.593   2.625   7.790
    1MOL    H68  542   1.641   2.656   7.622
    1MOL    H69  543   1.472   2.608   7.660
    1MOL    H70  544   1.858   2.640   7.832
    1MOL    H71  545   1.866   2.465   7.796
    1MOL    H72  546   2.018   2.560   7.818
    1MOL    H73  547   2.335   2.704   7.738
    1MOL    H74  548   2.387   2.649   7.577
    1MOL    H75  549   2.269   2.783   7.592
    1MOL    H76  550   2.423   2.466   7.839
    1MOL    H77  551   2.284   2.366   7.789
    1MOL    H78  552   2.439   2.288   7.836
    1MOL    H79  553   2.731   2.083   7.800
    1MOL    H80  554   2.731   2.004   7.641
    1MOL    H81  555   2.783   2.175   7.657
    1MOL    H82  556   2.581   1.863   7.876
    1MOL    H83  557   2.431   1.934   7.812
    1MOL    H84  558   2.436   1.760   7.857
    1MOL    H85  559   2.429   1.401   7.809
    1MOL    H86  560   2.375   1.364   7.644
    1MOL    H87  561   2.545   1.412   7.674
    1MOL    H88  562   2.169   1.386   7.854
    1MOL    H89  563   2.155   1.559   7.816
    1MOL    H90  564   2.007   1.460   7.842
    1MOL    H91  565   1.689   1.321   7.780
    1MOL    H92  566   1.631   1.377   7.621
    1MOL    H93  567   1.746   1.239   7.632
    1MOL    H94  568   1.581   1.565   7.867
    1MOL    H95  569   1.723   1.659   7.814
    1MOL    H96  570   1.570   1.743   7.856
    2SOL     OW  571   0.230   0.628   0.113
    2SOL    HW1  572   0.137   0.626   0.150
    2SOL    HW2  573   0.231   0.589   0.021
    3SOL     OW  574   0.225   0.275   0.996
    3SOL    HW1  575   0.260   0.258   1.088
    3SOL    HW2  576   0.137   0.230   0.984
    4SOL     OW  577   0.019   0.368   0.647
    4SOL    HW1  578  -0.063   0.411   0.686
    4SOL    HW2  579  -0.009   0.295   0.584
    5SOL     OW  580   0.569   1.275   1.165
    5SOL    HW1  581   0.476   1.268   1.128
    5SOL    HW2  582   0.580   1.364   1.209
    6SOL     OW  583   1.555   1.511   0.703
    6SOL    HW1  584   1.498   1.495   0.784
    6SOL    HW2  585   1.496   1.521   0.623
    7SOL     OW  586   1.135   0.703   0.717
    7SOL    HW1  587   1.192   0.781   0.692
    7SOL    HW2  588   1.075   0.729   0.793
    8SOL     OW  589   1.755   0.607   0.231
    8SOL    HW1  590   1.743   0.594   0.132
    8SOL    HW2  591   1.725   0.526   0.280
    9SOL     OW  592   0.768   1.144   1.023
    9SOL    HW1  593   0.690   1.161   1.083
    9SOL    HW2  594   0.802   1.231   0.987
   10SOL     OW  595   0.850   0.798   1.823
   10SOL    HW1  596   0.846   0.874   1.888
   10SOL    HW2  597   0.872   0.834   1.732
   11SOL     OW  598   0.685   1.012   0.665
   11SOL    HW1  599   0.754   0.996   0.735
   11SOL    HW2  600   0.612   1.069   0.703
   12SOL     OW  601   0.686   1.161   1.803
   12SOL    HW1  602   0.746   1.240   1.817
   12SOL    HW2  603   0.600   1.192   1.762
   13SOL     OW  604   0.335   1.435   1.061
   13SOL    HW1  605   0.257   1.404   1.008
   13SOL    HW2  606   0.393   1.493   1.004
   14SOL     OW  607   1.460   1.505   1.339
   14SOL    HW1  608   1.484   1.599   1.365
   14SOL    HW2  609   1.444   1.451   1.421
   15SOL     OW  610   0.438   0.392   1.499
   15SOL    HW1  611   0.520   0.336   1.508
   15SOL    HW2  612   0.357   0.334   1.503
   16SOL     OW  613   1.603   0.447   0.737
   16SOL    HW1  614   1.529   0.493   0.687
   16SOL    HW2  615   1.654   0.515   0.790
   17SOL     OW  616   0.231   1.713   0.483
   17SOL    HW1  617   0.265   1.790   0.537
   17SOL    HW2  618   0.275   1.713   0.393
   18SOL     OW  619   1.127   1.341   1.690
   18SOL    HW1  620   1.174   1.341   1.778
   18SOL    HW2  621   1.079   1.254   1.679
   19SOL     OW  622   0.230   1.434   0.538
   19SOL    HW1  623   0.204   1.530   0.538
   19SOL    HW2  624   0.159   1.380   0.583
   20SOL     OW  625   0.240   1.091   0.886
   20SOL    HW1  626   0.254   1.007   0.938
   20SOL    HW2  627   0.185   1.155   0.941
   21SOL     OW  628   0.620   1.786   1.439
   21SOL    HW1  629   0.528   1.769   1.474
   21SOL    HW2  630   0.648   1.878   1.465
   22SOL     OW  631   0.606   0.964   0.123
   22SOL    HW1  632   0.613   1.048   0.069
   22SOL    HW2  633   0.652   0.977   0.211
   23SOL     OW  634   1.594   0.114   1.480
   23SOL    HW1  635   1.576   0.181   1.408
   23SOL    HW2  636   1.591   0.160   1.569
   24SOL     OW  637   0.122   0.643   0.563
   24SOL    HW1  638   0.077   0.555   0.580
   24SOL    HW2  639   0.121   0.697   0.647
   25SOL     OW  640   0.027   1.596   0.117
   25SOL    HW1  641   0.008   1.500   0.138
   25SOL    HW2  642  -0.006   1.654   0.192
   26SOL     OW  643   1.689   0.922   0.612
   26SOL    HW1  644   1.784   0.893   0.620
   26SOL    HW2  645   1.681   0.987   0.537
   27SOL     OW  646   1.641   1.108   0.432
   27SOL    HW1  647   1.727   1.110   0.380
   27SOL    HW2  648   1.655   1.155   0.520
   28SOL     OW  649   0.113   0.737   1.597
   28SOL    HW1  650   0.201   0.724   1.642
   28SOL    HW2  651   0.100   0.834   1.575
   29SOL     OW  652   0.613   1.365   0.726
   29SOL    HW1  653   0.564   1.278   0.735
   29SOL    HW2  654   0.590   1.408   0.639
   30SOL     OW  655   1.293   1.228   1.423
   30SOL    HW1  656   1.330   1.155   1.365
   30SOL    HW2  657   1.345   1.233   1.508
   31SOL     OW  658   0.809   0.004   0.502
   31SOL    HW1  659   0.849   0.095   0.493
   31SOL    HW2  660   0.709   0.012   0.508
   32SOL     OW  661   0.197   0.976   1.264
   32SOL    HW1  662   0.286   0.931   1.250
   32SOL    HW2  663   0.124   0.911   1.245
   33SOL     OW  664   1.525   0.999   0.190
   33SOL    HW1  665   1.462   0.923   0.203
   33SOL    HW2  666   1.573   1.017   0.276
   34SOL     OW  667   1.187   1.792   1.616
   34SOL    HW1  668   1.211   1.852   1.540
   34SOL    HW2  669   1.194   1.697   1.586
   35SOL     OW  670   0.317   0.251   1.801
   35SOL    HW1  671   0.388   0.322   1.807
   35SOL    HW2  672   0.229   0.290   1.829
   36SOL     OW  673   1.466   1.417   0.953
   36SOL    HW1  674   1.407   1.423   1.033
   36SOL    HW2  675   1.451   1.329   0.907
   37SOL     OW  676   1.667   1.714   0.572
   37SOL    HW1  677   1.626   1.691   0.484
   37SOL    HW2  678   1.649   1.640   0.637
   38SOL     OW  679   0.598   0.729   0.270
   38SOL    HW1  680   0.622   0.798   0.202
   38SOL    HW2  681   0.520   0.762   0.324
   39SOL     OW  682   1.281   0.345   0.944
   39SOL    HW1  683   1.195   0.295   0.931
   39SOL    HW2  684   1.343   0.291   1.000
   40SOL     OW  685   1.576   1.662   0.307
   40SOL    HW1  686   1.665   1.708   0.310
   40SOL    HW2  687   1.555   1.638   0.212
   41SOL     OW  688   0.807   0.605   1.465
   41SOL    HW1  689   0.760   0.602   1.554
   41SOL    HW2  690   0.756   0.550   1.399
   42SOL     OW  691   1.394   0.469   1.674
   42SOL    HW1  692   1.374   0.512   1.762
   42SOL    HW2  693   1.472   0.407   1.683
   43SOL     OW  694   0.973   0.890   1.572
   43SOL    HW1  695   1.019   0.806   1.543
   43SOL    HW2  696   0.917   0.924   1.497
   44SOL     OW  697   0.991   0.410   1.242
   44SOL    HW1  698   0.914   0.444   1.296
   44SOL    HW2  699   0.957   0.359   1.163
   45SOL     OW  700   1.041   0.701   0.429
   45SOL    HW1  701   1.067   0.697   0.525
   45SOL    HW2  702   0.956   0.650   0.415
   46SOL     OW  703   0.076   0.811   0.789
   46SOL    HW1  704   0.175   0.799   0.798
   46SOL    HW2  705   0.052   0.906   0.810
   47SOL     OW  706   0.130   1.821   1.571
   47SOL    HW1  707   0.120   1.806   1.670
   47SOL    HW2  708   0.044   1.857   1.535
   48SOL     OW  709   0.865   0.348   0.195
   48SOL    HW1  710   0.924   0.411   0.146
   48SOL    HW2  711   0.884   0.254   0.166
   49SOL     OW  712   1.719   0.585   1.831
   49SOL    HW1  713   1.693   0.674   1.795
   49SOL    HW2  714   1.717   0.517   1.758
   50SOL     OW  715   1.362   1.144   0.545
   50SOL    HW1  716   1.445   1.115   0.497
   50SOL    HW2  717   1.313   1.211   0.489
   51SOL     OW  718   0.550   0.196   0.885
   51SOL    HW1  719   0.545   0.191   0.985
   51SOL    HW2  720   0.552   0.292   0.856
   52SOL     OW  721   1.008   1.456   0.477
   52SOL    HW1  722   0.962   1.528   0.425
   52SOL    HW2  723   1.004   1.476   0.575
   53SOL     OW  724   0.351   1.801   0.853
   53SOL    HW1  725   0.401   1.715   0.859
   53SOL    HW2  726   0.416   1.878   0.850
   54SOL     OW  727   1.795   1.066   0.873
   54SOL    HW1  728   1.733   1.051   0.797
   54SOL    HW2  729   1.743   1.077   0.958
   55SOL     OW  730   1.227   1.550   1.506
   55SOL    HW1  731   1.233   1.473   1.570
   55SOL    HW2  732   1.175   1.524   1.426
   56SOL     OW  733   0.321   0.943   0.242
   56SOL    HW1  734   0.403   0.982   0.200
   56SOL    HW2  735   0.294   0.861   0.193
   57SOL     OW  736   1.458   0.735   0.728
   57SOL    HW1  737   1.453   0.670   0.803
   57SOL    HW2  738   1.538   0.794   0.741
   58SOL     OW  739   0.461   1.266   1.727
   58SOL    HW1  740   0.411   1.267   1.641
   58SOL    HW2  741   0.398   1.248   1.803
   59SOL     OW  742   1.111   1.776   0.237
   59SOL    HW1  743   1.051   1.714   0.287
   59SOL    HW2  744   1.142   1.732   0.152
   60SOL     OW  745   0.202   0.285   1.498
   60SOL    HW1  746   0.122   0.345   1.485
   60SOL    HW2  747   0.192   0.236   1.584
   61SOL     OW  748   1.632   1.377   0.081
   61SOL    HW1  749   1.600   1.471   0.071
   61SOL    HW2  750   1.556   1.314   0.069
   62SOL     OW  751   0.464   1.743   0.323
   62SOL    HW1  752   0.497   1.782   0.409
   62SOL    HW2  753   0.540   1.736   0.258
   63SOL     OW  754   1.400   0.107   0.426
   63SOL    HW1  755   1.376   0.070   0.336
   63SOL    HW2  756   1.499   0.123   0.430
   64SOL     OW  757   0.249   1.785   1.241
   64SOL    HW1  758   0.306   1.720   1.291
   64SOL    HW2  759   0.233   1.752   1.148
   65SOL     OW  760   0.940   1.698   0.904
   65SOL    HW1  761   1.020   1.641   0.925
   65SOL    HW2  762   0.891   1.658   0.827
   66SOL     OW  763   0.382   0.700   0.480
   66SOL    HW1  764   0.427   0.610   0.477
   66SOL    HW2  765   0.288   0.689   0.513
   67SOL     OW  766   1.547   0.222   1.729
   67SOL    HW1  767   1.542   0.259   1.821
   67SOL    HW2  768   1.475   0.153   1.717
   68SOL     OW  769   0.614   0.122   0.117
   68SOL    HW1  770   0.712   0.100   0.124
   68SOL    HW2  771   0.583   0.105   0.024
   69SOL     OW  772   0.781   0.264   1.749
   69SOL    HW1  773   0.848   0.203   1.792
   69SOL    HW2  774   0.708   0.283   1.814
   70SOL     OW  775   0.888   1.514   1.195
   70SOL    HW1  776   0.865   1.489   1.101
   70SOL    HW2  777   0.949   1.445   1.234
   71SOL     OW  778   1.351   0.590   1.433
   71SOL    HW1  779   1.379   0.547   1.518
   71SOL    HW2  780   1.376   0.686   1.434
   72SOL     OW  781   0.803   1.402   0.924
   72SOL    HW1  782   0.893   1.416   0.882
   72SOL    HW2  783   0.732   1.404   0.853
   73SOL     OW  784   0.922   0.503   0.899
   73SOL    HW1  785   0.897   0.494   0.803
   73SOL    HW2  786   0.970   0.421   0.930
   74SOL     OW  787   0.539   0.064   0.512
   74SOL    HW1  788   0.458   0.065   0.570
   74SOL    HW2  789   0.542   0.147   0.457
   75SOL     OW  790   1.434   1.188   0.041
   75SOL    HW1  791   1.466   1.112   0.098
   75SOL    HW2  792   1.342   1.215   0.071
   76SOL     OW  793   0.297   0.035   0.171
   76SOL    HW1  794   0.346   0.119   0.150
   76SOL    HW2  795   0.359  -0.030   0.216
   77SOL     OW  796   0.935   0.236   0.480
   77SOL    HW1  797   0.887   0.277   0.402
   77SOL    HW2  798   1.034   0.234   0.461
   78SOL     OW  799   1.076   0.683   1.464
   78SOL    HW1  800   0.996   0.622   1.467
   78SOL    HW2  801   1.157   0.630   1.440
   79SOL     OW  802   1.227   1.570   0.793
   79SOL    HW1  803   1.248   1.644   0.728
   79SOL    HW2  804   1.295   1.570   0.866
   80SOL     OW  805   0.459   1.152   0.741
   80SOL    HW1  806   0.388   1.125   0.806
   80SOL    HW2  807   0.433   1.124   0.648
   81SOL     OW  808   1.271   1.797   0.591
   81SOL    HW1  809   1.315   1.861   0.527
   81SOL    HW2  810   1.221   1.849   0.661
   82SOL     OW  811   1.032   0.549   0.016
   82SOL    HW1  812   0.991   0.631  -0.023
   82SOL    HW2  813   1.096   0.575   0.089
   83SOL     OW  814   0.078   0.556   1.386
   83SOL    HW1  815   0.170   0.555   1.345
   83SOL    HW2  816   0.072   0.630   1.453
   84SOL     OW  817   0.561   0.222   1.147
   84SOL    HW1  818   0.599   0.138   1.184
   84SOL    HW2  819   0.473   0.241   1.191
   85SOL     OW  820   0.866   0.454   0.642
   85SOL    HW1  821   0.834   0.526   0.580
   85SOL    HW2  822   0.890   0.373   0.589
   86SOL     OW  823   1.017   0.039   0.753
   86SOL    HW1  824   0.945   0.044   0.684
   86SOL    HW2  825   0.993  -0.030   0.822
   87SOL     OW  826   1.429   1.173   0.867
   87SOL    HW1  827   1.374   1.089   0.860
   87SOL    HW2  828   1.455   1.202   0.775
   88SOL     OW  829   1.466   0.590   0.992
   88SOL    HW1  830   1.436   0.495   0.999
   88SOL    HW2  831   1.539   0.606   1.058
   89SOL     OW  832   1.857   0.833   0.377
   89SOL    HW1  833   1.899   0.769   0.441
   89SOL    HW2  834   1.819   0.782   0.299
   90SOL     OW  835   0.488   1.385   0.174
   90SOL    HW1  836   0.401   1.370   0.221
   90SOL    HW2  837   0.471   1.411   0.079
   91SOL     OW  838   1.664   1.280   0.657
   91SOL    HW1  839   1.763   1.288   0.671
   91SOL    HW2  840   1.619   1.364   0.688
   92SOL     OW  841   1.390   0.575   0.078
   92SOL    HW1  842   1.336   0.554   0.159
   92SOL    HW2  843   1.481   0.534   0.087
   93SOL     OW  844   0.527   0.256   0.328
   93SOL    HW1  845   0.554   0.197   0.253
   93SOL    HW2  846   0.527   0.351   0.297
   94SOL     OW  847   1.754   1.223   1.588
   94SOL    HW1  848   1.845   1.184   1.575
   94SOL    HW2  849   1.762   1.319   1.612
   95SOL     OW  850   1.064   1.347   1.340
   95SOL    HW1  851   0.984   1.324   1.395
   95SOL    HW2  852   1.147   1.321   1.389
   96SOL     OW  853   1.592   1.629   1.625
   96SOL    HW1  854   1.619   1.663   1.535
   96SOL    HW2  855   1.671   1.591   1.671
   97SOL     OW  856   1.111   1.195   1.100
   97SOL    HW1  857   1.071   1.239   1.181
   97SOL    HW2  858   1.070   1.232   1.017
   98SOL     OW  859   1.638   1.099   1.079
   98SOL    HW1  860   1.643   1.180   1.138
   98SOL    HW2  861   1.552   1.101   1.028
   99SOL     OW  862   0.915   0.089   1.402
   99SOL    HW1  863   0.940   0.069   1.307
   99SOL    HW2  864   0.987   0.145   1.444
  100SOL     OW  865   0.980   1.116   1.719
  100SOL    HW1  866   0.881   1.122   1.729
  100SOL    HW2  867   1.003   1.036   1.663
  101SOL     OW  868   0.705   1.050   0.368
  101SOL    HW1  869   0.691   1.057   0.467
  101SOL    HW2  870   0.789   0.999   0.350
  102SOL     OW  871   0.410   0.813   1.251
  102SOL    HW1  872   0.496   0.825   1.301
  102SOL    HW2  873   0.368   0.726   1.278
  103SOL     OW  874   1.274   0.386   1.262
  103SOL    HW1  875   1.295   0.460   1.326
  103SOL    HW2  876   1.185   0.403   1.219
  104SOL     OW  877   0.064   1.564   1.331
  104SOL    HW1  878   0.018   1.646   1.297
  104SOL    HW2  879   0.162   1.583   1.340
  105SOL     OW  880   0.367   1.100   0.501
  105SOL    HW1  881   0.360   1.183   0.445
  105SOL    HW2  882   0.371   1.020   0.441
  106SOL     OW  883   0.566   0.537   0.865
  106SOL    HW1  884   0.578   0.603   0.791
  106SOL    HW2  885   0.612   0.571   0.948
  107SOL     OW  886   1.252   1.348   0.388
  107SOL    HW1  887   1.302   1.425   0.428
  107SOL    HW2  888   1.157   1.350   0.420
  108SOL     OW  889   1.272   1.445   1.142
  108SOL    HW1  890   1.319   1.458   1.229
  108SOL    HW2  891   1.206   1.371   1.151
  109SOL     OW  892   1.582   0.639   0.472
  109SOL    HW1  893   1.551   0.700   0.545
  109SOL    HW2  894   1.632   0.691   0.403
  110SOL     OW  895   0.354   1.510   1.329
  110SOL    HW1  896   0.333   1.466   1.242
  110SOL    HW2  897   0.451   1.536   1.332
  111SOL     OW  898   0.402   0.751   1.598
  111SOL    HW1  899   0.470   0.806   1.551
  111SOL    HW2  900   0.442   0.663   1.625
  112SOL     OW  901   1.587   0.779   1.670
  112SOL    HW1  902   1.495   0.817   1.665
  112SOL    HW2  903   1.647   0.826   1.605
  113SOL     OW  904   1.013   0.105   1.770
  113SOL    HW1  905   1.019   0.190   1.718
  113SOL    HW2  906   1.045   0.029   1.713
  114SOL     OW  907   0.504   0.050   1.740
  114SOL    HW1  908   0.462  -0.007   1.670
  114SOL    HW2  909   0.438   0.119   1.772
  115SOL     OW  910   0.573   0.870   1.029
  115SOL    HW1  911   0.617   0.959   1.020
  115SOL    HW2  912   0.510   0.870   1.106
  116SOL     OW  913   1.360   0.862   1.045
  116SOL    HW1  914   1.285   0.862   0.979
  116SOL    HW2  915   1.397   0.770   1.054
  117SOL     OW  916   1.209   0.525   0.275
  117SOL    HW1  917   1.222   0.441   0.329
  117SOL    HW2  918   1.180   0.599   0.335
  118SOL     OW  919   0.307   0.213   1.231
  118SOL    HW1  920   0.284   0.250   1.321
  118SOL    HW2  921   0.277   0.118   1.225
  119SOL     OW  922   0.037   1.310   1.282
  119SOL    HW1  923   0.090   1.261   1.350
  119SOL    HW2  924   0.059   1.408   1.287
  120SOL     OW  925   0.732   0.634   1.064
  120SOL    HW1  926   0.791   0.608   0.988
  120SOL    HW2  927   0.704   0.730   1.053
  121SOL     OW  928   1.728   0.935   1.854
  121SOL    HW1  929   1.682   0.928   1.765
  121SOL    HW2  930   1.666   0.979   1.920
  122SOL     OW  931   0.307   0.063   0.618
  122SOL    HW1  932   0.296   0.157   0.651
  122SOL    HW2  933   0.302   0.000   0.695
  123SOL     OW  934   1.622   0.367   0.374
  123SOL    HW1  935   1.624   0.291   0.438
  123SOL    HW2  936   1.574   0.444   0.414
  124SOL     OW  937   1.023   0.766   0.966
  124SOL    HW1  938   1.038   0.787   1.062
  124SOL    HW2  939   0.993   0.671   0.957
  125SOL     OW  940   0.980   1.573   1.700
  125SOL    HW1  941   0.960   1.617   1.612
  125SOL    HW2  942   1.019   1.482   1.684
  126SOL     OW  943   1.859   1.518   1.605
  126SOL    HW1  944   1.873   1.545   1.510
  126SOL    HW2  945   1.942   1.540   1.658
  127SOL     OW  946   0.350   0.898   1.804
  127SOL    HW1  947   0.426   0.942   1.852
  127SOL    HW2  948   0.385   0.851   1.722
  128SOL     OW  949   1.540   0.274   0.125
  128SOL    HW1  950   1.479   0.199   0.148
  128SOL    HW2  951   1.562   0.326   0.208
  129SOL     OW  952   1.303   0.838   0.042
  129SOL    HW1  953   1.337   0.745   0.057
  129SOL    HW2  954   1.321   0.865  -0.053
  130SOL     OW  955   1.068   1.333   0.849
  130SOL    HW1  956   1.075   1.249   0.794
  130SOL    HW2  957   1.130   1.402   0.813
  131SOL     OW  958   0.319   0.810   0.949
  131SOL    HW1  959   0.412   0.846   0.954
  131SOL    HW2  960   0.313   0.725   1.001
  132SOL     OW  961   0.339   0.509   1.006
  132SOL    HW1  962   0.287   0.426   0.989
  132SOL    HW2  963   0.416   0.514   0.942
  133SOL     OW  964   1.138   0.380   1.678
  133SOL    HW1  965   1.093   0.443   1.742
  133SOL    HW2  966   1.231   0.411   1.661
  134SOL     OW  967   1.160   0.207   1.477
  134SOL    HW1  968   1.160   0.271   1.554
  134SOL    HW2  969   1.188   0.255   1.394
  135SOL     OW  970   0.008   1.326   0.200
  135SOL    HW1  971  -0.085   1.347   0.169
  135SOL    HW2  972   0.018   1.227   0.213
  136SOL     OW  973   0.088   1.801   0.927
  136SOL    HW1  974   0.046   1.715   0.900
  136SOL    HW2  975   0.182   1.804   0.893
  137SOL     OW  976   0.504   1.568   0.910
  137SOL    HW1  977   0.570   1.642   0.919
  137SOL    HW2  978   0.548   1.489   0.868
  138SOL     OW  979   1.002   0.796   1.238
  138SOL    HW1  980   1.043   0.764   1.324
  138SOL    HW2  981   0.906   0.769   1.235
  139SOL     OW  982   0.040   0.544   1.114
  139SOL    HW1  983   0.125   0.511   1.073
  139SOL    HW2  984   0.053   0.559   1.212
  140SOL     OW  985   0.189   0.520   1.722
  140SOL    HW1  986   0.248   0.480   1.652
  140SOL    HW2  987   0.131   0.591   1.681
  141SOL     OW  988   1.369   0.950   1.660
  141SOL    HW1  989   1.408   1.039   1.680
  141SOL    HW2  990   1.379   0.930   1.563
  142SOL     OW  991   0.815   0.572   0.325
  142SOL    HW1  992   0.822   0.483   0.279
  142SOL    HW2  993   0.721   0.606   0.317
  143SOL     OW  994   1.657   0.604   1.206
  143SOL    HW1  995   1.619   0.535   1.268
  143SOL    HW2  996   1.739   0.568   1.162
  144SOL     OW  997   0.252   1.564   1.744
  144SOL    HW1  998   0.222   1.621   1.820
  144SOL    HW2  999   0.245   1.467   1.770
  145SOL     OW 1000   0.671   0.464   1.269
  145SOL    HW1 1001   0.637   0.375   1.239
  145SOL    HW2 1002   0.697   0.518   1.189
  146SOL     OW 1003   0.930   1.678   1.465
  146SOL    HW1 1004   0.906   1.660   1.370
  146SOL    HW2 1005   0.960   1.772   1.475
  147SOL     OW 1006   0.473   0.500   0.191
  147SOL    HW1 1007   0.534   0.580   0.195
  147SOL    HW2 1008   0.378   0.531   0.198
  148SOL     OW 1009   0.159   1.137   1.466
  148SOL    HW1 1010   0.181   1.076   1.542
  148SOL    HW2 1011   0.169   1.088   1.380
  149SOL     OW 1012   1.347   1.059   1.234
  149SOL    HW1 1013   1.371   0.996   1.160
  149SOL    HW2 1014   1.257   1.099   1.216
  150SOL     OW 1015   1.302   0.855   0.309
  150SOL    HW1 1016   1.216   0.824   0.351
  150SOL    HW2 1017   1.298   0.841   0.210
  151SOL     OW 1018   1.759   1.747   1.154
  151SOL    HW1 1019   1.820   1.777   1.081
  151SOL    HW2 1020   1.721   1.658   1.132
  152SOL     OW 1021   1.252   1.731   1.128
  152SOL    HW1 1022   1.336   1.736   1.074
  152SOL    HW2 1023   1.229   1.635   1.146
  153SOL     OW 1024   0.083   1.258   1.022
  153SOL    HW1 1025   0.078   1.257   1.122
  153SOL    HW2 1026   0.000   1.217   0.984
  154SOL     OW 1027   0.688   1.662   1.716
  154SOL    HW1 1028   0.632   1.743   1.725
  154SOL    HW2 1029   0.740   1.666   1.630
  155SOL     OW 1030   0.903   0.086   0.133
  155SOL    HW1 1031   0.954   0.087   0.047
  155SOL    HW2 1032   0.959   0.044   0.204
  156SOL     OW 1033   1.726   0.135   0.523
  156SOL    HW1 1034   1.799   0.118   0.456
  156SOL    HW2 1035   1.695   0.048   0.561
  157SOL     OW 1036   1.388   1.573   0.477
  157SOL    HW1 1037   1.455   1.585   0.403
  157SOL    HW2 1038   1.348   1.662   0.500
  158SOL     OW 1039   0.130   1.794   1.851
  158SOL    HW1 1040   0.089   1.720   1.904
  158SOL    HW2 1041   0.194   1.845   1.909
  159SOL     OW 1042   1.280   0.927   0.672
  159SOL    HW1 1043   1.340   0.846   0.674
  159SOL    HW2 1044   1.320   0.996   0.612
  160SOL     OW 1045   0.830   1.273   1.422
  160SOL    HW1 1046   0.825   1.306   1.517
  160SOL    HW2 1047   0.744   1.292   1.376
  161SOL     OW 1048   0.672   1.616   0.154
  161SOL    HW1 1049   0.681   1.626   0.055
  161SOL    HW2 1050   0.632   1.527   0.175
  162SOL     OW 1051   1.650   1.720   1.394
  162SOL    HW1 1052   1.703   1.730   1.310
  162SOL    HW2 1053   1.623   1.810   1.428
  163SOL     OW 1054   1.841   0.175   0.963
  163SOL    HW1 1055   1.880   0.090   0.927
  163SOL    HW2 1056   1.743   0.177   0.944
  164SOL     OW 1057   0.263   0.326   0.720
  164SOL    HW1 1058   0.184   0.377   0.686
  164SOL    HW2 1059   0.254   0.311   0.818
  165SOL     OW 1060   1.194   1.612   0.031
  165SOL    HW1 1061   1.200   1.519   0.068
  165SOL    HW2 1062   1.135   1.612  -0.049
  166SOL     OW 1063   0.822   1.002   1.372
  166SOL    HW1 1064   0.862   1.001   1.280
  166SOL    HW2 1065   0.832   1.094   1.412
  167SOL     OW 1066   0.916   0.910   0.291
  167SOL    HW1 1067   0.979   0.948   0.223
  167SOL    HW2 1068   0.956   0.827   0.330
  168SOL     OW 1069   1.504   1.607   0.044
  168SOL    HW1 1070   1.412   1.644   0.051
  168SOL    HW2 1071   1.542   1.627  -0.046
  169SOL     OW 1072   0.372   1.288   1.490
  169SOL    HW1 1073   0.359   1.381   1.456
  169SOL    HW2 1074   0.288   1.236   1.477
  170SOL     OW 1075   1.614   1.292   1.289
  170SOL    HW1 1076   1.674   1.295   1.369
  170SOL    HW2 1077   1.539   1.356   1.302
  171SOL     OW 1078   1.039   1.098   0.696
  171SOL    HW1 1079   0.969   1.051   0.750
  171SOL    HW2 1080   1.098   1.030   0.653
  172SOL     OW 1081   1.014   0.236   0.971
  172SOL    HW1 1082   1.006   0.200   0.878
  172SOL    HW2 1083   1.012   0.160   1.036
  173SOL     OW 1084   0.590   1.487   0.491
  173SOL    HW1 1085   0.632   1.429   0.421
  173SOL    HW2 1086   0.546   1.566   0.447
  174SOL     OW 1087   1.709   0.385   1.381
  174SOL    HW1 1088   1.782   0.454   1.385
  174SOL    HW2 1089   1.737   0.310   1.322
  175SOL     OW 1090   0.255   1.348   0.290
  175SOL    HW1 1091   0.159   1.349   0.263
  175SOL    HW2 1092   0.267   1.401   0.374
  176SOL     OW 1093   0.105   1.013   1.726
  176SOL    HW1 1094   0.028   0.980   1.780
  176SOL    HW2 1095   0.190   0.983   1.768
  177SOL     OW 1096   0.672   0.203   1.489
  177SOL    HW1 1097   0.762   0.187   1.449
  177SOL    HW2 1098   0.680   0.208   1.588
  178SOL     OW 1099   0.075   0.345   0.033
  178SOL    HW1 1100  -0.017   0.317   0.004
  178SOL    HW2 1101   0.106   0.422  -0.023
  179SOL     OW 1102   1.440   0.856   1.398
  179SOL    HW1 1103   1.383   0.908   1.335
  179SOL    HW2 1104   1.536   0.868   1.374
  180SOL     OW 1105   0.072   0.166   0.318
  180SOL    HW1 1106   0.055   0.249   0.264
  180SOL    HW2 1107   0.162   0.129   0.296
  181SOL     OW 1108   1.183   1.335   0.119
  181SOL    HW1 1109   1.084   1.324   0.121
  181SOL    HW2 1110   1.217   1.350   0.212
  182SOL     OW 1111   0.613   0.842   1.431
  182SOL    HW1 1112   0.669   0.923   1.414
  182SOL    HW2 1113   0.672   0.762   1.434
  183SOL     OW 1114   1.493   1.767   0.959
  183SOL    HW1 1115   1.526   1.831   0.890
  183SOL    HW2 1116   1.559   1.761   1.034
  184SOL     OW 1117   0.716   0.565   1.708
  184SOL    HW1 1118   0.735   0.630   1.782
  184SOL    HW2 1119   0.776   0.485   1.717
  185SOL     OW 1120   1.450   1.220   1.633
  185SOL    HW1 1121   1.441   1.210   1.732
  185SOL    HW2 1122   1.546   1.213   1.607
  186SOL     OW 1123   0.390   1.741   1.560
  186SOL    HW1 1124   0.299   1.782   1.558
  186SOL    HW2 1125   0.383   1.647   1.592
  187SOL     OW 1126   1.674   0.883   1.254
  187SOL    HW1 1127   1.647   0.794   1.217
  187SOL    HW2 1128   1.675   0.951   1.181
  188SOL     OW 1129   1.225   0.325   0.449
  188SOL    HW1 1130   1.290   0.251   0.438
  188SOL    HW2 1131   1.245   0.375   0.533
  189SOL     OW 1132   0.594   0.745   0.652
  189SOL    HW1 1133   0.644   0.830   0.633
  189SOL    HW2 1134   0.506   0.747   0.604
  190SOL     OW 1135   1.777   0.342   1.642
  190SOL    HW1 1136   1.760   0.373   1.548
  190SOL    HW2 1137   1.693   0.305   1.680
  191SOL     OW 1138   1.730   0.934   1.517
  191SOL    HW1 1139   1.768   1.025   1.532
  191SOL    HW2 1140   1.722   0.917   1.418
  192SOL     OW 1141   0.859   1.374   0.016
  192SOL    HW1 1142   0.813   1.389   0.104
  192SOL    HW2 1143   0.903   1.459  -0.014
  193SOL     OW 1144   0.661   1.790   0.953
  193SOL    HW1 1145   0.615   1.878   0.940
  193SOL    HW2 1146   0.760   1.802   0.946
  194SOL     OW 1147   0.859   0.956   0.861
  194SOL    HW1 1148   0.913   0.887   0.909
  194SOL    HW2 1149   0.827   1.025   0.927
  195SOL     OW 1150   1.083   0.984   0.087
  195SOL    HW1 1151   1.060   1.037   0.005
  195SOL    HW2 1152   1.164   0.928   0.068
  196SOL     OW 1153   1.861   1.569   0.851
  196SOL    HW1 1154   1.790   1.557   0.781
  196SOL    HW2 1155   1.862   1.490   0.911
  197SOL     OW 1156   0.221   1.314   1.844
  197SOL    HW1 1157   0.156   1.241   1.823
  197SOL    HW2 1158   0.225   1.328   1.942
  198SOL     OW 1159   0.079   1.240   0.653
  198SOL    HW1 1160   0.078   1.193   0.741
  198SOL    HW2 1161   0.161   1.212   0.602
  199SOL     OW 1162   0.672   1.391   1.624
  199SOL    HW1 1163   0.594   1.341   1.662
  199SOL    HW2 1164   0.669   1.486   1.655
  200SOL     OW 1165   1.824   0.192   1.227
  200SOL    HW1 1166   1.820   0.102   1.271
  200SOL    HW2 1167   1.827   0.181   1.128
  201SOL     OW 1168   0.428   0.424   0.520
  201SOL    HW1 1169   0.458   0.352   0.458
  201SOL    HW2 1170   0.389   0.384   0.603
  202SOL     OW 1171   1.705   1.487   1.104
  202SOL    HW1 1172   1.612   1.462   1.077
  202SOL    HW2 1173   1.731   1.437   1.186
  203SOL     OW 1174   0.317   0.547   1.280
  203SOL    HW1 1175   0.355   0.488   1.352
  203SOL    HW2 1176   0.357   0.521   1.192
  204SOL     OW 1177   0.812   1.586   0.687
  204SOL    HW1 1178   0.844   1.596   0.593
  204SOL    HW2 1179   0.733   1.524   0.689
  205SOL     OW 1180   1.424   0.214   1.112
  205SOL    HW1 1181   1.476   0.149   1.167
  205SOL    HW2 1182   1.375   0.277   1.173
  206SOL     OW 1183   1.001   0.034   1.154
  206SOL    HW1 1184   0.938  -0.038   1.123
  206SOL    HW2 1185   1.094  -0.002   1.154
  207SOL     OW 1186   0.770   1.330   0.301
  207SOL    HW1 1187   0.724   1.243   0.318
  207SOL    HW2 1188   0.861   1.327   0.342
  208SOL     OW 1189   0.618   1.567   1.284
  208SOL    HW1 1190   0.613   1.649   1.341
  208SOL    HW2 1191   0.707   1.564   1.239
  209SOL     OW 1192   1.352   0.052   0.168
  209SOL    HW1 1193   1.387   0.011   0.084
  209SOL    HW2 1194   1.262   0.014   0.188
  210SOL     OW 1195   1.300   0.453   0.691
  210SOL    HW1 1196   1.241   0.533   0.695
  210SOL    HW2 1197   1.315   0.418   0.784
  211SOL     OW 1198   1.593   0.221   0.882
  211SOL    HW1 1199   1.509   0.220   0.936
  211SOL    HW2 1200   1.595   0.304   0.826
  212SOL     OW 1201   0.039   1.077   0.300
  212SOL    HW1 1202   0.138   1.066   0.291
  212SOL    HW2 1203  -0.001   0.991   0.332
  213SOL     OW 1204   0.875   1.646   0.337
  213SOL    HW1 1205   0.798   1.611   0.283
  213SOL    HW2 1206   0.843   1.717   0.399
  214SOL     OW 1207   0.230   0.628   1.975
  214SOL    HW1 1208   0.137   0.626   2.012
  214SOL    HW2 1209   0.231   0.589   1.883
  215SOL     OW 1210   0.225   0.275   2.858
  215SOL    HW1 1211   0.260   0.258   2.950
  215SOL    HW2 1212   0.137   0.230   2.846
  216SOL     OW 1213   0.019   0.368   2.509
  216SOL    HW1 1214  -0.063   0.411   2.548
  216SOL    HW2 1215  -0.009   0.295   2.446
  217SOL     OW 1216   0.569   1.275   3.027
  217SOL    HW1 1217   0.476   1.268   2.990
  217SOL    HW2 1218   0.580   1.364   3.071
  218SOL     OW 1219   1.555   1.511   2.565
  218SOL    HW1 1220   1.498   1.495   2.646
  218SOL    HW2 1221   1.496   1.521   2.485
  219SOL     OW 1222   1.135   0.703   2.579
  219SOL    HW1 1223   1.192   0.781   2.554
  219SOL    HW2 1224   1.075   0.729   2.655
  220SOL     OW 1225   1.755   0.607   2.093
  220SOL    HW1 1226   1.743   0.594   1.994
  220SOL    HW2 1227   1.725   0.526   2.142
  221SOL     OW 1228   0.768   1.144   2.885
  221SOL    HW1 1229   0.690   1.161   2.945
  221SOL    HW2 1230   0.802   1.231   2.849
  222SOL     OW 1231   0.850   0.798   3.685
  222SOL    HW1 1232   0.846   0.874   3.750
  222SOL    HW2 1233   0.872   0.834   3.594
  223SOL     OW 1234   0.685   1.012   2.527
  223SOL    HW1 1235   0.754   0.996   2.597
  223SOL    HW2 1236   0.612   1.069   2.565
  224SOL     OW 1237   0.686   1.161   3.665
  224SOL    HW1 1238   0.746   1.240   3.679
  224SOL    HW2 1239   0.600   1.192   3.624
  225SOL     OW 1240   0.335   1.435   2.923
  225SOL    HW1 1241   0.257   1.404   2.870
  225SOL    HW2 1242   0.393   1.493   2.866
  226SOL     OW 1243   1.460   1.505   3.201
  226SOL    HW1 1244   1.484   1.599   3.227
  226SOL    HW2 1245   1.444   1.451   3.283
  227SOL     OW 1246   0.438   0.392   3.361
  227SOL    HW1 1247   0.520   0.336   3.370
  227SOL    HW2 1248   0.357   0.334   3.365
  228SOL     OW 1249   1.603   0.447   2.599
  228SOL    HW1 1250   1.529   0.493   2.549
  228SOL    HW2 1251   1.654   0.515   2.652
  229SOL     OW 1252   0.231   1.713   2.345
  229SOL    HW1 1253   0.265   1.790   2.399
  229SOL    HW2 1254   0.275   1.713   2.255
  230SOL     OW 1255   1.127   1.341   3.552
  230SOL    HW1 1256   1.174   1.341   3.640
  230SOL    HW2 1257   1.079   1.254   3.541
  231SOL     OW 1258   0.230   1.434   2.400
  231SOL    HW1 1259   0.204   1.530   2.400
  231SOL    HW2 1260   0.159   1.380   2.445
  232SOL     OW 1261   0.240   1.091   2.748
  232SOL    HW1 1262   0.254   1.007   2.800
  232SOL    HW2 1263   0.185   1.155   2.803
  233SOL     OW 1264   0.620   1.786   3.301
  233SOL    HW1 1265   0.528   1.769   3.336
  233SOL    HW2 1266   0.648   1.878   3.327
  234SOL     OW 1267   0.606   0.964   1.985
  234SOL    HW1 1268   0.613   1.048   1.931
  234SOL    HW2 1269   0.652   0.977   2.073
  235SOL     OW 1270   1.594   0.114   3.342
  235SOL    HW1 1271   1.576   0.181   3.270
  235SOL    HW2 1272   1.591   0.160   3.431
  236SOL     OW 1273   0.122   0.643   2.425
  236SOL    HW1 1274   0.077   0.555   2.442
  236SOL    HW2 1275   0.121   0.697   2.509
  237SOL     OW 1276   0.027   1.596   1.979
  237SOL    HW1 1277   0.008   1.500   2.000
  237SOL    HW2 1278  -0.006   1.654   2.054
  238SOL     OW 1279   1.689   0.922   2.474
  238SOL    HW1 1280   1.784   0.893   2.482
  238SOL    HW2 1281   1.681   0.987   2.399
  239SOL     OW 1282   1.641   1.108   2.294
  239SOL    HW1 1283   1.727   1.110   2.242
  239SOL    HW2 1284   1.655   1.155   2.382
  240SOL     OW 1285   0.113   0.737   3.459
  240SOL    HW1 1286   0.201   0.724   3.504
  240SOL    HW2 1287   0.100   0.834   3.437
  241SOL     OW 1288   0.613   1.365   2.588
  241SOL    HW1 1289   0.564   1.278   2.597
  241SOL    HW2 1290   0.590   1.408   2.501
  242SOL     OW 1291   1.293   1.228   3.285
  242SOL    HW1 1292   1.330   1.155   3.227
  242SOL    HW2 1293   1.345   1.233   3.370
  243SOL     OW 1294   0.809   0.004   2.364
  243SOL    HW1 1295   0.849   0.095   2.355
  243SOL    HW2 1296   0.709   0.012   2.370
  244SOL     OW 1297   0.197   0.976   3.126
  244SOL    HW1 1298   0.286   0.931   3.112
  244SOL    HW2 1299   0.124   0.911   3.107
  245SOL     OW 1300   1.525   0.999   2.052
  245SOL    HW1 1301   1.462   0.923   2.065
  245SOL    HW2 1302   1.573   1.017   2.138
  246SOL     OW 1303   1.187   1.792   3.478
  246SOL    HW1 1304   1.211   1.852   3.402
  246SOL    HW2 1305   1.194   1.697   3.448
  247SOL     OW 1306   0.317   0.251   3.663
  247SOL    HW1 1307   0.388   0.322   3.669
  247SOL    HW2 1308   0.229   0.290   3.691
  248SOL     OW 1309   1.466   1.417   2.815
  248SOL    HW1 1310   1.407   1.423   2.895
  248SOL    HW2 1311   1.451   1.329   2.769
  249SOL     OW 1312   1.667   1.714   2.434
  249SOL    HW1 1313   1.626   1.691   2.346
  249SOL    HW2 1314   1.649   1.640   2.499
  250SOL     OW 1315   0.598   0.729   2.132
  250SOL    HW1 1316   0.622   0.798   2.064
  250SOL    HW2 1317   0.520   0.762   2.186
  251SOL     OW 1318   1.281   0.345   2.806
  251SOL    HW1 1319   1.195   0.295   2.793
  251SOL    HW2 1320   1.343   0.291   2.862
  252SOL     OW 1321   1.576   1.662   2.169
  252SOL    HW1 1322   1.665   1.708   2.172
  252SOL    HW2 1323   1.555   1.638   2.074
  253SOL     OW 1324   0.807   0.605   3.327
  253SOL    HW1 1325   0.760   0.602   3.416
  253SOL    HW2 1326   0.756   0.550   3.261
  254SOL     OW 1327   1.394   0.469   3.536
  254SOL    HW1 1328   1.374   0.512   3.624
  254SOL    HW2 1329   1.472   0.407   3.545
  255SOL     OW 1330   0.973   0.890   3.434
  255SOL    HW1 1331   1.019   0.806   3.405
  255SOL    HW2 1332   0.917   0.924   3.359
  256SOL     OW 1333   0.991   0.410   3.104
  256SOL    HW1 1334   0.914   0.444   3.158
  256SOL    HW2 1335   0.957   0.359   3.025
  257SOL     OW 1336   1.041   0.701   2.291
  257SOL    HW1 1337   1.067   0.697   2.387
  257SOL    HW2 1338   0.956   0.650   2.277
  258SOL     OW 1339   0.076   0.811   2.651
  258SOL    HW1 1340   0.175   0.799   2.660
  258SOL    HW2 1341   0.052   0.906   2.672
  259SOL     OW 1342   0.130   1.821   3.433
  259SOL    HW1 1343   0.120   1.806   3.532
  259SOL    HW2 1344   0.044   1.857   3.397
  260SOL     OW 1345   0.865   0.348   2.057
  260SOL    HW1 1346   0.924   0.411   2.008
  260SOL    HW2 1347   0.884   0.254   2.028
  261SOL     OW 1348   1.719   0.585   3.693
  261SOL    HW1 1349   1.693   0.674   3.657
  261SOL    HW2 1350   1.717   0.517   3.620
  262SOL     OW 1351   1.362   1.144   2.407
  262SOL    HW1 1352   1.445   1.115   2.359
  262SOL    HW2 1353   1.313   1.211   2.351
  263SOL     OW 1354   0.550   0.196   2.747
  263SOL    HW1 1355   0.545   0.191   2.847
  263SOL    HW2 1356   0.552   0.292   2.718
  264SOL     OW 1357   1.008   1.456   2.339
  264SOL    HW1 1358   0.962   1.528   2.287
  264SOL    HW2 1359   1.004   1.476   2.437
  265SOL     OW 1360   0.351   1.801   2.715
  265SOL    HW1 1361   0.401   1.715   2.721
  265SOL    HW2 1362   0.416   1.878   2.712
  266SOL     OW 1363   1.795   1.066   2.735
  266SOL    HW1 1364   1.733   1.051   2.659
  266SOL    HW2 1365   1.743   1.077   2.820
  267SOL     OW 1366   1.227   1.550   3.368
  267SOL    HW1 1367   1.233   1.473   3.432
  267SOL    HW2 1368   1.175   1.524   3.288
  268SOL     OW 1369   0.321   0.943   2.104
  268SOL    HW1 1370   0.403   0.982   2.062
  268SOL    HW2 1371   0.294   0.861   2.055
  269SOL     OW 1372   1.458   0.735   2.590
  269SOL    HW1 1373   1.453   0.670   2.665
  269SOL    HW2 1374   1.538   0.794   2.603
  270SOL     OW 1375   0.461   1.266   3.589
  270SOL    HW1 1376   0.411   1.267   3.503
  270SOL    HW2 1377   0.398   1.248   3.665
  271SOL     OW 1378   1.111   1.776   2.099
  271SOL    HW1 1379   1.051   1.714   2.149
  271SOL    HW2 1380   1.142   1.732   2.014
  272SOL     OW 1381   0.202   0.285   3.360
  272SOL    HW1 1382   0.122   0.345   3.347
  272SOL    HW2 1383   0.192   0.236   3.446
  273SOL     OW 1384   1.632   1.377   1.943
  273SOL    HW1 1385   1.600   1.471   1.933
  273SOL    HW2 1386   1.556   1.314   1.931
  274SOL     OW 1387   0.464   1.743   2.185
  274SOL    HW1 1388   0.497   1.782   2.271
  274SOL    HW2 1389   0.540   1.736   2.120
  275SOL     OW 1390   1.400   0.107   2.288
  275SOL    HW1 1391   1.376   0.070   2.198
  275SOL    HW2 1392   1.499   0.123   2.292
  276SOL     OW 1393   0.249   1.785   3.103
  276SOL    HW1 1394   0.306   1.720   3.153
  276SOL    HW2 1395   0.233   1.752   3.010
  277SOL     OW 1396   0.940   1.698   2.766
  277SOL    HW1 1397   1.020   1.641   2.787
  277SOL    HW2 1398   0.891   1.658   2.689
  278SOL     OW 1399   0.382   0.700   2.342
  278SOL    HW1 1400   0.427   0.610   2.339
  278SOL    HW2 1401   0.288   0.689   2.375
  279SOL     OW 1402   1.547   0.222   3.591
  279SOL    HW1 1403   1.542   0.259   3.683
  279SOL    HW2 1404   1.475   0.153   3.579
  280SOL     OW 1405   0.614   0.122   1.979
  280SOL    HW1 1406   0.712   0.100   1.986
  280SOL    HW2 1407   0.583   0.105   1.886
  281SOL     OW 1408   0.781   0.264   3.611
  281SOL    HW1 1409   0.848   0.203   3.654
  281SOL    HW2 1410   0.708   0.283   3.676
  282SOL     OW 1411   0.888   1.514   3.057
  282SOL    HW1 1412   0.865   1.489   2.963
  282SOL    HW2 1413   0.949   1.445   3.096
  283SOL     OW 1414   1.351   0.590   3.295
  283SOL    HW1 1415   1.379   0.547   3.380
  283SOL    HW2 1416   1.376   0.686   3.296
  284SOL     OW 1417   0.803   1.402   2.786
  284SOL    HW1 1418   0.893   1.416   2.744
  284SOL    HW2 1419   0.732   1.404   2.715
  285SOL     OW 1420   0.922   0.503   2.761
  285SOL    HW1 1421   0.897   0.494   2.665
  285SOL    HW2 1422   0.970   0.421   2.792
  286SOL     OW 1423   0.539   0.064   2.374
  286SOL    HW1 1424   0.458   0.065   2.432
  286SOL    HW2 1425   0.542   0.147   2.319
  287SOL     OW 1426   1.434   1.188   1.903
  287SOL    HW1 1427   1.466   1.112   1.960
  287SOL    HW2 1428   1.342   1.215   1.933
  288SOL     OW 1429   0.297   0.035   2.033
  288SOL    HW1 1430   0.346   0.119   2.012
  288SOL    HW2 1431   0.359  -0.030   2.078
  289SOL     OW 1432   0.935   0.236   2.342
  289SOL    HW1 1433   0.887   0.277   2.264
  289SOL    HW2 1434   1.034   0.234   2.323
  290SOL     OW 1435   1.076   0.683   3.326
  290SOL    HW1 1436   0.996   0.622   3.329
  290SOL    HW2 1437   1.157   0.630   3.302
  291SOL     OW 1438   1.227   1.570   2.655
  291SOL    HW1 1439   1.248   1.644   2.590
  291SOL    HW2 1440   1.295   1.570   2.728
  292SOL     OW 1441   0.459   1.152   2.603
  292SOL    HW1 1442   0.388   1.125   2.668
  292SOL    HW2 1443   0.433   1.124   2.510
  293SOL     OW 1444   1.271   1.797   2.453
  293SOL    HW1 1445   1.315   1.861   2.389
  293SOL    HW2 1446   1.221   1.849   2.523
  294SOL     OW 1447   1.032   0.549   1.878
  294SOL    HW1 1448   0.991   0.631   1.839
  294SOL    HW2 1449   1.096   0.575   1.951
  295SOL     OW 1450   0.078   0.556   3.248
  295SOL    HW1 1451   0.170   0.555   3.207
  295SOL    HW2 1452   0.072   0.630   3.315
  296SOL     OW 1453   0.561   0.222   3.009
  296SOL    HW1 1454   0.599   0.138   3.046
  296SOL    HW2 1455   0.473   0.241   3.053
  297SOL     OW 1456   0.866   0.454   2.504
  297SOL    HW1 1457   0.834   0.526   2.442
  297SOL    HW2 1458   0.890   0.373   2.451
  298SOL     OW 1459   1.017   0.039   2.615
  298SOL    HW1 1460   0.945   0.044   2.546
  298SOL    HW2 1461   0.993  -0.030   2.684
  299SOL     OW 1462   1.429   1.173   2.729
  299SOL    HW1 1463   1.374   1.089   2.722
  299SOL    HW2 1464   1.455   1.202   2.637
  300SOL     OW 1465   1.466   0.590   2.854
  300SOL    HW1 1466   1.436   0.495   2.861
  300SOL    HW2 1467   1.539   0.606   2.920
  301SOL     OW 1468   1.857   0.833   2.239
  301SOL    HW1 1469   1.899   0.769   2.303
  301SOL    HW2 1470   1.819   0.782   2.161
  302SOL     OW 1471   0.488   1.385   2.036
  302SOL    HW1 1472   0.401   1.370   2.083
  302SOL    HW2 1473   0.471   1.411   1.941
  303SOL     OW 1474   1.664   1.280   2.519
  303SOL    HW1 1475   1.763   1.288   2.533
  303SOL    HW2 1476   1.619   1.364   2.550
  304SOL     OW 1477   1.390   0.575   1.940
  304SOL    HW1 1478   1.336   0.554   2.021
  304SOL    HW2 1479   1.481   0.534   1.949
  305SOL     OW 1480   0.527   0.256   2.190
  305SOL    HW1 1481   0.554   0.197   2.115
  305SOL    HW2 1482   0.527   0.351   2.159
  306SOL     OW 1483   1.754   1.223   3.450
  306SOL    HW1 1484   1.845   1.184   3.437
  306SOL    HW2 1485   1.762   1.319   3.474
  307SOL     OW 1486   1.064   1.347   3.202
  307SOL    HW1 1487   0.984   1.324   3.257
  307SOL    HW2 1488   1.147   1.321   3.251
  308SOL     OW 1489   1.592   1.629   3.487
  308SOL    HW1 1490   1.619   1.663   3.397
  308SOL    HW2 1491   1.671   1.591   3.533
  309SOL     OW 1492   1.111   1.195   2.962
  309SOL    HW1 1493   1.071   1.239   3.043
  309SOL    HW2 1494   1.070   1.232   2.879
  310SOL     OW 1495   1.638   1.099   2.941
  310SOL    HW1 1496   1.643   1.180   3.000
  310SOL    HW2 1497   1.552   1.101   2.890
  311SOL     OW 1498   0.915   0.089   3.264
  311SOL    HW1 1499   0.940   0.069   3.169
  311SOL    HW2 1500   0.987   0.145   3.306
  312SOL     OW 1501   0.980   1.116   3.581
  312SOL    HW1 1502   0.881   1.122   3.591
  312SOL    HW2 1503   1.003   1.036   3.525
  313SOL     OW 1504   0.705   1.050   2.230
  313SOL    HW1 1505   0.691   1.057   2.329
  313SOL    HW2 1506   0.789   0.999   2.212
  314SOL     OW 1507   0.410   0.813   3.113
  314SOL    HW1 1508   0.496   0.825   3.163
  314SOL    HW2 1509   0.368   0.726   3.140
  315SOL     OW 1510   1.274   0.386   3.124
  315SOL    HW1 1511   1.295   0.460   3.188
  315SOL    HW2 1512   1.185   0.403   3.081
  316SOL     OW 1513   0.064   1.564   3.193
  316SOL    HW1 1514   0.018   1.646   3.159
  316SOL    HW2 1515   0.162   1.583   3.202
  317SOL     OW 1516   0.367   1.100   2.363
  317SOL    HW1 1517   0.360   1.183   2.307
  317SOL    HW2 1518   0.371   1.020   2.303
  318SOL     OW 1519   0.566   0.537   2.727
  318SOL    HW1 1520   0.578   0.603   2.653
  318SOL    HW2 1521   0.612   0.571   2.810
  319SOL     OW 1522   1.252   1.348   2.250
  319SOL    HW1 1523   1.302   1.425   2.290
  319SOL    HW2 1524   1.157   1.350   2.282
  320SOL     OW 1525   1.272   1.445   3.004
  320SOL    HW1 1526   1.319   1.458   3.091
  320SOL    HW2 1527   1.206   1.371   3.013
  321SOL     OW 1528   1.582   0.639   2.334
  321SOL    HW1 1529   1.551   0.700   2.407
  321SOL    HW2 1530   1.632   0.691   2.265
  322SOL     OW 1531   0.354   1.510   3.191
  322SOL    HW1 1532   0.333   1.466   3.104
  322SOL    HW2 1533   0.451   1.536   3.194
  323SOL     OW 1534   0.402   0.751   3.460
  323SOL    HW1 1535   0.470   0.806   3.413
  323SOL    HW2 1536   0.442   0.663   3.487
  324SOL     OW 1537   1.587   0.779   3.532
  324SOL    HW1 1538   1.495   0.817   3.527
  324SOL    HW2 1539   1.647   0.826   3.467
  325SOL     OW 1540   1.013   0.105   3.632
  325SOL    HW1 1541   1.019   0.190   3.580
  325SOL    HW2 1542   1.045   0.029   3.575
  326SOL     OW 1543   0.504   0.050   3.602
  326SOL    HW1 1544   0.462  -0.007   3.532
  326SOL    HW2 1545   0.438   0.119   3.634
  327SOL     OW 1546   0.573   0.870   2.891
  327SOL    HW1 1547   0.617   0.959   2.882
  327SOL    HW2 1548   0.510   0.870   2.968
  328SOL     OW 1549   1.360   0.862   2.907
  328SOL    HW1 1550   1.285   0.862   2.841
  328SOL    HW2 1551   1.397   0.770   2.916
  329SOL     OW 1552   1.209   0.525   2.137
  329SOL    HW1 1553   1.222   0.441   2.191
  329SOL    HW2 1554   1.180   0.599   2.197
  330SOL     OW 1555   0.307   0.213   3.093
  330SOL    HW1 1556   0.284   0.250   3.183
  330SOL    HW2 1557   0.277   0.118   3.087
  331SOL     OW 1558   0.037   1.310   3.144
  331SOL    HW1 1559   0.090   1.261   3.212
  331SOL    HW2 1560   0.059   1.408   3.149
  332SOL     OW 1561   0.732   0.634   2.926
  332SOL    HW1 1562   0.791   0.608   2.850
  332SOL    HW2 1563   0.704   0.730   2.915
  333SOL     OW 1564   1.728   0.935   3.716
  333SOL    HW1 1565   1.682   0.928   3.627
  333SOL    HW2 1566   1.666   0.979   3.782
  334SOL     OW 1567   0.307   0.063   2.480
  334SOL    HW1 1568   0.296   0.157   2.513
  334SOL    HW2 1569   0.302   0.000   2.557
  335SOL     OW 1570   1.622   0.367   2.236
  335SOL    HW1 1571   1.624   0.291   2.300
  335SOL    HW2 1572   1.574   0.444   2.276
  336SOL     OW 1573   1.023   0.766   2.828
  336SOL    HW1 1574   1.038   0.787   2.924
  336SOL    HW2 1575   0.993   0.671   2.819
  337SOL     OW 1576   0.980   1.573   3.562
  337SOL    HW1 1577   0.960   1.617   3.474
  337SOL    HW2 1578   1.019   1.482   3.546
  338SOL     OW 1579   1.859   1.518   3.467
  338SOL    HW1 1580   1.873   1.545   3.372
  338SOL    HW2 1581   1.942   1.540   3.520
  339SOL     OW 1582   0.350   0.898   3.666
  339SOL    HW1 1583   0.426   0.942   3.714
  339SOL    HW2 1584   0.385   0.851   3.584
  340SOL     OW 1585   1.540   0.274   1.987
  340SOL    HW1 1586   1.479   0.199   2.010
  340SOL    HW2 1587   1.562   0.326   2.070
  341SOL     OW 1588   1.303   0.838   1.904
  341SOL    HW1 1589   1.337   0.745   1.919
  341SOL    HW2 1590   1.321   0.865   1.809
  342SOL     OW 1591   1.068   1.333   2.711
  342SOL    HW1 1592   1.075   1.249   2.656
  342SOL    HW2 1593   1.130   1.402   2.675
  343SOL     OW 1594   0.319   0.810   2.811
  343SOL    HW1 1595   0.412   0.846   2.816
  343SOL    HW2 1596   0.313   0.725   2.863
  344SOL     OW 1597   0.339   0.509   2.868
  344SOL    HW1 1598   0.287   0.426   2.851
  344SOL    HW2 1599   0.416   0.514   2.804
  345SOL     OW 1600   1.138   0.380   3.540
  345SOL    HW1 1601   1.093   0.443   3.604
  345SOL    HW2 1602   1.231   0.411   3.523
  346SOL     OW 1603   1.160   0.207   3.339
  346SOL    HW1 1604   1.160   0.271   3.416
  346SOL    HW2 1605   1.188   0.255   3.256
  347SOL     OW 1606   0.008   1.326   2.062
  347SOL    HW1 1607  -0.085   1.347   2.031
  347SOL    HW2 1608   0.018   1.227   2.075
  348SOL     OW 1609   0.088   1.801   2.789
  348SOL    HW1 1610   0.046   1.715   2.762
  348SOL    HW2 1611   0.182   1.804   2.755
  349SOL     OW 1612   0.504   1.568   2.772
  349SOL    HW1 1613   0.570   1.642   2.781
  349SOL    HW2 1614   0.548   1.489   2.730
  350SOL     OW 1615   1.002   0.796   3.100
  350SOL    HW1 1616   1.043   0.764   3.186
  350SOL    HW2 1617   0.906   0.769   3.097
  351SOL     OW 1618   0.040   0.544   2.976
  351SOL    HW1 1619   0.125   0.511   2.935
  351SOL    HW2 1620   0.053   0.559   3.074
  352SOL     OW 1621   0.189   0.520   3.584
  352SOL    HW1 1622   0.248   0.480   3.514
  352SOL    HW2 1623   0.131   0.591   3.543
  353SOL     OW 1624   1.369   0.950   3.522
  353SOL    HW1 1625   1.408   1.039   3.542
  353SOL    HW2 1626   1.379   0.930   3.425
  354SOL     OW 1627   0.815   0.572   2.187
  354SOL    HW1 1628   0.822   0.483   2.141
  354SOL    HW2 1629   0.721   0.606   2.179
  355SOL     OW 1630   1.657   0.604   3.068
  355SOL    HW1 1631   1.619   0.535   3.130
  355SOL    HW2 1632   1.739   0.568   3.024
  356SOL     OW 1633   0.252   1.564   3.606
  356SOL    HW1 1634   0.222   1.621   3.682
  356SOL    HW2 1635   0.245   1.467   3.632
  357SOL     OW 1636   0.671   0.464   3.131
  357SOL    HW1 1637   0.637   0.375   3.101
  357SOL    HW2 1638   0.697   0.518   3.051
  358SOL     OW 1639   0.930   1.678   3.327
  358SOL    HW1 1640   0.906   1.660   3.232
  358SOL    HW2 1641   0.960   1.772   3.337
  359SOL     OW 1642   0.473   0.500   2.053
  359SOL    HW1 1643   0.534   0.580   2.057
  359SOL    HW2 1644   0.378   0.531   2.060
  360SOL     OW 1645   0.159   1.137   3.328
  360SOL    HW1 1646   0.181   1.076   3.404
  360SOL    HW2 1647   0.169   1.088   3.242
  361SOL     OW 1648   1.347   1.059   3.096
  361SOL    HW1 1649   1.371   0.996   3.022
  361SOL    HW2 1650   1.257   1.099   3.078
  362SOL     OW 1651   1.302   0.855   2.171
  362SOL    HW1 1652   1.216   0.824   2.213
  362SOL    HW2 1653   1.298   0.841   2.072
  363SOL     OW 1654   1.759   1.747   3.016
  363SOL    HW1 1655   1.820   1.777   2.943
  363SOL    HW2 1656   1.721   1.658   2.994
  364SOL     OW 1657   1.252   1.731   2.990
  364SOL    HW1 1658   1.336   1.736   2.936
  364SOL    HW2 1659   1.229   1.635   3.008
  365SOL     OW 1660   0.083   1.258   2.884
  365SOL    HW1 1661   0.078   1.257   2.984
  365SOL    HW2 1662   0.000   1.217   2.846
  366SOL     OW 1663   0.688   1.662   3.578
  366SOL    HW1 1664   0.632   1.743   3.587
  366SOL    HW2 1665   0.740   1.666   3.492
  367SOL     OW 1666   1.726   0.135   2.385
  367SOL    HW1 1667   1.799   0.118   2.318
  367SOL    HW2 1668   1.695   0.048   2.423
  368SOL     OW 1669   1.388   1.573   2.339
  368SOL    HW1 1670   1.455   1.585   2.265
  368SOL    HW2 1671   1.348   1.662   2.362
  369SOL     OW 1672   0.130   1.794   3.713
  369SOL    HW1 1673   0.089   1.720   3.766
  369SOL    HW2 1674   0.194   1.845   3.771
  370SOL     OW 1675   1.280   0.927   2.534
  370SOL    HW1 1676   1.340   0.846   2.536
  370SOL    HW2 1677   1.320   0.996   2.474
  371SOL     OW 1678   0.830   1.273   3.284
  371SOL    HW1 1679   0.825   1.306   3.379
  371SOL    HW2 1680   0.744   1.292   3.238
  372SOL     OW 1681   0.672   1.616   2.016
  372SOL    HW1 1682   0.681   1.626   1.917
  372SOL    HW2 1683   0.632   1.527   2.037
  373SOL     OW 1684   1.650   1.720   3.256
  373SOL    HW1 1685   1.703   1.730   3.172
  373SOL    HW2 1686   1.623   1.810   3.290
  374SOL     OW 1687   1.841   0.175   2.825
  374SOL    HW1 1688   1.880   0.090   2.789
  374SOL    HW2 1689   1.743   0.177   2.806
  375SOL     OW 1690   0.263   0.326   2.582
  375SOL    HW1 1691   0.184   0.377   2.548
  375SOL    HW2 1692   0.254   0.311   2.680
  376SOL     OW 1693   1.194   1.612   1.893
  376SOL    HW1 1694   1.200   1.519   1.930
  376SOL    HW2 1695   1.135   1.612   1.813
  377SOL     OW 1696   0.822   1.002   3.234
  377SOL    HW1 1697   0.862   1.001   3.142
  377SOL    HW2 1698   0.832   1.094   3.274
  378SOL     OW 1699   0.916   0.910   2.153
  378SOL    HW1 1700   0.979   0.948   2.085
  378SOL    HW2 1701   0.956   0.827   2.192
  379SOL     OW 1702   1.504   1.607   1.906
  379SOL    HW1 1703   1.412   1.644   1.913
  379SOL    HW2 1704   1.542   1.627   1.816
  380SOL     OW 1705   0.372   1.288   3.352
  380SOL    HW1 1706   0.359   1.381   3.318
  380SOL    HW2 1707   0.288   1.236   3.339
  381SOL     OW 1708   1.614   1.292   3.151
  381SOL    HW1 1709   1.674   1.295   3.231
  381SOL    HW2 1710   1.539   1.356   3.164
  382SOL     OW 1711   1.039   1.098   2.558
  382SOL    HW1 1712   0.969   1.051   2.612
  382SOL    HW2 1713   1.098   1.030   2.515
  383SOL     OW 1714   1.014   0.236   2.833
  383SOL    HW1 1715   1.006   0.200   2.740
  383SOL    HW2 1716   1.012   0.160   2.898
  384SOL     OW 1717   0.590   1.487   2.353
  384SOL    HW1 1718   0.632   1.429   2.283
  384SOL    HW2 1719   0.546   1.566   2.309
  385SOL     OW 1720   1.709   0.385   3.243
  385SOL    HW1 1721   1.782   0.454   3.247
  385SOL    HW2 1722   1.737   0.310   3.184
  386SOL     OW 1723   0.255   1.348   2.152
  386SOL    HW1 1724   0.159   1.349   2.125
  386SOL    HW2 1725   0.267   1.401   2.236
  387SOL     OW 1726   0.105   1.013   3.588
  387SOL    HW1 1727   0.028   0.980   3.642
  387SOL    HW2 1728   0.190   0.983   3.630
  388SOL     OW 1729   0.672   0.203   3.351
  388SOL    HW1 1730   0.762   0.187   3.311
  388SOL    HW2 1731   0.680   0.208   3.450
  389SOL     OW 1732   0.075   0.345   1.895
  389SOL    HW1 1733  -0.017   0.317   1.866
  389SOL    HW2 1734   0.106   0.422   1.839
  390SOL     OW 1735   1.440   0.856   3.260
  390SOL    HW1 1736   1.383   0.908   3.197
  390SOL    HW2 1737   1.536   0.868   3.236
  391SOL     OW 1738   0.072   0.166   2.180
  391SOL    HW1 1739   0.055   0.249   2.126
  391SOL    HW2 1740   0.162   0.129   2.158
  392SOL     OW 1741   1.183   1.335   1.981
  392SOL    HW1 1742   1.084   1.324   1.983
  392SOL    HW2 1743   1.217   1.350   2.074
  393SOL     OW 1744   0.613   0.842   3.293
  393SOL    HW1 1745   0.669   0.923   3.276
  393SOL    HW2 1746   0.672   0.762   3.296
  394SOL     OW 1747   1.493   1.767   2.821
  394SOL    HW1 1748   1.526   1.831   2.752
  394SOL    HW2 1749   1.559   1.761   2.896
  395SOL     OW 1750   0.716   0.565   3.570
  395SOL    HW1 1751   0.735   0.630   3.644
  395SOL    HW2 1752   0.776   0.485   3.579
  396SOL     OW 1753   1.450   1.220   3.495
  396SOL    HW1 1754   1.441   1.210   3.594
  396SOL    HW2 1755   1.546   1.213   3.469
  397SOL     OW 1756   0.390   1.741   3.422
  397SOL    HW1 1757   0.299   1.782   3.420
  397SOL    HW2 1758   0.383   1.647   3.454
  398SOL     OW 1759   1.674   0.883   3.116
  398SOL    HW1 1760   1.647   0.794   3.079
  398SOL    HW2 1761   1.675   0.951   3.043
  399SOL     OW 1762   1.225   0.325   2.311
  399SOL    HW1 1763   1.290   0.251   2.300
  399SOL    HW2 1764   1.245   0.375   2.395
  400SOL     OW 1765   0.594   0.745   2.514
  400SOL    HW1 1766   0.644   0.830   2.495
  400SOL    HW2 1767   0.506   0.747   2.466
  401SOL     OW 1768   1.777   0.342   3.504
  401SOL    HW1 1769   1.760   0.373   3.410
  401SOL    HW2 1770   1.693   0.305   3.542
  402SOL     OW 1771   1.730   0.934   3.379
  402SOL    HW1 1772   1.768   1.025   3.394
  402SOL    HW2 1773   1.722   0.917   3.280
  403SOL     OW 1774   0.859   1.374   1.878
  403SOL    HW1 1775   0.813   1.389   1.966
  403SOL    HW2 1776   0.903   1.459   1.848
  404SOL     OW 1777   0.661   1.790   2.815
  404SOL    HW1 1778   0.615   1.878   2.802
  404SOL    HW2 1779   0.760   1.802   2.808
  405SOL     OW 1780   0.859   0.956   2.723
  405SOL    HW1 1781   0.913   0.887   2.771
  405SOL    HW2 1782   0.827   1.025   2.789
  406SOL     OW 1783   1.083   0.984   1.949
  406SOL    HW1 1784   1.060   1.037   1.867
  406SOL    HW2 1785   1.164   0.928   1.930
  407SOL     OW 1786   1.861   1.569   2.713
  407SOL    HW1 1787   1.790   1.557   2.643
  407SOL    HW2 1788   1.862   1.490   2.773
  408SOL     OW 1789   0.221   1.314   3.706
  408SOL    HW1 1790   0.156   1.241   3.685
  408SOL    HW2 1791   0.225   1.328   3.804
  409SOL     OW 1792   0.079   1.240   2.515
  409SOL    HW1 1793   0.078   1.193   2.603
  409SOL    HW2 1794   0.161   1.212   2.464
  410SOL     OW 1795   0.672   1.391   3.486
  410SOL    HW1 1796   0.594   1.341   3.524
  410SOL    HW2 1797   0.669   1.486   3.517
  411SOL     OW 1798   1.824   0.192   3.089
  411SOL    HW1 1799   1.820   0.102   3.133
  411SOL    HW2 1800   1.827   0.181   2.990
  412SOL     OW 1801   0.428   0.424   2.382
  412SOL    HW1 1802   0.458   0.352   2.320
  412SOL    HW2 1803   0.389   0.384   2.465
  413SOL     OW 1804   1.705   1.487   2.966
  413SOL    HW1 1805   1.612   1.462   2.939
  413SOL    HW2 1806   1.731   1.437   3.048
  414SOL     OW 1807   0.317   0.547   3.142
  414SOL    HW1 1808   0.355   0.488   3.214
  414SOL    HW2 1809   0.357   0.521   3.054
  415SOL     OW 1810   0.812   1.586   2.549
  415SOL    HW1 1811   0.844   1.596   2.455
  415SOL    HW2 1812   0.733   1.524   2.551
  416SOL     OW 1813   1.424   0.214   2.974
  416SOL    HW1 1814   1.476   0.149   3.029
  416SOL    HW2 1815   1.375   0.277   3.035
  417SOL     OW 1816   1.001   0.034   3.016
  417SOL    HW1 1817   0.938  -0.038   2.985
  417SOL    HW2 1818   1.094  -0.002   3.016
  418SOL     OW 1819   0.770   1.330   2.163
  418SOL    HW1 1820   0.724   1.243   2.180
  418SOL    HW2 1821   0.861   1.327   2.204
  419SOL     OW 1822   0.618   1.567   3.146
  419SOL    HW1 1823   0.613   1.649   3.203
  419SOL    HW2 1824   0.707   1.564   3.101
  420SOL     OW 1825   1.352   0.052   2.030
  420SOL    HW1 1826   1.387   0.011   1.946
  420SOL    HW2 1827   1.262   0.014   2.050
  421SOL     OW 1828   1.300   0.453   2.553
  421SOL    HW1 1829   1.241   0.533   2.557
  421SOL    HW2 1830   1.315   0.418   2.646
  422SOL     OW 1831   1.593   0.221   2.744
  422SOL    HW1 1832   1.509   0.220   2.798
  422SOL    HW2 1833   1.595   0.304   2.688
  423SOL     OW 1834   0.039   1.077   2.162
  423SOL    HW1 1835   0.138   1.066   2.153
  423SOL    HW2 1836  -0.001   0.991   2.194
  424SOL     OW 1837   0.875   1.646   2.199
  424SOL    HW1 1838   0.798   1.611   2.145
  424SOL    HW2 1839   0.843   1.717   2.261
  425SOL     OW 1840   0.230   0.628   3.837
  425SOL    HW1 1841   0.137   0.626   3.874
  425SOL    HW2 1842   0.231   0.589   3.745
  426SOL     OW 1843   0.225   0.275   4.720
  426SOL    HW1 1844   0.260   0.258   4.812
  426SOL    HW2 1845   0.137   0.230   4.708
  427SOL     OW 1846   0.019   0.368   4.371
  427SOL    HW1 1847  -0.063   0.411   4.410
  427SOL    HW2 1848  -0.009   0.295   4.308
  428SOL     OW 1849   0.569   1.275   4.889
  428SOL    HW1 1850   0.476   1.268   4.852
  428SOL    HW2 1851   0.580   1.364   4.933
  429SOL     OW 1852   1.555   1.511   4.427
  429SOL    HW1 1853   1.498   1.495   4.508
  429SOL    HW2 1854   1.496   1.521   4.347
  430SOL     OW 1855   1.135   0.703   4.441
  430SOL    HW1 1856   1.192   0.781   4.416
  430SOL    HW2 1857   1.075   0.729   4.517
  431SOL     OW 1858   1.755   0.607   3.955
  431SOL    HW1 1859   1.743   0.594   3.856
  431SOL    HW2 1860   1.725   0.526   4.004
  432SOL     OW 1861   0.768   1.144   4.747
  432SOL    HW1 1862   0.690   1.161   4.807
  432SOL    HW2 1863   0.802   1.231   4.711
  433SOL     OW 1864   0.850   0.798   5.547
  433SOL    HW1 1865   0.846   0.874   5.612
  433SOL    HW2 1866   0.872   0.834   5.456
  434SOL     OW 1867   0.685   1.012   4.389
  434SOL    HW1 1868   0.754   0.996   4.459
  434SOL    HW2 1869   0.612   1.069   4.427
  435SOL     OW 1870   0.686   1.161   5.527
  435SOL    HW1 1871   0.746   1.240   5.541
  435SOL    HW2 1872   0.600   1.192   5.486
  436SOL     OW 1873   0.335   1.435   4.785
  436SOL    HW1 1874   0.257   1.404   4.732
  436SOL    HW2 1875   0.393   1.493   4.728
  437SOL     OW 1876   1.460   1.505   5.063
  437SOL    HW1 1877   1.484   1.599   5.089
  437SOL    HW2 1878   1.444   1.451   5.145
  438SOL     OW 1879   0.438   0.392   5.223
  438SOL    HW1 1880   0.520   0.336   5.232
  438SOL    HW2 1881   0.357   0.334   5.227
  439SOL     OW 1882   1.603   0.447   4.461
  439SOL    HW1 1883   1.529   0.493   4.411
  439SOL    HW2 1884   1.654   0.515   4.514
  440SOL     OW 1885   0.231   1.713   4.207
  440SOL    HW1 1886   0.265   1.790   4.261
  440SOL    HW2 1887   0.275   1.713   4.117
  441SOL     OW 1888   1.127   1.341   5.414
  441SOL    HW1 1889   1.174   1.341   5.502
  441SOL    HW2 1890   1.079   1.254   5.403
  442SOL     OW 1891   0.230   1.434   4.262
  442SOL    HW1 1892   0.204   1.530   4.262
  442SOL    HW2 1893   0.159   1.380   4.307
  443SOL     OW 1894   0.240   1.091   4.610
  443SOL    HW1 1895   0.254   1.007   4.662
  443SOL    HW2 1896   0.185   1.155   4.665
  444SOL     OW 1897   0.620   1.786   5.163
  444SOL    HW1 1898   0.528   1.769   5.198
  444SOL    HW2 1899   0.648   1.878   5.189
  445SOL     OW 1900   0.606   0.964   3.847
  445SOL    HW1 1901   0.613   1.048   3.793
  445SOL    HW2 1902   0.652   0.977   3.935
  446SOL     OW 1903   1.594   0.114   5.204
  446SOL    HW1 1904   1.576   0.181   5.132
  446SOL    HW2 1905   1.591   0.160   5.293
  447SOL     OW 1906   0.122   0.643   4.287
  447SOL    HW1 1907   0.077   0.555   4.304
  447SOL    HW2 1908   0.121   0.697   4.371
  448SOL     OW 1909   0.027   1.596   3.841
  448SOL    HW1 1910   0.008   1.500   3.862
  448SOL    HW2 1911  -0.006   1.654   3.916
  449SOL     OW 1912   1.689   0.922   4.336
  449SOL    HW1 1913   1.784   0.893   4.344
  449SOL    HW2 1914   1.681   0.987   4.261
  450SOL     OW 1915   1.641   1.108   4.156
  450SOL    HW1 1916   1.727   1.110   4.104
  450SOL    HW2 1917   1.655   1.155   4.244
  451SOL     OW 1918   0.113   0.737   5.321
  451SOL    HW1 1919   0.201   0.724   5.366
  451SOL    HW2 1920   0.100   0.834   5.299
  452SOL     OW 1921   0.613   1.365   4.450
  452SOL    HW1 1922   0.564   1.278   4.459
  452SOL    HW2 1923   0.590   1.408   4.363
  453SOL     OW 1924   1.293   1.228   5.147
  453SOL    HW1 1925   1.330   1.155   5.089
  453SOL    HW2 1926   1.345   1.233   5.232
  454SOL     OW 1927   0.809   0.004   4.226
  454SOL    HW1 1928   0.849   0.095   4.217
  454SOL    HW2 1929   0.709   0.012   4.232
  455SOL     OW 1930   0.197   0.976   4.988
  455SOL    HW1 1931   0.286   0.931   4.974
  455SOL    HW2 1932   0.124   0.911   4.969
  456SOL     OW 1933   1.525   0.999   3.914
  456SOL    HW1 1934   1.462   0.923   3.927
  456SOL    HW2 1935   1.573   1.017   4.000
  457SOL     OW 1936   1.187   1.792   5.340
  457SOL    HW1 1937   1.211   1.852   5.264
  457SOL    HW2 1938   1.194   1.697   5.310
  458SOL     OW 1939   0.317   0.251   5.525
  458SOL    HW1 1940   0.388   0.322   5.531
  458SOL    HW2 1941   0.229   0.290   5.553
  459SOL     OW 1942   1.466   1.417   4.677
  459SOL    HW1 1943   1.407   1.423   4.757
  459SOL    HW2 1944   1.451   1.329   4.631
  460SOL     OW 1945   1.667   1.714   4.296
  460SOL    HW1 1946   1.626   1.691   4.208
  460SOL    HW2 1947   1.649   1.640   4.361
  461SOL     OW 1948   0.598   0.729   3.994
  461SOL    HW1 1949   0.622   0.798   3.926
  461SOL    HW2 1950   0.520   0.762   4.048
  462SOL     OW 1951   1.281   0.345   4.668
  462SOL    HW1 1952   1.195   0.295   4.655
  462SOL    HW2 1953   1.343   0.291   4.724
  463SOL     OW 1954   1.576   1.662   4.031
  463SOL    HW1 1955   1.665   1.708   4.034
  463SOL    HW2 1956   1.555   1.638   3.936
  464SOL     OW 1957   0.807   0.605   5.189
  464SOL    HW1 1958   0.760   0.602   5.278
  464SOL    HW2 1959   0.756   0.550   5.123
  465SOL     OW 1960   1.394   0.469   5.398
  465SOL    HW1 1961   1.374   0.512   5.486
  465SOL    HW2 1962   1.472   0.407   5.407
  466SOL     OW 1963   0.973   0.890   5.296
  466SOL    HW1 1964   1.019   0.806   5.267
  466SOL    HW2 1965   0.917   0.924   5.221
  467SOL     OW 1966   0.991   0.410   4.966
  467SOL    HW1 1967   0.914   0.444   5.020
  467SOL    HW2 1968   0.957   0.359   4.887
  468SOL     OW 1969   1.041   0.701   4.153
  468SOL    HW1 1970   1.067   0.697   4.249
  468SOL    HW2 1971   0.956   0.650   4.139
  469SOL     OW 1972   0.076   0.811   4.513
  469SOL    HW1 1973   0.175   0.799   4.522
  469SOL    HW2 1974   0.052   0.906   4.534
  470SOL     OW 1975   0.130   1.821   5.295
  470SOL    HW1 1976   0.120   1.806   5.394
  470SOL    HW2 1977   0.044   1.857   5.259
  471SOL     OW 1978   0.865   0.348   3.919
  471SOL    HW1 1979   0.924   0.411   3.870
  471SOL    HW2 1980   0.884   0.254   3.890
  472SOL     OW 1981   1.719   0.585   5.555
  472SOL    HW1 1982   1.693   0.674   5.519
  472SOL    HW2 1983   1.717   0.517   5.482
  473SOL     OW 1984   1.362   1.144   4.269
  473SOL    HW1 1985   1.445   1.115   4.221
  473SOL    HW2 1986   1.313   1.211   4.213
  474SOL     OW 1987   0.550   0.196   4.609
  474SOL    HW1 1988   0.545   0.191   4.709
  474SOL    HW2 1989   0.552   0.292   4.580
  475SOL     OW 1990   1.008   1.456   4.201
  475SOL    HW1 1991   0.962   1.528   4.149
  475SOL    HW2 1992   1.004   1.476   4.299
  476SOL     OW 1993   0.351   1.801   4.577
  476SOL    HW1 1994   0.401   1.715   4.583
  476SOL    HW2 1995   0.416   1.878   4.574
  477SOL     OW 1996   1.795   1.066   4.597
  477SOL    HW1 1997   1.733   1.051   4.521
  477SOL    HW2 1998   1.743   1.077   4.682
  478SOL     OW 1999   1.227   1.550   5.230
  478SOL    HW1 2000   1.233   1.473   5.294
  478SOL    HW2 2001   1.175   1.524   5.150
  479SOL     OW 2002   0.321   0.943   3.966
  479SOL    HW1 2003   0.403   0.982   3.924
  479SOL    HW2 2004   0.294   0.861   3.917
  480SOL     OW 2005   1.458   0.735   4.452
  480SOL    HW1 2006   1.453   0.670   4.527
  480SOL    HW2 2007   1.538   0.794   4.465
  481SOL     OW 2008   0.461   1.266   5.451
  481SOL    HW1 2009   0.411   1.267   5.365
  481SOL    HW2 2010   0.398   1.248   5.527
  482SOL     OW 2011   1.111   1.776   3.961
  482SOL    HW1 2012   1.051   1.714   4.011
  482SOL    HW2 2013   1.142   1.732   3.876
  483SOL     OW 2014   0.202   0.285   5.222
  483SOL    HW1 2015   0.122   0.345   5.209
  483SOL    HW2 2016   0.192   0.236   5.308
  484SOL     OW 2017   1.632   1.377   3.805
  484SOL    HW1 2018   1.600   1.471   3.795
  484SOL    HW2 2019   1.556   1.314   3.793
  485SOL     OW 2020   0.464   1.743   4.047
  485SOL    HW1 2021   0.497   1.782   4.133
  485SOL    HW2 2022   0.540   1.736   3.982
  486SOL     OW 2023   1.400   0.107   4.150
  486SOL    HW1 2024   1.376   0.070   4.060
  486SOL    HW2 2025   1.499   0.123   4.154
  487SOL     OW 2026   0.249   1.785   4.965
  487SOL    HW1 2027   0.306   1.720   5.015
  487SOL    HW2 2028   0.233   1.752   4.872
  488SOL     OW 2029   0.940   1.698   4.628
  488SOL    HW1 2030   1.020   1.641   4.649
  488SOL    HW2 2031   0.891   1.658   4.551
  489SOL     OW 2032   0.382   0.700   4.204
  489SOL    HW1 2033   0.427   0.610   4.201
  489SOL    HW2 2034   0.288   0.689   4.237
  490SOL     OW 2035   1.547   0.222   5.453
  490SOL    HW1 2036   1.542   0.259   5.545
  490SOL    HW2 2037   1.475   0.153   5.441
  491SOL     OW 2038   0.614   0.122   3.841
  491SOL    HW1 2039   0.712   0.100   3.848
  491SOL    HW2 2040   0.583   0.105   3.748
  492SOL     OW 2041   0.781   0.264   5.473
  492SOL    HW1 2042   0.848   0.203   5.516
  492SOL    HW2 2043   0.708   0.283   5.538
  493SOL     OW 2044   0.888   1.514   4.919
  493SOL    HW1 2045   0.865   1.489   4.825
  493SOL    HW2 2046   0.949   1.445   4.958
  494SOL     OW 2047   1.351   0.590   5.157
  494SOL    HW1 2048   1.379   0.547   5.242
  494SOL    HW2 2049   1.376   0.686   5.158
  495SOL     OW 2050   0.803   1.402   4.648
  495SOL    HW1 2051   0.893   1.416   4.606
  495SOL    HW2 2052   0.732   1.404   4.577
  496SOL     OW 2053   0.922   0.503   4.623
  496SOL    HW1 2054   0.897   0.494   4.527
  496SOL    HW2 2055   0.970   0.421   4.654
  497SOL     OW 2056   0.539   0.064   4.236
  497SOL    HW1 2057   0.458   0.065   4.294
  497SOL    HW2 2058   0.542   0.147   4.181
  498SOL     OW 2059   1.434   1.188   3.765
  498SOL    HW1 2060   1.466   1.112   3.822
  498SOL    HW2 2061   1.342   1.215   3.795
  499SOL     OW 2062   0.297   0.035   3.895
  499SOL    HW1 2063   0.346   0.119   3.874
  499SOL    HW2 2064   0.359  -0.030   3.940
  500SOL     OW 2065   0.935   0.236   4.204
  500SOL    HW1 2066   0.887   0.277   4.126
  500SOL    HW2 2067   1.034   0.234   4.185
  501SOL     OW 2068   1.076   0.683   5.188
  501SOL    HW1 2069   0.996   0.622   5.191
  501SOL    HW2 2070   1.157   0.630   5.164
  502SOL     OW 2071   1.227   1.570   4.517
  502SOL    HW1 2072   1.248   1.644   4.452
  502SOL    HW2 2073   1.295   1.570   4.590
  503SOL     OW 2074   0.459   1.152   4.465
  503SOL    HW1 2075   0.388   1.125   4.530
  503SOL    HW2 2076   0.433   1.124   4.372
  504SOL     OW 2077   1.271   1.797   4.315
  504SOL    HW1 2078   1.315   1.861   4.251
  504SOL    HW2 2079   1.221   1.849   4.385
  505SOL     OW 2080   1.032   0.549   3.740
  505SOL    HW1 2081   0.991   0.631   3.701
  505SOL    HW2 2082   1.096   0.575   3.813
  506SOL     OW 2083   0.078   0.556   5.110
  506SOL    HW1 2084   0.170   0.555   5.069
  506SOL    HW2 2085   0.072   0.630   5.177
  507SOL     OW 2086   0.561   0.222   4.871
  507SOL    HW1 2087   0.599   0.138   4.908
  507SOL    HW2 2088   0.473   0.241   4.915
  508SOL     OW 2089   0.866   0.454   4.366
  508SOL    HW1 2090   0.834   0.526   4.304
  508SOL    HW2 2091   0.890   0.373   4.313
  509SOL     OW 2092   1.017   0.039   4.477
  509SOL    HW1 2093   0.945   0.044   4.408
  509SOL    HW2 2094   0.993  -0.030   4.546
  510SOL     OW 2095   1.429   1.173   4.591
  510SOL    HW1 2096   1.374   1.089   4.584
  510SOL    HW2 2097   1.455   1.202   4.499
  511SOL     OW 2098   1.466   0.590   4.716
  511SOL    HW1 2099   1.436   0.495   4.723
  511SOL    HW2 2100   1.539   0.606   4.782
  512SOL     OW 2101   1.857   0.833   4.101
  512SOL    HW1 2102   1.899   0.769   4.165
  512SOL    HW2 2103   1.819   0.782   4.023
  513SOL     OW 2104   0.488   1.385   3.898
  513SOL    HW1 2105   0.401   1.370   3.945
  513SOL    HW2 2106   0.471   1.411   3.803
  514SOL     OW 2107   1.664   1.280   4.381
  514SOL    HW1 2108   1.763   1.288   4.395
  514SOL    HW2 2109   1.619   1.364   4.412
  515SOL     OW 2110   1.390   0.575   3.802
  515SOL    HW1 2111   1.336   0.554   3.883
  515SOL    HW2 2112   1.481   0.534   3.811
  516SOL     OW 2113   0.527   0.256   4.052
  516SOL    HW1 2114   0.554   0.197   3.977
  516SOL    HW2 2115   0.527   0.351   4.021
  517SOL     OW 2116   1.754   1.223   5.312
  517SOL    HW1 2117   1.845   1.184   5.299
  517SOL    HW2 2118   1.762   1.319   5.336
  518SOL     OW 2119   1.064   1.347   5.064
  518SOL    HW1 2120   0.984   1.324   5.119
  518SOL    HW2 2121   1.147   1.321   5.113
  519SOL     OW 2122   1.592   1.629   5.349
  519SOL    HW1 2123   1.619   1.663   5.259
  519SOL    HW2 2124   1.671   1.591   5.395
  520SOL     OW 2125   1.111   1.195   4.824
  520SOL    HW1 2126   1.071   1.239   4.905
  520SOL    HW2 2127   1.070   1.232   4.741
  521SOL     OW 2128   1.638   1.099   4.803
  521SOL    HW1 2129   1.643   1.180   4.862
  521SOL    HW2 2130   1.552   1.101   4.752
  522SOL     OW 2131   0.915   0.089   5.126
  522SOL    HW1 2132   0.940   0.069   5.031
  522SOL    HW2 2133   0.987   0.145   5.168
  523SOL     OW 2134   0.980   1.116   5.443
  523SOL    HW1 2135   0.881   1.122   5.453
  523SOL    HW2 2136   1.003   1.036   5.387
  524SOL     OW 2137   0.705   1.050   4.092
  524SOL    HW1 2138   0.691   1.057   4.191
  524SOL    HW2 2139   0.789   0.999   4.074
  525SOL     OW 2140   0.410   0.813   4.975
  525SOL    HW1 2141   0.496   0.825   5.025
  525SOL    HW2 2142   0.368   0.726   5.002
  526SOL     OW 2143   1.274   0.386   4.986
  526SOL    HW1 2144   1.295   0.460   5.050
  526SOL    HW2 2145   1.185   0.403   4.943
  527SOL     OW 2146   0.064   1.564   5.055
  527SOL    HW1 2147   0.018   1.646   5.021
  527SOL    HW2 2148   0.162   1.583   5.064
  528SOL     OW 2149   0.367   1.100   4.225
  528SOL    HW1 2150   0.360   1.183   4.169
  528SOL    HW2 2151   0.371   1.020   4.165
  529SOL     OW 2152   0.566   0.537   4.589
  529SOL    HW1 2153   0.578   0.603   4.515
  529SOL    HW2 2154   0.612   0.571   4.672
  530SOL     OW 2155   1.252   1.348   4.112
  530SOL    HW1 2156   1.302   1.425   4.152
  530SOL    HW2 2157   1.157   1.350   4.144
  531SOL     OW 2158   1.272   1.445   4.866
  531SOL    HW1 2159   1.319   1.458   4.953
  531SOL    HW2 2160   1.206   1.371   4.875
  532SOL     OW 2161   1.582   0.639   4.196
  532SOL    HW1 2162   1.551   0.700   4.269
  532SOL    HW2 2163   1.632   0.691   4.127
  533SOL     OW 2164   0.354   1.510   5.053
  533SOL    HW1 2165   0.333   1.466   4.966
  533SOL    HW2 2166   0.451   1.536   5.056
  534SOL     OW 2167   0.402   0.751   5.322
  534SOL    HW1 2168   0.470   0.806   5.275
  534SOL    HW2 2169   0.442   0.663   5.349
  535SOL     OW 2170   1.587   0.779   5.394
  535SOL    HW1 2171   1.495   0.817   5.389
  535SOL    HW2 2172   1.647   0.826   5.329
  536SOL     OW 2173   1.013   0.105   5.494
  536SOL    HW1 2174   1.019   0.190   5.442
  536SOL    HW2 2175   1.045   0.029   5.437
  537SOL     OW 2176   0.504   0.050   5.464
  537SOL    HW1 2177   0.462  -0.007   5.394
  537SOL    HW2 2178   0.438   0.119   5.496
  538SOL     OW 2179   0.573   0.870   4.753
  538SOL    HW1 2180   0.617   0.959   4.744
  538SOL    HW2 2181   0.510   0.870   4.830
  539SOL     OW 2182   1.360   0.862   4.769
  539SOL    HW1 2183   1.285   0.862   4.703
  539SOL    HW2 2184   1.397   0.770   4.778
  540SOL     OW 2185   1.209   0.525   3.999
  540SOL    HW1 2186   1.222   0.441   4.053
  540SOL    HW2 2187   1.180   0.599   4.059
  541SOL     OW 2188   0.307   0.213   4.955
  541SOL    HW1 2189   0.284   0.250   5.045
  541SOL    HW2 2190   0.277   0.118   4.949
  542SOL     OW 2191   0.037   1.310   5.006
  542SOL    HW1 2192   0.090   1.261   5.074
  542SOL    HW2 2193   0.059   1.408   5.011
  543SOL     OW 2194   0.732   0.634   4.788
  543SOL    HW1 2195   0.791   0.608   4.712
  543SOL    HW2 2196   0.704   0.730   4.777
  544SOL     OW 2197   1.728   0.935   5.578
  544SOL    HW1 2198   1.682   0.928   5.489
  544SOL    HW2 2199   1.666   0.979   5.644
  545SOL     OW 2200   0.307   0.063   4.342
  545SOL    HW1 2201   0.296   0.157   4.375
  545SOL    HW2 2202   0.302   0.000   4.419
  546SOL     OW 2203   1.622   0.367   4.098
  546SOL    HW1 2204   1.624   0.291   4.162
  546SOL    HW2 2205   1.574   0.444   4.138
  547SOL     OW 2206   1.023   0.766   4.690
  547SOL    HW1 2207   1.038   0.787   4.786
  547SOL    HW2 2208   0.993   0.671   4.681
  548SOL     OW 2209   0.980   1.573   5.424
  548SOL    HW1 2210   0.960   1.617   5.336
  548SOL    HW2 2211   1.019   1.482   5.408
  549SOL     OW 2212   1.859   1.518   5.329
  549SOL    HW1 2213   1.873   1.545   5.234
  549SOL    HW2 2214   1.942   1.540   5.382
  550SOL     OW 2215   0.350   0.898   5.528
  550SOL    HW1 2216   0.426   0.942   5.576
  550SOL    HW2 2217   0.385   0.851   5.446
  551SOL     OW 2218   1.540   0.274   3.849
  551SOL    HW1 2219   1.479   0.199   3.872
  551SOL    HW2 2220   1.562   0.326   3.932
  552SOL     OW 2221   1.303   0.838   3.766
  552SOL    HW1 2222   1.337   0.745   3.781
  552SOL    HW2 2223   1.321   0.865   3.671
  553SOL     OW 2224   1.068   1.333   4.573
  553SOL    HW1 2225   1.075   1.249   4.518
  553SOL    HW2 2226   1.130   1.402   4.537
  554SOL     OW 2227   0.319   0.810   4.673
  554SOL    HW1 2228   0.412   0.846   4.678
  554SOL    HW2 2229   0.313   0.725   4.725
  555SOL     OW 2230   0.339   0.509   4.730
  555SOL    HW1 2231   0.287   0.426   4.713
  555SOL    HW2 2232   0.416   0.514   4.666
  556SOL     OW 2233   1.138   0.380   5.402
  556SOL    HW1 2234   1.093   0.443   5.466
  556SOL    HW2 2235   1.231   0.411   5.385
  557SOL     OW 2236   1.160   0.207   5.201
  557SOL    HW1 2237   1.160   0.271   5.278
  557SOL    HW2 2238   1.188   0.255   5.118
  558SOL     OW 2239   0.008   1.326   3.924
  558SOL    HW1 2240  -0.085   1.347   3.893
  558SOL    HW2 2241   0.018   1.227   3.937
  559SOL     OW 2242   0.088   1.801   4.651
  559SOL    HW1 2243   0.046   1.715   4.624
  559SOL    HW2 2244   0.182   1.804   4.617
  560SOL     OW 2245   0.504   1.568   4.634
  560SOL    HW1 2246   0.570   1.642   4.643
  560SOL    HW2 2247   0.548   1.489   4.592
  561SOL     OW 2248   1.002   0.796   4.962
  561SOL    HW1 2249   1.043   0.764   5.048
  561SOL    HW2 2250   0.906   0.769   4.959
  562SOL     OW 2251   0.040   0.544   4.838
  562SOL    HW1 2252   0.125   0.511   4.797
  562SOL    HW2 2253   0.053   0.559   4.936
  563SOL     OW 2254   0.189   0.520   5.446
  563SOL    HW1 2255   0.248   0.480   5.376
  563SOL    HW2 2256   0.131   0.591   5.405
  564SOL     OW 2257   1.369   0.950   5.384
  564SOL    HW1 2258   1.408   1.039   5.404
  564SOL    HW2 2259   1.379   0.930   5.287
  565SOL     OW 2260   0.815   0.572   4.049
  565SOL    HW1 2261   0.822   0.483   4.003
  565SOL    HW2 2262   0.721   0.606   4.041
  566SOL     OW 2263   1.657   0.604   4.930
  566SOL    HW1 2264   1.619   0.535   4.992
  566SOL    HW2 2265   1.739   0.568   4.886
  567SOL     OW 2266   0.252   1.564   5.468
  567SOL    HW1 2267   0.222   1.621   5.544
  567SOL    HW2 2268   0.245   1.467   5.494
  568SOL     OW 2269   0.671   0.464   4.993
  568SOL    HW1 2270   0.637   0.375   4.963
  568SOL    HW2 2271   0.697   0.518   4.913
  569SOL     OW 2272   0.930   1.678   5.189
  569SOL    HW1 2273   0.906   1.660   5.094
  569SOL    HW2 2274   0.960   1.772   5.199
  570SOL     OW 2275   0.473   0.500   3.915
  570SOL    HW1 2276   0.534   0.580   3.919
  570SOL    HW2 2277   0.378   0.531   3.922
  571SOL     OW 2278   0.159   1.137   5.190
  571SOL    HW1 2279   0.181   1.076   5.266
  571SOL    HW2 2280   0.169   1.088   5.104
  572SOL     OW 2281   1.347   1.059   4.958
  572SOL    HW1 2282   1.371   0.996   4.884
  572SOL    HW2 2283   1.257   1.099   4.940
  573SOL     OW 2284   1.302   0.855   4.033
  573SOL    HW1 2285   1.216   0.824   4.075
  573SOL    HW2 2286   1.298   0.841   3.934
  574SOL     OW 2287   1.759   1.747   4.878
  574SOL    HW1 2288   1.820   1.777   4.805
  574SOL    HW2 2289   1.721   1.658   4.856
  575SOL     OW 2290   1.252   1.731   4.852
  575SOL    HW1 2291   1.336   1.736   4.798
  575SOL    HW2 2292   1.229   1.635   4.870
  576SOL     OW 2293   0.083   1.258   4.746
  576SOL    HW1 2294   0.078   1.257   4.846
  576SOL    HW2 2295   0.000   1.217   4.708
  577SOL     OW 2296   0.688   1.662   5.440
  577SOL    HW1 2297   0.632   1.743   5.449
  577SOL    HW2 2298   0.740   1.666   5.354
  578SOL     OW 2299   1.726   0.135   4.247
  578SOL    HW1 2300   1.799   0.118   4.180
  578SOL    HW2 2301   1.695   0.048   4.285
  579SOL     OW 2302   1.388   1.573   4.201
  579SOL    HW1 2303   1.455   1.585   4.127
  579SOL    HW2 2304   1.348   1.662   4.224
  580SOL     OW 2305   0.130   1.794   5.575
  580SOL    HW1 2306   0.089   1.720   5.628
  580SOL    HW2 2307   0.194   1.845   5.633
  581SOL     OW 2308   1.280   0.927   4.396
  581SOL    HW1 2309   1.340   0.846   4.398
  581SOL    HW2 2310   1.320   0.996   4.336
  582SOL     OW 2311   0.830   1.273   5.146
  582SOL    HW1 2312   0.825   1.306   5.241
  582SOL    HW2 2313   0.744   1.292   5.100
  583SOL     OW 2314   0.672   1.616   3.878
  583SOL    HW1 2315   0.681   1.626   3.779
  583SOL    HW2 2316   0.632   1.527   3.899
  584SOL     OW 2317   1.650   1.720   5.118
  584SOL    HW1 2318   1.703   1.730   5.034
  584SOL    HW2 2319   1.623   1.810   5.152
  585SOL     OW 2320   1.841   0.175   4.687
  585SOL    HW1 2321   1.880   0.090   4.651
  585SOL    HW2 2322   1.743   0.177   4.668
  586SOL     OW 2323   0.263   0.326   4.444
  586SOL    HW1 2324   0.184   0.377   4.410
  586SOL    HW2 2325   0.254   0.311   4.542
  587SOL     OW 2326   1.194   1.612   3.755
  587SOL    HW1 2327   1.200   1.519   3.792
  587SOL    HW2 2328   1.135   1.612   3.675
  588SOL     OW 2329   0.822   1.002   5.096
  588SOL    HW1 2330   0.862   1.001   5.004
  588SOL    HW2 2331   0.832   1.094   5.136
  589SOL     OW 2332   0.916   0.910   4.015
  589SOL    HW1 2333   0.979   0.948   3.947
  589SOL    HW2 2334   0.956   0.827   4.054
  590SOL     OW 2335   1.504   1.607   3.768
  590SOL    HW1 2336   1.412   1.644   3.775
  590SOL    HW2 2337   1.542   1.627   3.678
  591SOL     OW 2338   0.372   1.288   5.214
  591SOL    HW1 2339   0.359   1.381   5.180
  591SOL    HW2 2340   0.288   1.236   5.201
  592SOL     OW 2341   1.614   1.292   5.013
  592SOL    HW1 2342   1.674   1.295   5.093
  592SOL    HW2 2343   1.539   1.356   5.026
  593SOL     OW 2344   1.039   1.098   4.420
  593SOL    HW1 2345   0.969   1.051   4.474
  593SOL    HW2 2346   1.098   1.030   4.377
  594SOL     OW 2347   1.014   0.236   4.695
  594SOL    HW1 2348   1.006   0.200   4.602
  594SOL    HW2 2349   1.012   0.160   4.760
  595SOL     OW 2350   0.590   1.487   4.215
  595SOL    HW1 2351   0.632   1.429   4.145
  595SOL    HW2 2352   0.546   1.566   4.171
  596SOL     OW 2353   1.709   0.385   5.105
  596SOL    HW1 2354   1.782   0.454   5.109
  596SOL    HW2 2355   1.737   0.310   5.046
  597SOL     OW 2356   0.255   1.348   4.014
  597SOL    HW1 2357   0.159   1.349   3.987
  597SOL    HW2 2358   0.267   1.401   4.098
  598SOL     OW 2359   0.105   1.013   5.450
  598SOL    HW1 2360   0.028   0.980   5.504
  598SOL    HW2 2361   0.190   0.983   5.492
  599SOL     OW 2362   0.672   0.203   5.213
  599SOL    HW1 2363   0.762   0.187   5.173
  599SOL    HW2 2364   0.680   0.208   5.312
  600SOL     OW 2365   0.075   0.345   3.757
  600SOL    HW1 2366  -0.017   0.317   3.728
  600SOL    HW2 2367   0.106   0.422   3.701
  601SOL     OW 2368   1.440   0.856   5.122
  601SOL    HW1 2369   1.383   0.908   5.059
  601SOL    HW2 2370   1.536   0.868   5.098
  602SOL     OW 2371   0.072   0.166   4.042
  602SOL    HW1 2372   0.055   0.249   3.988
  602SOL    HW2 2373   0.162   0.129   4.020
  603SOL     OW 2374   1.183   1.335   3.843
  603SOL    HW1 2375   1.084   1.324   3.845
  603SOL    HW2 2376   1.217   1.350   3.936
  604SOL     OW 2377   0.613   0.842   5.155
  604SOL    HW1 2378   0.669   0.923   5.138
  604SOL    HW2 2379   0.672   0.762   5.158
  605SOL     OW 2380   1.493   1.767   4.683
  605SOL    HW1 2381   1.526   1.831   4.614
  605SOL    HW2 2382   1.559   1.761   4.758
  606SOL     OW 2383   0.716   0.565   5.432
  606SOL    HW1 2384   0.735   0.630   5.506
  606SOL    HW2 2385   0.776   0.485   5.441
  607SOL     OW 2386   1.450   1.220   5.357
  607SOL    HW1 2387   1.441   1.210   5.456
  607SOL    HW2 2388   1.546   1.213   5.331
  608SOL     OW 2389   0.390   1.741   5.284
  608SOL    HW1 2390   0.299   1.782   5.282
  608SOL    HW2 2391   0.383   1.647   5.316
  609SOL     OW 2392   1.674   0.883   4.978
  609SOL    HW1 2393   1.647   0.794   4.941
  609SOL    HW2 2394   1.675   0.951   4.905
  610SOL     OW 2395   1.225   0.325   4.173
  610SOL    HW1 2396   1.290   0.251   4.162
  610SOL    HW2 2397   1.245   0.375   4.257
  611SOL     OW 2398   0.594   0.745   4.376
  611SOL    HW1 2399   0.644   0.830   4.357
  611SOL    HW2 2400   0.506   0.747   4.328
  612SOL     OW 2401   1.777   0.342   5.366
  612SOL    HW1 2402   1.760   0.373   5.272
  612SOL    HW2 2403   1.693   0.305   5.404
  613SOL     OW 2404   1.730   0.934   5.241
  613SOL    HW1 2405   1.768   1.025   5.256
  613SOL    HW2 2406   1.722   0.917   5.142
  614SOL     OW 2407   0.859   1.374   3.740
  614SOL    HW1 2408   0.813   1.389   3.828
  614SOL    HW2 2409   0.903   1.459   3.710
  615SOL     OW 2410   0.661   1.790   4.677
  615SOL    HW1 2411   0.615   1.878   4.664
  615SOL    HW2 2412   0.760   1.802   4.670
  616SOL     OW 2413   0.859   0.956   4.585
  616SOL    HW1 2414   0.913   0.887   4.633
  616SOL    HW2 2415   0.827   1.025   4.651
  617SOL     OW 2416   1.083   0.984   3.811
  617SOL    HW1 2417   1.060   1.037   3.729
  617SOL    HW2 2418   1.164   0.928   3.792
  618SOL     OW 2419   1.861   1.569   4.575
  618SOL    HW1 2420   1.790   1.557   4.505
  618SOL    HW2 2421   1.862   1.490   4.635
  619SOL     OW 2422   0.221   1.314   5.568
  619SOL    HW1 2423   0.156   1.241   5.547
  619SOL    HW2 2424   0.225   1.328   5.666
  620SOL     OW 2425   0.079   1.240   4.377
  620SOL    HW1 2426   0.078   1.193   4.465
  620SOL    HW2 2427   0.161   1.212   4.326
  621SOL     OW 2428   0.672   1.391   5.348
  621SOL    HW1 2429   0.594   1.341   5.386
  621SOL    HW2 2430   0.669   1.486   5.379
  622SOL     OW 2431   1.824   0.192   4.951
  622SOL    HW1 2432   1.820   0.102   4.995
  622SOL    HW2 2433   1.827   0.181   4.852
  623SOL     OW 2434   0.428   0.424   4.244
  623SOL    HW1 2435   0.458   0.352   4.182
  623SOL    HW2 2436   0.389   0.384   4.327
  624SOL     OW 2437   1.705   1.487   4.828
  624SOL    HW1 2438   1.612   1.462   4.801
  624SOL    HW2 2439   1.731   1.437   4.910
  625SOL     OW 2440   0.317   0.547   5.004
  625SOL    HW1 2441   0.355   0.488   5.076
  625SOL    HW2 2442   0.357   0.521   4.916
  626SOL     OW 2443   0.812   1.586   4.411
  626SOL    HW1 2444   0.844   1.596   4.317
  626SOL    HW2 2445   0.733   1.524   4.413
  627SOL     OW 2446   1.424   0.214   4.836
  627SOL    HW1 2447   1.476   0.149   4.891
  627SOL    HW2 2448   1.375   0.277   4.897
  628SOL     OW 2449   1.001   0.034   4.878
  628SOL    HW1 2450   0.938  -0.038   4.847
  628SOL    HW2 2451   1.094  -0.002   4.878
  629SOL     OW 2452   0.770   1.330   4.025
  629SOL    HW1 2453   0.724   1.243   4.042
  629SOL    HW2 2454   0.861   1.327   4.066
  630SOL     OW 2455   0.618   1.567   5.008
  630SOL    HW1 2456   0.613   1.649   5.065
  630SOL    HW2 2457   0.707   1.564   4.963
  631SOL     OW 2458   1.352   0.052   3.892
  631SOL    HW1 2459   1.387   0.011   3.808
  631SOL    HW2 2460   1.262   0.014   3.912
  632SOL     OW 2461   1.300   0.453   4.415
  632SOL    HW1 2462   1.241   0.533   4.419
  632SOL    HW2 2463   1.315   0.418   4.508
  633SOL     OW 2464   1.593   0.221   4.606
  633SOL    HW1 2465   1.509   0.220   4.660
  633SOL    HW2 2466   1.595   0.304   4.550
  634SOL     OW 2467   0.039   1.077   4.024
  634SOL    HW1 2468   0.138   1.066   4.015
  634SOL    HW2 2469  -0.001   0.991   4.056
  635SOL     OW 2470   0.875   1.646   4.061
  635SOL    HW1 2471   0.798   1.611   4.007
  635SOL    HW2 2472   0.843   1.717   4.123
  636SOL     OW 2473   0.230   0.628   5.699
  636SOL    HW1 2474   0.137   0.626   5.736
  636SOL    HW2 2475   0.231   0.589   5.607
  637SOL     OW 2476   0.225   0.275   6.582
  637SOL    HW1 2477   0.260   0.258   6.674
  637SOL    HW2 2478   0.137   0.230   6.570
  638SOL     OW 2479   0.019   0.368   6.233
  638SOL    HW1 2480  -0.063   0.411   6.272
  638SOL    HW2 2481  -0.009   0.295   6.170
  639SOL     OW 2482   0.569   1.275   6.751
  639SOL    HW1 2483   0.476   1.268   6.714
  639SOL    HW2 2484   0.580   1.364   6.795
  640SOL     OW 2485   1.135   0.703   6.303
  640SOL    HW1 2486   1.192   0.781   6.278
  640SOL    HW2 2487   1.075   0.729   6.379
  641SOL     OW 2488   1.755   0.607   5.817
  641SOL    HW1 2489   1.743   0.594   5.718
  641SOL    HW2 2490   1.725   0.526   5.866
  642SOL     OW 2491   0.768   1.144   6.609
  642SOL    HW1 2492   0.690   1.161   6.669
  642SOL    HW2 2493   0.802   1.231   6.573
  643SOL     OW 2494   0.850   0.798   7.409
  643SOL    HW1 2495   0.846   0.874   7.474
  643SOL    HW2 2496   0.872   0.834   7.318
  644SOL     OW 2497   0.685   1.012   6.251
  644SOL    HW1 2498   0.754   0.996   6.321
  644SOL    HW2 2499   0.612   1.069   6.289
  645SOL     OW 2500   0.686   1.161   7.389
  645SOL    HW1 2501   0.746   1.240   7.403
  645SOL    HW2 2502   0.600   1.192   7.348
  646SOL     OW 2503   0.335   1.435   6.647
  646SOL    HW1 2504   0.257   1.404   6.594
  646SOL    HW2 2505   0.393   1.493   6.590
  647SOL     OW 2506   1.460   1.505   6.925
  647SOL    HW1 2507   1.484   1.599   6.951
  647SOL    HW2 2508   1.444   1.451   7.007
  648SOL     OW 2509   0.438   0.392   7.085
  648SOL    HW1 2510   0.520   0.336   7.094
  648SOL    HW2 2511   0.357   0.334   7.089
  649SOL     OW 2512   1.603   0.447   6.323
  649SOL    HW1 2513   1.529   0.493   6.273
  649SOL    HW2 2514   1.654   0.515   6.376
  650SOL     OW 2515   0.231   1.713   6.069
  650SOL    HW1 2516   0.265   1.790   6.123
  650SOL    HW2 2517   0.275   1.713   5.979
  651SOL     OW 2518   1.127   1.341   7.276
  651SOL    HW1 2519   1.174   1.341   7.364
  651SOL    HW2 2520   1.079   1.254   7.265
  652SOL     OW 2521   0.230   1.434   6.124
  652SOL    HW1 2522   0.204   1.530   6.124
  652SOL    HW2 2523   0.159   1.380   6.169
  653SOL     OW 2524   0.240   1.091   6.472
  653SOL    HW1 2525   0.254   1.007   6.524
  653SOL    HW2 2526   0.185   1.155   6.527
  654SOL     OW 2527   0.620   1.786   7.025
  654SOL    HW1 2528   0.528   1.769   7.060
  654SOL    HW2 2529   0.648   1.878   7.051
  655SOL     OW 2530   0.606   0.964   5.709
  655SOL    HW1 2531   0.613   1.048   5.655
  655SOL    HW2 2532   0.652   0.977   5.797
  656SOL     OW 2533   1.594   0.114   7.066
  656SOL    HW1 2534   1.576   0.181   6.994
  656SOL    HW2 2535   1.591   0.160   7.155
  657SOL     OW 2536   0.122   0.643   6.149
  657SOL    HW1 2537   0.077   0.555   6.166
  657SOL    HW2 2538   0.121   0.697   6.233
  658SOL     OW 2539   0.027   1.596   5.703
  658SOL    HW1 2540   0.008   1.500   5.724
  658SOL    HW2 2541  -0.006   1.654   5.778
  659SOL     OW 2542   1.689   0.922   6.198
  659SOL    HW1 2543   1.784   0.893   6.206
  659SOL    HW2 2544   1.681   0.987   6.123
  660SOL     OW 2545   1.641   1.108   6.018
  660SOL    HW1 2546   1.727   1.110   5.966
  660SOL    HW2 2547   1.655   1.155   6.106
  661SOL     OW 2548   0.113   0.737   7.183
  661SOL    HW1 2549   0.201   0.724   7.228
  661SOL    HW2 2550   0.100   0.834   7.161
  662SOL     OW 2551   0.613   1.365   6.312
  662SOL    HW1 2552   0.564   1.278   6.321
  662SOL    HW2 2553   0.590   1.408   6.225
  663SOL     OW 2554   1.293   1.228   7.009
  663SOL    HW1 2555   1.330   1.155   6.951
  663SOL    HW2 2556   1.345   1.233   7.094
  664SOL     OW 2557   0.809   0.004   6.088
  664SOL    HW1 2558   0.849   0.095   6.079
  664SOL    HW2 2559   0.709   0.012   6.094
  665SOL     OW 2560   0.197   0.976   6.850
  665SOL    HW1 2561   0.286   0.931   6.836
  665SOL    HW2 2562   0.124   0.911   6.831
  666SOL     OW 2563   1.525   0.999   5.776
  666SOL    HW1 2564   1.462   0.923   5.789
  666SOL    HW2 2565   1.573   1.017   5.862
  667SOL     OW 2566   1.187   1.792   7.202
  667SOL    HW1 2567   1.211   1.852   7.126
  667SOL    HW2 2568   1.194   1.697   7.172
  668SOL     OW 2569   0.317   0.251   7.387
  668SOL    HW1 2570   0.388   0.322   7.393
  668SOL    HW2 2571   0.229   0.290   7.415
  669SOL     OW 2572   1.466   1.417   6.539
  669SOL    HW1 2573   1.407   1.423   6.619
  669SOL    HW2 2574   1.451   1.329   6.493
  670SOL     OW 2575   0.598   0.729   5.856
  670SOL    HW1 2576   0.622   0.798   5.788
  670SOL    HW2 2577   0.520   0.762   5.910
  671SOL     OW 2578   1.281   0.345   6.530
  671SOL    HW1 2579   1.195   0.295   6.517
  671SOL    HW2 2580   1.343   0.291   6.586
  672SOL     OW 2581   1.576   1.662   5.893
  672SOL    HW1 2582   1.665   1.708   5.896
  672SOL    HW2 2583   1.555   1.638   5.798
  673SOL     OW 2584   0.807   0.605   7.051
  673SOL    HW1 2585   0.760   0.602   7.140
  673SOL    HW2 2586   0.756   0.550   6.985
  674SOL     OW 2587   1.394   0.469   7.260
  674SOL    HW1 2588   1.374   0.512   7.348
  674SOL    HW2 2589   1.472   0.407   7.269
  675SOL     OW 2590   0.973   0.890   7.158
  675SOL    HW1 2591   1.019   0.806   7.129
  675SOL    HW2 2592   0.917   0.924   7.083
  676SOL     OW 2593   0.991   0.410   6.828
  676SOL    HW1 2594   0.914   0.444   6.882
  676SOL    HW2 2595   0.957   0.359   6.749
  677SOL     OW 2596   1.041   0.701   6.015
  677SOL    HW1 2597   1.067   0.697   6.111
  677SOL    HW2 2598   0.956   0.650   6.001
  678SOL     OW 2599   0.076   0.811   6.375
  678SOL    HW1 2600   0.175   0.799   6.384
  678SOL    HW2 2601   0.052   0.906   6.396
  679SOL     OW 2602   0.130   1.821   7.157
  679SOL    HW1 2603   0.120   1.806   7.256
  679SOL    HW2 2604   0.044   1.857   7.121
  680SOL     OW 2605   0.865   0.348   5.781
  680SOL    HW1 2606   0.924   0.411   5.732
  680SOL    HW2 2607   0.884   0.254   5.752
  681SOL     OW 2608   1.719   0.585   7.417
  681SOL    HW1 2609   1.693   0.674   7.381
  681SOL    HW2 2610   1.717   0.517   7.344
  682SOL     OW 2611   1.362   1.144   6.131
  682SOL    HW1 2612   1.445   1.115   6.083
  682SOL    HW2 2613   1.313   1.211   6.075
  683SOL     OW 2614   0.550   0.196   6.471
  683SOL    HW1 2615   0.545   0.191   6.571
  683SOL    HW2 2616   0.552   0.292   6.442
  684SOL     OW 2617   1.008   1.456   6.063
  684SOL    HW1 2618   0.962   1.528   6.011
  684SOL    HW2 2619   1.004   1.476   6.161
  685SOL     OW 2620   0.351   1.801   6.439
  685SOL    HW1 2621   0.401   1.715   6.445
  685SOL    HW2 2622   0.416   1.878   6.436
  686SOL     OW 2623   1.795   1.066   6.459
  686SOL    HW1 2624   1.733   1.051   6.383
  686SOL    HW2 2625   1.743   1.077   6.544
  687SOL     OW 2626   1.227   1.550   7.092
  687SOL    HW1 2627   1.233   1.473   7.156
  687SOL    HW2 2628   1.175   1.524   7.012
  688SOL     OW 2629   0.321   0.943   5.828
  688SOL    HW1 2630   0.403   0.982   5.786
  688SOL    HW2 2631   0.294   0.861   5.779
  689SOL     OW 2632   1.458   0.735   6.314
  689SOL    HW1 2633   1.453   0.670   6.389
  689SOL    HW2 2634   1.538   0.794   6.327
  690SOL     OW 2635   0.461   1.266   7.313
  690SOL    HW1 2636   0.411   1.267   7.227
  690SOL    HW2 2637   0.398   1.248   7.389
  691SOL     OW 2638   1.111   1.776   5.823
  691SOL    HW1 2639   1.051   1.714   5.873
  691SOL    HW2 2640   1.142   1.732   5.738
  692SOL     OW 2641   0.202   0.285   7.084
  692SOL    HW1 2642   0.122   0.345   7.071
  692SOL    HW2 2643   0.192   0.236   7.170
  693SOL     OW 2644   1.632   1.377   5.667
  693SOL    HW1 2645   1.600   1.471   5.657
  693SOL    HW2 2646   1.556   1.314   5.655
  694SOL     OW 2647   0.464   1.743   5.909
  694SOL    HW1 2648   0.497   1.782   5.995
  694SOL    HW2 2649   0.540   1.736   5.844
  695SOL     OW 2650   1.400   0.107   6.012
  695SOL    HW1 2651   1.376   0.070   5.922
  695SOL    HW2 2652   1.499   0.123   6.016
  696SOL     OW 2653   0.249   1.785   6.827
  696SOL    HW1 2654   0.306   1.720   6.877
  696SOL    HW2 2655   0.233   1.752   6.734
  697SOL     OW 2656   0.940   1.698   6.490
  697SOL    HW1 2657   1.020   1.641   6.511
  697SOL    HW2 2658   0.891   1.658   6.413
  698SOL     OW 2659   0.382   0.700   6.066
  698SOL    HW1 2660   0.427   0.610   6.063
  698SOL    HW2 2661   0.288   0.689   6.099
  699SOL     OW 2662   1.547   0.222   7.315
  699SOL    HW1 2663   1.542   0.259   7.407
  699SOL    HW2 2664   1.475   0.153   7.303
  700SOL     OW 2665   0.614   0.122   5.703
  700SOL    HW1 2666   0.712   0.100   5.710
  700SOL    HW2 2667   0.583   0.105   5.610
  701SOL     OW 2668   0.781   0.264   7.335
  701SOL    HW1 2669   0.848   0.203   7.378
  701SOL    HW2 2670   0.708   0.283   7.400
  702SOL     OW 2671   0.888   1.514   6.781
  702SOL    HW1 2672   0.865   1.489   6.687
  702SOL    HW2 2673   0.949   1.445   6.820
  703SOL     OW 2674   1.351   0.590   7.019
  703SOL    HW1 2675   1.379   0.547   7.104
  703SOL    HW2 2676   1.376   0.686   7.020
  704SOL     OW 2677   0.803   1.402   6.510
  704SOL    HW1 2678   0.893   1.416   6.468
  704SOL    HW2 2679   0.732   1.404   6.439
  705SOL     OW 2680   0.922   0.503   6.485
  705SOL    HW1 2681   0.897   0.494   6.389
  705SOL    HW2 2682   0.970   0.421   6.516
  706SOL     OW 2683   0.539   0.064   6.098
  706SOL    HW1 2684   0.458   0.065   6.156
  706SOL    HW2 2685   0.542   0.147   6.043
  707SOL     OW 2686   1.434   1.188   5.627
  707SOL    HW1 2687   1.466   1.112   5.684
  707SOL    HW2 2688   1.342   1.215   5.657
  708SOL     OW 2689   0.297   0.035   5.757
  708SOL    HW1 2690   0.346   0.119   5.736
  708SOL    HW2 2691   0.359  -0.030   5.802
  709SOL     OW 2692   0.935   0.236   6.066
  709SOL    HW1 2693   0.887   0.277   5.988
  709SOL    HW2 2694   1.034   0.234   6.047
  710SOL     OW 2695   1.076   0.683   7.050
  710SOL    HW1 2696   0.996   0.622   7.053
  710SOL    HW2 2697   1.157   0.630   7.026
  711SOL     OW 2698   1.227   1.570   6.379
  711SOL    HW1 2699   1.248   1.644   6.314
  711SOL    HW2 2700   1.295   1.570   6.452
  712SOL     OW 2701   0.459   1.152   6.327
  712SOL    HW1 2702   0.388   1.125   6.392
  712SOL    HW2 2703   0.433   1.124   6.234
  713SOL     OW 2704   1.271   1.797   6.177
  713SOL    HW1 2705   1.315   1.861   6.113
  713SOL    HW2 2706   1.221   1.849   6.247
  714SOL     OW 2707   1.032   0.549   5.602
  714SOL    HW1 2708   0.991   0.631   5.563
  714SOL    HW2 2709   1.096   0.575   5.675
  715SOL     OW 2710   0.078   0.556   6.972
  715SOL    HW1 2711   0.170   0.555   6.931
  715SOL    HW2 2712   0.072   0.630   7.039
  716SOL     OW 2713   0.561   0.222   6.733
  716SOL    HW1 2714   0.599   0.138   6.770
  716SOL    HW2 2715   0.473   0.241   6.777
  717SOL     OW 2716   0.866   0.454   6.228
  717SOL    HW1 2717   0.834   0.526   6.166
  717SOL    HW2 2718   0.890   0.373   6.175
  718SOL     OW 2719   1.017   0.039   6.339
  718SOL    HW1 2720   0.945   0.044   6.270
  718SOL    HW2 2721   0.993  -0.030   6.408
  719SOL     OW 2722   1.429   1.173   6.453
  719SOL    HW1 2723   1.374   1.089   6.446
  719SOL    HW2 2724   1.455   1.202   6.361
  720SOL     OW 2725   1.466   0.590   6.578
  720SOL    HW1 2726   1.436   0.495   6.585
  720SOL    HW2 2727   1.539   0.606   6.644
  721SOL     OW 2728   1.857   0.833   5.963
  721SOL    HW1 2729   1.899   0.769   6.027
  721SOL    HW2 2730   1.819   0.782   5.885
  722SOL     OW 2731   0.488   1.385   5.760
  722SOL    HW1 2732   0.401   1.370   5.807
  722SOL    HW2 2733   0.471   1.411   5.665
  723SOL     OW 2734   1.390   0.575   5.664
  723SOL    HW1 2735   1.336   0.554   5.745
  723SOL    HW2 2736   1.481   0.534   5.673
  724SOL     OW 2737   0.527   0.256   5.914
  724SOL    HW1 2738   0.554   0.197   5.839
  724SOL    HW2 2739   0.527   0.351   5.883
  725SOL     OW 2740   1.754   1.223   7.174
  725SOL    HW1 2741   1.845   1.184   7.161
  725SOL    HW2 2742   1.762   1.319   7.198
  726SOL     OW 2743   1.064   1.347   6.926
  726SOL    HW1 2744   0.984   1.324   6.981
  726SOL    HW2 2745   1.147   1.321   6.975
  727SOL     OW 2746   1.111   1.195   6.686
  727SOL    HW1 2747   1.071   1.239   6.767
  727SOL    HW2 2748   1.070   1.232   6.603
  728SOL     OW 2749   1.638   1.099   6.665
  728SOL    HW1 2750   1.643   1.180   6.724
  728SOL    HW2 2751   1.552   1.101   6.614
  729SOL     OW 2752   0.915   0.089   6.988
  729SOL    HW1 2753   0.940   0.069   6.893
  729SOL    HW2 2754   0.987   0.145   7.030
  730SOL     OW 2755   0.980   1.116   7.305
  730SOL    HW1 2756   0.881   1.122   7.315
  730SOL    HW2 2757   1.003   1.036   7.249
  731SOL     OW 2758   0.705   1.050   5.954
  731SOL    HW1 2759   0.691   1.057   6.053
  731SOL    HW2 2760   0.789   0.999   5.936
  732SOL     OW 2761   0.410   0.813   6.837
  732SOL    HW1 2762   0.496   0.825   6.887
  732SOL    HW2 2763   0.368   0.726   6.864
  733SOL     OW 2764   1.274   0.386   6.848
  733SOL    HW1 2765   1.295   0.460   6.912
  733SOL    HW2 2766   1.185   0.403   6.805
  734SOL     OW 2767   0.064   1.564   6.917
  734SOL    HW1 2768   0.018   1.646   6.883
  734SOL    HW2 2769   0.162   1.583   6.926
  735SOL     OW 2770   0.367   1.100   6.087
  735SOL    HW1 2771   0.360   1.183   6.031
  735SOL    HW2 2772   0.371   1.020   6.027
  736SOL     OW 2773   0.566   0.537   6.451
  736SOL    HW1 2774   0.578   0.603   6.377
  736SOL    HW2 2775   0.612   0.571   6.534
  737SOL     OW 2776   1.252   1.348   5.974
  737SOL    HW1 2777   1.302   1.425   6.014
  737SOL    HW2 2778   1.157   1.350   6.006
  738SOL     OW 2779   1.272   1.445   6.728
  738SOL    HW1 2780   1.319   1.458   6.815
  738SOL    HW2 2781   1.206   1.371   6.737
  739SOL     OW 2782   1.582   0.639   6.058
  739SOL    HW1 2783   1.551   0.700   6.131
  739SOL    HW2 2784   1.632   0.691   5.989
  740SOL     OW 2785   0.354   1.510   6.915
  740SOL    HW1 2786   0.333   1.466   6.828
  740SOL    HW2 2787   0.451   1.536   6.918
  741SOL     OW 2788   0.402   0.751   7.184
  741SOL    HW1 2789   0.470   0.806   7.137
  741SOL    HW2 2790   0.442   0.663   7.211
  742SOL     OW 2791   1.587   0.779   7.256
  742SOL    HW1 2792   1.495   0.817   7.251
  742SOL    HW2 2793   1.647   0.826   7.191
  743SOL     OW 2794   1.013   0.105   7.356
  743SOL    HW1 2795   1.019   0.190   7.304
  743SOL    HW2 2796   1.045   0.029   7.299
  744SOL     OW 2797   0.504   0.050   7.326
  744SOL    HW1 2798   0.462  -0.007   7.256
  744SOL    HW2 2799   0.438   0.119   7.358
  745SOL     OW 2800   0.573   0.870   6.615
  745SOL    HW1 2801   0.617   0.959   6.606
  745SOL    HW2 2802   0.510   0.870   6.692
  746SOL     OW 2803   1.360   0.862   6.631
  746SOL    HW1 2804   1.285   0.862   6.565
  746SOL    HW2 2805   1.397   0.770   6.640
  747SOL     OW 2806   1.209   0.525   5.861
  747SOL    HW1 2807   1.222   0.441   5.915
  747SOL    HW2 2808   1.180   0.599   5.921
  748SOL     OW 2809   0.307   0.213   6.817
  748SOL    HW1 2810   0.284   0.250   6.907
  748SOL    HW2 2811   0.277   0.118   6.811
  749SOL     OW 2812   0.037   1.310   6.868
  749SOL    HW1 2813   0.090   1.261   6.936
  749SOL    HW2 2814   0.059   1.408   6.873
  750SOL     OW 2815   0.732   0.634   6.650
  750SOL    HW1 2816   0.791   0.608   6.574
  750SOL    HW2 2817   0.704   0.730   6.639
  751SOL     OW 2818   1.728   0.935   7.440
  751SOL    HW1 2819   1.682   0.928   7.351
  751SOL    HW2 2820   1.666   0.979   7.506
  752SOL     OW 2821   0.307   0.063   6.204
  752SOL    HW1 2822   0.296   0.157   6.237
  752SOL    HW2 2823   0.302   0.000   6.281
  753SOL     OW 2824   1.622   0.367   5.960
  753SOL    HW1 2825   1.624   0.291   6.024
  753SOL    HW2 2826   1.574   0.444   6.000
  754SOL     OW 2827   1.023   0.766   6.552
  754SOL    HW1 2828   1.038   0.787   6.648
  754SOL    HW2 2829   0.993   0.671   6.543
  755SOL     OW 2830   0.980   1.573   7.286
  755SOL    HW1 2831   0.960   1.617   7.198
  755SOL    HW2 2832   1.019   1.482   7.270
  756SOL     OW 2833   0.350   0.898   7.390
  756SOL    HW1 2834   0.426   0.942   7.438
  756SOL    HW2 2835   0.385   0.851   7.308
  757SOL     OW 2836   1.540   0.274   5.711
  757SOL    HW1 2837   1.479   0.199   5.734
  757SOL    HW2 2838   1.562   0.326   5.794
  758SOL     OW 2839   1.303   0.838   5.628
  758SOL    HW1 2840   1.337   0.745   5.643
  758SOL    HW2 2841   1.321   0.865   5.533
  759SOL     OW 2842   1.068   1.333   6.435
  759SOL    HW1 2843   1.075   1.249   6.380
  759SOL    HW2 2844   1.130   1.402   6.399
  760SOL     OW 2845   0.319   0.810   6.535
  760SOL    HW1 2846   0.412   0.846   6.540
  760SOL    HW2 2847   0.313   0.725   6.587
  761SOL     OW 2848   0.339   0.509   6.592
  761SOL    HW1 2849   0.287   0.426   6.575
  761SOL    HW2 2850   0.416   0.514   6.528
  762SOL     OW 2851   1.138   0.380   7.264
  762SOL    HW1 2852   1.093   0.443   7.328
  762SOL    HW2 2853   1.231   0.411   7.247
  763SOL     OW 2854   1.160   0.207   7.063
  763SOL    HW1 2855   1.160   0.271   7.140
  763SOL    HW2 2856   1.188   0.255   6.980
  764SOL     OW 2857   0.008   1.326   5.786
  764SOL    HW1 2858  -0.085   1.347   5.755
  764SOL    HW2 2859   0.018   1.227   5.799
  765SOL     OW 2860   0.088   1.801   6.513
  765SOL    HW1 2861   0.046   1.715   6.486
  765SOL    HW2 2862   0.182   1.804   6.479
  766SOL     OW 2863   0.504   1.568   6.496
  766SOL    HW1 2864   0.570   1.642   6.505
  766SOL    HW2 2865   0.548   1.489   6.454
  767SOL     OW 2866   1.002   0.796   6.824
  767SOL    HW1 2867   1.043   0.764   6.910
  767SOL    HW2 2868   0.906   0.769   6.821
  768SOL     OW 2869   0.040   0.544   6.700
  768SOL    HW1 2870   0.125   0.511   6.659
  768SOL    HW2 2871   0.053   0.559   6.798
  769SOL     OW 2872   0.189   0.520   7.308
  769SOL    HW1 2873   0.248   0.480   7.238
  769SOL    HW2 2874   0.131   0.591   7.267
  770SOL     OW 2875   1.369   0.950   7.246
  770SOL    HW1 2876   1.408   1.039   7.266
  770SOL    HW2 2877   1.379   0.930   7.149
  771SOL     OW 2878   0.815   0.572   5.911
  771SOL    HW1 2879   0.822   0.483   5.865
  771SOL    HW2 2880   0.721   0.606   5.903
  772SOL     OW 2881   1.657   0.604   6.792
  772SOL    HW1 2882   1.619   0.535   6.854
  772SOL    HW2 2883   1.739   0.568   6.748
  773SOL     OW 2884   0.252   1.564   7.330
  773SOL    HW1 2885   0.222   1.621   7.406
  773SOL    HW2 2886   0.245   1.467   7.356
  774SOL     OW 2887   0.671   0.464   6.855
  774SOL    HW1 2888   0.637   0.375   6.825
  774SOL    HW2 2889   0.697   0.518   6.775
  775SOL     OW 2890   0.930   1.678   7.051
  775SOL    HW1 2891   0.906   1.660   6.956
  775SOL    HW2 2892   0.960   1.772   7.061
  776SOL     OW 2893   0.473   0.500   5.777
  776SOL    HW1 2894   0.534   0.580   5.781
  776SOL    HW2 2895   0.378   0.531   5.784
  777SOL     OW 2896   0.159   1.137   7.052
  777SOL    HW1 2897   0.181   1.076   7.128
  777SOL    HW2 2898   0.169   1.088   6.966
  778SOL     OW 2899   1.347   1.059   6.820
  778SOL    HW1 2900   1.371   0.996   6.746
  778SOL    HW2 2901   1.257   1.099   6.802
  779SOL     OW 2902   1.302   0.855   5.895
  779SOL    HW1 2903   1.216   0.824   5.937
  779SOL    HW2 2904   1.298   0.841   5.796
  780SOL     OW 2905   0.083   1.258   6.608
  780SOL    HW1 2906   0.078   1.257   6.708
  780SOL    HW2 2907   0.000   1.217   6.570
  781SOL     OW 2908   0.688   1.662   7.302
  781SOL    HW1 2909   0.632   1.743   7.311
  781SOL    HW2 2910   0.740   1.666   7.216
  782SOL     OW 2911   1.726   0.135   6.109
  782SOL    HW1 2912   1.799   0.118   6.042
  782SOL    HW2 2913   1.695   0.048   6.147
  783SOL     OW 2914   1.388   1.573   6.063
  783SOL    HW1 2915   1.455   1.585   5.989
  783SOL    HW2 2916   1.348   1.662   6.086
  784SOL     OW 2917   0.130   1.794   7.437
  784SOL    HW1 2918   0.089   1.720   7.490
  784SOL    HW2 2919   0.194   1.845   7.495
  785SOL     OW 2920   1.280   0.927   6.258
  785SOL    HW1 2921   1.340   0.846   6.260
  785SOL    HW2 2922   1.320   0.996   6.198
  786SOL     OW 2923   0.830   1.273   7.008
  786SOL    HW1 2924   0.825   1.306   7.103
  786SOL    HW2 2925   0.744   1.292   6.962
  787SOL     OW 2926   0.672   1.616   5.740
  787SOL    HW1 2927   0.681   1.626   5.641
  787SOL    HW2 2928   0.632   1.527   5.761
  788SOL     OW 2929   1.841   0.175   6.549
  788SOL    HW1 2930   1.880   0.090   6.513
  788SOL    HW2 2931   1.743   0.177   6.530
  789SOL     OW 2932   0.263   0.326   6.306
  789SOL    HW1 2933   0.184   0.377   6.272
  789SOL    HW2 2934   0.254   0.311   6.404
  790SOL     OW 2935   1.194   1.612   5.617
  790SOL    HW1 2936   1.200   1.519   5.654
  790SOL    HW2 2937   1.135   1.612   5.537
  791SOL     OW 2938   0.822   1.002   6.958
  791SOL    HW1 2939   0.862   1.001   6.866
  791SOL    HW2 2940   0.832   1.094   6.998
  792SOL     OW 2941   0.916   0.910   5.877
  792SOL    HW1 2942   0.979   0.948   5.809
  792SOL    HW2 2943   0.956   0.827   5.916
  793SOL     OW 2944   1.504   1.607   5.630
  793SOL    HW1 2945   1.412   1.644   5.637
  793SOL    HW2 2946   1.542   1.627   5.540
  794SOL     OW 2947   0.372   1.288   7.076
  794SOL    HW1 2948   0.359   1.381   7.042
  794SOL    HW2 2949   0.288   1.236   7.063
  795SOL     OW 2950   1.614   1.292   6.875
  795SOL    HW1 2951   1.674   1.295   6.955
  795SOL    HW2 2952   1.539   1.356   6.888
  796SOL     OW 2953   1.039   1.098   6.282
  796SOL    HW1 2954   0.969   1.051   6.336
  796SOL    HW2 2955   1.098   1.030   6.239
  797SOL     OW 2956   1.014   0.236   6.557
  797SOL    HW1 2957   1.006   0.200   6.464
  797SOL    HW2 2958   1.012   0.160   6.622
  798SOL     OW 2959   0.590   1.487   6.077
  798SOL    HW1 2960   0.632   1.429   6.007
  798SOL    HW2 2961   0.546   1.566   6.033
  799SOL     OW 2962   1.709   0.385   6.967
  799SOL    HW1 2963   1.782   0.454   6.971
  799SOL    HW2 2964   1.737   0.310   6.908
  800SOL     OW 2965   0.255   1.348   5.876
  800SOL    HW1 2966   0.159   1.349   5.849
  800SOL    HW2 2967   0.267   1.401   5.960
  801SOL     OW 2968   0.105   1.013   7.312
  801SOL    HW1 2969   0.028   0.980   7.366
  801SOL    HW2 2970   0.190   0.983   7.354
  802SOL     OW 2971   0.672   0.203   7.075
  802SOL    HW1 2972   0.762   0.187   7.035
  802SOL    HW2 2973   0.680   0.208   7.174
  803SOL     OW 2974   0.075   0.345   5.619
  803SOL    HW1 2975  -0.017   0.317   5.590
  803SOL    HW2 2976   0.106   0.422   5.563
  804SOL     OW 2977   1.440   0.856   6.984
  804SOL    HW1 2978   1.383   0.908   6.921
  804SOL    HW2 2979   1.536   0.868   6.960
  805SOL     OW 2980   0.072   0.166   5.904
  805SOL    HW1 2981   0.055   0.249   5.850
  805SOL    HW2 2982   0.162   0.129   5.882
  806SOL     OW 2983   1.183   1.335   5.705
  806SOL    HW1 2984   1.084   1.324   5.707
  806SOL    HW2 2985   1.217   1.350   5.798
  807SOL     OW 2986   0.613   0.842   7.017
  807SOL    HW1 2987   0.669   0.923   7.000
  807SOL    HW2 2988   0.672   0.762   7.020
  808SOL     OW 2989   0.716   0.565   7.294
  808SOL    HW1 2990   0.735   0.630   7.368
  808SOL    HW2 2991   0.776   0.485   7.303
  809SOL     OW 2992   1.450   1.220   7.219
  809SOL    HW1 2993   1.441   1.210   7.318
  809SOL    HW2 2994   1.546   1.213   7.193
  810SOL     OW 2995   0.390   1.741   7.146
  810SOL    HW1 2996   0.299   1.782   7.144
  810SOL    HW2 2997   0.383   1.647   7.178
  811SOL     OW 2998   1.674   0.883   6.840
  811SOL    HW1 2999   1.647   0.794   6.803
  811SOL    HW2 3000   1.675   0.951   6.767
  812SOL     OW 3001   1.225   0.325   6.035
  812SOL    HW1 3002   1.290   0.251   6.024
  812SOL    HW2 3003   1.245   0.375   6.119
  813SOL     OW 3004   0.594   0.745   6.238
  813SOL    HW1 3005   0.644   0.830   6.219
  813SOL    HW2 3006   0.506   0.747   6.190
  814SOL     OW 3007   1.777   0.342   7.228
  814SOL    HW1 3008   1.760   0.373   7.134
  814SOL    HW2 3009   1.693   0.305   7.266
  815SOL     OW 3010   1.730   0.934   7.103
  815SOL    HW1 3011   1.768   1.025   7.118
  815SOL    HW2 3012   1.722   0.917   7.004
  816SOL     OW 3013   0.859   1.374   5.602
  816SOL    HW1 3014   0.813   1.389   5.690
  816SOL    HW2 3015   0.903   1.459   5.572
  817SOL     OW 3016   0.661   1.790   6.539
  817SOL    HW1 3017   0.615   1.878   6.526
  817SOL    HW2 3018   0.760   1.802   6.532
  818SOL     OW 3019   0.859   0.956   6.447
  818SOL    HW1 3020   0.913   0.887   6.495
  818SOL    HW2 3021   0.827   1.025   6.513
  819SOL     OW 3022   1.083   0.984   5.673
  819SOL    HW1 3023   1.060   1.037   5.591
  819SOL    HW2 3024   1.164   0.928   5.654
  820SOL     OW 3025   0.221   1.314   7.430
  820SOL    HW1 3026   0.156   1.241   7.409
  820SOL    HW2 3027   0.225   1.328   7.528
  821SOL     OW 3028   0.079   1.240   6.239
  821SOL    HW1 3029   0.078   1.193   6.327
  821SOL    HW2 3030   0.161   1.212   6.188
  822SOL     OW 3031   0.672   1.391   7.210
  822SOL    HW1 3032   0.594   1.341   7.248
  822SOL    HW2 3033   0.669   1.486   7.241
  823SOL     OW 3034   1.824   0.192   6.813
  823SOL    HW1 3035   1.820   0.102   6.857
  823SOL    HW2 3036   1.827   0.181   6.714
  824SOL     OW 3037   0.428   0.424   6.106
  824SOL    HW1 3038   0.458   0.352   6.044
  824SOL    HW2 3039   0.389   0.384   6.189
  825SOL     OW 3040   1.705   1.487   6.690
  825SOL    HW1 3041   1.612   1.462   6.663
  825SOL    HW2 3042   1.731   1.437   6.772
  826SOL     OW 3043   0.317   0.547   6.866
  826SOL    HW1 3044   0.355   0.488   6.938
  826SOL    HW2 3045   0.357   0.521   6.778
  827SOL     OW 3046   0.812   1.586   6.273
  827SOL    HW1 3047   0.844   1.596   6.179
  827SOL    HW2 3048   0.733   1.524   6.275
  828SOL     OW 3049   1.424   0.214   6.698
  828SOL    HW1 3050   1.476   0.149   6.753
  828SOL    HW2 3051   1.375   0.277   6.759
  829SOL     OW 3052   1.001   0.034   6.740
  829SOL    HW1 3053   0.938  -0.038   6.709
  829SOL    HW2 3054   1.094  -0.002   6.740
  830SOL     OW 3055   0.770   1.330   5.887
  830SOL    HW1 3056   0.724   1.243   5.904
  830SOL    HW2 3057   0.861   1.327   5.928
  831SOL     OW 3058   0.618   1.567   6.870
  831SOL    HW1 3059   0.613   1.649   6.927
  831SOL    HW2 3060   0.707   1.564   6.825
  832SOL     OW 3061   1.352   0.052   5.754
  832SOL    HW1 3062   1.387   0.011   5.670
  832SOL    HW2 3063   1.262   0.014   5.774
  833SOL     OW 3064   1.300   0.453   6.277
  833SOL    HW1 3065   1.241   0.533   6.281
  833SOL    HW2 3066   1.315   0.418   6.370
  834SOL     OW 3067   1.593   0.221   6.468
  834SOL    HW1 3068   1.509   0.220   6.522
  834SOL    HW2 3069   1.595   0.304   6.412
  835SOL     OW 3070   0.039   1.077   5.886
  835SOL    HW1 3071   0.138   1.066   5.877
  835SOL    HW2 3072  -0.001   0.991   5.918
  836SOL     OW 3073   0.875   1.646   5.923
  836SOL    HW1 3074   0.798   1.611   5.869
  836SOL    HW2 3075   0.843   1.717   5.985
  837SOL     OW 3076   0.230   0.628   7.561
  837SOL    HW1 3077   0.137   0.626   7.598
  837SOL    HW2 3078   0.231   0.589   7.469
  838SOL     OW 3079   0.225   0.275   8.444
  838SOL    HW1 3080   0.260   0.258   8.536
  838SOL    HW2 3081   0.137   0.230   8.432
  839SOL     OW 3082   0.019   0.368   8.095
  839SOL    HW1 3083  -0.063   0.411   8.134
  839SOL    HW2 3084  -0.009   0.295   8.032
  840SOL     OW 3085   0.569   1.275   8.613
  840SOL    HW1 3086   0.476   1.268   8.576
  840SOL    HW2 3087   0.580   1.364   8.657
  841SOL     OW 3088   1.555   1.511   8.151
  841SOL    HW1 3089   1.498   1.495   8.232
  841SOL    HW2 3090   1.496   1.521   8.071
  842SOL     OW 3091   1.135   0.703   8.165
  842SOL    HW1 3092   1.192   0.781   8.140
  842SOL    HW2 3093   1.075   0.729   8.241
  843SOL     OW 3094   1.755   0.607   7.679
  843SOL    HW1 3095   1.743   0.594   7.580
  843SOL    HW2 3096   1.725   0.526   7.728
  844SOL     OW 3097   0.768   1.144   8.471
  844SOL    HW1 3098   0.690   1.161   8.531
  844SOL    HW2 3099   0.802   1.231   8.435
  845SOL     OW 3100   0.850   0.798   9.271
  845SOL    HW1 3101   0.846   0.874   9.336
  845SOL    HW2 3102   0.872   0.834   9.180
  846SOL     OW 3103   0.685   1.012   8.113
  846SOL    HW1 3104   0.754   0.996   8.183
  846SOL    HW2 3105   0.612   1.069   8.151
  847SOL     OW 3106   0.686   1.161   9.251
  847SOL    HW1 3107   0.746   1.240   9.265
  847SOL    HW2 3108   0.600   1.192   9.210
  848SOL     OW 3109   0.335   1.435   8.509
  848SOL    HW1 3110   0.257   1.404   8.456
  848SOL    HW2 3111   0.393   1.493   8.452
  849SOL     OW 3112   1.460   1.505   8.787
  849SOL    HW1 3113   1.484   1.599   8.813
  849SOL    HW2 3114   1.444   1.451   8.869
  850SOL     OW 3115   0.438   0.392   8.947
  850SOL    HW1 3116   0.520   0.336   8.956
  850SOL    HW2 3117   0.357   0.334   8.951
  851SOL     OW 3118   1.603   0.447   8.185
  851SOL    HW1 3119   1.529   0.493   8.135
  851SOL    HW2 3120   1.654   0.515   8.238
  852SOL     OW 3121   0.231   1.713   7.931
  852SOL    HW1 3122   0.265   1.790   7.985
  852SOL    HW2 3123   0.275   1.713   7.841
  853SOL     OW 3124   1.127   1.341   9.138
  853SOL    HW1 3125   1.174   1.341   9.226
  853SOL    HW2 3126   1.079   1.254   9.127
  854SOL     OW 3127   0.230   1.434   7.986
  854SOL    HW1 3128   0.204   1.530   7.986
  854SOL    HW2 3129   0.159   1.380   8.031
  855SOL     OW 3130   0.240   1.091   8.334
  855SOL    HW1 3131   0.254   1.007   8.386
  855SOL    HW2 3132   0.185   1.155   8.389
  856SOL     OW 3133   0.620   1.786   8.887
  856SOL    HW1 3134   0.528   1.769   8.922
  856SOL    HW2 3135   0.648   1.878   8.913
  857SOL     OW 3136   0.606   0.964   7.571
  857SOL    HW1 3137   0.613   1.048   7.517
  857SOL    HW2 3138   0.652   0.977   7.659
  858SOL     OW 3139   1.594   0.114   8.928
  858SOL    HW1 3140   1.576   0.181   8.856
  858SOL    HW2 3141   1.591   0.160   9.017
  859SOL     OW 3142   0.122   0.643   8.011
  859SOL    HW1 3143   0.077   0.555   8.028
  859SOL    HW2 3144   0.121   0.697   8.095
  860SOL     OW 3145   0.027   1.596   7.565
  860SOL    HW1 3146   0.008   1.500   7.586
  860SOL    HW2 3147  -0.006   1.654   7.640
  861SOL     OW 3148   1.689   0.922   8.060
  861SOL    HW1 3149   1.784   0.893   8.068
  861SOL    HW2 3150   1.681   0.987   7.985
  862SOL     OW 3151   1.641   1.108   7.880
  862SOL    HW1 3152   1.727   1.110   7.828
  862SOL    HW2 3153   1.655   1.155   7.968
  863SOL     OW 3154   0.113   0.737   9.045
  863SOL    HW1 3155   0.201   0.724   9.090
  863SOL    HW2 3156   0.100   0.834   9.023
  864SOL     OW 3157   0.613   1.365   8.174
  864SOL    HW1 3158   0.564   1.278   8.183
  864SOL    HW2 3159   0.590   1.408   8.087
  865SOL     OW 3160   1.293   1.228   8.871
  865SOL    HW1 3161   1.330   1.155   8.813
  865SOL    HW2 3162   1.345   1.233   8.956
  866SOL     OW 3163   0.809   0.004   7.950
  866SOL    HW1 3164   0.849   0.095   7.941
  866SOL    HW2 3165   0.709   0.012   7.956
  867SOL     OW 3166   0.197   0.976   8.712
  867SOL    HW1 3167   0.286   0.931   8.698
  867SOL    HW2 3168   0.124   0.911   8.693
  868SOL     OW 3169   1.525   0.999   7.638
  868SOL    HW1 3170   1.462   0.923   7.651
  868SOL    HW2 3171   1.573   1.017   7.724
  869SOL     OW 3172   1.187   1.792   9.064
  869SOL    HW1 3173   1.211   1.852   8.988
  869SOL    HW2 3174   1.194   1.697   9.034
  870SOL     OW 3175   0.317   0.251   9.249
  870SOL    HW1 3176   0.388   0.322   9.255
  870SOL    HW2 3177   0.229   0.290   9.277
  871SOL     OW 3178   1.466   1.417   8.401
  871SOL    HW1 3179   1.407   1.423   8.481
  871SOL    HW2 3180   1.451   1.329   8.355
  872SOL     OW 3181   0.598   0.729   7.718
  872SOL    HW1 3182   0.622   0.798   7.650
  872SOL    HW2 3183   0.520   0.762   7.772
  873SOL     OW 3184   1.281   0.345   8.392
  873SOL    HW1 3185   1.195   0.295   8.379
  873SOL    HW2 3186   1.343   0.291   8.448
  874SOL     OW 3187   0.807   0.605   8.913
  874SOL    HW1 3188   0.760   0.602   9.002
  874SOL    HW2 3189   0.756   0.550   8.847
  875SOL     OW 3190   1.394   0.469   9.122
  875SOL    HW1 3191   1.374   0.512   9.210
  875SOL    HW2 3192   1.472   0.407   9.131
  876SOL     OW 3193   0.973   0.890   9.020
  876SOL    HW1 3194   1.019   0.806   8.991
  876SOL    HW2 3195   0.917   0.924   8.945
  877SOL     OW 3196   0.991   0.410   8.690
  877SOL    HW1 3197   0.914   0.444   8.744
  877SOL    HW2 3198   0.957   0.359   8.611
  878SOL     OW 3199   1.041   0.701   7.877
  878SOL    HW1 3200   1.067   0.697   7.973
  878SOL    HW2 3201   0.956   0.650   7.863
  879SOL     OW 3202   0.076   0.811   8.237
  879SOL    HW1 3203   0.175   0.799   8.246
  879SOL    HW2 3204   0.052   0.906   8.258
  880SOL     OW 3205   0.130   1.821   9.019
  880SOL    HW1 3206   0.120   1.806   9.118
  880SOL    HW2 3207   0.044   1.857   8.983
  881SOL     OW 3208   0.865   0.348   7.643
  881SOL    HW1 3209   0.924   0.411   7.594
  881SOL    HW2 3210   0.884   0.254   7.614
  882SOL     OW 3211   1.719   0.585   9.279
  882SOL    HW1 3212   1.693   0.674   9.243
  882SOL    HW2 3213   1.717   0.517   9.206
  883SOL     OW 3214   1.362   1.144   7.993
  883SOL    HW1 3215   1.445   1.115   7.945
  883SOL    HW2 3216   1.313   1.211   7.937
  884SOL     OW 3217   0.550   0.196   8.333
  884SOL    HW1 3218   0.545   0.191   8.433
  884SOL    HW2 3219   0.552   0.292   8.304
  885SOL     OW 3220   1.008   1.456   7.925
  885SOL    HW1 3221   0.962   1.528   7.873
  885SOL    HW2 3222   1.004   1.476   8.023
  886SOL     OW 3223   0.351   1.801   8.301
  886SOL    HW1 3224   0.401   1.715   8.307
  886SOL    HW2 3225   0.416   1.878   8.298
  887SOL     OW 3226   1.795   1.066   8.321
  887SOL    HW1 3227   1.733   1.051   8.245
  887SOL    HW2 3228   1.743   1.077   8.406
  888SOL     OW 3229   1.227   1.550   8.954
  888SOL    HW1 3230   1.233   1.473   9.018
  888SOL    HW2 3231   1.175   1.524   8.874
  889SOL     OW 3232   0.321   0.943   7.690
  889SOL    HW1 3233   0.403   0.982   7.648
  889SOL    HW2 3234   0.294   0.861   7.641
  890SOL     OW 3235   1.458   0.735   8.176
  890SOL    HW1 3236   1.453   0.670   8.251
  890SOL    HW2 3237   1.538   0.794   8.189
  891SOL     OW 3238   0.461   1.266   9.175
  891SOL    HW1 3239   0.411   1.267   9.089
  891SOL    HW2 3240   0.398   1.248   9.251
  892SOL     OW 3241   0.202   0.285   8.946
  892SOL    HW1 3242   0.122   0.345   8.933
  892SOL    HW2 3243   0.192   0.236   9.032
  893SOL     OW 3244   0.464   1.743   7.771
  893SOL    HW1 3245   0.497   1.782   7.857
  893SOL    HW2 3246   0.540   1.736   7.706
  894SOL     OW 3247   1.400   0.107   7.874
  894SOL    HW1 3248   1.376   0.070   7.784
  894SOL    HW2 3249   1.499   0.123   7.878
  895SOL     OW 3250   0.249   1.785   8.689
  895SOL    HW1 3251   0.306   1.720   8.739
  895SOL    HW2 3252   0.233   1.752   8.596
  896SOL     OW 3253   0.940   1.698   8.352
  896SOL    HW1 3254   1.020   1.641   8.373
  896SOL    HW2 3255   0.891   1.658   8.275
  897SOL     OW 3256   0.382   0.700   7.928
  897SOL    HW1 3257   0.427   0.610   7.925
  897SOL    HW2 3258   0.288   0.689   7.961
  898SOL     OW 3259   1.547   0.222   9.177
  898SOL    HW1 3260   1.542   0.259   9.269
  898SOL    HW2 3261   1.475   0.153   9.165
  899SOL     OW 3262   0.614   0.122   7.565
  899SOL    HW1 3263   0.712   0.100   7.572
  899SOL    HW2 3264   0.583   0.105   7.472
  900SOL     OW 3265   0.781   0.264   9.197
  900SOL    HW1 3266   0.848   0.203   9.240
  900SOL    HW2 3267   0.708   0.283   9.262
  901SOL     OW 3268   0.888   1.514   8.643
  901SOL    HW1 3269   0.865   1.489   8.549
  901SOL    HW2 3270   0.949   1.445   8.682
  902SOL     OW 3271   1.351   0.590   8.881
  902SOL    HW1 3272   1.379   0.547   8.966
  902SOL    HW2 3273   1.376   0.686   8.882
  903SOL     OW 3274   0.803   1.402   8.372
  903SOL    HW1 3275   0.893   1.416   8.330
  903SOL    HW2 3276   0.732   1.404   8.301
  904SOL     OW 3277   0.922   0.503   8.347
  904SOL    HW1 3278   0.897   0.494   8.251
  904SOL    HW2 3279   0.970   0.421   8.378
  905SOL     OW 3280   0.539   0.064   7.960
  905SOL    HW1 3281   0.458   0.065   8.018
  905SOL    HW2 3282   0.542   0.147   7.905
  906SOL     OW 3283   1.434   1.188   7.489
  906SOL    HW1 3284   1.466   1.112   7.546
  906SOL    HW2 3285   1.342   1.215   7.519
  907SOL     OW 3286   0.297   0.035   7.619
  907SOL    HW1 3287   0.346   0.119   7.598
  907SOL    HW2 3288   0.359  -0.030   7.664
  908SOL     OW 3289   0.935   0.236   7.928
  908SOL    HW1 3290   0.887   0.277   7.850
  908SOL    HW2 3291   1.034   0.234   7.909
  909SOL     OW 3292   1.076   0.683   8.912
  909SOL    HW1 3293   0.996   0.622   8.915
  909SOL    HW2 3294   1.157   0.630   8.888
  910SOL     OW 3295   1.227   1.570   8.241
  910SOL    HW1 3296   1.248   1.644   8.176
  910SOL    HW2 3297   1.295   1.570   8.314
  911SOL     OW 3298   0.459   1.152   8.189
  911SOL    HW1 3299   0.388   1.125   8.254
  911SOL    HW2 3300   0.433   1.124   8.096
  912SOL     OW 3301   1.271   1.797   8.039
  912SOL    HW1 3302   1.315   1.861   7.975
  912SOL    HW2 3303   1.221   1.849   8.109
  913SOL     OW 3304   1.032   0.549   7.464
  913SOL    HW1 3305   0.991   0.631   7.425
  913SOL    HW2 3306   1.096   0.575   7.537
  914SOL     OW 3307   0.078   0.556   8.834
  914SOL    HW1 3308   0.170   0.555   8.793
  914SOL    HW2 3309   0.072   0.630   8.901
  915SOL     OW 3310   0.561   0.222   8.595
  915SOL    HW1 3311   0.599   0.138   8.632
  915SOL    HW2 3312   0.473   0.241   8.639
  916SOL     OW 3313   0.866   0.454   8.090
  916SOL    HW1 3314   0.834   0.526   8.028
  916SOL    HW2 3315   0.890   0.373   8.037
  917SOL     OW 3316   1.017   0.039   8.201
  917SOL    HW1 3317   0.945   0.044   8.132
  917SOL    HW2 3318   0.993  -0.030   8.270
  918SOL     OW 3319   1.429   1.173   8.315
  918SOL    HW1 3320   1.374   1.089   8.308
  918SOL    HW2 3321   1.455   1.202   8.223
  919SOL     OW 3322   1.466   0.590   8.440
  919SOL    HW1 3323   1.436   0.495   8.447
  919SOL    HW2 3324   1.539   0.606   8.506
  920SOL     OW 3325   1.857   0.833   7.825
  920SOL    HW1 3326   1.899   0.769   7.889
  920SOL    HW2 3327   1.819   0.782   7.747
  921SOL     OW 3328   0.488   1.385   7.622
  921SOL    HW1 3329   0.401   1.370   7.669
  921SOL    HW2 3330   0.471   1.411   7.527
  922SOL     OW 3331   1.664   1.280   8.105
  922SOL    HW1 3332   1.763   1.288   8.119
  922SOL    HW2 3333   1.619   1.364   8.136
  923SOL     OW 3334   1.390   0.575   7.526
  923SOL    HW1 3335   1.336   0.554   7.607
  923SOL    HW2 3336   1.481   0.534   7.535
  924SOL     OW 3337   0.527   0.256   7.776
  924SOL    HW1 3338   0.554   0.197   7.701
  924SOL    HW2 3339   0.527   0.351   7.745
  925SOL     OW 3340   1.754   1.223   9.036
  925SOL    HW1 3341   1.845   1.184   9.023
  925SOL    HW2 3342   1.762   1.319   9.060
  926SOL     OW 3343   1.064   1.347   8.788
  926SOL    HW1 3344   0.984   1.324   8.843
  926SOL    HW2 3345   1.147   1.321   8.837
  927SOL     OW 3346   1.592   1.629   9.073
  927SOL    HW1 3347   1.619   1.663   8.983
  927SOL    HW2 3348   1.671   1.591   9.119
  928SOL     OW 3349   1.111   1.195   8.548
  928SOL    HW1 3350   1.071   1.239   8.629
  928SOL    HW2 3351   1.070   1.232   8.465
  929SOL     OW 3352   1.638   1.099   8.527
  929SOL    HW1 3353   1.643   1.180   8.586
  929SOL    HW2 3354   1.552   1.101   8.476
  930SOL     OW 3355   0.915   0.089   8.850
  930SOL    HW1 3356   0.940   0.069   8.755
  930SOL    HW2 3357   0.987   0.145   8.892
  931SOL     OW 3358   0.980   1.116   9.167
  931SOL    HW1 3359   0.881   1.122   9.177
  931SOL    HW2 3360   1.003   1.036   9.111
  932SOL     OW 3361   0.705   1.050   7.816
  932SOL    HW1 3362   0.691   1.057   7.915
  932SOL    HW2 3363   0.789   0.999   7.798
  933SOL     OW 3364   0.410   0.813   8.699
  933SOL    HW1 3365   0.496   0.825   8.749
  933SOL    HW2 3366   0.368   0.726   8.726
  934SOL     OW 3367   1.274   0.386   8.710
  934SOL    HW1 3368   1.295   0.460   8.774
  934SOL    HW2 3369   1.185   0.403   8.667
  935SOL     OW 3370   0.064   1.564   8.779
  935SOL    HW1 3371   0.018   1.646   8.745
  935SOL    HW2 3372   0.162   1.583   8.788
  936SOL     OW 3373   0.367   1.100   7.949
  936SOL    HW1 3374   0.360   1.183   7.893
  936SOL    HW2 3375   0.371   1.020   7.889
  937SOL     OW 3376   0.566   0.537   8.313
  937SOL    HW1 3377   0.578   0.603   8.239
  937SOL    HW2 3378   0.612   0.571   8.396
  938SOL     OW 3379   1.252   1.348   7.836
  938SOL    HW1 3380   1.302   1.425   7.876
  938SOL    HW2 3381   1.157   1.350   7.868
  939SOL     OW 3382   1.272   1.445   8.590
  939SOL    HW1 3383   1.319   1.458   8.677
  939SOL    HW2 3384   1.206   1.371   8.599
  940SOL     OW 3385   1.582   0.639   7.920
  940SOL    HW1 3386   1.551   0.700   7.993
  940SOL    HW2 3387   1.632   0.691   7.851
  941SOL     OW 3388   0.354   1.510   8.777
  941SOL    HW1 3389   0.333   1.466   8.690
  941SOL    HW2 3390   0.451   1.536   8.780
  942SOL     OW 3391   0.402   0.751   9.046
  942SOL    HW1 3392   0.470   0.806   8.999
  942SOL    HW2 3393   0.442   0.663   9.073
  943SOL     OW 3394   1.587   0.779   9.118
  943SOL    HW1 3395   1.495   0.817   9.113
  943SOL    HW2 3396   1.647   0.826   9.053
  944SOL     OW 3397   1.013   0.105   9.218
  944SOL    HW1 3398   1.019   0.190   9.166
  944SOL    HW2 3399   1.045   0.029   9.161
  945SOL     OW 3400   0.504   0.050   9.188
  945SOL    HW1 3401   0.462  -0.007   9.118
  945SOL    HW2 3402   0.438   0.119   9.220
  946SOL     OW 3403   0.573   0.870   8.477
  946SOL    HW1 3404   0.617   0.959   8.468
  946SOL    HW2 3405   0.510   0.870   8.554
  947SOL     OW 3406   1.360   0.862   8.493
  947SOL    HW1 3407   1.285   0.862   8.427
  947SOL    HW2 3408   1.397   0.770   8.502
  948SOL     OW 3409   1.209   0.525   7.723
  948SOL    HW1 3410   1.222   0.441   7.777
  948SOL    HW2 3411   1.180   0.599   7.783
  949SOL     OW 3412   0.307   0.213   8.679
  949SOL    HW1 3413   0.284   0.250   8.769
  949SOL    HW2 3414   0.277   0.118   8.673
  950SOL     OW 3415   0.037   1.310   8.730
  950SOL    HW1 3416   0.090   1.261   8.798
  950SOL    HW2 3417   0.059   1.408   8.735
  951SOL     OW 3418   0.732   0.634   8.512
  951SOL    HW1 3419   0.791   0.608   8.436
  951SOL    HW2 3420   0.704   0.730   8.501
  952SOL     OW 3421   1.728   0.935   9.302
  952SOL    HW1 3422   1.682   0.928   9.213
  952SOL    HW2 3423   1.666   0.979   9.368
  953SOL     OW 3424   0.307   0.063   8.066
  953SOL    HW1 3425   0.296   0.157   8.099
  953SOL    HW2 3426   0.302   0.000   8.143
  954SOL     OW 3427   1.622   0.367   7.822
  954SOL    HW1 3428   1.624   0.291   7.886
  954SOL    HW2 3429   1.574   0.444   7.862
  955SOL     OW 3430   1.023   0.766   8.414
  955SOL    HW1 3431   1.038   0.787   8.510
  955SOL    HW2 3432   0.993   0.671   8.405
  956SOL     OW 3433   0.980   1.573   9.148
  956SOL    HW1 3434   0.960   1.617   9.060
  956SOL    HW2 3435   1.019   1.482   9.132
  957SOL     OW 3436   1.859   1.518   9.053
  957SOL    HW1 3437   1.873   1.545   8.958
  957SOL    HW2 3438   1.942   1.540   9.106
  958SOL     OW 3439   0.350   0.898   9.252
  958SOL    HW1 3440   0.426   0.942   9.300
  958SOL    HW2 3441   0.385   0.851   9.170
  959SOL     OW 3442   1.540   0.274   7.573
  959SOL    HW1 3443   1.479   0.199   7.596
  959SOL    HW2 3444   1.562   0.326   7.656
  960SOL     OW 3445   1.303   0.838   7.490
  960SOL    HW1 3446   1.337   0.745   7.505
  960SOL    HW2 3447   1.321   0.865   7.395
  961SOL     OW 3448   1.068   1.333   8.297
  961SOL    HW1 3449   1.075   1.249   8.242
  961SOL    HW2 3450   1.130   1.402   8.261
  962SOL     OW 3451   0.319   0.810   8.397
  962SOL    HW1 3452   0.412   0.846   8.402
  962SOL    HW2 3453   0.313   0.725   8.449
  963SOL     OW 3454   0.339   0.509   8.454
  963SOL    HW1 3455   0.287   0.426   8.437
  963SOL    HW2 3456   0.416   0.514   8.390
  964SOL     OW 3457   1.138   0.380   9.126
  964SOL    HW1 3458   1.093   0.443   9.190
  964SOL    HW2 3459   1.231   0.411   9.109
  965SOL     OW 3460   1.160   0.207   8.925
  965SOL    HW1 3461   1.160   0.271   9.002
  965SOL    HW2 3462   1.188   0.255   8.842
  966SOL     OW 3463   0.008   1.326   7.648
  966SOL    HW1 3464  -0.085   1.347   7.617
  966SOL    HW2 3465   0.018   1.227   7.661
  967SOL     OW 3466   0.088   1.801   8.375
  967SOL    HW1 3467   0.046   1.715   8.348
  967SOL    HW2 3468   0.182   1.804   8.341
  968SOL     OW 3469   0.504   1.568   8.358
  968SOL    HW1 3470   0.570   1.642   8.367
  968SOL    HW2 3471   0.548   1.489   8.316
  969SOL     OW 3472   1.002   0.796   8.686
  969SOL    HW1 3473   1.043   0.764   8.772
  969SOL    HW2 3474   0.906   0.769   8.683
  970SOL     OW 3475   0.040   0.544   8.562
  970SOL    HW1 3476   0.125   0.511   8.521
  970SOL    HW2 3477   0.053   0.559   8.660
  971SOL     OW 3478   0.189   0.520   9.170
  971SOL    HW1 3479   0.248   0.480   9.100
  971SOL    HW2 3480   0.131   0.591   9.129
  972SOL     OW 3481   1.369   0.950   9.108
  972SOL    HW1 3482   1.408   1.039   9.128
  972SOL    HW2 3483   1.379   0.930   9.011
  973SOL     OW 3484   0.815   0.572   7.773
  973SOL    HW1 3485   0.822   0.483   7.727
  973SOL    HW2 3486   0.721   0.606   7.765
  974SOL     OW 3487   1.657   0.604   8.654
  974SOL    HW1 3488   1.619   0.535   8.716
  974SOL    HW2 3489   1.739   0.568   8.610
  975SOL     OW 3490   0.252   1.564   9.192
  975SOL    HW1 3491   0.222   1.621   9.268
  975SOL    HW2 3492   0.245   1.467   9.218
  976SOL     OW 3493   0.671   0.464   8.717
  976SOL    HW1 3494   0.637   0.375   8.687
  976SOL    HW2 3495   0.697   0.518   8.637
  977SOL     OW 3496   0.930   1.678   8.913
  977SOL    HW1 3497   0.906   1.660   8.818
  977SOL    HW2 3498   0.960   1.772   8.923
  978SOL     OW 3499   0.473   0.500   7.639
  978SOL    HW1 3500   0.534   0.580   7.643
  978SOL    HW2 3501   0.378   0.531   7.646
  979SOL     OW 3502   0.159   1.137   8.914
  979SOL    HW1 3503   0.181   1.076   8.990
  979SOL    HW2 3504   0.169   1.088   8.828
  980SOL     OW 3505   1.347   1.059   8.682
  980SOL    HW1 3506   1.371   0.996   8.608
  980SOL    HW2 3507   1.257   1.099   8.664
  981SOL     OW 3508   1.302   0.855   7.757
  981SOL    HW1 3509   1.216   0.824   7.799
  981SOL    HW2 3510   1.298   0.841   7.658
  982SOL     OW 3511   1.759   1.747   8.602
  982SOL    HW1 3512   1.820   1.777   8.529
  982SOL    HW2 3513   1.721   1.658   8.580
  983SOL     OW 3514   1.252   1.731   8.576
  983SOL    HW1 3515   1.336   1.736   8.522
  983SOL    HW2 3516   1.229   1.635   8.594
  984SOL     OW 3517   0.083   1.258   8.470
  984SOL    HW1 3518   0.078   1.257   8.570
  984SOL    HW2 3519   0.000   1.217   8.432
  985SOL     OW 3520   0.688   1.662   9.164
  985SOL    HW1 3521   0.632   1.743   9.173
  985SOL    HW2 3522   0.740   1.666   9.078
  986SOL     OW 3523   1.726   0.135   7.971
  986SOL    HW1 3524   1.799   0.118   7.904
  986SOL    HW2 3525   1.695   0.048   8.009
  987SOL     OW 3526   0.130   1.794   9.299
  987SOL    HW1 3527   0.089   1.720   9.352
  987SOL    HW2 3528   0.194   1.845   9.357
  988SOL     OW 3529   1.280   0.927   8.120
  988SOL    HW1 3530   1.340   0.846   8.122
  988SOL    HW2 3531   1.320   0.996   8.060
  989SOL     OW 3532   0.830   1.273   8.870
  989SOL    HW1 3533   0.825   1.306   8.965
  989SOL    HW2 3534   0.744   1.292   8.824
  990SOL     OW 3535   0.672   1.616   7.602
  990SOL    HW1 3536   0.681   1.626   7.503
  990SOL    HW2 3537   0.632   1.527   7.623
  991SOL     OW 3538   1.650   1.720   8.842
  991SOL    HW1 3539   1.703   1.730   8.758
  991SOL    HW2 3540   1.623   1.810   8.876
  992SOL     OW 3541   1.841   0.175   8.411
  992SOL    HW1 3542   1.880   0.090   8.375
  992SOL    HW2 3543   1.743   0.177   8.392
  993SOL     OW 3544   0.263   0.326   8.168
  993SOL    HW1 3545   0.184   0.377   8.134
  993SOL    HW2 3546   0.254   0.311   8.266
  994SOL     OW 3547   1.194   1.612   7.479
  994SOL    HW1 3548   1.200   1.519   7.516
  994SOL    HW2 3549   1.135   1.612   7.399
  995SOL     OW 3550   0.822   1.002   8.820
  995SOL    HW1 3551   0.862   1.001   8.728
  995SOL    HW2 3552   0.832   1.094   8.860
  996SOL     OW 3553   0.916   0.910   7.739
  996SOL    HW1 3554   0.979   0.948   7.671
  996SOL    HW2 3555   0.956   0.827   7.778
  997SOL     OW 3556   0.372   1.288   8.938
  997SOL    HW1 3557   0.359   1.381   8.904
  997SOL    HW2 3558   0.288   1.236   8.925
  998SOL     OW 3559   1.614   1.292   8.737
  998SOL    HW1 3560   1.674   1.295   8.817
  998SOL    HW2 3561   1.539   1.356   8.750
  999SOL     OW 3562   1.039   1.098   8.144
  999SOL    HW1 3563   0.969   1.051   8.198
  999SOL    HW2 3564   1.098   1.030   8.101
 1000SOL     OW 3565   1.014   0.236   8.419
 1000SOL    HW1 3566   1.006   0.200   8.326
 1000SOL    HW2 3567   1.012   0.160   8.484
 1001SOL     OW 3568   0.590   1.487   7.939
 1001SOL    HW1 3569   0.632   1.429   7.869
 1001SOL    HW2 3570   0.546   1.566   7.895
 1002SOL     OW 3571   1.709   0.385   8.829
 1002SOL    HW1 3572   1.782   0.454   8.833
 1002SOL    HW2 3573   1.737   0.310   8.770
 1003SOL     OW 3574   0.255   1.348   7.738
 1003SOL    HW1 3575   0.159   1.349   7.711
 1003SOL    HW2 3576   0.267   1.401   7.822
 1004SOL     OW 3577   0.105   1.013   9.174
 1004SOL    HW1 3578   0.028   0.980   9.228
 1004SOL    HW2 3579   0.190   0.983   9.216
 1005SOL     OW 3580   0.672   0.203   8.937
 1005SOL    HW1 3581   0.762   0.187   8.897
 1005SOL    HW2 3582   0.680   0.208   9.036
 1006SOL     OW 3583   0.075   0.345   7.481
 1006SOL    HW1 3584  -0.017   0.317   7.452
 1006SOL    HW2 3585   0.106   0.422   7.425
 1007SOL     OW 3586   1.440   0.856   8.846
 1007SOL    HW1 3587   1.383   0.908   8.783
 1007SOL    HW2 3588   1.536   0.868   8.822
 1008SOL     OW 3589   0.072   0.166   7.766
 1008SOL    HW1 3590   0.055   0.249   7.712
 1008SOL    HW2 3591   0.162   0.129   7.744
 1009SOL     OW 3592   1.183   1.335   7.567
 1009SOL    HW1 3593   1.084   1.324   7.569
 1009SOL    HW2 3594   1.217   1.350   7.660
 1010SOL     OW 3595   0.613   0.842   8.879
 1010SOL    HW1 3596   0.669   0.923   8.862
 1010SOL    HW2 3597   0.672   0.762   8.882
 1011SOL     OW 3598   1.493   1.767   8.407
 1011SOL    HW1 3599   1.526   1.831   8.338
 1011SOL    HW2 3600   1.559   1.761   8.482
 1012SOL     OW 3601   0.716   0.565   9.156
 1012SOL    HW1 3602   0.735   0.630   9.230
 1012SOL    HW2 3603   0.776   0.485   9.165
 1013SOL     OW 3604   1.450   1.220   9.081
 1013SOL    HW1 3605   1.441   1.210   9.180
 1013SOL    HW2 3606   1.546   1.213   9.055
 1014SOL     OW 3607   0.390   1.741   9.008
 1014SOL    HW1 3608   0.299   1.782   9.006
 1014SOL    HW2 3609   0.383   1.647   9.040
 1015SOL     OW 3610   1.674   0.883   8.702
 1015SOL    HW1 3611   1.647   0.794   8.665
 1015SOL    HW2 3612   1.675   0.951   8.629
 1016SOL     OW 3613   1.225   0.325   7.897
 1016SOL    HW1 3614   1.290   0.251   7.886
 1016SOL    HW2 3615   1.245   0.375   7.981
 1017SOL     OW 3616   0.594   0.745   8.100
 1017SOL    HW1 3617   0.644   0.830   8.081
 1017SOL    HW2 3618   0.506   0.747   8.052
 1018SOL     OW 3619   1.777   0.342   9.090
 1018SOL    HW1 3620   1.760   0.373   8.996
 1018SOL    HW2 3621   1.693   0.305   9.128
 1019SOL     OW 3622   1.730   0.934   8.965
 1019SOL    HW1 3623   1.768   1.025   8.980
 1019SOL    HW2 3624   1.722   0.917   8.866
 1020SOL     OW 3625   0.859   1.374   7.464
 1020SOL    HW1 3626   0.813   1.389   7.552
 1020SOL    HW2 3627   0.903   1.459   7.434
 1021SOL     OW 3628   0.661   1.790   8.401
 1021SOL    HW1 3629   0.615   1.878   8.388
 1021SOL    HW2 3630   0.760   1.802   8.394
 1022SOL     OW 3631   0.859   0.956   8.309
 1022SOL    HW1 3632   0.913   0.887   8.357
 1022SOL    HW2 3633   0.827   1.025   8.375
 1023SOL     OW 3634   1.083   0.984   7.535
 1023SOL    HW1 3635   1.060   1.037   7.453
 1023SOL    HW2 3636   1.164   0.928   7.516
 1024SOL     OW 3637   1.861   1.569   8.299
 1024SOL    HW1 3638   1.790   1.557   8.229
 1024SOL    HW2 3639   1.862   1.490   8.359
 1025SOL     OW 3640   0.221   1.314   9.292
 1025SOL    HW1 3641   0.156   1.241   9.271
 1025SOL    HW2 3642   0.225   1.328   9.390
 1026SOL     OW 3643   0.079   1.240   8.101
 1026SOL    HW1 3644   0.078   1.193   8.189
 1026SOL    HW2 3645   0.161   1.212   8.050
 1027SOL     OW 3646   0.672   1.391   9.072
 1027SOL    HW1 3647   0.594   1.341   9.110
 1027SOL    HW2 3648   0.669   1.486   9.103
 1028SOL     OW 3649   1.824   0.192   8.675
 1028SOL    HW1 3650   1.820   0.102   8.719
 1028SOL    HW2 3651   1.827   0.181   8.576
 1029SOL     OW 3652   0.428   0.424   7.968
 1029SOL    HW1 3653   0.458   0.352   7.906
 1029SOL    HW2 3654   0.389   0.384   8.051
 1030SOL     OW 3655   1.705   1.487   8.552
 1030SOL    HW1 3656   1.612   1.462   8.525
 1030SOL    HW2 3657   1.731   1.437   8.634
 1031SOL     OW 3658   0.317   0.547   8.728
 1031SOL    HW1 3659   0.355   0.488   8.800
 1031SOL    HW2 3660   0.357   0.521   8.640
 1032SOL     OW 3661   0.812   1.586   8.135
 1032SOL    HW1 3662   0.844   1.596   8.041
 1032SOL    HW2 3663   0.733   1.524   8.137
 1033SOL     OW 3664   1.424   0.214   8.560
 1033SOL    HW1 3665   1.476   0.149   8.615
 1033SOL    HW2 3666   1.375   0.277   8.621
 1034SOL     OW 3667   1.001   0.034   8.602
 1034SOL    HW1 3668   0.938  -0.038   8.571
 1034SOL    HW2 3669   1.094  -0.002   8.602
 1035SOL     OW 3670   0.770   1.330   7.749
 1035SOL    HW1 3671   0.724   1.243   7.766
 1035SOL    HW2 3672   0.861   1.327   7.790
 1036SOL     OW 3673   0.618   1.567   8.732
 1036SOL    HW1 3674   0.613   1.649   8.789
 1036SOL    HW2 3675   0.707   1.564   8.687
 1037SOL     OW 3676   1.352   0.052   7.616
 1037SOL    HW1 3677   1.387   0.011   7.532
 1037SOL    HW2 3678   1.262   0.014   7.636
 1038SOL     OW 3679   1.300   0.453   8.139
 1038SOL    HW1 3680   1.241   0.533   8.143
 1038SOL    HW2 3681   1.315   0.418   8.232
 1039SOL     OW 3682   1.593   0.221   8.330
 1039SOL    HW1 3683   1.509   0.220   8.384
 1039SOL    HW2 3684   1.595   0.304   8.274
 1040SOL     OW 3685   0.039   1.077   7.748
 1040SOL    HW1 3686   0.138   1.066   7.739
 1040SOL    HW2 3687  -0.001   0.991   7.780
 1041SOL     OW 3688   0.875   1.646   7.785
 1041SOL    HW1 3689   0.798   1.611   7.731
 1041SOL    HW2 3690   0.843   1.717   7.847
 1042SOL     OW 3691   0.230   0.628   9.423
 1042SOL    HW1 3692   0.137   0.626   9.460
 1042SOL    HW2 3693   0.231   0.589   9.331
 1043SOL     OW 3694   0.225   0.275  10.306
 1043SOL    HW1 3695   0.260   0.258  10.398
 1043SOL    HW2 3696   0.137   0.230  10.294
 1044SOL     OW 3697   0.019   0.368   9.957
 1044SOL    HW1 3698  -0.063   0.411   9.996
 1044SOL    HW2 3699  -0.009   0.295   9.894
 1045SOL     OW 3700   0.569   1.275  10.475
 1045SOL    HW1 3701   0.476   1.268  10.438
 1045SOL    HW2 3702   0.580   1.364  10.519
 1046SOL     OW 3703   1.555   1.511  10.013
 1046SOL    HW1 3704   1.498   1.495  10.094
 1046SOL    HW2 3705   1.496   1.521   9.933
 1047SOL     OW 3706   1.135   0.703  10.027
 1047SOL    HW1 3707   1.192   0.781  10.002
 1047SOL    HW2 3708   1.075   0.729  10.103
 1048SOL     OW 3709   1.755   0.607   9.541
 1048SOL    HW1 3710   1.743   0.594   9.442
 1048SOL    HW2 3711   1.725   0.526   9.590
 1049SOL     OW 3712   0.768   1.144  10.333
 1049SOL    HW1 3713   0.690   1.161  10.393
 1049SOL    HW2 3714   0.802   1.231  10.297
 1050SOL     OW 3715   0.850   0.798  11.133
 1050SOL    HW1 3716   0.846   0.874  11.198
 1050SOL    HW2 3717   0.872   0.834  11.042
 1051SOL     OW 3718   0.685   1.012   9.975
 1051SOL    HW1 3719   0.754   0.996  10.045
 1051SOL    HW2 3720   0.612   1.069  10.013
 1052SOL     OW 3721   0.686   1.161  11.113
 1052SOL    HW1 3722   0.746   1.240  11.127
 1052SOL    HW2 3723   0.600   1.192  11.072
 1053SOL     OW 3724   0.335   1.435  10.371
 1053SOL    HW1 3725   0.257   1.404  10.318
 1053SOL    HW2 3726   0.393   1.493  10.314
 1054SOL     OW 3727   1.460   1.505  10.649
 1054SOL    HW1 3728   1.484   1.599  10.675
 1054SOL    HW2 3729   1.444   1.451  10.731
 1055SOL     OW 3730   0.438   0.392  10.809
 1055SOL    HW1 3731   0.520   0.336  10.818
 1055SOL    HW2 3732   0.357   0.334  10.813
 1056SOL     OW 3733   1.603   0.447  10.047
 1056SOL    HW1 3734   1.529   0.493   9.997
 1056SOL    HW2 3735   1.654   0.515  10.100
 1057SOL     OW 3736   0.231   1.713   9.793
 1057SOL    HW1 3737   0.265   1.790   9.847
 1057SOL    HW2 3738   0.275   1.713   9.703
 1058SOL     OW 3739   1.127   1.341  11.000
 1058SOL    HW1 3740   1.174   1.341  11.088
 1058SOL    HW2 3741   1.079   1.254  10.989
 1059SOL     OW 3742   0.230   1.434   9.848
 1059SOL    HW1 3743   0.204   1.530   9.848
 1059SOL    HW2 3744   0.159   1.380   9.893
 1060SOL     OW 3745   0.240   1.091  10.196
 1060SOL    HW1 3746   0.254   1.007  10.248
 1060SOL    HW2 3747   0.185   1.155  10.251
 1061SOL     OW 3748   0.620   1.786  10.749
 1061SOL    HW1 3749   0.528   1.769  10.784
 1061SOL    HW2 3750   0.648   1.878  10.775
 1062SOL     OW 3751   0.606   0.964   9.433
 1062SOL    HW1 3752   0.613   1.048   9.379
 1062SOL    HW2 3753   0.652   0.977   9.521
 1063SOL     OW 3754   1.594   0.114  10.790
 1063SOL    HW1 3755   1.576   0.181  10.718
 1063SOL    HW2 3756   1.591   0.160  10.879
 1064SOL     OW 3757   0.122   0.643   9.873
 1064SOL    HW1 3758   0.077   0.555   9.890
 1064SOL    HW2 3759   0.121   0.697   9.957
 1065SOL     OW 3760   0.027   1.596   9.427
 1065SOL    HW1 3761   0.008   1.500   9.448
 1065SOL    HW2 3762  -0.006   1.654   9.502
 1066SOL     OW 3763   1.689   0.922   9.922
 1066SOL    HW1 3764   1.784   0.893   9.930
 1066SOL    HW2 3765   1.681   0.987   9.847
 1067SOL     OW 3766   1.641   1.108   9.742
 1067SOL    HW1 3767   1.727   1.110   9.690
 1067SOL    HW2 3768   1.655   1.155   9.830
 1068SOL     OW 3769   0.113   0.737  10.907
 1068SOL    HW1 3770   0.201   0.724  10.952
 1068SOL    HW2 3771   0.100   0.834  10.885
 1069SOL     OW 3772   0.613   1.365  10.036
 1069SOL    HW1 3773   0.564   1.278  10.045
 1069SOL    HW2 3774   0.590   1.408   9.949
 1070SOL     OW 3775   1.293   1.228  10.733
 1070SOL    HW1 3776   1.330   1.155  10.675
 1070SOL    HW2 3777   1.345   1.233  10.818
 1071SOL     OW 3778   0.809   0.004   9.812
 1071SOL    HW1 3779   0.849   0.095   9.803
 1071SOL    HW2 3780   0.709   0.012   9.818
 1072SOL     OW 3781   0.197   0.976  10.574
 1072SOL    HW1 3782   0.286   0.931  10.560
 1072SOL    HW2 3783   0.124   0.911  10.555
 1073SOL     OW 3784   1.525   0.999   9.500
 1073SOL    HW1 3785   1.462   0.923   9.513
 1073SOL    HW2 3786   1.573   1.017   9.586
 1074SOL     OW 3787   1.187   1.792  10.926
 1074SOL    HW1 3788   1.211   1.852  10.850
 1074SOL    HW2 3789   1.194   1.697  10.896
 1075SOL     OW 3790   0.317   0.251  11.111
 1075SOL    HW1 3791   0.388   0.322  11.117
 1075SOL    HW2 3792   0.229   0.290  11.139
 1076SOL     OW 3793   1.466   1.417  10.263
 1076SOL    HW1 3794   1.407   1.423  10.343
 1076SOL    HW2 3795   1.451   1.329  10.217
 1077SOL     OW 3796   1.667   1.714   9.882
 1077SOL    HW1 3797   1.626   1.691   9.794
 1077SOL    HW2 3798   1.649   1.640   9.947
 1078SOL     OW 3799   0.598   0.729   9.580
 1078SOL    HW1 3800   0.622   0.798   9.512
 1078SOL    HW2 3801   0.520   0.762   9.634
 1079SOL     OW 3802   1.281   0.345  10.254
 1079SOL    HW1 3803   1.195   0.295  10.241
 1079SOL    HW2 3804   1.343   0.291  10.310
 1080SOL     OW 3805   1.576   1.662   9.617
 1080SOL    HW1 3806   1.665   1.708   9.620
 1080SOL    HW2 3807   1.555   1.638   9.522
 1081SOL     OW 3808   0.807   0.605  10.775
 1081SOL    HW1 3809   0.760   0.602  10.864
 1081SOL    HW2 3810   0.756   0.550  10.709
 1082SOL     OW 3811   1.394   0.469  10.984
 1082SOL    HW1 3812   1.374   0.512  11.072
 1082SOL    HW2 3813   1.472   0.407  10.993
 1083SOL     OW 3814   0.973   0.890  10.882
 1083SOL    HW1 3815   1.019   0.806  10.853
 1083SOL    HW2 3816   0.917   0.924  10.807
 1084SOL     OW 3817   0.991   0.410  10.552
 1084SOL    HW1 3818   0.914   0.444  10.606
 1084SOL    HW2 3819   0.957   0.359  10.473
 1085SOL     OW 3820   1.041   0.701   9.739
 1085SOL    HW1 3821   1.067   0.697   9.835
 1085SOL    HW2 3822   0.956   0.650   9.725
 1086SOL     OW 3823   0.076   0.811  10.099
 1086SOL    HW1 3824   0.175   0.799  10.108
 1086SOL    HW2 3825   0.052   0.906  10.120
 1087SOL     OW 3826   0.130   1.821  10.881
 1087SOL    HW1 3827   0.120   1.806  10.980
 1087SOL    HW2 3828   0.044   1.857  10.845
 1088SOL     OW 3829   0.865   0.348   9.505
 1088SOL    HW1 3830   0.924   0.411   9.456
 1088SOL    HW2 3831   0.884   0.254   9.476
 1089SOL     OW 3832   1.719   0.585  11.141
 1089SOL    HW1 3833   1.693   0.674  11.105
 1089SOL    HW2 3834   1.717   0.517  11.068
 1090SOL     OW 3835   1.362   1.144   9.855
 1090SOL    HW1 3836   1.445   1.115   9.807
 1090SOL    HW2 3837   1.313   1.211   9.799
 1091SOL     OW 3838   0.550   0.196  10.195
 1091SOL    HW1 3839   0.545   0.191  10.295
 1091SOL    HW2 3840   0.552   0.292  10.166
 1092SOL     OW 3841   1.008   1.456   9.787
 1092SOL    HW1 3842   0.962   1.528   9.735
 1092SOL    HW2 3843   1.004   1.476   9.885
 1093SOL     OW 3844   0.351   1.801  10.163
 1093SOL    HW1 3845   0.401   1.715  10.169
 1093SOL    HW2 3846   0.416   1.878  10.160
 1094SOL     OW 3847   1.795   1.066  10.183
 1094SOL    HW1 3848   1.733   1.051  10.107
 1094SOL    HW2 3849   1.743   1.077  10.268
 1095SOL     OW 3850   1.227   1.550  10.816
 1095SOL    HW1 3851   1.233   1.473  10.880
 1095SOL    HW2 3852   1.175   1.524  10.736
 1096SOL     OW 3853   0.321   0.943   9.552
 1096SOL    HW1 3854   0.403   0.982   9.510
 1096SOL    HW2 3855   0.294   0.861   9.503
 1097SOL     OW 3856   1.458   0.735  10.038
 1097SOL    HW1 3857   1.453   0.670  10.113
 1097SOL    HW2 3858   1.538   0.794  10.051
 1098SOL     OW 3859   0.461   1.266  11.037
 1098SOL    HW1 3860   0.411   1.267  10.951
 1098SOL    HW2 3861   0.398   1.248  11.113
 1099SOL     OW 3862   1.111   1.776   9.547
 1099SOL    HW1 3863   1.051   1.714   9.597
 1099SOL    HW2 3864   1.142   1.732   9.462
 1100SOL     OW 3865   0.202   0.285  10.808
 1100SOL    HW1 3866   0.122   0.345  10.795
 1100SOL    HW2 3867   0.192   0.236  10.894
 1101SOL     OW 3868   1.632   1.377   9.391
 1101SOL    HW1 3869   1.600   1.471   9.381
 1101SOL    HW2 3870   1.556   1.314   9.379
 1102SOL     OW 3871   0.464   1.743   9.633
 1102SOL    HW1 3872   0.497   1.782   9.719
 1102SOL    HW2 3873   0.540   1.736   9.568
 1103SOL     OW 3874   1.400   0.107   9.736
 1103SOL    HW1 3875   1.376   0.070   9.646
 1103SOL    HW2 3876   1.499   0.123   9.740
 1104SOL     OW 3877   0.249   1.785  10.551
 1104SOL    HW1 3878   0.306   1.720  10.601
 1104SOL    HW2 3879   0.233   1.752  10.458
 1105SOL     OW 3880   0.940   1.698  10.214
 1105SOL    HW1 3881   1.020   1.641  10.235
 1105SOL    HW2 3882   0.891   1.658  10.137
 1106SOL     OW 3883   0.382   0.700   9.790
 1106SOL    HW1 3884   0.427   0.610   9.787
 1106SOL    HW2 3885   0.288   0.689   9.823
 1107SOL     OW 3886   1.547   0.222  11.039
 1107SOL    HW1 3887   1.542   0.259  11.131
 1107SOL    HW2 3888   1.475   0.153  11.027
 1108SOL     OW 3889   0.614   0.122   9.427
 1108SOL    HW1 3890   0.712   0.100   9.434
 1108SOL    HW2 3891   0.583   0.105   9.334
 1109SOL     OW 3892   0.781   0.264  11.059
 1109SOL    HW1 3893   0.848   0.203  11.102
 1109SOL    HW2 3894   0.708   0.283  11.124
 1110SOL     OW 3895   0.888   1.514  10.505
 1110SOL    HW1 3896   0.865   1.489  10.411
 1110SOL    HW2 3897   0.949   1.445  10.544
 1111SOL     OW 3898   1.351   0.590  10.743
 1111SOL    HW1 3899   1.379   0.547  10.828
 1111SOL    HW2 3900   1.376   0.686  10.744
 1112SOL     OW 3901   0.803   1.402  10.234
 1112SOL    HW1 3902   0.893   1.416  10.192
 1112SOL    HW2 3903   0.732   1.404  10.163
 1113SOL     OW 3904   0.922   0.503  10.209
 1113SOL    HW1 3905   0.897   0.494  10.113
 1113SOL    HW2 3906   0.970   0.421  10.240
 1114SOL     OW 3907   0.539   0.064   9.822
 1114SOL    HW1 3908   0.458   0.065   9.880
 1114SOL    HW2 3909   0.542   0.147   9.767
 1115SOL     OW 3910   1.434   1.188   9.351
 1115SOL    HW1 3911   1.466   1.112   9.408
 1115SOL    HW2 3912   1.342   1.215   9.381
 1116SOL     OW 3913   0.297   0.035   9.481
 1116SOL    HW1 3914   0.346   0.119   9.460
 1116SOL    HW2 3915   0.359  -0.030   9.526
 1117SOL     OW 3916   0.935   0.236   9.790
 1117SOL    HW1 3917   0.887   0.277   9.712
 1117SOL    HW2 3918   1.034   0.234   9.771
 1118SOL     OW 3919   1.076   0.683  10.774
 1118SOL    HW1 3920   0.996   0.622  10.777
 1118SOL    HW2 3921   1.157   0.630  10.750
 1119SOL     OW 3922   1.227   1.570  10.103
 1119SOL    HW1 3923   1.248   1.644  10.038
 1119SOL    HW2 3924   1.295   1.570  10.176
 1120SOL     OW 3925   0.459   1.152  10.051
 1120SOL    HW1 3926   0.388   1.125  10.116
 1120SOL    HW2 3927   0.433   1.124   9.958
 1121SOL     OW 3928   1.271   1.797   9.901
 1121SOL    HW1 3929   1.315   1.861   9.837
 1121SOL    HW2 3930   1.221   1.849   9.971
 1122SOL     OW 3931   1.032   0.549   9.326
 1122SOL    HW1 3932   0.991   0.631   9.287
 1122SOL    HW2 3933   1.096   0.575   9.399
 1123SOL     OW 3934   0.078   0.556  10.696
 1123SOL    HW1 3935   0.170   0.555  10.655
 1123SOL    HW2 3936   0.072   0.630  10.763
 1124SOL     OW 3937   0.561   0.222  10.457
 1124SOL    HW1 3938   0.599   0.138  10.494
 1124SOL    HW2 3939   0.473   0.241  10.501
 1125SOL     OW 3940   0.866   0.454   9.952
 1125SOL    HW1 3941   0.834   0.526   9.890
 1125SOL    HW2 3942   0.890   0.373   9.899
 1126SOL     OW 3943   1.017   0.039  10.063
 1126SOL    HW1 3944   0.945   0.044   9.994
 1126SOL    HW2 3945   0.993  -0.030  10.132
 1127SOL     OW 3946   1.429   1.173  10.177
 1127SOL    HW1 3947   1.374   1.089  10.170
 1127SOL    HW2 3948   1.455   1.202  10.085
 1128SOL     OW 3949   1.466   0.590  10.302
 1128SOL    HW1 3950   1.436   0.495  10.309
 1128SOL    HW2 3951   1.539   0.606  10.368
 1129SOL     OW 3952   1.857   0.833   9.687
 1129SOL    HW1 3953   1.899   0.769   9.751
 1129SOL    HW2 3954   1.819   0.782   9.609
 1130SOL     OW 3955   0.488   1.385   9.484
 1130SOL    HW1 3956   0.401   1.370   9.531
 1130SOL    HW2 3957   0.471   1.411   9.389
 1131SOL     OW 3958   1.664   1.280   9.967
 1131SOL    HW1 3959   1.763   1.288   9.981
 1131SOL    HW2 3960   1.619   1.364   9.998
 1132SOL     OW 3961   1.390   0.575   9.388
 1132SOL    HW1 3962   1.336   0.554   9.469
 1132SOL    HW2 3963   1.481   0.534   9.397
 1133SOL     OW 3964   0.527   0.256   9.638
 1133SOL    HW1 3965   0.554   0.197   9.563
 1133SOL    HW2 3966   0.527   0.351   9.607
 1134SOL     OW 3967   1.754   1.223  10.898
 1134SOL    HW1 3968   1.845   1.184  10.885
 1134SOL    HW2 3969   1.762   1.319  10.922
 1135SOL     OW 3970   1.064   1.347  10.650
 1135SOL    HW1 3971   0.984   1.324  10.705
 1135SOL    HW2 3972   1.147   1.321  10.699
 1136SOL     OW 3973   1.592   1.629  10.935
 1136SOL    HW1 3974   1.619   1.663  10.845
 1136SOL    HW2 3975   1.671   1.591  10.981
 1137SOL     OW 3976   1.111   1.195  10.410
 1137SOL    HW1 3977   1.071   1.239  10.491
 1137SOL    HW2 3978   1.070   1.232  10.327
 1138SOL     OW 3979   1.638   1.099  10.389
 1138SOL    HW1 3980   1.643   1.180  10.448
 1138SOL    HW2 3981   1.552   1.101  10.338
 1139SOL     OW 3982   0.915   0.089  10.712
 1139SOL    HW1 3983   0.940   0.069  10.617
 1139SOL    HW2 3984   0.987   0.145  10.754
 1140SOL     OW 3985   0.980   1.116  11.029
 1140SOL    HW1 3986   0.881   1.122  11.039
 1140SOL    HW2 3987   1.003   1.036  10.973
 1141SOL     OW 3988   0.705   1.050   9.678
 1141SOL    HW1 3989   0.691   1.057   9.777
 1141SOL    HW2 3990   0.789   0.999   9.660
 1142SOL     OW 3991   0.410   0.813  10.561
 1142SOL    HW1 3992   0.496   0.825  10.611
 1142SOL    HW2 3993   0.368   0.726  10.588
 1143SOL     OW 3994   1.274   0.386  10.572
 1143SOL    HW1 3995   1.295   0.460  10.636
 1143SOL    HW2 3996   1.185   0.403  10.529
 1144SOL     OW 3997   0.064   1.564  10.641
 1144SOL    HW1 3998   0.018   1.646  10.607
 1144SOL    HW2 3999   0.162   1.583  10.650
 1145SOL     OW 4000   0.367   1.100   9.811
 1145SOL    HW1 4001   0.360   1.183   9.755
 1145SOL    HW2 4002   0.371   1.020   9.751
 1146SOL     OW 4003   0.566   0.537  10.175
 1146SOL    HW1 4004   0.578   0.603  10.101
 1146SOL    HW2 4005   0.612   0.571  10.258
 1147SOL     OW 4006   1.252   1.348   9.698
 1147SOL    HW1 4007   1.302   1.425   9.738
 1147SOL    HW2 4008   1.157   1.350   9.730
 1148SOL     OW 4009   1.272   1.445  10.452
 1148SOL    HW1 4010   1.319   1.458  10.539
 1148SOL    HW2 4011   1.206   1.371  10.461
 1149SOL     OW 4012   1.582   0.639   9.782
 1149SOL    HW1 4013   1.551   0.700   9.855
 1149SOL    HW2 4014   1.632   0.691   9.713
 1150SOL     OW 4015   0.354   1.510  10.639
 1150SOL    HW1 4016   0.333   1.466  10.552
 1150SOL    HW2 4017   0.451   1.536  10.642
 1151SOL     OW 4018   0.402   0.751  10.908
 1151SOL    HW1 4019   0.470   0.806  10.861
 1151SOL    HW2 4020   0.442   0.663  10.935
 1152SOL     OW 4021   1.587   0.779  10.980
 1152SOL    HW1 4022   1.495   0.817  10.975
 1152SOL    HW2 4023   1.647   0.826  10.915
 1153SOL     OW 4024   1.013   0.105  11.080
 1153SOL    HW1 4025   1.019   0.190  11.028
 1153SOL    HW2 4026   1.045   0.029  11.023
 1154SOL     OW 4027   0.504   0.050  11.050
 1154SOL    HW1 4028   0.462  -0.007  10.980
 1154SOL    HW2 4029   0.438   0.119  11.082
 1155SOL     OW 4030   0.573   0.870  10.339
 1155SOL    HW1 4031   0.617   0.959  10.330
 1155SOL    HW2 4032   0.510   0.870  10.416
 1156SOL     OW 4033   1.360   0.862  10.355
 1156SOL    HW1 4034   1.285   0.862  10.289
 1156SOL    HW2 4035   1.397   0.770  10.364
 1157SOL     OW 4036   1.209   0.525   9.585
 1157SOL    HW1 4037   1.222   0.441   9.639
 1157SOL    HW2 4038   1.180   0.599   9.645
 1158SOL     OW 4039   0.307   0.213  10.541
 1158SOL    HW1 4040   0.284   0.250  10.631
 1158SOL    HW2 4041   0.277   0.118  10.535
 1159SOL     OW 4042   0.037   1.310  10.592
 1159SOL    HW1 4043   0.090   1.261  10.660
 1159SOL    HW2 4044   0.059   1.408  10.597
 1160SOL     OW 4045   0.732   0.634  10.374
 1160SOL    HW1 4046   0.791   0.608  10.298
 1160SOL    HW2 4047   0.704   0.730  10.363
 1161SOL     OW 4048   1.728   0.935  11.164
 1161SOL    HW1 4049   1.682   0.928  11.075
 1161SOL    HW2 4050   1.666   0.979  11.230
 1162SOL     OW 4051   0.307   0.063   9.928
 1162SOL    HW1 4052   0.296   0.157   9.961
 1162SOL    HW2 4053   0.302   0.000  10.005
 1163SOL     OW 4054   1.622   0.367   9.684
 1163SOL    HW1 4055   1.624   0.291   9.748
 1163SOL    HW2 4056   1.574   0.444   9.724
 1164SOL     OW 4057   1.023   0.766  10.276
 1164SOL    HW1 4058   1.038   0.787  10.372
 1164SOL    HW2 4059   0.993   0.671  10.267
 1165SOL     OW 4060   0.980   1.573  11.010
 1165SOL    HW1 4061   0.960   1.617  10.922
 1165SOL    HW2 4062   1.019   1.482  10.994
 1166SOL     OW 4063   1.859   1.518  10.915
 1166SOL    HW1 4064   1.873   1.545  10.820
 1166SOL    HW2 4065   1.942   1.540  10.968
 1167SOL     OW 4066   0.350   0.898  11.114
 1167SOL    HW1 4067   0.426   0.942  11.162
 1167SOL    HW2 4068   0.385   0.851  11.032
 1168SOL     OW 4069   1.540   0.274   9.435
 1168SOL    HW1 4070   1.479   0.199   9.458
 1168SOL    HW2 4071   1.562   0.326   9.518
 1169SOL     OW 4072   1.303   0.838   9.352
 1169SOL    HW1 4073   1.337   0.745   9.367
 1169SOL    HW2 4074   1.321   0.865   9.257
 1170SOL     OW 4075   1.068   1.333  10.159
 1170SOL    HW1 4076   1.075   1.249  10.104
 1170SOL    HW2 4077   1.130   1.402  10.123
 1171SOL     OW 4078   0.319   0.810  10.259
 1171SOL    HW1 4079   0.412   0.846  10.264
 1171SOL    HW2 4080   0.313   0.725  10.311
 1172SOL     OW 4081   0.339   0.509  10.316
 1172SOL    HW1 4082   0.287   0.426  10.299
 1172SOL    HW2 4083   0.416   0.514  10.252
 1173SOL     OW 4084   1.138   0.380  10.988
 1173SOL    HW1 4085   1.093   0.443  11.052
 1173SOL    HW2 4086   1.231   0.411  10.971
 1174SOL     OW 4087   1.160   0.207  10.787
 1174SOL    HW1 4088   1.160   0.271  10.864
 1174SOL    HW2 4089   1.188   0.255  10.704
 1175SOL     OW 4090   0.008   1.326   9.510
 1175SOL    HW1 4091  -0.085   1.347   9.479
 1175SOL    HW2 4092   0.018   1.227   9.523
 1176SOL     OW 4093   0.088   1.801  10.237
 1176SOL    HW1 4094   0.046   1.715  10.210
 1176SOL    HW2 4095   0.182   1.804  10.203
 1177SOL     OW 4096   0.504   1.568  10.220
 1177SOL    HW1 4097   0.570   1.642  10.229
 1177SOL    HW2 4098   0.548   1.489  10.178
 1178SOL     OW 4099   1.002   0.796  10.548
 1178SOL    HW1 4100   1.043   0.764  10.634
 1178SOL    HW2 4101   0.906   0.769  10.545
 1179SOL     OW 4102   0.040   0.544  10.424
 1179SOL    HW1 4103   0.125   0.511  10.383
 1179SOL    HW2 4104   0.053   0.559  10.522
 1180SOL     OW 4105   0.189   0.520  11.032
 1180SOL    HW1 4106   0.248   0.480  10.962
 1180SOL    HW2 4107   0.131   0.591  10.991
 1181SOL     OW 4108   1.369   0.950  10.970
 1181SOL    HW1 4109   1.408   1.039  10.990
 1181SOL    HW2 4110   1.379   0.930  10.873
 1182SOL     OW 4111   0.815   0.572   9.635
 1182SOL    HW1 4112   0.822   0.483   9.589
 1182SOL    HW2 4113   0.721   0.606   9.627
 1183SOL     OW 4114   1.657   0.604  10.516
 1183SOL    HW1 4115   1.619   0.535  10.578
 1183SOL    HW2 4116   1.739   0.568  10.472
 1184SOL     OW 4117   0.252   1.564  11.054
 1184SOL    HW1 4118   0.222   1.621  11.130
 1184SOL    HW2 4119   0.245   1.467  11.080
 1185SOL     OW 4120   0.671   0.464  10.579
 1185SOL    HW1 4121   0.637   0.375  10.549
 1185SOL    HW2 4122   0.697   0.518  10.499
 1186SOL     OW 4123   0.930   1.678  10.775
 1186SOL    HW1 4124   0.906   1.660  10.680
 1186SOL    HW2 4125   0.960   1.772  10.785
 1187SOL     OW 4126   0.473   0.500   9.501
 1187SOL    HW1 4127   0.534   0.580   9.505
 1187SOL    HW2 4128   0.378   0.531   9.508
 1188SOL     OW 4129   0.159   1.137  10.776
 1188SOL    HW1 4130   0.181   1.076  10.852
 1188SOL    HW2 4131   0.169   1.088  10.690
 1189SOL     OW 4132   1.347   1.059  10.544
 1189SOL    HW1 4133   1.371   0.996  10.470
 1189SOL    HW2 4134   1.257   1.099  10.526
 1190SOL     OW 4135   1.302   0.855   9.619
 1190SOL    HW1 4136   1.216   0.824   9.661
 1190SOL    HW2 4137   1.298   0.841   9.520
 1191SOL     OW 4138   1.759   1.747  10.464
 1191SOL    HW1 4139   1.820   1.777  10.391
 1191SOL    HW2 4140   1.721   1.658  10.442
 1192SOL     OW 4141   1.252   1.731  10.438
 1192SOL    HW1 4142   1.336   1.736  10.384
 1192SOL    HW2 4143   1.229   1.635  10.456
 1193SOL     OW 4144   0.083   1.258  10.332
 1193SOL    HW1 4145   0.078   1.257  10.432
 1193SOL    HW2 4146   0.000   1.217  10.294
 1194SOL     OW 4147   0.688   1.662  11.026
 1194SOL    HW1 4148   0.632   1.743  11.035
 1194SOL    HW2 4149   0.740   1.666  10.940
 1195SOL     OW 4150   1.726   0.135   9.833
 1195SOL    HW1 4151   1.799   0.118   9.766
 1195SOL    HW2 4152   1.695   0.048   9.871
 1196SOL     OW 4153   1.388   1.573   9.787
 1196SOL    HW1 4154   1.455   1.585   9.713
 1196SOL    HW2 4155   1.348   1.662   9.810
 1197SOL     OW 4156   0.130   1.794  11.161
 1197SOL    HW1 4157   0.089   1.720  11.214
 1197SOL    HW2 4158   0.194   1.845  11.219
 1198SOL     OW 4159   1.280   0.927   9.982
 1198SOL    HW1 4160   1.340   0.846   9.984
 1198SOL    HW2 4161   1.320   0.996   9.922
 1199SOL     OW 4162   0.830   1.273  10.732
 1199SOL    HW1 4163   0.825   1.306  10.827
 1199SOL    HW2 4164   0.744   1.292  10.686
 1200SOL     OW 4165   0.672   1.616   9.464
 1200SOL    HW1 4166   0.681   1.626   9.365
 1200SOL    HW2 4167   0.632   1.527   9.485
 1201SOL     OW 4168   1.650   1.720  10.704
 1201SOL    HW1 4169   1.703   1.730  10.620
 1201SOL    HW2 4170   1.623   1.810  10.738
 1202SOL     OW 4171   1.841   0.175  10.273
 1202SOL    HW1 4172   1.880   0.090  10.237
 1202SOL    HW2 4173   1.743   0.177  10.254
 1203SOL     OW 4174   0.263   0.326  10.030
 1203SOL    HW1 4175   0.184   0.377   9.996
 1203SOL    HW2 4176   0.254   0.311  10.128
 1204SOL     OW 4177   1.194   1.612   9.341
 1204SOL    HW1 4178   1.200   1.519   9.378
 1204SOL    HW2 4179   1.135   1.612   9.261
 1205SOL     OW 4180   0.822   1.002  10.682
 1205SOL    HW1 4181   0.862   1.001  10.590
 1205SOL    HW2 4182   0.832   1.094  10.722
 1206SOL     OW 4183   0.916   0.910   9.601
 1206SOL    HW1 4184   0.979   0.948   9.533
 1206SOL    HW2 4185   0.956   0.827   9.640
 1207SOL     OW 4186   1.504   1.607   9.354
 1207SOL    HW1 4187   1.412   1.644   9.361
 1207SOL    HW2 4188   1.542   1.627   9.264
 1208SOL     OW 4189   0.372   1.288  10.800
 1208SOL    HW1 4190   0.359   1.381  10.766
 1208SOL    HW2 4191   0.288   1.236  10.787
 1209SOL     OW 4192   1.614   1.292  10.599
 1209SOL    HW1 4193   1.674   1.295  10.679
 1209SOL    HW2 4194   1.539   1.356  10.612
 1210SOL     OW 4195   1.039   1.098  10.006
 1210SOL    HW1 4196   0.969   1.051  10.060
 1210SOL    HW2 4197   1.098   1.030   9.963
 1211SOL     OW 4198   1.014   0.236  10.281
 1211SOL    HW1 4199   1.006   0.200  10.188
 1211SOL    HW2 4200   1.012   0.160  10.346
 1212SOL     OW 4201   0.590   1.487   9.801
 1212SOL    HW1 4202   0.632   1.429   9.731
 1212SOL    HW2 4203   0.546   1.566   9.757
 1213SOL     OW 4204   1.709   0.385  10.691
 1213SOL    HW1 4205   1.782   0.454  10.695
 1213SOL    HW2 4206   1.737   0.310  10.632
 1214SOL     OW 4207   0.255   1.348   9.600
 1214SOL    HW1 4208   0.159   1.349   9.573
 1214SOL    HW2 4209   0.267   1.401   9.684
 1215SOL     OW 4210   0.105   1.013  11.036
 1215SOL    HW1 4211   0.028   0.980  11.090
 1215SOL    HW2 4212   0.190   0.983  11.078
 1216SOL     OW 4213   0.672   0.203  10.799
 1216SOL    HW1 4214   0.762   0.187  10.759
 1216SOL    HW2 4215   0.680   0.208  10.898
 1217SOL     OW 4216   0.075   0.345   9.343
 1217SOL    HW1 4217  -0.017   0.317   9.314
 1217SOL    HW2 4218   0.106   0.422   9.287
 1218SOL     OW 4219   1.440   0.856  10.708
 1218SOL    HW1 4220   1.383   0.908  10.645
 1218SOL    HW2 4221   1.536   0.868  10.684
 1219SOL     OW 4222   0.072   0.166   9.628
 1219SOL    HW1 4223   0.055   0.249   9.574
 1219SOL    HW2 4224   0.162   0.129   9.606
 1220SOL     OW 4225   1.183   1.335   9.429
 1220SOL    HW1 4226   1.084   1.324   9.431
 1220SOL    HW2 4227   1.217   1.350   9.522
 1221SOL     OW 4228   0.613   0.842  10.741
 1221SOL    HW1 4229   0.669   0.923  10.724
 1221SOL    HW2 4230   0.672   0.762  10.744
 1222SOL     OW 4231   1.493   1.767  10.269
 1222SOL    HW1 4232   1.526   1.831  10.200
 1222SOL    HW2 4233   1.559   1.761  10.344
 1223SOL     OW 4234   0.716   0.565  11.018
 1223SOL    HW1 4235   0.735   0.630  11.092
 1223SOL    HW2 4236   0.776   0.485  11.027
 1224SOL     OW 4237   1.450   1.220  10.943
 1224SOL    HW1 4238   1.441   1.210  11.042
 1224SOL    HW2 4239   1.546   1.213  10.917
 1225SOL     OW 4240   0.390   1.741  10.870
 1225SOL    HW1 4241   0.299   1.782  10.868
 1225SOL    HW2 4242   0.383   1.647  10.902
 1226SOL     OW 4243   1.674   0.883  10.564
 1226SOL    HW1 4244   1.647   0.794  10.527
 1226SOL    HW2 4245   1.675   0.951  10.491
 1227SOL     OW 4246   1.225   0.325   9.759
 1227SOL    HW1 4247   1.290   0.251   9.748
 1227SOL    HW2 4248   1.245   0.375   9.843
 1228SOL     OW 4249   0.594   0.745   9.962
 1228SOL    HW1 4250   0.644   0.830   9.943
 1228SOL    HW2 4251   0.506   0.747   9.914
 1229SOL     OW 4252   1.777   0.342  10.952
 1229SOL    HW1 4253   1.760   0.373  10.858
 1229SOL    HW2 4254   1.693   0.305  10.990
 1230SOL     OW 4255   1.730   0.934  10.827
 1230SOL    HW1 4256   1.768   1.025  10.842
 1230SOL    HW2 4257   1.722   0.917  10.728
 1231SOL     OW 4258   0.859   1.374   9.326
 1231SOL    HW1 4259   0.813   1.389   9.414
 1231SOL    HW2 4260   0.903   1.459   9.296
 1232SOL     OW 4261   0.661   1.790  10.263
 1232SOL    HW1 4262   0.615   1.878  10.250
 1232SOL    HW2 4263   0.760   1.802  10.256
 1233SOL     OW 4264   0.859   0.956  10.171
 1233SOL    HW1 4265   0.913   0.887  10.219
 1233SOL    HW2 4266   0.827   1.025  10.237
 1234SOL     OW 4267   1.083   0.984   9.397
 1234SOL    HW1 4268   1.060   1.037   9.315
 1234SOL    HW2 4269   1.164   0.928   9.378
 1235SOL     OW 4270   1.861   1.569  10.161
 1235SOL    HW1 4271   1.790   1.557  10.091
 1235SOL    HW2 4272   1.862   1.490  10.221
 1236SOL     OW 4273   0.221   1.314  11.154
 1236SOL    HW1 4274   0.156   1.241  11.133
 1236SOL    HW2 4275   0.225   1.328  11.252
 1237SOL     OW 4276   0.079   1.240   9.963
 1237SOL    HW1 4277   0.078   1.193  10.051
 1237SOL    HW2 4278   0.161   1.212   9.912
 1238SOL     OW 4279   0.672   1.391  10.934
 1238SOL    HW1 4280   0.594   1.341  10.972
 1238SOL    HW2 4281   0.669   1.486  10.965
 1239SOL     OW 4282   1.824   0.192  10.537
 1239SOL    HW1 4283   1.820   0.102  10.581
 1239SOL    HW2 4284   1.827   0.181  10.438
 1240SOL     OW 4285   0.428   0.424   9.830
 1240SOL    HW1 4286   0.458   0.352   9.768
 1240SOL    HW2 4287   0.389   0.384   9.913
 1241SOL     OW 4288   1.705   1.487  10.414
 1241SOL    HW1 4289   1.612   1.462  10.387
 1241SOL    HW2 4290   1.731   1.437  10.496
 1242SOL     OW 4291   0.317   0.547  10.590
 1242SOL    HW1 4292   0.355   0.488  10.662
 1242SOL    HW2 4293   0.357   0.521  10.502
 1243SOL     OW 4294   0.812   1.586   9.997
 1243SOL    HW1 4295   0.844   1.596   9.903
 1243SOL    HW2 4296   0.733   1.524   9.999
 1244SOL     OW 4297   1.424   0.214  10.422
 1244SOL    HW1 4298   1.476   0.149  10.477
 1244SOL    HW2 4299   1.375   0.277  10.483
 1245SOL     OW 4300   1.001   0.034  10.464
 1245SOL    HW1 4301   0.938  -0.038  10.433
 1245SOL    HW2 4302   1.094  -0.002  10.464
 1246SOL     OW 4303   0.770   1.330   9.611
 1246SOL    HW1 4304   0.724   1.243   9.628
 1246SOL    HW2 4305   0.861   1.327   9.652
 1247SOL     OW 4306   0.618   1.567  10.594
 1247SOL    HW1 4307   0.613   1.649  10.651
 1247SOL    HW2 4308   0.707   1.564  10.549
 1248SOL     OW 4309   1.352   0.052   9.478
 1248SOL    HW1 4310   1.387   0.011   9.394
 1248SOL    HW2 4311   1.262   0.014   9.498
 1249SOL     OW 4312   1.300   0.453  10.001
 1249SOL    HW1 4313   1.241   0.533  10.005
 1249SOL    HW2 4314   1.315   0.418  10.094
 1250SOL     OW 4315   1.593   0.221  10.192
 1250SOL    HW1 4316   1.509   0.220  10.246
 1250SOL    HW2 4317   1.595   0.304  10.136
 1251SOL     OW 4318   0.039   1.077   9.610
 1251SOL    HW1 4319   0.138   1.066   9.601
 1251SOL    HW2 4320  -0.001   0.991   9.642
 1252SOL     OW 4321   0.875   1.646   9.647
 1252SOL    HW1 4322   0.798   1.611   9.593
 1252SOL    HW2 4323   0.843   1.717   9.709
 1253SOL     OW 4324   0.230   0.628  11.285
 1253SOL    HW1 4325   0.137   0.626  11.322
 1253SOL    HW2 4326   0.231   0.589  11.193
 1254SOL     OW 4327   0.225   0.275  12.168
 1254SOL    HW1 4328   0.260   0.258  12.260
 1254SOL    HW2 4329   0.137   0.230  12.156
 1255SOL     OW 4330   0.019   0.368  11.819
 1255SOL    HW1 4331  -0.063   0.411  11.858
 1255SOL    HW2 4332  -0.009   0.295  11.756
 1256SOL     OW 4333   0.569   1.275  12.337
 1256SOL    HW1 4334   0.476   1.268  12.300
 1256SOL    HW2 4335   0.580   1.364  12.381
 1257SOL     OW 4336   1.555   1.511  11.875
 1257SOL    HW1 4337   1.498   1.495  11.956
 1257SOL    HW2 4338   1.496   1.521  11.795
 1258SOL     OW 4339   1.135   0.703  11.889
 1258SOL    HW1 4340   1.192   0.781  11.864
 1258SOL    HW2 4341   1.075   0.729  11.965
 1259SOL     OW 4342   1.755   0.607  11.403
 1259SOL    HW1 4343   1.743   0.594  11.304
 1259SOL    HW2 4344   1.725   0.526  11.452
 1260SOL     OW 4345   0.768   1.144  12.195
 1260SOL    HW1 4346   0.690   1.161  12.255
 1260SOL    HW2 4347   0.802   1.231  12.159
 1261SOL     OW 4348   0.850   0.798  12.995
 1261SOL    HW1 4349   0.846   0.874  13.060
 1261SOL    HW2 4350   0.872   0.834  12.904
 1262SOL     OW 4351   0.685   1.012  11.837
 1262SOL    HW1 4352   0.754   0.996  11.907
 1262SOL    HW2 4353   0.612   1.069  11.875
 1263SOL     OW 4354   0.686   1.161  12.975
 1263SOL    HW1 4355   0.746   1.240  12.989
 1263SOL    HW2 4356   0.600   1.192  12.934
 1264SOL     OW 4357   0.335   1.435  12.233
 1264SOL    HW1 4358   0.257   1.404  12.180
 1264SOL    HW2 4359   0.393   1.493  12.176
 1265SOL     OW 4360   1.460   1.505  12.511
 1265SOL    HW1 4361   1.484   1.599  12.537
 1265SOL    HW2 4362   1.444   1.451  12.593
 1266SOL     OW 4363   0.438   0.392  12.671
 1266SOL    HW1 4364   0.520   0.336  12.680
 1266SOL    HW2 4365   0.357   0.334  12.675
 1267SOL     OW 4366   1.603   0.447  11.909
 1267SOL    HW1 4367   1.529   0.493  11.859
 1267SOL    HW2 4368   1.654   0.515  11.962
 1268SOL     OW 4369   0.231   1.713  11.655
 1268SOL    HW1 4370   0.265   1.790  11.709
 1268SOL    HW2 4371   0.275   1.713  11.565
 1269SOL     OW 4372   1.127   1.341  12.862
 1269SOL    HW1 4373   1.174   1.341  12.950
 1269SOL    HW2 4374   1.079   1.254  12.851
 1270SOL     OW 4375   0.230   1.434  11.710
 1270SOL    HW1 4376   0.204   1.530  11.710
 1270SOL    HW2 4377   0.159   1.380  11.755
 1271SOL     OW 4378   0.240   1.091  12.058
 1271SOL    HW1 4379   0.254   1.007  12.110
 1271SOL    HW2 4380   0.185   1.155  12.113
 1272SOL     OW 4381   0.620   1.786  12.611
 1272SOL    HW1 4382   0.528   1.769  12.646
 1272SOL    HW2 4383   0.648   1.878  12.637
 1273SOL     OW 4384   0.606   0.964  11.295
 1273SOL    HW1 4385   0.613   1.048  11.241
 1273SOL    HW2 4386   0.652   0.977  11.383
 1274SOL     OW 4387   1.594   0.114  12.652
 1274SOL    HW1 4388   1.576   0.181  12.580
 1274SOL    HW2 4389   1.591   0.160  12.741
 1275SOL     OW 4390   0.122   0.643  11.735
 1275SOL    HW1 4391   0.077   0.555  11.752
 1275SOL    HW2 4392   0.121   0.697  11.819
 1276SOL     OW 4393   0.027   1.596  11.289
 1276SOL    HW1 4394   0.008   1.500  11.310
 1276SOL    HW2 4395  -0.006   1.654  11.364
 1277SOL     OW 4396   1.689   0.922  11.784
 1277SOL    HW1 4397   1.784   0.893  11.792
 1277SOL    HW2 4398   1.681   0.987  11.709
 1278SOL     OW 4399   1.641   1.108  11.604
 1278SOL    HW1 4400   1.727   1.110  11.552
 1278SOL    HW2 4401   1.655   1.155  11.692
 1279SOL     OW 4402   0.113   0.737  12.769
 1279SOL    HW1 4403   0.201   0.724  12.814
 1279SOL    HW2 4404   0.100   0.834  12.747
 1280SOL     OW 4405   0.613   1.365  11.898
 1280SOL    HW1 4406   0.564   1.278  11.907
 1280SOL    HW2 4407   0.590   1.408  11.811
 1281SOL     OW 4408   1.293   1.228  12.595
 1281SOL    HW1 4409   1.330   1.155  12.537
 1281SOL    HW2 4410   1.345   1.233  12.680
 1282SOL     OW 4411   0.809   0.004  11.674
 1282SOL    HW1 4412   0.849   0.095  11.665
 1282SOL    HW2 4413   0.709   0.012  11.680
 1283SOL     OW 4414   0.197   0.976  12.436
 1283SOL    HW1 4415   0.286   0.931  12.422
 1283SOL    HW2 4416   0.124   0.911  12.417
 1284SOL     OW 4417   1.525   0.999  11.362
 1284SOL    HW1 4418   1.462   0.923  11.375
 1284SOL    HW2 4419   1.573   1.017  11.448
 1285SOL     OW 4420   1.187   1.792  12.788
 1285SOL    HW1 4421   1.211   1.852  12.712
 1285SOL    HW2 4422   1.194   1.697  12.758
 1286SOL     OW 4423   0.317   0.251  12.973
 1286SOL    HW1 4424   0.388   0.322  12.979
 1286SOL    HW2 4425   0.229   0.290  13.001
 1287SOL     OW 4426   1.466   1.417  12.125
 1287SOL    HW1 4427   1.407   1.423  12.205
 1287SOL    HW2 4428   1.451   1.329  12.079
 1288SOL     OW 4429   1.667   1.714  11.744
 1288SOL    HW1 4430   1.626   1.691  11.656
 1288SOL    HW2 4431   1.649   1.640  11.809
 1289SOL     OW 4432   0.598   0.729  11.442
 1289SOL    HW1 4433   0.622   0.798  11.374
 1289SOL    HW2 4434   0.520   0.762  11.496
 1290SOL     OW 4435   1.281   0.345  12.116
 1290SOL    HW1 4436   1.195   0.295  12.103
 1290SOL    HW2 4437   1.343   0.291  12.172
 1291SOL     OW 4438   1.576   1.662  11.479
 1291SOL    HW1 4439   1.665   1.708  11.482
 1291SOL    HW2 4440   1.555   1.638  11.384
 1292SOL     OW 4441   0.807   0.605  12.637
 1292SOL    HW1 4442   0.760   0.602  12.726
 1292SOL    HW2 4443   0.756   0.550  12.571
 1293SOL     OW 4444   1.394   0.469  12.846
 1293SOL    HW1 4445   1.374   0.512  12.934
 1293SOL    HW2 4446   1.472   0.407  12.855
 1294SOL     OW 4447   0.973   0.890  12.744
 1294SOL    HW1 4448   1.019   0.806  12.715
 1294SOL    HW2 4449   0.917   0.924  12.669
 1295SOL     OW 4450   0.991   0.410  12.414
 1295SOL    HW1 4451   0.914   0.444  12.468
 1295SOL    HW2 4452   0.957   0.359  12.335
 1296SOL     OW 4453   1.041   0.701  11.601
 1296SOL    HW1 4454   1.067   0.697  11.697
 1296SOL    HW2 4455   0.956   0.650  11.587
 1297SOL     OW 4456   0.076   0.811  11.961
 1297SOL    HW1 4457   0.175   0.799  11.970
 1297SOL    HW2 4458   0.052   0.906  11.982
 1298SOL     OW 4459   0.130   1.821  12.743
 1298SOL    HW1 4460   0.120   1.806  12.842
 1298SOL    HW2 4461   0.044   1.857  12.707
 1299SOL     OW 4462   0.865   0.348  11.367
 1299SOL    HW1 4463   0.924   0.411  11.318
 1299SOL    HW2 4464   0.884   0.254  11.338
 1300SOL     OW 4465   1.719   0.585  13.003
 1300SOL    HW1 4466   1.693   0.674  12.967
 1300SOL    HW2 4467   1.717   0.517  12.930
 1301SOL     OW 4468   1.362   1.144  11.717
 1301SOL    HW1 4469   1.445   1.115  11.669
 1301SOL    HW2 4470   1.313   1.211  11.661
 1302SOL     OW 4471   0.550   0.196  12.057
 1302SOL    HW1 4472   0.545   0.191  12.157
 1302SOL    HW2 4473   0.552   0.292  12.028
 1303SOL     OW 4474   1.008   1.456  11.649
 1303SOL    HW1 4475   0.962   1.528  11.597
 1303SOL    HW2 4476   1.004   1.476  11.747
 1304SOL     OW 4477   0.351   1.801  12.025
 1304SOL    HW1 4478   0.401   1.715  12.031
 1304SOL    HW2 4479   0.416   1.878  12.022
 1305SOL     OW 4480   1.795   1.066  12.045
 1305SOL    HW1 4481   1.733   1.051  11.969
 1305SOL    HW2 4482   1.743   1.077  12.130
 1306SOL     OW 4483   1.227   1.550  12.678
 1306SOL    HW1 4484   1.233   1.473  12.742
 1306SOL    HW2 4485   1.175   1.524  12.598
 1307SOL     OW 4486   0.321   0.943  11.414
 1307SOL    HW1 4487   0.403   0.982  11.372
 1307SOL    HW2 4488   0.294   0.861  11.365
 1308SOL     OW 4489   1.458   0.735  11.900
 1308SOL    HW1 4490   1.453   0.670  11.975
 1308SOL    HW2 4491   1.538   0.794  11.913
 1309SOL     OW 4492   0.461   1.266  12.899
 1309SOL    HW1 4493   0.411   1.267  12.813
 1309SOL    HW2 4494   0.398   1.248  12.975
 1310SOL     OW 4495   1.111   1.776  11.409
 1310SOL    HW1 4496   1.051   1.714  11.459
 1310SOL    HW2 4497   1.142   1.732  11.324
 1311SOL     OW 4498   0.202   0.285  12.670
 1311SOL    HW1 4499   0.122   0.345  12.657
 1311SOL    HW2 4500   0.192   0.236  12.756
 1312SOL     OW 4501   1.632   1.377  11.253
 1312SOL    HW1 4502   1.600   1.471  11.243
 1312SOL    HW2 4503   1.556   1.314  11.241
 1313SOL     OW 4504   0.464   1.743  11.495
 1313SOL    HW1 4505   0.497   1.782  11.581
 1313SOL    HW2 4506   0.540   1.736  11.430
 1314SOL     OW 4507   1.400   0.107  11.598
 1314SOL    HW1 4508   1.376   0.070  11.508
 1314SOL    HW2 4509   1.499   0.123  11.602
 1315SOL     OW 4510   0.249   1.785  12.413
 1315SOL    HW1 4511   0.306   1.720  12.463
 1315SOL    HW2 4512   0.233   1.752  12.320
 1316SOL     OW 4513   0.940   1.698  12.076
 1316SOL    HW1 4514   1.020   1.641  12.097
 1316SOL    HW2 4515   0.891   1.658  11.999
 1317SOL     OW 4516   0.382   0.700  11.652
 1317SOL    HW1 4517   0.427   0.610  11.649
 1317SOL    HW2 4518   0.288   0.689  11.685
 1318SOL     OW 4519   1.547   0.222  12.901
 1318SOL    HW1 4520   1.542   0.259  12.993
 1318SOL    HW2 4521   1.475   0.153  12.889
 1319SOL     OW 4522   0.614   0.122  11.289
 1319SOL    HW1 4523   0.712   0.100  11.296
 1319SOL    HW2 4524   0.583   0.105  11.196
 1320SOL     OW 4525   0.781   0.264  12.921
 1320SOL    HW1 4526   0.848   0.203  12.964
 1320SOL    HW2 4527   0.708   0.283  12.986
 1321SOL     OW 4528   0.888   1.514  12.367
 1321SOL    HW1 4529   0.865   1.489  12.273
 1321SOL    HW2 4530   0.949   1.445  12.406
 1322SOL     OW 4531   1.351   0.590  12.605
 1322SOL    HW1 4532   1.379   0.547  12.690
 1322SOL    HW2 4533   1.376   0.686  12.606
 1323SOL     OW 4534   0.803   1.402  12.096
 1323SOL    HW1 4535   0.893   1.416  12.054
 1323SOL    HW2 4536   0.732   1.404  12.025
 1324SOL     OW 4537   0.922   0.503  12.071
 1324SOL    HW1 4538   0.897   0.494  11.975
 1324SOL    HW2 4539   0.970   0.421  12.102
 1325SOL     OW 4540   0.539   0.064  11.684
 1325SOL    HW1 4541   0.458   0.065  11.742
 1325SOL    HW2 4542   0.542   0.147  11.629
 1326SOL     OW 4543   1.434   1.188  11.213
 1326SOL    HW1 4544   1.466   1.112  11.270
 1326SOL    HW2 4545   1.342   1.215  11.243
 1327SOL     OW 4546   0.297   0.035  11.343
 1327SOL    HW1 4547   0.346   0.119  11.322
 1327SOL    HW2 4548   0.359  -0.030  11.388
 1328SOL     OW 4549   0.935   0.236  11.652
 1328SOL    HW1 4550   0.887   0.277  11.574
 1328SOL    HW2 4551   1.034   0.234  11.633
 1329SOL     OW 4552   1.076   0.683  12.636
 1329SOL    HW1 4553   0.996   0.622  12.639
 1329SOL    HW2 4554   1.157   0.630  12.612
 1330SOL     OW 4555   1.227   1.570  11.965
 1330SOL    HW1 4556   1.248   1.644  11.900
 1330SOL    HW2 4557   1.295   1.570  12.038
 1331SOL     OW 4558   0.459   1.152  11.913
 1331SOL    HW1 4559   0.388   1.125  11.978
 1331SOL    HW2 4560   0.433   1.124  11.820
 1332SOL     OW 4561   1.271   1.797  11.763
 1332SOL    HW1 4562   1.315   1.861  11.699
 1332SOL    HW2 4563   1.221   1.849  11.833
 1333SOL     OW 4564   1.032   0.549  11.188
 1333SOL    HW1 4565   0.991   0.631  11.149
 1333SOL    HW2 4566   1.096   0.575  11.261
 1334SOL     OW 4567   0.078   0.556  12.558
 1334SOL    HW1 4568   0.170   0.555  12.517
 1334SOL    HW2 4569   0.072   0.630  12.625
 1335SOL     OW 4570   0.561   0.222  12.319
 1335SOL    HW1 4571   0.599   0.138  12.356
 1335SOL    HW2 4572   0.473   0.241  12.363
 1336SOL     OW 4573   0.866   0.454  11.814
 1336SOL    HW1 4574   0.834   0.526  11.752
 1336SOL    HW2 4575   0.890   0.373  11.761
 1337SOL     OW 4576   1.017   0.039  11.925
 1337SOL    HW1 4577   0.945   0.044  11.856
 1337SOL    HW2 4578   0.993  -0.030  11.994
 1338SOL     OW 4579   1.429   1.173  12.039
 1338SOL    HW1 4580   1.374   1.089  12.032
 1338SOL    HW2 4581   1.455   1.202  11.947
 1339SOL     OW 4582   1.466   0.590  12.164
 1339SOL    HW1 4583   1.436   0.495  12.171
 1339SOL    HW2 4584   1.539   0.606  12.230
 1340SOL     OW 4585   1.857   0.833  11.549
 1340SOL    HW1 4586   1.899   0.769  11.613
 1340SOL    HW2 4587   1.819   0.782  11.471
 1341SOL     OW 4588   0.488   1.385  11.346
 1341SOL    HW1 4589   0.401   1.370  11.393
 1341SOL    HW2 4590   0.471   1.411  11.251
 1342SOL     OW 4591   1.664   1.280  11.829
 1342SOL    HW1 4592   1.763   1.288  11.843
 1342SOL    HW2 4593   1.619   1.364  11.860
 1343SOL     OW 4594   1.390   0.575  11.250
 1343SOL    HW1 4595   1.336   0.554  11.331
 1343SOL    HW2 4596   1.481   0.534  11.259
 1344SOL     OW 4597   0.527   0.256  11.500
 1344SOL    HW1 4598   0.554   0.197  11.425
 1344SOL    HW2 4599   0.527   0.351  11.469
 1345SOL     OW 4600   1.754   1.223  12.760
 1345SOL    HW1 4601   1.845   1.184  12.747
 1345SOL    HW2 4602   1.762   1.319  12.784
 1346SOL     OW 4603   1.064   1.347  12.512
 1346SOL    HW1 4604   0.984   1.324  12.567
 1346SOL    HW2 4605   1.147   1.321  12.561
 1347SOL     OW 4606   1.592   1.629  12.797
 1347SOL    HW1 4607   1.619   1.663  12.707
 1347SOL    HW2 4608   1.671   1.591  12.843
 1348SOL     OW 4609   1.111   1.195  12.272
 1348SOL    HW1 4610   1.071   1.239  12.353
 1348SOL    HW2 4611   1.070   1.232  12.189
 1349SOL     OW 4612   1.638   1.099  12.251
 1349SOL    HW1 4613   1.643   1.180  12.310
 1349SOL    HW2 4614   1.552   1.101  12.200
 1350SOL     OW 4615   0.915   0.089  12.574
 1350SOL    HW1 4616   0.940   0.069  12.479
 1350SOL    HW2 4617   0.987   0.145  12.616
 1351SOL     OW 4618   0.980   1.116  12.891
 1351SOL    HW1 4619   0.881   1.122  12.901
 1351SOL    HW2 4620   1.003   1.036  12.835
 1352SOL     OW 4621   0.705   1.050  11.540
 1352SOL    HW1 4622   0.691   1.057  11.639
 1352SOL    HW2 4623   0.789   0.999  11.522
 1353SOL     OW 4624   0.410   0.813  12.423
 1353SOL    HW1 4625   0.496   0.825  12.473
 1353SOL    HW2 4626   0.368   0.726  12.450
 1354SOL     OW 4627   1.274   0.386  12.434
 1354SOL    HW1 4628   1.295   0.460  12.498
 1354SOL    HW2 4629   1.185   0.403  12.391
 1355SOL     OW 4630   0.064   1.564  12.503
 1355SOL    HW1 4631   0.018   1.646  12.469
 1355SOL    HW2 4632   0.162   1.583  12.512
 1356SOL     OW 4633   0.367   1.100  11.673
 1356SOL    HW1 4634   0.360   1.183  11.617
 1356SOL    HW2 4635   0.371   1.020  11.613
 1357SOL     OW 4636   0.566   0.537  12.037
 1357SOL    HW1 4637   0.578   0.603  11.963
 1357SOL    HW2 4638   0.612   0.571  12.120
 1358SOL     OW 4639   1.252   1.348  11.560
 1358SOL    HW1 4640   1.302   1.425  11.600
 1358SOL    HW2 4641   1.157   1.350  11.592
 1359SOL     OW 4642   1.272   1.445  12.314
 1359SOL    HW1 4643   1.319   1.458  12.401
 1359SOL    HW2 4644   1.206   1.371  12.323
 1360SOL     OW 4645   1.582   0.639  11.644
 1360SOL    HW1 4646   1.551   0.700  11.717
 1360SOL    HW2 4647   1.632   0.691  11.575
 1361SOL     OW 4648   0.354   1.510  12.501
 1361SOL    HW1 4649   0.333   1.466  12.414
 1361SOL    HW2 4650   0.451   1.536  12.504
 1362SOL     OW 4651   0.402   0.751  12.770
 1362SOL    HW1 4652   0.470   0.806  12.723
 1362SOL    HW2 4653   0.442   0.663  12.797
 1363SOL     OW 4654   1.587   0.779  12.842
 1363SOL    HW1 4655   1.495   0.817  12.837
 1363SOL    HW2 4656   1.647   0.826  12.777
 1364SOL     OW 4657   1.013   0.105  12.942
 1364SOL    HW1 4658   1.019   0.190  12.890
 1364SOL    HW2 4659   1.045   0.029  12.885
 1365SOL     OW 4660   0.504   0.050  12.912
 1365SOL    HW1 4661   0.462  -0.007  12.842
 1365SOL    HW2 4662   0.438   0.119  12.944
 1366SOL     OW 4663   0.573   0.870  12.201
 1366SOL    HW1 4664   0.617   0.959  12.192
 1366SOL    HW2 4665   0.510   0.870  12.278
 1367SOL     OW 4666   1.360   0.862  12.217
 1367SOL    HW1 4667   1.285   0.862  12.151
 1367SOL    HW2 4668   1.397   0.770  12.226
 1368SOL     OW 4669   1.209   0.525  11.447
 1368SOL    HW1 4670   1.222   0.441  11.501
 1368SOL    HW2 4671   1.180   0.599  11.507
 1369SOL     OW 4672   0.307   0.213  12.403
 1369SOL    HW1 4673   0.284   0.250  12.493
 1369SOL    HW2 4674   0.277   0.118  12.397
 1370SOL     OW 4675   0.037   1.310  12.454
 1370SOL    HW1 4676   0.090   1.261  12.522
 1370SOL    HW2 4677   0.059   1.408  12.459
 1371SOL     OW 4678   0.732   0.634  12.236
 1371SOL    HW1 4679   0.791   0.608  12.160
 1371SOL    HW2 4680   0.704   0.730  12.225
 1372SOL     OW 4681   1.728   0.935  13.026
 1372SOL    HW1 4682   1.682   0.928  12.937
 1372SOL    HW2 4683   1.666   0.979  13.092
 1373SOL     OW 4684   0.307   0.063  11.790
 1373SOL    HW1 4685   0.296   0.157  11.823
 1373SOL    HW2 4686   0.302   0.000  11.867
 1374SOL     OW 4687   1.622   0.367  11.546
 1374SOL    HW1 4688   1.624   0.291  11.610
 1374SOL    HW2 4689   1.574   0.444  11.586
 1375SOL     OW 4690   1.023   0.766  12.138
 1375SOL    HW1 4691   1.038   0.787  12.234
 1375SOL    HW2 4692   0.993   0.671  12.129
 1376SOL     OW 4693   0.980   1.573  12.872
 1376SOL    HW1 4694   0.960   1.617  12.784
 1376SOL    HW2 4695   1.019   1.482  12.856
 1377SOL     OW 4696   1.859   1.518  12.777
 1377SOL    HW1 4697   1.873   1.545  12.682
 1377SOL    HW2 4698   1.942   1.540  12.830
 1378SOL     OW 4699   0.350   0.898  12.976
 1378SOL    HW1 4700   0.426   0.942  13.024
 1378SOL    HW2 4701   0.385   0.851  12.894
 1379SOL     OW 4702   1.540   0.274  11.297
 1379SOL    HW1 4703   1.479   0.199  11.320
 1379SOL    HW2 4704   1.562   0.326  11.380
 1380SOL     OW 4705   1.303   0.838  11.214
 1380SOL    HW1 4706   1.337   0.745  11.229
 1380SOL    HW2 4707   1.321   0.865  11.119
 1381SOL     OW 4708   1.068   1.333  12.021
 1381SOL    HW1 4709   1.075   1.249  11.966
 1381SOL    HW2 4710   1.130   1.402  11.985
 1382SOL     OW 4711   0.319   0.810  12.121
 1382SOL    HW1 4712   0.412   0.846  12.126
 1382SOL    HW2 4713   0.313   0.725  12.173
 1383SOL     OW 4714   0.339   0.509  12.178
 1383SOL    HW1 4715   0.287   0.426  12.161
 1383SOL    HW2 4716   0.416   0.514  12.114
 1384SOL     OW 4717   1.138   0.380  12.850
 1384SOL    HW1 4718   1.093   0.443  12.914
 1384SOL    HW2 4719   1.231   0.411  12.833
 1385SOL     OW 4720   1.160   0.207  12.649
 1385SOL    HW1 4721   1.160   0.271  12.726
 1385SOL    HW2 4722   1.188   0.255  12.566
 1386SOL     OW 4723   0.008   1.326  11.372
 1386SOL    HW1 4724  -0.085   1.347  11.341
 1386SOL    HW2 4725   0.018   1.227  11.385
 1387SOL     OW 4726   0.088   1.801  12.099
 1387SOL    HW1 4727   0.046   1.715  12.072
 1387SOL    HW2 4728   0.182   1.804  12.065
 1388SOL     OW 4729   0.504   1.568  12.082
 1388SOL    HW1 4730   0.570   1.642  12.091
 1388SOL    HW2 4731   0.548   1.489  12.040
 1389SOL     OW 4732   1.002   0.796  12.410
 1389SOL    HW1 4733   1.043   0.764  12.496
 1389SOL    HW2 4734   0.906   0.769  12.407
 1390SOL     OW 4735   0.040   0.544  12.286
 1390SOL    HW1 4736   0.125   0.511  12.245
 1390SOL    HW2 4737   0.053   0.559  12.384
 1391SOL     OW 4738   0.189   0.520  12.894
 1391SOL    HW1 4739   0.248   0.480  12.824
 1391SOL    HW2 4740   0.131   0.591  12.853
 1392SOL     OW 4741   1.369   0.950  12.832
 1392SOL    HW1 4742   1.408   1.039  12.852
 1392SOL    HW2 4743   1.379   0.930  12.735
 1393SOL     OW 4744   0.815   0.572  11.497
 1393SOL    HW1 4745   0.822   0.483  11.451
 1393SOL    HW2 4746   0.721   0.606  11.489
 1394SOL     OW 4747   1.657   0.604  12.378
 1394SOL    HW1 4748   1.619   0.535  12.440
 1394SOL    HW2 4749   1.739   0.568  12.334
 1395SOL     OW 4750   0.252   1.564  12.916
 1395SOL    HW1 4751   0.222   1.621  12.992
 1395SOL    HW2 4752   0.245   1.467  12.942
 1396SOL     OW 4753   0.671   0.464  12.441
 1396SOL    HW1 4754   0.637   0.375  12.411
 1396SOL    HW2 4755   0.697   0.518  12.361
 1397SOL     OW 4756   0.930   1.678  12.637
 1397SOL    HW1 4757   0.906   1.660  12.542
 1397SOL    HW2 4758   0.960   1.772  12.647
 1398SOL     OW 4759   0.473   0.500  11.363
 1398SOL    HW1 4760   0.534   0.580  11.367
 1398SOL    HW2 4761   0.378   0.531  11.370
 1399SOL     OW 4762   0.159   1.137  12.638
 1399SOL    HW1 4763   0.181   1.076  12.714
 1399SOL    HW2 4764   0.169   1.088  12.552
 1400SOL     OW 4765   1.347   1.059  12.406
 1400SOL    HW1 4766   1.371   0.996  12.332
 1400SOL    HW2 4767   1.257   1.099  12.388
 1401SOL     OW 4768   1.302   0.855  11.481
 1401SOL    HW1 4769   1.216   0.824  11.523
 1401SOL    HW2 4770   1.298   0.841  11.382
 1402SOL     OW 4771   1.759   1.747  12.326
 1402SOL    HW1 4772   1.820   1.777  12.253
 1402SOL    HW2 4773   1.721   1.658  12.304
 1403SOL     OW 4774   1.252   1.731  12.300
 1403SOL    HW1 4775   1.336   1.736  12.246
 1403SOL    HW2 4776   1.229   1.635  12.318
 1404SOL     OW 4777   0.083   1.258  12.194
 1404SOL    HW1 4778   0.078   1.257  12.294
 1404SOL    HW2 4779   0.000   1.217  12.156
 1405SOL     OW 4780   0.688   1.662  12.888
 1405SOL    HW1 4781   0.632   1.743  12.897
 1405SOL    HW2 4782   0.740   1.666  12.802
 1406SOL     OW 4783   1.726   0.135  11.695
 1406SOL    HW1 4784   1.799   0.118  11.628
 1406SOL    HW2 4785   1.695   0.048  11.733
 1407SOL     OW 4786   1.388   1.573  11.649
 1407SOL    HW1 4787   1.455   1.585  11.575
 1407SOL    HW2 4788   1.348   1.662  11.672
 1408SOL     OW 4789   0.130   1.794  13.023
 1408SOL    HW1 4790   0.089   1.720  13.076
 1408SOL    HW2 4791   0.194   1.845  13.081
 1409SOL     OW 4792   1.280   0.927  11.844
 1409SOL    HW1 4793   1.340   0.846  11.846
 1409SOL    HW2 4794   1.320   0.996  11.784
 1410SOL     OW 4795   0.830   1.273  12.594
 1410SOL    HW1 4796   0.825   1.306  12.689
 1410SOL    HW2 4797   0.744   1.292  12.548
 1411SOL     OW 4798   0.672   1.616  11.326
 1411SOL    HW1 4799   0.681   1.626  11.227
 1411SOL    HW2 4800   0.632   1.527  11.347
 1412SOL     OW 4801   1.650   1.720  12.566
 1412SOL    HW1 4802   1.703   1.730  12.482
 1412SOL    HW2 4803   1.623   1.810  12.600
 1413SOL     OW 4804   1.841   0.175  12.135
 1413SOL    HW1 4805   1.880   0.090  12.099
 1413SOL    HW2 4806   1.743   0.177  12.116
 1414SOL     OW 4807   0.263   0.326  11.892
 1414SOL    HW1 4808   0.184   0.377  11.858
 1414SOL    HW2 4809   0.254   0.311  11.990
 1415SOL     OW 4810   1.194   1.612  11.203
 1415SOL    HW1 4811   1.200   1.519  11.240
 1415SOL    HW2 4812   1.135   1.612  11.123
 1416SOL     OW 4813   0.822   1.002  12.544
 1416SOL    HW1 4814   0.862   1.001  12.452
 1416SOL    HW2 4815   0.832   1.094  12.584
 1417SOL     OW 4816   0.916   0.910  11.463
 1417SOL    HW1 4817   0.979   0.948  11.395
 1417SOL    HW2 4818   0.956   0.827  11.502
 1418SOL     OW 4819   1.504   1.607  11.216
 1418SOL    HW1 4820   1.412   1.644  11.223
 1418SOL    HW2 4821   1.542   1.627  11.126
 1419SOL     OW 4822   0.372   1.288  12.662
 1419SOL    HW1 4823   0.359   1.381  12.628
 1419SOL    HW2 4824   0.288   1.236  12.649
 1420SOL     OW 4825   1.614   1.292  12.461
 1420SOL    HW1 4826   1.674   1.295  12.541
 1420SOL    HW2 4827   1.539   1.356  12.474
 1421SOL     OW 4828   1.039   1.098  11.868
 1421SOL    HW1 4829   0.969   1.051  11.922
 1421SOL    HW2 4830   1.098   1.030  11.825
 1422SOL     OW 4831   1.014   0.236  12.143
 1422SOL    HW1 4832   1.006   0.200  12.050
 1422SOL    HW2 4833   1.012   0.160  12.208
 1423SOL     OW 4834   0.590   1.487  11.663
 1423SOL    HW1 4835   0.632   1.429  11.593
 1423SOL    HW2 4836   0.546   1.566  11.619
 1424SOL     OW 4837   1.709   0.385  12.553
 1424SOL    HW1 4838   1.782   0.454  12.557
 1424SOL    HW2 4839   1.737   0.310  12.494
 1425SOL     OW 4840   0.255   1.348  11.462
 1425SOL    HW1 4841   0.159   1.349  11.435
 1425SOL    HW2 4842   0.267   1.401  11.546
 1426SOL     OW 4843   0.105   1.013  12.898
 1426SOL    HW1 4844   0.028   0.980  12.952
 1426SOL    HW2 4845   0.190   0.983  12.940
 1427SOL     OW 4846   0.672   0.203  12.661
 1427SOL    HW1 4847   0.762   0.187  12.621
 1427SOL    HW2 4848   0.680   0.208  12.760
 1428SOL     OW 4849   0.075   0.345  11.205
 1428SOL    HW1 4850  -0.017   0.317  11.176
 1428SOL    HW2 4851   0.106   0.422  11.149
 1429SOL     OW 4852   1.440   0.856  12.570
 1429SOL    HW1 4853   1.383   0.908  12.507
 1429SOL    HW2 4854   1.536   0.868  12.546
 1430SOL     OW 4855   0.072   0.166  11.490
 1430SOL    HW1 4856   0.055   0.249  11.436
 1430SOL    HW2 4857   0.162   0.129  11.468
 1431SOL     OW 4858   1.183   1.335  11.291
 1431SOL    HW1 4859   1.084   1.324  11.293
 1431SOL    HW2 4860   1.217   1.350  11.384
 1432SOL     OW 4861   0.613   0.842  12.603
 1432SOL    HW1 4862   0.669   0.923  12.586
 1432SOL    HW2 4863   0.672   0.762  12.606
 1433SOL     OW 4864   1.493   1.767  12.131
 1433SOL    HW1 4865   1.526   1.831  12.062
 1433SOL    HW2 4866   1.559   1.761  12.206
 1434SOL     OW 4867   0.716   0.565  12.880
 1434SOL    HW1 4868   0.735   0.630  12.954
 1434SOL    HW2 4869   0.776   0.485  12.889
 1435SOL     OW 4870   1.450   1.220  12.805
 1435SOL    HW1 4871   1.441   1.210  12.904
 1435SOL    HW2 4872   1.546   1.213  12.779
 1436SOL     OW 4873   0.390   1.741  12.732
 1436SOL    HW1 4874   0.299   1.782  12.730
 1436SOL    HW2 4875   0.383   1.647  12.764
 1437SOL     OW 4876   1.674   0.883  12.426
 1437SOL    HW1 4877   1.647   0.794  12.389
 1437SOL    HW2 4878   1.675   0.951  12.353
 1438SOL     OW 4879   1.225   0.325  11.621
 1438SOL    HW1 4880   1.290   0.251  11.610
 1438SOL    HW2 4881   1.245   0.375  11.705
 1439SOL     OW 4882   0.594   0.745  11.824
 1439SOL    HW1 4883   0.644   0.830  11.805
 1439SOL    HW2 4884   0.506   0.747  11.776
 1440SOL     OW 4885   1.777   0.342  12.814
 1440SOL    HW1 4886   1.760   0.373  12.720
 1440SOL    HW2 4887   1.693   0.305  12.852
 1441SOL     OW 4888   1.730   0.934  12.689
 1441SOL    HW1 4889   1.768   1.025  12.704
 1441SOL    HW2 4890   1.722   0.917  12.590
 1442SOL     OW 4891   0.859   1.374  11.188
 1442SOL    HW1 4892   0.813   1.389  11.276
 1442SOL    HW2 4893   0.903   1.459  11.158
 1443SOL     OW 4894   0.661   1.790  12.125
 1443SOL    HW1 4895   0.615   1.878  12.112
 1443SOL    HW2 4896   0.760   1.802  12.118
 1444SOL     OW 4897   0.859   0.956  12.033
 1444SOL    HW1 4898   0.913   0.887  12.081
 1444SOL    HW2 4899   0.827   1.025  12.099
 1445SOL     OW 4900   1.083   0.984  11.259
 1445SOL    HW1 4901   1.060   1.037  11.177
 1445SOL    HW2 4902   1.164   0.928  11.240
 1446SOL     OW 4903   1.861   1.569  12.023
 1446SOL    HW1 4904   1.790   1.557  11.953
 1446SOL    HW2 4905   1.862   1.490  12.083
 1447SOL     OW 4906   0.221   1.314  13.016
 1447SOL    HW1 4907   0.156   1.241  12.995
 1447SOL    HW2 4908   0.225   1.328  13.114
 1448SOL     OW 4909   0.079   1.240  11.825
 1448SOL    HW1 4910   0.078   1.193  11.913
 1448SOL    HW2 4911   0.161   1.212  11.774
 1449SOL     OW 4912   0.672   1.391  12.796
 1449SOL    HW1 4913   0.594   1.341  12.834
 1449SOL    HW2 4914   0.669   1.486  12.827
 1450SOL     OW 4915   1.824   0.192  12.399
 1450SOL    HW1 4916   1.820   0.102  12.443
 1450SOL    HW2 4917   1.827   0.181  12.300
 1451SOL     OW 4918   0.428   0.424  11.692
 1451SOL    HW1 4919   0.458   0.352  11.630
 1451SOL    HW2 4920   0.389   0.384  11.775
 1452SOL     OW 4921   1.705   1.487  12.276
 1452SOL    HW1 4922   1.612   1.462  12.249
 1452SOL    HW2 4923   1.731   1.437  12.358
 1453SOL     OW 4924   0.317   0.547  12.452
 1453SOL    HW1 4925   0.355   0.488  12.524
 1453SOL    HW2 4926   0.357   0.521  12.364
 1454SOL     OW 4927   0.812   1.586  11.859
 1454SOL    HW1 4928   0.844   1.596  11.765
 1454SOL    HW2 4929   0.733   1.524  11.861
 1455SOL     OW 4930   1.424   0.214  12.284
 1455SOL    HW1 4931   1.476   0.149  12.339
 1455SOL    HW2 4932   1.375   0.277  12.345
 1456SOL     OW 4933   1.001   0.034  12.326
 1456SOL    HW1 4934   0.938  -0.038  12.295
 1456SOL    HW2 4935   1.094  -0.002  12.326
 1457SOL     OW 4936   0.770   1.330  11.473
 1457SOL    HW1 4937   0.724   1.243  11.490
 1457SOL    HW2 4938   0.861   1.327  11.514
 1458SOL     OW 4939   0.618   1.567  12.456
 1458SOL    HW1 4940   0.613   1.649  12.513
 1458SOL    HW2 4941   0.707   1.564  12.411
 1459SOL     OW 4942   1.352   0.052  11.340
 1459SOL    HW1 4943   1.387   0.011  11.256
 1459SOL    HW2 4944   1.262   0.014  11.360
 1460SOL     OW 4945   1.300   0.453  11.863
 1460SOL    HW1 4946   1.241   0.533  11.867
 1460SOL    HW2 4947   1.315   0.418  11.956
 1461SOL     OW 4948   1.593   0.221  12.054
 1461SOL    HW1 4949   1.509   0.220  12.108
 1461SOL    HW2 4950   1.595   0.304  11.998
 1462SOL     OW 4951   0.039   1.077  11.472
 1462SOL    HW1 4952   0.138   1.066  11.463
 1462SOL    HW2 4953  -0.001   0.991  11.504
 1463SOL     OW 4954   0.875   1.646  11.509
 1463SOL    HW1 4955   0.798   1.611  11.455
 1463SOL    HW2 4956   0.843   1.717  11.571
 1464SOL     OW 4957   0.230   0.628  13.147
 1464SOL    HW1 4958   0.137   0.626  13.184
 1464SOL    HW2 4959   0.231   0.589  13.055
 1465SOL     OW 4960   0.225   0.275  14.030
 1465SOL    HW1 4961   0.260   0.258  14.122
 1465SOL    HW2 4962   0.137   0.230  14.018
 1466SOL     OW 4963   0.019   0.368  13.681
 1466SOL    HW1 4964  -0.063   0.411  13.720
 1466SOL    HW2 4965  -0.009   0.295  13.618
 1467SOL     OW 4966   1.555   1.511  13.737
 1467SOL    HW1 4967   1.498   1.495  13.818
 1467SOL    HW2 4968   1.496   1.521  13.657
 1468SOL     OW 4969   1.135   0.703  13.751
 1468SOL    HW1 4970   1.192   0.781  13.726
 1468SOL    HW2 4971   1.075   0.729  13.827
 1469SOL     OW 4972   1.755   0.607  13.265
 1469SOL    HW1 4973   1.743   0.594  13.166
 1469SOL    HW2 4974   1.725   0.526  13.314
 1470SOL     OW 4975   0.685   1.012  13.699
 1470SOL    HW1 4976   0.754   0.996  13.769
 1470SOL    HW2 4977   0.612   1.069  13.737
 1471SOL     OW 4978   1.603   0.447  13.771
 1471SOL    HW1 4979   1.529   0.493  13.721
 1471SOL    HW2 4980   1.654   0.515  13.824
 1472SOL     OW 4981   0.231   1.713  13.517
 1472SOL    HW1 4982   0.265   1.790  13.571
 1472SOL    HW2 4983   0.275   1.713  13.427
 1473SOL     OW 4984   0.230   1.434  13.572
 1473SOL    HW1 4985   0.204   1.530  13.572
 1473SOL    HW2 4986   0.159   1.380  13.617
 1474SOL     OW 4987   0.240   1.091  13.920
 1474SOL    HW1 4988   0.254   1.007  13.972
 1474SOL    HW2 4989   0.185   1.155  13.975
 1475SOL     OW 4990   0.606   0.964  13.157
 1475SOL    HW1 4991   0.613   1.048  13.103
 1475SOL    HW2 4992   0.652   0.977  13.245
 1476SOL     OW 4993   0.122   0.643  13.597
 1476SOL    HW1 4994   0.077   0.555  13.614
 1476SOL    HW2 4995   0.121   0.697  13.681
 1477SOL     OW 4996   0.027   1.596  13.151
 1477SOL    HW1 4997   0.008   1.500  13.172
 1477SOL    HW2 4998  -0.006   1.654  13.226
 1478SOL     OW 4999   1.689   0.922  13.646
 1478SOL    HW1 5000   1.784   0.893  13.654
 1478SOL    HW2 5001   1.681   0.987  13.571
 1479SOL     OW 5002   1.641   1.108  13.466
 1479SOL    HW1 5003   1.727   1.110  13.414
 1479SOL    HW2 5004   1.655   1.155  13.554
 1480SOL     OW 5005   0.613   1.365  13.760
 1480SOL    HW1 5006   0.564   1.278  13.769
 1480SOL    HW2 5007   0.590   1.408  13.673
 1481SOL     OW 5008   0.809   0.004  13.536
 1481SOL    HW1 5009   0.849   0.095  13.527
 1481SOL    HW2 5010   0.709   0.012  13.542
 1482SOL     OW 5011   1.525   0.999  13.224
 1482SOL    HW1 5012   1.462   0.923  13.237
 1482SOL    HW2 5013   1.573   1.017  13.310
 1483SOL     OW 5014   1.667   1.714  13.606
 1483SOL    HW1 5015   1.626   1.691  13.518
 1483SOL    HW2 5016   1.649   1.640  13.671
 1484SOL     OW 5017   0.598   0.729  13.304
 1484SOL    HW1 5018   0.622   0.798  13.236
 1484SOL    HW2 5019   0.520   0.762  13.358
 1485SOL     OW 5020   1.281   0.345  13.978
 1485SOL    HW1 5021   1.195   0.295  13.965
 1485SOL    HW2 5022   1.343   0.291  14.034
 1486SOL     OW 5023   1.576   1.662  13.341
 1486SOL    HW1 5024   1.665   1.708  13.344
 1486SOL    HW2 5025   1.555   1.638  13.246
 1487SOL     OW 5026   1.041   0.701  13.463
 1487SOL    HW1 5027   1.067   0.697  13.559
 1487SOL    HW2 5028   0.956   0.650  13.449
 1488SOL     OW 5029   0.076   0.811  13.823
 1488SOL    HW1 5030   0.175   0.799  13.832
 1488SOL    HW2 5031   0.052   0.906  13.844
 1489SOL     OW 5032   0.865   0.348  13.229
 1489SOL    HW1 5033   0.924   0.411  13.180
 1489SOL    HW2 5034   0.884   0.254  13.200
 1490SOL     OW 5035   1.362   1.144  13.579
 1490SOL    HW1 5036   1.445   1.115  13.531
 1490SOL    HW2 5037   1.313   1.211  13.523
 1491SOL     OW 5038   1.008   1.456  13.511
 1491SOL    HW1 5039   0.962   1.528  13.459
 1491SOL    HW2 5040   1.004   1.476  13.609
 1492SOL     OW 5041   0.351   1.801  13.887
 1492SOL    HW1 5042   0.401   1.715  13.893
 1492SOL    HW2 5043   0.416   1.878  13.884
 1493SOL     OW 5044   1.795   1.066  13.907
 1493SOL    HW1 5045   1.733   1.051  13.831
 1493SOL    HW2 5046   1.743   1.077  13.992
 1494SOL     OW 5047   0.321   0.943  13.276
 1494SOL    HW1 5048   0.403   0.982  13.234
 1494SOL    HW2 5049   0.294   0.861  13.227
 1495SOL     OW 5050   1.458   0.735  13.762
 1495SOL    HW1 5051   1.453   0.670  13.837
 1495SOL    HW2 5052   1.538   0.794  13.775
 1496SOL     OW 5053   1.111   1.776  13.271
 1496SOL    HW1 5054   1.051   1.714  13.321
 1496SOL    HW2 5055   1.142   1.732  13.186
 1497SOL     OW 5056   1.632   1.377  13.115
 1497SOL    HW1 5057   1.600   1.471  13.105
 1497SOL    HW2 5058   1.556   1.314  13.103
 1498SOL     OW 5059   0.464   1.743  13.357
 1498SOL    HW1 5060   0.497   1.782  13.443
 1498SOL    HW2 5061   0.540   1.736  13.292
 1499SOL     OW 5062   1.400   0.107  13.460
 1499SOL    HW1 5063   1.376   0.070  13.370
 1499SOL    HW2 5064   1.499   0.123  13.464
 1500SOL     OW 5065   0.940   1.698  13.938
 1500SOL    HW1 5066   1.020   1.641  13.959
 1500SOL    HW2 5067   0.891   1.658  13.861
 1501SOL     OW 5068   0.382   0.700  13.514
 1501SOL    HW1 5069   0.427   0.610  13.511
 1501SOL    HW2 5070   0.288   0.689  13.547
 1502SOL     OW 5071   0.614   0.122  13.151
 1502SOL    HW1 5072   0.712   0.100  13.158
 1502SOL    HW2 5073   0.583   0.105  13.058
 1503SOL     OW 5074   0.539   0.064  13.546
 1503SOL    HW1 5075   0.458   0.065  13.604
 1503SOL    HW2 5076   0.542   0.147  13.491
 1504SOL     OW 5077   1.434   1.188  13.075
 1504SOL    HW1 5078   1.466   1.112  13.132
 1504SOL    HW2 5079   1.342   1.215  13.105
 1505SOL     OW 5080   0.297   0.035  13.205
 1505SOL    HW1 5081   0.346   0.119  13.184
 1505SOL    HW2 5082   0.359  -0.030  13.250
 1506SOL     OW 5083   0.935   0.236  13.514
 1506SOL    HW1 5084   0.887   0.277  13.436
 1506SOL    HW2 5085   1.034   0.234  13.495
 1507SOL     OW 5086   0.459   1.152  13.775
 1507SOL    HW1 5087   0.388   1.125  13.840
 1507SOL    HW2 5088   0.433   1.124  13.682
 1508SOL     OW 5089   1.271   1.797  13.625
 1508SOL    HW1 5090   1.315   1.861  13.561
 1508SOL    HW2 5091   1.221   1.849  13.695
 1509SOL     OW 5092   1.032   0.549  13.050
 1509SOL    HW1 5093   0.991   0.631  13.011
 1509SOL    HW2 5094   1.096   0.575  13.123
 1510SOL     OW 5095   0.866   0.454  13.676
 1510SOL    HW1 5096   0.834   0.526  13.614
 1510SOL    HW2 5097   0.890   0.373  13.623
 1511SOL     OW 5098   1.017   0.039  13.787
 1511SOL    HW1 5099   0.945   0.044  13.718
 1511SOL    HW2 5100   0.993  -0.030  13.856
 1512SOL     OW 5101   1.857   0.833  13.411
 1512SOL    HW1 5102   1.899   0.769  13.475
 1512SOL    HW2 5103   1.819   0.782  13.333
 1513SOL     OW 5104   0.488   1.385  13.208
 1513SOL    HW1 5105   0.401   1.370  13.255
 1513SOL    HW2 5106   0.471   1.411  13.113
 1514SOL     OW 5107   1.664   1.280  13.691
 1514SOL    HW1 5108   1.763   1.288  13.705
 1514SOL    HW2 5109   1.619   1.364  13.722
 1515SOL     OW 5110   1.390   0.575  13.112
 1515SOL    HW1 5111   1.336   0.554  13.193
 1515SOL    HW2 5112   1.481   0.534  13.121
 1516SOL     OW 5113   0.527   0.256  13.362
 1516SOL    HW1 5114   0.554   0.197  13.287
 1516SOL    HW2 5115   0.527   0.351  13.331
 1517SOL     OW 5116   0.705   1.050  13.402
 1517SOL    HW1 5117   0.691   1.057  13.501
 1517SOL    HW2 5118   0.789   0.999  13.384
 1518SOL     OW 5119   0.367   1.100  13.535
 1518SOL    HW1 5120   0.360   1.183  13.479
 1518SOL    HW2 5121   0.371   1.020  13.475
 1519SOL     OW 5122   0.566   0.537  13.899
 1519SOL    HW1 5123   0.578   0.603  13.825
 1519SOL    HW2 5124   0.612   0.571  13.982
 1520SOL     OW 5125   1.252   1.348  13.422
 1520SOL    HW1 5126   1.302   1.425  13.462
 1520SOL    HW2 5127   1.157   1.350  13.454
 1521SOL     OW 5128   1.582   0.639  13.506
 1521SOL    HW1 5129   1.551   0.700  13.579
 1521SOL    HW2 5130   1.632   0.691  13.437
 1522SOL     OW 5131   1.209   0.525  13.309
 1522SOL    HW1 5132   1.222   0.441  13.363
 1522SOL    HW2 5133   1.180   0.599  13.369
 1523SOL     OW 5134   0.307   0.063  13.652
 1523SOL    HW1 5135   0.296   0.157  13.685
 1523SOL    HW2 5136   0.302   0.000  13.729
 1524SOL     OW 5137   1.622   0.367  13.408
 1524SOL    HW1 5138   1.624   0.291  13.472
 1524SOL    HW2 5139   1.574   0.444  13.448
 1525SOL     OW 5140   1.540   0.274  13.159
 1525SOL    HW1 5141   1.479   0.199  13.182
 1525SOL    HW2 5142   1.562   0.326  13.242
 1526SOL     OW 5143   1.303   0.838  13.076
 1526SOL    HW1 5144   1.337   0.745  13.091
 1526SOL    HW2 5145   1.321   0.865  12.981
 1527SOL     OW 5146   0.008   1.326  13.234
 1527SOL    HW1 5147  -0.085   1.347  13.203
 1527SOL    HW2 5148   0.018   1.227  13.247
 1528SOL     OW 5149   0.815   0.572  13.359
 1528SOL    HW1 5150   0.822   0.483  13.313
 1528SOL    HW2 5151   0.721   0.606  13.351
 1529SOL     OW 5152   0.473   0.500  13.225
 1529SOL    HW1 5153   0.534   0.580  13.229
 1529SOL    HW2 5154   0.378   0.531  13.232
 1530SOL     OW 5155   1.302   0.855  13.343
 1530SOL    HW1 5156   1.216   0.824  13.385
 1530SOL    HW2 5157   1.298   0.841  13.244
 1531SOL     OW 5158   1.726   0.135  13.557
 1531SOL    HW1 5159   1.799   0.118  13.490
 1531SOL    HW2 5160   1.695   0.048  13.595
 1532SOL     OW 5161   1.388   1.573  13.511
 1532SOL    HW1 5162   1.455   1.585  13.437
 1532SOL    HW2 5163   1.348   1.662  13.534
 1533SOL     OW 5164   1.280   0.927  13.706
 1533SOL    HW1 5165   1.340   0.846  13.708
 1533SOL    HW2 5166   1.320   0.996  13.646
 1534SOL     OW 5167   0.672   1.616  13.188
 1534SOL    HW1 5168   0.681   1.626  13.089
 1534SOL    HW2 5169   0.632   1.527  13.209
 1535SOL     OW 5170   1.841   0.175  13.997
 1535SOL    HW1 5171   1.880   0.090  13.961
 1535SOL    HW2 5172   1.743   0.177  13.978
 1536SOL     OW 5173   0.263   0.326  13.754
 1536SOL    HW1 5174   0.184   0.377  13.720
 1536SOL    HW2 5175   0.254   0.311  13.852
 1537SOL     OW 5176   1.194   1.612  13.065
 1537SOL    HW1 5177   1.200   1.519  13.102
 1537SOL    HW2 5178   1.135   1.612  12.985
 1538SOL     OW 5179   0.916   0.910  13.325
 1538SOL    HW1 5180   0.979   0.948  13.257
 1538SOL    HW2 5181   0.956   0.827  13.364
 1539SOL     OW 5182   1.504   1.607  13.078
 1539SOL    HW1 5183   1.412   1.644  13.085
 1539SOL    HW2 5184   1.542   1.627  12.988
 1540SOL     OW 5185   1.039   1.098  13.730
 1540SOL    HW1 5186   0.969   1.051  13.784
 1540SOL    HW2 5187   1.098   1.030  13.687
 1541SOL     OW 5188   0.590   1.487  13.525
 1541SOL    HW1 5189   0.632   1.429  13.455
 1541SOL    HW2 5190   0.546   1.566  13.481
 1542SOL     OW 5191   0.255   1.348  13.324
 1542SOL    HW1 5192   0.159   1.349  13.297
 1542SOL    HW2 5193   0.267   1.401  13.408
 1543SOL     OW 5194   0.075   0.345  13.067
 1543SOL    HW1 5195  -0.017   0.317  13.038
 1543SOL    HW2 5196   0.106   0.422  13.011
 1544SOL     OW 5197   0.072   0.166  13.352
 1544SOL    HW1 5198   0.055   0.249  13.298
 1544SOL    HW2 5199   0.162   0.129  13.330
 1545SOL     OW 5200   1.183   1.335  13.153
 1545SOL    HW1 5201   1.084   1.324  13.155
 1545SOL    HW2 5202   1.217   1.350  13.246
 1546SOL     OW 5203   1.225   0.325  13.483
 1546SOL    HW1 5204   1.290   0.251  13.472
 1546SOL    HW2 5205   1.245   0.375  13.567
 1547SOL     OW 5206   0.594   0.745  13.686
 1547SOL    HW1 5207   0.644   0.830  13.667
 1547SOL    HW2 5208   0.506   0.747  13.638
 1548SOL     OW 5209   0.859   1.374  13.050
 1548SOL    HW1 5210   0.813   1.389  13.138
 1548SOL    HW2 5211   0.903   1.459  13.020
 1549SOL     OW 5212   0.661   1.790  13.987
 1549SOL    HW1 5213   0.615   1.878  13.974
 1549SOL    HW2 5214   0.760   1.802  13.980
 1550SOL     OW 5215   0.859   0.956  13.895
 1550SOL    HW1 5216   0.913   0.887  13.943
 1550SOL    HW2 5217   0.827   1.025  13.961
 1551SOL     OW 5218   1.083   0.984  13.121
 1551SOL    HW1 5219   1.060   1.037  13.039
 1551SOL    HW2 5220   1.164   0.928  13.102
 1552SOL     OW 5221   0.079   1.240  13.687
 1552SOL    HW1 5222   0.078   1.193  13.775
 1552SOL    HW2 5223   0.161   1.212  13.636
 1553SOL     OW 5224   0.428   0.424  13.554
 1553SOL    HW1 5225   0.458   0.352  13.492
 1553SOL    HW2 5226   0.389   0.384  13.637
 1554SOL     OW 5227   1.705   1.487  14.138
 1554SOL    HW1 5228   1.612   1.462  14.111
 1554SOL    HW2 5229   1.731   1.437  14.220
 1555SOL     OW 5230   0.812   1.586  13.721
 1555SOL    HW1 5231   0.844   1.596  13.627
 1555SOL    HW2 5232   0.733   1.524  13.723
 1556SOL     OW 5233   0.770   1.330  13.335
 1556SOL    HW1 5234   0.724   1.243  13.352
 1556SOL    HW2 5235   0.861   1.327  13.376
 1557SOL     OW 5236   1.352   0.052  13.202
 1557SOL    HW1 5237   1.387   0.011  13.118
 1557SOL    HW2 5238   1.262   0.014  13.222
 1558SOL     OW 5239   1.300   0.453  13.725
 1558SOL    HW1 5240   1.241   0.533  13.729
 1558SOL    HW2 5241   1.315   0.418  13.818
 1559SOL     OW 5242   0.039   1.077  13.334
 1559SOL    HW1 5243   0.138   1.066  13.325
 1559SOL    HW2 5244  -0.001   0.991  13.366
 1560SOL     OW 5245   0.875   1.646  13.371
 1560SOL    HW1 5246   0.798   1.611  13.317
 1560SOL    HW2 5247   0.843   1.717  13.433
 1561SOL     OW 5248   0.230   2.490   0.113
 1561SOL    HW1 5249   0.137   2.488   0.150
 1561SOL    HW2 5250   0.231   2.451   0.021
 1562SOL     OW 5251   0.225   2.137   0.996
 1562SOL    HW1 5252   0.260   2.120   1.088
 1562SOL    HW2 5253   0.137   2.092   0.984
 1563SOL     OW 5254   0.019   2.230   0.647
 1563SOL    HW1 5255  -0.063   2.273   0.686
 1563SOL    HW2 5256  -0.009   2.157   0.584
 1564SOL     OW 5257   0.569   3.137   1.165
 1564SOL    HW1 5258   0.476   3.130   1.128
 1564SOL    HW2 5259   0.580   3.226   1.209
 1565SOL     OW 5260   1.555   3.373   0.703
 1565SOL    HW1 5261   1.498   3.357   0.784
 1565SOL    HW2 5262   1.496   3.383   0.623
 1566SOL     OW 5263   1.135   2.565   0.717
 1566SOL    HW1 5264   1.192   2.643   0.692
 1566SOL    HW2 5265   1.075   2.591   0.793
 1567SOL     OW 5266   1.755   2.469   0.231
 1567SOL    HW1 5267   1.743   2.456   0.132
 1567SOL    HW2 5268   1.725   2.388   0.280
 1568SOL     OW 5269   0.768   3.006   1.023
 1568SOL    HW1 5270   0.690   3.023   1.083
 1568SOL    HW2 5271   0.802   3.093   0.987
 1569SOL     OW 5272   0.850   2.660   1.823
 1569SOL    HW1 5273   0.846   2.736   1.888
 1569SOL    HW2 5274   0.872   2.696   1.732
 1570SOL     OW 5275   0.685   2.874   0.665
 1570SOL    HW1 5276   0.754   2.858   0.735
 1570SOL    HW2 5277   0.612   2.931   0.703
 1571SOL     OW 5278   0.686   3.023   1.803
 1571SOL    HW1 5279   0.746   3.102   1.817
 1571SOL    HW2 5280   0.600   3.054   1.762
 1572SOL     OW 5281   0.335   3.297   1.061
 1572SOL    HW1 5282   0.257   3.266   1.008
 1572SOL    HW2 5283   0.393   3.355   1.004
 1573SOL     OW 5284   1.460   3.367   1.339
 1573SOL    HW1 5285   1.484   3.461   1.365
 1573SOL    HW2 5286   1.444   3.313   1.421
 1574SOL     OW 5287   0.438   2.254   1.499
 1574SOL    HW1 5288   0.520   2.198   1.508
 1574SOL    HW2 5289   0.357   2.196   1.503
 1575SOL     OW 5290   1.603   2.309   0.737
 1575SOL    HW1 5291   1.529   2.355   0.687
 1575SOL    HW2 5292   1.654   2.377   0.790
 1576SOL     OW 5293   0.231   3.575   0.483
 1576SOL    HW1 5294   0.265   3.652   0.537
 1576SOL    HW2 5295   0.275   3.575   0.393
 1577SOL     OW 5296   1.127   3.203   1.690
 1577SOL    HW1 5297   1.174   3.203   1.778
 1577SOL    HW2 5298   1.079   3.116   1.679
 1578SOL     OW 5299   0.230   3.296   0.538
 1578SOL    HW1 5300   0.204   3.392   0.538
 1578SOL    HW2 5301   0.159   3.242   0.583
 1579SOL     OW 5302   0.240   2.953   0.886
 1579SOL    HW1 5303   0.254   2.869   0.938
 1579SOL    HW2 5304   0.185   3.017   0.941
 1580SOL     OW 5305   0.620   3.648   1.439
 1580SOL    HW1 5306   0.528   3.631   1.474
 1580SOL    HW2 5307   0.648   3.740   1.465
 1581SOL     OW 5308   0.606   2.826   0.123
 1581SOL    HW1 5309   0.613   2.910   0.069
 1581SOL    HW2 5310   0.652   2.839   0.211
 1582SOL     OW 5311   1.594   1.976   1.480
 1582SOL    HW1 5312   1.576   2.043   1.408
 1582SOL    HW2 5313   1.591   2.022   1.569
 1583SOL     OW 5314   0.122   2.505   0.563
 1583SOL    HW1 5315   0.077   2.417   0.580
 1583SOL    HW2 5316   0.121   2.559   0.647
 1584SOL     OW 5317   1.842   3.629   0.359
 1584SOL    HW1 5318   1.896   3.600   0.439
 1584SOL    HW2 5319   1.872   3.719   0.330
 1585SOL     OW 5320   0.027   3.458   0.117
 1585SOL    HW1 5321   0.008   3.362   0.138
 1585SOL    HW2 5322  -0.006   3.516   0.192
 1586SOL     OW 5323   1.689   2.784   0.612
 1586SOL    HW1 5324   1.784   2.755   0.620
 1586SOL    HW2 5325   1.681   2.849   0.537
 1587SOL     OW 5326   1.641   2.970   0.432
 1587SOL    HW1 5327   1.727   2.972   0.380
 1587SOL    HW2 5328   1.655   3.017   0.520
 1588SOL     OW 5329   0.113   2.599   1.597
 1588SOL    HW1 5330   0.201   2.586   1.642
 1588SOL    HW2 5331   0.100   2.696   1.575
 1589SOL     OW 5332   0.613   3.227   0.726
 1589SOL    HW1 5333   0.564   3.140   0.735
 1589SOL    HW2 5334   0.590   3.270   0.639
 1590SOL     OW 5335   1.293   3.090   1.423
 1590SOL    HW1 5336   1.330   3.017   1.365
 1590SOL    HW2 5337   1.345   3.095   1.508
 1591SOL     OW 5338   0.809   1.866   0.502
 1591SOL    HW1 5339   0.849   1.957   0.493
 1591SOL    HW2 5340   0.709   1.874   0.508
 1592SOL     OW 5341   0.197   2.838   1.264
 1592SOL    HW1 5342   0.286   2.793   1.250
 1592SOL    HW2 5343   0.124   2.773   1.245
 1593SOL     OW 5344   1.525   2.861   0.190
 1593SOL    HW1 5345   1.462   2.785   0.203
 1593SOL    HW2 5346   1.573   2.879   0.276
 1594SOL     OW 5347   1.187   3.654   1.616
 1594SOL    HW1 5348   1.211   3.714   1.540
 1594SOL    HW2 5349   1.194   3.559   1.586
 1595SOL     OW 5350   0.317   2.113   1.801
 1595SOL    HW1 5351   0.388   2.184   1.807
 1595SOL    HW2 5352   0.229   2.152   1.829
 1596SOL     OW 5353   1.466   3.279   0.953
 1596SOL    HW1 5354   1.407   3.285   1.033
 1596SOL    HW2 5355   1.451   3.191   0.907
 1597SOL     OW 5356   1.667   3.576   0.572
 1597SOL    HW1 5357   1.626   3.553   0.484
 1597SOL    HW2 5358   1.649   3.502   0.637
 1598SOL     OW 5359   0.598   2.591   0.270
 1598SOL    HW1 5360   0.622   2.660   0.202
 1598SOL    HW2 5361   0.520   2.624   0.324
 1599SOL     OW 5362   1.281   2.207   0.944
 1599SOL    HW1 5363   1.195   2.157   0.931
 1599SOL    HW2 5364   1.343   2.153   1.000
 1600SOL     OW 5365   1.576   3.524   0.307
 1600SOL    HW1 5366   1.665   3.570   0.310
 1600SOL    HW2 5367   1.555   3.500   0.212
 1601SOL     OW 5368   0.807   2.467   1.465
 1601SOL    HW1 5369   0.760   2.464   1.554
 1601SOL    HW2 5370   0.756   2.412   1.399
 1602SOL     OW 5371   1.394   2.331   1.674
 1602SOL    HW1 5372   1.374   2.374   1.762
 1602SOL    HW2 5373   1.472   2.269   1.683
 1603SOL     OW 5374   0.973   2.752   1.572
 1603SOL    HW1 5375   1.019   2.668   1.543
 1603SOL    HW2 5376   0.917   2.786   1.497
 1604SOL     OW 5377   0.991   2.272   1.242
 1604SOL    HW1 5378   0.914   2.306   1.296
 1604SOL    HW2 5379   0.957   2.221   1.163
 1605SOL     OW 5380   1.041   2.563   0.429
 1605SOL    HW1 5381   1.067   2.559   0.525
 1605SOL    HW2 5382   0.956   2.512   0.415
 1606SOL     OW 5383   0.076   2.673   0.789
 1606SOL    HW1 5384   0.175   2.661   0.798
 1606SOL    HW2 5385   0.052   2.768   0.810
 1607SOL     OW 5386   0.130   3.683   1.571
 1607SOL    HW1 5387   0.120   3.668   1.670
 1607SOL    HW2 5388   0.044   3.719   1.535
 1608SOL     OW 5389   0.865   2.210   0.195
 1608SOL    HW1 5390   0.924   2.273   0.146
 1608SOL    HW2 5391   0.884   2.116   0.166
 1609SOL     OW 5392   1.719   2.447   1.831
 1609SOL    HW1 5393   1.693   2.536   1.795
 1609SOL    HW2 5394   1.717   2.379   1.758
 1610SOL     OW 5395   1.362   3.006   0.545
 1610SOL    HW1 5396   1.445   2.977   0.497
 1610SOL    HW2 5397   1.313   3.073   0.489
 1611SOL     OW 5398   0.550   2.058   0.885
 1611SOL    HW1 5399   0.545   2.053   0.985
 1611SOL    HW2 5400   0.552   2.154   0.856
 1612SOL     OW 5401   1.008   3.318   0.477
 1612SOL    HW1 5402   0.962   3.390   0.425
 1612SOL    HW2 5403   1.004   3.338   0.575
 1613SOL     OW 5404   0.351   3.663   0.853
 1613SOL    HW1 5405   0.401   3.577   0.859
 1613SOL    HW2 5406   0.416   3.740   0.850
 1614SOL     OW 5407   1.795   2.928   0.873
 1614SOL    HW1 5408   1.733   2.913   0.797
 1614SOL    HW2 5409   1.743   2.939   0.958
 1615SOL     OW 5410   1.227   3.412   1.506
 1615SOL    HW1 5411   1.233   3.335   1.570
 1615SOL    HW2 5412   1.175   3.386   1.426
 1616SOL     OW 5413   0.321   2.805   0.242
 1616SOL    HW1 5414   0.403   2.844   0.200
 1616SOL    HW2 5415   0.294   2.723   0.193
 1617SOL     OW 5416   1.458   2.597   0.728
 1617SOL    HW1 5417   1.453   2.532   0.803
 1617SOL    HW2 5418   1.538   2.656   0.741
 1618SOL     OW 5419   0.461   3.128   1.727
 1618SOL    HW1 5420   0.411   3.129   1.641
 1618SOL    HW2 5421   0.398   3.110   1.803
 1619SOL     OW 5422   1.111   3.638   0.237
 1619SOL    HW1 5423   1.051   3.576   0.287
 1619SOL    HW2 5424   1.142   3.594   0.152
 1620SOL     OW 5425   0.202   2.147   1.498
 1620SOL    HW1 5426   0.122   2.207   1.485
 1620SOL    HW2 5427   0.192   2.098   1.584
 1621SOL     OW 5428   1.632   3.239   0.081
 1621SOL    HW1 5429   1.600   3.333   0.071
 1621SOL    HW2 5430   1.556   3.176   0.069
 1622SOL     OW 5431   0.464   3.605   0.323
 1622SOL    HW1 5432   0.497   3.644   0.409
 1622SOL    HW2 5433   0.540   3.598   0.258
 1623SOL     OW 5434   1.400   1.969   0.426
 1623SOL    HW1 5435   1.376   1.932   0.336
 1623SOL    HW2 5436   1.499   1.985   0.430
 1624SOL     OW 5437   0.249   3.647   1.241
 1624SOL    HW1 5438   0.306   3.582   1.291
 1624SOL    HW2 5439   0.233   3.614   1.148
 1625SOL     OW 5440   0.940   3.560   0.904
 1625SOL    HW1 5441   1.020   3.503   0.925
 1625SOL    HW2 5442   0.891   3.520   0.827
 1626SOL     OW 5443   0.382   2.562   0.480
 1626SOL    HW1 5444   0.427   2.472   0.477
 1626SOL    HW2 5445   0.288   2.551   0.513
 1627SOL     OW 5446   1.547   2.084   1.729
 1627SOL    HW1 5447   1.542   2.121   1.821
 1627SOL    HW2 5448   1.475   2.015   1.717
 1628SOL     OW 5449   0.781   2.126   1.749
 1628SOL    HW1 5450   0.848   2.065   1.792
 1628SOL    HW2 5451   0.708   2.145   1.814
 1629SOL     OW 5452   0.888   3.376   1.195
 1629SOL    HW1 5453   0.865   3.351   1.101
 1629SOL    HW2 5454   0.949   3.307   1.234
 1630SOL     OW 5455   1.351   2.452   1.433
 1630SOL    HW1 5456   1.379   2.409   1.518
 1630SOL    HW2 5457   1.376   2.548   1.434
 1631SOL     OW 5458   0.803   3.264   0.924
 1631SOL    HW1 5459   0.893   3.278   0.882
 1631SOL    HW2 5460   0.732   3.266   0.853
 1632SOL     OW 5461   0.922   2.365   0.899
 1632SOL    HW1 5462   0.897   2.356   0.803
 1632SOL    HW2 5463   0.970   2.283   0.930
 1633SOL     OW 5464   0.539   1.926   0.512
 1633SOL    HW1 5465   0.458   1.927   0.570
 1633SOL    HW2 5466   0.542   2.009   0.457
 1634SOL     OW 5467   1.434   3.050   0.041
 1634SOL    HW1 5468   1.466   2.974   0.098
 1634SOL    HW2 5469   1.342   3.077   0.071
 1635SOL     OW 5470   0.297   1.897   0.171
 1635SOL    HW1 5471   0.346   1.981   0.150
 1635SOL    HW2 5472   0.359   1.832   0.216
 1636SOL     OW 5473   0.935   2.098   0.480
 1636SOL    HW1 5474   0.887   2.139   0.402
 1636SOL    HW2 5475   1.034   2.096   0.461
 1637SOL     OW 5476   1.076   2.545   1.464
 1637SOL    HW1 5477   0.996   2.484   1.467
 1637SOL    HW2 5478   1.157   2.492   1.440
 1638SOL     OW 5479   1.227   3.432   0.793
 1638SOL    HW1 5480   1.248   3.506   0.728
 1638SOL    HW2 5481   1.295   3.432   0.866
 1639SOL     OW 5482   0.459   3.014   0.741
 1639SOL    HW1 5483   0.388   2.987   0.806
 1639SOL    HW2 5484   0.433   2.986   0.648
 1640SOL     OW 5485   1.271   3.659   0.591
 1640SOL    HW1 5486   1.315   3.723   0.527
 1640SOL    HW2 5487   1.221   3.711   0.661
 1641SOL     OW 5488   1.032   2.411   0.016
 1641SOL    HW1 5489   0.991   2.493  -0.023
 1641SOL    HW2 5490   1.096   2.437   0.089
 1642SOL     OW 5491   0.078   2.418   1.386
 1642SOL    HW1 5492   0.170   2.417   1.345
 1642SOL    HW2 5493   0.072   2.492   1.453
 1643SOL     OW 5494   0.561   2.084   1.147
 1643SOL    HW1 5495   0.599   2.000   1.184
 1643SOL    HW2 5496   0.473   2.103   1.191
 1644SOL     OW 5497   0.866   2.316   0.642
 1644SOL    HW1 5498   0.834   2.388   0.580
 1644SOL    HW2 5499   0.890   2.235   0.589
 1645SOL     OW 5500   1.017   1.901   0.753
 1645SOL    HW1 5501   0.945   1.906   0.684
 1645SOL    HW2 5502   0.993   1.832   0.822
 1646SOL     OW 5503   1.429   3.035   0.867
 1646SOL    HW1 5504   1.374   2.951   0.860
 1646SOL    HW2 5505   1.455   3.064   0.775
 1647SOL     OW 5506   1.466   2.452   0.992
 1647SOL    HW1 5507   1.436   2.357   0.999
 1647SOL    HW2 5508   1.539   2.468   1.058
 1648SOL     OW 5509   1.857   2.695   0.377
 1648SOL    HW1 5510   1.899   2.631   0.441
 1648SOL    HW2 5511   1.819   2.644   0.299
 1649SOL     OW 5512   0.488   3.247   0.174
 1649SOL    HW1 5513   0.401   3.232   0.221
 1649SOL    HW2 5514   0.471   3.273   0.079
 1650SOL     OW 5515   1.664   3.142   0.657
 1650SOL    HW1 5516   1.763   3.150   0.671
 1650SOL    HW2 5517   1.619   3.226   0.688
 1651SOL     OW 5518   1.390   2.437   0.078
 1651SOL    HW1 5519   1.336   2.416   0.159
 1651SOL    HW2 5520   1.481   2.396   0.087
 1652SOL     OW 5521   0.527   2.118   0.328
 1652SOL    HW1 5522   0.554   2.059   0.253
 1652SOL    HW2 5523   0.527   2.213   0.297
 1653SOL     OW 5524   1.754   3.085   1.588
 1653SOL    HW1 5525   1.845   3.046   1.575
 1653SOL    HW2 5526   1.762   3.181   1.612
 1654SOL     OW 5527   1.064   3.209   1.340
 1654SOL    HW1 5528   0.984   3.186   1.395
 1654SOL    HW2 5529   1.147   3.183   1.389
 1655SOL     OW 5530   1.592   3.491   1.625
 1655SOL    HW1 5531   1.619   3.525   1.535
 1655SOL    HW2 5532   1.671   3.453   1.671
 1656SOL     OW 5533   1.111   3.057   1.100
 1656SOL    HW1 5534   1.071   3.101   1.181
 1656SOL    HW2 5535   1.070   3.094   1.017
 1657SOL     OW 5536   1.638   2.961   1.079
 1657SOL    HW1 5537   1.643   3.042   1.138
 1657SOL    HW2 5538   1.552   2.963   1.028
 1658SOL     OW 5539   0.915   1.951   1.402
 1658SOL    HW1 5540   0.940   1.931   1.307
 1658SOL    HW2 5541   0.987   2.007   1.444
 1659SOL     OW 5542   0.980   2.978   1.719
 1659SOL    HW1 5543   0.881   2.984   1.729
 1659SOL    HW2 5544   1.003   2.898   1.663
 1660SOL     OW 5545   0.705   2.912   0.368
 1660SOL    HW1 5546   0.691   2.919   0.467
 1660SOL    HW2 5547   0.789   2.861   0.350
 1661SOL     OW 5548   0.410   2.675   1.251
 1661SOL    HW1 5549   0.496   2.687   1.301
 1661SOL    HW2 5550   0.368   2.588   1.278
 1662SOL     OW 5551   1.274   2.248   1.262
 1662SOL    HW1 5552   1.295   2.322   1.326
 1662SOL    HW2 5553   1.185   2.265   1.219
 1663SOL     OW 5554   0.064   3.426   1.331
 1663SOL    HW1 5555   0.018   3.508   1.297
 1663SOL    HW2 5556   0.162   3.445   1.340
 1664SOL     OW 5557   0.367   2.962   0.501
 1664SOL    HW1 5558   0.360   3.045   0.445
 1664SOL    HW2 5559   0.371   2.882   0.441
 1665SOL     OW 5560   0.566   2.399   0.865
 1665SOL    HW1 5561   0.578   2.465   0.791
 1665SOL    HW2 5562   0.612   2.433   0.948
 1666SOL     OW 5563   1.252   3.210   0.388
 1666SOL    HW1 5564   1.302   3.287   0.428
 1666SOL    HW2 5565   1.157   3.212   0.420
 1667SOL     OW 5566   1.272   3.307   1.142
 1667SOL    HW1 5567   1.319   3.320   1.229
 1667SOL    HW2 5568   1.206   3.233   1.151
 1668SOL     OW 5569   1.582   2.501   0.472
 1668SOL    HW1 5570   1.551   2.562   0.545
 1668SOL    HW2 5571   1.632   2.553   0.403
 1669SOL     OW 5572   0.354   3.372   1.329
 1669SOL    HW1 5573   0.333   3.328   1.242
 1669SOL    HW2 5574   0.451   3.398   1.332
 1670SOL     OW 5575   0.402   2.613   1.598
 1670SOL    HW1 5576   0.470   2.668   1.551
 1670SOL    HW2 5577   0.442   2.525   1.625
 1671SOL     OW 5578   1.587   2.641   1.670
 1671SOL    HW1 5579   1.495   2.679   1.665
 1671SOL    HW2 5580   1.647   2.688   1.605
 1672SOL     OW 5581   1.013   1.967   1.770
 1672SOL    HW1 5582   1.019   2.052   1.718
 1672SOL    HW2 5583   1.045   1.891   1.713
 1673SOL     OW 5584   0.504   1.912   1.740
 1673SOL    HW1 5585   0.462   1.855   1.670
 1673SOL    HW2 5586   0.438   1.981   1.772
 1674SOL     OW 5587   0.573   2.732   1.029
 1674SOL    HW1 5588   0.617   2.821   1.020
 1674SOL    HW2 5589   0.510   2.732   1.106
 1675SOL     OW 5590   1.360   2.724   1.045
 1675SOL    HW1 5591   1.285   2.724   0.979
 1675SOL    HW2 5592   1.397   2.632   1.054
 1676SOL     OW 5593   1.209   2.387   0.275
 1676SOL    HW1 5594   1.222   2.303   0.329
 1676SOL    HW2 5595   1.180   2.461   0.335
 1677SOL     OW 5596   0.307   2.075   1.231
 1677SOL    HW1 5597   0.284   2.112   1.321
 1677SOL    HW2 5598   0.277   1.980   1.225
 1678SOL     OW 5599   0.037   3.172   1.282
 1678SOL    HW1 5600   0.090   3.123   1.350
 1678SOL    HW2 5601   0.059   3.270   1.287
 1679SOL     OW 5602   0.732   2.496   1.064
 1679SOL    HW1 5603   0.791   2.470   0.988
 1679SOL    HW2 5604   0.704   2.592   1.053
 1680SOL     OW 5605   1.728   2.797   1.854
 1680SOL    HW1 5606   1.682   2.790   1.765
 1680SOL    HW2 5607   1.666   2.841   1.920
 1681SOL     OW 5608   0.307   1.925   0.618
 1681SOL    HW1 5609   0.296   2.019   0.651
 1681SOL    HW2 5610   0.302   1.862   0.695
 1682SOL     OW 5611   1.622   2.229   0.374
 1682SOL    HW1 5612   1.624   2.153   0.438
 1682SOL    HW2 5613   1.574   2.306   0.414
 1683SOL     OW 5614   1.023   2.628   0.966
 1683SOL    HW1 5615   1.038   2.649   1.062
 1683SOL    HW2 5616   0.993   2.533   0.957
 1684SOL     OW 5617   0.980   3.435   1.700
 1684SOL    HW1 5618   0.960   3.479   1.612
 1684SOL    HW2 5619   1.019   3.344   1.684
 1685SOL     OW 5620   1.859   3.380   1.605
 1685SOL    HW1 5621   1.873   3.407   1.510
 1685SOL    HW2 5622   1.942   3.402   1.658
 1686SOL     OW 5623   0.350   2.760   1.804
 1686SOL    HW1 5624   0.426   2.804   1.852
 1686SOL    HW2 5625   0.385   2.713   1.722
 1687SOL     OW 5626   1.540   2.136   0.125
 1687SOL    HW1 5627   1.479   2.061   0.148
 1687SOL    HW2 5628   1.562   2.188   0.208
 1688SOL     OW 5629   1.303   2.700   0.042
 1688SOL    HW1 5630   1.337   2.607   0.057
 1688SOL    HW2 5631   1.321   2.727  -0.053
 1689SOL     OW 5632   1.068   3.195   0.849
 1689SOL    HW1 5633   1.075   3.111   0.794
 1689SOL    HW2 5634   1.130   3.264   0.813
 1690SOL     OW 5635   0.319   2.672   0.949
 1690SOL    HW1 5636   0.412   2.708   0.954
 1690SOL    HW2 5637   0.313   2.587   1.001
 1691SOL     OW 5638   0.339   2.371   1.006
 1691SOL    HW1 5639   0.287   2.288   0.989
 1691SOL    HW2 5640   0.416   2.376   0.942
 1692SOL     OW 5641   1.138   2.242   1.678
 1692SOL    HW1 5642   1.093   2.305   1.742
 1692SOL    HW2 5643   1.231   2.273   1.661
 1693SOL     OW 5644   1.160   2.069   1.477
 1693SOL    HW1 5645   1.160   2.133   1.554
 1693SOL    HW2 5646   1.188   2.117   1.394
 1694SOL     OW 5647   0.008   3.188   0.200
 1694SOL    HW1 5648  -0.085   3.209   0.169
 1694SOL    HW2 5649   0.018   3.089   0.213
 1695SOL     OW 5650   0.088   3.663   0.927
 1695SOL    HW1 5651   0.046   3.577   0.900
 1695SOL    HW2 5652   0.182   3.666   0.893
 1696SOL     OW 5653   0.504   3.430   0.910
 1696SOL    HW1 5654   0.570   3.504   0.919
 1696SOL    HW2 5655   0.548   3.351   0.868
 1697SOL     OW 5656   1.002   2.658   1.238
 1697SOL    HW1 5657   1.043   2.626   1.324
 1697SOL    HW2 5658   0.906   2.631   1.235
 1698SOL     OW 5659   0.040   2.406   1.114
 1698SOL    HW1 5660   0.125   2.373   1.073
 1698SOL    HW2 5661   0.053   2.421   1.212
 1699SOL     OW 5662   0.189   2.382   1.722
 1699SOL    HW1 5663   0.248   2.342   1.652
 1699SOL    HW2 5664   0.131   2.453   1.681
 1700SOL     OW 5665   1.369   2.812   1.660
 1700SOL    HW1 5666   1.408   2.901   1.680
 1700SOL    HW2 5667   1.379   2.792   1.563
 1701SOL     OW 5668   0.815   2.434   0.325
 1701SOL    HW1 5669   0.822   2.345   0.279
 1701SOL    HW2 5670   0.721   2.468   0.317
 1702SOL     OW 5671   1.657   2.466   1.206
 1702SOL    HW1 5672   1.619   2.397   1.268
 1702SOL    HW2 5673   1.739   2.430   1.162
 1703SOL     OW 5674   0.252   3.426   1.744
 1703SOL    HW1 5675   0.222   3.483   1.820
 1703SOL    HW2 5676   0.245   3.329   1.770
 1704SOL     OW 5677   0.671   2.326   1.269
 1704SOL    HW1 5678   0.637   2.237   1.239
 1704SOL    HW2 5679   0.697   2.380   1.189
 1705SOL     OW 5680   0.930   3.540   1.465
 1705SOL    HW1 5681   0.906   3.522   1.370
 1705SOL    HW2 5682   0.960   3.634   1.475
 1706SOL     OW 5683   0.473   2.362   0.191
 1706SOL    HW1 5684   0.534   2.442   0.195
 1706SOL    HW2 5685   0.378   2.393   0.198
 1707SOL     OW 5686   0.159   2.999   1.466
 1707SOL    HW1 5687   0.181   2.938   1.542
 1707SOL    HW2 5688   0.169   2.950   1.380
 1708SOL     OW 5689   1.347   2.921   1.234
 1708SOL    HW1 5690   1.371   2.858   1.160
 1708SOL    HW2 5691   1.257   2.961   1.216
 1709SOL     OW 5692   1.302   2.717   0.309
 1709SOL    HW1 5693   1.216   2.686   0.351
 1709SOL    HW2 5694   1.298   2.703   0.210
 1710SOL     OW 5695   1.759   3.609   1.154
 1710SOL    HW1 5696   1.820   3.639   1.081
 1710SOL    HW2 5697   1.721   3.520   1.132
 1711SOL     OW 5698   1.252   3.593   1.128
 1711SOL    HW1 5699   1.336   3.598   1.074
 1711SOL    HW2 5700   1.229   3.497   1.146
 1712SOL     OW 5701   0.083   3.120   1.022
 1712SOL    HW1 5702   0.078   3.119   1.122
 1712SOL    HW2 5703   0.000   3.079   0.984
 1713SOL     OW 5704   0.688   3.524   1.716
 1713SOL    HW1 5705   0.632   3.605   1.725
 1713SOL    HW2 5706   0.740   3.528   1.630
 1714SOL     OW 5707   0.903   1.948   0.133
 1714SOL    HW1 5708   0.954   1.949   0.047
 1714SOL    HW2 5709   0.959   1.906   0.204
 1715SOL     OW 5710   1.388   3.435   0.477
 1715SOL    HW1 5711   1.455   3.447   0.403
 1715SOL    HW2 5712   1.348   3.524   0.500
 1716SOL     OW 5713   0.130   3.656   1.851
 1716SOL    HW1 5714   0.089   3.582   1.904
 1716SOL    HW2 5715   0.194   3.707   1.909
 1717SOL     OW 5716   1.280   2.789   0.672
 1717SOL    HW1 5717   1.340   2.708   0.674
 1717SOL    HW2 5718   1.320   2.858   0.612
 1718SOL     OW 5719   0.830   3.135   1.422
 1718SOL    HW1 5720   0.825   3.168   1.517
 1718SOL    HW2 5721   0.744   3.154   1.376
 1719SOL     OW 5722   0.672   3.478   0.154
 1719SOL    HW1 5723   0.681   3.488   0.055
 1719SOL    HW2 5724   0.632   3.389   0.175
 1720SOL     OW 5725   1.650   3.582   1.394
 1720SOL    HW1 5726   1.703   3.592   1.310
 1720SOL    HW2 5727   1.623   3.672   1.428
 1721SOL     OW 5728   0.263   2.188   0.720
 1721SOL    HW1 5729   0.184   2.239   0.686
 1721SOL    HW2 5730   0.254   2.173   0.818
 1722SOL     OW 5731   1.194   3.474   0.031
 1722SOL    HW1 5732   1.200   3.381   0.068
 1722SOL    HW2 5733   1.135   3.474  -0.049
 1723SOL     OW 5734   0.822   2.864   1.372
 1723SOL    HW1 5735   0.862   2.863   1.280
 1723SOL    HW2 5736   0.832   2.956   1.412
 1724SOL     OW 5737   0.916   2.772   0.291
 1724SOL    HW1 5738   0.979   2.810   0.223
 1724SOL    HW2 5739   0.956   2.689   0.330
 1725SOL     OW 5740   1.504   3.469   0.044
 1725SOL    HW1 5741   1.412   3.506   0.051
 1725SOL    HW2 5742   1.542   3.489  -0.046
 1726SOL     OW 5743   0.372   3.150   1.490
 1726SOL    HW1 5744   0.359   3.243   1.456
 1726SOL    HW2 5745   0.288   3.098   1.477
 1727SOL     OW 5746   1.614   3.154   1.289
 1727SOL    HW1 5747   1.674   3.157   1.369
 1727SOL    HW2 5748   1.539   3.218   1.302
 1728SOL     OW 5749   1.039   2.960   0.696
 1728SOL    HW1 5750   0.969   2.913   0.750
 1728SOL    HW2 5751   1.098   2.892   0.653
 1729SOL     OW 5752   1.014   2.098   0.971
 1729SOL    HW1 5753   1.006   2.062   0.878
 1729SOL    HW2 5754   1.012   2.022   1.036
 1730SOL     OW 5755   0.590   3.349   0.491
 1730SOL    HW1 5756   0.632   3.291   0.421
 1730SOL    HW2 5757   0.546   3.428   0.447
 1731SOL     OW 5758   1.709   2.247   1.381
 1731SOL    HW1 5759   1.782   2.316   1.385
 1731SOL    HW2 5760   1.737   2.172   1.322
 1732SOL     OW 5761   0.255   3.210   0.290
 1732SOL    HW1 5762   0.159   3.211   0.263
 1732SOL    HW2 5763   0.267   3.263   0.374
 1733SOL     OW 5764   0.105   2.875   1.726
 1733SOL    HW1 5765   0.028   2.842   1.780
 1733SOL    HW2 5766   0.190   2.845   1.768
 1734SOL     OW 5767   0.672   2.065   1.489
 1734SOL    HW1 5768   0.762   2.049   1.449
 1734SOL    HW2 5769   0.680   2.070   1.588
 1735SOL     OW 5770   0.075   2.207   0.033
 1735SOL    HW1 5771  -0.017   2.179   0.004
 1735SOL    HW2 5772   0.106   2.284  -0.023
 1736SOL     OW 5773   1.440   2.718   1.398
 1736SOL    HW1 5774   1.383   2.770   1.335
 1736SOL    HW2 5775   1.536   2.730   1.374
 1737SOL     OW 5776   0.072   2.028   0.318
 1737SOL    HW1 5777   0.055   2.111   0.264
 1737SOL    HW2 5778   0.162   1.991   0.296
 1738SOL     OW 5779   1.183   3.197   0.119
 1738SOL    HW1 5780   1.084   3.186   0.121
 1738SOL    HW2 5781   1.217   3.212   0.212
 1739SOL     OW 5782   0.613   2.704   1.431
 1739SOL    HW1 5783   0.669   2.785   1.414
 1739SOL    HW2 5784   0.672   2.624   1.434
 1740SOL     OW 5785   1.493   3.629   0.959
 1740SOL    HW1 5786   1.526   3.693   0.890
 1740SOL    HW2 5787   1.559   3.623   1.034
 1741SOL     OW 5788   0.716   2.427   1.708
 1741SOL    HW1 5789   0.735   2.492   1.782
 1741SOL    HW2 5790   0.776   2.347   1.717
 1742SOL     OW 5791   1.450   3.082   1.633
 1742SOL    HW1 5792   1.441   3.072   1.732
 1742SOL    HW2 5793   1.546   3.075   1.607
 1743SOL     OW 5794   0.390   3.603   1.560
 1743SOL    HW1 5795   0.299   3.644   1.558
 1743SOL    HW2 5796   0.383   3.509   1.592
 1744SOL     OW 5797   1.674   2.745   1.254
 1744SOL    HW1 5798   1.647   2.656   1.217
 1744SOL    HW2 5799   1.675   2.813   1.181
 1745SOL     OW 5800   1.225   2.187   0.449
 1745SOL    HW1 5801   1.290   2.113   0.438
 1745SOL    HW2 5802   1.245   2.237   0.533
 1746SOL     OW 5803   0.594   2.607   0.652
 1746SOL    HW1 5804   0.644   2.692   0.633
 1746SOL    HW2 5805   0.506   2.609   0.604
 1747SOL     OW 5806   1.777   2.204   1.642
 1747SOL    HW1 5807   1.760   2.235   1.548
 1747SOL    HW2 5808   1.693   2.167   1.680
 1748SOL     OW 5809   1.730   2.796   1.517
 1748SOL    HW1 5810   1.768   2.887   1.532
 1748SOL    HW2 5811   1.722   2.779   1.418
 1749SOL     OW 5812   0.859   3.236   0.016
 1749SOL    HW1 5813   0.813   3.251   0.104
 1749SOL    HW2 5814   0.903   3.321  -0.014
 1750SOL     OW 5815   0.661   3.652   0.953
 1750SOL    HW1 5816   0.615   3.740   0.940
 1750SOL    HW2 5817   0.760   3.664   0.946
 1751SOL     OW 5818   0.859   2.818   0.861
 1751SOL    HW1 5819   0.913   2.749   0.909
 1751SOL    HW2 5820   0.827   2.887   0.927
 1752SOL     OW 5821   1.083   2.846   0.087
 1752SOL    HW1 5822   1.060   2.899   0.005
 1752SOL    HW2 5823   1.164   2.790   0.068
 1753SOL     OW 5824   1.861   3.431   0.851
 1753SOL    HW1 5825   1.790   3.419   0.781
 1753SOL    HW2 5826   1.862   3.352   0.911
 1754SOL     OW 5827   0.221   3.176   1.844
 1754SOL    HW1 5828   0.156   3.103   1.823
 1754SOL    HW2 5829   0.225   3.190   1.942
 1755SOL     OW 5830   0.079   3.102   0.653
 1755SOL    HW1 5831   0.078   3.055   0.741
 1755SOL    HW2 5832   0.161   3.074   0.602
 1756SOL     OW 5833   0.672   3.253   1.624
 1756SOL    HW1 5834   0.594   3.203   1.662
 1756SOL    HW2 5835   0.669   3.348   1.655
 1757SOL     OW 5836   0.428   2.286   0.520
 1757SOL    HW1 5837   0.458   2.214   0.458
 1757SOL    HW2 5838   0.389   2.246   0.603
 1758SOL     OW 5839   1.705   3.349   1.104
 1758SOL    HW1 5840   1.612   3.324   1.077
 1758SOL    HW2 5841   1.731   3.299   1.186
 1759SOL     OW 5842   0.317   2.409   1.280
 1759SOL    HW1 5843   0.355   2.350   1.352
 1759SOL    HW2 5844   0.357   2.383   1.192
 1760SOL     OW 5845   0.812   3.448   0.687
 1760SOL    HW1 5846   0.844   3.458   0.593
 1760SOL    HW2 5847   0.733   3.386   0.689
 1761SOL     OW 5848   1.424   2.076   1.112
 1761SOL    HW1 5849   1.476   2.011   1.167
 1761SOL    HW2 5850   1.375   2.139   1.173
 1762SOL     OW 5851   1.001   1.896   1.154
 1762SOL    HW1 5852   0.938   1.824   1.123
 1762SOL    HW2 5853   1.094   1.860   1.154
 1763SOL     OW 5854   0.770   3.192   0.301
 1763SOL    HW1 5855   0.724   3.105   0.318
 1763SOL    HW2 5856   0.861   3.189   0.342
 1764SOL     OW 5857   0.618   3.429   1.284
 1764SOL    HW1 5858   0.613   3.511   1.341
 1764SOL    HW2 5859   0.707   3.426   1.239
 1765SOL     OW 5860   1.352   1.914   0.168
 1765SOL    HW1 5861   1.387   1.873   0.084
 1765SOL    HW2 5862   1.262   1.876   0.188
 1766SOL     OW 5863   1.300   2.315   0.691
 1766SOL    HW1 5864   1.241   2.395   0.695
 1766SOL    HW2 5865   1.315   2.280   0.784
 1767SOL     OW 5866   1.593   2.083   0.882
 1767SOL    HW1 5867   1.509   2.082   0.936
 1767SOL    HW2 5868   1.595   2.166   0.826
 1768SOL     OW 5869   0.039   2.939   0.300
 1768SOL    HW1 5870   0.138   2.928   0.291
 1768SOL    HW2 5871  -0.001   2.853   0.332
 1769SOL     OW 5872   0.875   3.508   0.337
 1769SOL    HW1 5873   0.798   3.473   0.283
 1769SOL    HW2 5874   0.843   3.579   0.399
 1770SOL     OW 5875   0.230   2.490   1.975
 1770SOL    HW1 5876   0.137   2.488   2.012
 1770SOL    HW2 5877   0.231   2.451   1.883
 1771SOL     OW 5878   0.225   2.137   2.858
 1771SOL    HW1 5879   0.260   2.120   2.950
 1771SOL    HW2 5880   0.137   2.092   2.846
 1772SOL     OW 5881   0.019   2.230   2.509
 1772SOL    HW1 5882  -0.063   2.273   2.548
 1772SOL    HW2 5883  -0.009   2.157   2.446
 1773SOL     OW 5884   0.569   3.137   3.027
 1773SOL    HW1 5885   0.476   3.130   2.990
 1773SOL    HW2 5886   0.580   3.226   3.071
 1774SOL     OW 5887   1.555   3.373   2.565
 1774SOL    HW1 5888   1.498   3.357   2.646
 1774SOL    HW2 5889   1.496   3.383   2.485
 1775SOL     OW 5890   1.135   2.565   2.579
 1775SOL    HW1 5891   1.192   2.643   2.554
 1775SOL    HW2 5892   1.075   2.591   2.655
 1776SOL     OW 5893   1.755   2.469   2.093
 1776SOL    HW1 5894   1.743   2.456   1.994
 1776SOL    HW2 5895   1.725   2.388   2.142
 1777SOL     OW 5896   0.768   3.006   2.885
 1777SOL    HW1 5897   0.690   3.023   2.945
 1777SOL    HW2 5898   0.802   3.093   2.849
 1778SOL     OW 5899   0.850   2.660   3.685
 1778SOL    HW1 5900   0.846   2.736   3.750
 1778SOL    HW2 5901   0.872   2.696   3.594
 1779SOL     OW 5902   0.685   2.874   2.527
 1779SOL    HW1 5903   0.754   2.858   2.597
 1779SOL    HW2 5904   0.612   2.931   2.565
 1780SOL     OW 5905   0.686   3.023   3.665
 1780SOL    HW1 5906   0.746   3.102   3.679
 1780SOL    HW2 5907   0.600   3.054   3.624
 1781SOL     OW 5908   0.335   3.297   2.923
 1781SOL    HW1 5909   0.257   3.266   2.870
 1781SOL    HW2 5910   0.393   3.355   2.866
 1782SOL     OW 5911   1.460   3.367   3.201
 1782SOL    HW1 5912   1.484   3.461   3.227
 1782SOL    HW2 5913   1.444   3.313   3.283
 1783SOL     OW 5914   0.438   2.254   3.361
 1783SOL    HW1 5915   0.520   2.198   3.370
 1783SOL    HW2 5916   0.357   2.196   3.365
 1784SOL     OW 5917   1.603   2.309   2.599
 1784SOL    HW1 5918   1.529   2.355   2.549
 1784SOL    HW2 5919   1.654   2.377   2.652
 1785SOL     OW 5920   0.231   3.575   2.345
 1785SOL    HW1 5921   0.265   3.652   2.399
 1785SOL    HW2 5922   0.275   3.575   2.255
 1786SOL     OW 5923   1.127   3.203   3.552
 1786SOL    HW1 5924   1.174   3.203   3.640
 1786SOL    HW2 5925   1.079   3.116   3.541
 1787SOL     OW 5926   0.230   3.296   2.400
 1787SOL    HW1 5927   0.204   3.392   2.400
 1787SOL    HW2 5928   0.159   3.242   2.445
 1788SOL     OW 5929   0.240   2.953   2.748
 1788SOL    HW1 5930   0.254   2.869   2.800
 1788SOL    HW2 5931   0.185   3.017   2.803
 1789SOL     OW 5932   0.620   3.648   3.301
 1789SOL    HW1 5933   0.528   3.631   3.336
 1789SOL    HW2 5934   0.648   3.740   3.327
 1790SOL     OW 5935   0.606   2.826   1.985
 1790SOL    HW1 5936   0.613   2.910   1.931
 1790SOL    HW2 5937   0.652   2.839   2.073
 1791SOL     OW 5938   1.594   1.976   3.342
 1791SOL    HW1 5939   1.576   2.043   3.270
 1791SOL    HW2 5940   1.591   2.022   3.431
 1792SOL     OW 5941   0.122   2.505   2.425
 1792SOL    HW1 5942   0.077   2.417   2.442
 1792SOL    HW2 5943   0.121   2.559   2.509
 1793SOL     OW 5944   1.842   3.629   2.221
 1793SOL    HW1 5945   1.896   3.600   2.301
 1793SOL    HW2 5946   1.872   3.719   2.192
 1794SOL     OW 5947   0.027   3.458   1.979
 1794SOL    HW1 5948   0.008   3.362   2.000
 1794SOL    HW2 5949  -0.006   3.516   2.054
 1795SOL     OW 5950   1.689   2.784   2.474
 1795SOL    HW1 5951   1.784   2.755   2.482
 1795SOL    HW2 5952   1.681   2.849   2.399
 1796SOL     OW 5953   1.641   2.970   2.294
 1796SOL    HW1 5954   1.727   2.972   2.242
 1796SOL    HW2 5955   1.655   3.017   2.382
 1797SOL     OW 5956   0.113   2.599   3.459
 1797SOL    HW1 5957   0.201   2.586   3.504
 1797SOL    HW2 5958   0.100   2.696   3.437
 1798SOL     OW 5959   0.613   3.227   2.588
 1798SOL    HW1 5960   0.564   3.140   2.597
 1798SOL    HW2 5961   0.590   3.270   2.501
 1799SOL     OW 5962   1.293   3.090   3.285
 1799SOL    HW1 5963   1.330   3.017   3.227
 1799SOL    HW2 5964   1.345   3.095   3.370
 1800SOL     OW 5965   0.809   1.866   2.364
 1800SOL    HW1 5966   0.849   1.957   2.355
 1800SOL    HW2 5967   0.709   1.874   2.370
 1801SOL     OW 5968   0.197   2.838   3.126
 1801SOL    HW1 5969   0.286   2.793   3.112
 1801SOL    HW2 5970   0.124   2.773   3.107
 1802SOL     OW 5971   1.525   2.861   2.052
 1802SOL    HW1 5972   1.462   2.785   2.065
 1802SOL    HW2 5973   1.573   2.879   2.138
 1803SOL     OW 5974   1.187   3.654   3.478
 1803SOL    HW1 5975   1.211   3.714   3.402
 1803SOL    HW2 5976   1.194   3.559   3.448
 1804SOL     OW 5977   0.317   2.113   3.663
 1804SOL    HW1 5978   0.388   2.184   3.669
 1804SOL    HW2 5979   0.229   2.152   3.691
 1805SOL     OW 5980   1.466   3.279   2.815
 1805SOL    HW1 5981   1.407   3.285   2.895
 1805SOL    HW2 5982   1.451   3.191   2.769
 1806SOL     OW 5983   1.667   3.576   2.434
 1806SOL    HW1 5984   1.626   3.553   2.346
 1806SOL    HW2 5985   1.649   3.502   2.499
 1807SOL     OW 5986   0.598   2.591   2.132
 1807SOL    HW1 5987   0.622   2.660   2.064
 1807SOL    HW2 5988   0.520   2.624   2.186
 1808SOL     OW 5989   1.281   2.207   2.806
 1808SOL    HW1 5990   1.195   2.157   2.793
 1808SOL    HW2 5991   1.343   2.153   2.862
 1809SOL     OW 5992   1.576   3.524   2.169
 1809SOL    HW1 5993   1.665   3.570   2.172
 1809SOL    HW2 5994   1.555   3.500   2.074
 1810SOL     OW 5995   0.807   2.467   3.327
 1810SOL    HW1 5996   0.760   2.464   3.416
 1810SOL    HW2 5997   0.756   2.412   3.261
 1811SOL     OW 5998   1.394   2.331   3.536
 1811SOL    HW1 5999   1.374   2.374   3.624
 1811SOL    HW2 6000   1.472   2.269   3.545
 1812SOL     OW 6001   0.973   2.752   3.434
 1812SOL    HW1 6002   1.019   2.668   3.405
 1812SOL    HW2 6003   0.917   2.786   3.359
 1813SOL     OW 6004   0.991   2.272   3.104
 1813SOL    HW1 6005   0.914   2.306   3.158
 1813SOL    HW2 6006   0.957   2.221   3.025
 1814SOL     OW 6007   1.041   2.563   2.291
 1814SOL    HW1 6008   1.067   2.559   2.387
 1814SOL    HW2 6009   0.956   2.512   2.277
 1815SOL     OW 6010   0.076   2.673   2.651
 1815SOL    HW1 6011   0.175   2.661   2.660
 1815SOL    HW2 6012   0.052   2.768   2.672
 1816SOL     OW 6013   0.130   3.683   3.433
 1816SOL    HW1 6014   0.120   3.668   3.532
 1816SOL    HW2 6015   0.044   3.719   3.397
 1817SOL     OW 6016   0.865   2.210   2.057
 1817SOL    HW1 6017   0.924   2.273   2.008
 1817SOL    HW2 6018   0.884   2.116   2.028
 1818SOL     OW 6019   1.719   2.447   3.693
 1818SOL    HW1 6020   1.693   2.536   3.657
 1818SOL    HW2 6021   1.717   2.379   3.620
 1819SOL     OW 6022   1.362   3.006   2.407
 1819SOL    HW1 6023   1.445   2.977   2.359
 1819SOL    HW2 6024   1.313   3.073   2.351
 1820SOL     OW 6025   0.550   2.058   2.747
 1820SOL    HW1 6026   0.545   2.053   2.847
 1820SOL    HW2 6027   0.552   2.154   2.718
 1821SOL     OW 6028   1.008   3.318   2.339
 1821SOL    HW1 6029   0.962   3.390   2.287
 1821SOL    HW2 6030   1.004   3.338   2.437
 1822SOL     OW 6031   0.351   3.663   2.715
 1822SOL    HW1 6032   0.401   3.577   2.721
 1822SOL    HW2 6033   0.416   3.740   2.712
 1823SOL     OW 6034   1.795   2.928   2.735
 1823SOL    HW1 6035   1.733   2.913   2.659
 1823SOL    HW2 6036   1.743   2.939   2.820
 1824SOL     OW 6037   1.227   3.412   3.368
 1824SOL    HW1 6038   1.233   3.335   3.432
 1824SOL    HW2 6039   1.175   3.386   3.288
 1825SOL     OW 6040   0.321   2.805   2.104
 1825SOL    HW1 6041   0.403   2.844   2.062
 1825SOL    HW2 6042   0.294   2.723   2.055
 1826SOL     OW 6043   1.458   2.597   2.590
 1826SOL    HW1 6044   1.453   2.532   2.665
 1826SOL    HW2 6045   1.538   2.656   2.603
 1827SOL     OW 6046   0.461   3.128   3.589
 1827SOL    HW1 6047   0.411   3.129   3.503
 1827SOL    HW2 6048   0.398   3.110   3.665
 1828SOL     OW 6049   1.111   3.638   2.099
 1828SOL    HW1 6050   1.051   3.576   2.149
 1828SOL    HW2 6051   1.142   3.594   2.014
 1829SOL     OW 6052   0.202   2.147   3.360
 1829SOL    HW1 6053   0.122   2.207   3.347
 1829SOL    HW2 6054   0.192   2.098   3.446
 1830SOL     OW 6055   1.632   3.239   1.943
 1830SOL    HW1 6056   1.600   3.333   1.933
 1830SOL    HW2 6057   1.556   3.176   1.931
 1831SOL     OW 6058   0.464   3.605   2.185
 1831SOL    HW1 6059   0.497   3.644   2.271
 1831SOL    HW2 6060   0.540   3.598   2.120
 1832SOL     OW 6061   1.400   1.969   2.288
 1832SOL    HW1 6062   1.376   1.932   2.198
 1832SOL    HW2 6063   1.499   1.985   2.292
 1833SOL     OW 6064   0.249   3.647   3.103
 1833SOL    HW1 6065   0.306   3.582   3.153
 1833SOL    HW2 6066   0.233   3.614   3.010
 1834SOL     OW 6067   0.940   3.560   2.766
 1834SOL    HW1 6068   1.020   3.503   2.787
 1834SOL    HW2 6069   0.891   3.520   2.689
 1835SOL     OW 6070   0.382   2.562   2.342
 1835SOL    HW1 6071   0.427   2.472   2.339
 1835SOL    HW2 6072   0.288   2.551   2.375
 1836SOL     OW 6073   1.547   2.084   3.591
 1836SOL    HW1 6074   1.542   2.121   3.683
 1836SOL    HW2 6075   1.475   2.015   3.579
 1837SOL     OW 6076   0.614   1.984   1.979
 1837SOL    HW1 6077   0.712   1.962   1.986
 1837SOL    HW2 6078   0.583   1.967   1.886
 1838SOL     OW 6079   0.781   2.126   3.611
 1838SOL    HW1 6080   0.848   2.065   3.654
 1838SOL    HW2 6081   0.708   2.145   3.676
 1839SOL     OW 6082   0.888   3.376   3.057
 1839SOL    HW1 6083   0.865   3.351   2.963
 1839SOL    HW2 6084   0.949   3.307   3.096
 1840SOL     OW 6085   1.351   2.452   3.295
 1840SOL    HW1 6086   1.379   2.409   3.380
 1840SOL    HW2 6087   1.376   2.548   3.296
 1841SOL     OW 6088   0.803   3.264   2.786
 1841SOL    HW1 6089   0.893   3.278   2.744
 1841SOL    HW2 6090   0.732   3.266   2.715
 1842SOL     OW 6091   0.922   2.365   2.761
 1842SOL    HW1 6092   0.897   2.356   2.665
 1842SOL    HW2 6093   0.970   2.283   2.792
 1843SOL     OW 6094   0.539   1.926   2.374
 1843SOL    HW1 6095   0.458   1.927   2.432
 1843SOL    HW2 6096   0.542   2.009   2.319
 1844SOL     OW 6097   1.434   3.050   1.903
 1844SOL    HW1 6098   1.466   2.974   1.960
 1844SOL    HW2 6099   1.342   3.077   1.933
 1845SOL     OW 6100   0.297   1.897   2.033
 1845SOL    HW1 6101   0.346   1.981   2.012
 1845SOL    HW2 6102   0.359   1.832   2.078
 1846SOL     OW 6103   0.935   2.098   2.342
 1846SOL    HW1 6104   0.887   2.139   2.264
 1846SOL    HW2 6105   1.034   2.096   2.323
 1847SOL     OW 6106   1.076   2.545   3.326
 1847SOL    HW1 6107   0.996   2.484   3.329
 1847SOL    HW2 6108   1.157   2.492   3.302
 1848SOL     OW 6109   1.227   3.432   2.655
 1848SOL    HW1 6110   1.248   3.506   2.590
 1848SOL    HW2 6111   1.295   3.432   2.728
 1849SOL     OW 6112   0.459   3.014   2.603
 1849SOL    HW1 6113   0.388   2.987   2.668
 1849SOL    HW2 6114   0.433   2.986   2.510
 1850SOL     OW 6115   1.271   3.659   2.453
 1850SOL    HW1 6116   1.315   3.723   2.389
 1850SOL    HW2 6117   1.221   3.711   2.523
 1851SOL     OW 6118   1.032   2.411   1.878
 1851SOL    HW1 6119   0.991   2.493   1.839
 1851SOL    HW2 6120   1.096   2.437   1.951
 1852SOL     OW 6121   0.078   2.418   3.248
 1852SOL    HW1 6122   0.170   2.417   3.207
 1852SOL    HW2 6123   0.072   2.492   3.315
 1853SOL     OW 6124   0.561   2.084   3.009
 1853SOL    HW1 6125   0.599   2.000   3.046
 1853SOL    HW2 6126   0.473   2.103   3.053
 1854SOL     OW 6127   0.866   2.316   2.504
 1854SOL    HW1 6128   0.834   2.388   2.442
 1854SOL    HW2 6129   0.890   2.235   2.451
 1855SOL     OW 6130   1.017   1.901   2.615
 1855SOL    HW1 6131   0.945   1.906   2.546
 1855SOL    HW2 6132   0.993   1.832   2.684
 1856SOL     OW 6133   1.429   3.035   2.729
 1856SOL    HW1 6134   1.374   2.951   2.722
 1856SOL    HW2 6135   1.455   3.064   2.637
 1857SOL     OW 6136   1.466   2.452   2.854
 1857SOL    HW1 6137   1.436   2.357   2.861
 1857SOL    HW2 6138   1.539   2.468   2.920
 1858SOL     OW 6139   1.857   2.695   2.239
 1858SOL    HW1 6140   1.899   2.631   2.303
 1858SOL    HW2 6141   1.819   2.644   2.161
 1859SOL     OW 6142   0.488   3.247   2.036
 1859SOL    HW1 6143   0.401   3.232   2.083
 1859SOL    HW2 6144   0.471   3.273   1.941
 1860SOL     OW 6145   1.664   3.142   2.519
 1860SOL    HW1 6146   1.763   3.150   2.533
 1860SOL    HW2 6147   1.619   3.226   2.550
 1861SOL     OW 6148   1.390   2.437   1.940
 1861SOL    HW1 6149   1.336   2.416   2.021
 1861SOL    HW2 6150   1.481   2.396   1.949
 1862SOL     OW 6151   0.527   2.118   2.190
 1862SOL    HW1 6152   0.554   2.059   2.115
 1862SOL    HW2 6153   0.527   2.213   2.159
 1863SOL     OW 6154   1.754   3.085   3.450
 1863SOL    HW1 6155   1.845   3.046   3.437
 1863SOL    HW2 6156   1.762   3.181   3.474
 1864SOL     OW 6157   1.064   3.209   3.202
 1864SOL    HW1 6158   0.984   3.186   3.257
 1864SOL    HW2 6159   1.147   3.183   3.251
 1865SOL     OW 6160   1.592   3.491   3.487
 1865SOL    HW1 6161   1.619   3.525   3.397
 1865SOL    HW2 6162   1.671   3.453   3.533
 1866SOL     OW 6163   1.111   3.057   2.962
 1866SOL    HW1 6164   1.071   3.101   3.043
 1866SOL    HW2 6165   1.070   3.094   2.879
 1867SOL     OW 6166   1.638   2.961   2.941
 1867SOL    HW1 6167   1.643   3.042   3.000
 1867SOL    HW2 6168   1.552   2.963   2.890
 1868SOL     OW 6169   0.915   1.951   3.264
 1868SOL    HW1 6170   0.940   1.931   3.169
 1868SOL    HW2 6171   0.987   2.007   3.306
 1869SOL     OW 6172   0.980   2.978   3.581
 1869SOL    HW1 6173   0.881   2.984   3.591
 1869SOL    HW2 6174   1.003   2.898   3.525
 1870SOL     OW 6175   0.705   2.912   2.230
 1870SOL    HW1 6176   0.691   2.919   2.329
 1870SOL    HW2 6177   0.789   2.861   2.212
 1871SOL     OW 6178   0.410   2.675   3.113
 1871SOL    HW1 6179   0.496   2.687   3.163
 1871SOL    HW2 6180   0.368   2.588   3.140
 1872SOL     OW 6181   1.274   2.248   3.124
 1872SOL    HW1 6182   1.295   2.322   3.188
 1872SOL    HW2 6183   1.185   2.265   3.081
 1873SOL     OW 6184   0.064   3.426   3.193
 1873SOL    HW1 6185   0.018   3.508   3.159
 1873SOL    HW2 6186   0.162   3.445   3.202
 1874SOL     OW 6187   0.367   2.962   2.363
 1874SOL    HW1 6188   0.360   3.045   2.307
 1874SOL    HW2 6189   0.371   2.882   2.303
 1875SOL     OW 6190   0.566   2.399   2.727
 1875SOL    HW1 6191   0.578   2.465   2.653
 1875SOL    HW2 6192   0.612   2.433   2.810
 1876SOL     OW 6193   1.252   3.210   2.250
 1876SOL    HW1 6194   1.302   3.287   2.290
 1876SOL    HW2 6195   1.157   3.212   2.282
 1877SOL     OW 6196   1.272   3.307   3.004
 1877SOL    HW1 6197   1.319   3.320   3.091
 1877SOL    HW2 6198   1.206   3.233   3.013
 1878SOL     OW 6199   1.582   2.501   2.334
 1878SOL    HW1 6200   1.551   2.562   2.407
 1878SOL    HW2 6201   1.632   2.553   2.265
 1879SOL     OW 6202   0.354   3.372   3.191
 1879SOL    HW1 6203   0.333   3.328   3.104
 1879SOL    HW2 6204   0.451   3.398   3.194
 1880SOL     OW 6205   0.402   2.613   3.460
 1880SOL    HW1 6206   0.470   2.668   3.413
 1880SOL    HW2 6207   0.442   2.525   3.487
 1881SOL     OW 6208   1.587   2.641   3.532
 1881SOL    HW1 6209   1.495   2.679   3.527
 1881SOL    HW2 6210   1.647   2.688   3.467
 1882SOL     OW 6211   1.013   1.967   3.632
 1882SOL    HW1 6212   1.019   2.052   3.580
 1882SOL    HW2 6213   1.045   1.891   3.575
 1883SOL     OW 6214   0.504   1.912   3.602
 1883SOL    HW1 6215   0.462   1.855   3.532
 1883SOL    HW2 6216   0.438   1.981   3.634
 1884SOL     OW 6217   0.573   2.732   2.891
 1884SOL    HW1 6218   0.617   2.821   2.882
 1884SOL    HW2 6219   0.510   2.732   2.968
 1885SOL     OW 6220   1.360   2.724   2.907
 1885SOL    HW1 6221   1.285   2.724   2.841
 1885SOL    HW2 6222   1.397   2.632   2.916
 1886SOL     OW 6223   1.209   2.387   2.137
 1886SOL    HW1 6224   1.222   2.303   2.191
 1886SOL    HW2 6225   1.180   2.461   2.197
 1887SOL     OW 6226   0.307   2.075   3.093
 1887SOL    HW1 6227   0.284   2.112   3.183
 1887SOL    HW2 6228   0.277   1.980   3.087
 1888SOL     OW 6229   0.037   3.172   3.144
 1888SOL    HW1 6230   0.090   3.123   3.212
 1888SOL    HW2 6231   0.059   3.270   3.149
 1889SOL     OW 6232   0.732   2.496   2.926
 1889SOL    HW1 6233   0.791   2.470   2.850
 1889SOL    HW2 6234   0.704   2.592   2.915
 1890SOL     OW 6235   1.728   2.797   3.716
 1890SOL    HW1 6236   1.682   2.790   3.627
 1890SOL    HW2 6237   1.666   2.841   3.782
 1891SOL     OW 6238   0.307   1.925   2.480
 1891SOL    HW1 6239   0.296   2.019   2.513
 1891SOL    HW2 6240   0.302   1.862   2.557
 1892SOL     OW 6241   1.622   2.229   2.236
 1892SOL    HW1 6242   1.624   2.153   2.300
 1892SOL    HW2 6243   1.574   2.306   2.276
 1893SOL     OW 6244   1.023   2.628   2.828
 1893SOL    HW1 6245   1.038   2.649   2.924
 1893SOL    HW2 6246   0.993   2.533   2.819
 1894SOL     OW 6247   0.980   3.435   3.562
 1894SOL    HW1 6248   0.960   3.479   3.474
 1894SOL    HW2 6249   1.019   3.344   3.546
 1895SOL     OW 6250   1.859   3.380   3.467
 1895SOL    HW1 6251   1.873   3.407   3.372
 1895SOL    HW2 6252   1.942   3.402   3.520
 1896SOL     OW 6253   0.350   2.760   3.666
 1896SOL    HW1 6254   0.426   2.804   3.714
 1896SOL    HW2 6255   0.385   2.713   3.584
 1897SOL     OW 6256   1.540   2.136   1.987
 1897SOL    HW1 6257   1.479   2.061   2.010
 1897SOL    HW2 6258   1.562   2.188   2.070
 1898SOL     OW 6259   1.303   2.700   1.904
 1898SOL    HW1 6260   1.337   2.607   1.919
 1898SOL    HW2 6261   1.321   2.727   1.809
 1899SOL     OW 6262   1.068   3.195   2.711
 1899SOL    HW1 6263   1.075   3.111   2.656
 1899SOL    HW2 6264   1.130   3.264   2.675
 1900SOL     OW 6265   0.319   2.672   2.811
 1900SOL    HW1 6266   0.412   2.708   2.816
 1900SOL    HW2 6267   0.313   2.587   2.863
 1901SOL     OW 6268   0.339   2.371   2.868
 1901SOL    HW1 6269   0.287   2.288   2.851
 1901SOL    HW2 6270   0.416   2.376   2.804
 1902SOL     OW 6271   1.138   2.242   3.540
 1902SOL    HW1 6272   1.093   2.305   3.604
 1902SOL    HW2 6273   1.231   2.273   3.523
 1903SOL     OW 6274   1.160   2.069   3.339
 1903SOL    HW1 6275   1.160   2.133   3.416
 1903SOL    HW2 6276   1.188   2.117   3.256
 1904SOL     OW 6277   0.008   3.188   2.062
 1904SOL    HW1 6278  -0.085   3.209   2.031
 1904SOL    HW2 6279   0.018   3.089   2.075
 1905SOL     OW 6280   0.088   3.663   2.789
 1905SOL    HW1 6281   0.046   3.577   2.762
 1905SOL    HW2 6282   0.182   3.666   2.755
 1906SOL     OW 6283   0.504   3.430   2.772
 1906SOL    HW1 6284   0.570   3.504   2.781
 1906SOL    HW2 6285   0.548   3.351   2.730
 1907SOL     OW 6286   1.002   2.658   3.100
 1907SOL    HW1 6287   1.043   2.626   3.186
 1907SOL    HW2 6288   0.906   2.631   3.097
 1908SOL     OW 6289   0.040   2.406   2.976
 1908SOL    HW1 6290   0.125   2.373   2.935
 1908SOL    HW2 6291   0.053   2.421   3.074
 1909SOL     OW 6292   0.189   2.382   3.584
 1909SOL    HW1 6293   0.248   2.342   3.514
 1909SOL    HW2 6294   0.131   2.453   3.543
 1910SOL     OW 6295   1.369   2.812   3.522
 1910SOL    HW1 6296   1.408   2.901   3.542
 1910SOL    HW2 6297   1.379   2.792   3.425
 1911SOL     OW 6298   0.815   2.434   2.187
 1911SOL    HW1 6299   0.822   2.345   2.141
 1911SOL    HW2 6300   0.721   2.468   2.179
 1912SOL     OW 6301   1.657   2.466   3.068
 1912SOL    HW1 6302   1.619   2.397   3.130
 1912SOL    HW2 6303   1.739   2.430   3.024
 1913SOL     OW 6304   0.252   3.426   3.606
 1913SOL    HW1 6305   0.222   3.483   3.682
 1913SOL    HW2 6306   0.245   3.329   3.632
 1914SOL     OW 6307   0.671   2.326   3.131
 1914SOL    HW1 6308   0.637   2.237   3.101
 1914SOL    HW2 6309   0.697   2.380   3.051
 1915SOL     OW 6310   0.930   3.540   3.327
 1915SOL    HW1 6311   0.906   3.522   3.232
 1915SOL    HW2 6312   0.960   3.634   3.337
 1916SOL     OW 6313   0.473   2.362   2.053
 1916SOL    HW1 6314   0.534   2.442   2.057
 1916SOL    HW2 6315   0.378   2.393   2.060
 1917SOL     OW 6316   0.159   2.999   3.328
 1917SOL    HW1 6317   0.181   2.938   3.404
 1917SOL    HW2 6318   0.169   2.950   3.242
 1918SOL     OW 6319   1.347   2.921   3.096
 1918SOL    HW1 6320   1.371   2.858   3.022
 1918SOL    HW2 6321   1.257   2.961   3.078
 1919SOL     OW 6322   1.302   2.717   2.171
 1919SOL    HW1 6323   1.216   2.686   2.213
 1919SOL    HW2 6324   1.298   2.703   2.072
 1920SOL     OW 6325   1.759   3.609   3.016
 1920SOL    HW1 6326   1.820   3.639   2.943
 1920SOL    HW2 6327   1.721   3.520   2.994
 1921SOL     OW 6328   1.252   3.593   2.990
 1921SOL    HW1 6329   1.336   3.598   2.936
 1921SOL    HW2 6330   1.229   3.497   3.008
 1922SOL     OW 6331   0.083   3.120   2.884
 1922SOL    HW1 6332   0.078   3.119   2.984
 1922SOL    HW2 6333   0.000   3.079   2.846
 1923SOL     OW 6334   0.688   3.524   3.578
 1923SOL    HW1 6335   0.632   3.605   3.587
 1923SOL    HW2 6336   0.740   3.528   3.492
 1924SOL     OW 6337   1.388   3.435   2.339
 1924SOL    HW1 6338   1.455   3.447   2.265
 1924SOL    HW2 6339   1.348   3.524   2.362
 1925SOL     OW 6340   0.130   3.656   3.713
 1925SOL    HW1 6341   0.089   3.582   3.766
 1925SOL    HW2 6342   0.194   3.707   3.771
 1926SOL     OW 6343   1.280   2.789   2.534
 1926SOL    HW1 6344   1.340   2.708   2.536
 1926SOL    HW2 6345   1.320   2.858   2.474
 1927SOL     OW 6346   0.830   3.135   3.284
 1927SOL    HW1 6347   0.825   3.168   3.379
 1927SOL    HW2 6348   0.744   3.154   3.238
 1928SOL     OW 6349   0.672   3.478   2.016
 1928SOL    HW1 6350   0.681   3.488   1.917
 1928SOL    HW2 6351   0.632   3.389   2.037
 1929SOL     OW 6352   1.650   3.582   3.256
 1929SOL    HW1 6353   1.703   3.592   3.172
 1929SOL    HW2 6354   1.623   3.672   3.290
 1930SOL     OW 6355   0.263   2.188   2.582
 1930SOL    HW1 6356   0.184   2.239   2.548
 1930SOL    HW2 6357   0.254   2.173   2.680
 1931SOL     OW 6358   1.194   3.474   1.893
 1931SOL    HW1 6359   1.200   3.381   1.930
 1931SOL    HW2 6360   1.135   3.474   1.813
 1932SOL     OW 6361   0.822   2.864   3.234
 1932SOL    HW1 6362   0.862   2.863   3.142
 1932SOL    HW2 6363   0.832   2.956   3.274
 1933SOL     OW 6364   0.916   2.772   2.153
 1933SOL    HW1 6365   0.979   2.810   2.085
 1933SOL    HW2 6366   0.956   2.689   2.192
 1934SOL     OW 6367   1.504   3.469   1.906
 1934SOL    HW1 6368   1.412   3.506   1.913
 1934SOL    HW2 6369   1.542   3.489   1.816
 1935SOL     OW 6370   0.372   3.150   3.352
 1935SOL    HW1 6371   0.359   3.243   3.318
 1935SOL    HW2 6372   0.288   3.098   3.339
 1936SOL     OW 6373   1.614   3.154   3.151
 1936SOL    HW1 6374   1.674   3.157   3.231
 1936SOL    HW2 6375   1.539   3.218   3.164
 1937SOL     OW 6376   1.039   2.960   2.558
 1937SOL    HW1 6377   0.969   2.913   2.612
 1937SOL    HW2 6378   1.098   2.892   2.515
 1938SOL     OW 6379   1.014   2.098   2.833
 1938SOL    HW1 6380   1.006   2.062   2.740
 1938SOL    HW2 6381   1.012   2.022   2.898
 1939SOL     OW 6382   0.590   3.349   2.353
 1939SOL    HW1 6383   0.632   3.291   2.283
 1939SOL    HW2 6384   0.546   3.428   2.309
 1940SOL     OW 6385   1.709   2.247   3.243
 1940SOL    HW1 6386   1.782   2.316   3.247
 1940SOL    HW2 6387   1.737   2.172   3.184
 1941SOL     OW 6388   0.255   3.210   2.152
 1941SOL    HW1 6389   0.159   3.211   2.125
 1941SOL    HW2 6390   0.267   3.263   2.236
 1942SOL     OW 6391   0.105   2.875   3.588
 1942SOL    HW1 6392   0.028   2.842   3.642
 1942SOL    HW2 6393   0.190   2.845   3.630
 1943SOL     OW 6394   0.672   2.065   3.351
 1943SOL    HW1 6395   0.762   2.049   3.311
 1943SOL    HW2 6396   0.680   2.070   3.450
 1944SOL     OW 6397   0.075   2.207   1.895
 1944SOL    HW1 6398  -0.017   2.179   1.866
 1944SOL    HW2 6399   0.106   2.284   1.839
 1945SOL     OW 6400   1.440   2.718   3.260
 1945SOL    HW1 6401   1.383   2.770   3.197
 1945SOL    HW2 6402   1.536   2.730   3.236
 1946SOL     OW 6403   0.072   2.028   2.180
 1946SOL    HW1 6404   0.055   2.111   2.126
 1946SOL    HW2 6405   0.162   1.991   2.158
 1947SOL     OW 6406   1.183   3.197   1.981
 1947SOL    HW1 6407   1.084   3.186   1.983
 1947SOL    HW2 6408   1.217   3.212   2.074
 1948SOL     OW 6409   0.613   2.704   3.293
 1948SOL    HW1 6410   0.669   2.785   3.276
 1948SOL    HW2 6411   0.672   2.624   3.296
 1949SOL     OW 6412   1.493   3.629   2.821
 1949SOL    HW1 6413   1.526   3.693   2.752
 1949SOL    HW2 6414   1.559   3.623   2.896
 1950SOL     OW 6415   0.716   2.427   3.570
 1950SOL    HW1 6416   0.735   2.492   3.644
 1950SOL    HW2 6417   0.776   2.347   3.579
 1951SOL     OW 6418   1.450   3.082   3.495
 1951SOL    HW1 6419   1.441   3.072   3.594
 1951SOL    HW2 6420   1.546   3.075   3.469
 1952SOL     OW 6421   0.390   3.603   3.422
 1952SOL    HW1 6422   0.299   3.644   3.420
 1952SOL    HW2 6423   0.383   3.509   3.454
 1953SOL     OW 6424   1.674   2.745   3.116
 1953SOL    HW1 6425   1.647   2.656   3.079
 1953SOL    HW2 6426   1.675   2.813   3.043
 1954SOL     OW 6427   1.225   2.187   2.311
 1954SOL    HW1 6428   1.290   2.113   2.300
 1954SOL    HW2 6429   1.245   2.237   2.395
 1955SOL     OW 6430   0.594   2.607   2.514
 1955SOL    HW1 6431   0.644   2.692   2.495
 1955SOL    HW2 6432   0.506   2.609   2.466
 1956SOL     OW 6433   1.777   2.204   3.504
 1956SOL    HW1 6434   1.760   2.235   3.410
 1956SOL    HW2 6435   1.693   2.167   3.542
 1957SOL     OW 6436   1.730   2.796   3.379
 1957SOL    HW1 6437   1.768   2.887   3.394
 1957SOL    HW2 6438   1.722   2.779   3.280
 1958SOL     OW 6439   0.859   3.236   1.878
 1958SOL    HW1 6440   0.813   3.251   1.966
 1958SOL    HW2 6441   0.903   3.321   1.848
 1959SOL     OW 6442   0.661   3.652   2.815
 1959SOL    HW1 6443   0.615   3.740   2.802
 1959SOL    HW2 6444   0.760   3.664   2.808
 1960SOL     OW 6445   0.859   2.818   2.723
 1960SOL    HW1 6446   0.913   2.749   2.771
 1960SOL    HW2 6447   0.827   2.887   2.789
 1961SOL     OW 6448   1.083   2.846   1.949
 1961SOL    HW1 6449   1.060   2.899   1.867
 1961SOL    HW2 6450   1.164   2.790   1.930
 1962SOL     OW 6451   1.861   3.431   2.713
 1962SOL    HW1 6452   1.790   3.419   2.643
 1962SOL    HW2 6453   1.862   3.352   2.773
 1963SOL     OW 6454   0.221   3.176   3.706
 1963SOL    HW1 6455   0.156   3.103   3.685
 1963SOL    HW2 6456   0.225   3.190   3.804
 1964SOL     OW 6457   0.079   3.102   2.515
 1964SOL    HW1 6458   0.078   3.055   2.603
 1964SOL    HW2 6459   0.161   3.074   2.464
 1965SOL     OW 6460   0.672   3.253   3.486
 1965SOL    HW1 6461   0.594   3.203   3.524
 1965SOL    HW2 6462   0.669   3.348   3.517
 1966SOL     OW 6463   0.428   2.286   2.382
 1966SOL    HW1 6464   0.458   2.214   2.320
 1966SOL    HW2 6465   0.389   2.246   2.465
 1967SOL     OW 6466   1.705   3.349   2.966
 1967SOL    HW1 6467   1.612   3.324   2.939
 1967SOL    HW2 6468   1.731   3.299   3.048
 1968SOL     OW 6469   0.317   2.409   3.142
 1968SOL    HW1 6470   0.355   2.350   3.214
 1968SOL    HW2 6471   0.357   2.383   3.054
 1969SOL     OW 6472   0.812   3.448   2.549
 1969SOL    HW1 6473   0.844   3.458   2.455
 1969SOL    HW2 6474   0.733   3.386   2.551
 1970SOL     OW 6475   1.424   2.076   2.974
 1970SOL    HW1 6476   1.476   2.011   3.029
 1970SOL    HW2 6477   1.375   2.139   3.035
 1971SOL     OW 6478   1.001   1.896   3.016
 1971SOL    HW1 6479   0.938   1.824   2.985
 1971SOL    HW2 6480   1.094   1.860   3.016
 1972SOL     OW 6481   0.770   3.192   2.163
 1972SOL    HW1 6482   0.724   3.105   2.180
 1972SOL    HW2 6483   0.861   3.189   2.204
 1973SOL     OW 6484   0.618   3.429   3.146
 1973SOL    HW1 6485   0.613   3.511   3.203
 1973SOL    HW2 6486   0.707   3.426   3.101
 1974SOL     OW 6487   1.352   1.914   2.030
 1974SOL    HW1 6488   1.387   1.873   1.946
 1974SOL    HW2 6489   1.262   1.876   2.050
 1975SOL     OW 6490   1.300   2.315   2.553
 1975SOL    HW1 6491   1.241   2.395   2.557
 1975SOL    HW2 6492   1.315   2.280   2.646
 1976SOL     OW 6493   1.593   2.083   2.744
 1976SOL    HW1 6494   1.509   2.082   2.798
 1976SOL    HW2 6495   1.595   2.166   2.688
 1977SOL     OW 6496   0.039   2.939   2.162
 1977SOL    HW1 6497   0.138   2.928   2.153
 1977SOL    HW2 6498  -0.001   2.853   2.194
 1978SOL     OW 6499   0.875   3.508   2.199
 1978SOL    HW1 6500   0.798   3.473   2.145
 1978SOL    HW2 6501   0.843   3.579   2.261
 1979SOL     OW 6502   0.230   2.490   3.837
 1979SOL    HW1 6503   0.137   2.488   3.874
 1979SOL    HW2 6504   0.231   2.451   3.745
 1980SOL     OW 6505   0.225   2.137   4.720
 1980SOL    HW1 6506   0.260   2.120   4.812
 1980SOL    HW2 6507   0.137   2.092   4.708
 1981SOL     OW 6508   0.019   2.230   4.371
 1981SOL    HW1 6509  -0.063   2.273   4.410
 1981SOL    HW2 6510  -0.009   2.157   4.308
 1982SOL     OW 6511   0.569   3.137   4.889
 1982SOL    HW1 6512   0.476   3.130   4.852
 1982SOL    HW2 6513   0.580   3.226   4.933
 1983SOL     OW 6514   1.555   3.373   4.427
 1983SOL    HW1 6515   1.498   3.357   4.508
 1983SOL    HW2 6516   1.496   3.383   4.347
 1984SOL     OW 6517   1.135   2.565   4.441
 1984SOL    HW1 6518   1.192   2.643   4.416
 1984SOL    HW2 6519   1.075   2.591   4.517
 1985SOL     OW 6520   1.755   2.469   3.955
 1985SOL    HW1 6521   1.743   2.456   3.856
 1985SOL    HW2 6522   1.725   2.388   4.004
 1986SOL     OW 6523   0.768   3.006   4.747
 1986SOL    HW1 6524   0.690   3.023   4.807
 1986SOL    HW2 6525   0.802   3.093   4.711
 1987SOL     OW 6526   0.850   2.660   5.547
 1987SOL    HW1 6527   0.846   2.736   5.612
 1987SOL    HW2 6528   0.872   2.696   5.456
 1988SOL     OW 6529   0.685   2.874   4.389
 1988SOL    HW1 6530   0.754   2.858   4.459
 1988SOL    HW2 6531   0.612   2.931   4.427
 1989SOL     OW 6532   0.686   3.023   5.527
 1989SOL    HW1 6533   0.746   3.102   5.541
 1989SOL    HW2 6534   0.600   3.054   5.486
 1990SOL     OW 6535   0.335   3.297   4.785
 1990SOL    HW1 6536   0.257   3.266   4.732
 1990SOL    HW2 6537   0.393   3.355   4.728
 1991SOL     OW 6538   1.460   3.367   5.063
 1991SOL    HW1 6539   1.484   3.461   5.089
 1991SOL    HW2 6540   1.444   3.313   5.145
 1992SOL     OW 6541   0.438   2.254   5.223
 1992SOL    HW1 6542   0.520   2.198   5.232
 1992SOL    HW2 6543   0.357   2.196   5.227
 1993SOL     OW 6544   1.603   2.309   4.461
 1993SOL    HW1 6545   1.529   2.355   4.411
 1993SOL    HW2 6546   1.654   2.377   4.514
 1994SOL     OW 6547   0.231   3.575   4.207
 1994SOL    HW1 6548   0.265   3.652   4.261
 1994SOL    HW2 6549   0.275   3.575   4.117
 1995SOL     OW 6550   1.127   3.203   5.414
 1995SOL    HW1 6551   1.174   3.203   5.502
 1995SOL    HW2 6552   1.079   3.116   5.403
 1996SOL     OW 6553   0.230   3.296   4.262
 1996SOL    HW1 6554   0.204   3.392   4.262
 1996SOL    HW2 6555   0.159   3.242   4.307
 1997SOL     OW 6556   0.240   2.953   4.610
 1997SOL    HW1 6557   0.254   2.869   4.662
 1997SOL    HW2 6558   0.185   3.017   4.665
 1998SOL     OW 6559   0.620   3.648   5.163
 1998SOL    HW1 6560   0.528   3.631   5.198
 1998SOL    HW2 6561   0.648   3.740   5.189
 1999SOL     OW 6562   0.606   2.826   3.847
 1999SOL    HW1 6563   0.613   2.910   3.793
 1999SOL    HW2 6564   0.652   2.839   3.935
 2000SOL     OW 6565   1.594   1.976   5.204
 2000SOL    HW1 6566   1.576   2.043   5.132
 2000SOL    HW2 6567   1.591   2.022   5.293
 2001SOL     OW 6568   0.122   2.505   4.287
 2001SOL    HW1 6569   0.077   2.417   4.304
 2001SOL    HW2 6570   0.121   2.559   4.371
 2002SOL     OW 6571   1.842   3.629   4.083
 2002SOL    HW1 6572   1.896   3.600   4.163
 2002SOL    HW2 6573   1.872   3.719   4.054
 2003SOL     OW 6574   0.027   3.458   3.841
 2003SOL    HW1 6575   0.008   3.362   3.862
 2003SOL    HW2 6576  -0.006   3.516   3.916
 2004SOL     OW 6577   1.689   2.784   4.336
 2004SOL    HW1 6578   1.784   2.755   4.344
 2004SOL    HW2 6579   1.681   2.849   4.261
 2005SOL     OW 6580   1.641   2.970   4.156
 2005SOL    HW1 6581   1.727   2.972   4.104
 2005SOL    HW2 6582   1.655   3.017   4.244
 2006SOL     OW 6583   0.113   2.599   5.321
 2006SOL    HW1 6584   0.201   2.586   5.366
 2006SOL    HW2 6585   0.100   2.696   5.299
 2007SOL     OW 6586   0.613   3.227   4.450
 2007SOL    HW1 6587   0.564   3.140   4.459
 2007SOL    HW2 6588   0.590   3.270   4.363
 2008SOL     OW 6589   1.293   3.090   5.147
 2008SOL    HW1 6590   1.330   3.017   5.089
 2008SOL    HW2 6591   1.345   3.095   5.232
 2009SOL     OW 6592   0.809   1.866   4.226
 2009SOL    HW1 6593   0.849   1.957   4.217
 2009SOL    HW2 6594   0.709   1.874   4.232
 2010SOL     OW 6595   0.197   2.838   4.988
 2010SOL    HW1 6596   0.286   2.793   4.974
 2010SOL    HW2 6597   0.124   2.773   4.969
 2011SOL     OW 6598   1.525   2.861   3.914
 2011SOL    HW1 6599   1.462   2.785   3.927
 2011SOL    HW2 6600   1.573   2.879   4.000
 2012SOL     OW 6601   1.187   3.654   5.340
 2012SOL    HW1 6602   1.211   3.714   5.264
 2012SOL    HW2 6603   1.194   3.559   5.310
 2013SOL     OW 6604   0.317   2.113   5.525
 2013SOL    HW1 6605   0.388   2.184   5.531
 2013SOL    HW2 6606   0.229   2.152   5.553
 2014SOL     OW 6607   1.466   3.279   4.677
 2014SOL    HW1 6608   1.407   3.285   4.757
 2014SOL    HW2 6609   1.451   3.191   4.631
 2015SOL     OW 6610   1.667   3.576   4.296
 2015SOL    HW1 6611   1.626   3.553   4.208
 2015SOL    HW2 6612   1.649   3.502   4.361
 2016SOL     OW 6613   0.598   2.591   3.994
 2016SOL    HW1 6614   0.622   2.660   3.926
 2016SOL    HW2 6615   0.520   2.624   4.048
 2017SOL     OW 6616   1.281   2.207   4.668
 2017SOL    HW1 6617   1.195   2.157   4.655
 2017SOL    HW2 6618   1.343   2.153   4.724
 2018SOL     OW 6619   1.576   3.524   4.031
 2018SOL    HW1 6620   1.665   3.570   4.034
 2018SOL    HW2 6621   1.555   3.500   3.936
 2019SOL     OW 6622   0.807   2.467   5.189
 2019SOL    HW1 6623   0.760   2.464   5.278
 2019SOL    HW2 6624   0.756   2.412   5.123
 2020SOL     OW 6625   1.394   2.331   5.398
 2020SOL    HW1 6626   1.374   2.374   5.486
 2020SOL    HW2 6627   1.472   2.269   5.407
 2021SOL     OW 6628   0.973   2.752   5.296
 2021SOL    HW1 6629   1.019   2.668   5.267
 2021SOL    HW2 6630   0.917   2.786   5.221
 2022SOL     OW 6631   0.991   2.272   4.966
 2022SOL    HW1 6632   0.914   2.306   5.020
 2022SOL    HW2 6633   0.957   2.221   4.887
 2023SOL     OW 6634   1.041   2.563   4.153
 2023SOL    HW1 6635   1.067   2.559   4.249
 2023SOL    HW2 6636   0.956   2.512   4.139
 2024SOL     OW 6637   0.076   2.673   4.513
 2024SOL    HW1 6638   0.175   2.661   4.522
 2024SOL    HW2 6639   0.052   2.768   4.534
 2025SOL     OW 6640   0.130   3.683   5.295
 2025SOL    HW1 6641   0.120   3.668   5.394
 2025SOL    HW2 6642   0.044   3.719   5.259
 2026SOL     OW 6643   0.865   2.210   3.919
 2026SOL    HW1 6644   0.924   2.273   3.870
 2026SOL    HW2 6645   0.884   2.116   3.890
 2027SOL     OW 6646   1.719   2.447   5.555
 2027SOL    HW1 6647   1.693   2.536   5.519
 2027SOL    HW2 6648   1.717   2.379   5.482
 2028SOL     OW 6649   1.362   3.006   4.269
 2028SOL    HW1 6650   1.445   2.977   4.221
 2028SOL    HW2 6651   1.313   3.073   4.213
 2029SOL     OW 6652   0.550   2.058   4.609
 2029SOL    HW1 6653   0.545   2.053   4.709
 2029SOL    HW2 6654   0.552   2.154   4.580
 2030SOL     OW 6655   1.008   3.318   4.201
 2030SOL    HW1 6656   0.962   3.390   4.149
 2030SOL    HW2 6657   1.004   3.338   4.299
 2031SOL     OW 6658   0.351   3.663   4.577
 2031SOL    HW1 6659   0.401   3.577   4.583
 2031SOL    HW2 6660   0.416   3.740   4.574
 2032SOL     OW 6661   1.795   2.928   4.597
 2032SOL    HW1 6662   1.733   2.913   4.521
 2032SOL    HW2 6663   1.743   2.939   4.682
 2033SOL     OW 6664   1.227   3.412   5.230
 2033SOL    HW1 6665   1.233   3.335   5.294
 2033SOL    HW2 6666   1.175   3.386   5.150
 2034SOL     OW 6667   0.321   2.805   3.966
 2034SOL    HW1 6668   0.403   2.844   3.924
 2034SOL    HW2 6669   0.294   2.723   3.917
 2035SOL     OW 6670   1.458   2.597   4.452
 2035SOL    HW1 6671   1.453   2.532   4.527
 2035SOL    HW2 6672   1.538   2.656   4.465
 2036SOL     OW 6673   0.461   3.128   5.451
 2036SOL    HW1 6674   0.411   3.129   5.365
 2036SOL    HW2 6675   0.398   3.110   5.527
 2037SOL     OW 6676   1.111   3.638   3.961
 2037SOL    HW1 6677   1.051   3.576   4.011
 2037SOL    HW2 6678   1.142   3.594   3.876
 2038SOL     OW 6679   0.202   2.147   5.222
 2038SOL    HW1 6680   0.122   2.207   5.209
 2038SOL    HW2 6681   0.192   2.098   5.308
 2039SOL     OW 6682   1.632   3.239   3.805
 2039SOL    HW1 6683   1.600   3.333   3.795
 2039SOL    HW2 6684   1.556   3.176   3.793
 2040SOL     OW 6685   0.464   3.605   4.047
 2040SOL    HW1 6686   0.497   3.644   4.133
 2040SOL    HW2 6687   0.540   3.598   3.982
 2041SOL     OW 6688   1.400   1.969   4.150
 2041SOL    HW1 6689   1.376   1.932   4.060
 2041SOL    HW2 6690   1.499   1.985   4.154
 2042SOL     OW 6691   0.249   3.647   4.965
 2042SOL    HW1 6692   0.306   3.582   5.015
 2042SOL    HW2 6693   0.233   3.614   4.872
 2043SOL     OW 6694   0.940   3.560   4.628
 2043SOL    HW1 6695   1.020   3.503   4.649
 2043SOL    HW2 6696   0.891   3.520   4.551
 2044SOL     OW 6697   0.382   2.562   4.204
 2044SOL    HW1 6698   0.427   2.472   4.201
 2044SOL    HW2 6699   0.288   2.551   4.237
 2045SOL     OW 6700   1.547   2.084   5.453
 2045SOL    HW1 6701   1.542   2.121   5.545
 2045SOL    HW2 6702   1.475   2.015   5.441
 2046SOL     OW 6703   0.614   1.984   3.841
 2046SOL    HW1 6704   0.712   1.962   3.848
 2046SOL    HW2 6705   0.583   1.967   3.748
 2047SOL     OW 6706   0.781   2.126   5.473
 2047SOL    HW1 6707   0.848   2.065   5.516
 2047SOL    HW2 6708   0.708   2.145   5.538
 2048SOL     OW 6709   0.888   3.376   4.919
 2048SOL    HW1 6710   0.865   3.351   4.825
 2048SOL    HW2 6711   0.949   3.307   4.958
 2049SOL     OW 6712   1.351   2.452   5.157
 2049SOL    HW1 6713   1.379   2.409   5.242
 2049SOL    HW2 6714   1.376   2.548   5.158
 2050SOL     OW 6715   0.803   3.264   4.648
 2050SOL    HW1 6716   0.893   3.278   4.606
 2050SOL    HW2 6717   0.732   3.266   4.577
 2051SOL     OW 6718   0.922   2.365   4.623
 2051SOL    HW1 6719   0.897   2.356   4.527
 2051SOL    HW2 6720   0.970   2.283   4.654
 2052SOL     OW 6721   0.539   1.926   4.236
 2052SOL    HW1 6722   0.458   1.927   4.294
 2052SOL    HW2 6723   0.542   2.009   4.181
 2053SOL     OW 6724   1.434   3.050   3.765
 2053SOL    HW1 6725   1.466   2.974   3.822
 2053SOL    HW2 6726   1.342   3.077   3.795
 2054SOL     OW 6727   0.297   1.897   3.895
 2054SOL    HW1 6728   0.346   1.981   3.874
 2054SOL    HW2 6729   0.359   1.832   3.940
 2055SOL     OW 6730   0.935   2.098   4.204
 2055SOL    HW1 6731   0.887   2.139   4.126
 2055SOL    HW2 6732   1.034   2.096   4.185
 2056SOL     OW 6733   1.076   2.545   5.188
 2056SOL    HW1 6734   0.996   2.484   5.191
 2056SOL    HW2 6735   1.157   2.492   5.164
 2057SOL     OW 6736   1.227   3.432   4.517
 2057SOL    HW1 6737   1.248   3.506   4.452
 2057SOL    HW2 6738   1.295   3.432   4.590
 2058SOL     OW 6739   0.459   3.014   4.465
 2058SOL    HW1 6740   0.388   2.987   4.530
 2058SOL    HW2 6741   0.433   2.986   4.372
 2059SOL     OW 6742   1.271   3.659   4.315
 2059SOL    HW1 6743   1.315   3.723   4.251
 2059SOL    HW2 6744   1.221   3.711   4.385
 2060SOL     OW 6745   1.032   2.411   3.740
 2060SOL    HW1 6746   0.991   2.493   3.701
 2060SOL    HW2 6747   1.096   2.437   3.813
 2061SOL     OW 6748   0.078   2.418   5.110
 2061SOL    HW1 6749   0.170   2.417   5.069
 2061SOL    HW2 6750   0.072   2.492   5.177
 2062SOL     OW 6751   0.561   2.084   4.871
 2062SOL    HW1 6752   0.599   2.000   4.908
 2062SOL    HW2 6753   0.473   2.103   4.915
 2063SOL     OW 6754   0.866   2.316   4.366
 2063SOL    HW1 6755   0.834   2.388   4.304
 2063SOL    HW2 6756   0.890   2.235   4.313
 2064SOL     OW 6757   1.017   1.901   4.477
 2064SOL    HW1 6758   0.945   1.906   4.408
 2064SOL    HW2 6759   0.993   1.832   4.546
 2065SOL     OW 6760   1.429   3.035   4.591
 2065SOL    HW1 6761   1.374   2.951   4.584
 2065SOL    HW2 6762   1.455   3.064   4.499
 2066SOL     OW 6763   1.466   2.452   4.716
 2066SOL    HW1 6764   1.436   2.357   4.723
 2066SOL    HW2 6765   1.539   2.468   4.782
 2067SOL     OW 6766   1.857   2.695   4.101
 2067SOL    HW1 6767   1.899   2.631   4.165
 2067SOL    HW2 6768   1.819   2.644   4.023
 2068SOL     OW 6769   0.488   3.247   3.898
 2068SOL    HW1 6770   0.401   3.232   3.945
 2068SOL    HW2 6771   0.471   3.273   3.803
 2069SOL     OW 6772   1.664   3.142   4.381
 2069SOL    HW1 6773   1.763   3.150   4.395
 2069SOL    HW2 6774   1.619   3.226   4.412
 2070SOL     OW 6775   1.390   2.437   3.802
 2070SOL    HW1 6776   1.336   2.416   3.883
 2070SOL    HW2 6777   1.481   2.396   3.811
 2071SOL     OW 6778   0.527   2.118   4.052
 2071SOL    HW1 6779   0.554   2.059   3.977
 2071SOL    HW2 6780   0.527   2.213   4.021
 2072SOL     OW 6781   1.754   3.085   5.312
 2072SOL    HW1 6782   1.845   3.046   5.299
 2072SOL    HW2 6783   1.762   3.181   5.336
 2073SOL     OW 6784   1.064   3.209   5.064
 2073SOL    HW1 6785   0.984   3.186   5.119
 2073SOL    HW2 6786   1.147   3.183   5.113
 2074SOL     OW 6787   1.592   3.491   5.349
 2074SOL    HW1 6788   1.619   3.525   5.259
 2074SOL    HW2 6789   1.671   3.453   5.395
 2075SOL     OW 6790   1.111   3.057   4.824
 2075SOL    HW1 6791   1.071   3.101   4.905
 2075SOL    HW2 6792   1.070   3.094   4.741
 2076SOL     OW 6793   1.638   2.961   4.803
 2076SOL    HW1 6794   1.643   3.042   4.862
 2076SOL    HW2 6795   1.552   2.963   4.752
 2077SOL     OW 6796   0.915   1.951   5.126
 2077SOL    HW1 6797   0.940   1.931   5.031
 2077SOL    HW2 6798   0.987   2.007   5.168
 2078SOL     OW 6799   0.980   2.978   5.443
 2078SOL    HW1 6800   0.881   2.984   5.453
 2078SOL    HW2 6801   1.003   2.898   5.387
 2079SOL     OW 6802   0.705   2.912   4.092
 2079SOL    HW1 6803   0.691   2.919   4.191
 2079SOL    HW2 6804   0.789   2.861   4.074
 2080SOL     OW 6805   0.410   2.675   4.975
 2080SOL    HW1 6806   0.496   2.687   5.025
 2080SOL    HW2 6807   0.368   2.588   5.002
 2081SOL     OW 6808   1.274   2.248   4.986
 2081SOL    HW1 6809   1.295   2.322   5.050
 2081SOL    HW2 6810   1.185   2.265   4.943
 2082SOL     OW 6811   0.064   3.426   5.055
 2082SOL    HW1 6812   0.018   3.508   5.021
 2082SOL    HW2 6813   0.162   3.445   5.064
 2083SOL     OW 6814   0.367   2.962   4.225
 2083SOL    HW1 6815   0.360   3.045   4.169
 2083SOL    HW2 6816   0.371   2.882   4.165
 2084SOL     OW 6817   0.566   2.399   4.589
 2084SOL    HW1 6818   0.578   2.465   4.515
 2084SOL    HW2 6819   0.612   2.433   4.672
 2085SOL     OW 6820   1.252   3.210   4.112
 2085SOL    HW1 6821   1.302   3.287   4.152
 2085SOL    HW2 6822   1.157   3.212   4.144
 2086SOL     OW 6823   1.272   3.307   4.866
 2086SOL    HW1 6824   1.319   3.320   4.953
 2086SOL    HW2 6825   1.206   3.233   4.875
 2087SOL     OW 6826   1.582   2.501   4.196
 2087SOL    HW1 6827   1.551   2.562   4.269
 2087SOL    HW2 6828   1.632   2.553   4.127
 2088SOL     OW 6829   0.354   3.372   5.053
 2088SOL    HW1 6830   0.333   3.328   4.966
 2088SOL    HW2 6831   0.451   3.398   5.056
 2089SOL     OW 6832   0.402   2.613   5.322
 2089SOL    HW1 6833   0.470   2.668   5.275
 2089SOL    HW2 6834   0.442   2.525   5.349
 2090SOL     OW 6835   1.587   2.641   5.394
 2090SOL    HW1 6836   1.495   2.679   5.389
 2090SOL    HW2 6837   1.647   2.688   5.329
 2091SOL     OW 6838   1.013   1.967   5.494
 2091SOL    HW1 6839   1.019   2.052   5.442
 2091SOL    HW2 6840   1.045   1.891   5.437
 2092SOL     OW 6841   0.504   1.912   5.464
 2092SOL    HW1 6842   0.462   1.855   5.394
 2092SOL    HW2 6843   0.438   1.981   5.496
 2093SOL     OW 6844   0.573   2.732   4.753
 2093SOL    HW1 6845   0.617   2.821   4.744
 2093SOL    HW2 6846   0.510   2.732   4.830
 2094SOL     OW 6847   1.360   2.724   4.769
 2094SOL    HW1 6848   1.285   2.724   4.703
 2094SOL    HW2 6849   1.397   2.632   4.778
 2095SOL     OW 6850   1.209   2.387   3.999
 2095SOL    HW1 6851   1.222   2.303   4.053
 2095SOL    HW2 6852   1.180   2.461   4.059
 2096SOL     OW 6853   0.307   2.075   4.955
 2096SOL    HW1 6854   0.284   2.112   5.045
 2096SOL    HW2 6855   0.277   1.980   4.949
 2097SOL     OW 6856   0.037   3.172   5.006
 2097SOL    HW1 6857   0.090   3.123   5.074
 2097SOL    HW2 6858   0.059   3.270   5.011
 2098SOL     OW 6859   0.732   2.496   4.788
 2098SOL    HW1 6860   0.791   2.470   4.712
 2098SOL    HW2 6861   0.704   2.592   4.777
 2099SOL     OW 6862   1.728   2.797   5.578
 2099SOL    HW1 6863   1.682   2.790   5.489
 2099SOL    HW2 6864   1.666   2.841   5.644
 2100SOL     OW 6865   0.307   1.925   4.342
 2100SOL    HW1 6866   0.296   2.019   4.375
 2100SOL    HW2 6867   0.302   1.862   4.419
 2101SOL     OW 6868   1.622   2.229   4.098
 2101SOL    HW1 6869   1.624   2.153   4.162
 2101SOL    HW2 6870   1.574   2.306   4.138
 2102SOL     OW 6871   1.023   2.628   4.690
 2102SOL    HW1 6872   1.038   2.649   4.786
 2102SOL    HW2 6873   0.993   2.533   4.681
 2103SOL     OW 6874   0.980   3.435   5.424
 2103SOL    HW1 6875   0.960   3.479   5.336
 2103SOL    HW2 6876   1.019   3.344   5.408
 2104SOL     OW 6877   1.859   3.380   5.329
 2104SOL    HW1 6878   1.873   3.407   5.234
 2104SOL    HW2 6879   1.942   3.402   5.382
 2105SOL     OW 6880   0.350   2.760   5.528
 2105SOL    HW1 6881   0.426   2.804   5.576
 2105SOL    HW2 6882   0.385   2.713   5.446
 2106SOL     OW 6883   1.540   2.136   3.849
 2106SOL    HW1 6884   1.479   2.061   3.872
 2106SOL    HW2 6885   1.562   2.188   3.932
 2107SOL     OW 6886   1.303   2.700   3.766
 2107SOL    HW1 6887   1.337   2.607   3.781
 2107SOL    HW2 6888   1.321   2.727   3.671
 2108SOL     OW 6889   1.068   3.195   4.573
 2108SOL    HW1 6890   1.075   3.111   4.518
 2108SOL    HW2 6891   1.130   3.264   4.537
 2109SOL     OW 6892   0.319   2.672   4.673
 2109SOL    HW1 6893   0.412   2.708   4.678
 2109SOL    HW2 6894   0.313   2.587   4.725
 2110SOL     OW 6895   0.339   2.371   4.730
 2110SOL    HW1 6896   0.287   2.288   4.713
 2110SOL    HW2 6897   0.416   2.376   4.666
 2111SOL     OW 6898   1.138   2.242   5.402
 2111SOL    HW1 6899   1.093   2.305   5.466
 2111SOL    HW2 6900   1.231   2.273   5.385
 2112SOL     OW 6901   1.160   2.069   5.201
 2112SOL    HW1 6902   1.160   2.133   5.278
 2112SOL    HW2 6903   1.188   2.117   5.118
 2113SOL     OW 6904   0.008   3.188   3.924
 2113SOL    HW1 6905  -0.085   3.209   3.893
 2113SOL    HW2 6906   0.018   3.089   3.937
 2114SOL     OW 6907   0.088   3.663   4.651
 2114SOL    HW1 6908   0.046   3.577   4.624
 2114SOL    HW2 6909   0.182   3.666   4.617
 2115SOL     OW 6910   0.504   3.430   4.634
 2115SOL    HW1 6911   0.570   3.504   4.643
 2115SOL    HW2 6912   0.548   3.351   4.592
 2116SOL     OW 6913   1.002   2.658   4.962
 2116SOL    HW1 6914   1.043   2.626   5.048
 2116SOL    HW2 6915   0.906   2.631   4.959
 2117SOL     OW 6916   0.040   2.406   4.838
 2117SOL    HW1 6917   0.125   2.373   4.797
 2117SOL    HW2 6918   0.053   2.421   4.936
 2118SOL     OW 6919   0.189   2.382   5.446
 2118SOL    HW1 6920   0.248   2.342   5.376
 2118SOL    HW2 6921   0.131   2.453   5.405
 2119SOL     OW 6922   1.369   2.812   5.384
 2119SOL    HW1 6923   1.408   2.901   5.404
 2119SOL    HW2 6924   1.379   2.792   5.287
 2120SOL     OW 6925   0.815   2.434   4.049
 2120SOL    HW1 6926   0.822   2.345   4.003
 2120SOL    HW2 6927   0.721   2.468   4.041
 2121SOL     OW 6928   1.657   2.466   4.930
 2121SOL    HW1 6929   1.619   2.397   4.992
 2121SOL    HW2 6930   1.739   2.430   4.886
 2122SOL     OW 6931   0.252   3.426   5.468
 2122SOL    HW1 6932   0.222   3.483   5.544
 2122SOL    HW2 6933   0.245   3.329   5.494
 2123SOL     OW 6934   0.671   2.326   4.993
 2123SOL    HW1 6935   0.637   2.237   4.963
 2123SOL    HW2 6936   0.697   2.380   4.913
 2124SOL     OW 6937   0.930   3.540   5.189
 2124SOL    HW1 6938   0.906   3.522   5.094
 2124SOL    HW2 6939   0.960   3.634   5.199
 2125SOL     OW 6940   0.473   2.362   3.915
 2125SOL    HW1 6941   0.534   2.442   3.919
 2125SOL    HW2 6942   0.378   2.393   3.922
 2126SOL     OW 6943   0.159   2.999   5.190
 2126SOL    HW1 6944   0.181   2.938   5.266
 2126SOL    HW2 6945   0.169   2.950   5.104
 2127SOL     OW 6946   1.347   2.921   4.958
 2127SOL    HW1 6947   1.371   2.858   4.884
 2127SOL    HW2 6948   1.257   2.961   4.940
 2128SOL     OW 6949   1.302   2.717   4.033
 2128SOL    HW1 6950   1.216   2.686   4.075
 2128SOL    HW2 6951   1.298   2.703   3.934
 2129SOL     OW 6952   1.759   3.609   4.878
 2129SOL    HW1 6953   1.820   3.639   4.805
 2129SOL    HW2 6954   1.721   3.520   4.856
 2130SOL     OW 6955   1.252   3.593   4.852
 2130SOL    HW1 6956   1.336   3.598   4.798
 2130SOL    HW2 6957   1.229   3.497   4.870
 2131SOL     OW 6958   0.083   3.120   4.746
 2131SOL    HW1 6959   0.078   3.119   4.846
 2131SOL    HW2 6960   0.000   3.079   4.708
 2132SOL     OW 6961   0.688   3.524   5.440
 2132SOL    HW1 6962   0.632   3.605   5.449
 2132SOL    HW2 6963   0.740   3.528   5.354
 2133SOL     OW 6964   1.388   3.435   4.201
 2133SOL    HW1 6965   1.455   3.447   4.127
 2133SOL    HW2 6966   1.348   3.524   4.224
 2134SOL     OW 6967   0.130   3.656   5.575
 2134SOL    HW1 6968   0.089   3.582   5.628
 2134SOL    HW2 6969   0.194   3.707   5.633
 2135SOL     OW 6970   1.280   2.789   4.396
 2135SOL    HW1 6971   1.340   2.708   4.398
 2135SOL    HW2 6972   1.320   2.858   4.336
 2136SOL     OW 6973   0.830   3.135   5.146
 2136SOL    HW1 6974   0.825   3.168   5.241
 2136SOL    HW2 6975   0.744   3.154   5.100
 2137SOL     OW 6976   0.672   3.478   3.878
 2137SOL    HW1 6977   0.681   3.488   3.779
 2137SOL    HW2 6978   0.632   3.389   3.899
 2138SOL     OW 6979   1.650   3.582   5.118
 2138SOL    HW1 6980   1.703   3.592   5.034
 2138SOL    HW2 6981   1.623   3.672   5.152
 2139SOL     OW 6982   0.263   2.188   4.444
 2139SOL    HW1 6983   0.184   2.239   4.410
 2139SOL    HW2 6984   0.254   2.173   4.542
 2140SOL     OW 6985   1.194   3.474   3.755
 2140SOL    HW1 6986   1.200   3.381   3.792
 2140SOL    HW2 6987   1.135   3.474   3.675
 2141SOL     OW 6988   0.822   2.864   5.096
 2141SOL    HW1 6989   0.862   2.863   5.004
 2141SOL    HW2 6990   0.832   2.956   5.136
 2142SOL     OW 6991   0.916   2.772   4.015
 2142SOL    HW1 6992   0.979   2.810   3.947
 2142SOL    HW2 6993   0.956   2.689   4.054
 2143SOL     OW 6994   1.504   3.469   3.768
 2143SOL    HW1 6995   1.412   3.506   3.775
 2143SOL    HW2 6996   1.542   3.489   3.678
 2144SOL     OW 6997   0.372   3.150   5.214
 2144SOL    HW1 6998   0.359   3.243   5.180
 2144SOL    HW2 6999   0.288   3.098   5.201
 2145SOL     OW 7000   1.614   3.154   5.013
 2145SOL    HW1 7001   1.674   3.157   5.093
 2145SOL    HW2 7002   1.539   3.218   5.026
 2146SOL     OW 7003   1.039   2.960   4.420
 2146SOL    HW1 7004   0.969   2.913   4.474
 2146SOL    HW2 7005   1.098   2.892   4.377
 2147SOL     OW 7006   1.014   2.098   4.695
 2147SOL    HW1 7007   1.006   2.062   4.602
 2147SOL    HW2 7008   1.012   2.022   4.760
 2148SOL     OW 7009   0.590   3.349   4.215
 2148SOL    HW1 7010   0.632   3.291   4.145
 2148SOL    HW2 7011   0.546   3.428   4.171
 2149SOL     OW 7012   1.709   2.247   5.105
 2149SOL    HW1 7013   1.782   2.316   5.109
 2149SOL    HW2 7014   1.737   2.172   5.046
 2150SOL     OW 7015   0.255   3.210   4.014
 2150SOL    HW1 7016   0.159   3.211   3.987
 2150SOL    HW2 7017   0.267   3.263   4.098
 2151SOL     OW 7018   0.105   2.875   5.450
 2151SOL    HW1 7019   0.028   2.842   5.504
 2151SOL    HW2 7020   0.190   2.845   5.492
 2152SOL     OW 7021   0.672   2.065   5.213
 2152SOL    HW1 7022   0.762   2.049   5.173
 2152SOL    HW2 7023   0.680   2.070   5.312
 2153SOL     OW 7024   0.075   2.207   3.757
 2153SOL    HW1 7025  -0.017   2.179   3.728
 2153SOL    HW2 7026   0.106   2.284   3.701
 2154SOL     OW 7027   1.440   2.718   5.122
 2154SOL    HW1 7028   1.383   2.770   5.059
 2154SOL    HW2 7029   1.536   2.730   5.098
 2155SOL     OW 7030   0.072   2.028   4.042
 2155SOL    HW1 7031   0.055   2.111   3.988
 2155SOL    HW2 7032   0.162   1.991   4.020
 2156SOL     OW 7033   1.183   3.197   3.843
 2156SOL    HW1 7034   1.084   3.186   3.845
 2156SOL    HW2 7035   1.217   3.212   3.936
 2157SOL     OW 7036   0.613   2.704   5.155
 2157SOL    HW1 7037   0.669   2.785   5.138
 2157SOL    HW2 7038   0.672   2.624   5.158
 2158SOL     OW 7039   1.493   3.629   4.683
 2158SOL    HW1 7040   1.526   3.693   4.614
 2158SOL    HW2 7041   1.559   3.623   4.758
 2159SOL     OW 7042   0.716   2.427   5.432
 2159SOL    HW1 7043   0.735   2.492   5.506
 2159SOL    HW2 7044   0.776   2.347   5.441
 2160SOL     OW 7045   1.450   3.082   5.357
 2160SOL    HW1 7046   1.441   3.072   5.456
 2160SOL    HW2 7047   1.546   3.075   5.331
 2161SOL     OW 7048   0.390   3.603   5.284
 2161SOL    HW1 7049   0.299   3.644   5.282
 2161SOL    HW2 7050   0.383   3.509   5.316
 2162SOL     OW 7051   1.674   2.745   4.978
 2162SOL    HW1 7052   1.647   2.656   4.941
 2162SOL    HW2 7053   1.675   2.813   4.905
 2163SOL     OW 7054   1.225   2.187   4.173
 2163SOL    HW1 7055   1.290   2.113   4.162
 2163SOL    HW2 7056   1.245   2.237   4.257
 2164SOL     OW 7057   0.594   2.607   4.376
 2164SOL    HW1 7058   0.644   2.692   4.357
 2164SOL    HW2 7059   0.506   2.609   4.328
 2165SOL     OW 7060   1.777   2.204   5.366
 2165SOL    HW1 7061   1.760   2.235   5.272
 2165SOL    HW2 7062   1.693   2.167   5.404
 2166SOL     OW 7063   1.730   2.796   5.241
 2166SOL    HW1 7064   1.768   2.887   5.256
 2166SOL    HW2 7065   1.722   2.779   5.142
 2167SOL     OW 7066   0.859   3.236   3.740
 2167SOL    HW1 7067   0.813   3.251   3.828
 2167SOL    HW2 7068   0.903   3.321   3.710
 2168SOL     OW 7069   0.661   3.652   4.677
 2168SOL    HW1 7070   0.615   3.740   4.664
 2168SOL    HW2 7071   0.760   3.664   4.670
 2169SOL     OW 7072   0.859   2.818   4.585
 2169SOL    HW1 7073   0.913   2.749   4.633
 2169SOL    HW2 7074   0.827   2.887   4.651
 2170SOL     OW 7075   1.083   2.846   3.811
 2170SOL    HW1 7076   1.060   2.899   3.729
 2170SOL    HW2 7077   1.164   2.790   3.792
 2171SOL     OW 7078   1.861   3.431   4.575
 2171SOL    HW1 7079   1.790   3.419   4.505
 2171SOL    HW2 7080   1.862   3.352   4.635
 2172SOL     OW 7081   0.221   3.176   5.568
 2172SOL    HW1 7082   0.156   3.103   5.547
 2172SOL    HW2 7083   0.225   3.190   5.666
 2173SOL     OW 7084   0.079   3.102   4.377
 2173SOL    HW1 7085   0.078   3.055   4.465
 2173SOL    HW2 7086   0.161   3.074   4.326
 2174SOL     OW 7087   0.672   3.253   5.348
 2174SOL    HW1 7088   0.594   3.203   5.386
 2174SOL    HW2 7089   0.669   3.348   5.379
 2175SOL     OW 7090   0.428   2.286   4.244
 2175SOL    HW1 7091   0.458   2.214   4.182
 2175SOL    HW2 7092   0.389   2.246   4.327
 2176SOL     OW 7093   1.705   3.349   4.828
 2176SOL    HW1 7094   1.612   3.324   4.801
 2176SOL    HW2 7095   1.731   3.299   4.910
 2177SOL     OW 7096   0.317   2.409   5.004
 2177SOL    HW1 7097   0.355   2.350   5.076
 2177SOL    HW2 7098   0.357   2.383   4.916
 2178SOL     OW 7099   0.812   3.448   4.411
 2178SOL    HW1 7100   0.844   3.458   4.317
 2178SOL    HW2 7101   0.733   3.386   4.413
 2179SOL     OW 7102   1.424   2.076   4.836
 2179SOL    HW1 7103   1.476   2.011   4.891
 2179SOL    HW2 7104   1.375   2.139   4.897
 2180SOL     OW 7105   1.001   1.896   4.878
 2180SOL    HW1 7106   0.938   1.824   4.847
 2180SOL    HW2 7107   1.094   1.860   4.878
 2181SOL     OW 7108   0.770   3.192   4.025
 2181SOL    HW1 7109   0.724   3.105   4.042
 2181SOL    HW2 7110   0.861   3.189   4.066
 2182SOL     OW 7111   0.618   3.429   5.008
 2182SOL    HW1 7112   0.613   3.511   5.065
 2182SOL    HW2 7113   0.707   3.426   4.963
 2183SOL     OW 7114   1.352   1.914   3.892
 2183SOL    HW1 7115   1.387   1.873   3.808
 2183SOL    HW2 7116   1.262   1.876   3.912
 2184SOL     OW 7117   1.300   2.315   4.415
 2184SOL    HW1 7118   1.241   2.395   4.419
 2184SOL    HW2 7119   1.315   2.280   4.508
 2185SOL     OW 7120   1.593   2.083   4.606
 2185SOL    HW1 7121   1.509   2.082   4.660
 2185SOL    HW2 7122   1.595   2.166   4.550
 2186SOL     OW 7123   0.039   2.939   4.024
 2186SOL    HW1 7124   0.138   2.928   4.015
 2186SOL    HW2 7125  -0.001   2.853   4.056
 2187SOL     OW 7126   0.875   3.508   4.061
 2187SOL    HW1 7127   0.798   3.473   4.007
 2187SOL    HW2 7128   0.843   3.579   4.123
 2188SOL     OW 7129   0.230   2.490   5.699
 2188SOL    HW1 7130   0.137   2.488   5.736
 2188SOL    HW2 7131   0.231   2.451   5.607
 2189SOL     OW 7132   0.225   2.137   6.582
 2189SOL    HW1 7133   0.260   2.120   6.674
 2189SOL    HW2 7134   0.137   2.092   6.570
 2190SOL     OW 7135   0.019   2.230   6.233
 2190SOL    HW1 7136  -0.063   2.273   6.272
 2190SOL    HW2 7137  -0.009   2.157   6.170
 2191SOL     OW 7138   0.569   3.137   6.751
 2191SOL    HW1 7139   0.476   3.130   6.714
 2191SOL    HW2 7140   0.580   3.226   6.795
 2192SOL     OW 7141   1.555   3.373   6.289
 2192SOL    HW1 7142   1.498   3.357   6.370
 2192SOL    HW2 7143   1.496   3.383   6.209
 2193SOL     OW 7144   1.135   2.565   6.303
 2193SOL    HW1 7145   1.192   2.643   6.278
 2193SOL    HW2 7146   1.075   2.591   6.379
 2194SOL     OW 7147   1.755   2.469   5.817
 2194SOL    HW1 7148   1.743   2.456   5.718
 2194SOL    HW2 7149   1.725   2.388   5.866
 2195SOL     OW 7150   0.768   3.006   6.609
 2195SOL    HW1 7151   0.690   3.023   6.669
 2195SOL    HW2 7152   0.802   3.093   6.573
 2196SOL     OW 7153   0.850   2.660   7.409
 2196SOL    HW1 7154   0.846   2.736   7.474
 2196SOL    HW2 7155   0.872   2.696   7.318
 2197SOL     OW 7156   0.685   2.874   6.251
 2197SOL    HW1 7157   0.754   2.858   6.321
 2197SOL    HW2 7158   0.612   2.931   6.289
 2198SOL     OW 7159   0.686   3.023   7.389
 2198SOL    HW1 7160   0.746   3.102   7.403
 2198SOL    HW2 7161   0.600   3.054   7.348
 2199SOL     OW 7162   0.335   3.297   6.647
 2199SOL    HW1 7163   0.257   3.266   6.594
 2199SOL    HW2 7164   0.393   3.355   6.590
 2200SOL     OW 7165   1.460   3.367   6.925
 2200SOL    HW1 7166   1.484   3.461   6.951
 2200SOL    HW2 7167   1.444   3.313   7.007
 2201SOL     OW 7168   0.438   2.254   7.085
 2201SOL    HW1 7169   0.520   2.198   7.094
 2201SOL    HW2 7170   0.357   2.196   7.089
 2202SOL     OW 7171   0.231   3.575   6.069
 2202SOL    HW1 7172   0.265   3.652   6.123
 2202SOL    HW2 7173   0.275   3.575   5.979
 2203SOL     OW 7174   1.127   3.203   7.276
 2203SOL    HW1 7175   1.174   3.203   7.364
 2203SOL    HW2 7176   1.079   3.116   7.265
 2204SOL     OW 7177   0.230   3.296   6.124
 2204SOL    HW1 7178   0.204   3.392   6.124
 2204SOL    HW2 7179   0.159   3.242   6.169
 2205SOL     OW 7180   0.240   2.953   6.472
 2205SOL    HW1 7181   0.254   2.869   6.524
 2205SOL    HW2 7182   0.185   3.017   6.527
 2206SOL     OW 7183   0.620   3.648   7.025
 2206SOL    HW1 7184   0.528   3.631   7.060
 2206SOL    HW2 7185   0.648   3.740   7.051
 2207SOL     OW 7186   0.606   2.826   5.709
 2207SOL    HW1 7187   0.613   2.910   5.655
 2207SOL    HW2 7188   0.652   2.839   5.797
 2208SOL     OW 7189   0.122   2.505   6.149
 2208SOL    HW1 7190   0.077   2.417   6.166
 2208SOL    HW2 7191   0.121   2.559   6.233
 2209SOL     OW 7192   1.842   3.629   5.945
 2209SOL    HW1 7193   1.896   3.600   6.025
 2209SOL    HW2 7194   1.872   3.719   5.916
 2210SOL     OW 7195   0.027   3.458   5.703
 2210SOL    HW1 7196   0.008   3.362   5.724
 2210SOL    HW2 7197  -0.006   3.516   5.778
 2211SOL     OW 7198   1.641   2.970   6.018
 2211SOL    HW1 7199   1.727   2.972   5.966
 2211SOL    HW2 7200   1.655   3.017   6.106
 2212SOL     OW 7201   0.113   2.599   7.183
 2212SOL    HW1 7202   0.201   2.586   7.228
 2212SOL    HW2 7203   0.100   2.696   7.161
 2213SOL     OW 7204   0.613   3.227   6.312
 2213SOL    HW1 7205   0.564   3.140   6.321
 2213SOL    HW2 7206   0.590   3.270   6.225
 2214SOL     OW 7207   1.293   3.090   7.009
 2214SOL    HW1 7208   1.330   3.017   6.951
 2214SOL    HW2 7209   1.345   3.095   7.094
 2215SOL     OW 7210   0.809   1.866   6.088
 2215SOL    HW1 7211   0.849   1.957   6.079
 2215SOL    HW2 7212   0.709   1.874   6.094
 2216SOL     OW 7213   0.197   2.838   6.850
 2216SOL    HW1 7214   0.286   2.793   6.836
 2216SOL    HW2 7215   0.124   2.773   6.831
 2217SOL     OW 7216   1.525   2.861   5.776
 2217SOL    HW1 7217   1.462   2.785   5.789
 2217SOL    HW2 7218   1.573   2.879   5.862
 2218SOL     OW 7219   1.187   3.654   7.202
 2218SOL    HW1 7220   1.211   3.714   7.126
 2218SOL    HW2 7221   1.194   3.559   7.172
 2219SOL     OW 7222   0.317   2.113   7.387
 2219SOL    HW1 7223   0.388   2.184   7.393
 2219SOL    HW2 7224   0.229   2.152   7.415
 2220SOL     OW 7225   1.466   3.279   6.539
 2220SOL    HW1 7226   1.407   3.285   6.619
 2220SOL    HW2 7227   1.451   3.191   6.493
 2221SOL     OW 7228   1.667   3.576   6.158
 2221SOL    HW1 7229   1.626   3.553   6.070
 2221SOL    HW2 7230   1.649   3.502   6.223
 2222SOL     OW 7231   0.598   2.591   5.856
 2222SOL    HW1 7232   0.622   2.660   5.788
 2222SOL    HW2 7233   0.520   2.624   5.910
 2223SOL     OW 7234   1.281   2.207   6.530
 2223SOL    HW1 7235   1.195   2.157   6.517
 2223SOL    HW2 7236   1.343   2.153   6.586
 2224SOL     OW 7237   1.576   3.524   5.893
 2224SOL    HW1 7238   1.665   3.570   5.896
 2224SOL    HW2 7239   1.555   3.500   5.798
 2225SOL     OW 7240   0.807   2.467   7.051
 2225SOL    HW1 7241   0.760   2.464   7.140
 2225SOL    HW2 7242   0.756   2.412   6.985
 2226SOL     OW 7243   0.973   2.752   7.158
 2226SOL    HW1 7244   1.019   2.668   7.129
 2226SOL    HW2 7245   0.917   2.786   7.083
 2227SOL     OW 7246   0.991   2.272   6.828
 2227SOL    HW1 7247   0.914   2.306   6.882
 2227SOL    HW2 7248   0.957   2.221   6.749
 2228SOL     OW 7249   1.041   2.563   6.015
 2228SOL    HW1 7250   1.067   2.559   6.111
 2228SOL    HW2 7251   0.956   2.512   6.001
 2229SOL     OW 7252   0.076   2.673   6.375
 2229SOL    HW1 7253   0.175   2.661   6.384
 2229SOL    HW2 7254   0.052   2.768   6.396
 2230SOL     OW 7255   0.130   3.683   7.157
 2230SOL    HW1 7256   0.120   3.668   7.256
 2230SOL    HW2 7257   0.044   3.719   7.121
 2231SOL     OW 7258   0.865   2.210   5.781
 2231SOL    HW1 7259   0.924   2.273   5.732
 2231SOL    HW2 7260   0.884   2.116   5.752
 2232SOL     OW 7261   1.362   3.006   6.131
 2232SOL    HW1 7262   1.445   2.977   6.083
 2232SOL    HW2 7263   1.313   3.073   6.075
 2233SOL     OW 7264   0.550   2.058   6.471
 2233SOL    HW1 7265   0.545   2.053   6.571
 2233SOL    HW2 7266   0.552   2.154   6.442
 2234SOL     OW 7267   1.008   3.318   6.063
 2234SOL    HW1 7268   0.962   3.390   6.011
 2234SOL    HW2 7269   1.004   3.338   6.161
 2235SOL     OW 7270   0.351   3.663   6.439
 2235SOL    HW1 7271   0.401   3.577   6.445
 2235SOL    HW2 7272   0.416   3.740   6.436
 2236SOL     OW 7273   1.795   2.928   6.459
 2236SOL    HW1 7274   1.733   2.913   6.383
 2236SOL    HW2 7275   1.743   2.939   6.544
 2237SOL     OW 7276   1.227   3.412   7.092
 2237SOL    HW1 7277   1.233   3.335   7.156
 2237SOL    HW2 7278   1.175   3.386   7.012
 2238SOL     OW 7279   0.321   2.805   5.828
 2238SOL    HW1 7280   0.403   2.844   5.786
 2238SOL    HW2 7281   0.294   2.723   5.779
 2239SOL     OW 7282   0.461   3.128   7.313
 2239SOL    HW1 7283   0.411   3.129   7.227
 2239SOL    HW2 7284   0.398   3.110   7.389
 2240SOL     OW 7285   1.111   3.638   5.823
 2240SOL    HW1 7286   1.051   3.576   5.873
 2240SOL    HW2 7287   1.142   3.594   5.738
 2241SOL     OW 7288   0.202   2.147   7.084
 2241SOL    HW1 7289   0.122   2.207   7.071
 2241SOL    HW2 7290   0.192   2.098   7.170
 2242SOL     OW 7291   1.632   3.239   5.667
 2242SOL    HW1 7292   1.600   3.333   5.657
 2242SOL    HW2 7293   1.556   3.176   5.655
 2243SOL     OW 7294   0.464   3.605   5.909
 2243SOL    HW1 7295   0.497   3.644   5.995
 2243SOL    HW2 7296   0.540   3.598   5.844
 2244SOL     OW 7297   0.249   3.647   6.827
 2244SOL    HW1 7298   0.306   3.582   6.877
 2244SOL    HW2 7299   0.233   3.614   6.734
 2245SOL     OW 7300   0.940   3.560   6.490
 2245SOL    HW1 7301   1.020   3.503   6.511
 2245SOL    HW2 7302   0.891   3.520   6.413
 2246SOL     OW 7303   0.382   2.562   6.066
 2246SOL    HW1 7304   0.427   2.472   6.063
 2246SOL    HW2 7305   0.288   2.551   6.099
 2247SOL     OW 7306   0.614   1.984   5.703
 2247SOL    HW1 7307   0.712   1.962   5.710
 2247SOL    HW2 7308   0.583   1.967   5.610
 2248SOL     OW 7309   0.781   2.126   7.335
 2248SOL    HW1 7310   0.848   2.065   7.378
 2248SOL    HW2 7311   0.708   2.145   7.400
 2249SOL     OW 7312   0.888   3.376   6.781
 2249SOL    HW1 7313   0.865   3.351   6.687
 2249SOL    HW2 7314   0.949   3.307   6.820
 2250SOL     OW 7315   1.351   2.452   7.019
 2250SOL    HW1 7316   1.379   2.409   7.104
 2250SOL    HW2 7317   1.376   2.548   7.020
 2251SOL     OW 7318   0.803   3.264   6.510
 2251SOL    HW1 7319   0.893   3.278   6.468
 2251SOL    HW2 7320   0.732   3.266   6.439
 2252SOL     OW 7321   0.922   2.365   6.485
 2252SOL    HW1 7322   0.897   2.356   6.389
 2252SOL    HW2 7323   0.970   2.283   6.516
 2253SOL     OW 7324   0.539   1.926   6.098
 2253SOL    HW1 7325   0.458   1.927   6.156
 2253SOL    HW2 7326   0.542   2.009   6.043
 2254SOL     OW 7327   1.434   3.050   5.627
 2254SOL    HW1 7328   1.466   2.974   5.684
 2254SOL    HW2 7329   1.342   3.077   5.657
 2255SOL     OW 7330   0.297   1.897   5.757
 2255SOL    HW1 7331   0.346   1.981   5.736
 2255SOL    HW2 7332   0.359   1.832   5.802
 2256SOL     OW 7333   0.935   2.098   6.066
 2256SOL    HW1 7334   0.887   2.139   5.988
 2256SOL    HW2 7335   1.034   2.096   6.047
 2257SOL     OW 7336   1.076   2.545   7.050
 2257SOL    HW1 7337   0.996   2.484   7.053
 2257SOL    HW2 7338   1.157   2.492   7.026
 2258SOL     OW 7339   1.227   3.432   6.379
 2258SOL    HW1 7340   1.248   3.506   6.314
 2258SOL    HW2 7341   1.295   3.432   6.452
 2259SOL     OW 7342   0.459   3.014   6.327
 2259SOL    HW1 7343   0.388   2.987   6.392
 2259SOL    HW2 7344   0.433   2.986   6.234
 2260SOL     OW 7345   1.271   3.659   6.177
 2260SOL    HW1 7346   1.315   3.723   6.113
 2260SOL    HW2 7347   1.221   3.711   6.247
 2261SOL     OW 7348   1.032   2.411   5.602
 2261SOL    HW1 7349   0.991   2.493   5.563
 2261SOL    HW2 7350   1.096   2.437   5.675
 2262SOL     OW 7351   0.078   2.418   6.972
 2262SOL    HW1 7352   0.170   2.417   6.931
 2262SOL    HW2 7353   0.072   2.492   7.039
 2263SOL     OW 7354   0.561   2.084   6.733
 2263SOL    HW1 7355   0.599   2.000   6.770
 2263SOL    HW2 7356   0.473   2.103   6.777
 2264SOL     OW 7357   0.866   2.316   6.228
 2264SOL    HW1 7358   0.834   2.388   6.166
 2264SOL    HW2 7359   0.890   2.235   6.175
 2265SOL     OW 7360   1.017   1.901   6.339
 2265SOL    HW1 7361   0.945   1.906   6.270
 2265SOL    HW2 7362   0.993   1.832   6.408
 2266SOL     OW 7363   1.429   3.035   6.453
 2266SOL    HW1 7364   1.374   2.951   6.446
 2266SOL    HW2 7365   1.455   3.064   6.361
 2267SOL     OW 7366   0.488   3.247   5.760
 2267SOL    HW1 7367   0.401   3.232   5.807
 2267SOL    HW2 7368   0.471   3.273   5.665
 2268SOL     OW 7369   1.664   3.142   6.243
 2268SOL    HW1 7370   1.763   3.150   6.257
 2268SOL    HW2 7371   1.619   3.226   6.274
 2269SOL     OW 7372   1.390   2.437   5.664
 2269SOL    HW1 7373   1.336   2.416   5.745
 2269SOL    HW2 7374   1.481   2.396   5.673
 2270SOL     OW 7375   0.527   2.118   5.914
 2270SOL    HW1 7376   0.554   2.059   5.839
 2270SOL    HW2 7377   0.527   2.213   5.883
 2271SOL     OW 7378   1.754   3.085   7.174
 2271SOL    HW1 7379   1.845   3.046   7.161
 2271SOL    HW2 7380   1.762   3.181   7.198
 2272SOL     OW 7381   1.064   3.209   6.926
 2272SOL    HW1 7382   0.984   3.186   6.981
 2272SOL    HW2 7383   1.147   3.183   6.975
 2273SOL     OW 7384   1.592   3.491   7.211
 2273SOL    HW1 7385   1.619   3.525   7.121
 2273SOL    HW2 7386   1.671   3.453   7.257
 2274SOL     OW 7387   1.111   3.057   6.686
 2274SOL    HW1 7388   1.071   3.101   6.767
 2274SOL    HW2 7389   1.070   3.094   6.603
 2275SOL     OW 7390   1.638   2.961   6.665
 2275SOL    HW1 7391   1.643   3.042   6.724
 2275SOL    HW2 7392   1.552   2.963   6.614
 2276SOL     OW 7393   0.915   1.951   6.988
 2276SOL    HW1 7394   0.940   1.931   6.893
 2276SOL    HW2 7395   0.987   2.007   7.030
 2277SOL     OW 7396   0.980   2.978   7.305
 2277SOL    HW1 7397   0.881   2.984   7.315
 2277SOL    HW2 7398   1.003   2.898   7.249
 2278SOL     OW 7399   0.705   2.912   5.954
 2278SOL    HW1 7400   0.691   2.919   6.053
 2278SOL    HW2 7401   0.789   2.861   5.936
 2279SOL     OW 7402   0.410   2.675   6.837
 2279SOL    HW1 7403   0.496   2.687   6.887
 2279SOL    HW2 7404   0.368   2.588   6.864
 2280SOL     OW 7405   1.274   2.248   6.848
 2280SOL    HW1 7406   1.295   2.322   6.912
 2280SOL    HW2 7407   1.185   2.265   6.805
 2281SOL     OW 7408   0.064   3.426   6.917
 2281SOL    HW1 7409   0.018   3.508   6.883
 2281SOL    HW2 7410   0.162   3.445   6.926
 2282SOL     OW 7411   0.367   2.962   6.087
 2282SOL    HW1 7412   0.360   3.045   6.031
 2282SOL    HW2 7413   0.371   2.882   6.027
 2283SOL     OW 7414   0.566   2.399   6.451
 2283SOL    HW1 7415   0.578   2.465   6.377
 2283SOL    HW2 7416   0.612   2.433   6.534
 2284SOL     OW 7417   1.252   3.210   5.974
 2284SOL    HW1 7418   1.302   3.287   6.014
 2284SOL    HW2 7419   1.157   3.212   6.006
 2285SOL     OW 7420   1.272   3.307   6.728
 2285SOL    HW1 7421   1.319   3.320   6.815
 2285SOL    HW2 7422   1.206   3.233   6.737
 2286SOL     OW 7423   0.354   3.372   6.915
 2286SOL    HW1 7424   0.333   3.328   6.828
 2286SOL    HW2 7425   0.451   3.398   6.918
 2287SOL     OW 7426   0.402   2.613   7.184
 2287SOL    HW1 7427   0.470   2.668   7.137
 2287SOL    HW2 7428   0.442   2.525   7.211
 2288SOL     OW 7429   1.587   2.641   7.256
 2288SOL    HW1 7430   1.495   2.679   7.251
 2288SOL    HW2 7431   1.647   2.688   7.191
 2289SOL     OW 7432   1.013   1.967   7.356
 2289SOL    HW1 7433   1.019   2.052   7.304
 2289SOL    HW2 7434   1.045   1.891   7.299
 2290SOL     OW 7435   0.504   1.912   7.326
 2290SOL    HW1 7436   0.462   1.855   7.256
 2290SOL    HW2 7437   0.438   1.981   7.358
 2291SOL     OW 7438   0.573   2.732   6.615
 2291SOL    HW1 7439   0.617   2.821   6.606
 2291SOL    HW2 7440   0.510   2.732   6.692
 2292SOL     OW 7441   1.360   2.724   6.631
 2292SOL    HW1 7442   1.285   2.724   6.565
 2292SOL    HW2 7443   1.397   2.632   6.640
 2293SOL     OW 7444   1.209   2.387   5.861
 2293SOL    HW1 7445   1.222   2.303   5.915
 2293SOL    HW2 7446   1.180   2.461   5.921
 2294SOL     OW 7447   0.307   2.075   6.817
 2294SOL    HW1 7448   0.284   2.112   6.907
 2294SOL    HW2 7449   0.277   1.980   6.811
 2295SOL     OW 7450   0.037   3.172   6.868
 2295SOL    HW1 7451   0.090   3.123   6.936
 2295SOL    HW2 7452   0.059   3.270   6.873
 2296SOL     OW 7453   0.732   2.496   6.650
 2296SOL    HW1 7454   0.791   2.470   6.574
 2296SOL    HW2 7455   0.704   2.592   6.639
 2297SOL     OW 7456   1.728   2.797   7.440
 2297SOL    HW1 7457   1.682   2.790   7.351
 2297SOL    HW2 7458   1.666   2.841   7.506
 2298SOL     OW 7459   0.307   1.925   6.204
 2298SOL    HW1 7460   0.296   2.019   6.237
 2298SOL    HW2 7461   0.302   1.862   6.281
 2299SOL     OW 7462   1.023   2.628   6.552
 2299SOL    HW1 7463   1.038   2.649   6.648
 2299SOL    HW2 7464   0.993   2.533   6.543
 2300SOL     OW 7465   0.980   3.435   7.286
 2300SOL    HW1 7466   0.960   3.479   7.198
 2300SOL    HW2 7467   1.019   3.344   7.270
 2301SOL     OW 7468   1.859   3.380   7.191
 2301SOL    HW1 7469   1.873   3.407   7.096
 2301SOL    HW2 7470   1.942   3.402   7.244
 2302SOL     OW 7471   0.350   2.760   7.390
 2302SOL    HW1 7472   0.426   2.804   7.438
 2302SOL    HW2 7473   0.385   2.713   7.308
 2303SOL     OW 7474   1.540   2.136   5.711
 2303SOL    HW1 7475   1.479   2.061   5.734
 2303SOL    HW2 7476   1.562   2.188   5.794
 2304SOL     OW 7477   1.303   2.700   5.628
 2304SOL    HW1 7478   1.337   2.607   5.643
 2304SOL    HW2 7479   1.321   2.727   5.533
 2305SOL     OW 7480   1.068   3.195   6.435
 2305SOL    HW1 7481   1.075   3.111   6.380
 2305SOL    HW2 7482   1.130   3.264   6.399
 2306SOL     OW 7483   0.319   2.672   6.535
 2306SOL    HW1 7484   0.412   2.708   6.540
 2306SOL    HW2 7485   0.313   2.587   6.587
 2307SOL     OW 7486   0.339   2.371   6.592
 2307SOL    HW1 7487   0.287   2.288   6.575
 2307SOL    HW2 7488   0.416   2.376   6.528
 2308SOL     OW 7489   1.138   2.242   7.264
 2308SOL    HW1 7490   1.093   2.305   7.328
 2308SOL    HW2 7491   1.231   2.273   7.247
 2309SOL     OW 7492   0.008   3.188   5.786
 2309SOL    HW1 7493  -0.085   3.209   5.755
 2309SOL    HW2 7494   0.018   3.089   5.799
 2310SOL     OW 7495   0.088   3.663   6.513
 2310SOL    HW1 7496   0.046   3.577   6.486
 2310SOL    HW2 7497   0.182   3.666   6.479
 2311SOL     OW 7498   0.504   3.430   6.496
 2311SOL    HW1 7499   0.570   3.504   6.505
 2311SOL    HW2 7500   0.548   3.351   6.454
 2312SOL     OW 7501   1.002   2.658   6.824
 2312SOL    HW1 7502   1.043   2.626   6.910
 2312SOL    HW2 7503   0.906   2.631   6.821
 2313SOL     OW 7504   0.040   2.406   6.700
 2313SOL    HW1 7505   0.125   2.373   6.659
 2313SOL    HW2 7506   0.053   2.421   6.798
 2314SOL     OW 7507   0.189   2.382   7.308
 2314SOL    HW1 7508   0.248   2.342   7.238
 2314SOL    HW2 7509   0.131   2.453   7.267
 2315SOL     OW 7510   1.369   2.812   7.246
 2315SOL    HW1 7511   1.408   2.901   7.266
 2315SOL    HW2 7512   1.379   2.792   7.149
 2316SOL     OW 7513   0.815   2.434   5.911
 2316SOL    HW1 7514   0.822   2.345   5.865
 2316SOL    HW2 7515   0.721   2.468   5.903
 2317SOL     OW 7516   0.252   3.426   7.330
 2317SOL    HW1 7517   0.222   3.483   7.406
 2317SOL    HW2 7518   0.245   3.329   7.356
 2318SOL     OW 7519   0.671   2.326   6.855
 2318SOL    HW1 7520   0.637   2.237   6.825
 2318SOL    HW2 7521   0.697   2.380   6.775
 2319SOL     OW 7522   0.930   3.540   7.051
 2319SOL    HW1 7523   0.906   3.522   6.956
 2319SOL    HW2 7524   0.960   3.634   7.061
 2320SOL     OW 7525   0.473   2.362   5.777
 2320SOL    HW1 7526   0.534   2.442   5.781
 2320SOL    HW2 7527   0.378   2.393   5.784
 2321SOL     OW 7528   0.159   2.999   7.052
 2321SOL    HW1 7529   0.181   2.938   7.128
 2321SOL    HW2 7530   0.169   2.950   6.966
 2322SOL     OW 7531   1.347   2.921   6.820
 2322SOL    HW1 7532   1.371   2.858   6.746
 2322SOL    HW2 7533   1.257   2.961   6.802
 2323SOL     OW 7534   1.302   2.717   5.895
 2323SOL    HW1 7535   1.216   2.686   5.937
 2323SOL    HW2 7536   1.298   2.703   5.796
 2324SOL     OW 7537   1.759   3.609   6.740
 2324SOL    HW1 7538   1.820   3.639   6.667
 2324SOL    HW2 7539   1.721   3.520   6.718
 2325SOL     OW 7540   1.252   3.593   6.714
 2325SOL    HW1 7541   1.336   3.598   6.660
 2325SOL    HW2 7542   1.229   3.497   6.732
 2326SOL     OW 7543   0.083   3.120   6.608
 2326SOL    HW1 7544   0.078   3.119   6.708
 2326SOL    HW2 7545   0.000   3.079   6.570
 2327SOL     OW 7546   0.688   3.524   7.302
 2327SOL    HW1 7547   0.632   3.605   7.311
 2327SOL    HW2 7548   0.740   3.528   7.216
 2328SOL     OW 7549   1.726   1.997   6.109
 2328SOL    HW1 7550   1.799   1.980   6.042
 2328SOL    HW2 7551   1.695   1.910   6.147
 2329SOL     OW 7552   1.388   3.435   6.063
 2329SOL    HW1 7553   1.455   3.447   5.989
 2329SOL    HW2 7554   1.348   3.524   6.086
 2330SOL     OW 7555   0.130   3.656   7.437
 2330SOL    HW1 7556   0.089   3.582   7.490
 2330SOL    HW2 7557   0.194   3.707   7.495
 2331SOL     OW 7558   1.280   2.789   6.258
 2331SOL    HW1 7559   1.340   2.708   6.260
 2331SOL    HW2 7560   1.320   2.858   6.198
 2332SOL     OW 7561   0.830   3.135   7.008
 2332SOL    HW1 7562   0.825   3.168   7.103
 2332SOL    HW2 7563   0.744   3.154   6.962
 2333SOL     OW 7564   0.672   3.478   5.740
 2333SOL    HW1 7565   0.681   3.488   5.641
 2333SOL    HW2 7566   0.632   3.389   5.761
 2334SOL     OW 7567   1.650   3.582   6.980
 2334SOL    HW1 7568   1.703   3.592   6.896
 2334SOL    HW2 7569   1.623   3.672   7.014
 2335SOL     OW 7570   0.263   2.188   6.306
 2335SOL    HW1 7571   0.184   2.239   6.272
 2335SOL    HW2 7572   0.254   2.173   6.404
 2336SOL     OW 7573   1.194   3.474   5.617
 2336SOL    HW1 7574   1.200   3.381   5.654
 2336SOL    HW2 7575   1.135   3.474   5.537
 2337SOL     OW 7576   0.822   2.864   6.958
 2337SOL    HW1 7577   0.862   2.863   6.866
 2337SOL    HW2 7578   0.832   2.956   6.998
 2338SOL     OW 7579   0.916   2.772   5.877
 2338SOL    HW1 7580   0.979   2.810   5.809
 2338SOL    HW2 7581   0.956   2.689   5.916
 2339SOL     OW 7582   1.504   3.469   5.630
 2339SOL    HW1 7583   1.412   3.506   5.637
 2339SOL    HW2 7584   1.542   3.489   5.540
 2340SOL     OW 7585   0.372   3.150   7.076
 2340SOL    HW1 7586   0.359   3.243   7.042
 2340SOL    HW2 7587   0.288   3.098   7.063
 2341SOL     OW 7588   1.614   3.154   6.875
 2341SOL    HW1 7589   1.674   3.157   6.955
 2341SOL    HW2 7590   1.539   3.218   6.888
 2342SOL     OW 7591   1.039   2.960   6.282
 2342SOL    HW1 7592   0.969   2.913   6.336
 2342SOL    HW2 7593   1.098   2.892   6.239
 2343SOL     OW 7594   1.014   2.098   6.557
 2343SOL    HW1 7595   1.006   2.062   6.464
 2343SOL    HW2 7596   1.012   2.022   6.622
 2344SOL     OW 7597   0.590   3.349   6.077
 2344SOL    HW1 7598   0.632   3.291   6.007
 2344SOL    HW2 7599   0.546   3.428   6.033
 2345SOL     OW 7600   0.255   3.210   5.876
 2345SOL    HW1 7601   0.159   3.211   5.849
 2345SOL    HW2 7602   0.267   3.263   5.960
 2346SOL     OW 7603   0.105   2.875   7.312
 2346SOL    HW1 7604   0.028   2.842   7.366
 2346SOL    HW2 7605   0.190   2.845   7.354
 2347SOL     OW 7606   0.672   2.065   7.075
 2347SOL    HW1 7607   0.762   2.049   7.035
 2347SOL    HW2 7608   0.680   2.070   7.174
 2348SOL     OW 7609   0.075   2.207   5.619
 2348SOL    HW1 7610  -0.017   2.179   5.590
 2348SOL    HW2 7611   0.106   2.284   5.563
 2349SOL     OW 7612   1.440   2.718   6.984
 2349SOL    HW1 7613   1.383   2.770   6.921
 2349SOL    HW2 7614   1.536   2.730   6.960
 2350SOL     OW 7615   0.072   2.028   5.904
 2350SOL    HW1 7616   0.055   2.111   5.850
 2350SOL    HW2 7617   0.162   1.991   5.882
 2351SOL     OW 7618   1.183   3.197   5.705
 2351SOL    HW1 7619   1.084   3.186   5.707
 2351SOL    HW2 7620   1.217   3.212   5.798
 2352SOL     OW 7621   0.613   2.704   7.017
 2352SOL    HW1 7622   0.669   2.785   7.000
 2352SOL    HW2 7623   0.672   2.624   7.020
 2353SOL     OW 7624   1.493   3.629   6.545
 2353SOL    HW1 7625   1.526   3.693   6.476
 2353SOL    HW2 7626   1.559   3.623   6.620
 2354SOL     OW 7627   0.716   2.427   7.294
 2354SOL    HW1 7628   0.735   2.492   7.368
 2354SOL    HW2 7629   0.776   2.347   7.303
 2355SOL     OW 7630   1.450   3.082   7.219
 2355SOL    HW1 7631   1.441   3.072   7.318
 2355SOL    HW2 7632   1.546   3.075   7.193
 2356SOL     OW 7633   0.390   3.603   7.146
 2356SOL    HW1 7634   0.299   3.644   7.144
 2356SOL    HW2 7635   0.383   3.509   7.178
 2357SOL     OW 7636   1.674   2.745   6.840
 2357SOL    HW1 7637   1.647   2.656   6.803
 2357SOL    HW2 7638   1.675   2.813   6.767
 2358SOL     OW 7639   0.594   2.607   6.238
 2358SOL    HW1 7640   0.644   2.692   6.219
 2358SOL    HW2 7641   0.506   2.609   6.190
 2359SOL     OW 7642   1.730   2.796   7.103
 2359SOL    HW1 7643   1.768   2.887   7.118
 2359SOL    HW2 7644   1.722   2.779   7.004
 2360SOL     OW 7645   0.859   3.236   5.602
 2360SOL    HW1 7646   0.813   3.251   5.690
 2360SOL    HW2 7647   0.903   3.321   5.572
 2361SOL     OW 7648   0.661   3.652   6.539
 2361SOL    HW1 7649   0.615   3.740   6.526
 2361SOL    HW2 7650   0.760   3.664   6.532
 2362SOL     OW 7651   0.859   2.818   6.447
 2362SOL    HW1 7652   0.913   2.749   6.495
 2362SOL    HW2 7653   0.827   2.887   6.513
 2363SOL     OW 7654   1.083   2.846   5.673
 2363SOL    HW1 7655   1.060   2.899   5.591
 2363SOL    HW2 7656   1.164   2.790   5.654
 2364SOL     OW 7657   1.861   3.431   6.437
 2364SOL    HW1 7658   1.790   3.419   6.367
 2364SOL    HW2 7659   1.862   3.352   6.497
 2365SOL     OW 7660   0.221   3.176   7.430
 2365SOL    HW1 7661   0.156   3.103   7.409
 2365SOL    HW2 7662   0.225   3.190   7.528
 2366SOL     OW 7663   0.079   3.102   6.239
 2366SOL    HW1 7664   0.078   3.055   6.327
 2366SOL    HW2 7665   0.161   3.074   6.188
 2367SOL     OW 7666   0.672   3.253   7.210
 2367SOL    HW1 7667   0.594   3.203   7.248
 2367SOL    HW2 7668   0.669   3.348   7.241
 2368SOL     OW 7669   0.428   2.286   6.106
 2368SOL    HW1 7670   0.458   2.214   6.044
 2368SOL    HW2 7671   0.389   2.246   6.189
 2369SOL     OW 7672   1.705   3.349   6.690
 2369SOL    HW1 7673   1.612   3.324   6.663
 2369SOL    HW2 7674   1.731   3.299   6.772
 2370SOL     OW 7675   0.317   2.409   6.866
 2370SOL    HW1 7676   0.355   2.350   6.938
 2370SOL    HW2 7677   0.357   2.383   6.778
 2371SOL     OW 7678   0.812   3.448   6.273
 2371SOL    HW1 7679   0.844   3.458   6.179
 2371SOL    HW2 7680   0.733   3.386   6.275
 2372SOL     OW 7681   1.001   1.896   6.740
 2372SOL    HW1 7682   0.938   1.824   6.709
 2372SOL    HW2 7683   1.094   1.860   6.740
 2373SOL     OW 7684   0.770   3.192   5.887
 2373SOL    HW1 7685   0.724   3.105   5.904
 2373SOL    HW2 7686   0.861   3.189   5.928
 2374SOL     OW 7687   0.618   3.429   6.870
 2374SOL    HW1 7688   0.613   3.511   6.927
 2374SOL    HW2 7689   0.707   3.426   6.825
 2375SOL     OW 7690   1.352   1.914   5.754
 2375SOL    HW1 7691   1.387   1.873   5.670
 2375SOL    HW2 7692   1.262   1.876   5.774
 2376SOL     OW 7693   0.039   2.939   5.886
 2376SOL    HW1 7694   0.138   2.928   5.877
 2376SOL    HW2 7695  -0.001   2.853   5.918
 2377SOL     OW 7696   0.875   3.508   5.923
 2377SOL    HW1 7697   0.798   3.473   5.869
 2377SOL    HW2 7698   0.843   3.579   5.985
 2378SOL     OW 7699   0.230   2.490   7.561
 2378SOL    HW1 7700   0.137   2.488   7.598
 2378SOL    HW2 7701   0.231   2.451   7.469
 2379SOL     OW 7702   0.225   2.137   8.444
 2379SOL    HW1 7703   0.260   2.120   8.536
 2379SOL    HW2 7704   0.137   2.092   8.432
 2380SOL     OW 7705   0.019   2.230   8.095
 2380SOL    HW1 7706  -0.063   2.273   8.134
 2380SOL    HW2 7707  -0.009   2.157   8.032
 2381SOL     OW 7708   0.569   3.137   8.613
 2381SOL    HW1 7709   0.476   3.130   8.576
 2381SOL    HW2 7710   0.580   3.226   8.657
 2382SOL     OW 7711   1.555   3.373   8.151
 2382SOL    HW1 7712   1.498   3.357   8.232
 2382SOL    HW2 7713   1.496   3.383   8.071
 2383SOL     OW 7714   1.135   2.565   8.165
 2383SOL    HW1 7715   1.192   2.643   8.140
 2383SOL    HW2 7716   1.075   2.591   8.241
 2384SOL     OW 7717   0.768   3.006   8.471
 2384SOL    HW1 7718   0.690   3.023   8.531
 2384SOL    HW2 7719   0.802   3.093   8.435
 2385SOL     OW 7720   0.850   2.660   9.271
 2385SOL    HW1 7721   0.846   2.736   9.336
 2385SOL    HW2 7722   0.872   2.696   9.180
 2386SOL     OW 7723   0.685   2.874   8.113
 2386SOL    HW1 7724   0.754   2.858   8.183
 2386SOL    HW2 7725   0.612   2.931   8.151
 2387SOL     OW 7726   0.686   3.023   9.251
 2387SOL    HW1 7727   0.746   3.102   9.265
 2387SOL    HW2 7728   0.600   3.054   9.210
 2388SOL     OW 7729   0.335   3.297   8.509
 2388SOL    HW1 7730   0.257   3.266   8.456
 2388SOL    HW2 7731   0.393   3.355   8.452
 2389SOL     OW 7732   1.460   3.367   8.787
 2389SOL    HW1 7733   1.484   3.461   8.813
 2389SOL    HW2 7734   1.444   3.313   8.869
 2390SOL     OW 7735   0.438   2.254   8.947
 2390SOL    HW1 7736   0.520   2.198   8.956
 2390SOL    HW2 7737   0.357   2.196   8.951
 2391SOL     OW 7738   1.603   2.309   8.185
 2391SOL    HW1 7739   1.529   2.355   8.135
 2391SOL    HW2 7740   1.654   2.377   8.238
 2392SOL     OW 7741   0.231   3.575   7.931
 2392SOL    HW1 7742   0.265   3.652   7.985
 2392SOL    HW2 7743   0.275   3.575   7.841
 2393SOL     OW 7744   1.127   3.203   9.138
 2393SOL    HW1 7745   1.174   3.203   9.226
 2393SOL    HW2 7746   1.079   3.116   9.127
 2394SOL     OW 7747   0.230   3.296   7.986
 2394SOL    HW1 7748   0.204   3.392   7.986
 2394SOL    HW2 7749   0.159   3.242   8.031
 2395SOL     OW 7750   0.240   2.953   8.334
 2395SOL    HW1 7751   0.254   2.869   8.386
 2395SOL    HW2 7752   0.185   3.017   8.389
 2396SOL     OW 7753   0.620   3.648   8.887
 2396SOL    HW1 7754   0.528   3.631   8.922
 2396SOL    HW2 7755   0.648   3.740   8.913
 2397SOL     OW 7756   0.606   2.826   7.571
 2397SOL    HW1 7757   0.613   2.910   7.517
 2397SOL    HW2 7758   0.652   2.839   7.659
 2398SOL     OW 7759   1.594   1.976   8.928
 2398SOL    HW1 7760   1.576   2.043   8.856
 2398SOL    HW2 7761   1.591   2.022   9.017
 2399SOL     OW 7762   0.122   2.505   8.011
 2399SOL    HW1 7763   0.077   2.417   8.028
 2399SOL    HW2 7764   0.121   2.559   8.095
 2400SOL     OW 7765   1.842   3.629   7.807
 2400SOL    HW1 7766   1.896   3.600   7.887
 2400SOL    HW2 7767   1.872   3.719   7.778
 2401SOL     OW 7768   0.027   3.458   7.565
 2401SOL    HW1 7769   0.008   3.362   7.586
 2401SOL    HW2 7770  -0.006   3.516   7.640
 2402SOL     OW 7771   1.689   2.784   8.060
 2402SOL    HW1 7772   1.784   2.755   8.068
 2402SOL    HW2 7773   1.681   2.849   7.985
 2403SOL     OW 7774   1.641   2.970   7.880
 2403SOL    HW1 7775   1.727   2.972   7.828
 2403SOL    HW2 7776   1.655   3.017   7.968
 2404SOL     OW 7777   0.113   2.599   9.045
 2404SOL    HW1 7778   0.201   2.586   9.090
 2404SOL    HW2 7779   0.100   2.696   9.023
 2405SOL     OW 7780   0.613   3.227   8.174
 2405SOL    HW1 7781   0.564   3.140   8.183
 2405SOL    HW2 7782   0.590   3.270   8.087
 2406SOL     OW 7783   1.293   3.090   8.871
 2406SOL    HW1 7784   1.330   3.017   8.813
 2406SOL    HW2 7785   1.345   3.095   8.956
 2407SOL     OW 7786   0.809   1.866   7.950
 2407SOL    HW1 7787   0.849   1.957   7.941
 2407SOL    HW2 7788   0.709   1.874   7.956
 2408SOL     OW 7789   0.197   2.838   8.712
 2408SOL    HW1 7790   0.286   2.793   8.698
 2408SOL    HW2 7791   0.124   2.773   8.693
 2409SOL     OW 7792   1.525   2.861   7.638
 2409SOL    HW1 7793   1.462   2.785   7.651
 2409SOL    HW2 7794   1.573   2.879   7.724
 2410SOL     OW 7795   1.187   3.654   9.064
 2410SOL    HW1 7796   1.211   3.714   8.988
 2410SOL    HW2 7797   1.194   3.559   9.034
 2411SOL     OW 7798   0.317   2.113   9.249
 2411SOL    HW1 7799   0.388   2.184   9.255
 2411SOL    HW2 7800   0.229   2.152   9.277
 2412SOL     OW 7801   1.466   3.279   8.401
 2412SOL    HW1 7802   1.407   3.285   8.481
 2412SOL    HW2 7803   1.451   3.191   8.355
 2413SOL     OW 7804   1.667   3.576   8.020
 2413SOL    HW1 7805   1.626   3.553   7.932
 2413SOL    HW2 7806   1.649   3.502   8.085
 2414SOL     OW 7807   0.598   2.591   7.718
 2414SOL    HW1 7808   0.622   2.660   7.650
 2414SOL    HW2 7809   0.520   2.624   7.772
 2415SOL     OW 7810   1.281   2.207   8.392
 2415SOL    HW1 7811   1.195   2.157   8.379
 2415SOL    HW2 7812   1.343   2.153   8.448
 2416SOL     OW 7813   1.576   3.524   7.755
 2416SOL    HW1 7814   1.665   3.570   7.758
 2416SOL    HW2 7815   1.555   3.500   7.660
 2417SOL     OW 7816   0.807   2.467   8.913
 2417SOL    HW1 7817   0.760   2.464   9.002
 2417SOL    HW2 7818   0.756   2.412   8.847
 2418SOL     OW 7819   1.394   2.331   9.122
 2418SOL    HW1 7820   1.374   2.374   9.210
 2418SOL    HW2 7821   1.472   2.269   9.131
 2419SOL     OW 7822   0.973   2.752   9.020
 2419SOL    HW1 7823   1.019   2.668   8.991
 2419SOL    HW2 7824   0.917   2.786   8.945
 2420SOL     OW 7825   0.991   2.272   8.690
 2420SOL    HW1 7826   0.914   2.306   8.744
 2420SOL    HW2 7827   0.957   2.221   8.611
 2421SOL     OW 7828   1.041   2.563   7.877
 2421SOL    HW1 7829   1.067   2.559   7.973
 2421SOL    HW2 7830   0.956   2.512   7.863
 2422SOL     OW 7831   0.076   2.673   8.237
 2422SOL    HW1 7832   0.175   2.661   8.246
 2422SOL    HW2 7833   0.052   2.768   8.258
 2423SOL     OW 7834   0.130   3.683   9.019
 2423SOL    HW1 7835   0.120   3.668   9.118
 2423SOL    HW2 7836   0.044   3.719   8.983
 2424SOL     OW 7837   0.865   2.210   7.643
 2424SOL    HW1 7838   0.924   2.273   7.594
 2424SOL    HW2 7839   0.884   2.116   7.614
 2425SOL     OW 7840   1.719   2.447   9.279
 2425SOL    HW1 7841   1.693   2.536   9.243
 2425SOL    HW2 7842   1.717   2.379   9.206
 2426SOL     OW 7843   1.362   3.006   7.993
 2426SOL    HW1 7844   1.445   2.977   7.945
 2426SOL    HW2 7845   1.313   3.073   7.937
 2427SOL     OW 7846   0.550   2.058   8.333
 2427SOL    HW1 7847   0.545   2.053   8.433
 2427SOL    HW2 7848   0.552   2.154   8.304
 2428SOL     OW 7849   1.008   3.318   7.925
 2428SOL    HW1 7850   0.962   3.390   7.873
 2428SOL    HW2 7851   1.004   3.338   8.023
 2429SOL     OW 7852   0.351   3.663   8.301
 2429SOL    HW1 7853   0.401   3.577   8.307
 2429SOL    HW2 7854   0.416   3.740   8.298
 2430SOL     OW 7855   1.795   2.928   8.321
 2430SOL    HW1 7856   1.733   2.913   8.245
 2430SOL    HW2 7857   1.743   2.939   8.406
 2431SOL     OW 7858   1.227   3.412   8.954
 2431SOL    HW1 7859   1.233   3.335   9.018
 2431SOL    HW2 7860   1.175   3.386   8.874
 2432SOL     OW 7861   0.321   2.805   7.690
 2432SOL    HW1 7862   0.403   2.844   7.648
 2432SOL    HW2 7863   0.294   2.723   7.641
 2433SOL     OW 7864   1.458   2.597   8.176
 2433SOL    HW1 7865   1.453   2.532   8.251
 2433SOL    HW2 7866   1.538   2.656   8.189
 2434SOL     OW 7867   0.461   3.128   9.175
 2434SOL    HW1 7868   0.411   3.129   9.089
 2434SOL    HW2 7869   0.398   3.110   9.251
 2435SOL     OW 7870   1.111   3.638   7.685
 2435SOL    HW1 7871   1.051   3.576   7.735
 2435SOL    HW2 7872   1.142   3.594   7.600
 2436SOL     OW 7873   0.202   2.147   8.946
 2436SOL    HW1 7874   0.122   2.207   8.933
 2436SOL    HW2 7875   0.192   2.098   9.032
 2437SOL     OW 7876   1.632   3.239   7.529
 2437SOL    HW1 7877   1.600   3.333   7.519
 2437SOL    HW2 7878   1.556   3.176   7.517
 2438SOL     OW 7879   0.464   3.605   7.771
 2438SOL    HW1 7880   0.497   3.644   7.857
 2438SOL    HW2 7881   0.540   3.598   7.706
 2439SOL     OW 7882   0.249   3.647   8.689
 2439SOL    HW1 7883   0.306   3.582   8.739
 2439SOL    HW2 7884   0.233   3.614   8.596
 2440SOL     OW 7885   0.940   3.560   8.352
 2440SOL    HW1 7886   1.020   3.503   8.373
 2440SOL    HW2 7887   0.891   3.520   8.275
 2441SOL     OW 7888   0.382   2.562   7.928
 2441SOL    HW1 7889   0.427   2.472   7.925
 2441SOL    HW2 7890   0.288   2.551   7.961
 2442SOL     OW 7891   1.547   2.084   9.177
 2442SOL    HW1 7892   1.542   2.121   9.269
 2442SOL    HW2 7893   1.475   2.015   9.165
 2443SOL     OW 7894   0.614   1.984   7.565
 2443SOL    HW1 7895   0.712   1.962   7.572
 2443SOL    HW2 7896   0.583   1.967   7.472
 2444SOL     OW 7897   0.781   2.126   9.197
 2444SOL    HW1 7898   0.848   2.065   9.240
 2444SOL    HW2 7899   0.708   2.145   9.262
 2445SOL     OW 7900   0.888   3.376   8.643
 2445SOL    HW1 7901   0.865   3.351   8.549
 2445SOL    HW2 7902   0.949   3.307   8.682
 2446SOL     OW 7903   1.351   2.452   8.881
 2446SOL    HW1 7904   1.379   2.409   8.966
 2446SOL    HW2 7905   1.376   2.548   8.882
 2447SOL     OW 7906   0.803   3.264   8.372
 2447SOL    HW1 7907   0.893   3.278   8.330
 2447SOL    HW2 7908   0.732   3.266   8.301
 2448SOL     OW 7909   0.922   2.365   8.347
 2448SOL    HW1 7910   0.897   2.356   8.251
 2448SOL    HW2 7911   0.970   2.283   8.378
 2449SOL     OW 7912   0.539   1.926   7.960
 2449SOL    HW1 7913   0.458   1.927   8.018
 2449SOL    HW2 7914   0.542   2.009   7.905
 2450SOL     OW 7915   1.434   3.050   7.489
 2450SOL    HW1 7916   1.466   2.974   7.546
 2450SOL    HW2 7917   1.342   3.077   7.519
 2451SOL     OW 7918   0.297   1.897   7.619
 2451SOL    HW1 7919   0.346   1.981   7.598
 2451SOL    HW2 7920   0.359   1.832   7.664
 2452SOL     OW 7921   0.935   2.098   7.928
 2452SOL    HW1 7922   0.887   2.139   7.850
 2452SOL    HW2 7923   1.034   2.096   7.909
 2453SOL     OW 7924   1.076   2.545   8.912
 2453SOL    HW1 7925   0.996   2.484   8.915
 2453SOL    HW2 7926   1.157   2.492   8.888
 2454SOL     OW 7927   1.227   3.432   8.241
 2454SOL    HW1 7928   1.248   3.506   8.176
 2454SOL    HW2 7929   1.295   3.432   8.314
 2455SOL     OW 7930   0.459   3.014   8.189
 2455SOL    HW1 7931   0.388   2.987   8.254
 2455SOL    HW2 7932   0.433   2.986   8.096
 2456SOL     OW 7933   1.271   3.659   8.039
 2456SOL    HW1 7934   1.315   3.723   7.975
 2456SOL    HW2 7935   1.221   3.711   8.109
 2457SOL     OW 7936   1.032   2.411   7.464
 2457SOL    HW1 7937   0.991   2.493   7.425
 2457SOL    HW2 7938   1.096   2.437   7.537
 2458SOL     OW 7939   0.078   2.418   8.834
 2458SOL    HW1 7940   0.170   2.417   8.793
 2458SOL    HW2 7941   0.072   2.492   8.901
 2459SOL     OW 7942   0.561   2.084   8.595
 2459SOL    HW1 7943   0.599   2.000   8.632
 2459SOL    HW2 7944   0.473   2.103   8.639
 2460SOL     OW 7945   0.866   2.316   8.090
 2460SOL    HW1 7946   0.834   2.388   8.028
 2460SOL    HW2 7947   0.890   2.235   8.037
 2461SOL     OW 7948   1.017   1.901   8.201
 2461SOL    HW1 7949   0.945   1.906   8.132
 2461SOL    HW2 7950   0.993   1.832   8.270
 2462SOL     OW 7951   1.429   3.035   8.315
 2462SOL    HW1 7952   1.374   2.951   8.308
 2462SOL    HW2 7953   1.455   3.064   8.223
 2463SOL     OW 7954   1.466   2.452   8.440
 2463SOL    HW1 7955   1.436   2.357   8.447
 2463SOL    HW2 7956   1.539   2.468   8.506
 2464SOL     OW 7957   0.488   3.247   7.622
 2464SOL    HW1 7958   0.401   3.232   7.669
 2464SOL    HW2 7959   0.471   3.273   7.527
 2465SOL     OW 7960   1.664   3.142   8.105
 2465SOL    HW1 7961   1.763   3.150   8.119
 2465SOL    HW2 7962   1.619   3.226   8.136
 2466SOL     OW 7963   0.527   2.118   7.776
 2466SOL    HW1 7964   0.554   2.059   7.701
 2466SOL    HW2 7965   0.527   2.213   7.745
 2467SOL     OW 7966   1.754   3.085   9.036
 2467SOL    HW1 7967   1.845   3.046   9.023
 2467SOL    HW2 7968   1.762   3.181   9.060
 2468SOL     OW 7969   1.064   3.209   8.788
 2468SOL    HW1 7970   0.984   3.186   8.843
 2468SOL    HW2 7971   1.147   3.183   8.837
 2469SOL     OW 7972   1.592   3.491   9.073
 2469SOL    HW1 7973   1.619   3.525   8.983
 2469SOL    HW2 7974   1.671   3.453   9.119
 2470SOL     OW 7975   1.111   3.057   8.548
 2470SOL    HW1 7976   1.071   3.101   8.629
 2470SOL    HW2 7977   1.070   3.094   8.465
 2471SOL     OW 7978   1.638   2.961   8.527
 2471SOL    HW1 7979   1.643   3.042   8.586
 2471SOL    HW2 7980   1.552   2.963   8.476
 2472SOL     OW 7981   0.915   1.951   8.850
 2472SOL    HW1 7982   0.940   1.931   8.755
 2472SOL    HW2 7983   0.987   2.007   8.892
 2473SOL     OW 7984   0.980   2.978   9.167
 2473SOL    HW1 7985   0.881   2.984   9.177
 2473SOL    HW2 7986   1.003   2.898   9.111
 2474SOL     OW 7987   0.705   2.912   7.816
 2474SOL    HW1 7988   0.691   2.919   7.915
 2474SOL    HW2 7989   0.789   2.861   7.798
 2475SOL     OW 7990   0.410   2.675   8.699
 2475SOL    HW1 7991   0.496   2.687   8.749
 2475SOL    HW2 7992   0.368   2.588   8.726
 2476SOL     OW 7993   1.274   2.248   8.710
 2476SOL    HW1 7994   1.295   2.322   8.774
 2476SOL    HW2 7995   1.185   2.265   8.667
 2477SOL     OW 7996   0.064   3.426   8.779
 2477SOL    HW1 7997   0.018   3.508   8.745
 2477SOL    HW2 7998   0.162   3.445   8.788
 2478SOL     OW 7999   0.367   2.962   7.949
 2478SOL    HW1 8000   0.360   3.045   7.893
 2478SOL    HW2 8001   0.371   2.882   7.889
 2479SOL     OW 8002   0.566   2.399   8.313
 2479SOL    HW1 8003   0.578   2.465   8.239
 2479SOL    HW2 8004   0.612   2.433   8.396
 2480SOL     OW 8005   1.252   3.210   7.836
 2480SOL    HW1 8006   1.302   3.287   7.876
 2480SOL    HW2 8007   1.157   3.212   7.868
 2481SOL     OW 8008   1.272   3.307   8.590
 2481SOL    HW1 8009   1.319   3.320   8.677
 2481SOL    HW2 8010   1.206   3.233   8.599
 2482SOL     OW 8011   0.354   3.372   8.777
 2482SOL    HW1 8012   0.333   3.328   8.690
 2482SOL    HW2 8013   0.451   3.398   8.780
 2483SOL     OW 8014   0.402   2.613   9.046
 2483SOL    HW1 8015   0.470   2.668   8.999
 2483SOL    HW2 8016   0.442   2.525   9.073
 2484SOL     OW 8017   1.587   2.641   9.118
 2484SOL    HW1 8018   1.495   2.679   9.113
 2484SOL    HW2 8019   1.647   2.688   9.053
 2485SOL     OW 8020   1.013   1.967   9.218
 2485SOL    HW1 8021   1.019   2.052   9.166
 2485SOL    HW2 8022   1.045   1.891   9.161
 2486SOL     OW 8023   0.504   1.912   9.188
 2486SOL    HW1 8024   0.462   1.855   9.118
 2486SOL    HW2 8025   0.438   1.981   9.220
 2487SOL     OW 8026   0.573   2.732   8.477
 2487SOL    HW1 8027   0.617   2.821   8.468
 2487SOL    HW2 8028   0.510   2.732   8.554
 2488SOL     OW 8029   1.360   2.724   8.493
 2488SOL    HW1 8030   1.285   2.724   8.427
 2488SOL    HW2 8031   1.397   2.632   8.502
 2489SOL     OW 8032   1.209   2.387   7.723
 2489SOL    HW1 8033   1.222   2.303   7.777
 2489SOL    HW2 8034   1.180   2.461   7.783
 2490SOL     OW 8035   0.307   2.075   8.679
 2490SOL    HW1 8036   0.284   2.112   8.769
 2490SOL    HW2 8037   0.277   1.980   8.673
 2491SOL     OW 8038   0.037   3.172   8.730
 2491SOL    HW1 8039   0.090   3.123   8.798
 2491SOL    HW2 8040   0.059   3.270   8.735
 2492SOL     OW 8041   0.732   2.496   8.512
 2492SOL    HW1 8042   0.791   2.470   8.436
 2492SOL    HW2 8043   0.704   2.592   8.501
 2493SOL     OW 8044   1.728   2.797   9.302
 2493SOL    HW1 8045   1.682   2.790   9.213
 2493SOL    HW2 8046   1.666   2.841   9.368
 2494SOL     OW 8047   0.307   1.925   8.066
 2494SOL    HW1 8048   0.296   2.019   8.099
 2494SOL    HW2 8049   0.302   1.862   8.143
 2495SOL     OW 8050   1.023   2.628   8.414
 2495SOL    HW1 8051   1.038   2.649   8.510
 2495SOL    HW2 8052   0.993   2.533   8.405
 2496SOL     OW 8053   0.980   3.435   9.148
 2496SOL    HW1 8054   0.960   3.479   9.060
 2496SOL    HW2 8055   1.019   3.344   9.132
 2497SOL     OW 8056   1.859   3.380   9.053
 2497SOL    HW1 8057   1.873   3.407   8.958
 2497SOL    HW2 8058   1.942   3.402   9.106
 2498SOL     OW 8059   0.350   2.760   9.252
 2498SOL    HW1 8060   0.426   2.804   9.300
 2498SOL    HW2 8061   0.385   2.713   9.170
 2499SOL     OW 8062   1.303   2.700   7.490
 2499SOL    HW1 8063   1.337   2.607   7.505
 2499SOL    HW2 8064   1.321   2.727   7.395
 2500SOL     OW 8065   1.068   3.195   8.297
 2500SOL    HW1 8066   1.075   3.111   8.242
 2500SOL    HW2 8067   1.130   3.264   8.261
 2501SOL     OW 8068   0.319   2.672   8.397
 2501SOL    HW1 8069   0.412   2.708   8.402
 2501SOL    HW2 8070   0.313   2.587   8.449
 2502SOL     OW 8071   0.339   2.371   8.454
 2502SOL    HW1 8072   0.287   2.288   8.437
 2502SOL    HW2 8073   0.416   2.376   8.390
 2503SOL     OW 8074   1.138   2.242   9.126
 2503SOL    HW1 8075   1.093   2.305   9.190
 2503SOL    HW2 8076   1.231   2.273   9.109
 2504SOL     OW 8077   1.160   2.069   8.925
 2504SOL    HW1 8078   1.160   2.133   9.002
 2504SOL    HW2 8079   1.188   2.117   8.842
 2505SOL     OW 8080   0.008   3.188   7.648
 2505SOL    HW1 8081  -0.085   3.209   7.617
 2505SOL    HW2 8082   0.018   3.089   7.661
 2506SOL     OW 8083   0.088   3.663   8.375
 2506SOL    HW1 8084   0.046   3.577   8.348
 2506SOL    HW2 8085   0.182   3.666   8.341
 2507SOL     OW 8086   0.504   3.430   8.358
 2507SOL    HW1 8087   0.570   3.504   8.367
 2507SOL    HW2 8088   0.548   3.351   8.316
 2508SOL     OW 8089   1.002   2.658   8.686
 2508SOL    HW1 8090   1.043   2.626   8.772
 2508SOL    HW2 8091   0.906   2.631   8.683
 2509SOL     OW 8092   0.040   2.406   8.562
 2509SOL    HW1 8093   0.125   2.373   8.521
 2509SOL    HW2 8094   0.053   2.421   8.660
 2510SOL     OW 8095   0.189   2.382   9.170
 2510SOL    HW1 8096   0.248   2.342   9.100
 2510SOL    HW2 8097   0.131   2.453   9.129
 2511SOL     OW 8098   1.369   2.812   9.108
 2511SOL    HW1 8099   1.408   2.901   9.128
 2511SOL    HW2 8100   1.379   2.792   9.011
 2512SOL     OW 8101   0.815   2.434   7.773
 2512SOL    HW1 8102   0.822   2.345   7.727
 2512SOL    HW2 8103   0.721   2.468   7.765
 2513SOL     OW 8104   1.657   2.466   8.654
 2513SOL    HW1 8105   1.619   2.397   8.716
 2513SOL    HW2 8106   1.739   2.430   8.610
 2514SOL     OW 8107   0.252   3.426   9.192
 2514SOL    HW1 8108   0.222   3.483   9.268
 2514SOL    HW2 8109   0.245   3.329   9.218
 2515SOL     OW 8110   0.671   2.326   8.717
 2515SOL    HW1 8111   0.637   2.237   8.687
 2515SOL    HW2 8112   0.697   2.380   8.637
 2516SOL     OW 8113   0.930   3.540   8.913
 2516SOL    HW1 8114   0.906   3.522   8.818
 2516SOL    HW2 8115   0.960   3.634   8.923
 2517SOL     OW 8116   0.473   2.362   7.639
 2517SOL    HW1 8117   0.534   2.442   7.643
 2517SOL    HW2 8118   0.378   2.393   7.646
 2518SOL     OW 8119   0.159   2.999   8.914
 2518SOL    HW1 8120   0.181   2.938   8.990
 2518SOL    HW2 8121   0.169   2.950   8.828
 2519SOL     OW 8122   1.347   2.921   8.682
 2519SOL    HW1 8123   1.371   2.858   8.608
 2519SOL    HW2 8124   1.257   2.961   8.664
 2520SOL     OW 8125   1.302   2.717   7.757
 2520SOL    HW1 8126   1.216   2.686   7.799
 2520SOL    HW2 8127   1.298   2.703   7.658
 2521SOL     OW 8128   1.759   3.609   8.602
 2521SOL    HW1 8129   1.820   3.639   8.529
 2521SOL    HW2 8130   1.721   3.520   8.580
 2522SOL     OW 8131   1.252   3.593   8.576
 2522SOL    HW1 8132   1.336   3.598   8.522
 2522SOL    HW2 8133   1.229   3.497   8.594
 2523SOL     OW 8134   0.083   3.120   8.470
 2523SOL    HW1 8135   0.078   3.119   8.570
 2523SOL    HW2 8136   0.000   3.079   8.432
 2524SOL     OW 8137   0.688   3.524   9.164
 2524SOL    HW1 8138   0.632   3.605   9.173
 2524SOL    HW2 8139   0.740   3.528   9.078
 2525SOL     OW 8140   1.726   1.997   7.971
 2525SOL    HW1 8141   1.799   1.980   7.904
 2525SOL    HW2 8142   1.695   1.910   8.009
 2526SOL     OW 8143   1.388   3.435   7.925
 2526SOL    HW1 8144   1.455   3.447   7.851
 2526SOL    HW2 8145   1.348   3.524   7.948
 2527SOL     OW 8146   0.130   3.656   9.299
 2527SOL    HW1 8147   0.089   3.582   9.352
 2527SOL    HW2 8148   0.194   3.707   9.357
 2528SOL     OW 8149   1.280   2.789   8.120
 2528SOL    HW1 8150   1.340   2.708   8.122
 2528SOL    HW2 8151   1.320   2.858   8.060
 2529SOL     OW 8152   0.830   3.135   8.870
 2529SOL    HW1 8153   0.825   3.168   8.965
 2529SOL    HW2 8154   0.744   3.154   8.824
 2530SOL     OW 8155   0.672   3.478   7.602
 2530SOL    HW1 8156   0.681   3.488   7.503
 2530SOL    HW2 8157   0.632   3.389   7.623
 2531SOL     OW 8158   1.650   3.582   8.842
 2531SOL    HW1 8159   1.703   3.592   8.758
 2531SOL    HW2 8160   1.623   3.672   8.876
 2532SOL     OW 8161   0.263   2.188   8.168
 2532SOL    HW1 8162   0.184   2.239   8.134
 2532SOL    HW2 8163   0.254   2.173   8.266
 2533SOL     OW 8164   1.194   3.474   7.479
 2533SOL    HW1 8165   1.200   3.381   7.516
 2533SOL    HW2 8166   1.135   3.474   7.399
 2534SOL     OW 8167   0.822   2.864   8.820
 2534SOL    HW1 8168   0.862   2.863   8.728
 2534SOL    HW2 8169   0.832   2.956   8.860
 2535SOL     OW 8170   0.916   2.772   7.739
 2535SOL    HW1 8171   0.979   2.810   7.671
 2535SOL    HW2 8172   0.956   2.689   7.778
 2536SOL     OW 8173   1.504   3.469   7.492
 2536SOL    HW1 8174   1.412   3.506   7.499
 2536SOL    HW2 8175   1.542   3.489   7.402
 2537SOL     OW 8176   0.372   3.150   8.938
 2537SOL    HW1 8177   0.359   3.243   8.904
 2537SOL    HW2 8178   0.288   3.098   8.925
 2538SOL     OW 8179   1.614   3.154   8.737
 2538SOL    HW1 8180   1.674   3.157   8.817
 2538SOL    HW2 8181   1.539   3.218   8.750
 2539SOL     OW 8182   1.039   2.960   8.144
 2539SOL    HW1 8183   0.969   2.913   8.198
 2539SOL    HW2 8184   1.098   2.892   8.101
 2540SOL     OW 8185   1.014   2.098   8.419
 2540SOL    HW1 8186   1.006   2.062   8.326
 2540SOL    HW2 8187   1.012   2.022   8.484
 2541SOL     OW 8188   0.590   3.349   7.939
 2541SOL    HW1 8189   0.632   3.291   7.869
 2541SOL    HW2 8190   0.546   3.428   7.895
 2542SOL     OW 8191   1.709   2.247   8.829
 2542SOL    HW1 8192   1.782   2.316   8.833
 2542SOL    HW2 8193   1.737   2.172   8.770
 2543SOL     OW 8194   0.255   3.210   7.738
 2543SOL    HW1 8195   0.159   3.211   7.711
 2543SOL    HW2 8196   0.267   3.263   7.822
 2544SOL     OW 8197   0.105   2.875   9.174
 2544SOL    HW1 8198   0.028   2.842   9.228
 2544SOL    HW2 8199   0.190   2.845   9.216
 2545SOL     OW 8200   0.672   2.065   8.937
 2545SOL    HW1 8201   0.762   2.049   8.897
 2545SOL    HW2 8202   0.680   2.070   9.036
 2546SOL     OW 8203   0.075   2.207   7.481
 2546SOL    HW1 8204  -0.017   2.179   7.452
 2546SOL    HW2 8205   0.106   2.284   7.425
 2547SOL     OW 8206   1.440   2.718   8.846
 2547SOL    HW1 8207   1.383   2.770   8.783
 2547SOL    HW2 8208   1.536   2.730   8.822
 2548SOL     OW 8209   0.072   2.028   7.766
 2548SOL    HW1 8210   0.055   2.111   7.712
 2548SOL    HW2 8211   0.162   1.991   7.744
 2549SOL     OW 8212   1.183   3.197   7.567
 2549SOL    HW1 8213   1.084   3.186   7.569
 2549SOL    HW2 8214   1.217   3.212   7.660
 2550SOL     OW 8215   0.613   2.704   8.879
 2550SOL    HW1 8216   0.669   2.785   8.862
 2550SOL    HW2 8217   0.672   2.624   8.882
 2551SOL     OW 8218   1.493   3.629   8.407
 2551SOL    HW1 8219   1.526   3.693   8.338
 2551SOL    HW2 8220   1.559   3.623   8.482
 2552SOL     OW 8221   0.716   2.427   9.156
 2552SOL    HW1 8222   0.735   2.492   9.230
 2552SOL    HW2 8223   0.776   2.347   9.165
 2553SOL     OW 8224   1.450   3.082   9.081
 2553SOL    HW1 8225   1.441   3.072   9.180
 2553SOL    HW2 8226   1.546   3.075   9.055
 2554SOL     OW 8227   0.390   3.603   9.008
 2554SOL    HW1 8228   0.299   3.644   9.006
 2554SOL    HW2 8229   0.383   3.509   9.040
 2555SOL     OW 8230   1.674   2.745   8.702
 2555SOL    HW1 8231   1.647   2.656   8.665
 2555SOL    HW2 8232   1.675   2.813   8.629
 2556SOL     OW 8233   1.225   2.187   7.897
 2556SOL    HW1 8234   1.290   2.113   7.886
 2556SOL    HW2 8235   1.245   2.237   7.981
 2557SOL     OW 8236   0.594   2.607   8.100
 2557SOL    HW1 8237   0.644   2.692   8.081
 2557SOL    HW2 8238   0.506   2.609   8.052
 2558SOL     OW 8239   1.777   2.204   9.090
 2558SOL    HW1 8240   1.760   2.235   8.996
 2558SOL    HW2 8241   1.693   2.167   9.128
 2559SOL     OW 8242   1.730   2.796   8.965
 2559SOL    HW1 8243   1.768   2.887   8.980
 2559SOL    HW2 8244   1.722   2.779   8.866
 2560SOL     OW 8245   0.859   3.236   7.464
 2560SOL    HW1 8246   0.813   3.251   7.552
 2560SOL    HW2 8247   0.903   3.321   7.434
 2561SOL     OW 8248   0.661   3.652   8.401
 2561SOL    HW1 8249   0.615   3.740   8.388
 2561SOL    HW2 8250   0.760   3.664   8.394
 2562SOL     OW 8251   0.859   2.818   8.309
 2562SOL    HW1 8252   0.913   2.749   8.357
 2562SOL    HW2 8253   0.827   2.887   8.375
 2563SOL     OW 8254   1.083   2.846   7.535
 2563SOL    HW1 8255   1.060   2.899   7.453
 2563SOL    HW2 8256   1.164   2.790   7.516
 2564SOL     OW 8257   1.861   3.431   8.299
 2564SOL    HW1 8258   1.790   3.419   8.229
 2564SOL    HW2 8259   1.862   3.352   8.359
 2565SOL     OW 8260   0.221   3.176   9.292
 2565SOL    HW1 8261   0.156   3.103   9.271
 2565SOL    HW2 8262   0.225   3.190   9.390
 2566SOL     OW 8263   0.079   3.102   8.101
 2566SOL    HW1 8264   0.078   3.055   8.189
 2566SOL    HW2 8265   0.161   3.074   8.050
 2567SOL     OW 8266   0.672   3.253   9.072
 2567SOL    HW1 8267   0.594   3.203   9.110
 2567SOL    HW2 8268   0.669   3.348   9.103
 2568SOL     OW 8269   0.428   2.286   7.968
 2568SOL    HW1 8270   0.458   2.214   7.906
 2568SOL    HW2 8271   0.389   2.246   8.051
 2569SOL     OW 8272   1.705   3.349   8.552
 2569SOL    HW1 8273   1.612   3.324   8.525
 2569SOL    HW2 8274   1.731   3.299   8.634
 2570SOL     OW 8275   0.317   2.409   8.728
 2570SOL    HW1 8276   0.355   2.350   8.800
 2570SOL    HW2 8277   0.357   2.383   8.640
 2571SOL     OW 8278   0.812   3.448   8.135
 2571SOL    HW1 8279   0.844   3.458   8.041
 2571SOL    HW2 8280   0.733   3.386   8.137
 2572SOL     OW 8281   1.424   2.076   8.560
 2572SOL    HW1 8282   1.476   2.011   8.615
 2572SOL    HW2 8283   1.375   2.139   8.621
 2573SOL     OW 8284   1.001   1.896   8.602
 2573SOL    HW1 8285   0.938   1.824   8.571
 2573SOL    HW2 8286   1.094   1.860   8.602
 2574SOL     OW 8287   0.770   3.192   7.749
 2574SOL    HW1 8288   0.724   3.105   7.766
 2574SOL    HW2 8289   0.861   3.189   7.790
 2575SOL     OW 8290   0.618   3.429   8.732
 2575SOL    HW1 8291   0.613   3.511   8.789
 2575SOL    HW2 8292   0.707   3.426   8.687
 2576SOL     OW 8293   1.300   2.315   8.139
 2576SOL    HW1 8294   1.241   2.395   8.143
 2576SOL    HW2 8295   1.315   2.280   8.232
 2577SOL     OW 8296   1.593   2.083   8.330
 2577SOL    HW1 8297   1.509   2.082   8.384
 2577SOL    HW2 8298   1.595   2.166   8.274
 2578SOL     OW 8299   0.039   2.939   7.748
 2578SOL    HW1 8300   0.138   2.928   7.739
 2578SOL    HW2 8301  -0.001   2.853   7.780
 2579SOL     OW 8302   0.875   3.508   7.785
 2579SOL    HW1 8303   0.798   3.473   7.731
 2579SOL    HW2 8304   0.843   3.579   7.847
 2580SOL     OW 8305   0.230   2.490   9.423
 2580SOL    HW1 8306   0.137   2.488   9.460
 2580SOL    HW2 8307   0.231   2.451   9.331
 2581SOL     OW 8308   0.225   2.137  10.306
 2581SOL    HW1 8309   0.260   2.120  10.398
 2581SOL    HW2 8310   0.137   2.092  10.294
 2582SOL     OW 8311   0.019   2.230   9.957
 2582SOL    HW1 8312  -0.063   2.273   9.996
 2582SOL    HW2 8313  -0.009   2.157   9.894
 2583SOL     OW 8314   0.569   3.137  10.475
 2583SOL    HW1 8315   0.476   3.130  10.438
 2583SOL    HW2 8316   0.580   3.226  10.519
 2584SOL     OW 8317   1.555   3.373  10.013
 2584SOL    HW1 8318   1.498   3.357  10.094
 2584SOL    HW2 8319   1.496   3.383   9.933
 2585SOL     OW 8320   1.135   2.565  10.027
 2585SOL    HW1 8321   1.192   2.643  10.002
 2585SOL    HW2 8322   1.075   2.591  10.103
 2586SOL     OW 8323   1.755   2.469   9.541
 2586SOL    HW1 8324   1.743   2.456   9.442
 2586SOL    HW2 8325   1.725   2.388   9.590
 2587SOL     OW 8326   0.768   3.006  10.333
 2587SOL    HW1 8327   0.690   3.023  10.393
 2587SOL    HW2 8328   0.802   3.093  10.297
 2588SOL     OW 8329   0.850   2.660  11.133
 2588SOL    HW1 8330   0.846   2.736  11.198
 2588SOL    HW2 8331   0.872   2.696  11.042
 2589SOL     OW 8332   0.685   2.874   9.975
 2589SOL    HW1 8333   0.754   2.858  10.045
 2589SOL    HW2 8334   0.612   2.931  10.013
 2590SOL     OW 8335   0.686   3.023  11.113
 2590SOL    HW1 8336   0.746   3.102  11.127
 2590SOL    HW2 8337   0.600   3.054  11.072
 2591SOL     OW 8338   0.335   3.297  10.371
 2591SOL    HW1 8339   0.257   3.266  10.318
 2591SOL    HW2 8340   0.393   3.355  10.314
 2592SOL     OW 8341   1.460   3.367  10.649
 2592SOL    HW1 8342   1.484   3.461  10.675
 2592SOL    HW2 8343   1.444   3.313  10.731
 2593SOL     OW 8344   0.438   2.254  10.809
 2593SOL    HW1 8345   0.520   2.198  10.818
 2593SOL    HW2 8346   0.357   2.196  10.813
 2594SOL     OW 8347   1.603   2.309  10.047
 2594SOL    HW1 8348   1.529   2.355   9.997
 2594SOL    HW2 8349   1.654   2.377  10.100
 2595SOL     OW 8350   0.231   3.575   9.793
 2595SOL    HW1 8351   0.265   3.652   9.847
 2595SOL    HW2 8352   0.275   3.575   9.703
 2596SOL     OW 8353   1.127   3.203  11.000
 2596SOL    HW1 8354   1.174   3.203  11.088
 2596SOL    HW2 8355   1.079   3.116  10.989
 2597SOL     OW 8356   0.230   3.296   9.848
 2597SOL    HW1 8357   0.204   3.392   9.848
 2597SOL    HW2 8358   0.159   3.242   9.893
 2598SOL     OW 8359   0.240   2.953  10.196
 2598SOL    HW1 8360   0.254   2.869  10.248
 2598SOL    HW2 8361   0.185   3.017  10.251
 2599SOL     OW 8362   0.620   3.648  10.749
 2599SOL    HW1 8363   0.528   3.631  10.784
 2599SOL    HW2 8364   0.648   3.740  10.775
 2600SOL     OW 8365   0.606   2.826   9.433
 2600SOL    HW1 8366   0.613   2.910   9.379
 2600SOL    HW2 8367   0.652   2.839   9.521
 2601SOL     OW 8368   1.594   1.976  10.790
 2601SOL    HW1 8369   1.576   2.043  10.718
 2601SOL    HW2 8370   1.591   2.022  10.879
 2602SOL     OW 8371   0.122   2.505   9.873
 2602SOL    HW1 8372   0.077   2.417   9.890
 2602SOL    HW2 8373   0.121   2.559   9.957
 2603SOL     OW 8374   1.842   3.629   9.669
 2603SOL    HW1 8375   1.896   3.600   9.749
 2603SOL    HW2 8376   1.872   3.719   9.640
 2604SOL     OW 8377   0.027   3.458   9.427
 2604SOL    HW1 8378   0.008   3.362   9.448
 2604SOL    HW2 8379  -0.006   3.516   9.502
 2605SOL     OW 8380   1.689   2.784   9.922
 2605SOL    HW1 8381   1.784   2.755   9.930
 2605SOL    HW2 8382   1.681   2.849   9.847
 2606SOL     OW 8383   1.641   2.970   9.742
 2606SOL    HW1 8384   1.727   2.972   9.690
 2606SOL    HW2 8385   1.655   3.017   9.830
 2607SOL     OW 8386   0.113   2.599  10.907
 2607SOL    HW1 8387   0.201   2.586  10.952
 2607SOL    HW2 8388   0.100   2.696  10.885
 2608SOL     OW 8389   0.613   3.227  10.036
 2608SOL    HW1 8390   0.564   3.140  10.045
 2608SOL    HW2 8391   0.590   3.270   9.949
 2609SOL     OW 8392   1.293   3.090  10.733
 2609SOL    HW1 8393   1.330   3.017  10.675
 2609SOL    HW2 8394   1.345   3.095  10.818
 2610SOL     OW 8395   0.809   1.866   9.812
 2610SOL    HW1 8396   0.849   1.957   9.803
 2610SOL    HW2 8397   0.709   1.874   9.818
 2611SOL     OW 8398   0.197   2.838  10.574
 2611SOL    HW1 8399   0.286   2.793  10.560
 2611SOL    HW2 8400   0.124   2.773  10.555
 2612SOL     OW 8401   1.525   2.861   9.500
 2612SOL    HW1 8402   1.462   2.785   9.513
 2612SOL    HW2 8403   1.573   2.879   9.586
 2613SOL     OW 8404   1.187   3.654  10.926
 2613SOL    HW1 8405   1.211   3.714  10.850
 2613SOL    HW2 8406   1.194   3.559  10.896
 2614SOL     OW 8407   0.317   2.113  11.111
 2614SOL    HW1 8408   0.388   2.184  11.117
 2614SOL    HW2 8409   0.229   2.152  11.139
 2615SOL     OW 8410   1.466   3.279  10.263
 2615SOL    HW1 8411   1.407   3.285  10.343
 2615SOL    HW2 8412   1.451   3.191  10.217
 2616SOL     OW 8413   1.667   3.576   9.882
 2616SOL    HW1 8414   1.626   3.553   9.794
 2616SOL    HW2 8415   1.649   3.502   9.947
 2617SOL     OW 8416   0.598   2.591   9.580
 2617SOL    HW1 8417   0.622   2.660   9.512
 2617SOL    HW2 8418   0.520   2.624   9.634
 2618SOL     OW 8419   1.281   2.207  10.254
 2618SOL    HW1 8420   1.195   2.157  10.241
 2618SOL    HW2 8421   1.343   2.153  10.310
 2619SOL     OW 8422   1.576   3.524   9.617
 2619SOL    HW1 8423   1.665   3.570   9.620
 2619SOL    HW2 8424   1.555   3.500   9.522
 2620SOL     OW 8425   0.807   2.467  10.775
 2620SOL    HW1 8426   0.760   2.464  10.864
 2620SOL    HW2 8427   0.756   2.412  10.709
 2621SOL     OW 8428   1.394   2.331  10.984
 2621SOL    HW1 8429   1.374   2.374  11.072
 2621SOL    HW2 8430   1.472   2.269  10.993
 2622SOL     OW 8431   0.973   2.752  10.882
 2622SOL    HW1 8432   1.019   2.668  10.853
 2622SOL    HW2 8433   0.917   2.786  10.807
 2623SOL     OW 8434   0.991   2.272  10.552
 2623SOL    HW1 8435   0.914   2.306  10.606
 2623SOL    HW2 8436   0.957   2.221  10.473
 2624SOL     OW 8437   1.041   2.563   9.739
 2624SOL    HW1 8438   1.067   2.559   9.835
 2624SOL    HW2 8439   0.956   2.512   9.725
 2625SOL     OW 8440   0.076   2.673  10.099
 2625SOL    HW1 8441   0.175   2.661  10.108
 2625SOL    HW2 8442   0.052   2.768  10.120
 2626SOL     OW 8443   0.130   3.683  10.881
 2626SOL    HW1 8444   0.120   3.668  10.980
 2626SOL    HW2 8445   0.044   3.719  10.845
 2627SOL     OW 8446   0.865   2.210   9.505
 2627SOL    HW1 8447   0.924   2.273   9.456
 2627SOL    HW2 8448   0.884   2.116   9.476
 2628SOL     OW 8449   1.719   2.447  11.141
 2628SOL    HW1 8450   1.693   2.536  11.105
 2628SOL    HW2 8451   1.717   2.379  11.068
 2629SOL     OW 8452   1.362   3.006   9.855
 2629SOL    HW1 8453   1.445   2.977   9.807
 2629SOL    HW2 8454   1.313   3.073   9.799
 2630SOL     OW 8455   0.550   2.058  10.195
 2630SOL    HW1 8456   0.545   2.053  10.295
 2630SOL    HW2 8457   0.552   2.154  10.166
 2631SOL     OW 8458   1.008   3.318   9.787
 2631SOL    HW1 8459   0.962   3.390   9.735
 2631SOL    HW2 8460   1.004   3.338   9.885
 2632SOL     OW 8461   0.351   3.663  10.163
 2632SOL    HW1 8462   0.401   3.577  10.169
 2632SOL    HW2 8463   0.416   3.740  10.160
 2633SOL     OW 8464   1.795   2.928  10.183
 2633SOL    HW1 8465   1.733   2.913  10.107
 2633SOL    HW2 8466   1.743   2.939  10.268
 2634SOL     OW 8467   1.227   3.412  10.816
 2634SOL    HW1 8468   1.233   3.335  10.880
 2634SOL    HW2 8469   1.175   3.386  10.736
 2635SOL     OW 8470   0.321   2.805   9.552
 2635SOL    HW1 8471   0.403   2.844   9.510
 2635SOL    HW2 8472   0.294   2.723   9.503
 2636SOL     OW 8473   1.458   2.597  10.038
 2636SOL    HW1 8474   1.453   2.532  10.113
 2636SOL    HW2 8475   1.538   2.656  10.051
 2637SOL     OW 8476   0.461   3.128  11.037
 2637SOL    HW1 8477   0.411   3.129  10.951
 2637SOL    HW2 8478   0.398   3.110  11.113
 2638SOL     OW 8479   1.111   3.638   9.547
 2638SOL    HW1 8480   1.051   3.576   9.597
 2638SOL    HW2 8481   1.142   3.594   9.462
 2639SOL     OW 8482   0.202   2.147  10.808
 2639SOL    HW1 8483   0.122   2.207  10.795
 2639SOL    HW2 8484   0.192   2.098  10.894
 2640SOL     OW 8485   1.632   3.239   9.391
 2640SOL    HW1 8486   1.600   3.333   9.381
 2640SOL    HW2 8487   1.556   3.176   9.379
 2641SOL     OW 8488   0.464   3.605   9.633
 2641SOL    HW1 8489   0.497   3.644   9.719
 2641SOL    HW2 8490   0.540   3.598   9.568
 2642SOL     OW 8491   1.400   1.969   9.736
 2642SOL    HW1 8492   1.376   1.932   9.646
 2642SOL    HW2 8493   1.499   1.985   9.740
 2643SOL     OW 8494   0.249   3.647  10.551
 2643SOL    HW1 8495   0.306   3.582  10.601
 2643SOL    HW2 8496   0.233   3.614  10.458
 2644SOL     OW 8497   0.940   3.560  10.214
 2644SOL    HW1 8498   1.020   3.503  10.235
 2644SOL    HW2 8499   0.891   3.520  10.137
 2645SOL     OW 8500   0.382   2.562   9.790
 2645SOL    HW1 8501   0.427   2.472   9.787
 2645SOL    HW2 8502   0.288   2.551   9.823
 2646SOL     OW 8503   1.547   2.084  11.039
 2646SOL    HW1 8504   1.542   2.121  11.131
 2646SOL    HW2 8505   1.475   2.015  11.027
 2647SOL     OW 8506   0.614   1.984   9.427
 2647SOL    HW1 8507   0.712   1.962   9.434
 2647SOL    HW2 8508   0.583   1.967   9.334
 2648SOL     OW 8509   0.781   2.126  11.059
 2648SOL    HW1 8510   0.848   2.065  11.102
 2648SOL    HW2 8511   0.708   2.145  11.124
 2649SOL     OW 8512   0.888   3.376  10.505
 2649SOL    HW1 8513   0.865   3.351  10.411
 2649SOL    HW2 8514   0.949   3.307  10.544
 2650SOL     OW 8515   1.351   2.452  10.743
 2650SOL    HW1 8516   1.379   2.409  10.828
 2650SOL    HW2 8517   1.376   2.548  10.744
 2651SOL     OW 8518   0.803   3.264  10.234
 2651SOL    HW1 8519   0.893   3.278  10.192
 2651SOL    HW2 8520   0.732   3.266  10.163
 2652SOL     OW 8521   0.922   2.365  10.209
 2652SOL    HW1 8522   0.897   2.356  10.113
 2652SOL    HW2 8523   0.970   2.283  10.240
 2653SOL     OW 8524   0.539   1.926   9.822
 2653SOL    HW1 8525   0.458   1.927   9.880
 2653SOL    HW2 8526   0.542   2.009   9.767
 2654SOL     OW 8527   1.434   3.050   9.351
 2654SOL    HW1 8528   1.466   2.974   9.408
 2654SOL    HW2 8529   1.342   3.077   9.381
 2655SOL     OW 8530   0.297   1.897   9.481
 2655SOL    HW1 8531   0.346   1.981   9.460
 2655SOL    HW2 8532   0.359   1.832   9.526
 2656SOL     OW 8533   0.935   2.098   9.790
 2656SOL    HW1 8534   0.887   2.139   9.712
 2656SOL    HW2 8535   1.034   2.096   9.771
 2657SOL     OW 8536   1.076   2.545  10.774
 2657SOL    HW1 8537   0.996   2.484  10.777
 2657SOL    HW2 8538   1.157   2.492  10.750
 2658SOL     OW 8539   1.227   3.432  10.103
 2658SOL    HW1 8540   1.248   3.506  10.038
 2658SOL    HW2 8541   1.295   3.432  10.176
 2659SOL     OW 8542   0.459   3.014  10.051
 2659SOL    HW1 8543   0.388   2.987  10.116
 2659SOL    HW2 8544   0.433   2.986   9.958
 2660SOL     OW 8545   1.271   3.659   9.901
 2660SOL    HW1 8546   1.315   3.723   9.837
 2660SOL    HW2 8547   1.221   3.711   9.971
 2661SOL     OW 8548   1.032   2.411   9.326
 2661SOL    HW1 8549   0.991   2.493   9.287
 2661SOL    HW2 8550   1.096   2.437   9.399
 2662SOL     OW 8551   0.078   2.418  10.696
 2662SOL    HW1 8552   0.170   2.417  10.655
 2662SOL    HW2 8553   0.072   2.492  10.763
 2663SOL     OW 8554   0.561   2.084  10.457
 2663SOL    HW1 8555   0.599   2.000  10.494
 2663SOL    HW2 8556   0.473   2.103  10.501
 2664SOL     OW 8557   0.866   2.316   9.952
 2664SOL    HW1 8558   0.834   2.388   9.890
 2664SOL    HW2 8559   0.890   2.235   9.899
 2665SOL     OW 8560   1.017   1.901  10.063
 2665SOL    HW1 8561   0.945   1.906   9.994
 2665SOL    HW2 8562   0.993   1.832  10.132
 2666SOL     OW 8563   1.429   3.035  10.177
 2666SOL    HW1 8564   1.374   2.951  10.170
 2666SOL    HW2 8565   1.455   3.064  10.085
 2667SOL     OW 8566   1.466   2.452  10.302
 2667SOL    HW1 8567   1.436   2.357  10.309
 2667SOL    HW2 8568   1.539   2.468  10.368
 2668SOL     OW 8569   1.857   2.695   9.687
 2668SOL    HW1 8570   1.899   2.631   9.751
 2668SOL    HW2 8571   1.819   2.644   9.609
 2669SOL     OW 8572   0.488   3.247   9.484
 2669SOL    HW1 8573   0.401   3.232   9.531
 2669SOL    HW2 8574   0.471   3.273   9.389
 2670SOL     OW 8575   1.664   3.142   9.967
 2670SOL    HW1 8576   1.763   3.150   9.981
 2670SOL    HW2 8577   1.619   3.226   9.998
 2671SOL     OW 8578   1.390   2.437   9.388
 2671SOL    HW1 8579   1.336   2.416   9.469
 2671SOL    HW2 8580   1.481   2.396   9.397
 2672SOL     OW 8581   0.527   2.118   9.638
 2672SOL    HW1 8582   0.554   2.059   9.563
 2672SOL    HW2 8583   0.527   2.213   9.607
 2673SOL     OW 8584   1.754   3.085  10.898
 2673SOL    HW1 8585   1.845   3.046  10.885
 2673SOL    HW2 8586   1.762   3.181  10.922
 2674SOL     OW 8587   1.064   3.209  10.650
 2674SOL    HW1 8588   0.984   3.186  10.705
 2674SOL    HW2 8589   1.147   3.183  10.699
 2675SOL     OW 8590   1.592   3.491  10.935
 2675SOL    HW1 8591   1.619   3.525  10.845
 2675SOL    HW2 8592   1.671   3.453  10.981
 2676SOL     OW 8593   1.111   3.057  10.410
 2676SOL    HW1 8594   1.071   3.101  10.491
 2676SOL    HW2 8595   1.070   3.094  10.327
 2677SOL     OW 8596   1.638   2.961  10.389
 2677SOL    HW1 8597   1.643   3.042  10.448
 2677SOL    HW2 8598   1.552   2.963  10.338
 2678SOL     OW 8599   0.915   1.951  10.712
 2678SOL    HW1 8600   0.940   1.931  10.617
 2678SOL    HW2 8601   0.987   2.007  10.754
 2679SOL     OW 8602   0.980   2.978  11.029
 2679SOL    HW1 8603   0.881   2.984  11.039
 2679SOL    HW2 8604   1.003   2.898  10.973
 2680SOL     OW 8605   0.705   2.912   9.678
 2680SOL    HW1 8606   0.691   2.919   9.777
 2680SOL    HW2 8607   0.789   2.861   9.660
 2681SOL     OW 8608   0.410   2.675  10.561
 2681SOL    HW1 8609   0.496   2.687  10.611
 2681SOL    HW2 8610   0.368   2.588  10.588
 2682SOL     OW 8611   1.274   2.248  10.572
 2682SOL    HW1 8612   1.295   2.322  10.636
 2682SOL    HW2 8613   1.185   2.265  10.529
 2683SOL     OW 8614   0.064   3.426  10.641
 2683SOL    HW1 8615   0.018   3.508  10.607
 2683SOL    HW2 8616   0.162   3.445  10.650
 2684SOL     OW 8617   0.367   2.962   9.811
 2684SOL    HW1 8618   0.360   3.045   9.755
 2684SOL    HW2 8619   0.371   2.882   9.751
 2685SOL     OW 8620   0.566   2.399  10.175
 2685SOL    HW1 8621   0.578   2.465  10.101
 2685SOL    HW2 8622   0.612   2.433  10.258
 2686SOL     OW 8623   1.252   3.210   9.698
 2686SOL    HW1 8624   1.302   3.287   9.738
 2686SOL    HW2 8625   1.157   3.212   9.730
 2687SOL     OW 8626   1.272   3.307  10.452
 2687SOL    HW1 8627   1.319   3.320  10.539
 2687SOL    HW2 8628   1.206   3.233  10.461
 2688SOL     OW 8629   1.582   2.501   9.782
 2688SOL    HW1 8630   1.551   2.562   9.855
 2688SOL    HW2 8631   1.632   2.553   9.713
 2689SOL     OW 8632   0.354   3.372  10.639
 2689SOL    HW1 8633   0.333   3.328  10.552
 2689SOL    HW2 8634   0.451   3.398  10.642
 2690SOL     OW 8635   0.402   2.613  10.908
 2690SOL    HW1 8636   0.470   2.668  10.861
 2690SOL    HW2 8637   0.442   2.525  10.935
 2691SOL     OW 8638   1.587   2.641  10.980
 2691SOL    HW1 8639   1.495   2.679  10.975
 2691SOL    HW2 8640   1.647   2.688  10.915
 2692SOL     OW 8641   1.013   1.967  11.080
 2692SOL    HW1 8642   1.019   2.052  11.028
 2692SOL    HW2 8643   1.045   1.891  11.023
 2693SOL     OW 8644   0.504   1.912  11.050
 2693SOL    HW1 8645   0.462   1.855  10.980
 2693SOL    HW2 8646   0.438   1.981  11.082
 2694SOL     OW 8647   0.573   2.732  10.339
 2694SOL    HW1 8648   0.617   2.821  10.330
 2694SOL    HW2 8649   0.510   2.732  10.416
 2695SOL     OW 8650   1.360   2.724  10.355
 2695SOL    HW1 8651   1.285   2.724  10.289
 2695SOL    HW2 8652   1.397   2.632  10.364
 2696SOL     OW 8653   1.209   2.387   9.585
 2696SOL    HW1 8654   1.222   2.303   9.639
 2696SOL    HW2 8655   1.180   2.461   9.645
 2697SOL     OW 8656   0.307   2.075  10.541
 2697SOL    HW1 8657   0.284   2.112  10.631
 2697SOL    HW2 8658   0.277   1.980  10.535
 2698SOL     OW 8659   0.037   3.172  10.592
 2698SOL    HW1 8660   0.090   3.123  10.660
 2698SOL    HW2 8661   0.059   3.270  10.597
 2699SOL     OW 8662   0.732   2.496  10.374
 2699SOL    HW1 8663   0.791   2.470  10.298
 2699SOL    HW2 8664   0.704   2.592  10.363
 2700SOL     OW 8665   1.728   2.797  11.164
 2700SOL    HW1 8666   1.682   2.790  11.075
 2700SOL    HW2 8667   1.666   2.841  11.230
 2701SOL     OW 8668   0.307   1.925   9.928
 2701SOL    HW1 8669   0.296   2.019   9.961
 2701SOL    HW2 8670   0.302   1.862  10.005
 2702SOL     OW 8671   1.622   2.229   9.684
 2702SOL    HW1 8672   1.624   2.153   9.748
 2702SOL    HW2 8673   1.574   2.306   9.724
 2703SOL     OW 8674   1.023   2.628  10.276
 2703SOL    HW1 8675   1.038   2.649  10.372
 2703SOL    HW2 8676   0.993   2.533  10.267
 2704SOL     OW 8677   0.980   3.435  11.010
 2704SOL    HW1 8678   0.960   3.479  10.922
 2704SOL    HW2 8679   1.019   3.344  10.994
 2705SOL     OW 8680   1.859   3.380  10.915
 2705SOL    HW1 8681   1.873   3.407  10.820
 2705SOL    HW2 8682   1.942   3.402  10.968
 2706SOL     OW 8683   0.350   2.760  11.114
 2706SOL    HW1 8684   0.426   2.804  11.162
 2706SOL    HW2 8685   0.385   2.713  11.032
 2707SOL     OW 8686   1.540   2.136   9.435
 2707SOL    HW1 8687   1.479   2.061   9.458
 2707SOL    HW2 8688   1.562   2.188   9.518
 2708SOL     OW 8689   1.303   2.700   9.352
 2708SOL    HW1 8690   1.337   2.607   9.367
 2708SOL    HW2 8691   1.321   2.727   9.257
 2709SOL     OW 8692   1.068   3.195  10.159
 2709SOL    HW1 8693   1.075   3.111  10.104
 2709SOL    HW2 8694   1.130   3.264  10.123
 2710SOL     OW 8695   0.319   2.672  10.259
 2710SOL    HW1 8696   0.412   2.708  10.264
 2710SOL    HW2 8697   0.313   2.587  10.311
 2711SOL     OW 8698   0.339   2.371  10.316
 2711SOL    HW1 8699   0.287   2.288  10.299
 2711SOL    HW2 8700   0.416   2.376  10.252
 2712SOL     OW 8701   1.138   2.242  10.988
 2712SOL    HW1 8702   1.093   2.305  11.052
 2712SOL    HW2 8703   1.231   2.273  10.971
 2713SOL     OW 8704   1.160   2.069  10.787
 2713SOL    HW1 8705   1.160   2.133  10.864
 2713SOL    HW2 8706   1.188   2.117  10.704
 2714SOL     OW 8707   0.008   3.188   9.510
 2714SOL    HW1 8708  -0.085   3.209   9.479
 2714SOL    HW2 8709   0.018   3.089   9.523
 2715SOL     OW 8710   0.088   3.663  10.237
 2715SOL    HW1 8711   0.046   3.577  10.210
 2715SOL    HW2 8712   0.182   3.666  10.203
 2716SOL     OW 8713   0.504   3.430  10.220
 2716SOL    HW1 8714   0.570   3.504  10.229
 2716SOL    HW2 8715   0.548   3.351  10.178
 2717SOL     OW 8716   1.002   2.658  10.548
 2717SOL    HW1 8717   1.043   2.626  10.634
 2717SOL    HW2 8718   0.906   2.631  10.545
 2718SOL     OW 8719   0.040   2.406  10.424
 2718SOL    HW1 8720   0.125   2.373  10.383
 2718SOL    HW2 8721   0.053   2.421  10.522
 2719SOL     OW 8722   0.189   2.382  11.032
 2719SOL    HW1 8723   0.248   2.342  10.962
 2719SOL    HW2 8724   0.131   2.453  10.991
 2720SOL     OW 8725   1.369   2.812  10.970
 2720SOL    HW1 8726   1.408   2.901  10.990
 2720SOL    HW2 8727   1.379   2.792  10.873
 2721SOL     OW 8728   0.815   2.434   9.635
 2721SOL    HW1 8729   0.822   2.345   9.589
 2721SOL    HW2 8730   0.721   2.468   9.627
 2722SOL     OW 8731   1.657   2.466  10.516
 2722SOL    HW1 8732   1.619   2.397  10.578
 2722SOL    HW2 8733   1.739   2.430  10.472
 2723SOL     OW 8734   0.252   3.426  11.054
 2723SOL    HW1 8735   0.222   3.483  11.130
 2723SOL    HW2 8736   0.245   3.329  11.080
 2724SOL     OW 8737   0.671   2.326  10.579
 2724SOL    HW1 8738   0.637   2.237  10.549
 2724SOL    HW2 8739   0.697   2.380  10.499
 2725SOL     OW 8740   0.930   3.540  10.775
 2725SOL    HW1 8741   0.906   3.522  10.680
 2725SOL    HW2 8742   0.960   3.634  10.785
 2726SOL     OW 8743   0.473   2.362   9.501
 2726SOL    HW1 8744   0.534   2.442   9.505
 2726SOL    HW2 8745   0.378   2.393   9.508
 2727SOL     OW 8746   0.159   2.999  10.776
 2727SOL    HW1 8747   0.181   2.938  10.852
 2727SOL    HW2 8748   0.169   2.950  10.690
 2728SOL     OW 8749   1.347   2.921  10.544
 2728SOL    HW1 8750   1.371   2.858  10.470
 2728SOL    HW2 8751   1.257   2.961  10.526
 2729SOL     OW 8752   1.302   2.717   9.619
 2729SOL    HW1 8753   1.216   2.686   9.661
 2729SOL    HW2 8754   1.298   2.703   9.520
 2730SOL     OW 8755   1.759   3.609  10.464
 2730SOL    HW1 8756   1.820   3.639  10.391
 2730SOL    HW2 8757   1.721   3.520  10.442
 2731SOL     OW 8758   1.252   3.593  10.438
 2731SOL    HW1 8759   1.336   3.598  10.384
 2731SOL    HW2 8760   1.229   3.497  10.456
 2732SOL     OW 8761   0.083   3.120  10.332
 2732SOL    HW1 8762   0.078   3.119  10.432
 2732SOL    HW2 8763   0.000   3.079  10.294
 2733SOL     OW 8764   0.688   3.524  11.026
 2733SOL    HW1 8765   0.632   3.605  11.035
 2733SOL    HW2 8766   0.740   3.528  10.940
 2734SOL     OW 8767   1.388   3.435   9.787
 2734SOL    HW1 8768   1.455   3.447   9.713
 2734SOL    HW2 8769   1.348   3.524   9.810
 2735SOL     OW 8770   0.130   3.656  11.161
 2735SOL    HW1 8771   0.089   3.582  11.214
 2735SOL    HW2 8772   0.194   3.707  11.219
 2736SOL     OW 8773   1.280   2.789   9.982
 2736SOL    HW1 8774   1.340   2.708   9.984
 2736SOL    HW2 8775   1.320   2.858   9.922
 2737SOL     OW 8776   0.830   3.135  10.732
 2737SOL    HW1 8777   0.825   3.168  10.827
 2737SOL    HW2 8778   0.744   3.154  10.686
 2738SOL     OW 8779   0.672   3.478   9.464
 2738SOL    HW1 8780   0.681   3.488   9.365
 2738SOL    HW2 8781   0.632   3.389   9.485
 2739SOL     OW 8782   1.650   3.582  10.704
 2739SOL    HW1 8783   1.703   3.592  10.620
 2739SOL    HW2 8784   1.623   3.672  10.738
 2740SOL     OW 8785   0.263   2.188  10.030
 2740SOL    HW1 8786   0.184   2.239   9.996
 2740SOL    HW2 8787   0.254   2.173  10.128
 2741SOL     OW 8788   1.194   3.474   9.341
 2741SOL    HW1 8789   1.200   3.381   9.378
 2741SOL    HW2 8790   1.135   3.474   9.261
 2742SOL     OW 8791   0.822   2.864  10.682
 2742SOL    HW1 8792   0.862   2.863  10.590
 2742SOL    HW2 8793   0.832   2.956  10.722
 2743SOL     OW 8794   0.916   2.772   9.601
 2743SOL    HW1 8795   0.979   2.810   9.533
 2743SOL    HW2 8796   0.956   2.689   9.640
 2744SOL     OW 8797   1.504   3.469   9.354
 2744SOL    HW1 8798   1.412   3.506   9.361
 2744SOL    HW2 8799   1.542   3.489   9.264
 2745SOL     OW 8800   0.372   3.150  10.800
 2745SOL    HW1 8801   0.359   3.243  10.766
 2745SOL    HW2 8802   0.288   3.098  10.787
 2746SOL     OW 8803   1.614   3.154  10.599
 2746SOL    HW1 8804   1.674   3.157  10.679
 2746SOL    HW2 8805   1.539   3.218  10.612
 2747SOL     OW 8806   1.039   2.960  10.006
 2747SOL    HW1 8807   0.969   2.913  10.060
 2747SOL    HW2 8808   1.098   2.892   9.963
 2748SOL     OW 8809   1.014   2.098  10.281
 2748SOL    HW1 8810   1.006   2.062  10.188
 2748SOL    HW2 8811   1.012   2.022  10.346
 2749SOL     OW 8812   0.590   3.349   9.801
 2749SOL    HW1 8813   0.632   3.291   9.731
 2749SOL    HW2 8814   0.546   3.428   9.757
 2750SOL     OW 8815   1.709   2.247  10.691
 2750SOL    HW1 8816   1.782   2.316  10.695
 2750SOL    HW2 8817   1.737   2.172  10.632
 2751SOL     OW 8818   0.255   3.210   9.600
 2751SOL    HW1 8819   0.159   3.211   9.573
 2751SOL    HW2 8820   0.267   3.263   9.684
 2752SOL     OW 8821   0.105   2.875  11.036
 2752SOL    HW1 8822   0.028   2.842  11.090
 2752SOL    HW2 8823   0.190   2.845  11.078
 2753SOL     OW 8824   0.672   2.065  10.799
 2753SOL    HW1 8825   0.762   2.049  10.759
 2753SOL    HW2 8826   0.680   2.070  10.898
 2754SOL     OW 8827   0.075   2.207   9.343
 2754SOL    HW1 8828  -0.017   2.179   9.314
 2754SOL    HW2 8829   0.106   2.284   9.287
 2755SOL     OW 8830   1.440   2.718  10.708
 2755SOL    HW1 8831   1.383   2.770  10.645
 2755SOL    HW2 8832   1.536   2.730  10.684
 2756SOL     OW 8833   0.072   2.028   9.628
 2756SOL    HW1 8834   0.055   2.111   9.574
 2756SOL    HW2 8835   0.162   1.991   9.606
 2757SOL     OW 8836   1.183   3.197   9.429
 2757SOL    HW1 8837   1.084   3.186   9.431
 2757SOL    HW2 8838   1.217   3.212   9.522
 2758SOL     OW 8839   0.613   2.704  10.741
 2758SOL    HW1 8840   0.669   2.785  10.724
 2758SOL    HW2 8841   0.672   2.624  10.744
 2759SOL     OW 8842   1.493   3.629  10.269
 2759SOL    HW1 8843   1.526   3.693  10.200
 2759SOL    HW2 8844   1.559   3.623  10.344
 2760SOL     OW 8845   0.716   2.427  11.018
 2760SOL    HW1 8846   0.735   2.492  11.092
 2760SOL    HW2 8847   0.776   2.347  11.027
 2761SOL     OW 8848   1.450   3.082  10.943
 2761SOL    HW1 8849   1.441   3.072  11.042
 2761SOL    HW2 8850   1.546   3.075  10.917
 2762SOL     OW 8851   0.390   3.603  10.870
 2762SOL    HW1 8852   0.299   3.644  10.868
 2762SOL    HW2 8853   0.383   3.509  10.902
 2763SOL     OW 8854   1.674   2.745  10.564
 2763SOL    HW1 8855   1.647   2.656  10.527
 2763SOL    HW2 8856   1.675   2.813  10.491
 2764SOL     OW 8857   1.225   2.187   9.759
 2764SOL    HW1 8858   1.290   2.113   9.748
 2764SOL    HW2 8859   1.245   2.237   9.843
 2765SOL     OW 8860   0.594   2.607   9.962
 2765SOL    HW1 8861   0.644   2.692   9.943
 2765SOL    HW2 8862   0.506   2.609   9.914
 2766SOL     OW 8863   1.777   2.204  10.952
 2766SOL    HW1 8864   1.760   2.235  10.858
 2766SOL    HW2 8865   1.693   2.167  10.990
 2767SOL     OW 8866   1.730   2.796  10.827
 2767SOL    HW1 8867   1.768   2.887  10.842
 2767SOL    HW2 8868   1.722   2.779  10.728
 2768SOL     OW 8869   0.859   3.236   9.326
 2768SOL    HW1 8870   0.813   3.251   9.414
 2768SOL    HW2 8871   0.903   3.321   9.296
 2769SOL     OW 8872   0.661   3.652  10.263
 2769SOL    HW1 8873   0.615   3.740  10.250
 2769SOL    HW2 8874   0.760   3.664  10.256
 2770SOL     OW 8875   0.859   2.818  10.171
 2770SOL    HW1 8876   0.913   2.749  10.219
 2770SOL    HW2 8877   0.827   2.887  10.237
 2771SOL     OW 8878   1.083   2.846   9.397
 2771SOL    HW1 8879   1.060   2.899   9.315
 2771SOL    HW2 8880   1.164   2.790   9.378
 2772SOL     OW 8881   1.861   3.431  10.161
 2772SOL    HW1 8882   1.790   3.419  10.091
 2772SOL    HW2 8883   1.862   3.352  10.221
 2773SOL     OW 8884   0.221   3.176  11.154
 2773SOL    HW1 8885   0.156   3.103  11.133
 2773SOL    HW2 8886   0.225   3.190  11.252
 2774SOL     OW 8887   0.079   3.102   9.963
 2774SOL    HW1 8888   0.078   3.055  10.051
 2774SOL    HW2 8889   0.161   3.074   9.912
 2775SOL     OW 8890   0.672   3.253  10.934
 2775SOL    HW1 8891   0.594   3.203  10.972
 2775SOL    HW2 8892   0.669   3.348  10.965
 2776SOL     OW 8893   0.428   2.286   9.830
 2776SOL    HW1 8894   0.458   2.214   9.768
 2776SOL    HW2 8895   0.389   2.246   9.913
 2777SOL     OW 8896   1.705   3.349  10.414
 2777SOL    HW1 8897   1.612   3.324  10.387
 2777SOL    HW2 8898   1.731   3.299  10.496
 2778SOL     OW 8899   0.317   2.409  10.590
 2778SOL    HW1 8900   0.355   2.350  10.662
 2778SOL    HW2 8901   0.357   2.383  10.502
 2779SOL     OW 8902   0.812   3.448   9.997
 2779SOL    HW1 8903   0.844   3.458   9.903
 2779SOL    HW2 8904   0.733   3.386   9.999
 2780SOL     OW 8905   1.424   2.076  10.422
 2780SOL    HW1 8906   1.476   2.011  10.477
 2780SOL    HW2 8907   1.375   2.139  10.483
 2781SOL     OW 8908   1.001   1.896  10.464
 2781SOL    HW1 8909   0.938   1.824  10.433
 2781SOL    HW2 8910   1.094   1.860  10.464
 2782SOL     OW 8911   0.770   3.192   9.611
 2782SOL    HW1 8912   0.724   3.105   9.628
 2782SOL    HW2 8913   0.861   3.189   9.652
 2783SOL     OW 8914   0.618   3.429  10.594
 2783SOL    HW1 8915   0.613   3.511  10.651
 2783SOL    HW2 8916   0.707   3.426  10.549
 2784SOL     OW 8917   1.352   1.914   9.478
 2784SOL    HW1 8918   1.387   1.873   9.394
 2784SOL    HW2 8919   1.262   1.876   9.498
 2785SOL     OW 8920   1.300   2.315  10.001
 2785SOL    HW1 8921   1.241   2.395  10.005
 2785SOL    HW2 8922   1.315   2.280  10.094
 2786SOL     OW 8923   1.593   2.083  10.192
 2786SOL    HW1 8924   1.509   2.082  10.246
 2786SOL    HW2 8925   1.595   2.166  10.136
 2787SOL     OW 8926   0.039   2.939   9.610
 2787SOL    HW1 8927   0.138   2.928   9.601
 2787SOL    HW2 8928  -0.001   2.853   9.642
 2788SOL     OW 8929   0.875   3.508   9.647
 2788SOL    HW1 8930   0.798   3.473   9.593
 2788SOL    HW2 8931   0.843   3.579   9.709
 2789SOL     OW 8932   0.230   2.490  11.285
 2789SOL    HW1 8933   0.137   2.488  11.322
 2789SOL    HW2 8934   0.231   2.451  11.193
 2790SOL     OW 8935   0.225   2.137  12.168
 2790SOL    HW1 8936   0.260   2.120  12.260
 2790SOL    HW2 8937   0.137   2.092  12.156
 2791SOL     OW 8938   0.019   2.230  11.819
 2791SOL    HW1 8939  -0.063   2.273  11.858
 2791SOL    HW2 8940  -0.009   2.157  11.756
 2792SOL     OW 8941   0.569   3.137  12.337
 2792SOL    HW1 8942   0.476   3.130  12.300
 2792SOL    HW2 8943   0.580   3.226  12.381
 2793SOL     OW 8944   1.555   3.373  11.875
 2793SOL    HW1 8945   1.498   3.357  11.956
 2793SOL    HW2 8946   1.496   3.383  11.795
 2794SOL     OW 8947   1.135   2.565  11.889
 2794SOL    HW1 8948   1.192   2.643  11.864
 2794SOL    HW2 8949   1.075   2.591  11.965
 2795SOL     OW 8950   1.755   2.469  11.403
 2795SOL    HW1 8951   1.743   2.456  11.304
 2795SOL    HW2 8952   1.725   2.388  11.452
 2796SOL     OW 8953   0.768   3.006  12.195
 2796SOL    HW1 8954   0.690   3.023  12.255
 2796SOL    HW2 8955   0.802   3.093  12.159
 2797SOL     OW 8956   0.850   2.660  12.995
 2797SOL    HW1 8957   0.846   2.736  13.060
 2797SOL    HW2 8958   0.872   2.696  12.904
 2798SOL     OW 8959   0.685   2.874  11.837
 2798SOL    HW1 8960   0.754   2.858  11.907
 2798SOL    HW2 8961   0.612   2.931  11.875
 2799SOL     OW 8962   0.686   3.023  12.975
 2799SOL    HW1 8963   0.746   3.102  12.989
 2799SOL    HW2 8964   0.600   3.054  12.934
 2800SOL     OW 8965   0.335   3.297  12.233
 2800SOL    HW1 8966   0.257   3.266  12.180
 2800SOL    HW2 8967   0.393   3.355  12.176
 2801SOL     OW 8968   1.460   3.367  12.511
 2801SOL    HW1 8969   1.484   3.461  12.537
 2801SOL    HW2 8970   1.444   3.313  12.593
 2802SOL     OW 8971   0.438   2.254  12.671
 2802SOL    HW1 8972   0.520   2.198  12.680
 2802SOL    HW2 8973   0.357   2.196  12.675
 2803SOL     OW 8974   1.603   2.309  11.909
 2803SOL    HW1 8975   1.529   2.355  11.859
 2803SOL    HW2 8976   1.654   2.377  11.962
 2804SOL     OW 8977   0.231   3.575  11.655
 2804SOL    HW1 8978   0.265   3.652  11.709
 2804SOL    HW2 8979   0.275   3.575  11.565
 2805SOL     OW 8980   1.127   3.203  12.862
 2805SOL    HW1 8981   1.174   3.203  12.950
 2805SOL    HW2 8982   1.079   3.116  12.851
 2806SOL     OW 8983   0.230   3.296  11.710
 2806SOL    HW1 8984   0.204   3.392  11.710
 2806SOL    HW2 8985   0.159   3.242  11.755
 2807SOL     OW 8986   0.240   2.953  12.058
 2807SOL    HW1 8987   0.254   2.869  12.110
 2807SOL    HW2 8988   0.185   3.017  12.113
 2808SOL     OW 8989   0.620   3.648  12.611
 2808SOL    HW1 8990   0.528   3.631  12.646
 2808SOL    HW2 8991   0.648   3.740  12.637
 2809SOL     OW 8992   0.606   2.826  11.295
 2809SOL    HW1 8993   0.613   2.910  11.241
 2809SOL    HW2 8994   0.652   2.839  11.383
 2810SOL     OW 8995   1.594   1.976  12.652
 2810SOL    HW1 8996   1.576   2.043  12.580
 2810SOL    HW2 8997   1.591   2.022  12.741
 2811SOL     OW 8998   0.122   2.505  11.735
 2811SOL    HW1 8999   0.077   2.417  11.752
 2811SOL    HW2 9000   0.121   2.559  11.819
 2812SOL     OW 9001   1.842   3.629  11.531
 2812SOL    HW1 9002   1.896   3.600  11.611
 2812SOL    HW2 9003   1.872   3.719  11.502
 2813SOL     OW 9004   0.027   3.458  11.289
 2813SOL    HW1 9005   0.008   3.362  11.310
 2813SOL    HW2 9006  -0.006   3.516  11.364
 2814SOL     OW 9007   1.689   2.784  11.784
 2814SOL    HW1 9008   1.784   2.755  11.792
 2814SOL    HW2 9009   1.681   2.849  11.709
 2815SOL     OW 9010   1.641   2.970  11.604
 2815SOL    HW1 9011   1.727   2.972  11.552
 2815SOL    HW2 9012   1.655   3.017  11.692
 2816SOL     OW 9013   0.113   2.599  12.769
 2816SOL    HW1 9014   0.201   2.586  12.814
 2816SOL    HW2 9015   0.100   2.696  12.747
 2817SOL     OW 9016   0.613   3.227  11.898
 2817SOL    HW1 9017   0.564   3.140  11.907
 2817SOL    HW2 9018   0.590   3.270  11.811
 2818SOL     OW 9019   1.293   3.090  12.595
 2818SOL    HW1 9020   1.330   3.017  12.537
 2818SOL    HW2 9021   1.345   3.095  12.680
 2819SOL     OW 9022   0.809   1.866  11.674
 2819SOL    HW1 9023   0.849   1.957  11.665
 2819SOL    HW2 9024   0.709   1.874  11.680
 2820SOL     OW 9025   0.197   2.838  12.436
 2820SOL    HW1 9026   0.286   2.793  12.422
 2820SOL    HW2 9027   0.124   2.773  12.417
 2821SOL     OW 9028   1.525   2.861  11.362
 2821SOL    HW1 9029   1.462   2.785  11.375
 2821SOL    HW2 9030   1.573   2.879  11.448
 2822SOL     OW 9031   1.187   3.654  12.788
 2822SOL    HW1 9032   1.211   3.714  12.712
 2822SOL    HW2 9033   1.194   3.559  12.758
 2823SOL     OW 9034   0.317   2.113  12.973
 2823SOL    HW1 9035   0.388   2.184  12.979
 2823SOL    HW2 9036   0.229   2.152  13.001
 2824SOL     OW 9037   1.466   3.279  12.125
 2824SOL    HW1 9038   1.407   3.285  12.205
 2824SOL    HW2 9039   1.451   3.191  12.079
 2825SOL     OW 9040   1.667   3.576  11.744
 2825SOL    HW1 9041   1.626   3.553  11.656
 2825SOL    HW2 9042   1.649   3.502  11.809
 2826SOL     OW 9043   0.598   2.591  11.442
 2826SOL    HW1 9044   0.622   2.660  11.374
 2826SOL    HW2 9045   0.520   2.624  11.496
 2827SOL     OW 9046   1.281   2.207  12.116
 2827SOL    HW1 9047   1.195   2.157  12.103
 2827SOL    HW2 9048   1.343   2.153  12.172
 2828SOL     OW 9049   1.576   3.524  11.479
 2828SOL    HW1 9050   1.665   3.570  11.482
 2828SOL    HW2 9051   1.555   3.500  11.384
 2829SOL     OW 9052   0.807   2.467  12.637
 2829SOL    HW1 9053   0.760   2.464  12.726
 2829SOL    HW2 9054   0.756   2.412  12.571
 2830SOL     OW 9055   1.394   2.331  12.846
 2830SOL    HW1 9056   1.374   2.374  12.934
 2830SOL    HW2 9057   1.472   2.269  12.855
 2831SOL     OW 9058   0.973   2.752  12.744
 2831SOL    HW1 9059   1.019   2.668  12.715
 2831SOL    HW2 9060   0.917   2.786  12.669
 2832SOL     OW 9061   0.991   2.272  12.414
 2832SOL    HW1 9062   0.914   2.306  12.468
 2832SOL    HW2 9063   0.957   2.221  12.335
 2833SOL     OW 9064   1.041   2.563  11.601
 2833SOL    HW1 9065   1.067   2.559  11.697
 2833SOL    HW2 9066   0.956   2.512  11.587
 2834SOL     OW 9067   0.076   2.673  11.961
 2834SOL    HW1 9068   0.175   2.661  11.970
 2834SOL    HW2 9069   0.052   2.768  11.982
 2835SOL     OW 9070   0.130   3.683  12.743
 2835SOL    HW1 9071   0.120   3.668  12.842
 2835SOL    HW2 9072   0.044   3.719  12.707
 2836SOL     OW 9073   0.865   2.210  11.367
 2836SOL    HW1 9074   0.924   2.273  11.318
 2836SOL    HW2 9075   0.884   2.116  11.338
 2837SOL     OW 9076   1.719   2.447  13.003
 2837SOL    HW1 9077   1.693   2.536  12.967
 2837SOL    HW2 9078   1.717   2.379  12.930
 2838SOL     OW 9079   1.362   3.006  11.717
 2838SOL    HW1 9080   1.445   2.977  11.669
 2838SOL    HW2 9081   1.313   3.073  11.661
 2839SOL     OW 9082   0.550   2.058  12.057
 2839SOL    HW1 9083   0.545   2.053  12.157
 2839SOL    HW2 9084   0.552   2.154  12.028
 2840SOL     OW 9085   1.008   3.318  11.649
 2840SOL    HW1 9086   0.962   3.390  11.597
 2840SOL    HW2 9087   1.004   3.338  11.747
 2841SOL     OW 9088   0.351   3.663  12.025
 2841SOL    HW1 9089   0.401   3.577  12.031
 2841SOL    HW2 9090   0.416   3.740  12.022
 2842SOL     OW 9091   1.795   2.928  12.045
 2842SOL    HW1 9092   1.733   2.913  11.969
 2842SOL    HW2 9093   1.743   2.939  12.130
 2843SOL     OW 9094   1.227   3.412  12.678
 2843SOL    HW1 9095   1.233   3.335  12.742
 2843SOL    HW2 9096   1.175   3.386  12.598
 2844SOL     OW 9097   0.321   2.805  11.414
 2844SOL    HW1 9098   0.403   2.844  11.372
 2844SOL    HW2 9099   0.294   2.723  11.365
 2845SOL     OW 9100   1.458   2.597  11.900
 2845SOL    HW1 9101   1.453   2.532  11.975
 2845SOL    HW2 9102   1.538   2.656  11.913
 2846SOL     OW 9103   0.461   3.128  12.899
 2846SOL    HW1 9104   0.411   3.129  12.813
 2846SOL    HW2 9105   0.398   3.110  12.975
 2847SOL     OW 9106   1.111   3.638  11.409
 2847SOL    HW1 9107   1.051   3.576  11.459
 2847SOL    HW2 9108   1.142   3.594  11.324
 2848SOL     OW 9109   0.202   2.147  12.670
 2848SOL    HW1 9110   0.122   2.207  12.657
 2848SOL    HW2 9111   0.192   2.098  12.756
 2849SOL     OW 9112   1.632   3.239  11.253
 2849SOL    HW1 9113   1.600   3.333  11.243
 2849SOL    HW2 9114   1.556   3.176  11.241
 2850SOL     OW 9115   0.464   3.605  11.495
 2850SOL    HW1 9116   0.497   3.644  11.581
 2850SOL    HW2 9117   0.540   3.598  11.430
 2851SOL     OW 9118   1.400   1.969  11.598
 2851SOL    HW1 9119   1.376   1.932  11.508
 2851SOL    HW2 9120   1.499   1.985  11.602
 2852SOL     OW 9121   0.249   3.647  12.413
 2852SOL    HW1 9122   0.306   3.582  12.463
 2852SOL    HW2 9123   0.233   3.614  12.320
 2853SOL     OW 9124   0.940   3.560  12.076
 2853SOL    HW1 9125   1.020   3.503  12.097
 2853SOL    HW2 9126   0.891   3.520  11.999
 2854SOL     OW 9127   0.382   2.562  11.652
 2854SOL    HW1 9128   0.427   2.472  11.649
 2854SOL    HW2 9129   0.288   2.551  11.685
 2855SOL     OW 9130   1.547   2.084  12.901
 2855SOL    HW1 9131   1.542   2.121  12.993
 2855SOL    HW2 9132   1.475   2.015  12.889
 2856SOL     OW 9133   0.614   1.984  11.289
 2856SOL    HW1 9134   0.712   1.962  11.296
 2856SOL    HW2 9135   0.583   1.967  11.196
 2857SOL     OW 9136   0.781   2.126  12.921
 2857SOL    HW1 9137   0.848   2.065  12.964
 2857SOL    HW2 9138   0.708   2.145  12.986
 2858SOL     OW 9139   0.888   3.376  12.367
 2858SOL    HW1 9140   0.865   3.351  12.273
 2858SOL    HW2 9141   0.949   3.307  12.406
 2859SOL     OW 9142   1.351   2.452  12.605
 2859SOL    HW1 9143   1.379   2.409  12.690
 2859SOL    HW2 9144   1.376   2.548  12.606
 2860SOL     OW 9145   0.803   3.264  12.096
 2860SOL    HW1 9146   0.893   3.278  12.054
 2860SOL    HW2 9147   0.732   3.266  12.025
 2861SOL     OW 9148   0.922   2.365  12.071
 2861SOL    HW1 9149   0.897   2.356  11.975
 2861SOL    HW2 9150   0.970   2.283  12.102
 2862SOL     OW 9151   0.539   1.926  11.684
 2862SOL    HW1 9152   0.458   1.927  11.742
 2862SOL    HW2 9153   0.542   2.009  11.629
 2863SOL     OW 9154   1.434   3.050  11.213
 2863SOL    HW1 9155   1.466   2.974  11.270
 2863SOL    HW2 9156   1.342   3.077  11.243
 2864SOL     OW 9157   0.297   1.897  11.343
 2864SOL    HW1 9158   0.346   1.981  11.322
 2864SOL    HW2 9159   0.359   1.832  11.388
 2865SOL     OW 9160   0.935   2.098  11.652
 2865SOL    HW1 9161   0.887   2.139  11.574
 2865SOL    HW2 9162   1.034   2.096  11.633
 2866SOL     OW 9163   1.076   2.545  12.636
 2866SOL    HW1 9164   0.996   2.484  12.639
 2866SOL    HW2 9165   1.157   2.492  12.612
 2867SOL     OW 9166   1.227   3.432  11.965
 2867SOL    HW1 9167   1.248   3.506  11.900
 2867SOL    HW2 9168   1.295   3.432  12.038
 2868SOL     OW 9169   0.459   3.014  11.913
 2868SOL    HW1 9170   0.388   2.987  11.978
 2868SOL    HW2 9171   0.433   2.986  11.820
 2869SOL     OW 9172   1.271   3.659  11.763
 2869SOL    HW1 9173   1.315   3.723  11.699
 2869SOL    HW2 9174   1.221   3.711  11.833
 2870SOL     OW 9175   1.032   2.411  11.188
 2870SOL    HW1 9176   0.991   2.493  11.149
 2870SOL    HW2 9177   1.096   2.437  11.261
 2871SOL     OW 9178   0.078   2.418  12.558
 2871SOL    HW1 9179   0.170   2.417  12.517
 2871SOL    HW2 9180   0.072   2.492  12.625
 2872SOL     OW 9181   0.561   2.084  12.319
 2872SOL    HW1 9182   0.599   2.000  12.356
 2872SOL    HW2 9183   0.473   2.103  12.363
 2873SOL     OW 9184   0.866   2.316  11.814
 2873SOL    HW1 9185   0.834   2.388  11.752
 2873SOL    HW2 9186   0.890   2.235  11.761
 2874SOL     OW 9187   1.017   1.901  11.925
 2874SOL    HW1 9188   0.945   1.906  11.856
 2874SOL    HW2 9189   0.993   1.832  11.994
 2875SOL     OW 9190   1.429   3.035  12.039
 2875SOL    HW1 9191   1.374   2.951  12.032
 2875SOL    HW2 9192   1.455   3.064  11.947
 2876SOL     OW 9193   1.466   2.452  12.164
 2876SOL    HW1 9194   1.436   2.357  12.171
 2876SOL    HW2 9195   1.539   2.468  12.230
 2877SOL     OW 9196   1.857   2.695  11.549
 2877SOL    HW1 9197   1.899   2.631  11.613
 2877SOL    HW2 9198   1.819   2.644  11.471
 2878SOL     OW 9199   0.488   3.247  11.346
 2878SOL    HW1 9200   0.401   3.232  11.393
 2878SOL    HW2 9201   0.471   3.273  11.251
 2879SOL     OW 9202   1.664   3.142  11.829
 2879SOL    HW1 9203   1.763   3.150  11.843
 2879SOL    HW2 9204   1.619   3.226  11.860
 2880SOL     OW 9205   1.390   2.437  11.250
 2880SOL    HW1 9206   1.336   2.416  11.331
 2880SOL    HW2 9207   1.481   2.396  11.259
 2881SOL     OW 9208   0.527   2.118  11.500
 2881SOL    HW1 9209   0.554   2.059  11.425
 2881SOL    HW2 9210   0.527   2.213  11.469
 2882SOL     OW 9211   1.754   3.085  12.760
 2882SOL    HW1 9212   1.845   3.046  12.747
 2882SOL    HW2 9213   1.762   3.181  12.784
 2883SOL     OW 9214   1.064   3.209  12.512
 2883SOL    HW1 9215   0.984   3.186  12.567
 2883SOL    HW2 9216   1.147   3.183  12.561
 2884SOL     OW 9217   1.592   3.491  12.797
 2884SOL    HW1 9218   1.619   3.525  12.707
 2884SOL    HW2 9219   1.671   3.453  12.843
 2885SOL     OW 9220   1.111   3.057  12.272
 2885SOL    HW1 9221   1.071   3.101  12.353
 2885SOL    HW2 9222   1.070   3.094  12.189
 2886SOL     OW 9223   1.638   2.961  12.251
 2886SOL    HW1 9224   1.643   3.042  12.310
 2886SOL    HW2 9225   1.552   2.963  12.200
 2887SOL     OW 9226   0.915   1.951  12.574
 2887SOL    HW1 9227   0.940   1.931  12.479
 2887SOL    HW2 9228   0.987   2.007  12.616
 2888SOL     OW 9229   0.980   2.978  12.891
 2888SOL    HW1 9230   0.881   2.984  12.901
 2888SOL    HW2 9231   1.003   2.898  12.835
 2889SOL     OW 9232   0.705   2.912  11.540
 2889SOL    HW1 9233   0.691   2.919  11.639
 2889SOL    HW2 9234   0.789   2.861  11.522
 2890SOL     OW 9235   0.410   2.675  12.423
 2890SOL    HW1 9236   0.496   2.687  12.473
 2890SOL    HW2 9237   0.368   2.588  12.450
 2891SOL     OW 9238   1.274   2.248  12.434
 2891SOL    HW1 9239   1.295   2.322  12.498
 2891SOL    HW2 9240   1.185   2.265  12.391
 2892SOL     OW 9241   0.064   3.426  12.503
 2892SOL    HW1 9242   0.018   3.508  12.469
 2892SOL    HW2 9243   0.162   3.445  12.512
 2893SOL     OW 9244   0.367   2.962  11.673
 2893SOL    HW1 9245   0.360   3.045  11.617
 2893SOL    HW2 9246   0.371   2.882  11.613
 2894SOL     OW 9247   0.566   2.399  12.037
 2894SOL    HW1 9248   0.578   2.465  11.963
 2894SOL    HW2 9249   0.612   2.433  12.120
 2895SOL     OW 9250   1.252   3.210  11.560
 2895SOL    HW1 9251   1.302   3.287  11.600
 2895SOL    HW2 9252   1.157   3.212  11.592
 2896SOL     OW 9253   1.272   3.307  12.314
 2896SOL    HW1 9254   1.319   3.320  12.401
 2896SOL    HW2 9255   1.206   3.233  12.323
 2897SOL     OW 9256   1.582   2.501  11.644
 2897SOL    HW1 9257   1.551   2.562  11.717
 2897SOL    HW2 9258   1.632   2.553  11.575
 2898SOL     OW 9259   0.354   3.372  12.501
 2898SOL    HW1 9260   0.333   3.328  12.414
 2898SOL    HW2 9261   0.451   3.398  12.504
 2899SOL     OW 9262   0.402   2.613  12.770
 2899SOL    HW1 9263   0.470   2.668  12.723
 2899SOL    HW2 9264   0.442   2.525  12.797
 2900SOL     OW 9265   1.587   2.641  12.842
 2900SOL    HW1 9266   1.495   2.679  12.837
 2900SOL    HW2 9267   1.647   2.688  12.777
 2901SOL     OW 9268   1.013   1.967  12.942
 2901SOL    HW1 9269   1.019   2.052  12.890
 2901SOL    HW2 9270   1.045   1.891  12.885
 2902SOL     OW 9271   0.504   1.912  12.912
 2902SOL    HW1 9272   0.462   1.855  12.842
 2902SOL    HW2 9273   0.438   1.981  12.944
 2903SOL     OW 9274   0.573   2.732  12.201
 2903SOL    HW1 9275   0.617   2.821  12.192
 2903SOL    HW2 9276   0.510   2.732  12.278
 2904SOL     OW 9277   1.360   2.724  12.217
 2904SOL    HW1 9278   1.285   2.724  12.151
 2904SOL    HW2 9279   1.397   2.632  12.226
 2905SOL     OW 9280   1.209   2.387  11.447
 2905SOL    HW1 9281   1.222   2.303  11.501
 2905SOL    HW2 9282   1.180   2.461  11.507
 2906SOL     OW 9283   0.307   2.075  12.403
 2906SOL    HW1 9284   0.284   2.112  12.493
 2906SOL    HW2 9285   0.277   1.980  12.397
 2907SOL     OW 9286   0.037   3.172  12.454
 2907SOL    HW1 9287   0.090   3.123  12.522
 2907SOL    HW2 9288   0.059   3.270  12.459
 2908SOL     OW 9289   0.732   2.496  12.236
 2908SOL    HW1 9290   0.791   2.470  12.160
 2908SOL    HW2 9291   0.704   2.592  12.225
 2909SOL     OW 9292   1.728   2.797  13.026
 2909SOL    HW1 9293   1.682   2.790  12.937
 2909SOL    HW2 9294   1.666   2.841  13.092
 2910SOL     OW 9295   0.307   1.925  11.790
 2910SOL    HW1 9296   0.296   2.019  11.823
 2910SOL    HW2 9297   0.302   1.862  11.867
 2911SOL     OW 9298   1.622   2.229  11.546
 2911SOL    HW1 9299   1.624   2.153  11.610
 2911SOL    HW2 9300   1.574   2.306  11.586
 2912SOL     OW 9301   1.023   2.628  12.138
 2912SOL    HW1 9302   1.038   2.649  12.234
 2912SOL    HW2 9303   0.993   2.533  12.129
 2913SOL     OW 9304   0.980   3.435  12.872
 2913SOL    HW1 9305   0.960   3.479  12.784
 2913SOL    HW2 9306   1.019   3.344  12.856
 2914SOL     OW 9307   1.859   3.380  12.777
 2914SOL    HW1 9308   1.873   3.407  12.682
 2914SOL    HW2 9309   1.942   3.402  12.830
 2915SOL     OW 9310   0.350   2.760  12.976
 2915SOL    HW1 9311   0.426   2.804  13.024
 2915SOL    HW2 9312   0.385   2.713  12.894
 2916SOL     OW 9313   1.540   2.136  11.297
 2916SOL    HW1 9314   1.479   2.061  11.320
 2916SOL    HW2 9315   1.562   2.188  11.380
 2917SOL     OW 9316   1.303   2.700  11.214
 2917SOL    HW1 9317   1.337   2.607  11.229
 2917SOL    HW2 9318   1.321   2.727  11.119
 2918SOL     OW 9319   1.068   3.195  12.021
 2918SOL    HW1 9320   1.075   3.111  11.966
 2918SOL    HW2 9321   1.130   3.264  11.985
 2919SOL     OW 9322   0.319   2.672  12.121
 2919SOL    HW1 9323   0.412   2.708  12.126
 2919SOL    HW2 9324   0.313   2.587  12.173
 2920SOL     OW 9325   0.339   2.371  12.178
 2920SOL    HW1 9326   0.287   2.288  12.161
 2920SOL    HW2 9327   0.416   2.376  12.114
 2921SOL     OW 9328   1.138   2.242  12.850
 2921SOL    HW1 9329   1.093   2.305  12.914
 2921SOL    HW2 9330   1.231   2.273  12.833
 2922SOL     OW 9331   1.160   2.069  12.649
 2922SOL    HW1 9332   1.160   2.133  12.726
 2922SOL    HW2 9333   1.188   2.117  12.566
 2923SOL     OW 9334   0.008   3.188  11.372
 2923SOL    HW1 9335  -0.085   3.209  11.341
 2923SOL    HW2 9336   0.018   3.089  11.385
 2924SOL     OW 9337   0.088   3.663  12.099
 2924SOL    HW1 9338   0.046   3.577  12.072
 2924SOL    HW2 9339   0.182   3.666  12.065
 2925SOL     OW 9340   0.504   3.430  12.082
 2925SOL    HW1 9341   0.570   3.504  12.091
 2925SOL    HW2 9342   0.548   3.351  12.040
 2926SOL     OW 9343   1.002   2.658  12.410
 2926SOL    HW1 9344   1.043   2.626  12.496
 2926SOL    HW2 9345   0.906   2.631  12.407
 2927SOL     OW 9346   0.040   2.406  12.286
 2927SOL    HW1 9347   0.125   2.373  12.245
 2927SOL    HW2 9348   0.053   2.421  12.384
 2928SOL     OW 9349   0.189   2.382  12.894
 2928SOL    HW1 9350   0.248   2.342  12.824
 2928SOL    HW2 9351   0.131   2.453  12.853
 2929SOL     OW 9352   1.369   2.812  12.832
 2929SOL    HW1 9353   1.408   2.901  12.852
 2929SOL    HW2 9354   1.379   2.792  12.735
 2930SOL     OW 9355   0.815   2.434  11.497
 2930SOL    HW1 9356   0.822   2.345  11.451
 2930SOL    HW2 9357   0.721   2.468  11.489
 2931SOL     OW 9358   1.657   2.466  12.378
 2931SOL    HW1 9359   1.619   2.397  12.440
 2931SOL    HW2 9360   1.739   2.430  12.334
 2932SOL     OW 9361   0.252   3.426  12.916
 2932SOL    HW1 9362   0.222   3.483  12.992
 2932SOL    HW2 9363   0.245   3.329  12.942
 2933SOL     OW 9364   0.671   2.326  12.441
 2933SOL    HW1 9365   0.637   2.237  12.411
 2933SOL    HW2 9366   0.697   2.380  12.361
 2934SOL     OW 9367   0.930   3.540  12.637
 2934SOL    HW1 9368   0.906   3.522  12.542
 2934SOL    HW2 9369   0.960   3.634  12.647
 2935SOL     OW 9370   0.473   2.362  11.363
 2935SOL    HW1 9371   0.534   2.442  11.367
 2935SOL    HW2 9372   0.378   2.393  11.370
 2936SOL     OW 9373   0.159   2.999  12.638
 2936SOL    HW1 9374   0.181   2.938  12.714
 2936SOL    HW2 9375   0.169   2.950  12.552
 2937SOL     OW 9376   1.347   2.921  12.406
 2937SOL    HW1 9377   1.371   2.858  12.332
 2937SOL    HW2 9378   1.257   2.961  12.388
 2938SOL     OW 9379   1.302   2.717  11.481
 2938SOL    HW1 9380   1.216   2.686  11.523
 2938SOL    HW2 9381   1.298   2.703  11.382
 2939SOL     OW 9382   1.759   3.609  12.326
 2939SOL    HW1 9383   1.820   3.639  12.253
 2939SOL    HW2 9384   1.721   3.520  12.304
 2940SOL     OW 9385   1.252   3.593  12.300
 2940SOL    HW1 9386   1.336   3.598  12.246
 2940SOL    HW2 9387   1.229   3.497  12.318
 2941SOL     OW 9388   0.083   3.120  12.194
 2941SOL    HW1 9389   0.078   3.119  12.294
 2941SOL    HW2 9390   0.000   3.079  12.156
 2942SOL     OW 9391   0.688   3.524  12.888
 2942SOL    HW1 9392   0.632   3.605  12.897
 2942SOL    HW2 9393   0.740   3.528  12.802
 2943SOL     OW 9394   1.388   3.435  11.649
 2943SOL    HW1 9395   1.455   3.447  11.575
 2943SOL    HW2 9396   1.348   3.524  11.672
 2944SOL     OW 9397   0.130   3.656  13.023
 2944SOL    HW1 9398   0.089   3.582  13.076
 2944SOL    HW2 9399   0.194   3.707  13.081
 2945SOL     OW 9400   1.280   2.789  11.844
 2945SOL    HW1 9401   1.340   2.708  11.846
 2945SOL    HW2 9402   1.320   2.858  11.784
 2946SOL     OW 9403   0.830   3.135  12.594
 2946SOL    HW1 9404   0.825   3.168  12.689
 2946SOL    HW2 9405   0.744   3.154  12.548
 2947SOL     OW 9406   0.672   3.478  11.326
 2947SOL    HW1 9407   0.681   3.488  11.227
 2947SOL    HW2 9408   0.632   3.389  11.347
 2948SOL     OW 9409   1.650   3.582  12.566
 2948SOL    HW1 9410   1.703   3.592  12.482
 2948SOL    HW2 9411   1.623   3.672  12.600
 2949SOL     OW 9412   0.263   2.188  11.892
 2949SOL    HW1 9413   0.184   2.239  11.858
 2949SOL    HW2 9414   0.254   2.173  11.990
 2950SOL     OW 9415   1.194   3.474  11.203
 2950SOL    HW1 9416   1.200   3.381  11.240
 2950SOL    HW2 9417   1.135   3.474  11.123
 2951SOL     OW 9418   0.822   2.864  12.544
 2951SOL    HW1 9419   0.862   2.863  12.452
 2951SOL    HW2 9420   0.832   2.956  12.584
 2952SOL     OW 9421   0.916   2.772  11.463
 2952SOL    HW1 9422   0.979   2.810  11.395
 2952SOL    HW2 9423   0.956   2.689  11.502
 2953SOL     OW 9424   1.504   3.469  11.216
 2953SOL    HW1 9425   1.412   3.506  11.223
 2953SOL    HW2 9426   1.542   3.489  11.126
 2954SOL     OW 9427   0.372   3.150  12.662
 2954SOL    HW1 9428   0.359   3.243  12.628
 2954SOL    HW2 9429   0.288   3.098  12.649
 2955SOL     OW 9430   1.614   3.154  12.461
 2955SOL    HW1 9431   1.674   3.157  12.541
 2955SOL    HW2 9432   1.539   3.218  12.474
 2956SOL     OW 9433   1.039   2.960  11.868
 2956SOL    HW1 9434   0.969   2.913  11.922
 2956SOL    HW2 9435   1.098   2.892  11.825
 2957SOL     OW 9436   1.014   2.098  12.143
 2957SOL    HW1 9437   1.006   2.062  12.050
 2957SOL    HW2 9438   1.012   2.022  12.208
 2958SOL     OW 9439   0.590   3.349  11.663
 2958SOL    HW1 9440   0.632   3.291  11.593
 2958SOL    HW2 9441   0.546   3.428  11.619
 2959SOL     OW 9442   1.709   2.247  12.553
 2959SOL    HW1 9443   1.782   2.316  12.557
 2959SOL    HW2 9444   1.737   2.172  12.494
 2960SOL     OW 9445   0.255   3.210  11.462
 2960SOL    HW1 9446   0.159   3.211  11.435
 2960SOL    HW2 9447   0.267   3.263  11.546
 2961SOL     OW 9448   0.105   2.875  12.898
 2961SOL    HW1 9449   0.028   2.842  12.952
 2961SOL    HW2 9450   0.190   2.845  12.940
 2962SOL     OW 9451   0.672   2.065  12.661
 2962SOL    HW1 9452   0.762   2.049  12.621
 2962SOL    HW2 9453   0.680   2.070  12.760
 2963SOL     OW 9454   0.075   2.207  11.205
 2963SOL    HW1 9455  -0.017   2.179  11.176
 2963SOL    HW2 9456   0.106   2.284  11.149
 2964SOL     OW 9457   1.440   2.718  12.570
 2964SOL    HW1 9458   1.383   2.770  12.507
 2964SOL    HW2 9459   1.536   2.730  12.546
 2965SOL     OW 9460   0.072   2.028  11.490
 2965SOL    HW1 9461   0.055   2.111  11.436
 2965SOL    HW2 9462   0.162   1.991  11.468
 2966SOL     OW 9463   1.183   3.197  11.291
 2966SOL    HW1 9464   1.084   3.186  11.293
 2966SOL    HW2 9465   1.217   3.212  11.384
 2967SOL     OW 9466   0.613   2.704  12.603
 2967SOL    HW1 9467   0.669   2.785  12.586
 2967SOL    HW2 9468   0.672   2.624  12.606
 2968SOL     OW 9469   1.493   3.629  12.131
 2968SOL    HW1 9470   1.526   3.693  12.062
 2968SOL    HW2 9471   1.559   3.623  12.206
 2969SOL     OW 9472   0.716   2.427  12.880
 2969SOL    HW1 9473   0.735   2.492  12.954
 2969SOL    HW2 9474   0.776   2.347  12.889
 2970SOL     OW 9475   1.450   3.082  12.805
 2970SOL    HW1 9476   1.441   3.072  12.904
 2970SOL    HW2 9477   1.546   3.075  12.779
 2971SOL     OW 9478   0.390   3.603  12.732
 2971SOL    HW1 9479   0.299   3.644  12.730
 2971SOL    HW2 9480   0.383   3.509  12.764
 2972SOL     OW 9481   1.674   2.745  12.426
 2972SOL    HW1 9482   1.647   2.656  12.389
 2972SOL    HW2 9483   1.675   2.813  12.353
 2973SOL     OW 9484   1.225   2.187  11.621
 2973SOL    HW1 9485   1.290   2.113  11.610
 2973SOL    HW2 9486   1.245   2.237  11.705
 2974SOL     OW 9487   0.594   2.607  11.824
 2974SOL    HW1 9488   0.644   2.692  11.805
 2974SOL    HW2 9489   0.506   2.609  11.776
 2975SOL     OW 9490   1.777   2.204  12.814
 2975SOL    HW1 9491   1.760   2.235  12.720
 2975SOL    HW2 9492   1.693   2.167  12.852
 2976SOL     OW 9493   1.730   2.796  12.689
 2976SOL    HW1 9494   1.768   2.887  12.704
 2976SOL    HW2 9495   1.722   2.779  12.590
 2977SOL     OW 9496   0.859   3.236  11.188
 2977SOL    HW1 9497   0.813   3.251  11.276
 2977SOL    HW2 9498   0.903   3.321  11.158
 2978SOL     OW 9499   0.661   3.652  12.125
 2978SOL    HW1 9500   0.615   3.740  12.112
 2978SOL    HW2 9501   0.760   3.664  12.118
 2979SOL     OW 9502   0.859   2.818  12.033
 2979SOL    HW1 9503   0.913   2.749  12.081
 2979SOL    HW2 9504   0.827   2.887  12.099
 2980SOL     OW 9505   1.083   2.846  11.259
 2980SOL    HW1 9506   1.060   2.899  11.177
 2980SOL    HW2 9507   1.164   2.790  11.240
 2981SOL     OW 9508   1.861   3.431  12.023
 2981SOL    HW1 9509   1.790   3.419  11.953
 2981SOL    HW2 9510   1.862   3.352  12.083
 2982SOL     OW 9511   0.221   3.176  13.016
 2982SOL    HW1 9512   0.156   3.103  12.995
 2982SOL    HW2 9513   0.225   3.190  13.114
 2983SOL     OW 9514   0.079   3.102  11.825
 2983SOL    HW1 9515   0.078   3.055  11.913
 2983SOL    HW2 9516   0.161   3.074  11.774
 2984SOL     OW 9517   0.672   3.253  12.796
 2984SOL    HW1 9518   0.594   3.203  12.834
 2984SOL    HW2 9519   0.669   3.348  12.827
 2985SOL     OW 9520   0.428   2.286  11.692
 2985SOL    HW1 9521   0.458   2.214  11.630
 2985SOL    HW2 9522   0.389   2.246  11.775
 2986SOL     OW 9523   1.705   3.349  12.276
 2986SOL    HW1 9524   1.612   3.324  12.249
 2986SOL    HW2 9525   1.731   3.299  12.358
 2987SOL     OW 9526   0.317   2.409  12.452
 2987SOL    HW1 9527   0.355   2.350  12.524
 2987SOL    HW2 9528   0.357   2.383  12.364
 2988SOL     OW 9529   0.812   3.448  11.859
 2988SOL    HW1 9530   0.844   3.458  11.765
 2988SOL    HW2 9531   0.733   3.386  11.861
 2989SOL     OW 9532   1.424   2.076  12.284
 2989SOL    HW1 9533   1.476   2.011  12.339
 2989SOL    HW2 9534   1.375   2.139  12.345
 2990SOL     OW 9535   1.001   1.896  12.326
 2990SOL    HW1 9536   0.938   1.824  12.295
 2990SOL    HW2 9537   1.094   1.860  12.326
 2991SOL     OW 9538   0.770   3.192  11.473
 2991SOL    HW1 9539   0.724   3.105  11.490
 2991SOL    HW2 9540   0.861   3.189  11.514
 2992SOL     OW 9541   0.618   3.429  12.456
 2992SOL    HW1 9542   0.613   3.511  12.513
 2992SOL    HW2 9543   0.707   3.426  12.411
 2993SOL     OW 9544   1.352   1.914  11.340
 2993SOL    HW1 9545   1.387   1.873  11.256
 2993SOL    HW2 9546   1.262   1.876  11.360
 2994SOL     OW 9547   1.300   2.315  11.863
 2994SOL    HW1 9548   1.241   2.395  11.867
 2994SOL    HW2 9549   1.315   2.280  11.956
 2995SOL     OW 9550   1.593   2.083  12.054
 2995SOL    HW1 9551   1.509   2.082  12.108
 2995SOL    HW2 9552   1.595   2.166  11.998
 2996SOL     OW 9553   0.039   2.939  11.472
 2996SOL    HW1 9554   0.138   2.928  11.463
 2996SOL    HW2 9555  -0.001   2.853  11.504
 2997SOL     OW 9556   0.875   3.508  11.509
 2997SOL    HW1 9557   0.798   3.473  11.455
 2997SOL    HW2 9558   0.843   3.579  11.571
 2998SOL     OW 9559   0.230   2.490  13.147
 2998SOL    HW1 9560   0.137   2.488  13.184
 2998SOL    HW2 9561   0.231   2.451  13.055
 2999SOL     OW 9562   0.225   2.137  14.030
 2999SOL    HW1 9563   0.260   2.120  14.122
 2999SOL    HW2 9564   0.137   2.092  14.018
 3000SOL     OW 9565   0.019   2.230  13.681
 3000SOL    HW1 9566  -0.063   2.273  13.720
 3000SOL    HW2 9567  -0.009   2.157  13.618
 3001SOL     OW 9568   1.555   3.373  13.737
 3001SOL    HW1 9569   1.498   3.357  13.818
 3001SOL    HW2 9570   1.496   3.383  13.657
 3002SOL     OW 9571   1.135   2.565  13.751
 3002SOL    HW1 9572   1.192   2.643  13.726
 3002SOL    HW2 9573   1.075   2.591  13.827
 3003SOL     OW 9574   1.755   2.469  13.265
 3003SOL    HW1 9575   1.743   2.456  13.166
 3003SOL    HW2 9576   1.725   2.388  13.314
 3004SOL     OW 9577   0.685   2.874  13.699
 3004SOL    HW1 9578   0.754   2.858  13.769
 3004SOL    HW2 9579   0.612   2.931  13.737
 3005SOL     OW 9580   1.603   2.309  13.771
 3005SOL    HW1 9581   1.529   2.355  13.721
 3005SOL    HW2 9582   1.654   2.377  13.824
 3006SOL     OW 9583   0.231   3.575  13.517
 3006SOL    HW1 9584   0.265   3.652  13.571
 3006SOL    HW2 9585   0.275   3.575  13.427
 3007SOL     OW 9586   0.230   3.296  13.572
 3007SOL    HW1 9587   0.204   3.392  13.572
 3007SOL    HW2 9588   0.159   3.242  13.617
 3008SOL     OW 9589   0.240   2.953  13.920
 3008SOL    HW1 9590   0.254   2.869  13.972
 3008SOL    HW2 9591   0.185   3.017  13.975
 3009SOL     OW 9592   0.606   2.826  13.157
 3009SOL    HW1 9593   0.613   2.910  13.103
 3009SOL    HW2 9594   0.652   2.839  13.245
 3010SOL     OW 9595   0.122   2.505  13.597
 3010SOL    HW1 9596   0.077   2.417  13.614
 3010SOL    HW2 9597   0.121   2.559  13.681
 3011SOL     OW 9598   1.842   3.629  13.393
 3011SOL    HW1 9599   1.896   3.600  13.473
 3011SOL    HW2 9600   1.872   3.719  13.364
 3012SOL     OW 9601   0.027   3.458  13.151
 3012SOL    HW1 9602   0.008   3.362  13.172
 3012SOL    HW2 9603  -0.006   3.516  13.226
 3013SOL     OW 9604   1.689   2.784  13.646
 3013SOL    HW1 9605   1.784   2.755  13.654
 3013SOL    HW2 9606   1.681   2.849  13.571
 3014SOL     OW 9607   1.641   2.970  13.466
 3014SOL    HW1 9608   1.727   2.972  13.414
 3014SOL    HW2 9609   1.655   3.017  13.554
 3015SOL     OW 9610   0.613   3.227  13.760
 3015SOL    HW1 9611   0.564   3.140  13.769
 3015SOL    HW2 9612   0.590   3.270  13.673
 3016SOL     OW 9613   0.809   1.866  13.536
 3016SOL    HW1 9614   0.849   1.957  13.527
 3016SOL    HW2 9615   0.709   1.874  13.542
 3017SOL     OW 9616   1.525   2.861  13.224
 3017SOL    HW1 9617   1.462   2.785  13.237
 3017SOL    HW2 9618   1.573   2.879  13.310
 3018SOL     OW 9619   1.667   3.576  13.606
 3018SOL    HW1 9620   1.626   3.553  13.518
 3018SOL    HW2 9621   1.649   3.502  13.671
 3019SOL     OW 9622   0.598   2.591  13.304
 3019SOL    HW1 9623   0.622   2.660  13.236
 3019SOL    HW2 9624   0.520   2.624  13.358
 3020SOL     OW 9625   1.281   2.207  13.978
 3020SOL    HW1 9626   1.195   2.157  13.965
 3020SOL    HW2 9627   1.343   2.153  14.034
 3021SOL     OW 9628   1.576   3.524  13.341
 3021SOL    HW1 9629   1.665   3.570  13.344
 3021SOL    HW2 9630   1.555   3.500  13.246
 3022SOL     OW 9631   1.041   2.563  13.463
 3022SOL    HW1 9632   1.067   2.559  13.559
 3022SOL    HW2 9633   0.956   2.512  13.449
 3023SOL     OW 9634   0.076   2.673  13.823
 3023SOL    HW1 9635   0.175   2.661  13.832
 3023SOL    HW2 9636   0.052   2.768  13.844
 3024SOL     OW 9637   0.865   2.210  13.229
 3024SOL    HW1 9638   0.924   2.273  13.180
 3024SOL    HW2 9639   0.884   2.116  13.200
 3025SOL     OW 9640   1.362   3.006  13.579
 3025SOL    HW1 9641   1.445   2.977  13.531
 3025SOL    HW2 9642   1.313   3.073  13.523
 3026SOL     OW 9643   1.008   3.318  13.511
 3026SOL    HW1 9644   0.962   3.390  13.459
 3026SOL    HW2 9645   1.004   3.338  13.609
 3027SOL     OW 9646   0.351   3.663  13.887
 3027SOL    HW1 9647   0.401   3.577  13.893
 3027SOL    HW2 9648   0.416   3.740  13.884
 3028SOL     OW 9649   1.795   2.928  13.907
 3028SOL    HW1 9650   1.733   2.913  13.831
 3028SOL    HW2 9651   1.743   2.939  13.992
 3029SOL     OW 9652   0.321   2.805  13.276
 3029SOL    HW1 9653   0.403   2.844  13.234
 3029SOL    HW2 9654   0.294   2.723  13.227
 3030SOL     OW 9655   1.458   2.597  13.762
 3030SOL    HW1 9656   1.453   2.532  13.837
 3030SOL    HW2 9657   1.538   2.656  13.775
 3031SOL     OW 9658   1.111   3.638  13.271
 3031SOL    HW1 9659   1.051   3.576  13.321
 3031SOL    HW2 9660   1.142   3.594  13.186
 3032SOL     OW 9661   1.632   3.239  13.115
 3032SOL    HW1 9662   1.600   3.333  13.105
 3032SOL    HW2 9663   1.556   3.176  13.103
 3033SOL     OW 9664   0.464   3.605  13.357
 3033SOL    HW1 9665   0.497   3.644  13.443
 3033SOL    HW2 9666   0.540   3.598  13.292
 3034SOL     OW 9667   1.400   1.969  13.460
 3034SOL    HW1 9668   1.376   1.932  13.370
 3034SOL    HW2 9669   1.499   1.985  13.464
 3035SOL     OW 9670   0.940   3.560  13.938
 3035SOL    HW1 9671   1.020   3.503  13.959
 3035SOL    HW2 9672   0.891   3.520  13.861
 3036SOL     OW 9673   0.382   2.562  13.514
 3036SOL    HW1 9674   0.427   2.472  13.511
 3036SOL    HW2 9675   0.288   2.551  13.547
 3037SOL     OW 9676   0.614   1.984  13.151
 3037SOL    HW1 9677   0.712   1.962  13.158
 3037SOL    HW2 9678   0.583   1.967  13.058
 3038SOL     OW 9679   0.539   1.926  13.546
 3038SOL    HW1 9680   0.458   1.927  13.604
 3038SOL    HW2 9681   0.542   2.009  13.491
 3039SOL     OW 9682   1.434   3.050  13.075
 3039SOL    HW1 9683   1.466   2.974  13.132
 3039SOL    HW2 9684   1.342   3.077  13.105
 3040SOL     OW 9685   0.297   1.897  13.205
 3040SOL    HW1 9686   0.346   1.981  13.184
 3040SOL    HW2 9687   0.359   1.832  13.250
 3041SOL     OW 9688   0.935   2.098  13.514
 3041SOL    HW1 9689   0.887   2.139  13.436
 3041SOL    HW2 9690   1.034   2.096  13.495
 3042SOL     OW 9691   0.459   3.014  13.775
 3042SOL    HW1 9692   0.388   2.987  13.840
 3042SOL    HW2 9693   0.433   2.986  13.682
 3043SOL     OW 9694   1.271   3.659  13.625
 3043SOL    HW1 9695   1.315   3.723  13.561
 3043SOL    HW2 9696   1.221   3.711  13.695
 3044SOL     OW 9697   1.032   2.411  13.050
 3044SOL    HW1 9698   0.991   2.493  13.011
 3044SOL    HW2 9699   1.096   2.437  13.123
 3045SOL     OW 9700   0.866   2.316  13.676
 3045SOL    HW1 9701   0.834   2.388  13.614
 3045SOL    HW2 9702   0.890   2.235  13.623
 3046SOL     OW 9703   1.017   1.901  13.787
 3046SOL    HW1 9704   0.945   1.906  13.718
 3046SOL    HW2 9705   0.993   1.832  13.856
 3047SOL     OW 9706   1.857   2.695  13.411
 3047SOL    HW1 9707   1.899   2.631  13.475
 3047SOL    HW2 9708   1.819   2.644  13.333
 3048SOL     OW 9709   0.488   3.247  13.208
 3048SOL    HW1 9710   0.401   3.232  13.255
 3048SOL    HW2 9711   0.471   3.273  13.113
 3049SOL     OW 9712   1.664   3.142  13.691
 3049SOL    HW1 9713   1.763   3.150  13.705
 3049SOL    HW2 9714   1.619   3.226  13.722
 3050SOL     OW 9715   1.390   2.437  13.112
 3050SOL    HW1 9716   1.336   2.416  13.193
 3050SOL    HW2 9717   1.481   2.396  13.121
 3051SOL     OW 9718   0.527   2.118  13.362
 3051SOL    HW1 9719   0.554   2.059  13.287
 3051SOL    HW2 9720   0.527   2.213  13.331
 3052SOL     OW 9721   0.705   2.912  13.402
 3052SOL    HW1 9722   0.691   2.919  13.501
 3052SOL    HW2 9723   0.789   2.861  13.384
 3053SOL     OW 9724   0.367   2.962  13.535
 3053SOL    HW1 9725   0.360   3.045  13.479
 3053SOL    HW2 9726   0.371   2.882  13.475
 3054SOL     OW 9727   0.566   2.399  13.899
 3054SOL    HW1 9728   0.578   2.465  13.825
 3054SOL    HW2 9729   0.612   2.433  13.982
 3055SOL     OW 9730   1.252   3.210  13.422
 3055SOL    HW1 9731   1.302   3.287  13.462
 3055SOL    HW2 9732   1.157   3.212  13.454
 3056SOL     OW 9733   1.582   2.501  13.506
 3056SOL    HW1 9734   1.551   2.562  13.579
 3056SOL    HW2 9735   1.632   2.553  13.437
 3057SOL     OW 9736   1.209   2.387  13.309
 3057SOL    HW1 9737   1.222   2.303  13.363
 3057SOL    HW2 9738   1.180   2.461  13.369
 3058SOL     OW 9739   0.307   1.925  13.652
 3058SOL    HW1 9740   0.296   2.019  13.685
 3058SOL    HW2 9741   0.302   1.862  13.729
 3059SOL     OW 9742   1.622   2.229  13.408
 3059SOL    HW1 9743   1.624   2.153  13.472
 3059SOL    HW2 9744   1.574   2.306  13.448
 3060SOL     OW 9745   1.540   2.136  13.159
 3060SOL    HW1 9746   1.479   2.061  13.182
 3060SOL    HW2 9747   1.562   2.188  13.242
 3061SOL     OW 9748   1.303   2.700  13.076
 3061SOL    HW1 9749   1.337   2.607  13.091
 3061SOL    HW2 9750   1.321   2.727  12.981
 3062SOL     OW 9751   0.008   3.188  13.234
 3062SOL    HW1 9752  -0.085   3.209  13.203
 3062SOL    HW2 9753   0.018   3.089  13.247
 3063SOL     OW 9754   0.815   2.434  13.359
 3063SOL    HW1 9755   0.822   2.345  13.313
 3063SOL    HW2 9756   0.721   2.468  13.351
 3064SOL     OW 9757   0.473   2.362  13.225
 3064SOL    HW1 9758   0.534   2.442  13.229
 3064SOL    HW2 9759   0.378   2.393  13.232
 3065SOL     OW 9760   1.302   2.717  13.343
 3065SOL    HW1 9761   1.216   2.686  13.385
 3065SOL    HW2 9762   1.298   2.703  13.244
 3066SOL     OW 9763   1.388   3.435  13.511
 3066SOL    HW1 9764   1.455   3.447  13.437
 3066SOL    HW2 9765   1.348   3.524  13.534
 3067SOL     OW 9766   1.280   2.789  13.706
 3067SOL    HW1 9767   1.340   2.708  13.708
 3067SOL    HW2 9768   1.320   2.858  13.646
 3068SOL     OW 9769   0.672   3.478  13.188
 3068SOL    HW1 9770   0.681   3.488  13.089
 3068SOL    HW2 9771   0.632   3.389  13.209
 3069SOL     OW 9772   0.263   2.188  13.754
 3069SOL    HW1 9773   0.184   2.239  13.720
 3069SOL    HW2 9774   0.254   2.173  13.852
 3070SOL     OW 9775   1.194   3.474  13.065
 3070SOL    HW1 9776   1.200   3.381  13.102
 3070SOL    HW2 9777   1.135   3.474  12.985
 3071SOL     OW 9778   0.916   2.772  13.325
 3071SOL    HW1 9779   0.979   2.810  13.257
 3071SOL    HW2 9780   0.956   2.689  13.364
 3072SOL     OW 9781   1.504   3.469  13.078
 3072SOL    HW1 9782   1.412   3.506  13.085
 3072SOL    HW2 9783   1.542   3.489  12.988
 3073SOL     OW 9784   1.039   2.960  13.730
 3073SOL    HW1 9785   0.969   2.913  13.784
 3073SOL    HW2 9786   1.098   2.892  13.687
 3074SOL     OW 9787   0.590   3.349  13.525
 3074SOL    HW1 9788   0.632   3.291  13.455
 3074SOL    HW2 9789   0.546   3.428  13.481
 3075SOL     OW 9790   0.255   3.210  13.324
 3075SOL    HW1 9791   0.159   3.211  13.297
 3075SOL    HW2 9792   0.267   3.263  13.408
 3076SOL     OW 9793   0.075   2.207  13.067
 3076SOL    HW1 9794  -0.017   2.179  13.038
 3076SOL    HW2 9795   0.106   2.284  13.011
 3077SOL     OW 9796   0.072   2.028  13.352
 3077SOL    HW1 9797   0.055   2.111  13.298
 3077SOL    HW2 9798   0.162   1.991  13.330
 3078SOL     OW 9799   1.183   3.197  13.153
 3078SOL    HW1 9800   1.084   3.186  13.155
 3078SOL    HW2 9801   1.217   3.212  13.246
 3079SOL     OW 9802   1.225   2.187  13.483
 3079SOL    HW1 9803   1.290   2.113  13.472
 3079SOL    HW2 9804   1.245   2.237  13.567
 3080SOL     OW 9805   0.594   2.607  13.686
 3080SOL    HW1 9806   0.644   2.692  13.667
 3080SOL    HW2 9807   0.506   2.609  13.638
 3081SOL     OW 9808   0.859   3.236  13.050
 3081SOL    HW1 9809   0.813   3.251  13.138
 3081SOL    HW2 9810   0.903   3.321  13.020
 3082SOL     OW 9811   0.661   3.652  13.987
 3082SOL    HW1 9812   0.615   3.740  13.974
 3082SOL    HW2 9813   0.760   3.664  13.980
 3083SOL     OW 9814   0.859   2.818  13.895
 3083SOL    HW1 9815   0.913   2.749  13.943
 3083SOL    HW2 9816   0.827   2.887  13.961
 3084SOL     OW 9817   1.083   2.846  13.121
 3084SOL    HW1 9818   1.060   2.899  13.039
 3084SOL    HW2 9819   1.164   2.790  13.102
 3085SOL     OW 9820   0.079   3.102  13.687
 3085SOL    HW1 9821   0.078   3.055  13.775
 3085SOL    HW2 9822   0.161   3.074  13.636
 3086SOL     OW 9823   0.428   2.286  13.554
 3086SOL    HW1 9824   0.458   2.214  13.492
 3086SOL    HW2 9825   0.389   2.246  13.637
 3087SOL     OW 9826   1.705   3.349  14.138
 3087SOL    HW1 9827   1.612   3.324  14.111
 3087SOL    HW2 9828   1.731   3.299  14.220
 3088SOL     OW 9829   0.812   3.448  13.721
 3088SOL    HW1 9830   0.844   3.458  13.627
 3088SOL    HW2 9831   0.733   3.386  13.723
 3089SOL     OW 9832   0.770   3.192  13.335
 3089SOL    HW1 9833   0.724   3.105  13.352
 3089SOL    HW2 9834   0.861   3.189  13.376
 3090SOL     OW 9835   1.352   1.914  13.202
 3090SOL    HW1 9836   1.387   1.873  13.118
 3090SOL    HW2 9837   1.262   1.876  13.222
 3091SOL     OW 9838   1.300   2.315  13.725
 3091SOL    HW1 9839   1.241   2.395  13.729
 3091SOL    HW2 9840   1.315   2.280  13.818
 3092SOL     OW 9841   0.039   2.939  13.334
 3092SOL    HW1 9842   0.138   2.928  13.325
 3092SOL    HW2 9843  -0.001   2.853  13.366
 3093SOL     OW 9844   0.875   3.508  13.371
 3093SOL    HW1 9845   0.798   3.473  13.317
 3093SOL    HW2 9846   0.843   3.579  13.433
 3094SOL     OW 9847   0.225   3.999   0.996
 3094SOL    HW1 9848   0.260   3.982   1.088
 3094SOL    HW2 9849   0.137   3.954   0.984
 3095SOL     OW 9850   0.019   4.092   0.647
 3095SOL    HW1 9851  -0.063   4.135   0.686
 3095SOL    HW2 9852  -0.009   4.019   0.584
 3096SOL     OW 9853   1.755   4.331   0.231
 3096SOL    HW1 9854   1.743   4.318   0.132
 3096SOL    HW2 9855   1.725   4.250   0.280
 3097SOL     OW 9856   0.438   4.116   1.499
 3097SOL    HW1 9857   0.520   4.060   1.508
 3097SOL    HW2 9858   0.357   4.058   1.503
 3098SOL     OW 9859   1.594   3.838   1.480
 3098SOL    HW1 9860   1.576   3.905   1.408
 3098SOL    HW2 9861   1.591   3.884   1.569
 3099SOL     OW 9862   0.809   3.728   0.502
 3099SOL    HW1 9863   0.849   3.819   0.493
 3099SOL    HW2 9864   0.709   3.736   0.508
 3100SOL     OW 9865   1.281   4.069   0.944
 3100SOL    HW1 9866   1.195   4.019   0.931
 3100SOL    HW2 9867   1.343   4.015   1.000
 3101SOL     OW 9868   0.550   3.920   0.885
 3101SOL    HW1 9869   0.545   3.915   0.985
 3101SOL    HW2 9870   0.552   4.016   0.856
 3102SOL     OW 9871   0.202   4.009   1.498
 3102SOL    HW1 9872   0.122   4.069   1.485
 3102SOL    HW2 9873   0.192   3.960   1.584
 3103SOL     OW 9874   1.400   3.831   0.426
 3103SOL    HW1 9875   1.376   3.794   0.336
 3103SOL    HW2 9876   1.499   3.847   0.430
 3104SOL     OW 9877   1.547   3.946   1.729
 3104SOL    HW1 9878   1.542   3.983   1.821
 3104SOL    HW2 9879   1.475   3.877   1.717
 3105SOL     OW 9880   0.781   3.988   1.749
 3105SOL    HW1 9881   0.848   3.927   1.792
 3105SOL    HW2 9882   0.708   4.007   1.814
 3106SOL     OW 9883   0.539   3.788   0.512
 3106SOL    HW1 9884   0.458   3.789   0.570
 3106SOL    HW2 9885   0.542   3.871   0.457
 3107SOL     OW 9886   0.297   3.759   0.171
 3107SOL    HW1 9887   0.346   3.843   0.150
 3107SOL    HW2 9888   0.359   3.694   0.216
 3108SOL     OW 9889   0.561   3.946   1.147
 3108SOL    HW1 9890   0.599   3.862   1.184
 3108SOL    HW2 9891   0.473   3.965   1.191
 3109SOL     OW 9892   1.017   3.763   0.753
 3109SOL    HW1 9893   0.945   3.768   0.684
 3109SOL    HW2 9894   0.993   3.694   0.822
 3110SOL     OW 9895   0.915   3.813   1.402
 3110SOL    HW1 9896   0.940   3.793   1.307
 3110SOL    HW2 9897   0.987   3.869   1.444
 3111SOL     OW 9898   1.274   4.110   1.262
 3111SOL    HW1 9899   1.295   4.184   1.326
 3111SOL    HW2 9900   1.185   4.127   1.219
 3112SOL     OW 9901   0.504   3.774   1.740
 3112SOL    HW1 9902   0.462   3.717   1.670
 3112SOL    HW2 9903   0.438   3.843   1.772
 3113SOL     OW 9904   0.307   3.937   1.231
 3113SOL    HW1 9905   0.284   3.974   1.321
 3113SOL    HW2 9906   0.277   3.842   1.225
 3114SOL     OW 9907   1.540   3.998   0.125
 3114SOL    HW1 9908   1.479   3.923   0.148
 3114SOL    HW2 9909   1.562   4.050   0.208
 3115SOL     OW 9910   1.160   3.931   1.477
 3115SOL    HW1 9911   1.160   3.995   1.554
 3115SOL    HW2 9912   1.188   3.979   1.394
 3116SOL     OW 9913   0.903   3.810   0.133
 3116SOL    HW1 9914   0.954   3.811   0.047
 3116SOL    HW2 9915   0.959   3.768   0.204
 3117SOL     OW 9916   1.726   3.859   0.523
 3117SOL    HW1 9917   1.799   3.842   0.456
 3117SOL    HW2 9918   1.695   3.772   0.561
 3118SOL     OW 9919   1.841   3.899   0.963
 3118SOL    HW1 9920   1.880   3.814   0.927
 3118SOL    HW2 9921   1.743   3.901   0.944
 3119SOL     OW 9922   0.672   3.927   1.489
 3119SOL    HW1 9923   0.762   3.911   1.449
 3119SOL    HW2 9924   0.680   3.932   1.588
 3120SOL     OW 9925   0.075   4.069   0.033
 3120SOL    HW1 9926  -0.017   4.041   0.004
 3120SOL    HW2 9927   0.106   4.146  -0.023
 3121SOL     OW 9928   0.072   3.890   0.318
 3121SOL    HW1 9929   0.055   3.973   0.264
 3121SOL    HW2 9930   0.162   3.853   0.296
 3122SOL     OW 9931   1.225   4.049   0.449
 3122SOL    HW1 9932   1.290   3.975   0.438
 3122SOL    HW2 9933   1.245   4.099   0.533
 3123SOL     OW 9934   1.777   4.066   1.642
 3123SOL    HW1 9935   1.760   4.097   1.548
 3123SOL    HW2 9936   1.693   4.029   1.680
 3124SOL     OW 9937   1.824   3.916   1.227
 3124SOL    HW1 9938   1.820   3.826   1.271
 3124SOL    HW2 9939   1.827   3.905   1.128
 3125SOL     OW 9940   1.424   3.938   1.112
 3125SOL    HW1 9941   1.476   3.873   1.167
 3125SOL    HW2 9942   1.375   4.001   1.173
 3126SOL     OW 9943   1.001   3.758   1.154
 3126SOL    HW1 9944   0.938   3.686   1.123
 3126SOL    HW2 9945   1.094   3.722   1.154
 3127SOL     OW 9946   1.352   3.776   0.168
 3127SOL    HW1 9947   1.387   3.735   0.084
 3127SOL    HW2 9948   1.262   3.738   0.188
 3128SOL     OW 9949   1.300   4.177   0.691
 3128SOL    HW1 9950   1.241   4.257   0.695
 3128SOL    HW2 9951   1.315   4.142   0.784
 3129SOL     OW 9952   1.593   3.945   0.882
 3129SOL    HW1 9953   1.509   3.944   0.936
 3129SOL    HW2 9954   1.595   4.028   0.826
 3130SOL     OW 9955   0.225   3.999   2.858
 3130SOL    HW1 9956   0.260   3.982   2.950
 3130SOL    HW2 9957   0.137   3.954   2.846
 3131SOL     OW 9958   0.019   4.092   2.509
 3131SOL    HW1 9959  -0.063   4.135   2.548
 3131SOL    HW2 9960  -0.009   4.019   2.446
 3132SOL     OW 9961   1.755   4.331   2.093
 3132SOL    HW1 9962   1.743   4.318   1.994
 3132SOL    HW2 9963   1.725   4.250   2.142
 3133SOL     OW 9964   0.438   4.116   3.361
 3133SOL    HW1 9965   0.520   4.060   3.370
 3133SOL    HW2 9966   0.357   4.058   3.365
 3134SOL     OW 9967   1.594   3.838   3.342
 3134SOL    HW1 9968   1.576   3.905   3.270
 3134SOL    HW2 9969   1.591   3.884   3.431
 3135SOL     OW 9970   0.809   3.728   2.364
 3135SOL    HW1 9971   0.849   3.819   2.355
 3135SOL    HW2 9972   0.709   3.736   2.370
 3136SOL     OW 9973   1.281   4.069   2.806
 3136SOL    HW1 9974   1.195   4.019   2.793
 3136SOL    HW2 9975   1.343   4.015   2.862
 3137SOL     OW 9976   0.550   3.920   2.747
 3137SOL    HW1 9977   0.545   3.915   2.847
 3137SOL    HW2 9978   0.552   4.016   2.718
 3138SOL     OW 9979   0.202   4.009   3.360
 3138SOL    HW1 9980   0.122   4.069   3.347
 3138SOL    HW2 9981   0.192   3.960   3.446
 3139SOL     OW 9982   1.400   3.831   2.288
 3139SOL    HW1 9983   1.376   3.794   2.198
 3139SOL    HW2 9984   1.499   3.847   2.292
 3140SOL     OW 9985   1.547   3.946   3.591
 3140SOL    HW1 9986   1.542   3.983   3.683
 3140SOL    HW2 9987   1.475   3.877   3.579
 3141SOL     OW 9988   0.614   3.846   1.979
 3141SOL    HW1 9989   0.712   3.824   1.986
 3141SOL    HW2 9990   0.583   3.829   1.886
 3142SOL     OW 9991   0.781   3.988   3.611
 3142SOL    HW1 9992   0.848   3.927   3.654
 3142SOL    HW2 9993   0.708   4.007   3.676
 3143SOL     OW 9994   0.539   3.788   2.374
 3143SOL    HW1 9995   0.458   3.789   2.432
 3143SOL    HW2 9996   0.542   3.871   2.319
 3144SOL     OW 9997   0.297   3.759   2.033
 3144SOL    HW1 9998   0.346   3.843   2.012
 3144SOL    HW2 9999   0.359   3.694   2.078
 3145SOL     OW10000   0.561   3.946   3.009
 3145SOL    HW110001   0.599   3.862   3.046
 3145SOL    HW210002   0.473   3.965   3.053
 3146SOL     OW10003   1.017   3.763   2.615
 3146SOL    HW110004   0.945   3.768   2.546
 3146SOL    HW210005   0.993   3.694   2.684
 3147SOL     OW10006   0.915   3.813   3.264
 3147SOL    HW110007   0.940   3.793   3.169
 3147SOL    HW210008   0.987   3.869   3.306
 3148SOL     OW10009   1.274   4.110   3.124
 3148SOL    HW110010   1.295   4.184   3.188
 3148SOL    HW210011   1.185   4.127   3.081
 3149SOL     OW10012   0.504   3.774   3.602
 3149SOL    HW110013   0.462   3.717   3.532
 3149SOL    HW210014   0.438   3.843   3.634
 3150SOL     OW10015   0.307   3.937   3.093
 3150SOL    HW110016   0.284   3.974   3.183
 3150SOL    HW210017   0.277   3.842   3.087
 3151SOL     OW10018   1.540   3.998   1.987
 3151SOL    HW110019   1.479   3.923   2.010
 3151SOL    HW210020   1.562   4.050   2.070
 3152SOL     OW10021   1.160   3.931   3.339
 3152SOL    HW110022   1.160   3.995   3.416
 3152SOL    HW210023   1.188   3.979   3.256
 3153SOL     OW10024   0.903   3.810   1.995
 3153SOL    HW110025   0.954   3.811   1.909
 3153SOL    HW210026   0.959   3.768   2.066
 3154SOL     OW10027   1.726   3.859   2.385
 3154SOL    HW110028   1.799   3.842   2.318
 3154SOL    HW210029   1.695   3.772   2.423
 3155SOL     OW10030   1.841   3.899   2.825
 3155SOL    HW110031   1.880   3.814   2.789
 3155SOL    HW210032   1.743   3.901   2.806
 3156SOL     OW10033   0.672   3.927   3.351
 3156SOL    HW110034   0.762   3.911   3.311
 3156SOL    HW210035   0.680   3.932   3.450
 3157SOL     OW10036   0.075   4.069   1.895
 3157SOL    HW110037  -0.017   4.041   1.866
 3157SOL    HW210038   0.106   4.146   1.839
 3158SOL     OW10039   0.072   3.890   2.180
 3158SOL    HW110040   0.055   3.973   2.126
 3158SOL    HW210041   0.162   3.853   2.158
 3159SOL     OW10042   1.225   4.049   2.311
 3159SOL    HW110043   1.290   3.975   2.300
 3159SOL    HW210044   1.245   4.099   2.395
 3160SOL     OW10045   1.777   4.066   3.504
 3160SOL    HW110046   1.760   4.097   3.410
 3160SOL    HW210047   1.693   4.029   3.542
 3161SOL     OW10048   1.824   3.916   3.089
 3161SOL    HW110049   1.820   3.826   3.133
 3161SOL    HW210050   1.827   3.905   2.990
 3162SOL     OW10051   1.424   3.938   2.974
 3162SOL    HW110052   1.476   3.873   3.029
 3162SOL    HW210053   1.375   4.001   3.035
 3163SOL     OW10054   1.001   3.758   3.016
 3163SOL    HW110055   0.938   3.686   2.985
 3163SOL    HW210056   1.094   3.722   3.016
 3164SOL     OW10057   1.352   3.776   2.030
 3164SOL    HW110058   1.387   3.735   1.946
 3164SOL    HW210059   1.262   3.738   2.050
 3165SOL     OW10060   1.300   4.177   2.553
 3165SOL    HW110061   1.241   4.257   2.557
 3165SOL    HW210062   1.315   4.142   2.646
 3166SOL     OW10063   1.593   3.945   2.744
 3166SOL    HW110064   1.509   3.944   2.798
 3166SOL    HW210065   1.595   4.028   2.688
 3167SOL     OW10066   0.225   3.999   4.720
 3167SOL    HW110067   0.260   3.982   4.812
 3167SOL    HW210068   0.137   3.954   4.708
 3168SOL     OW10069   0.019   4.092   4.371
 3168SOL    HW110070  -0.063   4.135   4.410
 3168SOL    HW210071  -0.009   4.019   4.308
 3169SOL     OW10072   1.755   4.331   3.955
 3169SOL    HW110073   1.743   4.318   3.856
 3169SOL    HW210074   1.725   4.250   4.004
 3170SOL     OW10075   0.438   4.116   5.223
 3170SOL    HW110076   0.520   4.060   5.232
 3170SOL    HW210077   0.357   4.058   5.227
 3171SOL     OW10078   1.594   3.838   5.204
 3171SOL    HW110079   1.576   3.905   5.132
 3171SOL    HW210080   1.591   3.884   5.293
 3172SOL     OW10081   0.809   3.728   4.226
 3172SOL    HW110082   0.849   3.819   4.217
 3172SOL    HW210083   0.709   3.736   4.232
 3173SOL     OW10084   1.281   4.069   4.668
 3173SOL    HW110085   1.195   4.019   4.655
 3173SOL    HW210086   1.343   4.015   4.724
 3174SOL     OW10087   0.550   3.920   4.609
 3174SOL    HW110088   0.545   3.915   4.709
 3174SOL    HW210089   0.552   4.016   4.580
 3175SOL     OW10090   0.202   4.009   5.222
 3175SOL    HW110091   0.122   4.069   5.209
 3175SOL    HW210092   0.192   3.960   5.308
 3176SOL     OW10093   1.400   3.831   4.150
 3176SOL    HW110094   1.376   3.794   4.060
 3176SOL    HW210095   1.499   3.847   4.154
 3177SOL     OW10096   1.547   3.946   5.453
 3177SOL    HW110097   1.542   3.983   5.545
 3177SOL    HW210098   1.475   3.877   5.441
 3178SOL     OW10099   0.614   3.846   3.841
 3178SOL    HW110100   0.712   3.824   3.848
 3178SOL    HW210101   0.583   3.829   3.748
 3179SOL     OW10102   0.781   3.988   5.473
 3179SOL    HW110103   0.848   3.927   5.516
 3179SOL    HW210104   0.708   4.007   5.538
 3180SOL     OW10105   0.539   3.788   4.236
 3180SOL    HW110106   0.458   3.789   4.294
 3180SOL    HW210107   0.542   3.871   4.181
 3181SOL     OW10108   0.297   3.759   3.895
 3181SOL    HW110109   0.346   3.843   3.874
 3181SOL    HW210110   0.359   3.694   3.940
 3182SOL     OW10111   0.561   3.946   4.871
 3182SOL    HW110112   0.599   3.862   4.908
 3182SOL    HW210113   0.473   3.965   4.915
 3183SOL     OW10114   1.017   3.763   4.477
 3183SOL    HW110115   0.945   3.768   4.408
 3183SOL    HW210116   0.993   3.694   4.546
 3184SOL     OW10117   0.915   3.813   5.126
 3184SOL    HW110118   0.940   3.793   5.031
 3184SOL    HW210119   0.987   3.869   5.168
 3185SOL     OW10120   1.274   4.110   4.986
 3185SOL    HW110121   1.295   4.184   5.050
 3185SOL    HW210122   1.185   4.127   4.943
 3186SOL     OW10123   0.504   3.774   5.464
 3186SOL    HW110124   0.462   3.717   5.394
 3186SOL    HW210125   0.438   3.843   5.496
 3187SOL     OW10126   0.307   3.937   4.955
 3187SOL    HW110127   0.284   3.974   5.045
 3187SOL    HW210128   0.277   3.842   4.949
 3188SOL     OW10129   1.540   3.998   3.849
 3188SOL    HW110130   1.479   3.923   3.872
 3188SOL    HW210131   1.562   4.050   3.932
 3189SOL     OW10132   1.160   3.931   5.201
 3189SOL    HW110133   1.160   3.995   5.278
 3189SOL    HW210134   1.188   3.979   5.118
 3190SOL     OW10135   0.903   3.810   3.857
 3190SOL    HW110136   0.954   3.811   3.771
 3190SOL    HW210137   0.959   3.768   3.928
 3191SOL     OW10138   1.726   3.859   4.247
 3191SOL    HW110139   1.799   3.842   4.180
 3191SOL    HW210140   1.695   3.772   4.285
 3192SOL     OW10141   1.841   3.899   4.687
 3192SOL    HW110142   1.880   3.814   4.651
 3192SOL    HW210143   1.743   3.901   4.668
 3193SOL     OW10144   0.672   3.927   5.213
 3193SOL    HW110145   0.762   3.911   5.173
 3193SOL    HW210146   0.680   3.932   5.312
 3194SOL     OW10147   0.075   4.069   3.757
 3194SOL    HW110148  -0.017   4.041   3.728
 3194SOL    HW210149   0.106   4.146   3.701
 3195SOL     OW10150   0.072   3.890   4.042
 3195SOL    HW110151   0.055   3.973   3.988
 3195SOL    HW210152   0.162   3.853   4.020
 3196SOL     OW10153   1.225   4.049   4.173
 3196SOL    HW110154   1.290   3.975   4.162
 3196SOL    HW210155   1.245   4.099   4.257
 3197SOL     OW10156   1.777   4.066   5.366
 3197SOL    HW110157   1.760   4.097   5.272
 3197SOL    HW210158   1.693   4.029   5.404
 3198SOL     OW10159   1.824   3.916   4.951
 3198SOL    HW110160   1.820   3.826   4.995
 3198SOL    HW210161   1.827   3.905   4.852
 3199SOL     OW10162   1.424   3.938   4.836
 3199SOL    HW110163   1.476   3.873   4.891
 3199SOL    HW210164   1.375   4.001   4.897
 3200SOL     OW10165   1.001   3.758   4.878
 3200SOL    HW110166   0.938   3.686   4.847
 3200SOL    HW210167   1.094   3.722   4.878
 3201SOL     OW10168   1.352   3.776   3.892
 3201SOL    HW110169   1.387   3.735   3.808
 3201SOL    HW210170   1.262   3.738   3.912
 3202SOL     OW10171   1.300   4.177   4.415
 3202SOL    HW110172   1.241   4.257   4.419
 3202SOL    HW210173   1.315   4.142   4.508
 3203SOL     OW10174   1.593   3.945   4.606
 3203SOL    HW110175   1.509   3.944   4.660
 3203SOL    HW210176   1.595   4.028   4.550
 3204SOL     OW10177   0.225   3.999   6.582
 3204SOL    HW110178   0.260   3.982   6.674
 3204SOL    HW210179   0.137   3.954   6.570
 3205SOL     OW10180   0.019   4.092   6.233
 3205SOL    HW110181  -0.063   4.135   6.272
 3205SOL    HW210182  -0.009   4.019   6.170
 3206SOL     OW10183   1.755   4.331   5.817
 3206SOL    HW110184   1.743   4.318   5.718
 3206SOL    HW210185   1.725   4.250   5.866
 3207SOL     OW10186   0.438   4.116   7.085
 3207SOL    HW110187   0.520   4.060   7.094
 3207SOL    HW210188   0.357   4.058   7.089
 3208SOL     OW10189   1.594   3.838   7.066
 3208SOL    HW110190   1.576   3.905   6.994
 3208SOL    HW210191   1.591   3.884   7.155
 3209SOL     OW10192   0.809   3.728   6.088
 3209SOL    HW110193   0.849   3.819   6.079
 3209SOL    HW210194   0.709   3.736   6.094
 3210SOL     OW10195   1.281   4.069   6.530
 3210SOL    HW110196   1.195   4.019   6.517
 3210SOL    HW210197   1.343   4.015   6.586
 3211SOL     OW10198   0.550   3.920   6.471
 3211SOL    HW110199   0.545   3.915   6.571
 3211SOL    HW210200   0.552   4.016   6.442
 3212SOL     OW10201   0.202   4.009   7.084
 3212SOL    HW110202   0.122   4.069   7.071
 3212SOL    HW210203   0.192   3.960   7.170
 3213SOL     OW10204   1.400   3.831   6.012
 3213SOL    HW110205   1.376   3.794   5.922
 3213SOL    HW210206   1.499   3.847   6.016
 3214SOL     OW10207   1.547   3.946   7.315
 3214SOL    HW110208   1.542   3.983   7.407
 3214SOL    HW210209   1.475   3.877   7.303
 3215SOL     OW10210   0.614   3.846   5.703
 3215SOL    HW110211   0.712   3.824   5.710
 3215SOL    HW210212   0.583   3.829   5.610
 3216SOL     OW10213   0.781   3.988   7.335
 3216SOL    HW110214   0.848   3.927   7.378
 3216SOL    HW210215   0.708   4.007   7.400
 3217SOL     OW10216   0.539   3.788   6.098
 3217SOL    HW110217   0.458   3.789   6.156
 3217SOL    HW210218   0.542   3.871   6.043
 3218SOL     OW10219   0.297   3.759   5.757
 3218SOL    HW110220   0.346   3.843   5.736
 3218SOL    HW210221   0.359   3.694   5.802
 3219SOL     OW10222   0.561   3.946   6.733
 3219SOL    HW110223   0.599   3.862   6.770
 3219SOL    HW210224   0.473   3.965   6.777
 3220SOL     OW10225   1.017   3.763   6.339
 3220SOL    HW110226   0.945   3.768   6.270
 3220SOL    HW210227   0.993   3.694   6.408
 3221SOL     OW10228   0.915   3.813   6.988
 3221SOL    HW110229   0.940   3.793   6.893
 3221SOL    HW210230   0.987   3.869   7.030
 3222SOL     OW10231   1.274   4.110   6.848
 3222SOL    HW110232   1.295   4.184   6.912
 3222SOL    HW210233   1.185   4.127   6.805
 3223SOL     OW10234   0.504   3.774   7.326
 3223SOL    HW110235   0.462   3.717   7.256
 3223SOL    HW210236   0.438   3.843   7.358
 3224SOL     OW10237   0.307   3.937   6.817
 3224SOL    HW110238   0.284   3.974   6.907
 3224SOL    HW210239   0.277   3.842   6.811
 3225SOL     OW10240   1.540   3.998   5.711
 3225SOL    HW110241   1.479   3.923   5.734
 3225SOL    HW210242   1.562   4.050   5.794
 3226SOL     OW10243   1.160   3.931   7.063
 3226SOL    HW110244   1.160   3.995   7.140
 3226SOL    HW210245   1.188   3.979   6.980
 3227SOL     OW10246   0.903   3.810   5.719
 3227SOL    HW110247   0.954   3.811   5.633
 3227SOL    HW210248   0.959   3.768   5.790
 3228SOL     OW10249   1.726   3.859   6.109
 3228SOL    HW110250   1.799   3.842   6.042
 3228SOL    HW210251   1.695   3.772   6.147
 3229SOL     OW10252   1.841   3.899   6.549
 3229SOL    HW110253   1.880   3.814   6.513
 3229SOL    HW210254   1.743   3.901   6.530
 3230SOL     OW10255   0.672   3.927   7.075
 3230SOL    HW110256   0.762   3.911   7.035
 3230SOL    HW210257   0.680   3.932   7.174
 3231SOL     OW10258   0.075   4.069   5.619
 3231SOL    HW110259  -0.017   4.041   5.590
 3231SOL    HW210260   0.106   4.146   5.563
 3232SOL     OW10261   0.072   3.890   5.904
 3232SOL    HW110262   0.055   3.973   5.850
 3232SOL    HW210263   0.162   3.853   5.882
 3233SOL     OW10264   1.225   4.049   6.035
 3233SOL    HW110265   1.290   3.975   6.024
 3233SOL    HW210266   1.245   4.099   6.119
 3234SOL     OW10267   1.777   4.066   7.228
 3234SOL    HW110268   1.760   4.097   7.134
 3234SOL    HW210269   1.693   4.029   7.266
 3235SOL     OW10270   1.824   3.916   6.813
 3235SOL    HW110271   1.820   3.826   6.857
 3235SOL    HW210272   1.827   3.905   6.714
 3236SOL     OW10273   1.424   3.938   6.698
 3236SOL    HW110274   1.476   3.873   6.753
 3236SOL    HW210275   1.375   4.001   6.759
 3237SOL     OW10276   1.001   3.758   6.740
 3237SOL    HW110277   0.938   3.686   6.709
 3237SOL    HW210278   1.094   3.722   6.740
 3238SOL     OW10279   1.352   3.776   5.754
 3238SOL    HW110280   1.387   3.735   5.670
 3238SOL    HW210281   1.262   3.738   5.774
 3239SOL     OW10282   1.300   4.177   6.277
 3239SOL    HW110283   1.241   4.257   6.281
 3239SOL    HW210284   1.315   4.142   6.370
 3240SOL     OW10285   1.593   3.945   6.468
 3240SOL    HW110286   1.509   3.944   6.522
 3240SOL    HW210287   1.595   4.028   6.412
 3241SOL     OW10288   0.225   3.999   8.444
 3241SOL    HW110289   0.260   3.982   8.536
 3241SOL    HW210290   0.137   3.954   8.432
 3242SOL     OW10291   0.019   4.092   8.095
 3242SOL    HW110292  -0.063   4.135   8.134
 3242SOL    HW210293  -0.009   4.019   8.032
 3243SOL     OW10294   1.755   4.331   7.679
 3243SOL    HW110295   1.743   4.318   7.580
 3243SOL    HW210296   1.725   4.250   7.728
 3244SOL     OW10297   0.438   4.116   8.947
 3244SOL    HW110298   0.520   4.060   8.956
 3244SOL    HW210299   0.357   4.058   8.951
 3245SOL     OW10300   1.594   3.838   8.928
 3245SOL    HW110301   1.576   3.905   8.856
 3245SOL    HW210302   1.591   3.884   9.017
 3246SOL     OW10303   0.809   3.728   7.950
 3246SOL    HW110304   0.849   3.819   7.941
 3246SOL    HW210305   0.709   3.736   7.956
 3247SOL     OW10306   1.281   4.069   8.392
 3247SOL    HW110307   1.195   4.019   8.379
 3247SOL    HW210308   1.343   4.015   8.448
 3248SOL     OW10309   0.550   3.920   8.333
 3248SOL    HW110310   0.545   3.915   8.433
 3248SOL    HW210311   0.552   4.016   8.304
 3249SOL     OW10312   0.202   4.009   8.946
 3249SOL    HW110313   0.122   4.069   8.933
 3249SOL    HW210314   0.192   3.960   9.032
 3250SOL     OW10315   1.400   3.831   7.874
 3250SOL    HW110316   1.376   3.794   7.784
 3250SOL    HW210317   1.499   3.847   7.878
 3251SOL     OW10318   1.547   3.946   9.177
 3251SOL    HW110319   1.542   3.983   9.269
 3251SOL    HW210320   1.475   3.877   9.165
 3252SOL     OW10321   0.614   3.846   7.565
 3252SOL    HW110322   0.712   3.824   7.572
 3252SOL    HW210323   0.583   3.829   7.472
 3253SOL     OW10324   0.781   3.988   9.197
 3253SOL    HW110325   0.848   3.927   9.240
 3253SOL    HW210326   0.708   4.007   9.262
 3254SOL     OW10327   0.539   3.788   7.960
 3254SOL    HW110328   0.458   3.789   8.018
 3254SOL    HW210329   0.542   3.871   7.905
 3255SOL     OW10330   0.297   3.759   7.619
 3255SOL    HW110331   0.346   3.843   7.598
 3255SOL    HW210332   0.359   3.694   7.664
 3256SOL     OW10333   0.561   3.946   8.595
 3256SOL    HW110334   0.599   3.862   8.632
 3256SOL    HW210335   0.473   3.965   8.639
 3257SOL     OW10336   1.017   3.763   8.201
 3257SOL    HW110337   0.945   3.768   8.132
 3257SOL    HW210338   0.993   3.694   8.270
 3258SOL     OW10339   0.915   3.813   8.850
 3258SOL    HW110340   0.940   3.793   8.755
 3258SOL    HW210341   0.987   3.869   8.892
 3259SOL     OW10342   1.274   4.110   8.710
 3259SOL    HW110343   1.295   4.184   8.774
 3259SOL    HW210344   1.185   4.127   8.667
 3260SOL     OW10345   0.504   3.774   9.188
 3260SOL    HW110346   0.462   3.717   9.118
 3260SOL    HW210347   0.438   3.843   9.220
 3261SOL     OW10348   0.307   3.937   8.679
 3261SOL    HW110349   0.284   3.974   8.769
 3261SOL    HW210350   0.277   3.842   8.673
 3262SOL     OW10351   1.540   3.998   7.573
 3262SOL    HW110352   1.479   3.923   7.596
 3262SOL    HW210353   1.562   4.050   7.656
 3263SOL     OW10354   1.160   3.931   8.925
 3263SOL    HW110355   1.160   3.995   9.002
 3263SOL    HW210356   1.188   3.979   8.842
 3264SOL     OW10357   0.903   3.810   7.581
 3264SOL    HW110358   0.954   3.811   7.495
 3264SOL    HW210359   0.959   3.768   7.652
 3265SOL     OW10360   1.726   3.859   7.971
 3265SOL    HW110361   1.799   3.842   7.904
 3265SOL    HW210362   1.695   3.772   8.009
 3266SOL     OW10363   1.841   3.899   8.411
 3266SOL    HW110364   1.880   3.814   8.375
 3266SOL    HW210365   1.743   3.901   8.392
 3267SOL     OW10366   0.672   3.927   8.937
 3267SOL    HW110367   0.762   3.911   8.897
 3267SOL    HW210368   0.680   3.932   9.036
 3268SOL     OW10369   0.075   4.069   7.481
 3268SOL    HW110370  -0.017   4.041   7.452
 3268SOL    HW210371   0.106   4.146   7.425
 3269SOL     OW10372   0.072   3.890   7.766
 3269SOL    HW110373   0.055   3.973   7.712
 3269SOL    HW210374   0.162   3.853   7.744
 3270SOL     OW10375   1.225   4.049   7.897
 3270SOL    HW110376   1.290   3.975   7.886
 3270SOL    HW210377   1.245   4.099   7.981
 3271SOL     OW10378   1.777   4.066   9.090
 3271SOL    HW110379   1.760   4.097   8.996
 3271SOL    HW210380   1.693   4.029   9.128
 3272SOL     OW10381   1.824   3.916   8.675
 3272SOL    HW110382   1.820   3.826   8.719
 3272SOL    HW210383   1.827   3.905   8.576
 3273SOL     OW10384   1.424   3.938   8.560
 3273SOL    HW110385   1.476   3.873   8.615
 3273SOL    HW210386   1.375   4.001   8.621
 3274SOL     OW10387   1.001   3.758   8.602
 3274SOL    HW110388   0.938   3.686   8.571
 3274SOL    HW210389   1.094   3.722   8.602
 3275SOL     OW10390   1.352   3.776   7.616
 3275SOL    HW110391   1.387   3.735   7.532
 3275SOL    HW210392   1.262   3.738   7.636
 3276SOL     OW10393   1.300   4.177   8.139
 3276SOL    HW110394   1.241   4.257   8.143
 3276SOL    HW210395   1.315   4.142   8.232
 3277SOL     OW10396   1.593   3.945   8.330
 3277SOL    HW110397   1.509   3.944   8.384
 3277SOL    HW210398   1.595   4.028   8.274
 3278SOL     OW10399   0.225   3.999  10.306
 3278SOL    HW110400   0.260   3.982  10.398
 3278SOL    HW210401   0.137   3.954  10.294
 3279SOL     OW10402   0.019   4.092   9.957
 3279SOL    HW110403  -0.063   4.135   9.996
 3279SOL    HW210404  -0.009   4.019   9.894
 3280SOL     OW10405   1.755   4.331   9.541
 3280SOL    HW110406   1.743   4.318   9.442
 3280SOL    HW210407   1.725   4.250   9.590
 3281SOL     OW10408   0.438   4.116  10.809
 3281SOL    HW110409   0.520   4.060  10.818
 3281SOL    HW210410   0.357   4.058  10.813
 3282SOL     OW10411   1.594   3.838  10.790
 3282SOL    HW110412   1.576   3.905  10.718
 3282SOL    HW210413   1.591   3.884  10.879
 3283SOL     OW10414   0.809   3.728   9.812
 3283SOL    HW110415   0.849   3.819   9.803
 3283SOL    HW210416   0.709   3.736   9.818
 3284SOL     OW10417   1.281   4.069  10.254
 3284SOL    HW110418   1.195   4.019  10.241
 3284SOL    HW210419   1.343   4.015  10.310
 3285SOL     OW10420   0.550   3.920  10.195
 3285SOL    HW110421   0.545   3.915  10.295
 3285SOL    HW210422   0.552   4.016  10.166
 3286SOL     OW10423   0.202   4.009  10.808
 3286SOL    HW110424   0.122   4.069  10.795
 3286SOL    HW210425   0.192   3.960  10.894
 3287SOL     OW10426   1.400   3.831   9.736
 3287SOL    HW110427   1.376   3.794   9.646
 3287SOL    HW210428   1.499   3.847   9.740
 3288SOL     OW10429   1.547   3.946  11.039
 3288SOL    HW110430   1.542   3.983  11.131
 3288SOL    HW210431   1.475   3.877  11.027
 3289SOL     OW10432   0.614   3.846   9.427
 3289SOL    HW110433   0.712   3.824   9.434
 3289SOL    HW210434   0.583   3.829   9.334
 3290SOL     OW10435   0.781   3.988  11.059
 3290SOL    HW110436   0.848   3.927  11.102
 3290SOL    HW210437   0.708   4.007  11.124
 3291SOL     OW10438   0.539   3.788   9.822
 3291SOL    HW110439   0.458   3.789   9.880
 3291SOL    HW210440   0.542   3.871   9.767
 3292SOL     OW10441   0.297   3.759   9.481
 3292SOL    HW110442   0.346   3.843   9.460
 3292SOL    HW210443   0.359   3.694   9.526
 3293SOL     OW10444   0.561   3.946  10.457
 3293SOL    HW110445   0.599   3.862  10.494
 3293SOL    HW210446   0.473   3.965  10.501
 3294SOL     OW10447   1.017   3.763  10.063
 3294SOL    HW110448   0.945   3.768   9.994
 3294SOL    HW210449   0.993   3.694  10.132
 3295SOL     OW10450   0.915   3.813  10.712
 3295SOL    HW110451   0.940   3.793  10.617
 3295SOL    HW210452   0.987   3.869  10.754
 3296SOL     OW10453   1.274   4.110  10.572
 3296SOL    HW110454   1.295   4.184  10.636
 3296SOL    HW210455   1.185   4.127  10.529
 3297SOL     OW10456   0.504   3.774  11.050
 3297SOL    HW110457   0.462   3.717  10.980
 3297SOL    HW210458   0.438   3.843  11.082
 3298SOL     OW10459   0.307   3.937  10.541
 3298SOL    HW110460   0.284   3.974  10.631
 3298SOL    HW210461   0.277   3.842  10.535
 3299SOL     OW10462   1.540   3.998   9.435
 3299SOL    HW110463   1.479   3.923   9.458
 3299SOL    HW210464   1.562   4.050   9.518
 3300SOL     OW10465   1.160   3.931  10.787
 3300SOL    HW110466   1.160   3.995  10.864
 3300SOL    HW210467   1.188   3.979  10.704
 3301SOL     OW10468   0.903   3.810   9.443
 3301SOL    HW110469   0.954   3.811   9.357
 3301SOL    HW210470   0.959   3.768   9.514
 3302SOL     OW10471   1.726   3.859   9.833
 3302SOL    HW110472   1.799   3.842   9.766
 3302SOL    HW210473   1.695   3.772   9.871
 3303SOL     OW10474   1.841   3.899  10.273
 3303SOL    HW110475   1.880   3.814  10.237
 3303SOL    HW210476   1.743   3.901  10.254
 3304SOL     OW10477   0.672   3.927  10.799
 3304SOL    HW110478   0.762   3.911  10.759
 3304SOL    HW210479   0.680   3.932  10.898
 3305SOL     OW10480   0.075   4.069   9.343
 3305SOL    HW110481  -0.017   4.041   9.314
 3305SOL    HW210482   0.106   4.146   9.287
 3306SOL     OW10483   0.072   3.890   9.628
 3306SOL    HW110484   0.055   3.973   9.574
 3306SOL    HW210485   0.162   3.853   9.606
 3307SOL     OW10486   1.225   4.049   9.759
 3307SOL    HW110487   1.290   3.975   9.748
 3307SOL    HW210488   1.245   4.099   9.843
 3308SOL     OW10489   1.777   4.066  10.952
 3308SOL    HW110490   1.760   4.097  10.858
 3308SOL    HW210491   1.693   4.029  10.990
 3309SOL     OW10492   1.824   3.916  10.537
 3309SOL    HW110493   1.820   3.826  10.581
 3309SOL    HW210494   1.827   3.905  10.438
 3310SOL     OW10495   1.424   3.938  10.422
 3310SOL    HW110496   1.476   3.873  10.477
 3310SOL    HW210497   1.375   4.001  10.483
 3311SOL     OW10498   1.001   3.758  10.464
 3311SOL    HW110499   0.938   3.686  10.433
 3311SOL    HW210500   1.094   3.722  10.464
 3312SOL     OW10501   1.352   3.776   9.478
 3312SOL    HW110502   1.387   3.735   9.394
 3312SOL    HW210503   1.262   3.738   9.498
 3313SOL     OW10504   1.300   4.177  10.001
 3313SOL    HW110505   1.241   4.257  10.005
 3313SOL    HW210506   1.315   4.142  10.094
 3314SOL     OW10507   1.593   3.945  10.192
 3314SOL    HW110508   1.509   3.944  10.246
 3314SOL    HW210509   1.595   4.028  10.136
 3315SOL     OW10510   0.225   3.999  12.168
 3315SOL    HW110511   0.260   3.982  12.260
 3315SOL    HW210512   0.137   3.954  12.156
 3316SOL     OW10513   0.019   4.092  11.819
 3316SOL    HW110514  -0.063   4.135  11.858
 3316SOL    HW210515  -0.009   4.019  11.756
 3317SOL     OW10516   1.755   4.331  11.403
 3317SOL    HW110517   1.743   4.318  11.304
 3317SOL    HW210518   1.725   4.250  11.452
 3318SOL     OW10519   0.438   4.116  12.671
 3318SOL    HW110520   0.520   4.060  12.680
 3318SOL    HW210521   0.357   4.058  12.675
 3319SOL     OW10522   1.594   3.838  12.652
 3319SOL    HW110523   1.576   3.905  12.580
 3319SOL    HW210524   1.591   3.884  12.741
 3320SOL     OW10525   0.809   3.728  11.674
 3320SOL    HW110526   0.849   3.819  11.665
 3320SOL    HW210527   0.709   3.736  11.680
 3321SOL     OW10528   1.281   4.069  12.116
 3321SOL    HW110529   1.195   4.019  12.103
 3321SOL    HW210530   1.343   4.015  12.172
 3322SOL     OW10531   0.550   3.920  12.057
 3322SOL    HW110532   0.545   3.915  12.157
 3322SOL    HW210533   0.552   4.016  12.028
 3323SOL     OW10534   0.202   4.009  12.670
 3323SOL    HW110535   0.122   4.069  12.657
 3323SOL    HW210536   0.192   3.960  12.756
 3324SOL     OW10537   1.400   3.831  11.598
 3324SOL    HW110538   1.376   3.794  11.508
 3324SOL    HW210539   1.499   3.847  11.602
 3325SOL     OW10540   1.547   3.946  12.901
 3325SOL    HW110541   1.542   3.983  12.993
 3325SOL    HW210542   1.475   3.877  12.889
 3326SOL     OW10543   0.614   3.846  11.289
 3326SOL    HW110544   0.712   3.824  11.296
 3326SOL    HW210545   0.583   3.829  11.196
 3327SOL     OW10546   0.781   3.988  12.921
 3327SOL    HW110547   0.848   3.927  12.964
 3327SOL    HW210548   0.708   4.007  12.986
 3328SOL     OW10549   0.539   3.788  11.684
 3328SOL    HW110550   0.458   3.789  11.742
 3328SOL    HW210551   0.542   3.871  11.629
 3329SOL     OW10552   0.297   3.759  11.343
 3329SOL    HW110553   0.346   3.843  11.322
 3329SOL    HW210554   0.359   3.694  11.388
 3330SOL     OW10555   0.561   3.946  12.319
 3330SOL    HW110556   0.599   3.862  12.356
 3330SOL    HW210557   0.473   3.965  12.363
 3331SOL     OW10558   1.017   3.763  11.925
 3331SOL    HW110559   0.945   3.768  11.856
 3331SOL    HW210560   0.993   3.694  11.994
 3332SOL     OW10561   0.915   3.813  12.574
 3332SOL    HW110562   0.940   3.793  12.479
 3332SOL    HW210563   0.987   3.869  12.616
 3333SOL     OW10564   1.274   4.110  12.434
 3333SOL    HW110565   1.295   4.184  12.498
 3333SOL    HW210566   1.185   4.127  12.391
 3334SOL     OW10567   0.504   3.774  12.912
 3334SOL    HW110568   0.462   3.717  12.842
 3334SOL    HW210569   0.438   3.843  12.944
 3335SOL     OW10570   0.307   3.937  12.403
 3335SOL    HW110571   0.284   3.974  12.493
 3335SOL    HW210572   0.277   3.842  12.397
 3336SOL     OW10573   1.540   3.998  11.297
 3336SOL    HW110574   1.479   3.923  11.320
 3336SOL    HW210575   1.562   4.050  11.380
 3337SOL     OW10576   1.160   3.931  12.649
 3337SOL    HW110577   1.160   3.995  12.726
 3337SOL    HW210578   1.188   3.979  12.566
 3338SOL     OW10579   0.903   3.810  11.305
 3338SOL    HW110580   0.954   3.811  11.219
 3338SOL    HW210581   0.959   3.768  11.376
 3339SOL     OW10582   1.726   3.859  11.695
 3339SOL    HW110583   1.799   3.842  11.628
 3339SOL    HW210584   1.695   3.772  11.733
 3340SOL     OW10585   1.841   3.899  12.135
 3340SOL    HW110586   1.880   3.814  12.099
 3340SOL    HW210587   1.743   3.901  12.116
 3341SOL     OW10588   0.672   3.927  12.661
 3341SOL    HW110589   0.762   3.911  12.621
 3341SOL    HW210590   0.680   3.932  12.760
 3342SOL     OW10591   0.075   4.069  11.205
 3342SOL    HW110592  -0.017   4.041  11.176
 3342SOL    HW210593   0.106   4.146  11.149
 3343SOL     OW10594   0.072   3.890  11.490
 3343SOL    HW110595   0.055   3.973  11.436
 3343SOL    HW210596   0.162   3.853  11.468
 3344SOL     OW10597   1.225   4.049  11.621
 3344SOL    HW110598   1.290   3.975  11.610
 3344SOL    HW210599   1.245   4.099  11.705
 3345SOL     OW10600   1.777   4.066  12.814
 3345SOL    HW110601   1.760   4.097  12.720
 3345SOL    HW210602   1.693   4.029  12.852
 3346SOL     OW10603   1.824   3.916  12.399
 3346SOL    HW110604   1.820   3.826  12.443
 3346SOL    HW210605   1.827   3.905  12.300
 3347SOL     OW10606   1.424   3.938  12.284
 3347SOL    HW110607   1.476   3.873  12.339
 3347SOL    HW210608   1.375   4.001  12.345
 3348SOL     OW10609   1.001   3.758  12.326
 3348SOL    HW110610   0.938   3.686  12.295
 3348SOL    HW210611   1.094   3.722  12.326
 3349SOL     OW10612   1.352   3.776  11.340
 3349SOL    HW110613   1.387   3.735  11.256
 3349SOL    HW210614   1.262   3.738  11.360
 3350SOL     OW10615   1.300   4.177  11.863
 3350SOL    HW110616   1.241   4.257  11.867
 3350SOL    HW210617   1.315   4.142  11.956
 3351SOL     OW10618   1.593   3.945  12.054
 3351SOL    HW110619   1.509   3.944  12.108
 3351SOL    HW210620   1.595   4.028  11.998
 3352SOL     OW10621   0.019   4.092  13.681
 3352SOL    HW110622  -0.063   4.135  13.720
 3352SOL    HW210623  -0.009   4.019  13.618
 3353SOL     OW10624   1.755   4.331  13.265
 3353SOL    HW110625   1.743   4.318  13.166
 3353SOL    HW210626   1.725   4.250  13.314
 3354SOL     OW10627   1.603   4.171  13.771
 3354SOL    HW110628   1.529   4.217  13.721
 3354SOL    HW210629   1.654   4.239  13.824
 3355SOL     OW10630   0.809   3.728  13.536
 3355SOL    HW110631   0.849   3.819  13.527
 3355SOL    HW210632   0.709   3.736  13.542
 3356SOL     OW10633   1.400   3.831  13.460
 3356SOL    HW110634   1.376   3.794  13.370
 3356SOL    HW210635   1.499   3.847  13.464
 3357SOL     OW10636   0.614   3.846  13.151
 3357SOL    HW110637   0.712   3.824  13.158
 3357SOL    HW210638   0.583   3.829  13.058
 3358SOL     OW10639   0.539   3.788  13.546
 3358SOL    HW110640   0.458   3.789  13.604
 3358SOL    HW210641   0.542   3.871  13.491
 3359SOL     OW10642   0.297   3.759  13.205
 3359SOL    HW110643   0.346   3.843  13.184
 3359SOL    HW210644   0.359   3.694  13.250
 3360SOL     OW10645   1.017   3.763  13.787
 3360SOL    HW110646   0.945   3.768  13.718
 3360SOL    HW210647   0.993   3.694  13.856
 3361SOL     OW10648   1.540   3.998  13.159
 3361SOL    HW110649   1.479   3.923  13.182
 3361SOL    HW210650   1.562   4.050  13.242
 3362SOL     OW10651   0.903   3.810  13.167
 3362SOL    HW110652   0.954   3.811  13.081
 3362SOL    HW210653   0.959   3.768  13.238
 3363SOL     OW10654   1.726   3.859  13.557
 3363SOL    HW110655   1.799   3.842  13.490
 3363SOL    HW210656   1.695   3.772  13.595
 3364SOL     OW10657   1.841   3.899  13.997
 3364SOL    HW110658   1.880   3.814  13.961
 3364SOL    HW210659   1.743   3.901  13.978
 3365SOL     OW10660   0.075   4.069  13.067
 3365SOL    HW110661  -0.017   4.041  13.038
 3365SOL    HW210662   0.106   4.146  13.011
 3366SOL     OW10663   0.072   3.890  13.352
 3366SOL    HW110664   0.055   3.973  13.298
 3366SOL    HW210665   0.162   3.853  13.330
 3367SOL     OW10666   1.225   4.049  13.483
 3367SOL    HW110667   1.290   3.975  13.472
 3367SOL    HW210668   1.245   4.099  13.567
 3368SOL     OW10669   1.352   3.776  13.202
 3368SOL    HW110670   1.387   3.735  13.118
 3368SOL    HW210671   1.262   3.738  13.222
 3369SOL     OW10672   1.300   4.177  13.725
 3369SOL    HW110673   1.241   4.257  13.729
 3369SOL    HW210674   1.315   4.142  13.818
 3370SOL     OW10675   2.092   0.628   0.113
 3370SOL    HW110676   1.999   0.626   0.150
 3370SOL    HW210677   2.093   0.589   0.021
 3371SOL     OW10678   2.087   0.275   0.996
 3371SOL    HW110679   2.122   0.258   1.088
 3371SOL    HW210680   1.999   0.230   0.984
 3372SOL     OW10681   1.881   0.368   0.647
 3372SOL    HW110682   1.799   0.411   0.686
 3372SOL    HW210683   1.853   0.295   0.584
 3373SOL     OW10684   2.431   1.275   1.165
 3373SOL    HW110685   2.338   1.268   1.128
 3373SOL    HW210686   2.442   1.364   1.209
 3374SOL     OW10687   3.417   1.511   0.703
 3374SOL    HW110688   3.360   1.495   0.784
 3374SOL    HW210689   3.358   1.521   0.623
 3375SOL     OW10690   2.997   0.703   0.717
 3375SOL    HW110691   3.054   0.781   0.692
 3375SOL    HW210692   2.937   0.729   0.793
 3376SOL     OW10693   3.617   0.607   0.231
 3376SOL    HW110694   3.605   0.594   0.132
 3376SOL    HW210695   3.587   0.526   0.280
 3377SOL     OW10696   2.630   1.144   1.023
 3377SOL    HW110697   2.552   1.161   1.083
 3377SOL    HW210698   2.664   1.231   0.987
 3378SOL     OW10699   2.712   0.798   1.823
 3378SOL    HW110700   2.708   0.874   1.888
 3378SOL    HW210701   2.734   0.834   1.732
 3379SOL     OW10702   2.547   1.012   0.665
 3379SOL    HW110703   2.616   0.996   0.735
 3379SOL    HW210704   2.474   1.069   0.703
 3380SOL     OW10705   2.548   1.161   1.803
 3380SOL    HW110706   2.608   1.240   1.817
 3380SOL    HW210707   2.462   1.192   1.762
 3381SOL     OW10708   2.197   1.435   1.061
 3381SOL    HW110709   2.119   1.404   1.008
 3381SOL    HW210710   2.255   1.493   1.004
 3382SOL     OW10711   3.322   1.505   1.339
 3382SOL    HW110712   3.346   1.599   1.365
 3382SOL    HW210713   3.306   1.451   1.421
 3383SOL     OW10714   2.300   0.392   1.499
 3383SOL    HW110715   2.382   0.336   1.508
 3383SOL    HW210716   2.219   0.334   1.503
 3384SOL     OW10717   3.465   0.447   0.737
 3384SOL    HW110718   3.391   0.493   0.687
 3384SOL    HW210719   3.516   0.515   0.790
 3385SOL     OW10720   2.093   1.713   0.483
 3385SOL    HW110721   2.127   1.790   0.537
 3385SOL    HW210722   2.137   1.713   0.393
 3386SOL     OW10723   2.989   1.341   1.690
 3386SOL    HW110724   3.036   1.341   1.778
 3386SOL    HW210725   2.941   1.254   1.679
 3387SOL     OW10726   2.092   1.434   0.538
 3387SOL    HW110727   2.066   1.530   0.538
 3387SOL    HW210728   2.021   1.380   0.583
 3388SOL     OW10729   2.102   1.091   0.886
 3388SOL    HW110730   2.116   1.007   0.938
 3388SOL    HW210731   2.047   1.155   0.941
 3389SOL     OW10732   2.482   1.786   1.439
 3389SOL    HW110733   2.390   1.769   1.474
 3389SOL    HW210734   2.510   1.878   1.465
 3390SOL     OW10735   2.468   0.964   0.123
 3390SOL    HW110736   2.475   1.048   0.069
 3390SOL    HW210737   2.514   0.977   0.211
 3391SOL     OW10738   3.456   0.114   1.480
 3391SOL    HW110739   3.438   0.181   1.408
 3391SOL    HW210740   3.453   0.160   1.569
 3392SOL     OW10741   1.984   0.643   0.563
 3392SOL    HW110742   1.939   0.555   0.580
 3392SOL    HW210743   1.983   0.697   0.647
 3393SOL     OW10744   3.704   1.767   0.359
 3393SOL    HW110745   3.758   1.738   0.439
 3393SOL    HW210746   3.734   1.857   0.330
 3394SOL     OW10747   1.889   1.596   0.117
 3394SOL    HW110748   1.870   1.500   0.138
 3394SOL    HW210749   1.856   1.654   0.192
 3395SOL     OW10750   3.551   0.922   0.612
 3395SOL    HW110751   3.646   0.893   0.620
 3395SOL    HW210752   3.543   0.987   0.537
 3396SOL     OW10753   3.503   1.108   0.432
 3396SOL    HW110754   3.589   1.110   0.380
 3396SOL    HW210755   3.517   1.155   0.520
 3397SOL     OW10756   1.975   0.737   1.597
 3397SOL    HW110757   2.063   0.724   1.642
 3397SOL    HW210758   1.962   0.834   1.575
 3398SOL     OW10759   2.475   1.365   0.726
 3398SOL    HW110760   2.426   1.278   0.735
 3398SOL    HW210761   2.452   1.408   0.639
 3399SOL     OW10762   3.155   1.228   1.423
 3399SOL    HW110763   3.192   1.155   1.365
 3399SOL    HW210764   3.207   1.233   1.508
 3400SOL     OW10765   2.671   0.004   0.502
 3400SOL    HW110766   2.711   0.095   0.493
 3400SOL    HW210767   2.571   0.012   0.508
 3401SOL     OW10768   2.059   0.976   1.264
 3401SOL    HW110769   2.148   0.931   1.250
 3401SOL    HW210770   1.986   0.911   1.245
 3402SOL     OW10771   3.387   0.999   0.190
 3402SOL    HW110772   3.324   0.923   0.203
 3402SOL    HW210773   3.435   1.017   0.276
 3403SOL     OW10774   3.049   1.792   1.616
 3403SOL    HW110775   3.073   1.852   1.540
 3403SOL    HW210776   3.056   1.697   1.586
 3404SOL     OW10777   2.179   0.251   1.801
 3404SOL    HW110778   2.250   0.322   1.807
 3404SOL    HW210779   2.091   0.290   1.829
 3405SOL     OW10780   3.328   1.417   0.953
 3405SOL    HW110781   3.269   1.423   1.033
 3405SOL    HW210782   3.313   1.329   0.907
 3406SOL     OW10783   3.529   1.714   0.572
 3406SOL    HW110784   3.488   1.691   0.484
 3406SOL    HW210785   3.511   1.640   0.637
 3407SOL     OW10786   2.460   0.729   0.270
 3407SOL    HW110787   2.484   0.798   0.202
 3407SOL    HW210788   2.382   0.762   0.324
 3408SOL     OW10789   3.143   0.345   0.944
 3408SOL    HW110790   3.057   0.295   0.931
 3408SOL    HW210791   3.205   0.291   1.000
 3409SOL     OW10792   3.438   1.662   0.307
 3409SOL    HW110793   3.527   1.708   0.310
 3409SOL    HW210794   3.417   1.638   0.212
 3410SOL     OW10795   2.669   0.605   1.465
 3410SOL    HW110796   2.622   0.602   1.554
 3410SOL    HW210797   2.618   0.550   1.399
 3411SOL     OW10798   3.256   0.469   1.674
 3411SOL    HW110799   3.236   0.512   1.762
 3411SOL    HW210800   3.334   0.407   1.683
 3412SOL     OW10801   2.835   0.890   1.572
 3412SOL    HW110802   2.881   0.806   1.543
 3412SOL    HW210803   2.779   0.924   1.497
 3413SOL     OW10804   2.853   0.410   1.242
 3413SOL    HW110805   2.776   0.444   1.296
 3413SOL    HW210806   2.819   0.359   1.163
 3414SOL     OW10807   2.903   0.701   0.429
 3414SOL    HW110808   2.929   0.697   0.525
 3414SOL    HW210809   2.818   0.650   0.415
 3415SOL     OW10810   1.938   0.811   0.789
 3415SOL    HW110811   2.037   0.799   0.798
 3415SOL    HW210812   1.914   0.906   0.810
 3416SOL     OW10813   2.727   0.348   0.195
 3416SOL    HW110814   2.786   0.411   0.146
 3416SOL    HW210815   2.746   0.254   0.166
 3417SOL     OW10816   3.581   0.585   1.831
 3417SOL    HW110817   3.555   0.674   1.795
 3417SOL    HW210818   3.579   0.517   1.758
 3418SOL     OW10819   3.224   1.144   0.545
 3418SOL    HW110820   3.307   1.115   0.497
 3418SOL    HW210821   3.175   1.211   0.489
 3419SOL     OW10822   2.412   0.196   0.885
 3419SOL    HW110823   2.407   0.191   0.985
 3419SOL    HW210824   2.414   0.292   0.856
 3420SOL     OW10825   2.870   1.456   0.477
 3420SOL    HW110826   2.824   1.528   0.425
 3420SOL    HW210827   2.866   1.476   0.575
 3421SOL     OW10828   2.213   1.801   0.853
 3421SOL    HW110829   2.263   1.715   0.859
 3421SOL    HW210830   2.278   1.878   0.850
 3422SOL     OW10831   3.657   1.066   0.873
 3422SOL    HW110832   3.595   1.051   0.797
 3422SOL    HW210833   3.605   1.077   0.958
 3423SOL     OW10834   3.089   1.550   1.506
 3423SOL    HW110835   3.095   1.473   1.570
 3423SOL    HW210836   3.037   1.524   1.426
 3424SOL     OW10837   2.183   0.943   0.242
 3424SOL    HW110838   2.265   0.982   0.200
 3424SOL    HW210839   2.156   0.861   0.193
 3425SOL     OW10840   3.320   0.735   0.728
 3425SOL    HW110841   3.315   0.670   0.803
 3425SOL    HW210842   3.400   0.794   0.741
 3426SOL     OW10843   2.323   1.266   1.727
 3426SOL    HW110844   2.273   1.267   1.641
 3426SOL    HW210845   2.260   1.248   1.803
 3427SOL     OW10846   2.973   1.776   0.237
 3427SOL    HW110847   2.913   1.714   0.287
 3427SOL    HW210848   3.004   1.732   0.152
 3428SOL     OW10849   2.064   0.285   1.498
 3428SOL    HW110850   1.984   0.345   1.485
 3428SOL    HW210851   2.054   0.236   1.584
 3429SOL     OW10852   3.494   1.377   0.081
 3429SOL    HW110853   3.462   1.471   0.071
 3429SOL    HW210854   3.418   1.314   0.069
 3430SOL     OW10855   2.326   1.743   0.323
 3430SOL    HW110856   2.359   1.782   0.409
 3430SOL    HW210857   2.402   1.736   0.258
 3431SOL     OW10858   3.262   0.107   0.426
 3431SOL    HW110859   3.238   0.070   0.336
 3431SOL    HW210860   3.361   0.123   0.430
 3432SOL     OW10861   2.111   1.785   1.241
 3432SOL    HW110862   2.168   1.720   1.291
 3432SOL    HW210863   2.095   1.752   1.148
 3433SOL     OW10864   2.802   1.698   0.904
 3433SOL    HW110865   2.882   1.641   0.925
 3433SOL    HW210866   2.753   1.658   0.827
 3434SOL     OW10867   2.244   0.700   0.480
 3434SOL    HW110868   2.289   0.610   0.477
 3434SOL    HW210869   2.150   0.689   0.513
 3435SOL     OW10870   3.409   0.222   1.729
 3435SOL    HW110871   3.404   0.259   1.821
 3435SOL    HW210872   3.337   0.153   1.717
 3436SOL     OW10873   2.476   0.122   0.117
 3436SOL    HW110874   2.574   0.100   0.124
 3436SOL    HW210875   2.445   0.105   0.024
 3437SOL     OW10876   2.643   0.264   1.749
 3437SOL    HW110877   2.710   0.203   1.792
 3437SOL    HW210878   2.570   0.283   1.814
 3438SOL     OW10879   2.750   1.514   1.195
 3438SOL    HW110880   2.727   1.489   1.101
 3438SOL    HW210881   2.811   1.445   1.234
 3439SOL     OW10882   3.213   0.590   1.433
 3439SOL    HW110883   3.241   0.547   1.518
 3439SOL    HW210884   3.238   0.686   1.434
 3440SOL     OW10885   2.665   1.402   0.924
 3440SOL    HW110886   2.755   1.416   0.882
 3440SOL    HW210887   2.594   1.404   0.853
 3441SOL     OW10888   2.784   0.503   0.899
 3441SOL    HW110889   2.759   0.494   0.803
 3441SOL    HW210890   2.832   0.421   0.930
 3442SOL     OW10891   2.401   0.064   0.512
 3442SOL    HW110892   2.320   0.065   0.570
 3442SOL    HW210893   2.404   0.147   0.457
 3443SOL     OW10894   3.296   1.188   0.041
 3443SOL    HW110895   3.328   1.112   0.098
 3443SOL    HW210896   3.204   1.215   0.071
 3444SOL     OW10897   2.159   0.035   0.171
 3444SOL    HW110898   2.208   0.119   0.150
 3444SOL    HW210899   2.221  -0.030   0.216
 3445SOL     OW10900   2.797   0.236   0.480
 3445SOL    HW110901   2.749   0.277   0.402
 3445SOL    HW210902   2.896   0.234   0.461
 3446SOL     OW10903   2.938   0.683   1.464
 3446SOL    HW110904   2.858   0.622   1.467
 3446SOL    HW210905   3.019   0.630   1.440
 3447SOL     OW10906   3.089   1.570   0.793
 3447SOL    HW110907   3.110   1.644   0.728
 3447SOL    HW210908   3.157   1.570   0.866
 3448SOL     OW10909   2.321   1.152   0.741
 3448SOL    HW110910   2.250   1.125   0.806
 3448SOL    HW210911   2.295   1.124   0.648
 3449SOL     OW10912   3.133   1.797   0.591
 3449SOL    HW110913   3.177   1.861   0.527
 3449SOL    HW210914   3.083   1.849   0.661
 3450SOL     OW10915   2.894   0.549   0.016
 3450SOL    HW110916   2.853   0.631  -0.023
 3450SOL    HW210917   2.958   0.575   0.089
 3451SOL     OW10918   1.940   0.556   1.386
 3451SOL    HW110919   2.032   0.555   1.345
 3451SOL    HW210920   1.934   0.630   1.453
 3452SOL     OW10921   2.423   0.222   1.147
 3452SOL    HW110922   2.461   0.138   1.184
 3452SOL    HW210923   2.335   0.241   1.191
 3453SOL     OW10924   2.728   0.454   0.642
 3453SOL    HW110925   2.696   0.526   0.580
 3453SOL    HW210926   2.752   0.373   0.589
 3454SOL     OW10927   2.879   0.039   0.753
 3454SOL    HW110928   2.807   0.044   0.684
 3454SOL    HW210929   2.855  -0.030   0.822
 3455SOL     OW10930   3.291   1.173   0.867
 3455SOL    HW110931   3.236   1.089   0.860
 3455SOL    HW210932   3.317   1.202   0.775
 3456SOL     OW10933   3.328   0.590   0.992
 3456SOL    HW110934   3.298   0.495   0.999
 3456SOL    HW210935   3.401   0.606   1.058
 3457SOL     OW10936   3.719   0.833   0.377
 3457SOL    HW110937   3.761   0.769   0.441
 3457SOL    HW210938   3.681   0.782   0.299
 3458SOL     OW10939   2.350   1.385   0.174
 3458SOL    HW110940   2.263   1.370   0.221
 3458SOL    HW210941   2.333   1.411   0.079
 3459SOL     OW10942   3.526   1.280   0.657
 3459SOL    HW110943   3.625   1.288   0.671
 3459SOL    HW210944   3.481   1.364   0.688
 3460SOL     OW10945   3.252   0.575   0.078
 3460SOL    HW110946   3.198   0.554   0.159
 3460SOL    HW210947   3.343   0.534   0.087
 3461SOL     OW10948   2.389   0.256   0.328
 3461SOL    HW110949   2.416   0.197   0.253
 3461SOL    HW210950   2.389   0.351   0.297
 3462SOL     OW10951   3.616   1.223   1.588
 3462SOL    HW110952   3.707   1.184   1.575
 3462SOL    HW210953   3.624   1.319   1.612
 3463SOL     OW10954   2.926   1.347   1.340
 3463SOL    HW110955   2.846   1.324   1.395
 3463SOL    HW210956   3.009   1.321   1.389
 3464SOL     OW10957   3.454   1.629   1.625
 3464SOL    HW110958   3.481   1.663   1.535
 3464SOL    HW210959   3.533   1.591   1.671
 3465SOL     OW10960   2.973   1.195   1.100
 3465SOL    HW110961   2.933   1.239   1.181
 3465SOL    HW210962   2.932   1.232   1.017
 3466SOL     OW10963   3.500   1.099   1.079
 3466SOL    HW110964   3.505   1.180   1.138
 3466SOL    HW210965   3.414   1.101   1.028
 3467SOL     OW10966   2.777   0.089   1.402
 3467SOL    HW110967   2.802   0.069   1.307
 3467SOL    HW210968   2.849   0.145   1.444
 3468SOL     OW10969   2.842   1.116   1.719
 3468SOL    HW110970   2.743   1.122   1.729
 3468SOL    HW210971   2.865   1.036   1.663
 3469SOL     OW10972   2.567   1.050   0.368
 3469SOL    HW110973   2.553   1.057   0.467
 3469SOL    HW210974   2.651   0.999   0.350
 3470SOL     OW10975   2.272   0.813   1.251
 3470SOL    HW110976   2.358   0.825   1.301
 3470SOL    HW210977   2.230   0.726   1.278
 3471SOL     OW10978   3.136   0.386   1.262
 3471SOL    HW110979   3.157   0.460   1.326
 3471SOL    HW210980   3.047   0.403   1.219
 3472SOL     OW10981   1.926   1.564   1.331
 3472SOL    HW110982   1.880   1.646   1.297
 3472SOL    HW210983   2.024   1.583   1.340
 3473SOL     OW10984   2.229   1.100   0.501
 3473SOL    HW110985   2.222   1.183   0.445
 3473SOL    HW210986   2.233   1.020   0.441
 3474SOL     OW10987   2.428   0.537   0.865
 3474SOL    HW110988   2.440   0.603   0.791
 3474SOL    HW210989   2.474   0.571   0.948
 3475SOL     OW10990   3.114   1.348   0.388
 3475SOL    HW110991   3.164   1.425   0.428
 3475SOL    HW210992   3.019   1.350   0.420
 3476SOL     OW10993   3.134   1.445   1.142
 3476SOL    HW110994   3.181   1.458   1.229
 3476SOL    HW210995   3.068   1.371   1.151
 3477SOL     OW10996   3.444   0.639   0.472
 3477SOL    HW110997   3.413   0.700   0.545
 3477SOL    HW210998   3.494   0.691   0.403
 3478SOL     OW10999   2.216   1.510   1.329
 3478SOL    HW111000   2.195   1.466   1.242
 3478SOL    HW211001   2.313   1.536   1.332
 3479SOL     OW11002   2.264   0.751   1.598
 3479SOL    HW111003   2.332   0.806   1.551
 3479SOL    HW211004   2.304   0.663   1.625
 3480SOL     OW11005   3.449   0.779   1.670
 3480SOL    HW111006   3.357   0.817   1.665
 3480SOL    HW211007   3.509   0.826   1.605
 3481SOL     OW11008   2.875   0.105   1.770
 3481SOL    HW111009   2.881   0.190   1.718
 3481SOL    HW211010   2.907   0.029   1.713
 3482SOL     OW11011   2.366   0.050   1.740
 3482SOL    HW111012   2.324  -0.007   1.670
 3482SOL    HW211013   2.300   0.119   1.772
 3483SOL     OW11014   2.435   0.870   1.029
 3483SOL    HW111015   2.479   0.959   1.020
 3483SOL    HW211016   2.372   0.870   1.106
 3484SOL     OW11017   3.222   0.862   1.045
 3484SOL    HW111018   3.147   0.862   0.979
 3484SOL    HW211019   3.259   0.770   1.054
 3485SOL     OW11020   3.071   0.525   0.275
 3485SOL    HW111021   3.084   0.441   0.329
 3485SOL    HW211022   3.042   0.599   0.335
 3486SOL     OW11023   2.169   0.213   1.231
 3486SOL    HW111024   2.146   0.250   1.321
 3486SOL    HW211025   2.139   0.118   1.225
 3487SOL     OW11026   1.899   1.310   1.282
 3487SOL    HW111027   1.952   1.261   1.350
 3487SOL    HW211028   1.921   1.408   1.287
 3488SOL     OW11029   2.594   0.634   1.064
 3488SOL    HW111030   2.653   0.608   0.988
 3488SOL    HW211031   2.566   0.730   1.053
 3489SOL     OW11032   3.590   0.935   1.854
 3489SOL    HW111033   3.544   0.928   1.765
 3489SOL    HW211034   3.528   0.979   1.920
 3490SOL     OW11035   2.169   0.063   0.618
 3490SOL    HW111036   2.158   0.157   0.651
 3490SOL    HW211037   2.164   0.000   0.695
 3491SOL     OW11038   3.484   0.367   0.374
 3491SOL    HW111039   3.486   0.291   0.438
 3491SOL    HW211040   3.436   0.444   0.414
 3492SOL     OW11041   2.885   0.766   0.966
 3492SOL    HW111042   2.900   0.787   1.062
 3492SOL    HW211043   2.855   0.671   0.957
 3493SOL     OW11044   2.842   1.573   1.700
 3493SOL    HW111045   2.822   1.617   1.612
 3493SOL    HW211046   2.881   1.482   1.684
 3494SOL     OW11047   3.721   1.518   1.605
 3494SOL    HW111048   3.735   1.545   1.510
 3494SOL    HW211049   3.804   1.540   1.658
 3495SOL     OW11050   2.212   0.898   1.804
 3495SOL    HW111051   2.288   0.942   1.852
 3495SOL    HW211052   2.247   0.851   1.722
 3496SOL     OW11053   3.402   0.274   0.125
 3496SOL    HW111054   3.341   0.199   0.148
 3496SOL    HW211055   3.424   0.326   0.208
 3497SOL     OW11056   3.165   0.838   0.042
 3497SOL    HW111057   3.199   0.745   0.057
 3497SOL    HW211058   3.183   0.865  -0.053
 3498SOL     OW11059   2.930   1.333   0.849
 3498SOL    HW111060   2.937   1.249   0.794
 3498SOL    HW211061   2.992   1.402   0.813
 3499SOL     OW11062   2.181   0.810   0.949
 3499SOL    HW111063   2.274   0.846   0.954
 3499SOL    HW211064   2.175   0.725   1.001
 3500SOL     OW11065   2.201   0.509   1.006
 3500SOL    HW111066   2.149   0.426   0.989
 3500SOL    HW211067   2.278   0.514   0.942
 3501SOL     OW11068   3.000   0.380   1.678
 3501SOL    HW111069   2.955   0.443   1.742
 3501SOL    HW211070   3.093   0.411   1.661
 3502SOL     OW11071   3.022   0.207   1.477
 3502SOL    HW111072   3.022   0.271   1.554
 3502SOL    HW211073   3.050   0.255   1.394
 3503SOL     OW11074   1.870   1.326   0.200
 3503SOL    HW111075   1.777   1.347   0.169
 3503SOL    HW211076   1.880   1.227   0.213
 3504SOL     OW11077   1.950   1.801   0.927
 3504SOL    HW111078   1.908   1.715   0.900
 3504SOL    HW211079   2.044   1.804   0.893
 3505SOL     OW11080   2.366   1.568   0.910
 3505SOL    HW111081   2.432   1.642   0.919
 3505SOL    HW211082   2.410   1.489   0.868
 3506SOL     OW11083   2.864   0.796   1.238
 3506SOL    HW111084   2.905   0.764   1.324
 3506SOL    HW211085   2.768   0.769   1.235
 3507SOL     OW11086   1.902   0.544   1.114
 3507SOL    HW111087   1.987   0.511   1.073
 3507SOL    HW211088   1.915   0.559   1.212
 3508SOL     OW11089   2.051   0.520   1.722
 3508SOL    HW111090   2.110   0.480   1.652
 3508SOL    HW211091   1.993   0.591   1.681
 3509SOL     OW11092   3.231   0.950   1.660
 3509SOL    HW111093   3.270   1.039   1.680
 3509SOL    HW211094   3.241   0.930   1.563
 3510SOL     OW11095   2.677   0.572   0.325
 3510SOL    HW111096   2.684   0.483   0.279
 3510SOL    HW211097   2.583   0.606   0.317
 3511SOL     OW11098   3.519   0.604   1.206
 3511SOL    HW111099   3.481   0.535   1.268
 3511SOL    HW211100   3.601   0.568   1.162
 3512SOL     OW11101   2.114   1.564   1.744
 3512SOL    HW111102   2.084   1.621   1.820
 3512SOL    HW211103   2.107   1.467   1.770
 3513SOL     OW11104   2.533   0.464   1.269
 3513SOL    HW111105   2.499   0.375   1.239
 3513SOL    HW211106   2.559   0.518   1.189
 3514SOL     OW11107   2.792   1.678   1.465
 3514SOL    HW111108   2.768   1.660   1.370
 3514SOL    HW211109   2.822   1.772   1.475
 3515SOL     OW11110   2.335   0.500   0.191
 3515SOL    HW111111   2.396   0.580   0.195
 3515SOL    HW211112   2.240   0.531   0.198
 3516SOL     OW11113   2.021   1.137   1.466
 3516SOL    HW111114   2.043   1.076   1.542
 3516SOL    HW211115   2.031   1.088   1.380
 3517SOL     OW11116   3.209   1.059   1.234
 3517SOL    HW111117   3.233   0.996   1.160
 3517SOL    HW211118   3.119   1.099   1.216
 3518SOL     OW11119   3.164   0.855   0.309
 3518SOL    HW111120   3.078   0.824   0.351
 3518SOL    HW211121   3.160   0.841   0.210
 3519SOL     OW11122   3.621   1.747   1.154
 3519SOL    HW111123   3.682   1.777   1.081
 3519SOL    HW211124   3.583   1.658   1.132
 3520SOL     OW11125   3.114   1.731   1.128
 3520SOL    HW111126   3.198   1.736   1.074
 3520SOL    HW211127   3.091   1.635   1.146
 3521SOL     OW11128   1.945   1.258   1.022
 3521SOL    HW111129   1.940   1.257   1.122
 3521SOL    HW211130   1.862   1.217   0.984
 3522SOL     OW11131   2.550   1.662   1.716
 3522SOL    HW111132   2.494   1.743   1.725
 3522SOL    HW211133   2.602   1.666   1.630
 3523SOL     OW11134   2.765   0.086   0.133
 3523SOL    HW111135   2.816   0.087   0.047
 3523SOL    HW211136   2.821   0.044   0.204
 3524SOL     OW11137   3.588   0.135   0.523
 3524SOL    HW111138   3.661   0.118   0.456
 3524SOL    HW211139   3.557   0.048   0.561
 3525SOL     OW11140   3.250   1.573   0.477
 3525SOL    HW111141   3.317   1.585   0.403
 3525SOL    HW211142   3.210   1.662   0.500
 3526SOL     OW11143   1.992   1.794   1.851
 3526SOL    HW111144   1.951   1.720   1.904
 3526SOL    HW211145   2.056   1.845   1.909
 3527SOL     OW11146   3.142   0.927   0.672
 3527SOL    HW111147   3.202   0.846   0.674
 3527SOL    HW211148   3.182   0.996   0.612
 3528SOL     OW11149   2.692   1.273   1.422
 3528SOL    HW111150   2.687   1.306   1.517
 3528SOL    HW211151   2.606   1.292   1.376
 3529SOL     OW11152   2.534   1.616   0.154
 3529SOL    HW111153   2.543   1.626   0.055
 3529SOL    HW211154   2.494   1.527   0.175
 3530SOL     OW11155   3.512   1.720   1.394
 3530SOL    HW111156   3.565   1.730   1.310
 3530SOL    HW211157   3.485   1.810   1.428
 3531SOL     OW11158   3.703   0.175   0.963
 3531SOL    HW111159   3.742   0.090   0.927
 3531SOL    HW211160   3.605   0.177   0.944
 3532SOL     OW11161   2.125   0.326   0.720
 3532SOL    HW111162   2.046   0.377   0.686
 3532SOL    HW211163   2.116   0.311   0.818
 3533SOL     OW11164   3.056   1.612   0.031
 3533SOL    HW111165   3.062   1.519   0.068
 3533SOL    HW211166   2.997   1.612  -0.049
 3534SOL     OW11167   2.684   1.002   1.372
 3534SOL    HW111168   2.724   1.001   1.280
 3534SOL    HW211169   2.694   1.094   1.412
 3535SOL     OW11170   2.778   0.910   0.291
 3535SOL    HW111171   2.841   0.948   0.223
 3535SOL    HW211172   2.818   0.827   0.330
 3536SOL     OW11173   3.366   1.607   0.044
 3536SOL    HW111174   3.274   1.644   0.051
 3536SOL    HW211175   3.404   1.627  -0.046
 3537SOL     OW11176   2.234   1.288   1.490
 3537SOL    HW111177   2.221   1.381   1.456
 3537SOL    HW211178   2.150   1.236   1.477
 3538SOL     OW11179   3.476   1.292   1.289
 3538SOL    HW111180   3.536   1.295   1.369
 3538SOL    HW211181   3.401   1.356   1.302
 3539SOL     OW11182   2.901   1.098   0.696
 3539SOL    HW111183   2.831   1.051   0.750
 3539SOL    HW211184   2.960   1.030   0.653
 3540SOL     OW11185   2.876   0.236   0.971
 3540SOL    HW111186   2.868   0.200   0.878
 3540SOL    HW211187   2.874   0.160   1.036
 3541SOL     OW11188   2.452   1.487   0.491
 3541SOL    HW111189   2.494   1.429   0.421
 3541SOL    HW211190   2.408   1.566   0.447
 3542SOL     OW11191   3.571   0.385   1.381
 3542SOL    HW111192   3.644   0.454   1.385
 3542SOL    HW211193   3.599   0.310   1.322
 3543SOL     OW11194   2.117   1.348   0.290
 3543SOL    HW111195   2.021   1.349   0.263
 3543SOL    HW211196   2.129   1.401   0.374
 3544SOL     OW11197   1.967   1.013   1.726
 3544SOL    HW111198   1.890   0.980   1.780
 3544SOL    HW211199   2.052   0.983   1.768
 3545SOL     OW11200   2.534   0.203   1.489
 3545SOL    HW111201   2.624   0.187   1.449
 3545SOL    HW211202   2.542   0.208   1.588
 3546SOL     OW11203   1.937   0.345   0.033
 3546SOL    HW111204   1.845   0.317   0.004
 3546SOL    HW211205   1.968   0.422  -0.023
 3547SOL     OW11206   3.302   0.856   1.398
 3547SOL    HW111207   3.245   0.908   1.335
 3547SOL    HW211208   3.398   0.868   1.374
 3548SOL     OW11209   1.934   0.166   0.318
 3548SOL    HW111210   1.917   0.249   0.264
 3548SOL    HW211211   2.024   0.129   0.296
 3549SOL     OW11212   3.045   1.335   0.119
 3549SOL    HW111213   2.946   1.324   0.121
 3549SOL    HW211214   3.079   1.350   0.212
 3550SOL     OW11215   2.475   0.842   1.431
 3550SOL    HW111216   2.531   0.923   1.414
 3550SOL    HW211217   2.534   0.762   1.434
 3551SOL     OW11218   3.355   1.767   0.959
 3551SOL    HW111219   3.388   1.831   0.890
 3551SOL    HW211220   3.421   1.761   1.034
 3552SOL     OW11221   2.578   0.565   1.708
 3552SOL    HW111222   2.597   0.630   1.782
 3552SOL    HW211223   2.638   0.485   1.717
 3553SOL     OW11224   3.312   1.220   1.633
 3553SOL    HW111225   3.303   1.210   1.732
 3553SOL    HW211226   3.408   1.213   1.607
 3554SOL     OW11227   2.252   1.741   1.560
 3554SOL    HW111228   2.161   1.782   1.558
 3554SOL    HW211229   2.245   1.647   1.592
 3555SOL     OW11230   3.536   0.883   1.254
 3555SOL    HW111231   3.509   0.794   1.217
 3555SOL    HW211232   3.537   0.951   1.181
 3556SOL     OW11233   3.087   0.325   0.449
 3556SOL    HW111234   3.152   0.251   0.438
 3556SOL    HW211235   3.107   0.375   0.533
 3557SOL     OW11236   2.456   0.745   0.652
 3557SOL    HW111237   2.506   0.830   0.633
 3557SOL    HW211238   2.368   0.747   0.604
 3558SOL     OW11239   3.639   0.342   1.642
 3558SOL    HW111240   3.622   0.373   1.548
 3558SOL    HW211241   3.555   0.305   1.680
 3559SOL     OW11242   3.592   0.934   1.517
 3559SOL    HW111243   3.630   1.025   1.532
 3559SOL    HW211244   3.584   0.917   1.418
 3560SOL     OW11245   2.721   1.374   0.016
 3560SOL    HW111246   2.675   1.389   0.104
 3560SOL    HW211247   2.765   1.459  -0.014
 3561SOL     OW11248   2.523   1.790   0.953
 3561SOL    HW111249   2.477   1.878   0.940
 3561SOL    HW211250   2.622   1.802   0.946
 3562SOL     OW11251   2.721   0.956   0.861
 3562SOL    HW111252   2.775   0.887   0.909
 3562SOL    HW211253   2.689   1.025   0.927
 3563SOL     OW11254   2.945   0.984   0.087
 3563SOL    HW111255   2.922   1.037   0.005
 3563SOL    HW211256   3.026   0.928   0.068
 3564SOL     OW11257   3.723   1.569   0.851
 3564SOL    HW111258   3.652   1.557   0.781
 3564SOL    HW211259   3.724   1.490   0.911
 3565SOL     OW11260   2.083   1.314   1.844
 3565SOL    HW111261   2.018   1.241   1.823
 3565SOL    HW211262   2.087   1.328   1.942
 3566SOL     OW11263   1.941   1.240   0.653
 3566SOL    HW111264   1.940   1.193   0.741
 3566SOL    HW211265   2.023   1.212   0.602
 3567SOL     OW11266   2.534   1.391   1.624
 3567SOL    HW111267   2.456   1.341   1.662
 3567SOL    HW211268   2.531   1.486   1.655
 3568SOL     OW11269   3.686   0.192   1.227
 3568SOL    HW111270   3.682   0.102   1.271
 3568SOL    HW211271   3.689   0.181   1.128
 3569SOL     OW11272   2.290   0.424   0.520
 3569SOL    HW111273   2.320   0.352   0.458
 3569SOL    HW211274   2.251   0.384   0.603
 3570SOL     OW11275   3.567   1.487   1.104
 3570SOL    HW111276   3.474   1.462   1.077
 3570SOL    HW211277   3.593   1.437   1.186
 3571SOL     OW11278   2.179   0.547   1.280
 3571SOL    HW111279   2.217   0.488   1.352
 3571SOL    HW211280   2.219   0.521   1.192
 3572SOL     OW11281   2.674   1.586   0.687
 3572SOL    HW111282   2.706   1.596   0.593
 3572SOL    HW211283   2.595   1.524   0.689
 3573SOL     OW11284   3.286   0.214   1.112
 3573SOL    HW111285   3.338   0.149   1.167
 3573SOL    HW211286   3.237   0.277   1.173
 3574SOL     OW11287   2.863   0.034   1.154
 3574SOL    HW111288   2.800  -0.038   1.123
 3574SOL    HW211289   2.956  -0.002   1.154
 3575SOL     OW11290   2.632   1.330   0.301
 3575SOL    HW111291   2.586   1.243   0.318
 3575SOL    HW211292   2.723   1.327   0.342
 3576SOL     OW11293   2.480   1.567   1.284
 3576SOL    HW111294   2.475   1.649   1.341
 3576SOL    HW211295   2.569   1.564   1.239
 3577SOL     OW11296   3.214   0.052   0.168
 3577SOL    HW111297   3.249   0.011   0.084
 3577SOL    HW211298   3.124   0.014   0.188
 3578SOL     OW11299   3.162   0.453   0.691
 3578SOL    HW111300   3.103   0.533   0.695
 3578SOL    HW211301   3.177   0.418   0.784
 3579SOL     OW11302   3.455   0.221   0.882
 3579SOL    HW111303   3.371   0.220   0.936
 3579SOL    HW211304   3.457   0.304   0.826
 3580SOL     OW11305   1.901   1.077   0.300
 3580SOL    HW111306   2.000   1.066   0.291
 3580SOL    HW211307   1.861   0.991   0.332
 3581SOL     OW11308   2.737   1.646   0.337
 3581SOL    HW111309   2.660   1.611   0.283
 3581SOL    HW211310   2.705   1.717   0.399
 3582SOL     OW11311   2.092   0.628   1.975
 3582SOL    HW111312   1.999   0.626   2.012
 3582SOL    HW211313   2.093   0.589   1.883
 3583SOL     OW11314   2.087   0.275   2.858
 3583SOL    HW111315   2.122   0.258   2.950
 3583SOL    HW211316   1.999   0.230   2.846
 3584SOL     OW11317   1.881   0.368   2.509
 3584SOL    HW111318   1.799   0.411   2.548
 3584SOL    HW211319   1.853   0.295   2.446
 3585SOL     OW11320   2.431   1.275   3.027
 3585SOL    HW111321   2.338   1.268   2.990
 3585SOL    HW211322   2.442   1.364   3.071
 3586SOL     OW11323   3.417   1.511   2.565
 3586SOL    HW111324   3.360   1.495   2.646
 3586SOL    HW211325   3.358   1.521   2.485
 3587SOL     OW11326   2.997   0.703   2.579
 3587SOL    HW111327   3.054   0.781   2.554
 3587SOL    HW211328   2.937   0.729   2.655
 3588SOL     OW11329   3.617   0.607   2.093
 3588SOL    HW111330   3.605   0.594   1.994
 3588SOL    HW211331   3.587   0.526   2.142
 3589SOL     OW11332   2.630   1.144   2.885
 3589SOL    HW111333   2.552   1.161   2.945
 3589SOL    HW211334   2.664   1.231   2.849
 3590SOL     OW11335   2.712   0.798   3.685
 3590SOL    HW111336   2.708   0.874   3.750
 3590SOL    HW211337   2.734   0.834   3.594
 3591SOL     OW11338   2.547   1.012   2.527
 3591SOL    HW111339   2.616   0.996   2.597
 3591SOL    HW211340   2.474   1.069   2.565
 3592SOL     OW11341   2.548   1.161   3.665
 3592SOL    HW111342   2.608   1.240   3.679
 3592SOL    HW211343   2.462   1.192   3.624
 3593SOL     OW11344   2.197   1.435   2.923
 3593SOL    HW111345   2.119   1.404   2.870
 3593SOL    HW211346   2.255   1.493   2.866
 3594SOL     OW11347   3.322   1.505   3.201
 3594SOL    HW111348   3.346   1.599   3.227
 3594SOL    HW211349   3.306   1.451   3.283
 3595SOL     OW11350   2.300   0.392   3.361
 3595SOL    HW111351   2.382   0.336   3.370
 3595SOL    HW211352   2.219   0.334   3.365
 3596SOL     OW11353   3.465   0.447   2.599
 3596SOL    HW111354   3.391   0.493   2.549
 3596SOL    HW211355   3.516   0.515   2.652
 3597SOL     OW11356   2.093   1.713   2.345
 3597SOL    HW111357   2.127   1.790   2.399
 3597SOL    HW211358   2.137   1.713   2.255
 3598SOL     OW11359   2.989   1.341   3.552
 3598SOL    HW111360   3.036   1.341   3.640
 3598SOL    HW211361   2.941   1.254   3.541
 3599SOL     OW11362   2.092   1.434   2.400
 3599SOL    HW111363   2.066   1.530   2.400
 3599SOL    HW211364   2.021   1.380   2.445
 3600SOL     OW11365   2.102   1.091   2.748
 3600SOL    HW111366   2.116   1.007   2.800
 3600SOL    HW211367   2.047   1.155   2.803
 3601SOL     OW11368   2.482   1.786   3.301
 3601SOL    HW111369   2.390   1.769   3.336
 3601SOL    HW211370   2.510   1.878   3.327
 3602SOL     OW11371   2.468   0.964   1.985
 3602SOL    HW111372   2.475   1.048   1.931
 3602SOL    HW211373   2.514   0.977   2.073
 3603SOL     OW11374   3.456   0.114   3.342
 3603SOL    HW111375   3.438   0.181   3.270
 3603SOL    HW211376   3.453   0.160   3.431
 3604SOL     OW11377   1.984   0.643   2.425
 3604SOL    HW111378   1.939   0.555   2.442
 3604SOL    HW211379   1.983   0.697   2.509
 3605SOL     OW11380   3.704   1.767   2.221
 3605SOL    HW111381   3.758   1.738   2.301
 3605SOL    HW211382   3.734   1.857   2.192
 3606SOL     OW11383   1.889   1.596   1.979
 3606SOL    HW111384   1.870   1.500   2.000
 3606SOL    HW211385   1.856   1.654   2.054
 3607SOL     OW11386   3.551   0.922   2.474
 3607SOL    HW111387   3.646   0.893   2.482
 3607SOL    HW211388   3.543   0.987   2.399
 3608SOL     OW11389   3.503   1.108   2.294
 3608SOL    HW111390   3.589   1.110   2.242
 3608SOL    HW211391   3.517   1.155   2.382
 3609SOL     OW11392   1.975   0.737   3.459
 3609SOL    HW111393   2.063   0.724   3.504
 3609SOL    HW211394   1.962   0.834   3.437
 3610SOL     OW11395   2.475   1.365   2.588
 3610SOL    HW111396   2.426   1.278   2.597
 3610SOL    HW211397   2.452   1.408   2.501
 3611SOL     OW11398   3.155   1.228   3.285
 3611SOL    HW111399   3.192   1.155   3.227
 3611SOL    HW211400   3.207   1.233   3.370
 3612SOL     OW11401   2.671   0.004   2.364
 3612SOL    HW111402   2.711   0.095   2.355
 3612SOL    HW211403   2.571   0.012   2.370
 3613SOL     OW11404   2.059   0.976   3.126
 3613SOL    HW111405   2.148   0.931   3.112
 3613SOL    HW211406   1.986   0.911   3.107
 3614SOL     OW11407   3.387   0.999   2.052
 3614SOL    HW111408   3.324   0.923   2.065
 3614SOL    HW211409   3.435   1.017   2.138
 3615SOL     OW11410   3.049   1.792   3.478
 3615SOL    HW111411   3.073   1.852   3.402
 3615SOL    HW211412   3.056   1.697   3.448
 3616SOL     OW11413   2.179   0.251   3.663
 3616SOL    HW111414   2.250   0.322   3.669
 3616SOL    HW211415   2.091   0.290   3.691
 3617SOL     OW11416   3.328   1.417   2.815
 3617SOL    HW111417   3.269   1.423   2.895
 3617SOL    HW211418   3.313   1.329   2.769
 3618SOL     OW11419   3.529   1.714   2.434
 3618SOL    HW111420   3.488   1.691   2.346
 3618SOL    HW211421   3.511   1.640   2.499
 3619SOL     OW11422   2.460   0.729   2.132
 3619SOL    HW111423   2.484   0.798   2.064
 3619SOL    HW211424   2.382   0.762   2.186
 3620SOL     OW11425   3.143   0.345   2.806
 3620SOL    HW111426   3.057   0.295   2.793
 3620SOL    HW211427   3.205   0.291   2.862
 3621SOL     OW11428   3.438   1.662   2.169
 3621SOL    HW111429   3.527   1.708   2.172
 3621SOL    HW211430   3.417   1.638   2.074
 3622SOL     OW11431   2.669   0.605   3.327
 3622SOL    HW111432   2.622   0.602   3.416
 3622SOL    HW211433   2.618   0.550   3.261
 3623SOL     OW11434   3.256   0.469   3.536
 3623SOL    HW111435   3.236   0.512   3.624
 3623SOL    HW211436   3.334   0.407   3.545
 3624SOL     OW11437   2.835   0.890   3.434
 3624SOL    HW111438   2.881   0.806   3.405
 3624SOL    HW211439   2.779   0.924   3.359
 3625SOL     OW11440   2.853   0.410   3.104
 3625SOL    HW111441   2.776   0.444   3.158
 3625SOL    HW211442   2.819   0.359   3.025
 3626SOL     OW11443   2.903   0.701   2.291
 3626SOL    HW111444   2.929   0.697   2.387
 3626SOL    HW211445   2.818   0.650   2.277
 3627SOL     OW11446   1.938   0.811   2.651
 3627SOL    HW111447   2.037   0.799   2.660
 3627SOL    HW211448   1.914   0.906   2.672
 3628SOL     OW11449   2.727   0.348   2.057
 3628SOL    HW111450   2.786   0.411   2.008
 3628SOL    HW211451   2.746   0.254   2.028
 3629SOL     OW11452   3.581   0.585   3.693
 3629SOL    HW111453   3.555   0.674   3.657
 3629SOL    HW211454   3.579   0.517   3.620
 3630SOL     OW11455   3.224   1.144   2.407
 3630SOL    HW111456   3.307   1.115   2.359
 3630SOL    HW211457   3.175   1.211   2.351
 3631SOL     OW11458   2.412   0.196   2.747
 3631SOL    HW111459   2.407   0.191   2.847
 3631SOL    HW211460   2.414   0.292   2.718
 3632SOL     OW11461   2.870   1.456   2.339
 3632SOL    HW111462   2.824   1.528   2.287
 3632SOL    HW211463   2.866   1.476   2.437
 3633SOL     OW11464   2.213   1.801   2.715
 3633SOL    HW111465   2.263   1.715   2.721
 3633SOL    HW211466   2.278   1.878   2.712
 3634SOL     OW11467   3.657   1.066   2.735
 3634SOL    HW111468   3.595   1.051   2.659
 3634SOL    HW211469   3.605   1.077   2.820
 3635SOL     OW11470   3.089   1.550   3.368
 3635SOL    HW111471   3.095   1.473   3.432
 3635SOL    HW211472   3.037   1.524   3.288
 3636SOL     OW11473   2.183   0.943   2.104
 3636SOL    HW111474   2.265   0.982   2.062
 3636SOL    HW211475   2.156   0.861   2.055
 3637SOL     OW11476   3.320   0.735   2.590
 3637SOL    HW111477   3.315   0.670   2.665
 3637SOL    HW211478   3.400   0.794   2.603
 3638SOL     OW11479   2.323   1.266   3.589
 3638SOL    HW111480   2.273   1.267   3.503
 3638SOL    HW211481   2.260   1.248   3.665
 3639SOL     OW11482   2.973   1.776   2.099
 3639SOL    HW111483   2.913   1.714   2.149
 3639SOL    HW211484   3.004   1.732   2.014
 3640SOL     OW11485   2.064   0.285   3.360
 3640SOL    HW111486   1.984   0.345   3.347
 3640SOL    HW211487   2.054   0.236   3.446
 3641SOL     OW11488   3.494   1.377   1.943
 3641SOL    HW111489   3.462   1.471   1.933
 3641SOL    HW211490   3.418   1.314   1.931
 3642SOL     OW11491   2.326   1.743   2.185
 3642SOL    HW111492   2.359   1.782   2.271
 3642SOL    HW211493   2.402   1.736   2.120
 3643SOL     OW11494   3.262   0.107   2.288
 3643SOL    HW111495   3.238   0.070   2.198
 3643SOL    HW211496   3.361   0.123   2.292
 3644SOL     OW11497   2.111   1.785   3.103
 3644SOL    HW111498   2.168   1.720   3.153
 3644SOL    HW211499   2.095   1.752   3.010
 3645SOL     OW11500   2.802   1.698   2.766
 3645SOL    HW111501   2.882   1.641   2.787
 3645SOL    HW211502   2.753   1.658   2.689
 3646SOL     OW11503   2.244   0.700   2.342
 3646SOL    HW111504   2.289   0.610   2.339
 3646SOL    HW211505   2.150   0.689   2.375
 3647SOL     OW11506   3.409   0.222   3.591
 3647SOL    HW111507   3.404   0.259   3.683
 3647SOL    HW211508   3.337   0.153   3.579
 3648SOL     OW11509   2.476   0.122   1.979
 3648SOL    HW111510   2.574   0.100   1.986
 3648SOL    HW211511   2.445   0.105   1.886
 3649SOL     OW11512   2.643   0.264   3.611
 3649SOL    HW111513   2.710   0.203   3.654
 3649SOL    HW211514   2.570   0.283   3.676
 3650SOL     OW11515   2.750   1.514   3.057
 3650SOL    HW111516   2.727   1.489   2.963
 3650SOL    HW211517   2.811   1.445   3.096
 3651SOL     OW11518   3.213   0.590   3.295
 3651SOL    HW111519   3.241   0.547   3.380
 3651SOL    HW211520   3.238   0.686   3.296
 3652SOL     OW11521   2.665   1.402   2.786
 3652SOL    HW111522   2.755   1.416   2.744
 3652SOL    HW211523   2.594   1.404   2.715
 3653SOL     OW11524   2.784   0.503   2.761
 3653SOL    HW111525   2.759   0.494   2.665
 3653SOL    HW211526   2.832   0.421   2.792
 3654SOL     OW11527   2.401   0.064   2.374
 3654SOL    HW111528   2.320   0.065   2.432
 3654SOL    HW211529   2.404   0.147   2.319
 3655SOL     OW11530   3.296   1.188   1.903
 3655SOL    HW111531   3.328   1.112   1.960
 3655SOL    HW211532   3.204   1.215   1.933
 3656SOL     OW11533   2.159   0.035   2.033
 3656SOL    HW111534   2.208   0.119   2.012
 3656SOL    HW211535   2.221  -0.030   2.078
 3657SOL     OW11536   2.797   0.236   2.342
 3657SOL    HW111537   2.749   0.277   2.264
 3657SOL    HW211538   2.896   0.234   2.323
 3658SOL     OW11539   2.938   0.683   3.326
 3658SOL    HW111540   2.858   0.622   3.329
 3658SOL    HW211541   3.019   0.630   3.302
 3659SOL     OW11542   3.089   1.570   2.655
 3659SOL    HW111543   3.110   1.644   2.590
 3659SOL    HW211544   3.157   1.570   2.728
 3660SOL     OW11545   2.321   1.152   2.603
 3660SOL    HW111546   2.250   1.125   2.668
 3660SOL    HW211547   2.295   1.124   2.510
 3661SOL     OW11548   3.133   1.797   2.453
 3661SOL    HW111549   3.177   1.861   2.389
 3661SOL    HW211550   3.083   1.849   2.523
 3662SOL     OW11551   2.894   0.549   1.878
 3662SOL    HW111552   2.853   0.631   1.839
 3662SOL    HW211553   2.958   0.575   1.951
 3663SOL     OW11554   1.940   0.556   3.248
 3663SOL    HW111555   2.032   0.555   3.207
 3663SOL    HW211556   1.934   0.630   3.315
 3664SOL     OW11557   2.423   0.222   3.009
 3664SOL    HW111558   2.461   0.138   3.046
 3664SOL    HW211559   2.335   0.241   3.053
 3665SOL     OW11560   2.728   0.454   2.504
 3665SOL    HW111561   2.696   0.526   2.442
 3665SOL    HW211562   2.752   0.373   2.451
 3666SOL     OW11563   2.879   0.039   2.615
 3666SOL    HW111564   2.807   0.044   2.546
 3666SOL    HW211565   2.855  -0.030   2.684
 3667SOL     OW11566   3.291   1.173   2.729
 3667SOL    HW111567   3.236   1.089   2.722
 3667SOL    HW211568   3.317   1.202   2.637
 3668SOL     OW11569   3.328   0.590   2.854
 3668SOL    HW111570   3.298   0.495   2.861
 3668SOL    HW211571   3.401   0.606   2.920
 3669SOL     OW11572   3.719   0.833   2.239
 3669SOL    HW111573   3.761   0.769   2.303
 3669SOL    HW211574   3.681   0.782   2.161
 3670SOL     OW11575   2.350   1.385   2.036
 3670SOL    HW111576   2.263   1.370   2.083
 3670SOL    HW211577   2.333   1.411   1.941
 3671SOL     OW11578   3.526   1.280   2.519
 3671SOL    HW111579   3.625   1.288   2.533
 3671SOL    HW211580   3.481   1.364   2.550
 3672SOL     OW11581   3.252   0.575   1.940
 3672SOL    HW111582   3.198   0.554   2.021
 3672SOL    HW211583   3.343   0.534   1.949
 3673SOL     OW11584   2.389   0.256   2.190
 3673SOL    HW111585   2.416   0.197   2.115
 3673SOL    HW211586   2.389   0.351   2.159
 3674SOL     OW11587   3.616   1.223   3.450
 3674SOL    HW111588   3.707   1.184   3.437
 3674SOL    HW211589   3.624   1.319   3.474
 3675SOL     OW11590   2.926   1.347   3.202
 3675SOL    HW111591   2.846   1.324   3.257
 3675SOL    HW211592   3.009   1.321   3.251
 3676SOL     OW11593   3.454   1.629   3.487
 3676SOL    HW111594   3.481   1.663   3.397
 3676SOL    HW211595   3.533   1.591   3.533
 3677SOL     OW11596   2.973   1.195   2.962
 3677SOL    HW111597   2.933   1.239   3.043
 3677SOL    HW211598   2.932   1.232   2.879
 3678SOL     OW11599   3.500   1.099   2.941
 3678SOL    HW111600   3.505   1.180   3.000
 3678SOL    HW211601   3.414   1.101   2.890
 3679SOL     OW11602   2.777   0.089   3.264
 3679SOL    HW111603   2.802   0.069   3.169
 3679SOL    HW211604   2.849   0.145   3.306
 3680SOL     OW11605   2.842   1.116   3.581
 3680SOL    HW111606   2.743   1.122   3.591
 3680SOL    HW211607   2.865   1.036   3.525
 3681SOL     OW11608   2.567   1.050   2.230
 3681SOL    HW111609   2.553   1.057   2.329
 3681SOL    HW211610   2.651   0.999   2.212
 3682SOL     OW11611   2.272   0.813   3.113
 3682SOL    HW111612   2.358   0.825   3.163
 3682SOL    HW211613   2.230   0.726   3.140
 3683SOL     OW11614   3.136   0.386   3.124
 3683SOL    HW111615   3.157   0.460   3.188
 3683SOL    HW211616   3.047   0.403   3.081
 3684SOL     OW11617   1.926   1.564   3.193
 3684SOL    HW111618   1.880   1.646   3.159
 3684SOL    HW211619   2.024   1.583   3.202
 3685SOL     OW11620   2.229   1.100   2.363
 3685SOL    HW111621   2.222   1.183   2.307
 3685SOL    HW211622   2.233   1.020   2.303
 3686SOL     OW11623   2.428   0.537   2.727
 3686SOL    HW111624   2.440   0.603   2.653
 3686SOL    HW211625   2.474   0.571   2.810
 3687SOL     OW11626   3.114   1.348   2.250
 3687SOL    HW111627   3.164   1.425   2.290
 3687SOL    HW211628   3.019   1.350   2.282
 3688SOL     OW11629   3.134   1.445   3.004
 3688SOL    HW111630   3.181   1.458   3.091
 3688SOL    HW211631   3.068   1.371   3.013
 3689SOL     OW11632   3.444   0.639   2.334
 3689SOL    HW111633   3.413   0.700   2.407
 3689SOL    HW211634   3.494   0.691   2.265
 3690SOL     OW11635   2.216   1.510   3.191
 3690SOL    HW111636   2.195   1.466   3.104
 3690SOL    HW211637   2.313   1.536   3.194
 3691SOL     OW11638   2.264   0.751   3.460
 3691SOL    HW111639   2.332   0.806   3.413
 3691SOL    HW211640   2.304   0.663   3.487
 3692SOL     OW11641   3.449   0.779   3.532
 3692SOL    HW111642   3.357   0.817   3.527
 3692SOL    HW211643   3.509   0.826   3.467
 3693SOL     OW11644   2.875   0.105   3.632
 3693SOL    HW111645   2.881   0.190   3.580
 3693SOL    HW211646   2.907   0.029   3.575
 3694SOL     OW11647   2.366   0.050   3.602
 3694SOL    HW111648   2.324  -0.007   3.532
 3694SOL    HW211649   2.300   0.119   3.634
 3695SOL     OW11650   2.435   0.870   2.891
 3695SOL    HW111651   2.479   0.959   2.882
 3695SOL    HW211652   2.372   0.870   2.968
 3696SOL     OW11653   3.222   0.862   2.907
 3696SOL    HW111654   3.147   0.862   2.841
 3696SOL    HW211655   3.259   0.770   2.916
 3697SOL     OW11656   3.071   0.525   2.137
 3697SOL    HW111657   3.084   0.441   2.191
 3697SOL    HW211658   3.042   0.599   2.197
 3698SOL     OW11659   2.169   0.213   3.093
 3698SOL    HW111660   2.146   0.250   3.183
 3698SOL    HW211661   2.139   0.118   3.087
 3699SOL     OW11662   1.899   1.310   3.144
 3699SOL    HW111663   1.952   1.261   3.212
 3699SOL    HW211664   1.921   1.408   3.149
 3700SOL     OW11665   2.594   0.634   2.926
 3700SOL    HW111666   2.653   0.608   2.850
 3700SOL    HW211667   2.566   0.730   2.915
 3701SOL     OW11668   3.590   0.935   3.716
 3701SOL    HW111669   3.544   0.928   3.627
 3701SOL    HW211670   3.528   0.979   3.782
 3702SOL     OW11671   2.169   0.063   2.480
 3702SOL    HW111672   2.158   0.157   2.513
 3702SOL    HW211673   2.164   0.000   2.557
 3703SOL     OW11674   3.484   0.367   2.236
 3703SOL    HW111675   3.486   0.291   2.300
 3703SOL    HW211676   3.436   0.444   2.276
 3704SOL     OW11677   2.885   0.766   2.828
 3704SOL    HW111678   2.900   0.787   2.924
 3704SOL    HW211679   2.855   0.671   2.819
 3705SOL     OW11680   2.842   1.573   3.562
 3705SOL    HW111681   2.822   1.617   3.474
 3705SOL    HW211682   2.881   1.482   3.546
 3706SOL     OW11683   3.721   1.518   3.467
 3706SOL    HW111684   3.735   1.545   3.372
 3706SOL    HW211685   3.804   1.540   3.520
 3707SOL     OW11686   2.212   0.898   3.666
 3707SOL    HW111687   2.288   0.942   3.714
 3707SOL    HW211688   2.247   0.851   3.584
 3708SOL     OW11689   3.402   0.274   1.987
 3708SOL    HW111690   3.341   0.199   2.010
 3708SOL    HW211691   3.424   0.326   2.070
 3709SOL     OW11692   3.165   0.838   1.904
 3709SOL    HW111693   3.199   0.745   1.919
 3709SOL    HW211694   3.183   0.865   1.809
 3710SOL     OW11695   2.930   1.333   2.711
 3710SOL    HW111696   2.937   1.249   2.656
 3710SOL    HW211697   2.992   1.402   2.675
 3711SOL     OW11698   2.181   0.810   2.811
 3711SOL    HW111699   2.274   0.846   2.816
 3711SOL    HW211700   2.175   0.725   2.863
 3712SOL     OW11701   2.201   0.509   2.868
 3712SOL    HW111702   2.149   0.426   2.851
 3712SOL    HW211703   2.278   0.514   2.804
 3713SOL     OW11704   3.000   0.380   3.540
 3713SOL    HW111705   2.955   0.443   3.604
 3713SOL    HW211706   3.093   0.411   3.523
 3714SOL     OW11707   3.022   0.207   3.339
 3714SOL    HW111708   3.022   0.271   3.416
 3714SOL    HW211709   3.050   0.255   3.256
 3715SOL     OW11710   1.870   1.326   2.062
 3715SOL    HW111711   1.777   1.347   2.031
 3715SOL    HW211712   1.880   1.227   2.075
 3716SOL     OW11713   1.950   1.801   2.789
 3716SOL    HW111714   1.908   1.715   2.762
 3716SOL    HW211715   2.044   1.804   2.755
 3717SOL     OW11716   2.366   1.568   2.772
 3717SOL    HW111717   2.432   1.642   2.781
 3717SOL    HW211718   2.410   1.489   2.730
 3718SOL     OW11719   2.864   0.796   3.100
 3718SOL    HW111720   2.905   0.764   3.186
 3718SOL    HW211721   2.768   0.769   3.097
 3719SOL     OW11722   1.902   0.544   2.976
 3719SOL    HW111723   1.987   0.511   2.935
 3719SOL    HW211724   1.915   0.559   3.074
 3720SOL     OW11725   2.051   0.520   3.584
 3720SOL    HW111726   2.110   0.480   3.514
 3720SOL    HW211727   1.993   0.591   3.543
 3721SOL     OW11728   3.231   0.950   3.522
 3721SOL    HW111729   3.270   1.039   3.542
 3721SOL    HW211730   3.241   0.930   3.425
 3722SOL     OW11731   2.677   0.572   2.187
 3722SOL    HW111732   2.684   0.483   2.141
 3722SOL    HW211733   2.583   0.606   2.179
 3723SOL     OW11734   3.519   0.604   3.068
 3723SOL    HW111735   3.481   0.535   3.130
 3723SOL    HW211736   3.601   0.568   3.024
 3724SOL     OW11737   2.114   1.564   3.606
 3724SOL    HW111738   2.084   1.621   3.682
 3724SOL    HW211739   2.107   1.467   3.632
 3725SOL     OW11740   2.533   0.464   3.131
 3725SOL    HW111741   2.499   0.375   3.101
 3725SOL    HW211742   2.559   0.518   3.051
 3726SOL     OW11743   2.792   1.678   3.327
 3726SOL    HW111744   2.768   1.660   3.232
 3726SOL    HW211745   2.822   1.772   3.337
 3727SOL     OW11746   2.335   0.500   2.053
 3727SOL    HW111747   2.396   0.580   2.057
 3727SOL    HW211748   2.240   0.531   2.060
 3728SOL     OW11749   2.021   1.137   3.328
 3728SOL    HW111750   2.043   1.076   3.404
 3728SOL    HW211751   2.031   1.088   3.242
 3729SOL     OW11752   3.209   1.059   3.096
 3729SOL    HW111753   3.233   0.996   3.022
 3729SOL    HW211754   3.119   1.099   3.078
 3730SOL     OW11755   3.164   0.855   2.171
 3730SOL    HW111756   3.078   0.824   2.213
 3730SOL    HW211757   3.160   0.841   2.072
 3731SOL     OW11758   3.621   1.747   3.016
 3731SOL    HW111759   3.682   1.777   2.943
 3731SOL    HW211760   3.583   1.658   2.994
 3732SOL     OW11761   3.114   1.731   2.990
 3732SOL    HW111762   3.198   1.736   2.936
 3732SOL    HW211763   3.091   1.635   3.008
 3733SOL     OW11764   1.945   1.258   2.884
 3733SOL    HW111765   1.940   1.257   2.984
 3733SOL    HW211766   1.862   1.217   2.846
 3734SOL     OW11767   2.550   1.662   3.578
 3734SOL    HW111768   2.494   1.743   3.587
 3734SOL    HW211769   2.602   1.666   3.492
 3735SOL     OW11770   3.588   0.135   2.385
 3735SOL    HW111771   3.661   0.118   2.318
 3735SOL    HW211772   3.557   0.048   2.423
 3736SOL     OW11773   3.250   1.573   2.339
 3736SOL    HW111774   3.317   1.585   2.265
 3736SOL    HW211775   3.210   1.662   2.362
 3737SOL     OW11776   1.992   1.794   3.713
 3737SOL    HW111777   1.951   1.720   3.766
 3737SOL    HW211778   2.056   1.845   3.771
 3738SOL     OW11779   3.142   0.927   2.534
 3738SOL    HW111780   3.202   0.846   2.536
 3738SOL    HW211781   3.182   0.996   2.474
 3739SOL     OW11782   2.692   1.273   3.284
 3739SOL    HW111783   2.687   1.306   3.379
 3739SOL    HW211784   2.606   1.292   3.238
 3740SOL     OW11785   2.534   1.616   2.016
 3740SOL    HW111786   2.543   1.626   1.917
 3740SOL    HW211787   2.494   1.527   2.037
 3741SOL     OW11788   3.512   1.720   3.256
 3741SOL    HW111789   3.565   1.730   3.172
 3741SOL    HW211790   3.485   1.810   3.290
 3742SOL     OW11791   3.703   0.175   2.825
 3742SOL    HW111792   3.742   0.090   2.789
 3742SOL    HW211793   3.605   0.177   2.806
 3743SOL     OW11794   2.125   0.326   2.582
 3743SOL    HW111795   2.046   0.377   2.548
 3743SOL    HW211796   2.116   0.311   2.680
 3744SOL     OW11797   3.056   1.612   1.893
 3744SOL    HW111798   3.062   1.519   1.930
 3744SOL    HW211799   2.997   1.612   1.813
 3745SOL     OW11800   2.684   1.002   3.234
 3745SOL    HW111801   2.724   1.001   3.142
 3745SOL    HW211802   2.694   1.094   3.274
 3746SOL     OW11803   2.778   0.910   2.153
 3746SOL    HW111804   2.841   0.948   2.085
 3746SOL    HW211805   2.818   0.827   2.192
 3747SOL     OW11806   3.366   1.607   1.906
 3747SOL    HW111807   3.274   1.644   1.913
 3747SOL    HW211808   3.404   1.627   1.816
 3748SOL     OW11809   2.234   1.288   3.352
 3748SOL    HW111810   2.221   1.381   3.318
 3748SOL    HW211811   2.150   1.236   3.339
 3749SOL     OW11812   3.476   1.292   3.151
 3749SOL    HW111813   3.536   1.295   3.231
 3749SOL    HW211814   3.401   1.356   3.164
 3750SOL     OW11815   2.901   1.098   2.558
 3750SOL    HW111816   2.831   1.051   2.612
 3750SOL    HW211817   2.960   1.030   2.515
 3751SOL     OW11818   2.876   0.236   2.833
 3751SOL    HW111819   2.868   0.200   2.740
 3751SOL    HW211820   2.874   0.160   2.898
 3752SOL     OW11821   2.452   1.487   2.353
 3752SOL    HW111822   2.494   1.429   2.283
 3752SOL    HW211823   2.408   1.566   2.309
 3753SOL     OW11824   3.571   0.385   3.243
 3753SOL    HW111825   3.644   0.454   3.247
 3753SOL    HW211826   3.599   0.310   3.184
 3754SOL     OW11827   2.117   1.348   2.152
 3754SOL    HW111828   2.021   1.349   2.125
 3754SOL    HW211829   2.129   1.401   2.236
 3755SOL     OW11830   1.967   1.013   3.588
 3755SOL    HW111831   1.890   0.980   3.642
 3755SOL    HW211832   2.052   0.983   3.630
 3756SOL     OW11833   2.534   0.203   3.351
 3756SOL    HW111834   2.624   0.187   3.311
 3756SOL    HW211835   2.542   0.208   3.450
 3757SOL     OW11836   1.937   0.345   1.895
 3757SOL    HW111837   1.845   0.317   1.866
 3757SOL    HW211838   1.968   0.422   1.839
 3758SOL     OW11839   3.302   0.856   3.260
 3758SOL    HW111840   3.245   0.908   3.197
 3758SOL    HW211841   3.398   0.868   3.236
 3759SOL     OW11842   1.934   0.166   2.180
 3759SOL    HW111843   1.917   0.249   2.126
 3759SOL    HW211844   2.024   0.129   2.158
 3760SOL     OW11845   3.045   1.335   1.981
 3760SOL    HW111846   2.946   1.324   1.983
 3760SOL    HW211847   3.079   1.350   2.074
 3761SOL     OW11848   2.475   0.842   3.293
 3761SOL    HW111849   2.531   0.923   3.276
 3761SOL    HW211850   2.534   0.762   3.296
 3762SOL     OW11851   3.355   1.767   2.821
 3762SOL    HW111852   3.388   1.831   2.752
 3762SOL    HW211853   3.421   1.761   2.896
 3763SOL     OW11854   2.578   0.565   3.570
 3763SOL    HW111855   2.597   0.630   3.644
 3763SOL    HW211856   2.638   0.485   3.579
 3764SOL     OW11857   3.312   1.220   3.495
 3764SOL    HW111858   3.303   1.210   3.594
 3764SOL    HW211859   3.408   1.213   3.469
 3765SOL     OW11860   2.252   1.741   3.422
 3765SOL    HW111861   2.161   1.782   3.420
 3765SOL    HW211862   2.245   1.647   3.454
 3766SOL     OW11863   3.536   0.883   3.116
 3766SOL    HW111864   3.509   0.794   3.079
 3766SOL    HW211865   3.537   0.951   3.043
 3767SOL     OW11866   3.087   0.325   2.311
 3767SOL    HW111867   3.152   0.251   2.300
 3767SOL    HW211868   3.107   0.375   2.395
 3768SOL     OW11869   2.456   0.745   2.514
 3768SOL    HW111870   2.506   0.830   2.495
 3768SOL    HW211871   2.368   0.747   2.466
 3769SOL     OW11872   3.639   0.342   3.504
 3769SOL    HW111873   3.622   0.373   3.410
 3769SOL    HW211874   3.555   0.305   3.542
 3770SOL     OW11875   3.592   0.934   3.379
 3770SOL    HW111876   3.630   1.025   3.394
 3770SOL    HW211877   3.584   0.917   3.280
 3771SOL     OW11878   2.721   1.374   1.878
 3771SOL    HW111879   2.675   1.389   1.966
 3771SOL    HW211880   2.765   1.459   1.848
 3772SOL     OW11881   2.523   1.790   2.815
 3772SOL    HW111882   2.477   1.878   2.802
 3772SOL    HW211883   2.622   1.802   2.808
 3773SOL     OW11884   2.721   0.956   2.723
 3773SOL    HW111885   2.775   0.887   2.771
 3773SOL    HW211886   2.689   1.025   2.789
 3774SOL     OW11887   2.945   0.984   1.949
 3774SOL    HW111888   2.922   1.037   1.867
 3774SOL    HW211889   3.026   0.928   1.930
 3775SOL     OW11890   3.723   1.569   2.713
 3775SOL    HW111891   3.652   1.557   2.643
 3775SOL    HW211892   3.724   1.490   2.773
 3776SOL     OW11893   2.083   1.314   3.706
 3776SOL    HW111894   2.018   1.241   3.685
 3776SOL    HW211895   2.087   1.328   3.804
 3777SOL     OW11896   1.941   1.240   2.515
 3777SOL    HW111897   1.940   1.193   2.603
 3777SOL    HW211898   2.023   1.212   2.464
 3778SOL     OW11899   2.534   1.391   3.486
 3778SOL    HW111900   2.456   1.341   3.524
 3778SOL    HW211901   2.531   1.486   3.517
 3779SOL     OW11902   3.686   0.192   3.089
 3779SOL    HW111903   3.682   0.102   3.133
 3779SOL    HW211904   3.689   0.181   2.990
 3780SOL     OW11905   2.290   0.424   2.382
 3780SOL    HW111906   2.320   0.352   2.320
 3780SOL    HW211907   2.251   0.384   2.465
 3781SOL     OW11908   3.567   1.487   2.966
 3781SOL    HW111909   3.474   1.462   2.939
 3781SOL    HW211910   3.593   1.437   3.048
 3782SOL     OW11911   2.179   0.547   3.142
 3782SOL    HW111912   2.217   0.488   3.214
 3782SOL    HW211913   2.219   0.521   3.054
 3783SOL     OW11914   2.674   1.586   2.549
 3783SOL    HW111915   2.706   1.596   2.455
 3783SOL    HW211916   2.595   1.524   2.551
 3784SOL     OW11917   3.286   0.214   2.974
 3784SOL    HW111918   3.338   0.149   3.029
 3784SOL    HW211919   3.237   0.277   3.035
 3785SOL     OW11920   2.863   0.034   3.016
 3785SOL    HW111921   2.800  -0.038   2.985
 3785SOL    HW211922   2.956  -0.002   3.016
 3786SOL     OW11923   2.632   1.330   2.163
 3786SOL    HW111924   2.586   1.243   2.180
 3786SOL    HW211925   2.723   1.327   2.204
 3787SOL     OW11926   2.480   1.567   3.146
 3787SOL    HW111927   2.475   1.649   3.203
 3787SOL    HW211928   2.569   1.564   3.101
 3788SOL     OW11929   3.214   0.052   2.030
 3788SOL    HW111930   3.249   0.011   1.946
 3788SOL    HW211931   3.124   0.014   2.050
 3789SOL     OW11932   3.162   0.453   2.553
 3789SOL    HW111933   3.103   0.533   2.557
 3789SOL    HW211934   3.177   0.418   2.646
 3790SOL     OW11935   3.455   0.221   2.744
 3790SOL    HW111936   3.371   0.220   2.798
 3790SOL    HW211937   3.457   0.304   2.688
 3791SOL     OW11938   1.901   1.077   2.162
 3791SOL    HW111939   2.000   1.066   2.153
 3791SOL    HW211940   1.861   0.991   2.194
 3792SOL     OW11941   2.737   1.646   2.199
 3792SOL    HW111942   2.660   1.611   2.145
 3792SOL    HW211943   2.705   1.717   2.261
 3793SOL     OW11944   2.092   0.628   3.837
 3793SOL    HW111945   1.999   0.626   3.874
 3793SOL    HW211946   2.093   0.589   3.745
 3794SOL     OW11947   2.087   0.275   4.720
 3794SOL    HW111948   2.122   0.258   4.812
 3794SOL    HW211949   1.999   0.230   4.708
 3795SOL     OW11950   1.881   0.368   4.371
 3795SOL    HW111951   1.799   0.411   4.410
 3795SOL    HW211952   1.853   0.295   4.308
 3796SOL     OW11953   2.431   1.275   4.889
 3796SOL    HW111954   2.338   1.268   4.852
 3796SOL    HW211955   2.442   1.364   4.933
 3797SOL     OW11956   3.417   1.511   4.427
 3797SOL    HW111957   3.360   1.495   4.508
 3797SOL    HW211958   3.358   1.521   4.347
 3798SOL     OW11959   2.997   0.703   4.441
 3798SOL    HW111960   3.054   0.781   4.416
 3798SOL    HW211961   2.937   0.729   4.517
 3799SOL     OW11962   3.617   0.607   3.955
 3799SOL    HW111963   3.605   0.594   3.856
 3799SOL    HW211964   3.587   0.526   4.004
 3800SOL     OW11965   2.630   1.144   4.747
 3800SOL    HW111966   2.552   1.161   4.807
 3800SOL    HW211967   2.664   1.231   4.711
 3801SOL     OW11968   2.712   0.798   5.547
 3801SOL    HW111969   2.708   0.874   5.612
 3801SOL    HW211970   2.734   0.834   5.456
 3802SOL     OW11971   2.547   1.012   4.389
 3802SOL    HW111972   2.616   0.996   4.459
 3802SOL    HW211973   2.474   1.069   4.427
 3803SOL     OW11974   2.548   1.161   5.527
 3803SOL    HW111975   2.608   1.240   5.541
 3803SOL    HW211976   2.462   1.192   5.486
 3804SOL     OW11977   2.197   1.435   4.785
 3804SOL    HW111978   2.119   1.404   4.732
 3804SOL    HW211979   2.255   1.493   4.728
 3805SOL     OW11980   3.322   1.505   5.063
 3805SOL    HW111981   3.346   1.599   5.089
 3805SOL    HW211982   3.306   1.451   5.145
 3806SOL     OW11983   2.300   0.392   5.223
 3806SOL    HW111984   2.382   0.336   5.232
 3806SOL    HW211985   2.219   0.334   5.227
 3807SOL     OW11986   3.465   0.447   4.461
 3807SOL    HW111987   3.391   0.493   4.411
 3807SOL    HW211988   3.516   0.515   4.514
 3808SOL     OW11989   2.093   1.713   4.207
 3808SOL    HW111990   2.127   1.790   4.261
 3808SOL    HW211991   2.137   1.713   4.117
 3809SOL     OW11992   2.989   1.341   5.414
 3809SOL    HW111993   3.036   1.341   5.502
 3809SOL    HW211994   2.941   1.254   5.403
 3810SOL     OW11995   2.092   1.434   4.262
 3810SOL    HW111996   2.066   1.530   4.262
 3810SOL    HW211997   2.021   1.380   4.307
 3811SOL     OW11998   2.102   1.091   4.610
 3811SOL    HW111999   2.116   1.007   4.662
 3811SOL    HW212000   2.047   1.155   4.665
 3812SOL     OW12001   2.482   1.786   5.163
 3812SOL    HW112002   2.390   1.769   5.198
 3812SOL    HW212003   2.510   1.878   5.189
 3813SOL     OW12004   2.468   0.964   3.847
 3813SOL    HW112005   2.475   1.048   3.793
 3813SOL    HW212006   2.514   0.977   3.935
 3814SOL     OW12007   3.456   0.114   5.204
 3814SOL    HW112008   3.438   0.181   5.132
 3814SOL    HW212009   3.453   0.160   5.293
 3815SOL     OW12010   1.984   0.643   4.287
 3815SOL    HW112011   1.939   0.555   4.304
 3815SOL    HW212012   1.983   0.697   4.371
 3816SOL     OW12013   3.704   1.767   4.083
 3816SOL    HW112014   3.758   1.738   4.163
 3816SOL    HW212015   3.734   1.857   4.054
 3817SOL     OW12016   1.889   1.596   3.841
 3817SOL    HW112017   1.870   1.500   3.862
 3817SOL    HW212018   1.856   1.654   3.916
 3818SOL     OW12019   3.551   0.922   4.336
 3818SOL    HW112020   3.646   0.893   4.344
 3818SOL    HW212021   3.543   0.987   4.261
 3819SOL     OW12022   3.503   1.108   4.156
 3819SOL    HW112023   3.589   1.110   4.104
 3819SOL    HW212024   3.517   1.155   4.244
 3820SOL     OW12025   1.975   0.737   5.321
 3820SOL    HW112026   2.063   0.724   5.366
 3820SOL    HW212027   1.962   0.834   5.299
 3821SOL     OW12028   2.475   1.365   4.450
 3821SOL    HW112029   2.426   1.278   4.459
 3821SOL    HW212030   2.452   1.408   4.363
 3822SOL     OW12031   3.155   1.228   5.147
 3822SOL    HW112032   3.192   1.155   5.089
 3822SOL    HW212033   3.207   1.233   5.232
 3823SOL     OW12034   2.671   0.004   4.226
 3823SOL    HW112035   2.711   0.095   4.217
 3823SOL    HW212036   2.571   0.012   4.232
 3824SOL     OW12037   2.059   0.976   4.988
 3824SOL    HW112038   2.148   0.931   4.974
 3824SOL    HW212039   1.986   0.911   4.969
 3825SOL     OW12040   3.387   0.999   3.914
 3825SOL    HW112041   3.324   0.923   3.927
 3825SOL    HW212042   3.435   1.017   4.000
 3826SOL     OW12043   3.049   1.792   5.340
 3826SOL    HW112044   3.073   1.852   5.264
 3826SOL    HW212045   3.056   1.697   5.310
 3827SOL     OW12046   2.179   0.251   5.525
 3827SOL    HW112047   2.250   0.322   5.531
 3827SOL    HW212048   2.091   0.290   5.553
 3828SOL     OW12049   3.328   1.417   4.677
 3828SOL    HW112050   3.269   1.423   4.757
 3828SOL    HW212051   3.313   1.329   4.631
 3829SOL     OW12052   3.529   1.714   4.296
 3829SOL    HW112053   3.488   1.691   4.208
 3829SOL    HW212054   3.511   1.640   4.361
 3830SOL     OW12055   2.460   0.729   3.994
 3830SOL    HW112056   2.484   0.798   3.926
 3830SOL    HW212057   2.382   0.762   4.048
 3831SOL     OW12058   3.143   0.345   4.668
 3831SOL    HW112059   3.057   0.295   4.655
 3831SOL    HW212060   3.205   0.291   4.724
 3832SOL     OW12061   3.438   1.662   4.031
 3832SOL    HW112062   3.527   1.708   4.034
 3832SOL    HW212063   3.417   1.638   3.936
 3833SOL     OW12064   2.669   0.605   5.189
 3833SOL    HW112065   2.622   0.602   5.278
 3833SOL    HW212066   2.618   0.550   5.123
 3834SOL     OW12067   3.256   0.469   5.398
 3834SOL    HW112068   3.236   0.512   5.486
 3834SOL    HW212069   3.334   0.407   5.407
 3835SOL     OW12070   2.835   0.890   5.296
 3835SOL    HW112071   2.881   0.806   5.267
 3835SOL    HW212072   2.779   0.924   5.221
 3836SOL     OW12073   2.853   0.410   4.966
 3836SOL    HW112074   2.776   0.444   5.020
 3836SOL    HW212075   2.819   0.359   4.887
 3837SOL     OW12076   2.903   0.701   4.153
 3837SOL    HW112077   2.929   0.697   4.249
 3837SOL    HW212078   2.818   0.650   4.139
 3838SOL     OW12079   1.938   0.811   4.513
 3838SOL    HW112080   2.037   0.799   4.522
 3838SOL    HW212081   1.914   0.906   4.534
 3839SOL     OW12082   2.727   0.348   3.919
 3839SOL    HW112083   2.786   0.411   3.870
 3839SOL    HW212084   2.746   0.254   3.890
 3840SOL     OW12085   3.581   0.585   5.555
 3840SOL    HW112086   3.555   0.674   5.519
 3840SOL    HW212087   3.579   0.517   5.482
 3841SOL     OW12088   3.224   1.144   4.269
 3841SOL    HW112089   3.307   1.115   4.221
 3841SOL    HW212090   3.175   1.211   4.213
 3842SOL     OW12091   2.412   0.196   4.609
 3842SOL    HW112092   2.407   0.191   4.709
 3842SOL    HW212093   2.414   0.292   4.580
 3843SOL     OW12094   2.870   1.456   4.201
 3843SOL    HW112095   2.824   1.528   4.149
 3843SOL    HW212096   2.866   1.476   4.299
 3844SOL     OW12097   2.213   1.801   4.577
 3844SOL    HW112098   2.263   1.715   4.583
 3844SOL    HW212099   2.278   1.878   4.574
 3845SOL     OW12100   3.657   1.066   4.597
 3845SOL    HW112101   3.595   1.051   4.521
 3845SOL    HW212102   3.605   1.077   4.682
 3846SOL     OW12103   3.089   1.550   5.230
 3846SOL    HW112104   3.095   1.473   5.294
 3846SOL    HW212105   3.037   1.524   5.150
 3847SOL     OW12106   2.183   0.943   3.966
 3847SOL    HW112107   2.265   0.982   3.924
 3847SOL    HW212108   2.156   0.861   3.917
 3848SOL     OW12109   3.320   0.735   4.452
 3848SOL    HW112110   3.315   0.670   4.527
 3848SOL    HW212111   3.400   0.794   4.465
 3849SOL     OW12112   2.323   1.266   5.451
 3849SOL    HW112113   2.273   1.267   5.365
 3849SOL    HW212114   2.260   1.248   5.527
 3850SOL     OW12115   2.973   1.776   3.961
 3850SOL    HW112116   2.913   1.714   4.011
 3850SOL    HW212117   3.004   1.732   3.876
 3851SOL     OW12118   2.064   0.285   5.222
 3851SOL    HW112119   1.984   0.345   5.209
 3851SOL    HW212120   2.054   0.236   5.308
 3852SOL     OW12121   3.494   1.377   3.805
 3852SOL    HW112122   3.462   1.471   3.795
 3852SOL    HW212123   3.418   1.314   3.793
 3853SOL     OW12124   2.326   1.743   4.047
 3853SOL    HW112125   2.359   1.782   4.133
 3853SOL    HW212126   2.402   1.736   3.982
 3854SOL     OW12127   3.262   0.107   4.150
 3854SOL    HW112128   3.238   0.070   4.060
 3854SOL    HW212129   3.361   0.123   4.154
 3855SOL     OW12130   2.111   1.785   4.965
 3855SOL    HW112131   2.168   1.720   5.015
 3855SOL    HW212132   2.095   1.752   4.872
 3856SOL     OW12133   2.802   1.698   4.628
 3856SOL    HW112134   2.882   1.641   4.649
 3856SOL    HW212135   2.753   1.658   4.551
 3857SOL     OW12136   2.244   0.700   4.204
 3857SOL    HW112137   2.289   0.610   4.201
 3857SOL    HW212138   2.150   0.689   4.237
 3858SOL     OW12139   3.409   0.222   5.453
 3858SOL    HW112140   3.404   0.259   5.545
 3858SOL    HW212141   3.337   0.153   5.441
 3859SOL     OW12142   2.476   0.122   3.841
 3859SOL    HW112143   2.574   0.100   3.848
 3859SOL    HW212144   2.445   0.105   3.748
 3860SOL     OW12145   2.643   0.264   5.473
 3860SOL    HW112146   2.710   0.203   5.516
 3860SOL    HW212147   2.570   0.283   5.538
 3861SOL     OW12148   2.750   1.514   4.919
 3861SOL    HW112149   2.727   1.489   4.825
 3861SOL    HW212150   2.811   1.445   4.958
 3862SOL     OW12151   3.213   0.590   5.157
 3862SOL    HW112152   3.241   0.547   5.242
 3862SOL    HW212153   3.238   0.686   5.158
 3863SOL     OW12154   2.665   1.402   4.648
 3863SOL    HW112155   2.755   1.416   4.606
 3863SOL    HW212156   2.594   1.404   4.577
 3864SOL     OW12157   2.784   0.503   4.623
 3864SOL    HW112158   2.759   0.494   4.527
 3864SOL    HW212159   2.832   0.421   4.654
 3865SOL     OW12160   2.401   0.064   4.236
 3865SOL    HW112161   2.320   0.065   4.294
 3865SOL    HW212162   2.404   0.147   4.181
 3866SOL     OW12163   3.296   1.188   3.765
 3866SOL    HW112164   3.328   1.112   3.822
 3866SOL    HW212165   3.204   1.215   3.795
 3867SOL     OW12166   2.159   0.035   3.895
 3867SOL    HW112167   2.208   0.119   3.874
 3867SOL    HW212168   2.221  -0.030   3.940
 3868SOL     OW12169   2.797   0.236   4.204
 3868SOL    HW112170   2.749   0.277   4.126
 3868SOL    HW212171   2.896   0.234   4.185
 3869SOL     OW12172   2.938   0.683   5.188
 3869SOL    HW112173   2.858   0.622   5.191
 3869SOL    HW212174   3.019   0.630   5.164
 3870SOL     OW12175   3.089   1.570   4.517
 3870SOL    HW112176   3.110   1.644   4.452
 3870SOL    HW212177   3.157   1.570   4.590
 3871SOL     OW12178   2.321   1.152   4.465
 3871SOL    HW112179   2.250   1.125   4.530
 3871SOL    HW212180   2.295   1.124   4.372
 3872SOL     OW12181   3.133   1.797   4.315
 3872SOL    HW112182   3.177   1.861   4.251
 3872SOL    HW212183   3.083   1.849   4.385
 3873SOL     OW12184   2.894   0.549   3.740
 3873SOL    HW112185   2.853   0.631   3.701
 3873SOL    HW212186   2.958   0.575   3.813
 3874SOL     OW12187   1.940   0.556   5.110
 3874SOL    HW112188   2.032   0.555   5.069
 3874SOL    HW212189   1.934   0.630   5.177
 3875SOL     OW12190   2.423   0.222   4.871
 3875SOL    HW112191   2.461   0.138   4.908
 3875SOL    HW212192   2.335   0.241   4.915
 3876SOL     OW12193   2.728   0.454   4.366
 3876SOL    HW112194   2.696   0.526   4.304
 3876SOL    HW212195   2.752   0.373   4.313
 3877SOL     OW12196   2.879   0.039   4.477
 3877SOL    HW112197   2.807   0.044   4.408
 3877SOL    HW212198   2.855  -0.030   4.546
 3878SOL     OW12199   3.291   1.173   4.591
 3878SOL    HW112200   3.236   1.089   4.584
 3878SOL    HW212201   3.317   1.202   4.499
 3879SOL     OW12202   3.328   0.590   4.716
 3879SOL    HW112203   3.298   0.495   4.723
 3879SOL    HW212204   3.401   0.606   4.782
 3880SOL     OW12205   3.719   0.833   4.101
 3880SOL    HW112206   3.761   0.769   4.165
 3880SOL    HW212207   3.681   0.782   4.023
 3881SOL     OW12208   2.350   1.385   3.898
 3881SOL    HW112209   2.263   1.370   3.945
 3881SOL    HW212210   2.333   1.411   3.803
 3882SOL     OW12211   3.526   1.280   4.381
 3882SOL    HW112212   3.625   1.288   4.395
 3882SOL    HW212213   3.481   1.364   4.412
 3883SOL     OW12214   3.252   0.575   3.802
 3883SOL    HW112215   3.198   0.554   3.883
 3883SOL    HW212216   3.343   0.534   3.811
 3884SOL     OW12217   2.389   0.256   4.052
 3884SOL    HW112218   2.416   0.197   3.977
 3884SOL    HW212219   2.389   0.351   4.021
 3885SOL     OW12220   3.616   1.223   5.312
 3885SOL    HW112221   3.707   1.184   5.299
 3885SOL    HW212222   3.624   1.319   5.336
 3886SOL     OW12223   2.926   1.347   5.064
 3886SOL    HW112224   2.846   1.324   5.119
 3886SOL    HW212225   3.009   1.321   5.113
 3887SOL     OW12226   3.454   1.629   5.349
 3887SOL    HW112227   3.481   1.663   5.259
 3887SOL    HW212228   3.533   1.591   5.395
 3888SOL     OW12229   2.973   1.195   4.824
 3888SOL    HW112230   2.933   1.239   4.905
 3888SOL    HW212231   2.932   1.232   4.741
 3889SOL     OW12232   3.500   1.099   4.803
 3889SOL    HW112233   3.505   1.180   4.862
 3889SOL    HW212234   3.414   1.101   4.752
 3890SOL     OW12235   2.777   0.089   5.126
 3890SOL    HW112236   2.802   0.069   5.031
 3890SOL    HW212237   2.849   0.145   5.168
 3891SOL     OW12238   2.842   1.116   5.443
 3891SOL    HW112239   2.743   1.122   5.453
 3891SOL    HW212240   2.865   1.036   5.387
 3892SOL     OW12241   2.567   1.050   4.092
 3892SOL    HW112242   2.553   1.057   4.191
 3892SOL    HW212243   2.651   0.999   4.074
 3893SOL     OW12244   2.272   0.813   4.975
 3893SOL    HW112245   2.358   0.825   5.025
 3893SOL    HW212246   2.230   0.726   5.002
 3894SOL     OW12247   3.136   0.386   4.986
 3894SOL    HW112248   3.157   0.460   5.050
 3894SOL    HW212249   3.047   0.403   4.943
 3895SOL     OW12250   1.926   1.564   5.055
 3895SOL    HW112251   1.880   1.646   5.021
 3895SOL    HW212252   2.024   1.583   5.064
 3896SOL     OW12253   2.229   1.100   4.225
 3896SOL    HW112254   2.222   1.183   4.169
 3896SOL    HW212255   2.233   1.020   4.165
 3897SOL     OW12256   2.428   0.537   4.589
 3897SOL    HW112257   2.440   0.603   4.515
 3897SOL    HW212258   2.474   0.571   4.672
 3898SOL     OW12259   3.114   1.348   4.112
 3898SOL    HW112260   3.164   1.425   4.152
 3898SOL    HW212261   3.019   1.350   4.144
 3899SOL     OW12262   3.134   1.445   4.866
 3899SOL    HW112263   3.181   1.458   4.953
 3899SOL    HW212264   3.068   1.371   4.875
 3900SOL     OW12265   3.444   0.639   4.196
 3900SOL    HW112266   3.413   0.700   4.269
 3900SOL    HW212267   3.494   0.691   4.127
 3901SOL     OW12268   2.216   1.510   5.053
 3901SOL    HW112269   2.195   1.466   4.966
 3901SOL    HW212270   2.313   1.536   5.056
 3902SOL     OW12271   2.264   0.751   5.322
 3902SOL    HW112272   2.332   0.806   5.275
 3902SOL    HW212273   2.304   0.663   5.349
 3903SOL     OW12274   3.449   0.779   5.394
 3903SOL    HW112275   3.357   0.817   5.389
 3903SOL    HW212276   3.509   0.826   5.329
 3904SOL     OW12277   2.875   0.105   5.494
 3904SOL    HW112278   2.881   0.190   5.442
 3904SOL    HW212279   2.907   0.029   5.437
 3905SOL     OW12280   2.366   0.050   5.464
 3905SOL    HW112281   2.324  -0.007   5.394
 3905SOL    HW212282   2.300   0.119   5.496
 3906SOL     OW12283   2.435   0.870   4.753
 3906SOL    HW112284   2.479   0.959   4.744
 3906SOL    HW212285   2.372   0.870   4.830
 3907SOL     OW12286   3.222   0.862   4.769
 3907SOL    HW112287   3.147   0.862   4.703
 3907SOL    HW212288   3.259   0.770   4.778
 3908SOL     OW12289   3.071   0.525   3.999
 3908SOL    HW112290   3.084   0.441   4.053
 3908SOL    HW212291   3.042   0.599   4.059
 3909SOL     OW12292   2.169   0.213   4.955
 3909SOL    HW112293   2.146   0.250   5.045
 3909SOL    HW212294   2.139   0.118   4.949
 3910SOL     OW12295   1.899   1.310   5.006
 3910SOL    HW112296   1.952   1.261   5.074
 3910SOL    HW212297   1.921   1.408   5.011
 3911SOL     OW12298   2.594   0.634   4.788
 3911SOL    HW112299   2.653   0.608   4.712
 3911SOL    HW212300   2.566   0.730   4.777
 3912SOL     OW12301   3.590   0.935   5.578
 3912SOL    HW112302   3.544   0.928   5.489
 3912SOL    HW212303   3.528   0.979   5.644
 3913SOL     OW12304   2.169   0.063   4.342
 3913SOL    HW112305   2.158   0.157   4.375
 3913SOL    HW212306   2.164   0.000   4.419
 3914SOL     OW12307   3.484   0.367   4.098
 3914SOL    HW112308   3.486   0.291   4.162
 3914SOL    HW212309   3.436   0.444   4.138
 3915SOL     OW12310   2.885   0.766   4.690
 3915SOL    HW112311   2.900   0.787   4.786
 3915SOL    HW212312   2.855   0.671   4.681
 3916SOL     OW12313   2.842   1.573   5.424
 3916SOL    HW112314   2.822   1.617   5.336
 3916SOL    HW212315   2.881   1.482   5.408
 3917SOL     OW12316   3.721   1.518   5.329
 3917SOL    HW112317   3.735   1.545   5.234
 3917SOL    HW212318   3.804   1.540   5.382
 3918SOL     OW12319   2.212   0.898   5.528
 3918SOL    HW112320   2.288   0.942   5.576
 3918SOL    HW212321   2.247   0.851   5.446
 3919SOL     OW12322   3.402   0.274   3.849
 3919SOL    HW112323   3.341   0.199   3.872
 3919SOL    HW212324   3.424   0.326   3.932
 3920SOL     OW12325   3.165   0.838   3.766
 3920SOL    HW112326   3.199   0.745   3.781
 3920SOL    HW212327   3.183   0.865   3.671
 3921SOL     OW12328   2.930   1.333   4.573
 3921SOL    HW112329   2.937   1.249   4.518
 3921SOL    HW212330   2.992   1.402   4.537
 3922SOL     OW12331   2.181   0.810   4.673
 3922SOL    HW112332   2.274   0.846   4.678
 3922SOL    HW212333   2.175   0.725   4.725
 3923SOL     OW12334   2.201   0.509   4.730
 3923SOL    HW112335   2.149   0.426   4.713
 3923SOL    HW212336   2.278   0.514   4.666
 3924SOL     OW12337   3.000   0.380   5.402
 3924SOL    HW112338   2.955   0.443   5.466
 3924SOL    HW212339   3.093   0.411   5.385
 3925SOL     OW12340   3.022   0.207   5.201
 3925SOL    HW112341   3.022   0.271   5.278
 3925SOL    HW212342   3.050   0.255   5.118
 3926SOL     OW12343   1.870   1.326   3.924
 3926SOL    HW112344   1.777   1.347   3.893
 3926SOL    HW212345   1.880   1.227   3.937
 3927SOL     OW12346   1.950   1.801   4.651
 3927SOL    HW112347   1.908   1.715   4.624
 3927SOL    HW212348   2.044   1.804   4.617
 3928SOL     OW12349   2.366   1.568   4.634
 3928SOL    HW112350   2.432   1.642   4.643
 3928SOL    HW212351   2.410   1.489   4.592
 3929SOL     OW12352   2.864   0.796   4.962
 3929SOL    HW112353   2.905   0.764   5.048
 3929SOL    HW212354   2.768   0.769   4.959
 3930SOL     OW12355   1.902   0.544   4.838
 3930SOL    HW112356   1.987   0.511   4.797
 3930SOL    HW212357   1.915   0.559   4.936
 3931SOL     OW12358   2.051   0.520   5.446
 3931SOL    HW112359   2.110   0.480   5.376
 3931SOL    HW212360   1.993   0.591   5.405
 3932SOL     OW12361   3.231   0.950   5.384
 3932SOL    HW112362   3.270   1.039   5.404
 3932SOL    HW212363   3.241   0.930   5.287
 3933SOL     OW12364   2.677   0.572   4.049
 3933SOL    HW112365   2.684   0.483   4.003
 3933SOL    HW212366   2.583   0.606   4.041
 3934SOL     OW12367   3.519   0.604   4.930
 3934SOL    HW112368   3.481   0.535   4.992
 3934SOL    HW212369   3.601   0.568   4.886
 3935SOL     OW12370   2.114   1.564   5.468
 3935SOL    HW112371   2.084   1.621   5.544
 3935SOL    HW212372   2.107   1.467   5.494
 3936SOL     OW12373   2.533   0.464   4.993
 3936SOL    HW112374   2.499   0.375   4.963
 3936SOL    HW212375   2.559   0.518   4.913
 3937SOL     OW12376   2.792   1.678   5.189
 3937SOL    HW112377   2.768   1.660   5.094
 3937SOL    HW212378   2.822   1.772   5.199
 3938SOL     OW12379   2.335   0.500   3.915
 3938SOL    HW112380   2.396   0.580   3.919
 3938SOL    HW212381   2.240   0.531   3.922
 3939SOL     OW12382   2.021   1.137   5.190
 3939SOL    HW112383   2.043   1.076   5.266
 3939SOL    HW212384   2.031   1.088   5.104
 3940SOL     OW12385   3.209   1.059   4.958
 3940SOL    HW112386   3.233   0.996   4.884
 3940SOL    HW212387   3.119   1.099   4.940
 3941SOL     OW12388   3.164   0.855   4.033
 3941SOL    HW112389   3.078   0.824   4.075
 3941SOL    HW212390   3.160   0.841   3.934
 3942SOL     OW12391   3.621   1.747   4.878
 3942SOL    HW112392   3.682   1.777   4.805
 3942SOL    HW212393   3.583   1.658   4.856
 3943SOL     OW12394   3.114   1.731   4.852
 3943SOL    HW112395   3.198   1.736   4.798
 3943SOL    HW212396   3.091   1.635   4.870
 3944SOL     OW12397   1.945   1.258   4.746
 3944SOL    HW112398   1.940   1.257   4.846
 3944SOL    HW212399   1.862   1.217   4.708
 3945SOL     OW12400   2.550   1.662   5.440
 3945SOL    HW112401   2.494   1.743   5.449
 3945SOL    HW212402   2.602   1.666   5.354
 3946SOL     OW12403   3.588   0.135   4.247
 3946SOL    HW112404   3.661   0.118   4.180
 3946SOL    HW212405   3.557   0.048   4.285
 3947SOL     OW12406   3.250   1.573   4.201
 3947SOL    HW112407   3.317   1.585   4.127
 3947SOL    HW212408   3.210   1.662   4.224
 3948SOL     OW12409   1.992   1.794   5.575
 3948SOL    HW112410   1.951   1.720   5.628
 3948SOL    HW212411   2.056   1.845   5.633
 3949SOL     OW12412   3.142   0.927   4.396
 3949SOL    HW112413   3.202   0.846   4.398
 3949SOL    HW212414   3.182   0.996   4.336
 3950SOL     OW12415   2.692   1.273   5.146
 3950SOL    HW112416   2.687   1.306   5.241
 3950SOL    HW212417   2.606   1.292   5.100
 3951SOL     OW12418   2.534   1.616   3.878
 3951SOL    HW112419   2.543   1.626   3.779
 3951SOL    HW212420   2.494   1.527   3.899
 3952SOL     OW12421   3.512   1.720   5.118
 3952SOL    HW112422   3.565   1.730   5.034
 3952SOL    HW212423   3.485   1.810   5.152
 3953SOL     OW12424   3.703   0.175   4.687
 3953SOL    HW112425   3.742   0.090   4.651
 3953SOL    HW212426   3.605   0.177   4.668
 3954SOL     OW12427   2.125   0.326   4.444
 3954SOL    HW112428   2.046   0.377   4.410
 3954SOL    HW212429   2.116   0.311   4.542
 3955SOL     OW12430   3.056   1.612   3.755
 3955SOL    HW112431   3.062   1.519   3.792
 3955SOL    HW212432   2.997   1.612   3.675
 3956SOL     OW12433   2.684   1.002   5.096
 3956SOL    HW112434   2.724   1.001   5.004
 3956SOL    HW212435   2.694   1.094   5.136
 3957SOL     OW12436   2.778   0.910   4.015
 3957SOL    HW112437   2.841   0.948   3.947
 3957SOL    HW212438   2.818   0.827   4.054
 3958SOL     OW12439   3.366   1.607   3.768
 3958SOL    HW112440   3.274   1.644   3.775
 3958SOL    HW212441   3.404   1.627   3.678
 3959SOL     OW12442   2.234   1.288   5.214
 3959SOL    HW112443   2.221   1.381   5.180
 3959SOL    HW212444   2.150   1.236   5.201
 3960SOL     OW12445   3.476   1.292   5.013
 3960SOL    HW112446   3.536   1.295   5.093
 3960SOL    HW212447   3.401   1.356   5.026
 3961SOL     OW12448   2.901   1.098   4.420
 3961SOL    HW112449   2.831   1.051   4.474
 3961SOL    HW212450   2.960   1.030   4.377
 3962SOL     OW12451   2.876   0.236   4.695
 3962SOL    HW112452   2.868   0.200   4.602
 3962SOL    HW212453   2.874   0.160   4.760
 3963SOL     OW12454   2.452   1.487   4.215
 3963SOL    HW112455   2.494   1.429   4.145
 3963SOL    HW212456   2.408   1.566   4.171
 3964SOL     OW12457   3.571   0.385   5.105
 3964SOL    HW112458   3.644   0.454   5.109
 3964SOL    HW212459   3.599   0.310   5.046
 3965SOL     OW12460   2.117   1.348   4.014
 3965SOL    HW112461   2.021   1.349   3.987
 3965SOL    HW212462   2.129   1.401   4.098
 3966SOL     OW12463   1.967   1.013   5.450
 3966SOL    HW112464   1.890   0.980   5.504
 3966SOL    HW212465   2.052   0.983   5.492
 3967SOL     OW12466   2.534   0.203   5.213
 3967SOL    HW112467   2.624   0.187   5.173
 3967SOL    HW212468   2.542   0.208   5.312
 3968SOL     OW12469   1.937   0.345   3.757
 3968SOL    HW112470   1.845   0.317   3.728
 3968SOL    HW212471   1.968   0.422   3.701
 3969SOL     OW12472   3.302   0.856   5.122
 3969SOL    HW112473   3.245   0.908   5.059
 3969SOL    HW212474   3.398   0.868   5.098
 3970SOL     OW12475   1.934   0.166   4.042
 3970SOL    HW112476   1.917   0.249   3.988
 3970SOL    HW212477   2.024   0.129   4.020
 3971SOL     OW12478   3.045   1.335   3.843
 3971SOL    HW112479   2.946   1.324   3.845
 3971SOL    HW212480   3.079   1.350   3.936
 3972SOL     OW12481   2.475   0.842   5.155
 3972SOL    HW112482   2.531   0.923   5.138
 3972SOL    HW212483   2.534   0.762   5.158
 3973SOL     OW12484   3.355   1.767   4.683
 3973SOL    HW112485   3.388   1.831   4.614
 3973SOL    HW212486   3.421   1.761   4.758
 3974SOL     OW12487   2.578   0.565   5.432
 3974SOL    HW112488   2.597   0.630   5.506
 3974SOL    HW212489   2.638   0.485   5.441
 3975SOL     OW12490   3.312   1.220   5.357
 3975SOL    HW112491   3.303   1.210   5.456
 3975SOL    HW212492   3.408   1.213   5.331
 3976SOL     OW12493   2.252   1.741   5.284
 3976SOL    HW112494   2.161   1.782   5.282
 3976SOL    HW212495   2.245   1.647   5.316
 3977SOL     OW12496   3.536   0.883   4.978
 3977SOL    HW112497   3.509   0.794   4.941
 3977SOL    HW212498   3.537   0.951   4.905
 3978SOL     OW12499   3.087   0.325   4.173
 3978SOL    HW112500   3.152   0.251   4.162
 3978SOL    HW212501   3.107   0.375   4.257
 3979SOL     OW12502   2.456   0.745   4.376
 3979SOL    HW112503   2.506   0.830   4.357
 3979SOL    HW212504   2.368   0.747   4.328
 3980SOL     OW12505   3.639   0.342   5.366
 3980SOL    HW112506   3.622   0.373   5.272
 3980SOL    HW212507   3.555   0.305   5.404
 3981SOL     OW12508   3.592   0.934   5.241
 3981SOL    HW112509   3.630   1.025   5.256
 3981SOL    HW212510   3.584   0.917   5.142
 3982SOL     OW12511   2.721   1.374   3.740
 3982SOL    HW112512   2.675   1.389   3.828
 3982SOL    HW212513   2.765   1.459   3.710
 3983SOL     OW12514   2.523   1.790   4.677
 3983SOL    HW112515   2.477   1.878   4.664
 3983SOL    HW212516   2.622   1.802   4.670
 3984SOL     OW12517   2.721   0.956   4.585
 3984SOL    HW112518   2.775   0.887   4.633
 3984SOL    HW212519   2.689   1.025   4.651
 3985SOL     OW12520   2.945   0.984   3.811
 3985SOL    HW112521   2.922   1.037   3.729
 3985SOL    HW212522   3.026   0.928   3.792
 3986SOL     OW12523   3.723   1.569   4.575
 3986SOL    HW112524   3.652   1.557   4.505
 3986SOL    HW212525   3.724   1.490   4.635
 3987SOL     OW12526   2.083   1.314   5.568
 3987SOL    HW112527   2.018   1.241   5.547
 3987SOL    HW212528   2.087   1.328   5.666
 3988SOL     OW12529   1.941   1.240   4.377
 3988SOL    HW112530   1.940   1.193   4.465
 3988SOL    HW212531   2.023   1.212   4.326
 3989SOL     OW12532   2.534   1.391   5.348
 3989SOL    HW112533   2.456   1.341   5.386
 3989SOL    HW212534   2.531   1.486   5.379
 3990SOL     OW12535   3.686   0.192   4.951
 3990SOL    HW112536   3.682   0.102   4.995
 3990SOL    HW212537   3.689   0.181   4.852
 3991SOL     OW12538   2.290   0.424   4.244
 3991SOL    HW112539   2.320   0.352   4.182
 3991SOL    HW212540   2.251   0.384   4.327
 3992SOL     OW12541   3.567   1.487   4.828
 3992SOL    HW112542   3.474   1.462   4.801
 3992SOL    HW212543   3.593   1.437   4.910
 3993SOL     OW12544   2.179   0.547   5.004
 3993SOL    HW112545   2.217   0.488   5.076
 3993SOL    HW212546   2.219   0.521   4.916
 3994SOL     OW12547   2.674   1.586   4.411
 3994SOL    HW112548   2.706   1.596   4.317
 3994SOL    HW212549   2.595   1.524   4.413
 3995SOL     OW12550   3.286   0.214   4.836
 3995SOL    HW112551   3.338   0.149   4.891
 3995SOL    HW212552   3.237   0.277   4.897
 3996SOL     OW12553   2.863   0.034   4.878
 3996SOL    HW112554   2.800  -0.038   4.847
 3996SOL    HW212555   2.956  -0.002   4.878
 3997SOL     OW12556   2.632   1.330   4.025
 3997SOL    HW112557   2.586   1.243   4.042
 3997SOL    HW212558   2.723   1.327   4.066
 3998SOL     OW12559   2.480   1.567   5.008
 3998SOL    HW112560   2.475   1.649   5.065
 3998SOL    HW212561   2.569   1.564   4.963
 3999SOL     OW12562   3.214   0.052   3.892
 3999SOL    HW112563   3.249   0.011   3.808
 3999SOL    HW212564   3.124   0.014   3.912
 4000SOL     OW12565   3.162   0.453   4.415
 4000SOL    HW112566   3.103   0.533   4.419
 4000SOL    HW212567   3.177   0.418   4.508
 4001SOL     OW12568   3.455   0.221   4.606
 4001SOL    HW112569   3.371   0.220   4.660
 4001SOL    HW212570   3.457   0.304   4.550
 4002SOL     OW12571   1.901   1.077   4.024
 4002SOL    HW112572   2.000   1.066   4.015
 4002SOL    HW212573   1.861   0.991   4.056
 4003SOL     OW12574   2.737   1.646   4.061
 4003SOL    HW112575   2.660   1.611   4.007
 4003SOL    HW212576   2.705   1.717   4.123
 4004SOL     OW12577   2.092   0.628   5.699
 4004SOL    HW112578   1.999   0.626   5.736
 4004SOL    HW212579   2.093   0.589   5.607
 4005SOL     OW12580   2.087   0.275   6.582
 4005SOL    HW112581   2.122   0.258   6.674
 4005SOL    HW212582   1.999   0.230   6.570
 4006SOL     OW12583   1.881   0.368   6.233
 4006SOL    HW112584   1.799   0.411   6.272
 4006SOL    HW212585   1.853   0.295   6.170
 4007SOL     OW12586   3.417   1.511   6.289
 4007SOL    HW112587   3.360   1.495   6.370
 4007SOL    HW212588   3.358   1.521   6.209
 4008SOL     OW12589   2.997   0.703   6.303
 4008SOL    HW112590   3.054   0.781   6.278
 4008SOL    HW212591   2.937   0.729   6.379
 4009SOL     OW12592   3.617   0.607   5.817
 4009SOL    HW112593   3.605   0.594   5.718
 4009SOL    HW212594   3.587   0.526   5.866
 4010SOL     OW12595   2.630   1.144   6.609
 4010SOL    HW112596   2.552   1.161   6.669
 4010SOL    HW212597   2.664   1.231   6.573
 4011SOL     OW12598   2.712   0.798   7.409
 4011SOL    HW112599   2.708   0.874   7.474
 4011SOL    HW212600   2.734   0.834   7.318
 4012SOL     OW12601   2.547   1.012   6.251
 4012SOL    HW112602   2.616   0.996   6.321
 4012SOL    HW212603   2.474   1.069   6.289
 4013SOL     OW12604   2.548   1.161   7.389
 4013SOL    HW112605   2.608   1.240   7.403
 4013SOL    HW212606   2.462   1.192   7.348
 4014SOL     OW12607   3.322   1.505   6.925
 4014SOL    HW112608   3.346   1.599   6.951
 4014SOL    HW212609   3.306   1.451   7.007
 4015SOL     OW12610   2.300   0.392   7.085
 4015SOL    HW112611   2.382   0.336   7.094
 4015SOL    HW212612   2.219   0.334   7.089
 4016SOL     OW12613   3.465   0.447   6.323
 4016SOL    HW112614   3.391   0.493   6.273
 4016SOL    HW212615   3.516   0.515   6.376
 4017SOL     OW12616   2.093   1.713   6.069
 4017SOL    HW112617   2.127   1.790   6.123
 4017SOL    HW212618   2.137   1.713   5.979
 4018SOL     OW12619   2.989   1.341   7.276
 4018SOL    HW112620   3.036   1.341   7.364
 4018SOL    HW212621   2.941   1.254   7.265
 4019SOL     OW12622   2.102   1.091   6.472
 4019SOL    HW112623   2.116   1.007   6.524
 4019SOL    HW212624   2.047   1.155   6.527
 4020SOL     OW12625   2.468   0.964   5.709
 4020SOL    HW112626   2.475   1.048   5.655
 4020SOL    HW212627   2.514   0.977   5.797
 4021SOL     OW12628   3.456   0.114   7.066
 4021SOL    HW112629   3.438   0.181   6.994
 4021SOL    HW212630   3.453   0.160   7.155
 4022SOL     OW12631   1.984   0.643   6.149
 4022SOL    HW112632   1.939   0.555   6.166
 4022SOL    HW212633   1.983   0.697   6.233
 4023SOL     OW12634   3.704   1.767   5.945
 4023SOL    HW112635   3.758   1.738   6.025
 4023SOL    HW212636   3.734   1.857   5.916
 4024SOL     OW12637   1.889   1.596   5.703
 4024SOL    HW112638   1.870   1.500   5.724
 4024SOL    HW212639   1.856   1.654   5.778
 4025SOL     OW12640   3.551   0.922   6.198
 4025SOL    HW112641   3.646   0.893   6.206
 4025SOL    HW212642   3.543   0.987   6.123
 4026SOL     OW12643   3.503   1.108   6.018
 4026SOL    HW112644   3.589   1.110   5.966
 4026SOL    HW212645   3.517   1.155   6.106
 4027SOL     OW12646   1.975   0.737   7.183
 4027SOL    HW112647   2.063   0.724   7.228
 4027SOL    HW212648   1.962   0.834   7.161
 4028SOL     OW12649   3.155   1.228   7.009
 4028SOL    HW112650   3.192   1.155   6.951
 4028SOL    HW212651   3.207   1.233   7.094
 4029SOL     OW12652   2.671   0.004   6.088
 4029SOL    HW112653   2.711   0.095   6.079
 4029SOL    HW212654   2.571   0.012   6.094
 4030SOL     OW12655   2.059   0.976   6.850
 4030SOL    HW112656   2.148   0.931   6.836
 4030SOL    HW212657   1.986   0.911   6.831
 4031SOL     OW12658   3.387   0.999   5.776
 4031SOL    HW112659   3.324   0.923   5.789
 4031SOL    HW212660   3.435   1.017   5.862
 4032SOL     OW12661   3.049   1.792   7.202
 4032SOL    HW112662   3.073   1.852   7.126
 4032SOL    HW212663   3.056   1.697   7.172
 4033SOL     OW12664   2.179   0.251   7.387
 4033SOL    HW112665   2.250   0.322   7.393
 4033SOL    HW212666   2.091   0.290   7.415
 4034SOL     OW12667   3.328   1.417   6.539
 4034SOL    HW112668   3.269   1.423   6.619
 4034SOL    HW212669   3.313   1.329   6.493
 4035SOL     OW12670   3.529   1.714   6.158
 4035SOL    HW112671   3.488   1.691   6.070
 4035SOL    HW212672   3.511   1.640   6.223
 4036SOL     OW12673   2.460   0.729   5.856
 4036SOL    HW112674   2.484   0.798   5.788
 4036SOL    HW212675   2.382   0.762   5.910
 4037SOL     OW12676   3.143   0.345   6.530
 4037SOL    HW112677   3.057   0.295   6.517
 4037SOL    HW212678   3.205   0.291   6.586
 4038SOL     OW12679   3.438   1.662   5.893
 4038SOL    HW112680   3.527   1.708   5.896
 4038SOL    HW212681   3.417   1.638   5.798
 4039SOL     OW12682   2.669   0.605   7.051
 4039SOL    HW112683   2.622   0.602   7.140
 4039SOL    HW212684   2.618   0.550   6.985
 4040SOL     OW12685   3.256   0.469   7.260
 4040SOL    HW112686   3.236   0.512   7.348
 4040SOL    HW212687   3.334   0.407   7.269
 4041SOL     OW12688   2.835   0.890   7.158
 4041SOL    HW112689   2.881   0.806   7.129
 4041SOL    HW212690   2.779   0.924   7.083
 4042SOL     OW12691   2.853   0.410   6.828
 4042SOL    HW112692   2.776   0.444   6.882
 4042SOL    HW212693   2.819   0.359   6.749
 4043SOL     OW12694   2.903   0.701   6.015
 4043SOL    HW112695   2.929   0.697   6.111
 4043SOL    HW212696   2.818   0.650   6.001
 4044SOL     OW12697   1.938   0.811   6.375
 4044SOL    HW112698   2.037   0.799   6.384
 4044SOL    HW212699   1.914   0.906   6.396
 4045SOL     OW12700   2.727   0.348   5.781
 4045SOL    HW112701   2.786   0.411   5.732
 4045SOL    HW212702   2.746   0.254   5.752
 4046SOL     OW12703   3.581   0.585   7.417
 4046SOL    HW112704   3.555   0.674   7.381
 4046SOL    HW212705   3.579   0.517   7.344
 4047SOL     OW12706   3.224   1.144   6.131
 4047SOL    HW112707   3.307   1.115   6.083
 4047SOL    HW212708   3.175   1.211   6.075
 4048SOL     OW12709   2.412   0.196   6.471
 4048SOL    HW112710   2.407   0.191   6.571
 4048SOL    HW212711   2.414   0.292   6.442
 4049SOL     OW12712   2.870   1.456   6.063
 4049SOL    HW112713   2.824   1.528   6.011
 4049SOL    HW212714   2.866   1.476   6.161
 4050SOL     OW12715   3.657   1.066   6.459
 4050SOL    HW112716   3.595   1.051   6.383
 4050SOL    HW212717   3.605   1.077   6.544
 4051SOL     OW12718   3.089   1.550   7.092
 4051SOL    HW112719   3.095   1.473   7.156
 4051SOL    HW212720   3.037   1.524   7.012
 4052SOL     OW12721   2.183   0.943   5.828
 4052SOL    HW112722   2.265   0.982   5.786
 4052SOL    HW212723   2.156   0.861   5.779
 4053SOL     OW12724   3.320   0.735   6.314
 4053SOL    HW112725   3.315   0.670   6.389
 4053SOL    HW212726   3.400   0.794   6.327
 4054SOL     OW12727   2.323   1.266   7.313
 4054SOL    HW112728   2.273   1.267   7.227
 4054SOL    HW212729   2.260   1.248   7.389
 4055SOL     OW12730   2.973   1.776   5.823
 4055SOL    HW112731   2.913   1.714   5.873
 4055SOL    HW212732   3.004   1.732   5.738
 4056SOL     OW12733   2.064   0.285   7.084
 4056SOL    HW112734   1.984   0.345   7.071
 4056SOL    HW212735   2.054   0.236   7.170
 4057SOL     OW12736   3.494   1.377   5.667
 4057SOL    HW112737   3.462   1.471   5.657
 4057SOL    HW212738   3.418   1.314   5.655
 4058SOL     OW12739   3.262   0.107   6.012
 4058SOL    HW112740   3.238   0.070   5.922
 4058SOL    HW212741   3.361   0.123   6.016
 4059SOL     OW12742   2.802   1.698   6.490
 4059SOL    HW112743   2.882   1.641   6.511
 4059SOL    HW212744   2.753   1.658   6.413
 4060SOL     OW12745   2.244   0.700   6.066
 4060SOL    HW112746   2.289   0.610   6.063
 4060SOL    HW212747   2.150   0.689   6.099
 4061SOL     OW12748   3.409   0.222   7.315
 4061SOL    HW112749   3.404   0.259   7.407
 4061SOL    HW212750   3.337   0.153   7.303
 4062SOL     OW12751   2.476   0.122   5.703
 4062SOL    HW112752   2.574   0.100   5.710
 4062SOL    HW212753   2.445   0.105   5.610
 4063SOL     OW12754   2.643   0.264   7.335
 4063SOL    HW112755   2.710   0.203   7.378
 4063SOL    HW212756   2.570   0.283   7.400
 4064SOL     OW12757   2.750   1.514   6.781
 4064SOL    HW112758   2.727   1.489   6.687
 4064SOL    HW212759   2.811   1.445   6.820
 4065SOL     OW12760   3.213   0.590   7.019
 4065SOL    HW112761   3.241   0.547   7.104
 4065SOL    HW212762   3.238   0.686   7.020
 4066SOL     OW12763   2.665   1.402   6.510
 4066SOL    HW112764   2.755   1.416   6.468
 4066SOL    HW212765   2.594   1.404   6.439
 4067SOL     OW12766   2.784   0.503   6.485
 4067SOL    HW112767   2.759   0.494   6.389
 4067SOL    HW212768   2.832   0.421   6.516
 4068SOL     OW12769   2.401   0.064   6.098
 4068SOL    HW112770   2.320   0.065   6.156
 4068SOL    HW212771   2.404   0.147   6.043
 4069SOL     OW12772   3.296   1.188   5.627
 4069SOL    HW112773   3.328   1.112   5.684
 4069SOL    HW212774   3.204   1.215   5.657
 4070SOL     OW12775   2.159   0.035   5.757
 4070SOL    HW112776   2.208   0.119   5.736
 4070SOL    HW212777   2.221  -0.030   5.802
 4071SOL     OW12778   2.797   0.236   6.066
 4071SOL    HW112779   2.749   0.277   5.988
 4071SOL    HW212780   2.896   0.234   6.047
 4072SOL     OW12781   2.938   0.683   7.050
 4072SOL    HW112782   2.858   0.622   7.053
 4072SOL    HW212783   3.019   0.630   7.026
 4073SOL     OW12784   3.089   1.570   6.379
 4073SOL    HW112785   3.110   1.644   6.314
 4073SOL    HW212786   3.157   1.570   6.452
 4074SOL     OW12787   3.133   1.797   6.177
 4074SOL    HW112788   3.177   1.861   6.113
 4074SOL    HW212789   3.083   1.849   6.247
 4075SOL     OW12790   2.894   0.549   5.602
 4075SOL    HW112791   2.853   0.631   5.563
 4075SOL    HW212792   2.958   0.575   5.675
 4076SOL     OW12793   1.940   0.556   6.972
 4076SOL    HW112794   2.032   0.555   6.931
 4076SOL    HW212795   1.934   0.630   7.039
 4077SOL     OW12796   2.423   0.222   6.733
 4077SOL    HW112797   2.461   0.138   6.770
 4077SOL    HW212798   2.335   0.241   6.777
 4078SOL     OW12799   2.728   0.454   6.228
 4078SOL    HW112800   2.696   0.526   6.166
 4078SOL    HW212801   2.752   0.373   6.175
 4079SOL     OW12802   2.879   0.039   6.339
 4079SOL    HW112803   2.807   0.044   6.270
 4079SOL    HW212804   2.855  -0.030   6.408
 4080SOL     OW12805   3.291   1.173   6.453
 4080SOL    HW112806   3.236   1.089   6.446
 4080SOL    HW212807   3.317   1.202   6.361
 4081SOL     OW12808   3.328   0.590   6.578
 4081SOL    HW112809   3.298   0.495   6.585
 4081SOL    HW212810   3.401   0.606   6.644
 4082SOL     OW12811   3.719   0.833   5.963
 4082SOL    HW112812   3.761   0.769   6.027
 4082SOL    HW212813   3.681   0.782   5.885
 4083SOL     OW12814   2.350   1.385   5.760
 4083SOL    HW112815   2.263   1.370   5.807
 4083SOL    HW212816   2.333   1.411   5.665
 4084SOL     OW12817   3.526   1.280   6.243
 4084SOL    HW112818   3.625   1.288   6.257
 4084SOL    HW212819   3.481   1.364   6.274
 4085SOL     OW12820   3.252   0.575   5.664
 4085SOL    HW112821   3.198   0.554   5.745
 4085SOL    HW212822   3.343   0.534   5.673
 4086SOL     OW12823   2.389   0.256   5.914
 4086SOL    HW112824   2.416   0.197   5.839
 4086SOL    HW212825   2.389   0.351   5.883
 4087SOL     OW12826   3.616   1.223   7.174
 4087SOL    HW112827   3.707   1.184   7.161
 4087SOL    HW212828   3.624   1.319   7.198
 4088SOL     OW12829   2.926   1.347   6.926
 4088SOL    HW112830   2.846   1.324   6.981
 4088SOL    HW212831   3.009   1.321   6.975
 4089SOL     OW12832   3.454   1.629   7.211
 4089SOL    HW112833   3.481   1.663   7.121
 4089SOL    HW212834   3.533   1.591   7.257
 4090SOL     OW12835   2.973   1.195   6.686
 4090SOL    HW112836   2.933   1.239   6.767
 4090SOL    HW212837   2.932   1.232   6.603
 4091SOL     OW12838   3.500   1.099   6.665
 4091SOL    HW112839   3.505   1.180   6.724
 4091SOL    HW212840   3.414   1.101   6.614
 4092SOL     OW12841   2.777   0.089   6.988
 4092SOL    HW112842   2.802   0.069   6.893
 4092SOL    HW212843   2.849   0.145   7.030
 4093SOL     OW12844   2.842   1.116   7.305
 4093SOL    HW112845   2.743   1.122   7.315
 4093SOL    HW212846   2.865   1.036   7.249
 4094SOL     OW12847   2.567   1.050   5.954
 4094SOL    HW112848   2.553   1.057   6.053
 4094SOL    HW212849   2.651   0.999   5.936
 4095SOL     OW12850   2.272   0.813   6.837
 4095SOL    HW112851   2.358   0.825   6.887
 4095SOL    HW212852   2.230   0.726   6.864
 4096SOL     OW12853   3.136   0.386   6.848
 4096SOL    HW112854   3.157   0.460   6.912
 4096SOL    HW212855   3.047   0.403   6.805
 4097SOL     OW12856   2.229   1.100   6.087
 4097SOL    HW112857   2.222   1.183   6.031
 4097SOL    HW212858   2.233   1.020   6.027
 4098SOL     OW12859   2.428   0.537   6.451
 4098SOL    HW112860   2.440   0.603   6.377
 4098SOL    HW212861   2.474   0.571   6.534
 4099SOL     OW12862   3.114   1.348   5.974
 4099SOL    HW112863   3.164   1.425   6.014
 4099SOL    HW212864   3.019   1.350   6.006
 4100SOL     OW12865   3.134   1.445   6.728
 4100SOL    HW112866   3.181   1.458   6.815
 4100SOL    HW212867   3.068   1.371   6.737
 4101SOL     OW12868   3.444   0.639   6.058
 4101SOL    HW112869   3.413   0.700   6.131
 4101SOL    HW212870   3.494   0.691   5.989
 4102SOL     OW12871   2.264   0.751   7.184
 4102SOL    HW112872   2.332   0.806   7.137
 4102SOL    HW212873   2.304   0.663   7.211
 4103SOL     OW12874   3.449   0.779   7.256
 4103SOL    HW112875   3.357   0.817   7.251
 4103SOL    HW212876   3.509   0.826   7.191
 4104SOL     OW12877   2.875   0.105   7.356
 4104SOL    HW112878   2.881   0.190   7.304
 4104SOL    HW212879   2.907   0.029   7.299
 4105SOL     OW12880   2.366   0.050   7.326
 4105SOL    HW112881   2.324  -0.007   7.256
 4105SOL    HW212882   2.300   0.119   7.358
 4106SOL     OW12883   2.435   0.870   6.615
 4106SOL    HW112884   2.479   0.959   6.606
 4106SOL    HW212885   2.372   0.870   6.692
 4107SOL     OW12886   3.222   0.862   6.631
 4107SOL    HW112887   3.147   0.862   6.565
 4107SOL    HW212888   3.259   0.770   6.640
 4108SOL     OW12889   3.071   0.525   5.861
 4108SOL    HW112890   3.084   0.441   5.915
 4108SOL    HW212891   3.042   0.599   5.921
 4109SOL     OW12892   2.169   0.213   6.817
 4109SOL    HW112893   2.146   0.250   6.907
 4109SOL    HW212894   2.139   0.118   6.811
 4110SOL     OW12895   1.899   1.310   6.868
 4110SOL    HW112896   1.952   1.261   6.936
 4110SOL    HW212897   1.921   1.408   6.873
 4111SOL     OW12898   2.594   0.634   6.650
 4111SOL    HW112899   2.653   0.608   6.574
 4111SOL    HW212900   2.566   0.730   6.639
 4112SOL     OW12901   3.590   0.935   7.440
 4112SOL    HW112902   3.544   0.928   7.351
 4112SOL    HW212903   3.528   0.979   7.506
 4113SOL     OW12904   2.169   0.063   6.204
 4113SOL    HW112905   2.158   0.157   6.237
 4113SOL    HW212906   2.164   0.000   6.281
 4114SOL     OW12907   3.484   0.367   5.960
 4114SOL    HW112908   3.486   0.291   6.024
 4114SOL    HW212909   3.436   0.444   6.000
 4115SOL     OW12910   2.885   0.766   6.552
 4115SOL    HW112911   2.900   0.787   6.648
 4115SOL    HW212912   2.855   0.671   6.543
 4116SOL     OW12913   2.842   1.573   7.286
 4116SOL    HW112914   2.822   1.617   7.198
 4116SOL    HW212915   2.881   1.482   7.270
 4117SOL     OW12916   3.721   1.518   7.191
 4117SOL    HW112917   3.735   1.545   7.096
 4117SOL    HW212918   3.804   1.540   7.244
 4118SOL     OW12919   2.212   0.898   7.390
 4118SOL    HW112920   2.288   0.942   7.438
 4118SOL    HW212921   2.247   0.851   7.308
 4119SOL     OW12922   3.402   0.274   5.711
 4119SOL    HW112923   3.341   0.199   5.734
 4119SOL    HW212924   3.424   0.326   5.794
 4120SOL     OW12925   3.165   0.838   5.628
 4120SOL    HW112926   3.199   0.745   5.643
 4120SOL    HW212927   3.183   0.865   5.533
 4121SOL     OW12928   2.930   1.333   6.435
 4121SOL    HW112929   2.937   1.249   6.380
 4121SOL    HW212930   2.992   1.402   6.399
 4122SOL     OW12931   2.181   0.810   6.535
 4122SOL    HW112932   2.274   0.846   6.540
 4122SOL    HW212933   2.175   0.725   6.587
 4123SOL     OW12934   2.201   0.509   6.592
 4123SOL    HW112935   2.149   0.426   6.575
 4123SOL    HW212936   2.278   0.514   6.528
 4124SOL     OW12937   3.000   0.380   7.264
 4124SOL    HW112938   2.955   0.443   7.328
 4124SOL    HW212939   3.093   0.411   7.247
 4125SOL     OW12940   3.022   0.207   7.063
 4125SOL    HW112941   3.022   0.271   7.140
 4125SOL    HW212942   3.050   0.255   6.980
 4126SOL     OW12943   1.870   1.326   5.786
 4126SOL    HW112944   1.777   1.347   5.755
 4126SOL    HW212945   1.880   1.227   5.799
 4127SOL     OW12946   2.864   0.796   6.824
 4127SOL    HW112947   2.905   0.764   6.910
 4127SOL    HW212948   2.768   0.769   6.821
 4128SOL     OW12949   1.902   0.544   6.700
 4128SOL    HW112950   1.987   0.511   6.659
 4128SOL    HW212951   1.915   0.559   6.798
 4129SOL     OW12952   2.051   0.520   7.308
 4129SOL    HW112953   2.110   0.480   7.238
 4129SOL    HW212954   1.993   0.591   7.267
 4130SOL     OW12955   3.231   0.950   7.246
 4130SOL    HW112956   3.270   1.039   7.266
 4130SOL    HW212957   3.241   0.930   7.149
 4131SOL     OW12958   2.677   0.572   5.911
 4131SOL    HW112959   2.684   0.483   5.865
 4131SOL    HW212960   2.583   0.606   5.903
 4132SOL     OW12961   3.519   0.604   6.792
 4132SOL    HW112962   3.481   0.535   6.854
 4132SOL    HW212963   3.601   0.568   6.748
 4133SOL     OW12964   2.533   0.464   6.855
 4133SOL    HW112965   2.499   0.375   6.825
 4133SOL    HW212966   2.559   0.518   6.775
 4134SOL     OW12967   2.792   1.678   7.051
 4134SOL    HW112968   2.768   1.660   6.956
 4134SOL    HW212969   2.822   1.772   7.061
 4135SOL     OW12970   2.335   0.500   5.777
 4135SOL    HW112971   2.396   0.580   5.781
 4135SOL    HW212972   2.240   0.531   5.784
 4136SOL     OW12973   2.021   1.137   7.052
 4136SOL    HW112974   2.043   1.076   7.128
 4136SOL    HW212975   2.031   1.088   6.966
 4137SOL     OW12976   3.209   1.059   6.820
 4137SOL    HW112977   3.233   0.996   6.746
 4137SOL    HW212978   3.119   1.099   6.802
 4138SOL     OW12979   3.164   0.855   5.895
 4138SOL    HW112980   3.078   0.824   5.937
 4138SOL    HW212981   3.160   0.841   5.796
 4139SOL     OW12982   3.621   1.747   6.740
 4139SOL    HW112983   3.682   1.777   6.667
 4139SOL    HW212984   3.583   1.658   6.718
 4140SOL     OW12985   3.114   1.731   6.714
 4140SOL    HW112986   3.198   1.736   6.660
 4140SOL    HW212987   3.091   1.635   6.732
 4141SOL     OW12988   1.945   1.258   6.608
 4141SOL    HW112989   1.940   1.257   6.708
 4141SOL    HW212990   1.862   1.217   6.570
 4142SOL     OW12991   3.588   0.135   6.109
 4142SOL    HW112992   3.661   0.118   6.042
 4142SOL    HW212993   3.557   0.048   6.147
 4143SOL     OW12994   3.250   1.573   6.063
 4143SOL    HW112995   3.317   1.585   5.989
 4143SOL    HW212996   3.210   1.662   6.086
 4144SOL     OW12997   3.142   0.927   6.258
 4144SOL    HW112998   3.202   0.846   6.260
 4144SOL    HW212999   3.182   0.996   6.198
 4145SOL     OW13000   2.692   1.273   7.008
 4145SOL    HW113001   2.687   1.306   7.103
 4145SOL    HW213002   2.606   1.292   6.962
 4146SOL     OW13003   2.534   1.616   5.740
 4146SOL    HW113004   2.543   1.626   5.641
 4146SOL    HW213005   2.494   1.527   5.761
 4147SOL     OW13006   3.512   1.720   6.980
 4147SOL    HW113007   3.565   1.730   6.896
 4147SOL    HW213008   3.485   1.810   7.014
 4148SOL     OW13009   3.703   0.175   6.549
 4148SOL    HW113010   3.742   0.090   6.513
 4148SOL    HW213011   3.605   0.177   6.530
 4149SOL     OW13012   2.125   0.326   6.306
 4149SOL    HW113013   2.046   0.377   6.272
 4149SOL    HW213014   2.116   0.311   6.404
 4150SOL     OW13015   3.056   1.612   5.617
 4150SOL    HW113016   3.062   1.519   5.654
 4150SOL    HW213017   2.997   1.612   5.537
 4151SOL     OW13018   2.684   1.002   6.958
 4151SOL    HW113019   2.724   1.001   6.866
 4151SOL    HW213020   2.694   1.094   6.998
 4152SOL     OW13021   2.778   0.910   5.877
 4152SOL    HW113022   2.841   0.948   5.809
 4152SOL    HW213023   2.818   0.827   5.916
 4153SOL     OW13024   3.366   1.607   5.630
 4153SOL    HW113025   3.274   1.644   5.637
 4153SOL    HW213026   3.404   1.627   5.540
 4154SOL     OW13027   2.234   1.288   7.076
 4154SOL    HW113028   2.221   1.381   7.042
 4154SOL    HW213029   2.150   1.236   7.063
 4155SOL     OW13030   3.476   1.292   6.875
 4155SOL    HW113031   3.536   1.295   6.955
 4155SOL    HW213032   3.401   1.356   6.888
 4156SOL     OW13033   2.901   1.098   6.282
 4156SOL    HW113034   2.831   1.051   6.336
 4156SOL    HW213035   2.960   1.030   6.239
 4157SOL     OW13036   2.876   0.236   6.557
 4157SOL    HW113037   2.868   0.200   6.464
 4157SOL    HW213038   2.874   0.160   6.622
 4158SOL     OW13039   3.571   0.385   6.967
 4158SOL    HW113040   3.644   0.454   6.971
 4158SOL    HW213041   3.599   0.310   6.908
 4159SOL     OW13042   2.117   1.348   5.876
 4159SOL    HW113043   2.021   1.349   5.849
 4159SOL    HW213044   2.129   1.401   5.960
 4160SOL     OW13045   1.967   1.013   7.312
 4160SOL    HW113046   1.890   0.980   7.366
 4160SOL    HW213047   2.052   0.983   7.354
 4161SOL     OW13048   2.534   0.203   7.075
 4161SOL    HW113049   2.624   0.187   7.035
 4161SOL    HW213050   2.542   0.208   7.174
 4162SOL     OW13051   1.937   0.345   5.619
 4162SOL    HW113052   1.845   0.317   5.590
 4162SOL    HW213053   1.968   0.422   5.563
 4163SOL     OW13054   3.302   0.856   6.984
 4163SOL    HW113055   3.245   0.908   6.921
 4163SOL    HW213056   3.398   0.868   6.960
 4164SOL     OW13057   1.934   0.166   5.904
 4164SOL    HW113058   1.917   0.249   5.850
 4164SOL    HW213059   2.024   0.129   5.882
 4165SOL     OW13060   3.045   1.335   5.705
 4165SOL    HW113061   2.946   1.324   5.707
 4165SOL    HW213062   3.079   1.350   5.798
 4166SOL     OW13063   2.475   0.842   7.017
 4166SOL    HW113064   2.531   0.923   7.000
 4166SOL    HW213065   2.534   0.762   7.020
 4167SOL     OW13066   3.355   1.767   6.545
 4167SOL    HW113067   3.388   1.831   6.476
 4167SOL    HW213068   3.421   1.761   6.620
 4168SOL     OW13069   2.578   0.565   7.294
 4168SOL    HW113070   2.597   0.630   7.368
 4168SOL    HW213071   2.638   0.485   7.303
 4169SOL     OW13072   3.312   1.220   7.219
 4169SOL    HW113073   3.303   1.210   7.318
 4169SOL    HW213074   3.408   1.213   7.193
 4170SOL     OW13075   3.536   0.883   6.840
 4170SOL    HW113076   3.509   0.794   6.803
 4170SOL    HW213077   3.537   0.951   6.767
 4171SOL     OW13078   3.087   0.325   6.035
 4171SOL    HW113079   3.152   0.251   6.024
 4171SOL    HW213080   3.107   0.375   6.119
 4172SOL     OW13081   2.456   0.745   6.238
 4172SOL    HW113082   2.506   0.830   6.219
 4172SOL    HW213083   2.368   0.747   6.190
 4173SOL     OW13084   3.639   0.342   7.228
 4173SOL    HW113085   3.622   0.373   7.134
 4173SOL    HW213086   3.555   0.305   7.266
 4174SOL     OW13087   3.592   0.934   7.103
 4174SOL    HW113088   3.630   1.025   7.118
 4174SOL    HW213089   3.584   0.917   7.004
 4175SOL     OW13090   2.721   1.374   5.602
 4175SOL    HW113091   2.675   1.389   5.690
 4175SOL    HW213092   2.765   1.459   5.572
 4176SOL     OW13093   2.721   0.956   6.447
 4176SOL    HW113094   2.775   0.887   6.495
 4176SOL    HW213095   2.689   1.025   6.513
 4177SOL     OW13096   2.945   0.984   5.673
 4177SOL    HW113097   2.922   1.037   5.591
 4177SOL    HW213098   3.026   0.928   5.654
 4178SOL     OW13099   3.723   1.569   6.437
 4178SOL    HW113100   3.652   1.557   6.367
 4178SOL    HW213101   3.724   1.490   6.497
 4179SOL     OW13102   1.941   1.240   6.239
 4179SOL    HW113103   1.940   1.193   6.327
 4179SOL    HW213104   2.023   1.212   6.188
 4180SOL     OW13105   2.534   1.391   7.210
 4180SOL    HW113106   2.456   1.341   7.248
 4180SOL    HW213107   2.531   1.486   7.241
 4181SOL     OW13108   3.686   0.192   6.813
 4181SOL    HW113109   3.682   0.102   6.857
 4181SOL    HW213110   3.689   0.181   6.714
 4182SOL     OW13111   2.290   0.424   6.106
 4182SOL    HW113112   2.320   0.352   6.044
 4182SOL    HW213113   2.251   0.384   6.189
 4183SOL     OW13114   3.567   1.487   6.690
 4183SOL    HW113115   3.474   1.462   6.663
 4183SOL    HW213116   3.593   1.437   6.772
 4184SOL     OW13117   2.179   0.547   6.866
 4184SOL    HW113118   2.217   0.488   6.938
 4184SOL    HW213119   2.219   0.521   6.778
 4185SOL     OW13120   2.674   1.586   6.273
 4185SOL    HW113121   2.706   1.596   6.179
 4185SOL    HW213122   2.595   1.524   6.275
 4186SOL     OW13123   3.286   0.214   6.698
 4186SOL    HW113124   3.338   0.149   6.753
 4186SOL    HW213125   3.237   0.277   6.759
 4187SOL     OW13126   2.863   0.034   6.740
 4187SOL    HW113127   2.800  -0.038   6.709
 4187SOL    HW213128   2.956  -0.002   6.740
 4188SOL     OW13129   2.632   1.330   5.887
 4188SOL    HW113130   2.586   1.243   5.904
 4188SOL    HW213131   2.723   1.327   5.928
 4189SOL     OW13132   3.214   0.052   5.754
 4189SOL    HW113133   3.249   0.011   5.670
 4189SOL    HW213134   3.124   0.014   5.774
 4190SOL     OW13135   3.162   0.453   6.277
 4190SOL    HW113136   3.103   0.533   6.281
 4190SOL    HW213137   3.177   0.418   6.370
 4191SOL     OW13138   3.455   0.221   6.468
 4191SOL    HW113139   3.371   0.220   6.522
 4191SOL    HW213140   3.457   0.304   6.412
 4192SOL     OW13141   1.901   1.077   5.886
 4192SOL    HW113142   2.000   1.066   5.877
 4192SOL    HW213143   1.861   0.991   5.918
 4193SOL     OW13144   2.737   1.646   5.923
 4193SOL    HW113145   2.660   1.611   5.869
 4193SOL    HW213146   2.705   1.717   5.985
 4194SOL     OW13147   2.092   0.628   7.561
 4194SOL    HW113148   1.999   0.626   7.598
 4194SOL    HW213149   2.093   0.589   7.469
 4195SOL     OW13150   2.087   0.275   8.444
 4195SOL    HW113151   2.122   0.258   8.536
 4195SOL    HW213152   1.999   0.230   8.432
 4196SOL     OW13153   1.881   0.368   8.095
 4196SOL    HW113154   1.799   0.411   8.134
 4196SOL    HW213155   1.853   0.295   8.032
 4197SOL     OW13156   2.431   1.275   8.613
 4197SOL    HW113157   2.338   1.268   8.576
 4197SOL    HW213158   2.442   1.364   8.657
 4198SOL     OW13159   3.417   1.511   8.151
 4198SOL    HW113160   3.360   1.495   8.232
 4198SOL    HW213161   3.358   1.521   8.071
 4199SOL     OW13162   2.997   0.703   8.165
 4199SOL    HW113163   3.054   0.781   8.140
 4199SOL    HW213164   2.937   0.729   8.241
 4200SOL     OW13165   3.617   0.607   7.679
 4200SOL    HW113166   3.605   0.594   7.580
 4200SOL    HW213167   3.587   0.526   7.728
 4201SOL     OW13168   2.630   1.144   8.471
 4201SOL    HW113169   2.552   1.161   8.531
 4201SOL    HW213170   2.664   1.231   8.435
 4202SOL     OW13171   2.712   0.798   9.271
 4202SOL    HW113172   2.708   0.874   9.336
 4202SOL    HW213173   2.734   0.834   9.180
 4203SOL     OW13174   2.547   1.012   8.113
 4203SOL    HW113175   2.616   0.996   8.183
 4203SOL    HW213176   2.474   1.069   8.151
 4204SOL     OW13177   2.548   1.161   9.251
 4204SOL    HW113178   2.608   1.240   9.265
 4204SOL    HW213179   2.462   1.192   9.210
 4205SOL     OW13180   2.197   1.435   8.509
 4205SOL    HW113181   2.119   1.404   8.456
 4205SOL    HW213182   2.255   1.493   8.452
 4206SOL     OW13183   3.322   1.505   8.787
 4206SOL    HW113184   3.346   1.599   8.813
 4206SOL    HW213185   3.306   1.451   8.869
 4207SOL     OW13186   2.300   0.392   8.947
 4207SOL    HW113187   2.382   0.336   8.956
 4207SOL    HW213188   2.219   0.334   8.951
 4208SOL     OW13189   3.465   0.447   8.185
 4208SOL    HW113190   3.391   0.493   8.135
 4208SOL    HW213191   3.516   0.515   8.238
 4209SOL     OW13192   2.093   1.713   7.931
 4209SOL    HW113193   2.127   1.790   7.985
 4209SOL    HW213194   2.137   1.713   7.841
 4210SOL     OW13195   2.989   1.341   9.138
 4210SOL    HW113196   3.036   1.341   9.226
 4210SOL    HW213197   2.941   1.254   9.127
 4211SOL     OW13198   2.092   1.434   7.986
 4211SOL    HW113199   2.066   1.530   7.986
 4211SOL    HW213200   2.021   1.380   8.031
 4212SOL     OW13201   2.102   1.091   8.334
 4212SOL    HW113202   2.116   1.007   8.386
 4212SOL    HW213203   2.047   1.155   8.389
 4213SOL     OW13204   2.482   1.786   8.887
 4213SOL    HW113205   2.390   1.769   8.922
 4213SOL    HW213206   2.510   1.878   8.913
 4214SOL     OW13207   2.468   0.964   7.571
 4214SOL    HW113208   2.475   1.048   7.517
 4214SOL    HW213209   2.514   0.977   7.659
 4215SOL     OW13210   3.456   0.114   8.928
 4215SOL    HW113211   3.438   0.181   8.856
 4215SOL    HW213212   3.453   0.160   9.017
 4216SOL     OW13213   1.984   0.643   8.011
 4216SOL    HW113214   1.939   0.555   8.028
 4216SOL    HW213215   1.983   0.697   8.095
 4217SOL     OW13216   3.704   1.767   7.807
 4217SOL    HW113217   3.758   1.738   7.887
 4217SOL    HW213218   3.734   1.857   7.778
 4218SOL     OW13219   3.551   0.922   8.060
 4218SOL    HW113220   3.646   0.893   8.068
 4218SOL    HW213221   3.543   0.987   7.985
 4219SOL     OW13222   3.503   1.108   7.880
 4219SOL    HW113223   3.589   1.110   7.828
 4219SOL    HW213224   3.517   1.155   7.968
 4220SOL     OW13225   1.975   0.737   9.045
 4220SOL    HW113226   2.063   0.724   9.090
 4220SOL    HW213227   1.962   0.834   9.023
 4221SOL     OW13228   2.475   1.365   8.174
 4221SOL    HW113229   2.426   1.278   8.183
 4221SOL    HW213230   2.452   1.408   8.087
 4222SOL     OW13231   3.155   1.228   8.871
 4222SOL    HW113232   3.192   1.155   8.813
 4222SOL    HW213233   3.207   1.233   8.956
 4223SOL     OW13234   2.671   0.004   7.950
 4223SOL    HW113235   2.711   0.095   7.941
 4223SOL    HW213236   2.571   0.012   7.956
 4224SOL     OW13237   2.059   0.976   8.712
 4224SOL    HW113238   2.148   0.931   8.698
 4224SOL    HW213239   1.986   0.911   8.693
 4225SOL     OW13240   3.387   0.999   7.638
 4225SOL    HW113241   3.324   0.923   7.651
 4225SOL    HW213242   3.435   1.017   7.724
 4226SOL     OW13243   3.049   1.792   9.064
 4226SOL    HW113244   3.073   1.852   8.988
 4226SOL    HW213245   3.056   1.697   9.034
 4227SOL     OW13246   2.179   0.251   9.249
 4227SOL    HW113247   2.250   0.322   9.255
 4227SOL    HW213248   2.091   0.290   9.277
 4228SOL     OW13249   3.328   1.417   8.401
 4228SOL    HW113250   3.269   1.423   8.481
 4228SOL    HW213251   3.313   1.329   8.355
 4229SOL     OW13252   3.529   1.714   8.020
 4229SOL    HW113253   3.488   1.691   7.932
 4229SOL    HW213254   3.511   1.640   8.085
 4230SOL     OW13255   2.460   0.729   7.718
 4230SOL    HW113256   2.484   0.798   7.650
 4230SOL    HW213257   2.382   0.762   7.772
 4231SOL     OW13258   3.143   0.345   8.392
 4231SOL    HW113259   3.057   0.295   8.379
 4231SOL    HW213260   3.205   0.291   8.448
 4232SOL     OW13261   3.438   1.662   7.755
 4232SOL    HW113262   3.527   1.708   7.758
 4232SOL    HW213263   3.417   1.638   7.660
 4233SOL     OW13264   2.669   0.605   8.913
 4233SOL    HW113265   2.622   0.602   9.002
 4233SOL    HW213266   2.618   0.550   8.847
 4234SOL     OW13267   3.256   0.469   9.122
 4234SOL    HW113268   3.236   0.512   9.210
 4234SOL    HW213269   3.334   0.407   9.131
 4235SOL     OW13270   2.835   0.890   9.020
 4235SOL    HW113271   2.881   0.806   8.991
 4235SOL    HW213272   2.779   0.924   8.945
 4236SOL     OW13273   2.853   0.410   8.690
 4236SOL    HW113274   2.776   0.444   8.744
 4236SOL    HW213275   2.819   0.359   8.611
 4237SOL     OW13276   2.903   0.701   7.877
 4237SOL    HW113277   2.929   0.697   7.973
 4237SOL    HW213278   2.818   0.650   7.863
 4238SOL     OW13279   1.938   0.811   8.237
 4238SOL    HW113280   2.037   0.799   8.246
 4238SOL    HW213281   1.914   0.906   8.258
 4239SOL     OW13282   2.727   0.348   7.643
 4239SOL    HW113283   2.786   0.411   7.594
 4239SOL    HW213284   2.746   0.254   7.614
 4240SOL     OW13285   3.581   0.585   9.279
 4240SOL    HW113286   3.555   0.674   9.243
 4240SOL    HW213287   3.579   0.517   9.206
 4241SOL     OW13288   3.224   1.144   7.993
 4241SOL    HW113289   3.307   1.115   7.945
 4241SOL    HW213290   3.175   1.211   7.937
 4242SOL     OW13291   2.412   0.196   8.333
 4242SOL    HW113292   2.407   0.191   8.433
 4242SOL    HW213293   2.414   0.292   8.304
 4243SOL     OW13294   2.870   1.456   7.925
 4243SOL    HW113295   2.824   1.528   7.873
 4243SOL    HW213296   2.866   1.476   8.023
 4244SOL     OW13297   2.213   1.801   8.301
 4244SOL    HW113298   2.263   1.715   8.307
 4244SOL    HW213299   2.278   1.878   8.298
 4245SOL     OW13300   3.657   1.066   8.321
 4245SOL    HW113301   3.595   1.051   8.245
 4245SOL    HW213302   3.605   1.077   8.406
 4246SOL     OW13303   3.089   1.550   8.954
 4246SOL    HW113304   3.095   1.473   9.018
 4246SOL    HW213305   3.037   1.524   8.874
 4247SOL     OW13306   2.183   0.943   7.690
 4247SOL    HW113307   2.265   0.982   7.648
 4247SOL    HW213308   2.156   0.861   7.641
 4248SOL     OW13309   3.320   0.735   8.176
 4248SOL    HW113310   3.315   0.670   8.251
 4248SOL    HW213311   3.400   0.794   8.189
 4249SOL     OW13312   2.323   1.266   9.175
 4249SOL    HW113313   2.273   1.267   9.089
 4249SOL    HW213314   2.260   1.248   9.251
 4250SOL     OW13315   2.973   1.776   7.685
 4250SOL    HW113316   2.913   1.714   7.735
 4250SOL    HW213317   3.004   1.732   7.600
 4251SOL     OW13318   2.064   0.285   8.946
 4251SOL    HW113319   1.984   0.345   8.933
 4251SOL    HW213320   2.054   0.236   9.032
 4252SOL     OW13321   3.494   1.377   7.529
 4252SOL    HW113322   3.462   1.471   7.519
 4252SOL    HW213323   3.418   1.314   7.517
 4253SOL     OW13324   3.262   0.107   7.874
 4253SOL    HW113325   3.238   0.070   7.784
 4253SOL    HW213326   3.361   0.123   7.878
 4254SOL     OW13327   2.111   1.785   8.689
 4254SOL    HW113328   2.168   1.720   8.739
 4254SOL    HW213329   2.095   1.752   8.596
 4255SOL     OW13330   2.802   1.698   8.352
 4255SOL    HW113331   2.882   1.641   8.373
 4255SOL    HW213332   2.753   1.658   8.275
 4256SOL     OW13333   2.244   0.700   7.928
 4256SOL    HW113334   2.289   0.610   7.925
 4256SOL    HW213335   2.150   0.689   7.961
 4257SOL     OW13336   3.409   0.222   9.177
 4257SOL    HW113337   3.404   0.259   9.269
 4257SOL    HW213338   3.337   0.153   9.165
 4258SOL     OW13339   2.476   0.122   7.565
 4258SOL    HW113340   2.574   0.100   7.572
 4258SOL    HW213341   2.445   0.105   7.472
 4259SOL     OW13342   2.643   0.264   9.197
 4259SOL    HW113343   2.710   0.203   9.240
 4259SOL    HW213344   2.570   0.283   9.262
 4260SOL     OW13345   2.750   1.514   8.643
 4260SOL    HW113346   2.727   1.489   8.549
 4260SOL    HW213347   2.811   1.445   8.682
 4261SOL     OW13348   3.213   0.590   8.881
 4261SOL    HW113349   3.241   0.547   8.966
 4261SOL    HW213350   3.238   0.686   8.882
 4262SOL     OW13351   2.665   1.402   8.372
 4262SOL    HW113352   2.755   1.416   8.330
 4262SOL    HW213353   2.594   1.404   8.301
 4263SOL     OW13354   2.784   0.503   8.347
 4263SOL    HW113355   2.759   0.494   8.251
 4263SOL    HW213356   2.832   0.421   8.378
 4264SOL     OW13357   2.401   0.064   7.960
 4264SOL    HW113358   2.320   0.065   8.018
 4264SOL    HW213359   2.404   0.147   7.905
 4265SOL     OW13360   3.296   1.188   7.489
 4265SOL    HW113361   3.328   1.112   7.546
 4265SOL    HW213362   3.204   1.215   7.519
 4266SOL     OW13363   2.159   0.035   7.619
 4266SOL    HW113364   2.208   0.119   7.598
 4266SOL    HW213365   2.221  -0.030   7.664
 4267SOL     OW13366   2.797   0.236   7.928
 4267SOL    HW113367   2.749   0.277   7.850
 4267SOL    HW213368   2.896   0.234   7.909
 4268SOL     OW13369   2.938   0.683   8.912
 4268SOL    HW113370   2.858   0.622   8.915
 4268SOL    HW213371   3.019   0.630   8.888
 4269SOL     OW13372   3.089   1.570   8.241
 4269SOL    HW113373   3.110   1.644   8.176
 4269SOL    HW213374   3.157   1.570   8.314
 4270SOL     OW13375   2.321   1.152   8.189
 4270SOL    HW113376   2.250   1.125   8.254
 4270SOL    HW213377   2.295   1.124   8.096
 4271SOL     OW13378   3.133   1.797   8.039
 4271SOL    HW113379   3.177   1.861   7.975
 4271SOL    HW213380   3.083   1.849   8.109
 4272SOL     OW13381   2.894   0.549   7.464
 4272SOL    HW113382   2.853   0.631   7.425
 4272SOL    HW213383   2.958   0.575   7.537
 4273SOL     OW13384   1.940   0.556   8.834
 4273SOL    HW113385   2.032   0.555   8.793
 4273SOL    HW213386   1.934   0.630   8.901
 4274SOL     OW13387   2.423   0.222   8.595
 4274SOL    HW113388   2.461   0.138   8.632
 4274SOL    HW213389   2.335   0.241   8.639
 4275SOL     OW13390   2.728   0.454   8.090
 4275SOL    HW113391   2.696   0.526   8.028
 4275SOL    HW213392   2.752   0.373   8.037
 4276SOL     OW13393   2.879   0.039   8.201
 4276SOL    HW113394   2.807   0.044   8.132
 4276SOL    HW213395   2.855  -0.030   8.270
 4277SOL     OW13396   3.291   1.173   8.315
 4277SOL    HW113397   3.236   1.089   8.308
 4277SOL    HW213398   3.317   1.202   8.223
 4278SOL     OW13399   3.328   0.590   8.440
 4278SOL    HW113400   3.298   0.495   8.447
 4278SOL    HW213401   3.401   0.606   8.506
 4279SOL     OW13402   3.719   0.833   7.825
 4279SOL    HW113403   3.761   0.769   7.889
 4279SOL    HW213404   3.681   0.782   7.747
 4280SOL     OW13405   3.526   1.280   8.105
 4280SOL    HW113406   3.625   1.288   8.119
 4280SOL    HW213407   3.481   1.364   8.136
 4281SOL     OW13408   3.252   0.575   7.526
 4281SOL    HW113409   3.198   0.554   7.607
 4281SOL    HW213410   3.343   0.534   7.535
 4282SOL     OW13411   2.389   0.256   7.776
 4282SOL    HW113412   2.416   0.197   7.701
 4282SOL    HW213413   2.389   0.351   7.745
 4283SOL     OW13414   3.616   1.223   9.036
 4283SOL    HW113415   3.707   1.184   9.023
 4283SOL    HW213416   3.624   1.319   9.060
 4284SOL     OW13417   2.926   1.347   8.788
 4284SOL    HW113418   2.846   1.324   8.843
 4284SOL    HW213419   3.009   1.321   8.837
 4285SOL     OW13420   3.454   1.629   9.073
 4285SOL    HW113421   3.481   1.663   8.983
 4285SOL    HW213422   3.533   1.591   9.119
 4286SOL     OW13423   2.973   1.195   8.548
 4286SOL    HW113424   2.933   1.239   8.629
 4286SOL    HW213425   2.932   1.232   8.465
 4287SOL     OW13426   3.500   1.099   8.527
 4287SOL    HW113427   3.505   1.180   8.586
 4287SOL    HW213428   3.414   1.101   8.476
 4288SOL     OW13429   2.777   0.089   8.850
 4288SOL    HW113430   2.802   0.069   8.755
 4288SOL    HW213431   2.849   0.145   8.892
 4289SOL     OW13432   2.842   1.116   9.167
 4289SOL    HW113433   2.743   1.122   9.177
 4289SOL    HW213434   2.865   1.036   9.111
 4290SOL     OW13435   2.567   1.050   7.816
 4290SOL    HW113436   2.553   1.057   7.915
 4290SOL    HW213437   2.651   0.999   7.798
 4291SOL     OW13438   2.272   0.813   8.699
 4291SOL    HW113439   2.358   0.825   8.749
 4291SOL    HW213440   2.230   0.726   8.726
 4292SOL     OW13441   3.136   0.386   8.710
 4292SOL    HW113442   3.157   0.460   8.774
 4292SOL    HW213443   3.047   0.403   8.667
 4293SOL     OW13444   1.926   1.564   8.779
 4293SOL    HW113445   1.880   1.646   8.745
 4293SOL    HW213446   2.024   1.583   8.788
 4294SOL     OW13447   2.229   1.100   7.949
 4294SOL    HW113448   2.222   1.183   7.893
 4294SOL    HW213449   2.233   1.020   7.889
 4295SOL     OW13450   2.428   0.537   8.313
 4295SOL    HW113451   2.440   0.603   8.239
 4295SOL    HW213452   2.474   0.571   8.396
 4296SOL     OW13453   3.114   1.348   7.836
 4296SOL    HW113454   3.164   1.425   7.876
 4296SOL    HW213455   3.019   1.350   7.868
 4297SOL     OW13456   3.134   1.445   8.590
 4297SOL    HW113457   3.181   1.458   8.677
 4297SOL    HW213458   3.068   1.371   8.599
 4298SOL     OW13459   3.444   0.639   7.920
 4298SOL    HW113460   3.413   0.700   7.993
 4298SOL    HW213461   3.494   0.691   7.851
 4299SOL     OW13462   2.216   1.510   8.777
 4299SOL    HW113463   2.195   1.466   8.690
 4299SOL    HW213464   2.313   1.536   8.780
 4300SOL     OW13465   2.264   0.751   9.046
 4300SOL    HW113466   2.332   0.806   8.999
 4300SOL    HW213467   2.304   0.663   9.073
 4301SOL     OW13468   3.449   0.779   9.118
 4301SOL    HW113469   3.357   0.817   9.113
 4301SOL    HW213470   3.509   0.826   9.053
 4302SOL     OW13471   2.875   0.105   9.218
 4302SOL    HW113472   2.881   0.190   9.166
 4302SOL    HW213473   2.907   0.029   9.161
 4303SOL     OW13474   2.366   0.050   9.188
 4303SOL    HW113475   2.324  -0.007   9.118
 4303SOL    HW213476   2.300   0.119   9.220
 4304SOL     OW13477   2.435   0.870   8.477
 4304SOL    HW113478   2.479   0.959   8.468
 4304SOL    HW213479   2.372   0.870   8.554
 4305SOL     OW13480   3.222   0.862   8.493
 4305SOL    HW113481   3.147   0.862   8.427
 4305SOL    HW213482   3.259   0.770   8.502
 4306SOL     OW13483   3.071   0.525   7.723
 4306SOL    HW113484   3.084   0.441   7.777
 4306SOL    HW213485   3.042   0.599   7.783
 4307SOL     OW13486   2.169   0.213   8.679
 4307SOL    HW113487   2.146   0.250   8.769
 4307SOL    HW213488   2.139   0.118   8.673
 4308SOL     OW13489   1.899   1.310   8.730
 4308SOL    HW113490   1.952   1.261   8.798
 4308SOL    HW213491   1.921   1.408   8.735
 4309SOL     OW13492   2.594   0.634   8.512
 4309SOL    HW113493   2.653   0.608   8.436
 4309SOL    HW213494   2.566   0.730   8.501
 4310SOL     OW13495   3.590   0.935   9.302
 4310SOL    HW113496   3.544   0.928   9.213
 4310SOL    HW213497   3.528   0.979   9.368
 4311SOL     OW13498   2.169   0.063   8.066
 4311SOL    HW113499   2.158   0.157   8.099
 4311SOL    HW213500   2.164   0.000   8.143
 4312SOL     OW13501   3.484   0.367   7.822
 4312SOL    HW113502   3.486   0.291   7.886
 4312SOL    HW213503   3.436   0.444   7.862
 4313SOL     OW13504   2.885   0.766   8.414
 4313SOL    HW113505   2.900   0.787   8.510
 4313SOL    HW213506   2.855   0.671   8.405
 4314SOL     OW13507   2.842   1.573   9.148
 4314SOL    HW113508   2.822   1.617   9.060
 4314SOL    HW213509   2.881   1.482   9.132
 4315SOL     OW13510   3.721   1.518   9.053
 4315SOL    HW113511   3.735   1.545   8.958
 4315SOL    HW213512   3.804   1.540   9.106
 4316SOL     OW13513   2.212   0.898   9.252
 4316SOL    HW113514   2.288   0.942   9.300
 4316SOL    HW213515   2.247   0.851   9.170
 4317SOL     OW13516   3.402   0.274   7.573
 4317SOL    HW113517   3.341   0.199   7.596
 4317SOL    HW213518   3.424   0.326   7.656
 4318SOL     OW13519   3.165   0.838   7.490
 4318SOL    HW113520   3.199   0.745   7.505
 4318SOL    HW213521   3.183   0.865   7.395
 4319SOL     OW13522   2.930   1.333   8.297
 4319SOL    HW113523   2.937   1.249   8.242
 4319SOL    HW213524   2.992   1.402   8.261
 4320SOL     OW13525   2.181   0.810   8.397
 4320SOL    HW113526   2.274   0.846   8.402
 4320SOL    HW213527   2.175   0.725   8.449
 4321SOL     OW13528   2.201   0.509   8.454
 4321SOL    HW113529   2.149   0.426   8.437
 4321SOL    HW213530   2.278   0.514   8.390
 4322SOL     OW13531   3.000   0.380   9.126
 4322SOL    HW113532   2.955   0.443   9.190
 4322SOL    HW213533   3.093   0.411   9.109
 4323SOL     OW13534   3.022   0.207   8.925
 4323SOL    HW113535   3.022   0.271   9.002
 4323SOL    HW213536   3.050   0.255   8.842
 4324SOL     OW13537   1.950   1.801   8.375
 4324SOL    HW113538   1.908   1.715   8.348
 4324SOL    HW213539   2.044   1.804   8.341
 4325SOL     OW13540   2.366   1.568   8.358
 4325SOL    HW113541   2.432   1.642   8.367
 4325SOL    HW213542   2.410   1.489   8.316
 4326SOL     OW13543   2.864   0.796   8.686
 4326SOL    HW113544   2.905   0.764   8.772
 4326SOL    HW213545   2.768   0.769   8.683
 4327SOL     OW13546   1.902   0.544   8.562
 4327SOL    HW113547   1.987   0.511   8.521
 4327SOL    HW213548   1.915   0.559   8.660
 4328SOL     OW13549   2.051   0.520   9.170
 4328SOL    HW113550   2.110   0.480   9.100
 4328SOL    HW213551   1.993   0.591   9.129
 4329SOL     OW13552   3.231   0.950   9.108
 4329SOL    HW113553   3.270   1.039   9.128
 4329SOL    HW213554   3.241   0.930   9.011
 4330SOL     OW13555   2.677   0.572   7.773
 4330SOL    HW113556   2.684   0.483   7.727
 4330SOL    HW213557   2.583   0.606   7.765
 4331SOL     OW13558   3.519   0.604   8.654
 4331SOL    HW113559   3.481   0.535   8.716
 4331SOL    HW213560   3.601   0.568   8.610
 4332SOL     OW13561   2.114   1.564   9.192
 4332SOL    HW113562   2.084   1.621   9.268
 4332SOL    HW213563   2.107   1.467   9.218
 4333SOL     OW13564   2.533   0.464   8.717
 4333SOL    HW113565   2.499   0.375   8.687
 4333SOL    HW213566   2.559   0.518   8.637
 4334SOL     OW13567   2.792   1.678   8.913
 4334SOL    HW113568   2.768   1.660   8.818
 4334SOL    HW213569   2.822   1.772   8.923
 4335SOL     OW13570   2.335   0.500   7.639
 4335SOL    HW113571   2.396   0.580   7.643
 4335SOL    HW213572   2.240   0.531   7.646
 4336SOL     OW13573   2.021   1.137   8.914
 4336SOL    HW113574   2.043   1.076   8.990
 4336SOL    HW213575   2.031   1.088   8.828
 4337SOL     OW13576   3.209   1.059   8.682
 4337SOL    HW113577   3.233   0.996   8.608
 4337SOL    HW213578   3.119   1.099   8.664
 4338SOL     OW13579   3.164   0.855   7.757
 4338SOL    HW113580   3.078   0.824   7.799
 4338SOL    HW213581   3.160   0.841   7.658
 4339SOL     OW13582   3.621   1.747   8.602
 4339SOL    HW113583   3.682   1.777   8.529
 4339SOL    HW213584   3.583   1.658   8.580
 4340SOL     OW13585   3.114   1.731   8.576
 4340SOL    HW113586   3.198   1.736   8.522
 4340SOL    HW213587   3.091   1.635   8.594
 4341SOL     OW13588   1.945   1.258   8.470
 4341SOL    HW113589   1.940   1.257   8.570
 4341SOL    HW213590   1.862   1.217   8.432
 4342SOL     OW13591   2.550   1.662   9.164
 4342SOL    HW113592   2.494   1.743   9.173
 4342SOL    HW213593   2.602   1.666   9.078
 4343SOL     OW13594   3.588   0.135   7.971
 4343SOL    HW113595   3.661   0.118   7.904
 4343SOL    HW213596   3.557   0.048   8.009
 4344SOL     OW13597   3.250   1.573   7.925
 4344SOL    HW113598   3.317   1.585   7.851
 4344SOL    HW213599   3.210   1.662   7.948
 4345SOL     OW13600   1.992   1.794   9.299
 4345SOL    HW113601   1.951   1.720   9.352
 4345SOL    HW213602   2.056   1.845   9.357
 4346SOL     OW13603   3.142   0.927   8.120
 4346SOL    HW113604   3.202   0.846   8.122
 4346SOL    HW213605   3.182   0.996   8.060
 4347SOL     OW13606   2.692   1.273   8.870
 4347SOL    HW113607   2.687   1.306   8.965
 4347SOL    HW213608   2.606   1.292   8.824
 4348SOL     OW13609   3.512   1.720   8.842
 4348SOL    HW113610   3.565   1.730   8.758
 4348SOL    HW213611   3.485   1.810   8.876
 4349SOL     OW13612   3.703   0.175   8.411
 4349SOL    HW113613   3.742   0.090   8.375
 4349SOL    HW213614   3.605   0.177   8.392
 4350SOL     OW13615   2.125   0.326   8.168
 4350SOL    HW113616   2.046   0.377   8.134
 4350SOL    HW213617   2.116   0.311   8.266
 4351SOL     OW13618   3.056   1.612   7.479
 4351SOL    HW113619   3.062   1.519   7.516
 4351SOL    HW213620   2.997   1.612   7.399
 4352SOL     OW13621   2.684   1.002   8.820
 4352SOL    HW113622   2.724   1.001   8.728
 4352SOL    HW213623   2.694   1.094   8.860
 4353SOL     OW13624   2.778   0.910   7.739
 4353SOL    HW113625   2.841   0.948   7.671
 4353SOL    HW213626   2.818   0.827   7.778
 4354SOL     OW13627   3.366   1.607   7.492
 4354SOL    HW113628   3.274   1.644   7.499
 4354SOL    HW213629   3.404   1.627   7.402
 4355SOL     OW13630   2.234   1.288   8.938
 4355SOL    HW113631   2.221   1.381   8.904
 4355SOL    HW213632   2.150   1.236   8.925
 4356SOL     OW13633   3.476   1.292   8.737
 4356SOL    HW113634   3.536   1.295   8.817
 4356SOL    HW213635   3.401   1.356   8.750
 4357SOL     OW13636   2.901   1.098   8.144
 4357SOL    HW113637   2.831   1.051   8.198
 4357SOL    HW213638   2.960   1.030   8.101
 4358SOL     OW13639   2.876   0.236   8.419
 4358SOL    HW113640   2.868   0.200   8.326
 4358SOL    HW213641   2.874   0.160   8.484
 4359SOL     OW13642   3.571   0.385   8.829
 4359SOL    HW113643   3.644   0.454   8.833
 4359SOL    HW213644   3.599   0.310   8.770
 4360SOL     OW13645   1.967   1.013   9.174
 4360SOL    HW113646   1.890   0.980   9.228
 4360SOL    HW213647   2.052   0.983   9.216
 4361SOL     OW13648   2.534   0.203   8.937
 4361SOL    HW113649   2.624   0.187   8.897
 4361SOL    HW213650   2.542   0.208   9.036
 4362SOL     OW13651   1.937   0.345   7.481
 4362SOL    HW113652   1.845   0.317   7.452
 4362SOL    HW213653   1.968   0.422   7.425
 4363SOL     OW13654   3.302   0.856   8.846
 4363SOL    HW113655   3.245   0.908   8.783
 4363SOL    HW213656   3.398   0.868   8.822
 4364SOL     OW13657   1.934   0.166   7.766
 4364SOL    HW113658   1.917   0.249   7.712
 4364SOL    HW213659   2.024   0.129   7.744
 4365SOL     OW13660   3.045   1.335   7.567
 4365SOL    HW113661   2.946   1.324   7.569
 4365SOL    HW213662   3.079   1.350   7.660
 4366SOL     OW13663   2.475   0.842   8.879
 4366SOL    HW113664   2.531   0.923   8.862
 4366SOL    HW213665   2.534   0.762   8.882
 4367SOL     OW13666   3.355   1.767   8.407
 4367SOL    HW113667   3.388   1.831   8.338
 4367SOL    HW213668   3.421   1.761   8.482
 4368SOL     OW13669   2.578   0.565   9.156
 4368SOL    HW113670   2.597   0.630   9.230
 4368SOL    HW213671   2.638   0.485   9.165
 4369SOL     OW13672   3.312   1.220   9.081
 4369SOL    HW113673   3.303   1.210   9.180
 4369SOL    HW213674   3.408   1.213   9.055
 4370SOL     OW13675   2.252   1.741   9.008
 4370SOL    HW113676   2.161   1.782   9.006
 4370SOL    HW213677   2.245   1.647   9.040
 4371SOL     OW13678   3.536   0.883   8.702
 4371SOL    HW113679   3.509   0.794   8.665
 4371SOL    HW213680   3.537   0.951   8.629
 4372SOL     OW13681   3.087   0.325   7.897
 4372SOL    HW113682   3.152   0.251   7.886
 4372SOL    HW213683   3.107   0.375   7.981
 4373SOL     OW13684   2.456   0.745   8.100
 4373SOL    HW113685   2.506   0.830   8.081
 4373SOL    HW213686   2.368   0.747   8.052
 4374SOL     OW13687   3.639   0.342   9.090
 4374SOL    HW113688   3.622   0.373   8.996
 4374SOL    HW213689   3.555   0.305   9.128
 4375SOL     OW13690   3.592   0.934   8.965
 4375SOL    HW113691   3.630   1.025   8.980
 4375SOL    HW213692   3.584   0.917   8.866
 4376SOL     OW13693   2.721   1.374   7.464
 4376SOL    HW113694   2.675   1.389   7.552
 4376SOL    HW213695   2.765   1.459   7.434
 4377SOL     OW13696   2.523   1.790   8.401
 4377SOL    HW113697   2.477   1.878   8.388
 4377SOL    HW213698   2.622   1.802   8.394
 4378SOL     OW13699   2.721   0.956   8.309
 4378SOL    HW113700   2.775   0.887   8.357
 4378SOL    HW213701   2.689   1.025   8.375
 4379SOL     OW13702   2.945   0.984   7.535
 4379SOL    HW113703   2.922   1.037   7.453
 4379SOL    HW213704   3.026   0.928   7.516
 4380SOL     OW13705   3.723   1.569   8.299
 4380SOL    HW113706   3.652   1.557   8.229
 4380SOL    HW213707   3.724   1.490   8.359
 4381SOL     OW13708   2.083   1.314   9.292
 4381SOL    HW113709   2.018   1.241   9.271
 4381SOL    HW213710   2.087   1.328   9.390
 4382SOL     OW13711   1.941   1.240   8.101
 4382SOL    HW113712   1.940   1.193   8.189
 4382SOL    HW213713   2.023   1.212   8.050
 4383SOL     OW13714   2.534   1.391   9.072
 4383SOL    HW113715   2.456   1.341   9.110
 4383SOL    HW213716   2.531   1.486   9.103
 4384SOL     OW13717   3.686   0.192   8.675
 4384SOL    HW113718   3.682   0.102   8.719
 4384SOL    HW213719   3.689   0.181   8.576
 4385SOL     OW13720   2.290   0.424   7.968
 4385SOL    HW113721   2.320   0.352   7.906
 4385SOL    HW213722   2.251   0.384   8.051
 4386SOL     OW13723   3.567   1.487   8.552
 4386SOL    HW113724   3.474   1.462   8.525
 4386SOL    HW213725   3.593   1.437   8.634
 4387SOL     OW13726   2.179   0.547   8.728
 4387SOL    HW113727   2.217   0.488   8.800
 4387SOL    HW213728   2.219   0.521   8.640
 4388SOL     OW13729   2.674   1.586   8.135
 4388SOL    HW113730   2.706   1.596   8.041
 4388SOL    HW213731   2.595   1.524   8.137
 4389SOL     OW13732   3.286   0.214   8.560
 4389SOL    HW113733   3.338   0.149   8.615
 4389SOL    HW213734   3.237   0.277   8.621
 4390SOL     OW13735   2.863   0.034   8.602
 4390SOL    HW113736   2.800  -0.038   8.571
 4390SOL    HW213737   2.956  -0.002   8.602
 4391SOL     OW13738   2.480   1.567   8.732
 4391SOL    HW113739   2.475   1.649   8.789
 4391SOL    HW213740   2.569   1.564   8.687
 4392SOL     OW13741   3.214   0.052   7.616
 4392SOL    HW113742   3.249   0.011   7.532
 4392SOL    HW213743   3.124   0.014   7.636
 4393SOL     OW13744   3.162   0.453   8.139
 4393SOL    HW113745   3.103   0.533   8.143
 4393SOL    HW213746   3.177   0.418   8.232
 4394SOL     OW13747   3.455   0.221   8.330
 4394SOL    HW113748   3.371   0.220   8.384
 4394SOL    HW213749   3.457   0.304   8.274
 4395SOL     OW13750   1.901   1.077   7.748
 4395SOL    HW113751   2.000   1.066   7.739
 4395SOL    HW213752   1.861   0.991   7.780
 4396SOL     OW13753   2.737   1.646   7.785
 4396SOL    HW113754   2.660   1.611   7.731
 4396SOL    HW213755   2.705   1.717   7.847
 4397SOL     OW13756   2.092   0.628   9.423
 4397SOL    HW113757   1.999   0.626   9.460
 4397SOL    HW213758   2.093   0.589   9.331
 4398SOL     OW13759   2.087   0.275  10.306
 4398SOL    HW113760   2.122   0.258  10.398
 4398SOL    HW213761   1.999   0.230  10.294
 4399SOL     OW13762   1.881   0.368   9.957
 4399SOL    HW113763   1.799   0.411   9.996
 4399SOL    HW213764   1.853   0.295   9.894
 4400SOL     OW13765   2.431   1.275  10.475
 4400SOL    HW113766   2.338   1.268  10.438
 4400SOL    HW213767   2.442   1.364  10.519
 4401SOL     OW13768   3.417   1.511  10.013
 4401SOL    HW113769   3.360   1.495  10.094
 4401SOL    HW213770   3.358   1.521   9.933
 4402SOL     OW13771   2.997   0.703  10.027
 4402SOL    HW113772   3.054   0.781  10.002
 4402SOL    HW213773   2.937   0.729  10.103
 4403SOL     OW13774   3.617   0.607   9.541
 4403SOL    HW113775   3.605   0.594   9.442
 4403SOL    HW213776   3.587   0.526   9.590
 4404SOL     OW13777   2.630   1.144  10.333
 4404SOL    HW113778   2.552   1.161  10.393
 4404SOL    HW213779   2.664   1.231  10.297
 4405SOL     OW13780   2.712   0.798  11.133
 4405SOL    HW113781   2.708   0.874  11.198
 4405SOL    HW213782   2.734   0.834  11.042
 4406SOL     OW13783   2.547   1.012   9.975
 4406SOL    HW113784   2.616   0.996  10.045
 4406SOL    HW213785   2.474   1.069  10.013
 4407SOL     OW13786   2.548   1.161  11.113
 4407SOL    HW113787   2.608   1.240  11.127
 4407SOL    HW213788   2.462   1.192  11.072
 4408SOL     OW13789   2.197   1.435  10.371
 4408SOL    HW113790   2.119   1.404  10.318
 4408SOL    HW213791   2.255   1.493  10.314
 4409SOL     OW13792   3.322   1.505  10.649
 4409SOL    HW113793   3.346   1.599  10.675
 4409SOL    HW213794   3.306   1.451  10.731
 4410SOL     OW13795   2.300   0.392  10.809
 4410SOL    HW113796   2.382   0.336  10.818
 4410SOL    HW213797   2.219   0.334  10.813
 4411SOL     OW13798   3.465   0.447  10.047
 4411SOL    HW113799   3.391   0.493   9.997
 4411SOL    HW213800   3.516   0.515  10.100
 4412SOL     OW13801   2.093   1.713   9.793
 4412SOL    HW113802   2.127   1.790   9.847
 4412SOL    HW213803   2.137   1.713   9.703
 4413SOL     OW13804   2.989   1.341  11.000
 4413SOL    HW113805   3.036   1.341  11.088
 4413SOL    HW213806   2.941   1.254  10.989
 4414SOL     OW13807   2.092   1.434   9.848
 4414SOL    HW113808   2.066   1.530   9.848
 4414SOL    HW213809   2.021   1.380   9.893
 4415SOL     OW13810   2.102   1.091  10.196
 4415SOL    HW113811   2.116   1.007  10.248
 4415SOL    HW213812   2.047   1.155  10.251
 4416SOL     OW13813   2.482   1.786  10.749
 4416SOL    HW113814   2.390   1.769  10.784
 4416SOL    HW213815   2.510   1.878  10.775
 4417SOL     OW13816   2.468   0.964   9.433
 4417SOL    HW113817   2.475   1.048   9.379
 4417SOL    HW213818   2.514   0.977   9.521
 4418SOL     OW13819   3.456   0.114  10.790
 4418SOL    HW113820   3.438   0.181  10.718
 4418SOL    HW213821   3.453   0.160  10.879
 4419SOL     OW13822   1.984   0.643   9.873
 4419SOL    HW113823   1.939   0.555   9.890
 4419SOL    HW213824   1.983   0.697   9.957
 4420SOL     OW13825   3.704   1.767   9.669
 4420SOL    HW113826   3.758   1.738   9.749
 4420SOL    HW213827   3.734   1.857   9.640
 4421SOL     OW13828   1.889   1.596   9.427
 4421SOL    HW113829   1.870   1.500   9.448
 4421SOL    HW213830   1.856   1.654   9.502
 4422SOL     OW13831   3.551   0.922   9.922
 4422SOL    HW113832   3.646   0.893   9.930
 4422SOL    HW213833   3.543   0.987   9.847
 4423SOL     OW13834   3.503   1.108   9.742
 4423SOL    HW113835   3.589   1.110   9.690
 4423SOL    HW213836   3.517   1.155   9.830
 4424SOL     OW13837   1.975   0.737  10.907
 4424SOL    HW113838   2.063   0.724  10.952
 4424SOL    HW213839   1.962   0.834  10.885
 4425SOL     OW13840   2.475   1.365  10.036
 4425SOL    HW113841   2.426   1.278  10.045
 4425SOL    HW213842   2.452   1.408   9.949
 4426SOL     OW13843   3.155   1.228  10.733
 4426SOL    HW113844   3.192   1.155  10.675
 4426SOL    HW213845   3.207   1.233  10.818
 4427SOL     OW13846   2.671   0.004   9.812
 4427SOL    HW113847   2.711   0.095   9.803
 4427SOL    HW213848   2.571   0.012   9.818
 4428SOL     OW13849   2.059   0.976  10.574
 4428SOL    HW113850   2.148   0.931  10.560
 4428SOL    HW213851   1.986   0.911  10.555
 4429SOL     OW13852   3.387   0.999   9.500
 4429SOL    HW113853   3.324   0.923   9.513
 4429SOL    HW213854   3.435   1.017   9.586
 4430SOL     OW13855   3.049   1.792  10.926
 4430SOL    HW113856   3.073   1.852  10.850
 4430SOL    HW213857   3.056   1.697  10.896
 4431SOL     OW13858   2.179   0.251  11.111
 4431SOL    HW113859   2.250   0.322  11.117
 4431SOL    HW213860   2.091   0.290  11.139
 4432SOL     OW13861   3.328   1.417  10.263
 4432SOL    HW113862   3.269   1.423  10.343
 4432SOL    HW213863   3.313   1.329  10.217
 4433SOL     OW13864   3.529   1.714   9.882
 4433SOL    HW113865   3.488   1.691   9.794
 4433SOL    HW213866   3.511   1.640   9.947
 4434SOL     OW13867   2.460   0.729   9.580
 4434SOL    HW113868   2.484   0.798   9.512
 4434SOL    HW213869   2.382   0.762   9.634
 4435SOL     OW13870   3.143   0.345  10.254
 4435SOL    HW113871   3.057   0.295  10.241
 4435SOL    HW213872   3.205   0.291  10.310
 4436SOL     OW13873   3.438   1.662   9.617
 4436SOL    HW113874   3.527   1.708   9.620
 4436SOL    HW213875   3.417   1.638   9.522
 4437SOL     OW13876   2.669   0.605  10.775
 4437SOL    HW113877   2.622   0.602  10.864
 4437SOL    HW213878   2.618   0.550  10.709
 4438SOL     OW13879   3.256   0.469  10.984
 4438SOL    HW113880   3.236   0.512  11.072
 4438SOL    HW213881   3.334   0.407  10.993
 4439SOL     OW13882   2.835   0.890  10.882
 4439SOL    HW113883   2.881   0.806  10.853
 4439SOL    HW213884   2.779   0.924  10.807
 4440SOL     OW13885   2.853   0.410  10.552
 4440SOL    HW113886   2.776   0.444  10.606
 4440SOL    HW213887   2.819   0.359  10.473
 4441SOL     OW13888   2.903   0.701   9.739
 4441SOL    HW113889   2.929   0.697   9.835
 4441SOL    HW213890   2.818   0.650   9.725
 4442SOL     OW13891   1.938   0.811  10.099
 4442SOL    HW113892   2.037   0.799  10.108
 4442SOL    HW213893   1.914   0.906  10.120
 4443SOL     OW13894   2.727   0.348   9.505
 4443SOL    HW113895   2.786   0.411   9.456
 4443SOL    HW213896   2.746   0.254   9.476
 4444SOL     OW13897   3.581   0.585  11.141
 4444SOL    HW113898   3.555   0.674  11.105
 4444SOL    HW213899   3.579   0.517  11.068
 4445SOL     OW13900   3.224   1.144   9.855
 4445SOL    HW113901   3.307   1.115   9.807
 4445SOL    HW213902   3.175   1.211   9.799
 4446SOL     OW13903   2.412   0.196  10.195
 4446SOL    HW113904   2.407   0.191  10.295
 4446SOL    HW213905   2.414   0.292  10.166
 4447SOL     OW13906   2.870   1.456   9.787
 4447SOL    HW113907   2.824   1.528   9.735
 4447SOL    HW213908   2.866   1.476   9.885
 4448SOL     OW13909   2.213   1.801  10.163
 4448SOL    HW113910   2.263   1.715  10.169
 4448SOL    HW213911   2.278   1.878  10.160
 4449SOL     OW13912   3.657   1.066  10.183
 4449SOL    HW113913   3.595   1.051  10.107
 4449SOL    HW213914   3.605   1.077  10.268
 4450SOL     OW13915   3.089   1.550  10.816
 4450SOL    HW113916   3.095   1.473  10.880
 4450SOL    HW213917   3.037   1.524  10.736
 4451SOL     OW13918   2.183   0.943   9.552
 4451SOL    HW113919   2.265   0.982   9.510
 4451SOL    HW213920   2.156   0.861   9.503
 4452SOL     OW13921   3.320   0.735  10.038
 4452SOL    HW113922   3.315   0.670  10.113
 4452SOL    HW213923   3.400   0.794  10.051
 4453SOL     OW13924   2.323   1.266  11.037
 4453SOL    HW113925   2.273   1.267  10.951
 4453SOL    HW213926   2.260   1.248  11.113
 4454SOL     OW13927   2.973   1.776   9.547
 4454SOL    HW113928   2.913   1.714   9.597
 4454SOL    HW213929   3.004   1.732   9.462
 4455SOL     OW13930   2.064   0.285  10.808
 4455SOL    HW113931   1.984   0.345  10.795
 4455SOL    HW213932   2.054   0.236  10.894
 4456SOL     OW13933   3.494   1.377   9.391
 4456SOL    HW113934   3.462   1.471   9.381
 4456SOL    HW213935   3.418   1.314   9.379
 4457SOL     OW13936   2.326   1.743   9.633
 4457SOL    HW113937   2.359   1.782   9.719
 4457SOL    HW213938   2.402   1.736   9.568
 4458SOL     OW13939   3.262   0.107   9.736
 4458SOL    HW113940   3.238   0.070   9.646
 4458SOL    HW213941   3.361   0.123   9.740
 4459SOL     OW13942   2.111   1.785  10.551
 4459SOL    HW113943   2.168   1.720  10.601
 4459SOL    HW213944   2.095   1.752  10.458
 4460SOL     OW13945   2.802   1.698  10.214
 4460SOL    HW113946   2.882   1.641  10.235
 4460SOL    HW213947   2.753   1.658  10.137
 4461SOL     OW13948   2.244   0.700   9.790
 4461SOL    HW113949   2.289   0.610   9.787
 4461SOL    HW213950   2.150   0.689   9.823
 4462SOL     OW13951   3.409   0.222  11.039
 4462SOL    HW113952   3.404   0.259  11.131
 4462SOL    HW213953   3.337   0.153  11.027
 4463SOL     OW13954   2.476   0.122   9.427
 4463SOL    HW113955   2.574   0.100   9.434
 4463SOL    HW213956   2.445   0.105   9.334
 4464SOL     OW13957   2.643   0.264  11.059
 4464SOL    HW113958   2.710   0.203  11.102
 4464SOL    HW213959   2.570   0.283  11.124
 4465SOL     OW13960   2.750   1.514  10.505
 4465SOL    HW113961   2.727   1.489  10.411
 4465SOL    HW213962   2.811   1.445  10.544
 4466SOL     OW13963   3.213   0.590  10.743
 4466SOL    HW113964   3.241   0.547  10.828
 4466SOL    HW213965   3.238   0.686  10.744
 4467SOL     OW13966   2.665   1.402  10.234
 4467SOL    HW113967   2.755   1.416  10.192
 4467SOL    HW213968   2.594   1.404  10.163
 4468SOL     OW13969   2.784   0.503  10.209
 4468SOL    HW113970   2.759   0.494  10.113
 4468SOL    HW213971   2.832   0.421  10.240
 4469SOL     OW13972   2.401   0.064   9.822
 4469SOL    HW113973   2.320   0.065   9.880
 4469SOL    HW213974   2.404   0.147   9.767
 4470SOL     OW13975   3.296   1.188   9.351
 4470SOL    HW113976   3.328   1.112   9.408
 4470SOL    HW213977   3.204   1.215   9.381
 4471SOL     OW13978   2.159   0.035   9.481
 4471SOL    HW113979   2.208   0.119   9.460
 4471SOL    HW213980   2.221  -0.030   9.526
 4472SOL     OW13981   2.797   0.236   9.790
 4472SOL    HW113982   2.749   0.277   9.712
 4472SOL    HW213983   2.896   0.234   9.771
 4473SOL     OW13984   2.938   0.683  10.774
 4473SOL    HW113985   2.858   0.622  10.777
 4473SOL    HW213986   3.019   0.630  10.750
 4474SOL     OW13987   3.089   1.570  10.103
 4474SOL    HW113988   3.110   1.644  10.038
 4474SOL    HW213989   3.157   1.570  10.176
 4475SOL     OW13990   2.321   1.152  10.051
 4475SOL    HW113991   2.250   1.125  10.116
 4475SOL    HW213992   2.295   1.124   9.958
 4476SOL     OW13993   3.133   1.797   9.901
 4476SOL    HW113994   3.177   1.861   9.837
 4476SOL    HW213995   3.083   1.849   9.971
 4477SOL     OW13996   2.894   0.549   9.326
 4477SOL    HW113997   2.853   0.631   9.287
 4477SOL    HW213998   2.958   0.575   9.399
 4478SOL     OW13999   1.940   0.556  10.696
 4478SOL    HW114000   2.032   0.555  10.655
 4478SOL    HW214001   1.934   0.630  10.763
 4479SOL     OW14002   2.423   0.222  10.457
 4479SOL    HW114003   2.461   0.138  10.494
 4479SOL    HW214004   2.335   0.241  10.501
 4480SOL     OW14005   2.728   0.454   9.952
 4480SOL    HW114006   2.696   0.526   9.890
 4480SOL    HW214007   2.752   0.373   9.899
 4481SOL     OW14008   2.879   0.039  10.063
 4481SOL    HW114009   2.807   0.044   9.994
 4481SOL    HW214010   2.855  -0.030  10.132
 4482SOL     OW14011   3.291   1.173  10.177
 4482SOL    HW114012   3.236   1.089  10.170
 4482SOL    HW214013   3.317   1.202  10.085
 4483SOL     OW14014   3.328   0.590  10.302
 4483SOL    HW114015   3.298   0.495  10.309
 4483SOL    HW214016   3.401   0.606  10.368
 4484SOL     OW14017   3.719   0.833   9.687
 4484SOL    HW114018   3.761   0.769   9.751
 4484SOL    HW214019   3.681   0.782   9.609
 4485SOL     OW14020   2.350   1.385   9.484
 4485SOL    HW114021   2.263   1.370   9.531
 4485SOL    HW214022   2.333   1.411   9.389
 4486SOL     OW14023   3.526   1.280   9.967
 4486SOL    HW114024   3.625   1.288   9.981
 4486SOL    HW214025   3.481   1.364   9.998
 4487SOL     OW14026   3.252   0.575   9.388
 4487SOL    HW114027   3.198   0.554   9.469
 4487SOL    HW214028   3.343   0.534   9.397
 4488SOL     OW14029   2.389   0.256   9.638
 4488SOL    HW114030   2.416   0.197   9.563
 4488SOL    HW214031   2.389   0.351   9.607
 4489SOL     OW14032   3.616   1.223  10.898
 4489SOL    HW114033   3.707   1.184  10.885
 4489SOL    HW214034   3.624   1.319  10.922
 4490SOL     OW14035   2.926   1.347  10.650
 4490SOL    HW114036   2.846   1.324  10.705
 4490SOL    HW214037   3.009   1.321  10.699
 4491SOL     OW14038   3.454   1.629  10.935
 4491SOL    HW114039   3.481   1.663  10.845
 4491SOL    HW214040   3.533   1.591  10.981
 4492SOL     OW14041   2.973   1.195  10.410
 4492SOL    HW114042   2.933   1.239  10.491
 4492SOL    HW214043   2.932   1.232  10.327
 4493SOL     OW14044   3.500   1.099  10.389
 4493SOL    HW114045   3.505   1.180  10.448
 4493SOL    HW214046   3.414   1.101  10.338
 4494SOL     OW14047   2.777   0.089  10.712
 4494SOL    HW114048   2.802   0.069  10.617
 4494SOL    HW214049   2.849   0.145  10.754
 4495SOL     OW14050   2.842   1.116  11.029
 4495SOL    HW114051   2.743   1.122  11.039
 4495SOL    HW214052   2.865   1.036  10.973
 4496SOL     OW14053   2.567   1.050   9.678
 4496SOL    HW114054   2.553   1.057   9.777
 4496SOL    HW214055   2.651   0.999   9.660
 4497SOL     OW14056   2.272   0.813  10.561
 4497SOL    HW114057   2.358   0.825  10.611
 4497SOL    HW214058   2.230   0.726  10.588
 4498SOL     OW14059   3.136   0.386  10.572
 4498SOL    HW114060   3.157   0.460  10.636
 4498SOL    HW214061   3.047   0.403  10.529
 4499SOL     OW14062   1.926   1.564  10.641
 4499SOL    HW114063   1.880   1.646  10.607
 4499SOL    HW214064   2.024   1.583  10.650
 4500SOL     OW14065   2.229   1.100   9.811
 4500SOL    HW114066   2.222   1.183   9.755
 4500SOL    HW214067   2.233   1.020   9.751
 4501SOL     OW14068   2.428   0.537  10.175
 4501SOL    HW114069   2.440   0.603  10.101
 4501SOL    HW214070   2.474   0.571  10.258
 4502SOL     OW14071   3.114   1.348   9.698
 4502SOL    HW114072   3.164   1.425   9.738
 4502SOL    HW214073   3.019   1.350   9.730
 4503SOL     OW14074   3.134   1.445  10.452
 4503SOL    HW114075   3.181   1.458  10.539
 4503SOL    HW214076   3.068   1.371  10.461
 4504SOL     OW14077   3.444   0.639   9.782
 4504SOL    HW114078   3.413   0.700   9.855
 4504SOL    HW214079   3.494   0.691   9.713
 4505SOL     OW14080   2.216   1.510  10.639
 4505SOL    HW114081   2.195   1.466  10.552
 4505SOL    HW214082   2.313   1.536  10.642
 4506SOL     OW14083   2.264   0.751  10.908
 4506SOL    HW114084   2.332   0.806  10.861
 4506SOL    HW214085   2.304   0.663  10.935
 4507SOL     OW14086   3.449   0.779  10.980
 4507SOL    HW114087   3.357   0.817  10.975
 4507SOL    HW214088   3.509   0.826  10.915
 4508SOL     OW14089   2.875   0.105  11.080
 4508SOL    HW114090   2.881   0.190  11.028
 4508SOL    HW214091   2.907   0.029  11.023
 4509SOL     OW14092   2.366   0.050  11.050
 4509SOL    HW114093   2.324  -0.007  10.980
 4509SOL    HW214094   2.300   0.119  11.082
 4510SOL     OW14095   2.435   0.870  10.339
 4510SOL    HW114096   2.479   0.959  10.330
 4510SOL    HW214097   2.372   0.870  10.416
 4511SOL     OW14098   3.222   0.862  10.355
 4511SOL    HW114099   3.147   0.862  10.289
 4511SOL    HW214100   3.259   0.770  10.364
 4512SOL     OW14101   3.071   0.525   9.585
 4512SOL    HW114102   3.084   0.441   9.639
 4512SOL    HW214103   3.042   0.599   9.645
 4513SOL     OW14104   2.169   0.213  10.541
 4513SOL    HW114105   2.146   0.250  10.631
 4513SOL    HW214106   2.139   0.118  10.535
 4514SOL     OW14107   1.899   1.310  10.592
 4514SOL    HW114108   1.952   1.261  10.660
 4514SOL    HW214109   1.921   1.408  10.597
 4515SOL     OW14110   2.594   0.634  10.374
 4515SOL    HW114111   2.653   0.608  10.298
 4515SOL    HW214112   2.566   0.730  10.363
 4516SOL     OW14113   3.590   0.935  11.164
 4516SOL    HW114114   3.544   0.928  11.075
 4516SOL    HW214115   3.528   0.979  11.230
 4517SOL     OW14116   2.169   0.063   9.928
 4517SOL    HW114117   2.158   0.157   9.961
 4517SOL    HW214118   2.164   0.000  10.005
 4518SOL     OW14119   3.484   0.367   9.684
 4518SOL    HW114120   3.486   0.291   9.748
 4518SOL    HW214121   3.436   0.444   9.724
 4519SOL     OW14122   2.885   0.766  10.276
 4519SOL    HW114123   2.900   0.787  10.372
 4519SOL    HW214124   2.855   0.671  10.267
 4520SOL     OW14125   2.842   1.573  11.010
 4520SOL    HW114126   2.822   1.617  10.922
 4520SOL    HW214127   2.881   1.482  10.994
 4521SOL     OW14128   3.721   1.518  10.915
 4521SOL    HW114129   3.735   1.545  10.820
 4521SOL    HW214130   3.804   1.540  10.968
 4522SOL     OW14131   2.212   0.898  11.114
 4522SOL    HW114132   2.288   0.942  11.162
 4522SOL    HW214133   2.247   0.851  11.032
 4523SOL     OW14134   3.402   0.274   9.435
 4523SOL    HW114135   3.341   0.199   9.458
 4523SOL    HW214136   3.424   0.326   9.518
 4524SOL     OW14137   3.165   0.838   9.352
 4524SOL    HW114138   3.199   0.745   9.367
 4524SOL    HW214139   3.183   0.865   9.257
 4525SOL     OW14140   2.930   1.333  10.159
 4525SOL    HW114141   2.937   1.249  10.104
 4525SOL    HW214142   2.992   1.402  10.123
 4526SOL     OW14143   2.181   0.810  10.259
 4526SOL    HW114144   2.274   0.846  10.264
 4526SOL    HW214145   2.175   0.725  10.311
 4527SOL     OW14146   2.201   0.509  10.316
 4527SOL    HW114147   2.149   0.426  10.299
 4527SOL    HW214148   2.278   0.514  10.252
 4528SOL     OW14149   3.000   0.380  10.988
 4528SOL    HW114150   2.955   0.443  11.052
 4528SOL    HW214151   3.093   0.411  10.971
 4529SOL     OW14152   3.022   0.207  10.787
 4529SOL    HW114153   3.022   0.271  10.864
 4529SOL    HW214154   3.050   0.255  10.704
 4530SOL     OW14155   1.870   1.326   9.510
 4530SOL    HW114156   1.777   1.347   9.479
 4530SOL    HW214157   1.880   1.227   9.523
 4531SOL     OW14158   1.950   1.801  10.237
 4531SOL    HW114159   1.908   1.715  10.210
 4531SOL    HW214160   2.044   1.804  10.203
 4532SOL     OW14161   2.366   1.568  10.220
 4532SOL    HW114162   2.432   1.642  10.229
 4532SOL    HW214163   2.410   1.489  10.178
 4533SOL     OW14164   2.864   0.796  10.548
 4533SOL    HW114165   2.905   0.764  10.634
 4533SOL    HW214166   2.768   0.769  10.545
 4534SOL     OW14167   1.902   0.544  10.424
 4534SOL    HW114168   1.987   0.511  10.383
 4534SOL    HW214169   1.915   0.559  10.522
 4535SOL     OW14170   2.051   0.520  11.032
 4535SOL    HW114171   2.110   0.480  10.962
 4535SOL    HW214172   1.993   0.591  10.991
 4536SOL     OW14173   3.231   0.950  10.970
 4536SOL    HW114174   3.270   1.039  10.990
 4536SOL    HW214175   3.241   0.930  10.873
 4537SOL     OW14176   2.677   0.572   9.635
 4537SOL    HW114177   2.684   0.483   9.589
 4537SOL    HW214178   2.583   0.606   9.627
 4538SOL     OW14179   3.519   0.604  10.516
 4538SOL    HW114180   3.481   0.535  10.578
 4538SOL    HW214181   3.601   0.568  10.472
 4539SOL     OW14182   2.114   1.564  11.054
 4539SOL    HW114183   2.084   1.621  11.130
 4539SOL    HW214184   2.107   1.467  11.080
 4540SOL     OW14185   2.533   0.464  10.579
 4540SOL    HW114186   2.499   0.375  10.549
 4540SOL    HW214187   2.559   0.518  10.499
 4541SOL     OW14188   2.792   1.678  10.775
 4541SOL    HW114189   2.768   1.660  10.680
 4541SOL    HW214190   2.822   1.772  10.785
 4542SOL     OW14191   2.335   0.500   9.501
 4542SOL    HW114192   2.396   0.580   9.505
 4542SOL    HW214193   2.240   0.531   9.508
 4543SOL     OW14194   2.021   1.137  10.776
 4543SOL    HW114195   2.043   1.076  10.852
 4543SOL    HW214196   2.031   1.088  10.690
 4544SOL     OW14197   3.209   1.059  10.544
 4544SOL    HW114198   3.233   0.996  10.470
 4544SOL    HW214199   3.119   1.099  10.526
 4545SOL     OW14200   3.164   0.855   9.619
 4545SOL    HW114201   3.078   0.824   9.661
 4545SOL    HW214202   3.160   0.841   9.520
 4546SOL     OW14203   3.621   1.747  10.464
 4546SOL    HW114204   3.682   1.777  10.391
 4546SOL    HW214205   3.583   1.658  10.442
 4547SOL     OW14206   3.114   1.731  10.438
 4547SOL    HW114207   3.198   1.736  10.384
 4547SOL    HW214208   3.091   1.635  10.456
 4548SOL     OW14209   1.945   1.258  10.332
 4548SOL    HW114210   1.940   1.257  10.432
 4548SOL    HW214211   1.862   1.217  10.294
 4549SOL     OW14212   2.550   1.662  11.026
 4549SOL    HW114213   2.494   1.743  11.035
 4549SOL    HW214214   2.602   1.666  10.940
 4550SOL     OW14215   3.588   0.135   9.833
 4550SOL    HW114216   3.661   0.118   9.766
 4550SOL    HW214217   3.557   0.048   9.871
 4551SOL     OW14218   3.250   1.573   9.787
 4551SOL    HW114219   3.317   1.585   9.713
 4551SOL    HW214220   3.210   1.662   9.810
 4552SOL     OW14221   1.992   1.794  11.161
 4552SOL    HW114222   1.951   1.720  11.214
 4552SOL    HW214223   2.056   1.845  11.219
 4553SOL     OW14224   3.142   0.927   9.982
 4553SOL    HW114225   3.202   0.846   9.984
 4553SOL    HW214226   3.182   0.996   9.922
 4554SOL     OW14227   2.692   1.273  10.732
 4554SOL    HW114228   2.687   1.306  10.827
 4554SOL    HW214229   2.606   1.292  10.686
 4555SOL     OW14230   2.534   1.616   9.464
 4555SOL    HW114231   2.543   1.626   9.365
 4555SOL    HW214232   2.494   1.527   9.485
 4556SOL     OW14233   3.512   1.720  10.704
 4556SOL    HW114234   3.565   1.730  10.620
 4556SOL    HW214235   3.485   1.810  10.738
 4557SOL     OW14236   3.703   0.175  10.273
 4557SOL    HW114237   3.742   0.090  10.237
 4557SOL    HW214238   3.605   0.177  10.254
 4558SOL     OW14239   2.125   0.326  10.030
 4558SOL    HW114240   2.046   0.377   9.996
 4558SOL    HW214241   2.116   0.311  10.128
 4559SOL     OW14242   3.056   1.612   9.341
 4559SOL    HW114243   3.062   1.519   9.378
 4559SOL    HW214244   2.997   1.612   9.261
 4560SOL     OW14245   2.684   1.002  10.682
 4560SOL    HW114246   2.724   1.001  10.590
 4560SOL    HW214247   2.694   1.094  10.722
 4561SOL     OW14248   2.778   0.910   9.601
 4561SOL    HW114249   2.841   0.948   9.533
 4561SOL    HW214250   2.818   0.827   9.640
 4562SOL     OW14251   3.366   1.607   9.354
 4562SOL    HW114252   3.274   1.644   9.361
 4562SOL    HW214253   3.404   1.627   9.264
 4563SOL     OW14254   2.234   1.288  10.800
 4563SOL    HW114255   2.221   1.381  10.766
 4563SOL    HW214256   2.150   1.236  10.787
 4564SOL     OW14257   3.476   1.292  10.599
 4564SOL    HW114258   3.536   1.295  10.679
 4564SOL    HW214259   3.401   1.356  10.612
 4565SOL     OW14260   2.901   1.098  10.006
 4565SOL    HW114261   2.831   1.051  10.060
 4565SOL    HW214262   2.960   1.030   9.963
 4566SOL     OW14263   2.876   0.236  10.281
 4566SOL    HW114264   2.868   0.200  10.188
 4566SOL    HW214265   2.874   0.160  10.346
 4567SOL     OW14266   2.452   1.487   9.801
 4567SOL    HW114267   2.494   1.429   9.731
 4567SOL    HW214268   2.408   1.566   9.757
 4568SOL     OW14269   3.571   0.385  10.691
 4568SOL    HW114270   3.644   0.454  10.695
 4568SOL    HW214271   3.599   0.310  10.632
 4569SOL     OW14272   2.117   1.348   9.600
 4569SOL    HW114273   2.021   1.349   9.573
 4569SOL    HW214274   2.129   1.401   9.684
 4570SOL     OW14275   1.967   1.013  11.036
 4570SOL    HW114276   1.890   0.980  11.090
 4570SOL    HW214277   2.052   0.983  11.078
 4571SOL     OW14278   2.534   0.203  10.799
 4571SOL    HW114279   2.624   0.187  10.759
 4571SOL    HW214280   2.542   0.208  10.898
 4572SOL     OW14281   1.937   0.345   9.343
 4572SOL    HW114282   1.845   0.317   9.314
 4572SOL    HW214283   1.968   0.422   9.287
 4573SOL     OW14284   3.302   0.856  10.708
 4573SOL    HW114285   3.245   0.908  10.645
 4573SOL    HW214286   3.398   0.868  10.684
 4574SOL     OW14287   1.934   0.166   9.628
 4574SOL    HW114288   1.917   0.249   9.574
 4574SOL    HW214289   2.024   0.129   9.606
 4575SOL     OW14290   3.045   1.335   9.429
 4575SOL    HW114291   2.946   1.324   9.431
 4575SOL    HW214292   3.079   1.350   9.522
 4576SOL     OW14293   2.475   0.842  10.741
 4576SOL    HW114294   2.531   0.923  10.724
 4576SOL    HW214295   2.534   0.762  10.744
 4577SOL     OW14296   3.355   1.767  10.269
 4577SOL    HW114297   3.388   1.831  10.200
 4577SOL    HW214298   3.421   1.761  10.344
 4578SOL     OW14299   2.578   0.565  11.018
 4578SOL    HW114300   2.597   0.630  11.092
 4578SOL    HW214301   2.638   0.485  11.027
 4579SOL     OW14302   3.312   1.220  10.943
 4579SOL    HW114303   3.303   1.210  11.042
 4579SOL    HW214304   3.408   1.213  10.917
 4580SOL     OW14305   2.252   1.741  10.870
 4580SOL    HW114306   2.161   1.782  10.868
 4580SOL    HW214307   2.245   1.647  10.902
 4581SOL     OW14308   3.536   0.883  10.564
 4581SOL    HW114309   3.509   0.794  10.527
 4581SOL    HW214310   3.537   0.951  10.491
 4582SOL     OW14311   3.087   0.325   9.759
 4582SOL    HW114312   3.152   0.251   9.748
 4582SOL    HW214313   3.107   0.375   9.843
 4583SOL     OW14314   2.456   0.745   9.962
 4583SOL    HW114315   2.506   0.830   9.943
 4583SOL    HW214316   2.368   0.747   9.914
 4584SOL     OW14317   3.639   0.342  10.952
 4584SOL    HW114318   3.622   0.373  10.858
 4584SOL    HW214319   3.555   0.305  10.990
 4585SOL     OW14320   3.592   0.934  10.827
 4585SOL    HW114321   3.630   1.025  10.842
 4585SOL    HW214322   3.584   0.917  10.728
 4586SOL     OW14323   2.721   1.374   9.326
 4586SOL    HW114324   2.675   1.389   9.414
 4586SOL    HW214325   2.765   1.459   9.296
 4587SOL     OW14326   2.523   1.790  10.263
 4587SOL    HW114327   2.477   1.878  10.250
 4587SOL    HW214328   2.622   1.802  10.256
 4588SOL     OW14329   2.721   0.956  10.171
 4588SOL    HW114330   2.775   0.887  10.219
 4588SOL    HW214331   2.689   1.025  10.237
 4589SOL     OW14332   2.945   0.984   9.397
 4589SOL    HW114333   2.922   1.037   9.315
 4589SOL    HW214334   3.026   0.928   9.378
 4590SOL     OW14335   3.723   1.569  10.161
 4590SOL    HW114336   3.652   1.557  10.091
 4590SOL    HW214337   3.724   1.490  10.221
 4591SOL     OW14338   2.083   1.314  11.154
 4591SOL    HW114339   2.018   1.241  11.133
 4591SOL    HW214340   2.087   1.328  11.252
 4592SOL     OW14341   1.941   1.240   9.963
 4592SOL    HW114342   1.940   1.193  10.051
 4592SOL    HW214343   2.023   1.212   9.912
 4593SOL     OW14344   2.534   1.391  10.934
 4593SOL    HW114345   2.456   1.341  10.972
 4593SOL    HW214346   2.531   1.486  10.965
 4594SOL     OW14347   3.686   0.192  10.537
 4594SOL    HW114348   3.682   0.102  10.581
 4594SOL    HW214349   3.689   0.181  10.438
 4595SOL     OW14350   2.290   0.424   9.830
 4595SOL    HW114351   2.320   0.352   9.768
 4595SOL    HW214352   2.251   0.384   9.913
 4596SOL     OW14353   3.567   1.487  10.414
 4596SOL    HW114354   3.474   1.462  10.387
 4596SOL    HW214355   3.593   1.437  10.496
 4597SOL     OW14356   2.179   0.547  10.590
 4597SOL    HW114357   2.217   0.488  10.662
 4597SOL    HW214358   2.219   0.521  10.502
 4598SOL     OW14359   2.674   1.586   9.997
 4598SOL    HW114360   2.706   1.596   9.903
 4598SOL    HW214361   2.595   1.524   9.999
 4599SOL     OW14362   3.286   0.214  10.422
 4599SOL    HW114363   3.338   0.149  10.477
 4599SOL    HW214364   3.237   0.277  10.483
 4600SOL     OW14365   2.863   0.034  10.464
 4600SOL    HW114366   2.800  -0.038  10.433
 4600SOL    HW214367   2.956  -0.002  10.464
 4601SOL     OW14368   2.632   1.330   9.611
 4601SOL    HW114369   2.586   1.243   9.628
 4601SOL    HW214370   2.723   1.327   9.652
 4602SOL     OW14371   2.480   1.567  10.594
 4602SOL    HW114372   2.475   1.649  10.651
 4602SOL    HW214373   2.569   1.564  10.549
 4603SOL     OW14374   3.214   0.052   9.478
 4603SOL    HW114375   3.249   0.011   9.394
 4603SOL    HW214376   3.124   0.014   9.498
 4604SOL     OW14377   3.162   0.453  10.001
 4604SOL    HW114378   3.103   0.533  10.005
 4604SOL    HW214379   3.177   0.418  10.094
 4605SOL     OW14380   3.455   0.221  10.192
 4605SOL    HW114381   3.371   0.220  10.246
 4605SOL    HW214382   3.457   0.304  10.136
 4606SOL     OW14383   1.901   1.077   9.610
 4606SOL    HW114384   2.000   1.066   9.601
 4606SOL    HW214385   1.861   0.991   9.642
 4607SOL     OW14386   2.737   1.646   9.647
 4607SOL    HW114387   2.660   1.611   9.593
 4607SOL    HW214388   2.705   1.717   9.709
 4608SOL     OW14389   2.092   0.628  11.285
 4608SOL    HW114390   1.999   0.626  11.322
 4608SOL    HW214391   2.093   0.589  11.193
 4609SOL     OW14392   2.087   0.275  12.168
 4609SOL    HW114393   2.122   0.258  12.260
 4609SOL    HW214394   1.999   0.230  12.156
 4610SOL     OW14395   1.881   0.368  11.819
 4610SOL    HW114396   1.799   0.411  11.858
 4610SOL    HW214397   1.853   0.295  11.756
 4611SOL     OW14398   2.431   1.275  12.337
 4611SOL    HW114399   2.338   1.268  12.300
 4611SOL    HW214400   2.442   1.364  12.381
 4612SOL     OW14401   3.417   1.511  11.875
 4612SOL    HW114402   3.360   1.495  11.956
 4612SOL    HW214403   3.358   1.521  11.795
 4613SOL     OW14404   2.997   0.703  11.889
 4613SOL    HW114405   3.054   0.781  11.864
 4613SOL    HW214406   2.937   0.729  11.965
 4614SOL     OW14407   3.617   0.607  11.403
 4614SOL    HW114408   3.605   0.594  11.304
 4614SOL    HW214409   3.587   0.526  11.452
 4615SOL     OW14410   2.630   1.144  12.195
 4615SOL    HW114411   2.552   1.161  12.255
 4615SOL    HW214412   2.664   1.231  12.159
 4616SOL     OW14413   2.712   0.798  12.995
 4616SOL    HW114414   2.708   0.874  13.060
 4616SOL    HW214415   2.734   0.834  12.904
 4617SOL     OW14416   2.547   1.012  11.837
 4617SOL    HW114417   2.616   0.996  11.907
 4617SOL    HW214418   2.474   1.069  11.875
 4618SOL     OW14419   2.548   1.161  12.975
 4618SOL    HW114420   2.608   1.240  12.989
 4618SOL    HW214421   2.462   1.192  12.934
 4619SOL     OW14422   2.197   1.435  12.233
 4619SOL    HW114423   2.119   1.404  12.180
 4619SOL    HW214424   2.255   1.493  12.176
 4620SOL     OW14425   3.322   1.505  12.511
 4620SOL    HW114426   3.346   1.599  12.537
 4620SOL    HW214427   3.306   1.451  12.593
 4621SOL     OW14428   2.300   0.392  12.671
 4621SOL    HW114429   2.382   0.336  12.680
 4621SOL    HW214430   2.219   0.334  12.675
 4622SOL     OW14431   3.465   0.447  11.909
 4622SOL    HW114432   3.391   0.493  11.859
 4622SOL    HW214433   3.516   0.515  11.962
 4623SOL     OW14434   2.093   1.713  11.655
 4623SOL    HW114435   2.127   1.790  11.709
 4623SOL    HW214436   2.137   1.713  11.565
 4624SOL     OW14437   2.989   1.341  12.862
 4624SOL    HW114438   3.036   1.341  12.950
 4624SOL    HW214439   2.941   1.254  12.851
 4625SOL     OW14440   2.092   1.434  11.710
 4625SOL    HW114441   2.066   1.530  11.710
 4625SOL    HW214442   2.021   1.380  11.755
 4626SOL     OW14443   2.102   1.091  12.058
 4626SOL    HW114444   2.116   1.007  12.110
 4626SOL    HW214445   2.047   1.155  12.113
 4627SOL     OW14446   2.482   1.786  12.611
 4627SOL    HW114447   2.390   1.769  12.646
 4627SOL    HW214448   2.510   1.878  12.637
 4628SOL     OW14449   2.468   0.964  11.295
 4628SOL    HW114450   2.475   1.048  11.241
 4628SOL    HW214451   2.514   0.977  11.383
 4629SOL     OW14452   3.456   0.114  12.652
 4629SOL    HW114453   3.438   0.181  12.580
 4629SOL    HW214454   3.453   0.160  12.741
 4630SOL     OW14455   1.984   0.643  11.735
 4630SOL    HW114456   1.939   0.555  11.752
 4630SOL    HW214457   1.983   0.697  11.819
 4631SOL     OW14458   3.704   1.767  11.531
 4631SOL    HW114459   3.758   1.738  11.611
 4631SOL    HW214460   3.734   1.857  11.502
 4632SOL     OW14461   1.889   1.596  11.289
 4632SOL    HW114462   1.870   1.500  11.310
 4632SOL    HW214463   1.856   1.654  11.364
 4633SOL     OW14464   3.551   0.922  11.784
 4633SOL    HW114465   3.646   0.893  11.792
 4633SOL    HW214466   3.543   0.987  11.709
 4634SOL     OW14467   3.503   1.108  11.604
 4634SOL    HW114468   3.589   1.110  11.552
 4634SOL    HW214469   3.517   1.155  11.692
 4635SOL     OW14470   1.975   0.737  12.769
 4635SOL    HW114471   2.063   0.724  12.814
 4635SOL    HW214472   1.962   0.834  12.747
 4636SOL     OW14473   2.475   1.365  11.898
 4636SOL    HW114474   2.426   1.278  11.907
 4636SOL    HW214475   2.452   1.408  11.811
 4637SOL     OW14476   3.155   1.228  12.595
 4637SOL    HW114477   3.192   1.155  12.537
 4637SOL    HW214478   3.207   1.233  12.680
 4638SOL     OW14479   2.671   0.004  11.674
 4638SOL    HW114480   2.711   0.095  11.665
 4638SOL    HW214481   2.571   0.012  11.680
 4639SOL     OW14482   2.059   0.976  12.436
 4639SOL    HW114483   2.148   0.931  12.422
 4639SOL    HW214484   1.986   0.911  12.417
 4640SOL     OW14485   3.387   0.999  11.362
 4640SOL    HW114486   3.324   0.923  11.375
 4640SOL    HW214487   3.435   1.017  11.448
 4641SOL     OW14488   3.049   1.792  12.788
 4641SOL    HW114489   3.073   1.852  12.712
 4641SOL    HW214490   3.056   1.697  12.758
 4642SOL     OW14491   2.179   0.251  12.973
 4642SOL    HW114492   2.250   0.322  12.979
 4642SOL    HW214493   2.091   0.290  13.001
 4643SOL     OW14494   3.328   1.417  12.125
 4643SOL    HW114495   3.269   1.423  12.205
 4643SOL    HW214496   3.313   1.329  12.079
 4644SOL     OW14497   3.529   1.714  11.744
 4644SOL    HW114498   3.488   1.691  11.656
 4644SOL    HW214499   3.511   1.640  11.809
 4645SOL     OW14500   2.460   0.729  11.442
 4645SOL    HW114501   2.484   0.798  11.374
 4645SOL    HW214502   2.382   0.762  11.496
 4646SOL     OW14503   3.143   0.345  12.116
 4646SOL    HW114504   3.057   0.295  12.103
 4646SOL    HW214505   3.205   0.291  12.172
 4647SOL     OW14506   3.438   1.662  11.479
 4647SOL    HW114507   3.527   1.708  11.482
 4647SOL    HW214508   3.417   1.638  11.384
 4648SOL     OW14509   2.669   0.605  12.637
 4648SOL    HW114510   2.622   0.602  12.726
 4648SOL    HW214511   2.618   0.550  12.571
 4649SOL     OW14512   3.256   0.469  12.846
 4649SOL    HW114513   3.236   0.512  12.934
 4649SOL    HW214514   3.334   0.407  12.855
 4650SOL     OW14515   2.835   0.890  12.744
 4650SOL    HW114516   2.881   0.806  12.715
 4650SOL    HW214517   2.779   0.924  12.669
 4651SOL     OW14518   2.853   0.410  12.414
 4651SOL    HW114519   2.776   0.444  12.468
 4651SOL    HW214520   2.819   0.359  12.335
 4652SOL     OW14521   2.903   0.701  11.601
 4652SOL    HW114522   2.929   0.697  11.697
 4652SOL    HW214523   2.818   0.650  11.587
 4653SOL     OW14524   1.938   0.811  11.961
 4653SOL    HW114525   2.037   0.799  11.970
 4653SOL    HW214526   1.914   0.906  11.982
 4654SOL     OW14527   2.727   0.348  11.367
 4654SOL    HW114528   2.786   0.411  11.318
 4654SOL    HW214529   2.746   0.254  11.338
 4655SOL     OW14530   3.581   0.585  13.003
 4655SOL    HW114531   3.555   0.674  12.967
 4655SOL    HW214532   3.579   0.517  12.930
 4656SOL     OW14533   3.224   1.144  11.717
 4656SOL    HW114534   3.307   1.115  11.669
 4656SOL    HW214535   3.175   1.211  11.661
 4657SOL     OW14536   2.412   0.196  12.057
 4657SOL    HW114537   2.407   0.191  12.157
 4657SOL    HW214538   2.414   0.292  12.028
 4658SOL     OW14539   2.870   1.456  11.649
 4658SOL    HW114540   2.824   1.528  11.597
 4658SOL    HW214541   2.866   1.476  11.747
 4659SOL     OW14542   2.213   1.801  12.025
 4659SOL    HW114543   2.263   1.715  12.031
 4659SOL    HW214544   2.278   1.878  12.022
 4660SOL     OW14545   3.657   1.066  12.045
 4660SOL    HW114546   3.595   1.051  11.969
 4660SOL    HW214547   3.605   1.077  12.130
 4661SOL     OW14548   3.089   1.550  12.678
 4661SOL    HW114549   3.095   1.473  12.742
 4661SOL    HW214550   3.037   1.524  12.598
 4662SOL     OW14551   2.183   0.943  11.414
 4662SOL    HW114552   2.265   0.982  11.372
 4662SOL    HW214553   2.156   0.861  11.365
 4663SOL     OW14554   3.320   0.735  11.900
 4663SOL    HW114555   3.315   0.670  11.975
 4663SOL    HW214556   3.400   0.794  11.913
 4664SOL     OW14557   2.323   1.266  12.899
 4664SOL    HW114558   2.273   1.267  12.813
 4664SOL    HW214559   2.260   1.248  12.975
 4665SOL     OW14560   2.973   1.776  11.409
 4665SOL    HW114561   2.913   1.714  11.459
 4665SOL    HW214562   3.004   1.732  11.324
 4666SOL     OW14563   2.064   0.285  12.670
 4666SOL    HW114564   1.984   0.345  12.657
 4666SOL    HW214565   2.054   0.236  12.756
 4667SOL     OW14566   3.494   1.377  11.253
 4667SOL    HW114567   3.462   1.471  11.243
 4667SOL    HW214568   3.418   1.314  11.241
 4668SOL     OW14569   2.326   1.743  11.495
 4668SOL    HW114570   2.359   1.782  11.581
 4668SOL    HW214571   2.402   1.736  11.430
 4669SOL     OW14572   3.262   0.107  11.598
 4669SOL    HW114573   3.238   0.070  11.508
 4669SOL    HW214574   3.361   0.123  11.602
 4670SOL     OW14575   2.111   1.785  12.413
 4670SOL    HW114576   2.168   1.720  12.463
 4670SOL    HW214577   2.095   1.752  12.320
 4671SOL     OW14578   2.802   1.698  12.076
 4671SOL    HW114579   2.882   1.641  12.097
 4671SOL    HW214580   2.753   1.658  11.999
 4672SOL     OW14581   2.244   0.700  11.652
 4672SOL    HW114582   2.289   0.610  11.649
 4672SOL    HW214583   2.150   0.689  11.685
 4673SOL     OW14584   3.409   0.222  12.901
 4673SOL    HW114585   3.404   0.259  12.993
 4673SOL    HW214586   3.337   0.153  12.889
 4674SOL     OW14587   2.476   0.122  11.289
 4674SOL    HW114588   2.574   0.100  11.296
 4674SOL    HW214589   2.445   0.105  11.196
 4675SOL     OW14590   2.643   0.264  12.921
 4675SOL    HW114591   2.710   0.203  12.964
 4675SOL    HW214592   2.570   0.283  12.986
 4676SOL     OW14593   2.750   1.514  12.367
 4676SOL    HW114594   2.727   1.489  12.273
 4676SOL    HW214595   2.811   1.445  12.406
 4677SOL     OW14596   3.213   0.590  12.605
 4677SOL    HW114597   3.241   0.547  12.690
 4677SOL    HW214598   3.238   0.686  12.606
 4678SOL     OW14599   2.665   1.402  12.096
 4678SOL    HW114600   2.755   1.416  12.054
 4678SOL    HW214601   2.594   1.404  12.025
 4679SOL     OW14602   2.784   0.503  12.071
 4679SOL    HW114603   2.759   0.494  11.975
 4679SOL    HW214604   2.832   0.421  12.102
 4680SOL     OW14605   2.401   0.064  11.684
 4680SOL    HW114606   2.320   0.065  11.742
 4680SOL    HW214607   2.404   0.147  11.629
 4681SOL     OW14608   3.296   1.188  11.213
 4681SOL    HW114609   3.328   1.112  11.270
 4681SOL    HW214610   3.204   1.215  11.243
 4682SOL     OW14611   2.159   0.035  11.343
 4682SOL    HW114612   2.208   0.119  11.322
 4682SOL    HW214613   2.221  -0.030  11.388
 4683SOL     OW14614   2.797   0.236  11.652
 4683SOL    HW114615   2.749   0.277  11.574
 4683SOL    HW214616   2.896   0.234  11.633
 4684SOL     OW14617   2.938   0.683  12.636
 4684SOL    HW114618   2.858   0.622  12.639
 4684SOL    HW214619   3.019   0.630  12.612
 4685SOL     OW14620   3.089   1.570  11.965
 4685SOL    HW114621   3.110   1.644  11.900
 4685SOL    HW214622   3.157   1.570  12.038
 4686SOL     OW14623   2.321   1.152  11.913
 4686SOL    HW114624   2.250   1.125  11.978
 4686SOL    HW214625   2.295   1.124  11.820
 4687SOL     OW14626   3.133   1.797  11.763
 4687SOL    HW114627   3.177   1.861  11.699
 4687SOL    HW214628   3.083   1.849  11.833
 4688SOL     OW14629   2.894   0.549  11.188
 4688SOL    HW114630   2.853   0.631  11.149
 4688SOL    HW214631   2.958   0.575  11.261
 4689SOL     OW14632   1.940   0.556  12.558
 4689SOL    HW114633   2.032   0.555  12.517
 4689SOL    HW214634   1.934   0.630  12.625
 4690SOL     OW14635   2.423   0.222  12.319
 4690SOL    HW114636   2.461   0.138  12.356
 4690SOL    HW214637   2.335   0.241  12.363
 4691SOL     OW14638   2.728   0.454  11.814
 4691SOL    HW114639   2.696   0.526  11.752
 4691SOL    HW214640   2.752   0.373  11.761
 4692SOL     OW14641   2.879   0.039  11.925
 4692SOL    HW114642   2.807   0.044  11.856
 4692SOL    HW214643   2.855  -0.030  11.994
 4693SOL     OW14644   3.291   1.173  12.039
 4693SOL    HW114645   3.236   1.089  12.032
 4693SOL    HW214646   3.317   1.202  11.947
 4694SOL     OW14647   3.328   0.590  12.164
 4694SOL    HW114648   3.298   0.495  12.171
 4694SOL    HW214649   3.401   0.606  12.230
 4695SOL     OW14650   3.719   0.833  11.549
 4695SOL    HW114651   3.761   0.769  11.613
 4695SOL    HW214652   3.681   0.782  11.471
 4696SOL     OW14653   2.350   1.385  11.346
 4696SOL    HW114654   2.263   1.370  11.393
 4696SOL    HW214655   2.333   1.411  11.251
 4697SOL     OW14656   3.526   1.280  11.829
 4697SOL    HW114657   3.625   1.288  11.843
 4697SOL    HW214658   3.481   1.364  11.860
 4698SOL     OW14659   3.252   0.575  11.250
 4698SOL    HW114660   3.198   0.554  11.331
 4698SOL    HW214661   3.343   0.534  11.259
 4699SOL     OW14662   2.389   0.256  11.500
 4699SOL    HW114663   2.416   0.197  11.425
 4699SOL    HW214664   2.389   0.351  11.469
 4700SOL     OW14665   3.616   1.223  12.760
 4700SOL    HW114666   3.707   1.184  12.747
 4700SOL    HW214667   3.624   1.319  12.784
 4701SOL     OW14668   2.926   1.347  12.512
 4701SOL    HW114669   2.846   1.324  12.567
 4701SOL    HW214670   3.009   1.321  12.561
 4702SOL     OW14671   3.454   1.629  12.797
 4702SOL    HW114672   3.481   1.663  12.707
 4702SOL    HW214673   3.533   1.591  12.843
 4703SOL     OW14674   2.973   1.195  12.272
 4703SOL    HW114675   2.933   1.239  12.353
 4703SOL    HW214676   2.932   1.232  12.189
 4704SOL     OW14677   3.500   1.099  12.251
 4704SOL    HW114678   3.505   1.180  12.310
 4704SOL    HW214679   3.414   1.101  12.200
 4705SOL     OW14680   2.777   0.089  12.574
 4705SOL    HW114681   2.802   0.069  12.479
 4705SOL    HW214682   2.849   0.145  12.616
 4706SOL     OW14683   2.842   1.116  12.891
 4706SOL    HW114684   2.743   1.122  12.901
 4706SOL    HW214685   2.865   1.036  12.835
 4707SOL     OW14686   2.567   1.050  11.540
 4707SOL    HW114687   2.553   1.057  11.639
 4707SOL    HW214688   2.651   0.999  11.522
 4708SOL     OW14689   2.272   0.813  12.423
 4708SOL    HW114690   2.358   0.825  12.473
 4708SOL    HW214691   2.230   0.726  12.450
 4709SOL     OW14692   3.136   0.386  12.434
 4709SOL    HW114693   3.157   0.460  12.498
 4709SOL    HW214694   3.047   0.403  12.391
 4710SOL     OW14695   1.926   1.564  12.503
 4710SOL    HW114696   1.880   1.646  12.469
 4710SOL    HW214697   2.024   1.583  12.512
 4711SOL     OW14698   2.229   1.100  11.673
 4711SOL    HW114699   2.222   1.183  11.617
 4711SOL    HW214700   2.233   1.020  11.613
 4712SOL     OW14701   2.428   0.537  12.037
 4712SOL    HW114702   2.440   0.603  11.963
 4712SOL    HW214703   2.474   0.571  12.120
 4713SOL     OW14704   3.114   1.348  11.560
 4713SOL    HW114705   3.164   1.425  11.600
 4713SOL    HW214706   3.019   1.350  11.592
 4714SOL     OW14707   3.134   1.445  12.314
 4714SOL    HW114708   3.181   1.458  12.401
 4714SOL    HW214709   3.068   1.371  12.323
 4715SOL     OW14710   3.444   0.639  11.644
 4715SOL    HW114711   3.413   0.700  11.717
 4715SOL    HW214712   3.494   0.691  11.575
 4716SOL     OW14713   2.216   1.510  12.501
 4716SOL    HW114714   2.195   1.466  12.414
 4716SOL    HW214715   2.313   1.536  12.504
 4717SOL     OW14716   2.264   0.751  12.770
 4717SOL    HW114717   2.332   0.806  12.723
 4717SOL    HW214718   2.304   0.663  12.797
 4718SOL     OW14719   3.449   0.779  12.842
 4718SOL    HW114720   3.357   0.817  12.837
 4718SOL    HW214721   3.509   0.826  12.777
 4719SOL     OW14722   2.875   0.105  12.942
 4719SOL    HW114723   2.881   0.190  12.890
 4719SOL    HW214724   2.907   0.029  12.885
 4720SOL     OW14725   2.366   0.050  12.912
 4720SOL    HW114726   2.324  -0.007  12.842
 4720SOL    HW214727   2.300   0.119  12.944
 4721SOL     OW14728   2.435   0.870  12.201
 4721SOL    HW114729   2.479   0.959  12.192
 4721SOL    HW214730   2.372   0.870  12.278
 4722SOL     OW14731   3.222   0.862  12.217
 4722SOL    HW114732   3.147   0.862  12.151
 4722SOL    HW214733   3.259   0.770  12.226
 4723SOL     OW14734   3.071   0.525  11.447
 4723SOL    HW114735   3.084   0.441  11.501
 4723SOL    HW214736   3.042   0.599  11.507
 4724SOL     OW14737   2.169   0.213  12.403
 4724SOL    HW114738   2.146   0.250  12.493
 4724SOL    HW214739   2.139   0.118  12.397
 4725SOL     OW14740   1.899   1.310  12.454
 4725SOL    HW114741   1.952   1.261  12.522
 4725SOL    HW214742   1.921   1.408  12.459
 4726SOL     OW14743   2.594   0.634  12.236
 4726SOL    HW114744   2.653   0.608  12.160
 4726SOL    HW214745   2.566   0.730  12.225
 4727SOL     OW14746   3.590   0.935  13.026
 4727SOL    HW114747   3.544   0.928  12.937
 4727SOL    HW214748   3.528   0.979  13.092
 4728SOL     OW14749   2.169   0.063  11.790
 4728SOL    HW114750   2.158   0.157  11.823
 4728SOL    HW214751   2.164   0.000  11.867
 4729SOL     OW14752   3.484   0.367  11.546
 4729SOL    HW114753   3.486   0.291  11.610
 4729SOL    HW214754   3.436   0.444  11.586
 4730SOL     OW14755   2.885   0.766  12.138
 4730SOL    HW114756   2.900   0.787  12.234
 4730SOL    HW214757   2.855   0.671  12.129
 4731SOL     OW14758   2.842   1.573  12.872
 4731SOL    HW114759   2.822   1.617  12.784
 4731SOL    HW214760   2.881   1.482  12.856
 4732SOL     OW14761   3.721   1.518  12.777
 4732SOL    HW114762   3.735   1.545  12.682
 4732SOL    HW214763   3.804   1.540  12.830
 4733SOL     OW14764   2.212   0.898  12.976
 4733SOL    HW114765   2.288   0.942  13.024
 4733SOL    HW214766   2.247   0.851  12.894
 4734SOL     OW14767   3.402   0.274  11.297
 4734SOL    HW114768   3.341   0.199  11.320
 4734SOL    HW214769   3.424   0.326  11.380
 4735SOL     OW14770   3.165   0.838  11.214
 4735SOL    HW114771   3.199   0.745  11.229
 4735SOL    HW214772   3.183   0.865  11.119
 4736SOL     OW14773   2.930   1.333  12.021
 4736SOL    HW114774   2.937   1.249  11.966
 4736SOL    HW214775   2.992   1.402  11.985
 4737SOL     OW14776   2.181   0.810  12.121
 4737SOL    HW114777   2.274   0.846  12.126
 4737SOL    HW214778   2.175   0.725  12.173
 4738SOL     OW14779   2.201   0.509  12.178
 4738SOL    HW114780   2.149   0.426  12.161
 4738SOL    HW214781   2.278   0.514  12.114
 4739SOL     OW14782   3.000   0.380  12.850
 4739SOL    HW114783   2.955   0.443  12.914
 4739SOL    HW214784   3.093   0.411  12.833
 4740SOL     OW14785   3.022   0.207  12.649
 4740SOL    HW114786   3.022   0.271  12.726
 4740SOL    HW214787   3.050   0.255  12.566
 4741SOL     OW14788   1.870   1.326  11.372
 4741SOL    HW114789   1.777   1.347  11.341
 4741SOL    HW214790   1.880   1.227  11.385
 4742SOL     OW14791   1.950   1.801  12.099
 4742SOL    HW114792   1.908   1.715  12.072
 4742SOL    HW214793   2.044   1.804  12.065
 4743SOL     OW14794   2.366   1.568  12.082
 4743SOL    HW114795   2.432   1.642  12.091
 4743SOL    HW214796   2.410   1.489  12.040
 4744SOL     OW14797   2.864   0.796  12.410
 4744SOL    HW114798   2.905   0.764  12.496
 4744SOL    HW214799   2.768   0.769  12.407
 4745SOL     OW14800   1.902   0.544  12.286
 4745SOL    HW114801   1.987   0.511  12.245
 4745SOL    HW214802   1.915   0.559  12.384
 4746SOL     OW14803   2.051   0.520  12.894
 4746SOL    HW114804   2.110   0.480  12.824
 4746SOL    HW214805   1.993   0.591  12.853
 4747SOL     OW14806   3.231   0.950  12.832
 4747SOL    HW114807   3.270   1.039  12.852
 4747SOL    HW214808   3.241   0.930  12.735
 4748SOL     OW14809   2.677   0.572  11.497
 4748SOL    HW114810   2.684   0.483  11.451
 4748SOL    HW214811   2.583   0.606  11.489
 4749SOL     OW14812   3.519   0.604  12.378
 4749SOL    HW114813   3.481   0.535  12.440
 4749SOL    HW214814   3.601   0.568  12.334
 4750SOL     OW14815   2.114   1.564  12.916
 4750SOL    HW114816   2.084   1.621  12.992
 4750SOL    HW214817   2.107   1.467  12.942
 4751SOL     OW14818   2.533   0.464  12.441
 4751SOL    HW114819   2.499   0.375  12.411
 4751SOL    HW214820   2.559   0.518  12.361
 4752SOL     OW14821   2.792   1.678  12.637
 4752SOL    HW114822   2.768   1.660  12.542
 4752SOL    HW214823   2.822   1.772  12.647
 4753SOL     OW14824   2.335   0.500  11.363
 4753SOL    HW114825   2.396   0.580  11.367
 4753SOL    HW214826   2.240   0.531  11.370
 4754SOL     OW14827   2.021   1.137  12.638
 4754SOL    HW114828   2.043   1.076  12.714
 4754SOL    HW214829   2.031   1.088  12.552
 4755SOL     OW14830   3.209   1.059  12.406
 4755SOL    HW114831   3.233   0.996  12.332
 4755SOL    HW214832   3.119   1.099  12.388
 4756SOL     OW14833   3.164   0.855  11.481
 4756SOL    HW114834   3.078   0.824  11.523
 4756SOL    HW214835   3.160   0.841  11.382
 4757SOL     OW14836   3.621   1.747  12.326
 4757SOL    HW114837   3.682   1.777  12.253
 4757SOL    HW214838   3.583   1.658  12.304
 4758SOL     OW14839   3.114   1.731  12.300
 4758SOL    HW114840   3.198   1.736  12.246
 4758SOL    HW214841   3.091   1.635  12.318
 4759SOL     OW14842   1.945   1.258  12.194
 4759SOL    HW114843   1.940   1.257  12.294
 4759SOL    HW214844   1.862   1.217  12.156
 4760SOL     OW14845   2.550   1.662  12.888
 4760SOL    HW114846   2.494   1.743  12.897
 4760SOL    HW214847   2.602   1.666  12.802
 4761SOL     OW14848   3.588   0.135  11.695
 4761SOL    HW114849   3.661   0.118  11.628
 4761SOL    HW214850   3.557   0.048  11.733
 4762SOL     OW14851   3.250   1.573  11.649
 4762SOL    HW114852   3.317   1.585  11.575
 4762SOL    HW214853   3.210   1.662  11.672
 4763SOL     OW14854   1.992   1.794  13.023
 4763SOL    HW114855   1.951   1.720  13.076
 4763SOL    HW214856   2.056   1.845  13.081
 4764SOL     OW14857   3.142   0.927  11.844
 4764SOL    HW114858   3.202   0.846  11.846
 4764SOL    HW214859   3.182   0.996  11.784
 4765SOL     OW14860   2.692   1.273  12.594
 4765SOL    HW114861   2.687   1.306  12.689
 4765SOL    HW214862   2.606   1.292  12.548
 4766SOL     OW14863   2.534   1.616  11.326
 4766SOL    HW114864   2.543   1.626  11.227
 4766SOL    HW214865   2.494   1.527  11.347
 4767SOL     OW14866   3.512   1.720  12.566
 4767SOL    HW114867   3.565   1.730  12.482
 4767SOL    HW214868   3.485   1.810  12.600
 4768SOL     OW14869   3.703   0.175  12.135
 4768SOL    HW114870   3.742   0.090  12.099
 4768SOL    HW214871   3.605   0.177  12.116
 4769SOL     OW14872   2.125   0.326  11.892
 4769SOL    HW114873   2.046   0.377  11.858
 4769SOL    HW214874   2.116   0.311  11.990
 4770SOL     OW14875   3.056   1.612  11.203
 4770SOL    HW114876   3.062   1.519  11.240
 4770SOL    HW214877   2.997   1.612  11.123
 4771SOL     OW14878   2.684   1.002  12.544
 4771SOL    HW114879   2.724   1.001  12.452
 4771SOL    HW214880   2.694   1.094  12.584
 4772SOL     OW14881   2.778   0.910  11.463
 4772SOL    HW114882   2.841   0.948  11.395
 4772SOL    HW214883   2.818   0.827  11.502
 4773SOL     OW14884   3.366   1.607  11.216
 4773SOL    HW114885   3.274   1.644  11.223
 4773SOL    HW214886   3.404   1.627  11.126
 4774SOL     OW14887   2.234   1.288  12.662
 4774SOL    HW114888   2.221   1.381  12.628
 4774SOL    HW214889   2.150   1.236  12.649
 4775SOL     OW14890   3.476   1.292  12.461
 4775SOL    HW114891   3.536   1.295  12.541
 4775SOL    HW214892   3.401   1.356  12.474
 4776SOL     OW14893   2.901   1.098  11.868
 4776SOL    HW114894   2.831   1.051  11.922
 4776SOL    HW214895   2.960   1.030  11.825
 4777SOL     OW14896   2.876   0.236  12.143
 4777SOL    HW114897   2.868   0.200  12.050
 4777SOL    HW214898   2.874   0.160  12.208
 4778SOL     OW14899   2.452   1.487  11.663
 4778SOL    HW114900   2.494   1.429  11.593
 4778SOL    HW214901   2.408   1.566  11.619
 4779SOL     OW14902   3.571   0.385  12.553
 4779SOL    HW114903   3.644   0.454  12.557
 4779SOL    HW214904   3.599   0.310  12.494
 4780SOL     OW14905   2.117   1.348  11.462
 4780SOL    HW114906   2.021   1.349  11.435
 4780SOL    HW214907   2.129   1.401  11.546
 4781SOL     OW14908   1.967   1.013  12.898
 4781SOL    HW114909   1.890   0.980  12.952
 4781SOL    HW214910   2.052   0.983  12.940
 4782SOL     OW14911   2.534   0.203  12.661
 4782SOL    HW114912   2.624   0.187  12.621
 4782SOL    HW214913   2.542   0.208  12.760
 4783SOL     OW14914   1.937   0.345  11.205
 4783SOL    HW114915   1.845   0.317  11.176
 4783SOL    HW214916   1.968   0.422  11.149
 4784SOL     OW14917   3.302   0.856  12.570
 4784SOL    HW114918   3.245   0.908  12.507
 4784SOL    HW214919   3.398   0.868  12.546
 4785SOL     OW14920   1.934   0.166  11.490
 4785SOL    HW114921   1.917   0.249  11.436
 4785SOL    HW214922   2.024   0.129  11.468
 4786SOL     OW14923   3.045   1.335  11.291
 4786SOL    HW114924   2.946   1.324  11.293
 4786SOL    HW214925   3.079   1.350  11.384
 4787SOL     OW14926   2.475   0.842  12.603
 4787SOL    HW114927   2.531   0.923  12.586
 4787SOL    HW214928   2.534   0.762  12.606
 4788SOL     OW14929   3.355   1.767  12.131
 4788SOL    HW114930   3.388   1.831  12.062
 4788SOL    HW214931   3.421   1.761  12.206
 4789SOL     OW14932   2.578   0.565  12.880
 4789SOL    HW114933   2.597   0.630  12.954
 4789SOL    HW214934   2.638   0.485  12.889
 4790SOL     OW14935   3.312   1.220  12.805
 4790SOL    HW114936   3.303   1.210  12.904
 4790SOL    HW214937   3.408   1.213  12.779
 4791SOL     OW14938   2.252   1.741  12.732
 4791SOL    HW114939   2.161   1.782  12.730
 4791SOL    HW214940   2.245   1.647  12.764
 4792SOL     OW14941   3.536   0.883  12.426
 4792SOL    HW114942   3.509   0.794  12.389
 4792SOL    HW214943   3.537   0.951  12.353
 4793SOL     OW14944   3.087   0.325  11.621
 4793SOL    HW114945   3.152   0.251  11.610
 4793SOL    HW214946   3.107   0.375  11.705
 4794SOL     OW14947   2.456   0.745  11.824
 4794SOL    HW114948   2.506   0.830  11.805
 4794SOL    HW214949   2.368   0.747  11.776
 4795SOL     OW14950   3.639   0.342  12.814
 4795SOL    HW114951   3.622   0.373  12.720
 4795SOL    HW214952   3.555   0.305  12.852
 4796SOL     OW14953   3.592   0.934  12.689
 4796SOL    HW114954   3.630   1.025  12.704
 4796SOL    HW214955   3.584   0.917  12.590
 4797SOL     OW14956   2.721   1.374  11.188
 4797SOL    HW114957   2.675   1.389  11.276
 4797SOL    HW214958   2.765   1.459  11.158
 4798SOL     OW14959   2.523   1.790  12.125
 4798SOL    HW114960   2.477   1.878  12.112
 4798SOL    HW214961   2.622   1.802  12.118
 4799SOL     OW14962   2.721   0.956  12.033
 4799SOL    HW114963   2.775   0.887  12.081
 4799SOL    HW214964   2.689   1.025  12.099
 4800SOL     OW14965   2.945   0.984  11.259
 4800SOL    HW114966   2.922   1.037  11.177
 4800SOL    HW214967   3.026   0.928  11.240
 4801SOL     OW14968   3.723   1.569  12.023
 4801SOL    HW114969   3.652   1.557  11.953
 4801SOL    HW214970   3.724   1.490  12.083
 4802SOL     OW14971   2.083   1.314  13.016
 4802SOL    HW114972   2.018   1.241  12.995
 4802SOL    HW214973   2.087   1.328  13.114
 4803SOL     OW14974   1.941   1.240  11.825
 4803SOL    HW114975   1.940   1.193  11.913
 4803SOL    HW214976   2.023   1.212  11.774
 4804SOL     OW14977   2.534   1.391  12.796
 4804SOL    HW114978   2.456   1.341  12.834
 4804SOL    HW214979   2.531   1.486  12.827
 4805SOL     OW14980   3.686   0.192  12.399
 4805SOL    HW114981   3.682   0.102  12.443
 4805SOL    HW214982   3.689   0.181  12.300
 4806SOL     OW14983   2.290   0.424  11.692
 4806SOL    HW114984   2.320   0.352  11.630
 4806SOL    HW214985   2.251   0.384  11.775
 4807SOL     OW14986   3.567   1.487  12.276
 4807SOL    HW114987   3.474   1.462  12.249
 4807SOL    HW214988   3.593   1.437  12.358
 4808SOL     OW14989   2.179   0.547  12.452
 4808SOL    HW114990   2.217   0.488  12.524
 4808SOL    HW214991   2.219   0.521  12.364
 4809SOL     OW14992   2.674   1.586  11.859
 4809SOL    HW114993   2.706   1.596  11.765
 4809SOL    HW214994   2.595   1.524  11.861
 4810SOL     OW14995   3.286   0.214  12.284
 4810SOL    HW114996   3.338   0.149  12.339
 4810SOL    HW214997   3.237   0.277  12.345
 4811SOL     OW14998   2.863   0.034  12.326
 4811SOL    HW114999   2.800  -0.038  12.295
 4811SOL    HW215000   2.956  -0.002  12.326
 4812SOL     OW15001   2.632   1.330  11.473
 4812SOL    HW115002   2.586   1.243  11.490
 4812SOL    HW215003   2.723   1.327  11.514
 4813SOL     OW15004   2.480   1.567  12.456
 4813SOL    HW115005   2.475   1.649  12.513
 4813SOL    HW215006   2.569   1.564  12.411
 4814SOL     OW15007   3.214   0.052  11.340
 4814SOL    HW115008   3.249   0.011  11.256
 4814SOL    HW215009   3.124   0.014  11.360
 4815SOL     OW15010   3.162   0.453  11.863
 4815SOL    HW115011   3.103   0.533  11.867
 4815SOL    HW215012   3.177   0.418  11.956
 4816SOL     OW15013   3.455   0.221  12.054
 4816SOL    HW115014   3.371   0.220  12.108
 4816SOL    HW215015   3.457   0.304  11.998
 4817SOL     OW15016   1.901   1.077  11.472
 4817SOL    HW115017   2.000   1.066  11.463
 4817SOL    HW215018   1.861   0.991  11.504
 4818SOL     OW15019   2.737   1.646  11.509
 4818SOL    HW115020   2.660   1.611  11.455
 4818SOL    HW215021   2.705   1.717  11.571
 4819SOL     OW15022   2.092   0.628  13.147
 4819SOL    HW115023   1.999   0.626  13.184
 4819SOL    HW215024   2.093   0.589  13.055
 4820SOL     OW15025   2.087   0.275  14.030
 4820SOL    HW115026   2.122   0.258  14.122
 4820SOL    HW215027   1.999   0.230  14.018
 4821SOL     OW15028   1.881   0.368  13.681
 4821SOL    HW115029   1.799   0.411  13.720
 4821SOL    HW215030   1.853   0.295  13.618
 4822SOL     OW15031   3.417   1.511  13.737
 4822SOL    HW115032   3.360   1.495  13.818
 4822SOL    HW215033   3.358   1.521  13.657
 4823SOL     OW15034   2.997   0.703  13.751
 4823SOL    HW115035   3.054   0.781  13.726
 4823SOL    HW215036   2.937   0.729  13.827
 4824SOL     OW15037   3.617   0.607  13.265
 4824SOL    HW115038   3.605   0.594  13.166
 4824SOL    HW215039   3.587   0.526  13.314
 4825SOL     OW15040   2.547   1.012  13.699
 4825SOL    HW115041   2.616   0.996  13.769
 4825SOL    HW215042   2.474   1.069  13.737
 4826SOL     OW15043   3.465   0.447  13.771
 4826SOL    HW115044   3.391   0.493  13.721
 4826SOL    HW215045   3.516   0.515  13.824
 4827SOL     OW15046   2.093   1.713  13.517
 4827SOL    HW115047   2.127   1.790  13.571
 4827SOL    HW215048   2.137   1.713  13.427
 4828SOL     OW15049   2.092   1.434  13.572
 4828SOL    HW115050   2.066   1.530  13.572
 4828SOL    HW215051   2.021   1.380  13.617
 4829SOL     OW15052   2.102   1.091  13.920
 4829SOL    HW115053   2.116   1.007  13.972
 4829SOL    HW215054   2.047   1.155  13.975
 4830SOL     OW15055   2.468   0.964  13.157
 4830SOL    HW115056   2.475   1.048  13.103
 4830SOL    HW215057   2.514   0.977  13.245
 4831SOL     OW15058   1.984   0.643  13.597
 4831SOL    HW115059   1.939   0.555  13.614
 4831SOL    HW215060   1.983   0.697  13.681
 4832SOL     OW15061   3.704   1.767  13.393
 4832SOL    HW115062   3.758   1.738  13.473
 4832SOL    HW215063   3.734   1.857  13.364
 4833SOL     OW15064   1.889   1.596  13.151
 4833SOL    HW115065   1.870   1.500  13.172
 4833SOL    HW215066   1.856   1.654  13.226
 4834SOL     OW15067   3.551   0.922  13.646
 4834SOL    HW115068   3.646   0.893  13.654
 4834SOL    HW215069   3.543   0.987  13.571
 4835SOL     OW15070   3.503   1.108  13.466
 4835SOL    HW115071   3.589   1.110  13.414
 4835SOL    HW215072   3.517   1.155  13.554
 4836SOL     OW15073   2.475   1.365  13.760
 4836SOL    HW115074   2.426   1.278  13.769
 4836SOL    HW215075   2.452   1.408  13.673
 4837SOL     OW15076   2.671   0.004  13.536
 4837SOL    HW115077   2.711   0.095  13.527
 4837SOL    HW215078   2.571   0.012  13.542
 4838SOL     OW15079   3.387   0.999  13.224
 4838SOL    HW115080   3.324   0.923  13.237
 4838SOL    HW215081   3.435   1.017  13.310
 4839SOL     OW15082   3.529   1.714  13.606
 4839SOL    HW115083   3.488   1.691  13.518
 4839SOL    HW215084   3.511   1.640  13.671
 4840SOL     OW15085   2.460   0.729  13.304
 4840SOL    HW115086   2.484   0.798  13.236
 4840SOL    HW215087   2.382   0.762  13.358
 4841SOL     OW15088   3.143   0.345  13.978
 4841SOL    HW115089   3.057   0.295  13.965
 4841SOL    HW215090   3.205   0.291  14.034
 4842SOL     OW15091   3.438   1.662  13.341
 4842SOL    HW115092   3.527   1.708  13.344
 4842SOL    HW215093   3.417   1.638  13.246
 4843SOL     OW15094   2.903   0.701  13.463
 4843SOL    HW115095   2.929   0.697  13.559
 4843SOL    HW215096   2.818   0.650  13.449
 4844SOL     OW15097   1.938   0.811  13.823
 4844SOL    HW115098   2.037   0.799  13.832
 4844SOL    HW215099   1.914   0.906  13.844
 4845SOL     OW15100   2.727   0.348  13.229
 4845SOL    HW115101   2.786   0.411  13.180
 4845SOL    HW215102   2.746   0.254  13.200
 4846SOL     OW15103   3.224   1.144  13.579
 4846SOL    HW115104   3.307   1.115  13.531
 4846SOL    HW215105   3.175   1.211  13.523
 4847SOL     OW15106   2.870   1.456  13.511
 4847SOL    HW115107   2.824   1.528  13.459
 4847SOL    HW215108   2.866   1.476  13.609
 4848SOL     OW15109   2.213   1.801  13.887
 4848SOL    HW115110   2.263   1.715  13.893
 4848SOL    HW215111   2.278   1.878  13.884
 4849SOL     OW15112   3.657   1.066  13.907
 4849SOL    HW115113   3.595   1.051  13.831
 4849SOL    HW215114   3.605   1.077  13.992
 4850SOL     OW15115   2.183   0.943  13.276
 4850SOL    HW115116   2.265   0.982  13.234
 4850SOL    HW215117   2.156   0.861  13.227
 4851SOL     OW15118   3.320   0.735  13.762
 4851SOL    HW115119   3.315   0.670  13.837
 4851SOL    HW215120   3.400   0.794  13.775
 4852SOL     OW15121   2.973   1.776  13.271
 4852SOL    HW115122   2.913   1.714  13.321
 4852SOL    HW215123   3.004   1.732  13.186
 4853SOL     OW15124   3.494   1.377  13.115
 4853SOL    HW115125   3.462   1.471  13.105
 4853SOL    HW215126   3.418   1.314  13.103
 4854SOL     OW15127   2.326   1.743  13.357
 4854SOL    HW115128   2.359   1.782  13.443
 4854SOL    HW215129   2.402   1.736  13.292
 4855SOL     OW15130   3.262   0.107  13.460
 4855SOL    HW115131   3.238   0.070  13.370
 4855SOL    HW215132   3.361   0.123  13.464
 4856SOL     OW15133   2.802   1.698  13.938
 4856SOL    HW115134   2.882   1.641  13.959
 4856SOL    HW215135   2.753   1.658  13.861
 4857SOL     OW15136   2.244   0.700  13.514
 4857SOL    HW115137   2.289   0.610  13.511
 4857SOL    HW215138   2.150   0.689  13.547
 4858SOL     OW15139   2.476   0.122  13.151
 4858SOL    HW115140   2.574   0.100  13.158
 4858SOL    HW215141   2.445   0.105  13.058
 4859SOL     OW15142   2.401   0.064  13.546
 4859SOL    HW115143   2.320   0.065  13.604
 4859SOL    HW215144   2.404   0.147  13.491
 4860SOL     OW15145   3.296   1.188  13.075
 4860SOL    HW115146   3.328   1.112  13.132
 4860SOL    HW215147   3.204   1.215  13.105
 4861SOL     OW15148   2.159   0.035  13.205
 4861SOL    HW115149   2.208   0.119  13.184
 4861SOL    HW215150   2.221  -0.030  13.250
 4862SOL     OW15151   2.797   0.236  13.514
 4862SOL    HW115152   2.749   0.277  13.436
 4862SOL    HW215153   2.896   0.234  13.495
 4863SOL     OW15154   2.321   1.152  13.775
 4863SOL    HW115155   2.250   1.125  13.840
 4863SOL    HW215156   2.295   1.124  13.682
 4864SOL     OW15157   3.133   1.797  13.625
 4864SOL    HW115158   3.177   1.861  13.561
 4864SOL    HW215159   3.083   1.849  13.695
 4865SOL     OW15160   2.894   0.549  13.050
 4865SOL    HW115161   2.853   0.631  13.011
 4865SOL    HW215162   2.958   0.575  13.123
 4866SOL     OW15163   2.728   0.454  13.676
 4866SOL    HW115164   2.696   0.526  13.614
 4866SOL    HW215165   2.752   0.373  13.623
 4867SOL     OW15166   2.879   0.039  13.787
 4867SOL    HW115167   2.807   0.044  13.718
 4867SOL    HW215168   2.855  -0.030  13.856
 4868SOL     OW15169   3.719   0.833  13.411
 4868SOL    HW115170   3.761   0.769  13.475
 4868SOL    HW215171   3.681   0.782  13.333
 4869SOL     OW15172   2.350   1.385  13.208
 4869SOL    HW115173   2.263   1.370  13.255
 4869SOL    HW215174   2.333   1.411  13.113
 4870SOL     OW15175   3.526   1.280  13.691
 4870SOL    HW115176   3.625   1.288  13.705
 4870SOL    HW215177   3.481   1.364  13.722
 4871SOL     OW15178   3.252   0.575  13.112
 4871SOL    HW115179   3.198   0.554  13.193
 4871SOL    HW215180   3.343   0.534  13.121
 4872SOL     OW15181   2.389   0.256  13.362
 4872SOL    HW115182   2.416   0.197  13.287
 4872SOL    HW215183   2.389   0.351  13.331
 4873SOL     OW15184   2.567   1.050  13.402
 4873SOL    HW115185   2.553   1.057  13.501
 4873SOL    HW215186   2.651   0.999  13.384
 4874SOL     OW15187   2.229   1.100  13.535
 4874SOL    HW115188   2.222   1.183  13.479
 4874SOL    HW215189   2.233   1.020  13.475
 4875SOL     OW15190   2.428   0.537  13.899
 4875SOL    HW115191   2.440   0.603  13.825
 4875SOL    HW215192   2.474   0.571  13.982
 4876SOL     OW15193   3.114   1.348  13.422
 4876SOL    HW115194   3.164   1.425  13.462
 4876SOL    HW215195   3.019   1.350  13.454
 4877SOL     OW15196   3.444   0.639  13.506
 4877SOL    HW115197   3.413   0.700  13.579
 4877SOL    HW215198   3.494   0.691  13.437
 4878SOL     OW15199   3.071   0.525  13.309
 4878SOL    HW115200   3.084   0.441  13.363
 4878SOL    HW215201   3.042   0.599  13.369
 4879SOL     OW15202   2.169   0.063  13.652
 4879SOL    HW115203   2.158   0.157  13.685
 4879SOL    HW215204   2.164   0.000  13.729
 4880SOL     OW15205   3.484   0.367  13.408
 4880SOL    HW115206   3.486   0.291  13.472
 4880SOL    HW215207   3.436   0.444  13.448
 4881SOL     OW15208   3.402   0.274  13.159
 4881SOL    HW115209   3.341   0.199  13.182
 4881SOL    HW215210   3.424   0.326  13.242
 4882SOL     OW15211   3.165   0.838  13.076
 4882SOL    HW115212   3.199   0.745  13.091
 4882SOL    HW215213   3.183   0.865  12.981
 4883SOL     OW15214   1.870   1.326  13.234
 4883SOL    HW115215   1.777   1.347  13.203
 4883SOL    HW215216   1.880   1.227  13.247
 4884SOL     OW15217   2.677   0.572  13.359
 4884SOL    HW115218   2.684   0.483  13.313
 4884SOL    HW215219   2.583   0.606  13.351
 4885SOL     OW15220   2.335   0.500  13.225
 4885SOL    HW115221   2.396   0.580  13.229
 4885SOL    HW215222   2.240   0.531  13.232
 4886SOL     OW15223   3.164   0.855  13.343
 4886SOL    HW115224   3.078   0.824  13.385
 4886SOL    HW215225   3.160   0.841  13.244
 4887SOL     OW15226   3.588   0.135  13.557
 4887SOL    HW115227   3.661   0.118  13.490
 4887SOL    HW215228   3.557   0.048  13.595
 4888SOL     OW15229   3.250   1.573  13.511
 4888SOL    HW115230   3.317   1.585  13.437
 4888SOL    HW215231   3.210   1.662  13.534
 4889SOL     OW15232   3.142   0.927  13.706
 4889SOL    HW115233   3.202   0.846  13.708
 4889SOL    HW215234   3.182   0.996  13.646
 4890SOL     OW15235   2.534   1.616  13.188
 4890SOL    HW115236   2.543   1.626  13.089
 4890SOL    HW215237   2.494   1.527  13.209
 4891SOL     OW15238   3.703   0.175  13.997
 4891SOL    HW115239   3.742   0.090  13.961
 4891SOL    HW215240   3.605   0.177  13.978
 4892SOL     OW15241   2.125   0.326  13.754
 4892SOL    HW115242   2.046   0.377  13.720
 4892SOL    HW215243   2.116   0.311  13.852
 4893SOL     OW15244   3.056   1.612  13.065
 4893SOL    HW115245   3.062   1.519  13.102
 4893SOL    HW215246   2.997   1.612  12.985
 4894SOL     OW15247   2.778   0.910  13.325
 4894SOL    HW115248   2.841   0.948  13.257
 4894SOL    HW215249   2.818   0.827  13.364
 4895SOL     OW15250   3.366   1.607  13.078
 4895SOL    HW115251   3.274   1.644  13.085
 4895SOL    HW215252   3.404   1.627  12.988
 4896SOL     OW15253   2.901   1.098  13.730
 4896SOL    HW115254   2.831   1.051  13.784
 4896SOL    HW215255   2.960   1.030  13.687
 4897SOL     OW15256   2.452   1.487  13.525
 4897SOL    HW115257   2.494   1.429  13.455
 4897SOL    HW215258   2.408   1.566  13.481
 4898SOL     OW15259   2.117   1.348  13.324
 4898SOL    HW115260   2.021   1.349  13.297
 4898SOL    HW215261   2.129   1.401  13.408
 4899SOL     OW15262   1.937   0.345  13.067
 4899SOL    HW115263   1.845   0.317  13.038
 4899SOL    HW215264   1.968   0.422  13.011
 4900SOL     OW15265   1.934   0.166  13.352
 4900SOL    HW115266   1.917   0.249  13.298
 4900SOL    HW215267   2.024   0.129  13.330
 4901SOL     OW15268   3.045   1.335  13.153
 4901SOL    HW115269   2.946   1.324  13.155
 4901SOL    HW215270   3.079   1.350  13.246
 4902SOL     OW15271   3.087   0.325  13.483
 4902SOL    HW115272   3.152   0.251  13.472
 4902SOL    HW215273   3.107   0.375  13.567
 4903SOL     OW15274   2.456   0.745  13.686
 4903SOL    HW115275   2.506   0.830  13.667
 4903SOL    HW215276   2.368   0.747  13.638
 4904SOL     OW15277   2.721   1.374  13.050
 4904SOL    HW115278   2.675   1.389  13.138
 4904SOL    HW215279   2.765   1.459  13.020
 4905SOL     OW15280   2.523   1.790  13.987
 4905SOL    HW115281   2.477   1.878  13.974
 4905SOL    HW215282   2.622   1.802  13.980
 4906SOL     OW15283   2.721   0.956  13.895
 4906SOL    HW115284   2.775   0.887  13.943
 4906SOL    HW215285   2.689   1.025  13.961
 4907SOL     OW15286   2.945   0.984  13.121
 4907SOL    HW115287   2.922   1.037  13.039
 4907SOL    HW215288   3.026   0.928  13.102
 4908SOL     OW15289   1.941   1.240  13.687
 4908SOL    HW115290   1.940   1.193  13.775
 4908SOL    HW215291   2.023   1.212  13.636
 4909SOL     OW15292   2.290   0.424  13.554
 4909SOL    HW115293   2.320   0.352  13.492
 4909SOL    HW215294   2.251   0.384  13.637
 4910SOL     OW15295   3.567   1.487  14.138
 4910SOL    HW115296   3.474   1.462  14.111
 4910SOL    HW215297   3.593   1.437  14.220
 4911SOL     OW15298   2.674   1.586  13.721
 4911SOL    HW115299   2.706   1.596  13.627
 4911SOL    HW215300   2.595   1.524  13.723
 4912SOL     OW15301   2.632   1.330  13.335
 4912SOL    HW115302   2.586   1.243  13.352
 4912SOL    HW215303   2.723   1.327  13.376
 4913SOL     OW15304   3.214   0.052  13.202
 4913SOL    HW115305   3.249   0.011  13.118
 4913SOL    HW215306   3.124   0.014  13.222
 4914SOL     OW15307   3.162   0.453  13.725
 4914SOL    HW115308   3.103   0.533  13.729
 4914SOL    HW215309   3.177   0.418  13.818
 4915SOL     OW15310   1.901   1.077  13.334
 4915SOL    HW115311   2.000   1.066  13.325
 4915SOL    HW215312   1.861   0.991  13.366
 4916SOL     OW15313   2.737   1.646  13.371
 4916SOL    HW115314   2.660   1.611  13.317
 4916SOL    HW215315   2.705   1.717  13.433
 4917SOL     OW15316   2.092   2.490   0.113
 4917SOL    HW115317   1.999   2.488   0.150
 4917SOL    HW215318   2.093   2.451   0.021
 4918SOL     OW15319   1.881   2.230   0.647
 4918SOL    HW115320   1.799   2.273   0.686
 4918SOL    HW215321   1.853   2.157   0.584
 4919SOL     OW15322   2.431   3.137   1.165
 4919SOL    HW115323   2.338   3.130   1.128
 4919SOL    HW215324   2.442   3.226   1.209
 4920SOL     OW15325   3.417   3.373   0.703
 4920SOL    HW115326   3.360   3.357   0.784
 4920SOL    HW215327   3.358   3.383   0.623
 4921SOL     OW15328   2.997   2.565   0.717
 4921SOL    HW115329   3.054   2.643   0.692
 4921SOL    HW215330   2.937   2.591   0.793
 4922SOL     OW15331   3.617   2.469   0.231
 4922SOL    HW115332   3.605   2.456   0.132
 4922SOL    HW215333   3.587   2.388   0.280
 4923SOL     OW15334   2.630   3.006   1.023
 4923SOL    HW115335   2.552   3.023   1.083
 4923SOL    HW215336   2.664   3.093   0.987
 4924SOL     OW15337   2.712   2.660   1.823
 4924SOL    HW115338   2.708   2.736   1.888
 4924SOL    HW215339   2.734   2.696   1.732
 4925SOL     OW15340   2.547   2.874   0.665
 4925SOL    HW115341   2.616   2.858   0.735
 4925SOL    HW215342   2.474   2.931   0.703
 4926SOL     OW15343   2.548   3.023   1.803
 4926SOL    HW115344   2.608   3.102   1.817
 4926SOL    HW215345   2.462   3.054   1.762
 4927SOL     OW15346   2.197   3.297   1.061
 4927SOL    HW115347   2.119   3.266   1.008
 4927SOL    HW215348   2.255   3.355   1.004
 4928SOL     OW15349   3.322   3.367   1.339
 4928SOL    HW115350   3.346   3.461   1.365
 4928SOL    HW215351   3.306   3.313   1.421
 4929SOL     OW15352   2.300   2.254   1.499
 4929SOL    HW115353   2.382   2.198   1.508
 4929SOL    HW215354   2.219   2.196   1.503
 4930SOL     OW15355   3.465   2.309   0.737
 4930SOL    HW115356   3.391   2.355   0.687
 4930SOL    HW215357   3.516   2.377   0.790
 4931SOL     OW15358   2.093   3.575   0.483
 4931SOL    HW115359   2.127   3.652   0.537
 4931SOL    HW215360   2.137   3.575   0.393
 4932SOL     OW15361   2.989   3.203   1.690
 4932SOL    HW115362   3.036   3.203   1.778
 4932SOL    HW215363   2.941   3.116   1.679
 4933SOL     OW15364   2.092   3.296   0.538
 4933SOL    HW115365   2.066   3.392   0.538
 4933SOL    HW215366   2.021   3.242   0.583
 4934SOL     OW15367   2.102   2.953   0.886
 4934SOL    HW115368   2.116   2.869   0.938
 4934SOL    HW215369   2.047   3.017   0.941
 4935SOL     OW15370   2.482   3.648   1.439
 4935SOL    HW115371   2.390   3.631   1.474
 4935SOL    HW215372   2.510   3.740   1.465
 4936SOL     OW15373   2.468   2.826   0.123
 4936SOL    HW115374   2.475   2.910   0.069
 4936SOL    HW215375   2.514   2.839   0.211
 4937SOL     OW15376   3.456   1.976   1.480
 4937SOL    HW115377   3.438   2.043   1.408
 4937SOL    HW215378   3.453   2.022   1.569
 4938SOL     OW15379   1.984   2.505   0.563
 4938SOL    HW115380   1.939   2.417   0.580
 4938SOL    HW215381   1.983   2.559   0.647
 4939SOL     OW15382   3.704   3.629   0.359
 4939SOL    HW115383   3.758   3.600   0.439
 4939SOL    HW215384   3.734   3.719   0.330
 4940SOL     OW15385   1.889   3.458   0.117
 4940SOL    HW115386   1.870   3.362   0.138
 4940SOL    HW215387   1.856   3.516   0.192
 4941SOL     OW15388   3.551   2.784   0.612
 4941SOL    HW115389   3.646   2.755   0.620
 4941SOL    HW215390   3.543   2.849   0.537
 4942SOL     OW15391   3.503   2.970   0.432
 4942SOL    HW115392   3.589   2.972   0.380
 4942SOL    HW215393   3.517   3.017   0.520
 4943SOL     OW15394   1.975   2.599   1.597
 4943SOL    HW115395   2.063   2.586   1.642
 4943SOL    HW215396   1.962   2.696   1.575
 4944SOL     OW15397   2.475   3.227   0.726
 4944SOL    HW115398   2.426   3.140   0.735
 4944SOL    HW215399   2.452   3.270   0.639
 4945SOL     OW15400   3.155   3.090   1.423
 4945SOL    HW115401   3.192   3.017   1.365
 4945SOL    HW215402   3.207   3.095   1.508
 4946SOL     OW15403   2.671   1.866   0.502
 4946SOL    HW115404   2.711   1.957   0.493
 4946SOL    HW215405   2.571   1.874   0.508
 4947SOL     OW15406   2.059   2.838   1.264
 4947SOL    HW115407   2.148   2.793   1.250
 4947SOL    HW215408   1.986   2.773   1.245
 4948SOL     OW15409   3.387   2.861   0.190
 4948SOL    HW115410   3.324   2.785   0.203
 4948SOL    HW215411   3.435   2.879   0.276
 4949SOL     OW15412   3.049   3.654   1.616
 4949SOL    HW115413   3.073   3.714   1.540
 4949SOL    HW215414   3.056   3.559   1.586
 4950SOL     OW15415   3.328   3.279   0.953
 4950SOL    HW115416   3.269   3.285   1.033
 4950SOL    HW215417   3.313   3.191   0.907
 4951SOL     OW15418   3.529   3.576   0.572
 4951SOL    HW115419   3.488   3.553   0.484
 4951SOL    HW215420   3.511   3.502   0.637
 4952SOL     OW15421   2.460   2.591   0.270
 4952SOL    HW115422   2.484   2.660   0.202
 4952SOL    HW215423   2.382   2.624   0.324
 4953SOL     OW15424   3.143   2.207   0.944
 4953SOL    HW115425   3.057   2.157   0.931
 4953SOL    HW215426   3.205   2.153   1.000
 4954SOL     OW15427   3.438   3.524   0.307
 4954SOL    HW115428   3.527   3.570   0.310
 4954SOL    HW215429   3.417   3.500   0.212
 4955SOL     OW15430   2.669   2.467   1.465
 4955SOL    HW115431   2.622   2.464   1.554
 4955SOL    HW215432   2.618   2.412   1.399
 4956SOL     OW15433   3.256   2.331   1.674
 4956SOL    HW115434   3.236   2.374   1.762
 4956SOL    HW215435   3.334   2.269   1.683
 4957SOL     OW15436   2.835   2.752   1.572
 4957SOL    HW115437   2.881   2.668   1.543
 4957SOL    HW215438   2.779   2.786   1.497
 4958SOL     OW15439   2.853   2.272   1.242
 4958SOL    HW115440   2.776   2.306   1.296
 4958SOL    HW215441   2.819   2.221   1.163
 4959SOL     OW15442   2.903   2.563   0.429
 4959SOL    HW115443   2.929   2.559   0.525
 4959SOL    HW215444   2.818   2.512   0.415
 4960SOL     OW15445   1.938   2.673   0.789
 4960SOL    HW115446   2.037   2.661   0.798
 4960SOL    HW215447   1.914   2.768   0.810
 4961SOL     OW15448   1.992   3.683   1.571
 4961SOL    HW115449   1.982   3.668   1.670
 4961SOL    HW215450   1.906   3.719   1.535
 4962SOL     OW15451   2.727   2.210   0.195
 4962SOL    HW115452   2.786   2.273   0.146
 4962SOL    HW215453   2.746   2.116   0.166
 4963SOL     OW15454   3.581   2.447   1.831
 4963SOL    HW115455   3.555   2.536   1.795
 4963SOL    HW215456   3.579   2.379   1.758
 4964SOL     OW15457   3.224   3.006   0.545
 4964SOL    HW115458   3.307   2.977   0.497
 4964SOL    HW215459   3.175   3.073   0.489
 4965SOL     OW15460   2.412   2.058   0.885
 4965SOL    HW115461   2.407   2.053   0.985
 4965SOL    HW215462   2.414   2.154   0.856
 4966SOL     OW15463   2.870   3.318   0.477
 4966SOL    HW115464   2.824   3.390   0.425
 4966SOL    HW215465   2.866   3.338   0.575
 4967SOL     OW15466   2.213   3.663   0.853
 4967SOL    HW115467   2.263   3.577   0.859
 4967SOL    HW215468   2.278   3.740   0.850
 4968SOL     OW15469   3.657   2.928   0.873
 4968SOL    HW115470   3.595   2.913   0.797
 4968SOL    HW215471   3.605   2.939   0.958
 4969SOL     OW15472   3.089   3.412   1.506
 4969SOL    HW115473   3.095   3.335   1.570
 4969SOL    HW215474   3.037   3.386   1.426
 4970SOL     OW15475   2.183   2.805   0.242
 4970SOL    HW115476   2.265   2.844   0.200
 4970SOL    HW215477   2.156   2.723   0.193
 4971SOL     OW15478   3.320   2.597   0.728
 4971SOL    HW115479   3.315   2.532   0.803
 4971SOL    HW215480   3.400   2.656   0.741
 4972SOL     OW15481   2.323   3.128   1.727
 4972SOL    HW115482   2.273   3.129   1.641
 4972SOL    HW215483   2.260   3.110   1.803
 4973SOL     OW15484   2.973   3.638   0.237
 4973SOL    HW115485   2.913   3.576   0.287
 4973SOL    HW215486   3.004   3.594   0.152
 4974SOL     OW15487   3.494   3.239   0.081
 4974SOL    HW115488   3.462   3.333   0.071
 4974SOL    HW215489   3.418   3.176   0.069
 4975SOL     OW15490   2.326   3.605   0.323
 4975SOL    HW115491   2.359   3.644   0.409
 4975SOL    HW215492   2.402   3.598   0.258
 4976SOL     OW15493   3.262   1.969   0.426
 4976SOL    HW115494   3.238   1.932   0.336
 4976SOL    HW215495   3.361   1.985   0.430
 4977SOL     OW15496   2.111   3.647   1.241
 4977SOL    HW115497   2.168   3.582   1.291
 4977SOL    HW215498   2.095   3.614   1.148
 4978SOL     OW15499   2.802   3.560   0.904
 4978SOL    HW115500   2.882   3.503   0.925
 4978SOL    HW215501   2.753   3.520   0.827
 4979SOL     OW15502   2.244   2.562   0.480
 4979SOL    HW115503   2.289   2.472   0.477
 4979SOL    HW215504   2.150   2.551   0.513
 4980SOL     OW15505   3.409   2.084   1.729
 4980SOL    HW115506   3.404   2.121   1.821
 4980SOL    HW215507   3.337   2.015   1.717
 4981SOL     OW15508   2.643   2.126   1.749
 4981SOL    HW115509   2.710   2.065   1.792
 4981SOL    HW215510   2.570   2.145   1.814
 4982SOL     OW15511   2.750   3.376   1.195
 4982SOL    HW115512   2.727   3.351   1.101
 4982SOL    HW215513   2.811   3.307   1.234
 4983SOL     OW15514   3.213   2.452   1.433
 4983SOL    HW115515   3.241   2.409   1.518
 4983SOL    HW215516   3.238   2.548   1.434
 4984SOL     OW15517   2.665   3.264   0.924
 4984SOL    HW115518   2.755   3.278   0.882
 4984SOL    HW215519   2.594   3.266   0.853
 4985SOL     OW15520   2.784   2.365   0.899
 4985SOL    HW115521   2.759   2.356   0.803
 4985SOL    HW215522   2.832   2.283   0.930
 4986SOL     OW15523   2.401   1.926   0.512
 4986SOL    HW115524   2.320   1.927   0.570
 4986SOL    HW215525   2.404   2.009   0.457
 4987SOL     OW15526   3.296   3.050   0.041
 4987SOL    HW115527   3.328   2.974   0.098
 4987SOL    HW215528   3.204   3.077   0.071
 4988SOL     OW15529   2.797   2.098   0.480
 4988SOL    HW115530   2.749   2.139   0.402
 4988SOL    HW215531   2.896   2.096   0.461
 4989SOL     OW15532   2.938   2.545   1.464
 4989SOL    HW115533   2.858   2.484   1.467
 4989SOL    HW215534   3.019   2.492   1.440
 4990SOL     OW15535   3.089   3.432   0.793
 4990SOL    HW115536   3.110   3.506   0.728
 4990SOL    HW215537   3.157   3.432   0.866
 4991SOL     OW15538   2.321   3.014   0.741
 4991SOL    HW115539   2.250   2.987   0.806
 4991SOL    HW215540   2.295   2.986   0.648
 4992SOL     OW15541   3.133   3.659   0.591
 4992SOL    HW115542   3.177   3.723   0.527
 4992SOL    HW215543   3.083   3.711   0.661
 4993SOL     OW15544   2.894   2.411   0.016
 4993SOL    HW115545   2.853   2.493  -0.023
 4993SOL    HW215546   2.958   2.437   0.089
 4994SOL     OW15547   1.940   2.418   1.386
 4994SOL    HW115548   2.032   2.417   1.345
 4994SOL    HW215549   1.934   2.492   1.453
 4995SOL     OW15550   2.423   2.084   1.147
 4995SOL    HW115551   2.461   2.000   1.184
 4995SOL    HW215552   2.335   2.103   1.191
 4996SOL     OW15553   2.728   2.316   0.642
 4996SOL    HW115554   2.696   2.388   0.580
 4996SOL    HW215555   2.752   2.235   0.589
 4997SOL     OW15556   2.879   1.901   0.753
 4997SOL    HW115557   2.807   1.906   0.684
 4997SOL    HW215558   2.855   1.832   0.822
 4998SOL     OW15559   3.291   3.035   0.867
 4998SOL    HW115560   3.236   2.951   0.860
 4998SOL    HW215561   3.317   3.064   0.775
 4999SOL     OW15562   3.328   2.452   0.992
 4999SOL    HW115563   3.298   2.357   0.999
 4999SOL    HW215564   3.401   2.468   1.058
 5000SOL     OW15565   3.719   2.695   0.377
 5000SOL    HW115566   3.761   2.631   0.441
 5000SOL    HW215567   3.681   2.644   0.299
 5001SOL     OW15568   2.350   3.247   0.174
 5001SOL    HW115569   2.263   3.232   0.221
 5001SOL    HW215570   2.333   3.273   0.079
 5002SOL     OW15571   3.526   3.142   0.657
 5002SOL    HW115572   3.625   3.150   0.671
 5002SOL    HW215573   3.481   3.226   0.688
 5003SOL     OW15574   3.252   2.437   0.078
 5003SOL    HW115575   3.198   2.416   0.159
 5003SOL    HW215576   3.343   2.396   0.087
 5004SOL     OW15577   2.389   2.118   0.328
 5004SOL    HW115578   2.416   2.059   0.253
 5004SOL    HW215579   2.389   2.213   0.297
 5005SOL     OW15580   3.616   3.085   1.588
 5005SOL    HW115581   3.707   3.046   1.575
 5005SOL    HW215582   3.624   3.181   1.612
 5006SOL     OW15583   2.926   3.209   1.340
 5006SOL    HW115584   2.846   3.186   1.395
 5006SOL    HW215585   3.009   3.183   1.389
 5007SOL     OW15586   3.454   3.491   1.625
 5007SOL    HW115587   3.481   3.525   1.535
 5007SOL    HW215588   3.533   3.453   1.671
 5008SOL     OW15589   2.973   3.057   1.100
 5008SOL    HW115590   2.933   3.101   1.181
 5008SOL    HW215591   2.932   3.094   1.017
 5009SOL     OW15592   3.500   2.961   1.079
 5009SOL    HW115593   3.505   3.042   1.138
 5009SOL    HW215594   3.414   2.963   1.028
 5010SOL     OW15595   2.777   1.951   1.402
 5010SOL    HW115596   2.802   1.931   1.307
 5010SOL    HW215597   2.849   2.007   1.444
 5011SOL     OW15598   2.842   2.978   1.719
 5011SOL    HW115599   2.743   2.984   1.729
 5011SOL    HW215600   2.865   2.898   1.663
 5012SOL     OW15601   2.567   2.912   0.368
 5012SOL    HW115602   2.553   2.919   0.467
 5012SOL    HW215603   2.651   2.861   0.350
 5013SOL     OW15604   2.272   2.675   1.251
 5013SOL    HW115605   2.358   2.687   1.301
 5013SOL    HW215606   2.230   2.588   1.278
 5014SOL     OW15607   3.136   2.248   1.262
 5014SOL    HW115608   3.157   2.322   1.326
 5014SOL    HW215609   3.047   2.265   1.219
 5015SOL     OW15610   1.926   3.426   1.331
 5015SOL    HW115611   1.880   3.508   1.297
 5015SOL    HW215612   2.024   3.445   1.340
 5016SOL     OW15613   2.229   2.962   0.501
 5016SOL    HW115614   2.222   3.045   0.445
 5016SOL    HW215615   2.233   2.882   0.441
 5017SOL     OW15616   2.428   2.399   0.865
 5017SOL    HW115617   2.440   2.465   0.791
 5017SOL    HW215618   2.474   2.433   0.948
 5018SOL     OW15619   3.114   3.210   0.388
 5018SOL    HW115620   3.164   3.287   0.428
 5018SOL    HW215621   3.019   3.212   0.420
 5019SOL     OW15622   3.134   3.307   1.142
 5019SOL    HW115623   3.181   3.320   1.229
 5019SOL    HW215624   3.068   3.233   1.151
 5020SOL     OW15625   3.444   2.501   0.472
 5020SOL    HW115626   3.413   2.562   0.545
 5020SOL    HW215627   3.494   2.553   0.403
 5021SOL     OW15628   2.216   3.372   1.329
 5021SOL    HW115629   2.195   3.328   1.242
 5021SOL    HW215630   2.313   3.398   1.332
 5022SOL     OW15631   2.264   2.613   1.598
 5022SOL    HW115632   2.332   2.668   1.551
 5022SOL    HW215633   2.304   2.525   1.625
 5023SOL     OW15634   3.449   2.641   1.670
 5023SOL    HW115635   3.357   2.679   1.665
 5023SOL    HW215636   3.509   2.688   1.605
 5024SOL     OW15637   2.875   1.967   1.770
 5024SOL    HW115638   2.881   2.052   1.718
 5024SOL    HW215639   2.907   1.891   1.713
 5025SOL     OW15640   2.366   1.912   1.740
 5025SOL    HW115641   2.324   1.855   1.670
 5025SOL    HW215642   2.300   1.981   1.772
 5026SOL     OW15643   2.435   2.732   1.029
 5026SOL    HW115644   2.479   2.821   1.020
 5026SOL    HW215645   2.372   2.732   1.106
 5027SOL     OW15646   3.222   2.724   1.045
 5027SOL    HW115647   3.147   2.724   0.979
 5027SOL    HW215648   3.259   2.632   1.054
 5028SOL     OW15649   3.071   2.387   0.275
 5028SOL    HW115650   3.084   2.303   0.329
 5028SOL    HW215651   3.042   2.461   0.335
 5029SOL     OW15652   1.899   3.172   1.282
 5029SOL    HW115653   1.952   3.123   1.350
 5029SOL    HW215654   1.921   3.270   1.287
 5030SOL     OW15655   2.594   2.496   1.064
 5030SOL    HW115656   2.653   2.470   0.988
 5030SOL    HW215657   2.566   2.592   1.053
 5031SOL     OW15658   3.590   2.797   1.854
 5031SOL    HW115659   3.544   2.790   1.765
 5031SOL    HW215660   3.528   2.841   1.920
 5032SOL     OW15661   2.169   1.925   0.618
 5032SOL    HW115662   2.158   2.019   0.651
 5032SOL    HW215663   2.164   1.862   0.695
 5033SOL     OW15664   3.484   2.229   0.374
 5033SOL    HW115665   3.486   2.153   0.438
 5033SOL    HW215666   3.436   2.306   0.414
 5034SOL     OW15667   2.885   2.628   0.966
 5034SOL    HW115668   2.900   2.649   1.062
 5034SOL    HW215669   2.855   2.533   0.957
 5035SOL     OW15670   2.842   3.435   1.700
 5035SOL    HW115671   2.822   3.479   1.612
 5035SOL    HW215672   2.881   3.344   1.684
 5036SOL     OW15673   3.721   3.380   1.605
 5036SOL    HW115674   3.735   3.407   1.510
 5036SOL    HW215675   3.804   3.402   1.658
 5037SOL     OW15676   2.212   2.760   1.804
 5037SOL    HW115677   2.288   2.804   1.852
 5037SOL    HW215678   2.247   2.713   1.722
 5038SOL     OW15679   3.402   2.136   0.125
 5038SOL    HW115680   3.341   2.061   0.148
 5038SOL    HW215681   3.424   2.188   0.208
 5039SOL     OW15682   3.165   2.700   0.042
 5039SOL    HW115683   3.199   2.607   0.057
 5039SOL    HW215684   3.183   2.727  -0.053
 5040SOL     OW15685   2.930   3.195   0.849
 5040SOL    HW115686   2.937   3.111   0.794
 5040SOL    HW215687   2.992   3.264   0.813
 5041SOL     OW15688   2.181   2.672   0.949
 5041SOL    HW115689   2.274   2.708   0.954
 5041SOL    HW215690   2.175   2.587   1.001
 5042SOL     OW15691   2.201   2.371   1.006
 5042SOL    HW115692   2.149   2.288   0.989
 5042SOL    HW215693   2.278   2.376   0.942
 5043SOL     OW15694   3.000   2.242   1.678
 5043SOL    HW115695   2.955   2.305   1.742
 5043SOL    HW215696   3.093   2.273   1.661
 5044SOL     OW15697   3.022   2.069   1.477
 5044SOL    HW115698   3.022   2.133   1.554
 5044SOL    HW215699   3.050   2.117   1.394
 5045SOL     OW15700   1.870   3.188   0.200
 5045SOL    HW115701   1.777   3.209   0.169
 5045SOL    HW215702   1.880   3.089   0.213
 5046SOL     OW15703   1.950   3.663   0.927
 5046SOL    HW115704   1.908   3.577   0.900
 5046SOL    HW215705   2.044   3.666   0.893
 5047SOL     OW15706   2.366   3.430   0.910
 5047SOL    HW115707   2.432   3.504   0.919
 5047SOL    HW215708   2.410   3.351   0.868
 5048SOL     OW15709   2.864   2.658   1.238
 5048SOL    HW115710   2.905   2.626   1.324
 5048SOL    HW215711   2.768   2.631   1.235
 5049SOL     OW15712   1.902   2.406   1.114
 5049SOL    HW115713   1.987   2.373   1.073
 5049SOL    HW215714   1.915   2.421   1.212
 5050SOL     OW15715   2.051   2.382   1.722
 5050SOL    HW115716   2.110   2.342   1.652
 5050SOL    HW215717   1.993   2.453   1.681
 5051SOL     OW15718   3.231   2.812   1.660
 5051SOL    HW115719   3.270   2.901   1.680
 5051SOL    HW215720   3.241   2.792   1.563
 5052SOL     OW15721   2.677   2.434   0.325
 5052SOL    HW115722   2.684   2.345   0.279
 5052SOL    HW215723   2.583   2.468   0.317
 5053SOL     OW15724   3.519   2.466   1.206
 5053SOL    HW115725   3.481   2.397   1.268
 5053SOL    HW215726   3.601   2.430   1.162
 5054SOL     OW15727   2.114   3.426   1.744
 5054SOL    HW115728   2.084   3.483   1.820
 5054SOL    HW215729   2.107   3.329   1.770
 5055SOL     OW15730   2.533   2.326   1.269
 5055SOL    HW115731   2.499   2.237   1.239
 5055SOL    HW215732   2.559   2.380   1.189
 5056SOL     OW15733   2.792   3.540   1.465
 5056SOL    HW115734   2.768   3.522   1.370
 5056SOL    HW215735   2.822   3.634   1.475
 5057SOL     OW15736   2.335   2.362   0.191
 5057SOL    HW115737   2.396   2.442   0.195
 5057SOL    HW215738   2.240   2.393   0.198
 5058SOL     OW15739   2.021   2.999   1.466
 5058SOL    HW115740   2.043   2.938   1.542
 5058SOL    HW215741   2.031   2.950   1.380
 5059SOL     OW15742   3.209   2.921   1.234
 5059SOL    HW115743   3.233   2.858   1.160
 5059SOL    HW215744   3.119   2.961   1.216
 5060SOL     OW15745   3.164   2.717   0.309
 5060SOL    HW115746   3.078   2.686   0.351
 5060SOL    HW215747   3.160   2.703   0.210
 5061SOL     OW15748   3.621   3.609   1.154
 5061SOL    HW115749   3.682   3.639   1.081
 5061SOL    HW215750   3.583   3.520   1.132
 5062SOL     OW15751   3.114   3.593   1.128
 5062SOL    HW115752   3.198   3.598   1.074
 5062SOL    HW215753   3.091   3.497   1.146
 5063SOL     OW15754   1.945   3.120   1.022
 5063SOL    HW115755   1.940   3.119   1.122
 5063SOL    HW215756   1.862   3.079   0.984
 5064SOL     OW15757   2.550   3.524   1.716
 5064SOL    HW115758   2.494   3.605   1.725
 5064SOL    HW215759   2.602   3.528   1.630
 5065SOL     OW15760   2.765   1.948   0.133
 5065SOL    HW115761   2.816   1.949   0.047
 5065SOL    HW215762   2.821   1.906   0.204
 5066SOL     OW15763   3.588   1.997   0.523
 5066SOL    HW115764   3.661   1.980   0.456
 5066SOL    HW215765   3.557   1.910   0.561
 5067SOL     OW15766   3.250   3.435   0.477
 5067SOL    HW115767   3.317   3.447   0.403
 5067SOL    HW215768   3.210   3.524   0.500
 5068SOL     OW15769   1.992   3.656   1.851
 5068SOL    HW115770   1.951   3.582   1.904
 5068SOL    HW215771   2.056   3.707   1.909
 5069SOL     OW15772   3.142   2.789   0.672
 5069SOL    HW115773   3.202   2.708   0.674
 5069SOL    HW215774   3.182   2.858   0.612
 5070SOL     OW15775   2.692   3.135   1.422
 5070SOL    HW115776   2.687   3.168   1.517
 5070SOL    HW215777   2.606   3.154   1.376
 5071SOL     OW15778   2.534   3.478   0.154
 5071SOL    HW115779   2.543   3.488   0.055
 5071SOL    HW215780   2.494   3.389   0.175
 5072SOL     OW15781   3.512   3.582   1.394
 5072SOL    HW115782   3.565   3.592   1.310
 5072SOL    HW215783   3.485   3.672   1.428
 5073SOL     OW15784   3.703   2.037   0.963
 5073SOL    HW115785   3.742   1.952   0.927
 5073SOL    HW215786   3.605   2.039   0.944
 5074SOL     OW15787   3.056   3.474   0.031
 5074SOL    HW115788   3.062   3.381   0.068
 5074SOL    HW215789   2.997   3.474  -0.049
 5075SOL     OW15790   2.684   2.864   1.372
 5075SOL    HW115791   2.724   2.863   1.280
 5075SOL    HW215792   2.694   2.956   1.412
 5076SOL     OW15793   2.778   2.772   0.291
 5076SOL    HW115794   2.841   2.810   0.223
 5076SOL    HW215795   2.818   2.689   0.330
 5077SOL     OW15796   3.366   3.469   0.044
 5077SOL    HW115797   3.274   3.506   0.051
 5077SOL    HW215798   3.404   3.489  -0.046
 5078SOL     OW15799   2.234   3.150   1.490
 5078SOL    HW115800   2.221   3.243   1.456
 5078SOL    HW215801   2.150   3.098   1.477
 5079SOL     OW15802   3.476   3.154   1.289
 5079SOL    HW115803   3.536   3.157   1.369
 5079SOL    HW215804   3.401   3.218   1.302
 5080SOL     OW15805   2.901   2.960   0.696
 5080SOL    HW115806   2.831   2.913   0.750
 5080SOL    HW215807   2.960   2.892   0.653
 5081SOL     OW15808   2.876   2.098   0.971
 5081SOL    HW115809   2.868   2.062   0.878
 5081SOL    HW215810   2.874   2.022   1.036
 5082SOL     OW15811   2.452   3.349   0.491
 5082SOL    HW115812   2.494   3.291   0.421
 5082SOL    HW215813   2.408   3.428   0.447
 5083SOL     OW15814   3.571   2.247   1.381
 5083SOL    HW115815   3.644   2.316   1.385
 5083SOL    HW215816   3.599   2.172   1.322
 5084SOL     OW15817   2.117   3.210   0.290
 5084SOL    HW115818   2.021   3.211   0.263
 5084SOL    HW215819   2.129   3.263   0.374
 5085SOL     OW15820   1.967   2.875   1.726
 5085SOL    HW115821   1.890   2.842   1.780
 5085SOL    HW215822   2.052   2.845   1.768
 5086SOL     OW15823   2.534   2.065   1.489
 5086SOL    HW115824   2.624   2.049   1.449
 5086SOL    HW215825   2.542   2.070   1.588
 5087SOL     OW15826   1.937   2.207   0.033
 5087SOL    HW115827   1.845   2.179   0.004
 5087SOL    HW215828   1.968   2.284  -0.023
 5088SOL     OW15829   3.302   2.718   1.398
 5088SOL    HW115830   3.245   2.770   1.335
 5088SOL    HW215831   3.398   2.730   1.374
 5089SOL     OW15832   3.045   3.197   0.119
 5089SOL    HW115833   2.946   3.186   0.121
 5089SOL    HW215834   3.079   3.212   0.212
 5090SOL     OW15835   2.475   2.704   1.431
 5090SOL    HW115836   2.531   2.785   1.414
 5090SOL    HW215837   2.534   2.624   1.434
 5091SOL     OW15838   3.355   3.629   0.959
 5091SOL    HW115839   3.388   3.693   0.890
 5091SOL    HW215840   3.421   3.623   1.034
 5092SOL     OW15841   2.578   2.427   1.708
 5092SOL    HW115842   2.597   2.492   1.782
 5092SOL    HW215843   2.638   2.347   1.717
 5093SOL     OW15844   3.312   3.082   1.633
 5093SOL    HW115845   3.303   3.072   1.732
 5093SOL    HW215846   3.408   3.075   1.607
 5094SOL     OW15847   2.252   3.603   1.560
 5094SOL    HW115848   2.161   3.644   1.558
 5094SOL    HW215849   2.245   3.509   1.592
 5095SOL     OW15850   3.536   2.745   1.254
 5095SOL    HW115851   3.509   2.656   1.217
 5095SOL    HW215852   3.537   2.813   1.181
 5096SOL     OW15853   3.087   2.187   0.449
 5096SOL    HW115854   3.152   2.113   0.438
 5096SOL    HW215855   3.107   2.237   0.533
 5097SOL     OW15856   2.456   2.607   0.652
 5097SOL    HW115857   2.506   2.692   0.633
 5097SOL    HW215858   2.368   2.609   0.604
 5098SOL     OW15859   3.639   2.204   1.642
 5098SOL    HW115860   3.622   2.235   1.548
 5098SOL    HW215861   3.555   2.167   1.680
 5099SOL     OW15862   3.592   2.796   1.517
 5099SOL    HW115863   3.630   2.887   1.532
 5099SOL    HW215864   3.584   2.779   1.418
 5100SOL     OW15865   2.721   3.236   0.016
 5100SOL    HW115866   2.675   3.251   0.104
 5100SOL    HW215867   2.765   3.321  -0.014
 5101SOL     OW15868   2.523   3.652   0.953
 5101SOL    HW115869   2.477   3.740   0.940
 5101SOL    HW215870   2.622   3.664   0.946
 5102SOL     OW15871   2.721   2.818   0.861
 5102SOL    HW115872   2.775   2.749   0.909
 5102SOL    HW215873   2.689   2.887   0.927
 5103SOL     OW15874   2.945   2.846   0.087
 5103SOL    HW115875   2.922   2.899   0.005
 5103SOL    HW215876   3.026   2.790   0.068
 5104SOL     OW15877   3.723   3.431   0.851
 5104SOL    HW115878   3.652   3.419   0.781
 5104SOL    HW215879   3.724   3.352   0.911
 5105SOL     OW15880   2.083   3.176   1.844
 5105SOL    HW115881   2.018   3.103   1.823
 5105SOL    HW215882   2.087   3.190   1.942
 5106SOL     OW15883   1.941   3.102   0.653
 5106SOL    HW115884   1.940   3.055   0.741
 5106SOL    HW215885   2.023   3.074   0.602
 5107SOL     OW15886   2.534   3.253   1.624
 5107SOL    HW115887   2.456   3.203   1.662
 5107SOL    HW215888   2.531   3.348   1.655
 5108SOL     OW15889   3.686   2.054   1.227
 5108SOL    HW115890   3.682   1.964   1.271
 5108SOL    HW215891   3.689   2.043   1.128
 5109SOL     OW15892   2.290   2.286   0.520
 5109SOL    HW115893   2.320   2.214   0.458
 5109SOL    HW215894   2.251   2.246   0.603
 5110SOL     OW15895   3.567   3.349   1.104
 5110SOL    HW115896   3.474   3.324   1.077
 5110SOL    HW215897   3.593   3.299   1.186
 5111SOL     OW15898   2.179   2.409   1.280
 5111SOL    HW115899   2.217   2.350   1.352
 5111SOL    HW215900   2.219   2.383   1.192
 5112SOL     OW15901   2.674   3.448   0.687
 5112SOL    HW115902   2.706   3.458   0.593
 5112SOL    HW215903   2.595   3.386   0.689
 5113SOL     OW15904   3.286   2.076   1.112
 5113SOL    HW115905   3.338   2.011   1.167
 5113SOL    HW215906   3.237   2.139   1.173
 5114SOL     OW15907   2.863   1.896   1.154
 5114SOL    HW115908   2.800   1.824   1.123
 5114SOL    HW215909   2.956   1.860   1.154
 5115SOL     OW15910   2.632   3.192   0.301
 5115SOL    HW115911   2.586   3.105   0.318
 5115SOL    HW215912   2.723   3.189   0.342
 5116SOL     OW15913   2.480   3.429   1.284
 5116SOL    HW115914   2.475   3.511   1.341
 5116SOL    HW215915   2.569   3.426   1.239
 5117SOL     OW15916   3.214   1.914   0.168
 5117SOL    HW115917   3.249   1.873   0.084
 5117SOL    HW215918   3.124   1.876   0.188
 5118SOL     OW15919   3.162   2.315   0.691
 5118SOL    HW115920   3.103   2.395   0.695
 5118SOL    HW215921   3.177   2.280   0.784
 5119SOL     OW15922   3.455   2.083   0.882
 5119SOL    HW115923   3.371   2.082   0.936
 5119SOL    HW215924   3.457   2.166   0.826
 5120SOL     OW15925   1.901   2.939   0.300
 5120SOL    HW115926   2.000   2.928   0.291
 5120SOL    HW215927   1.861   2.853   0.332
 5121SOL     OW15928   2.737   3.508   0.337
 5121SOL    HW115929   2.660   3.473   0.283
 5121SOL    HW215930   2.705   3.579   0.399
 5122SOL     OW15931   2.092   2.490   1.975
 5122SOL    HW115932   1.999   2.488   2.012
 5122SOL    HW215933   2.093   2.451   1.883
 5123SOL     OW15934   1.881   2.230   2.509
 5123SOL    HW115935   1.799   2.273   2.548
 5123SOL    HW215936   1.853   2.157   2.446
 5124SOL     OW15937   2.431   3.137   3.027
 5124SOL    HW115938   2.338   3.130   2.990
 5124SOL    HW215939   2.442   3.226   3.071
 5125SOL     OW15940   3.417   3.373   2.565
 5125SOL    HW115941   3.360   3.357   2.646
 5125SOL    HW215942   3.358   3.383   2.485
 5126SOL     OW15943   2.997   2.565   2.579
 5126SOL    HW115944   3.054   2.643   2.554
 5126SOL    HW215945   2.937   2.591   2.655
 5127SOL     OW15946   3.617   2.469   2.093
 5127SOL    HW115947   3.605   2.456   1.994
 5127SOL    HW215948   3.587   2.388   2.142
 5128SOL     OW15949   2.630   3.006   2.885
 5128SOL    HW115950   2.552   3.023   2.945
 5128SOL    HW215951   2.664   3.093   2.849
 5129SOL     OW15952   2.712   2.660   3.685
 5129SOL    HW115953   2.708   2.736   3.750
 5129SOL    HW215954   2.734   2.696   3.594
 5130SOL     OW15955   2.547   2.874   2.527
 5130SOL    HW115956   2.616   2.858   2.597
 5130SOL    HW215957   2.474   2.931   2.565
 5131SOL     OW15958   2.548   3.023   3.665
 5131SOL    HW115959   2.608   3.102   3.679
 5131SOL    HW215960   2.462   3.054   3.624
 5132SOL     OW15961   2.197   3.297   2.923
 5132SOL    HW115962   2.119   3.266   2.870
 5132SOL    HW215963   2.255   3.355   2.866
 5133SOL     OW15964   3.322   3.367   3.201
 5133SOL    HW115965   3.346   3.461   3.227
 5133SOL    HW215966   3.306   3.313   3.283
 5134SOL     OW15967   2.300   2.254   3.361
 5134SOL    HW115968   2.382   2.198   3.370
 5134SOL    HW215969   2.219   2.196   3.365
 5135SOL     OW15970   3.465   2.309   2.599
 5135SOL    HW115971   3.391   2.355   2.549
 5135SOL    HW215972   3.516   2.377   2.652
 5136SOL     OW15973   2.093   3.575   2.345
 5136SOL    HW115974   2.127   3.652   2.399
 5136SOL    HW215975   2.137   3.575   2.255
 5137SOL     OW15976   2.989   3.203   3.552
 5137SOL    HW115977   3.036   3.203   3.640
 5137SOL    HW215978   2.941   3.116   3.541
 5138SOL     OW15979   2.092   3.296   2.400
 5138SOL    HW115980   2.066   3.392   2.400
 5138SOL    HW215981   2.021   3.242   2.445
 5139SOL     OW15982   2.102   2.953   2.748
 5139SOL    HW115983   2.116   2.869   2.800
 5139SOL    HW215984   2.047   3.017   2.803
 5140SOL     OW15985   2.482   3.648   3.301
 5140SOL    HW115986   2.390   3.631   3.336
 5140SOL    HW215987   2.510   3.740   3.327
 5141SOL     OW15988   2.468   2.826   1.985
 5141SOL    HW115989   2.475   2.910   1.931
 5141SOL    HW215990   2.514   2.839   2.073
 5142SOL     OW15991   3.456   1.976   3.342
 5142SOL    HW115992   3.438   2.043   3.270
 5142SOL    HW215993   3.453   2.022   3.431
 5143SOL     OW15994   1.984   2.505   2.425
 5143SOL    HW115995   1.939   2.417   2.442
 5143SOL    HW215996   1.983   2.559   2.509
 5144SOL     OW15997   3.704   3.629   2.221
 5144SOL    HW115998   3.758   3.600   2.301
 5144SOL    HW215999   3.734   3.719   2.192
 5145SOL     OW16000   1.889   3.458   1.979
 5145SOL    HW116001   1.870   3.362   2.000
 5145SOL    HW216002   1.856   3.516   2.054
 5146SOL     OW16003   3.551   2.784   2.474
 5146SOL    HW116004   3.646   2.755   2.482
 5146SOL    HW216005   3.543   2.849   2.399
 5147SOL     OW16006   3.503   2.970   2.294
 5147SOL    HW116007   3.589   2.972   2.242
 5147SOL    HW216008   3.517   3.017   2.382
 5148SOL     OW16009   1.975   2.599   3.459
 5148SOL    HW116010   2.063   2.586   3.504
 5148SOL    HW216011   1.962   2.696   3.437
 5149SOL     OW16012   2.475   3.227   2.588
 5149SOL    HW116013   2.426   3.140   2.597
 5149SOL    HW216014   2.452   3.270   2.501
 5150SOL     OW16015   3.155   3.090   3.285
 5150SOL    HW116016   3.192   3.017   3.227
 5150SOL    HW216017   3.207   3.095   3.370
 5151SOL     OW16018   2.671   1.866   2.364
 5151SOL    HW116019   2.711   1.957   2.355
 5151SOL    HW216020   2.571   1.874   2.370
 5152SOL     OW16021   2.059   2.838   3.126
 5152SOL    HW116022   2.148   2.793   3.112
 5152SOL    HW216023   1.986   2.773   3.107
 5153SOL     OW16024   3.387   2.861   2.052
 5153SOL    HW116025   3.324   2.785   2.065
 5153SOL    HW216026   3.435   2.879   2.138
 5154SOL     OW16027   3.049   3.654   3.478
 5154SOL    HW116028   3.073   3.714   3.402
 5154SOL    HW216029   3.056   3.559   3.448
 5155SOL     OW16030   3.328   3.279   2.815
 5155SOL    HW116031   3.269   3.285   2.895
 5155SOL    HW216032   3.313   3.191   2.769
 5156SOL     OW16033   3.529   3.576   2.434
 5156SOL    HW116034   3.488   3.553   2.346
 5156SOL    HW216035   3.511   3.502   2.499
 5157SOL     OW16036   2.460   2.591   2.132
 5157SOL    HW116037   2.484   2.660   2.064
 5157SOL    HW216038   2.382   2.624   2.186
 5158SOL     OW16039   3.143   2.207   2.806
 5158SOL    HW116040   3.057   2.157   2.793
 5158SOL    HW216041   3.205   2.153   2.862
 5159SOL     OW16042   3.438   3.524   2.169
 5159SOL    HW116043   3.527   3.570   2.172
 5159SOL    HW216044   3.417   3.500   2.074
 5160SOL     OW16045   2.669   2.467   3.327
 5160SOL    HW116046   2.622   2.464   3.416
 5160SOL    HW216047   2.618   2.412   3.261
 5161SOL     OW16048   3.256   2.331   3.536
 5161SOL    HW116049   3.236   2.374   3.624
 5161SOL    HW216050   3.334   2.269   3.545
 5162SOL     OW16051   2.835   2.752   3.434
 5162SOL    HW116052   2.881   2.668   3.405
 5162SOL    HW216053   2.779   2.786   3.359
 5163SOL     OW16054   2.853   2.272   3.104
 5163SOL    HW116055   2.776   2.306   3.158
 5163SOL    HW216056   2.819   2.221   3.025
 5164SOL     OW16057   2.903   2.563   2.291
 5164SOL    HW116058   2.929   2.559   2.387
 5164SOL    HW216059   2.818   2.512   2.277
 5165SOL     OW16060   1.938   2.673   2.651
 5165SOL    HW116061   2.037   2.661   2.660
 5165SOL    HW216062   1.914   2.768   2.672
 5166SOL     OW16063   1.992   3.683   3.433
 5166SOL    HW116064   1.982   3.668   3.532
 5166SOL    HW216065   1.906   3.719   3.397
 5167SOL     OW16066   2.727   2.210   2.057
 5167SOL    HW116067   2.786   2.273   2.008
 5167SOL    HW216068   2.746   2.116   2.028
 5168SOL     OW16069   3.581   2.447   3.693
 5168SOL    HW116070   3.555   2.536   3.657
 5168SOL    HW216071   3.579   2.379   3.620
 5169SOL     OW16072   3.224   3.006   2.407
 5169SOL    HW116073   3.307   2.977   2.359
 5169SOL    HW216074   3.175   3.073   2.351
 5170SOL     OW16075   2.412   2.058   2.747
 5170SOL    HW116076   2.407   2.053   2.847
 5170SOL    HW216077   2.414   2.154   2.718
 5171SOL     OW16078   2.870   3.318   2.339
 5171SOL    HW116079   2.824   3.390   2.287
 5171SOL    HW216080   2.866   3.338   2.437
 5172SOL     OW16081   2.213   3.663   2.715
 5172SOL    HW116082   2.263   3.577   2.721
 5172SOL    HW216083   2.278   3.740   2.712
 5173SOL     OW16084   3.657   2.928   2.735
 5173SOL    HW116085   3.595   2.913   2.659
 5173SOL    HW216086   3.605   2.939   2.820
 5174SOL     OW16087   3.089   3.412   3.368
 5174SOL    HW116088   3.095   3.335   3.432
 5174SOL    HW216089   3.037   3.386   3.288
 5175SOL     OW16090   2.183   2.805   2.104
 5175SOL    HW116091   2.265   2.844   2.062
 5175SOL    HW216092   2.156   2.723   2.055
 5176SOL     OW16093   3.320   2.597   2.590
 5176SOL    HW116094   3.315   2.532   2.665
 5176SOL    HW216095   3.400   2.656   2.603
 5177SOL     OW16096   2.323   3.128   3.589
 5177SOL    HW116097   2.273   3.129   3.503
 5177SOL    HW216098   2.260   3.110   3.665
 5178SOL     OW16099   2.973   3.638   2.099
 5178SOL    HW116100   2.913   3.576   2.149
 5178SOL    HW216101   3.004   3.594   2.014
 5179SOL     OW16102   3.494   3.239   1.943
 5179SOL    HW116103   3.462   3.333   1.933
 5179SOL    HW216104   3.418   3.176   1.931
 5180SOL     OW16105   2.326   3.605   2.185
 5180SOL    HW116106   2.359   3.644   2.271
 5180SOL    HW216107   2.402   3.598   2.120
 5181SOL     OW16108   3.262   1.969   2.288
 5181SOL    HW116109   3.238   1.932   2.198
 5181SOL    HW216110   3.361   1.985   2.292
 5182SOL     OW16111   2.111   3.647   3.103
 5182SOL    HW116112   2.168   3.582   3.153
 5182SOL    HW216113   2.095   3.614   3.010
 5183SOL     OW16114   2.802   3.560   2.766
 5183SOL    HW116115   2.882   3.503   2.787
 5183SOL    HW216116   2.753   3.520   2.689
 5184SOL     OW16117   2.244   2.562   2.342
 5184SOL    HW116118   2.289   2.472   2.339
 5184SOL    HW216119   2.150   2.551   2.375
 5185SOL     OW16120   3.409   2.084   3.591
 5185SOL    HW116121   3.404   2.121   3.683
 5185SOL    HW216122   3.337   2.015   3.579
 5186SOL     OW16123   2.476   1.984   1.979
 5186SOL    HW116124   2.574   1.962   1.986
 5186SOL    HW216125   2.445   1.967   1.886
 5187SOL     OW16126   2.643   2.126   3.611
 5187SOL    HW116127   2.710   2.065   3.654
 5187SOL    HW216128   2.570   2.145   3.676
 5188SOL     OW16129   2.750   3.376   3.057
 5188SOL    HW116130   2.727   3.351   2.963
 5188SOL    HW216131   2.811   3.307   3.096
 5189SOL     OW16132   3.213   2.452   3.295
 5189SOL    HW116133   3.241   2.409   3.380
 5189SOL    HW216134   3.238   2.548   3.296
 5190SOL     OW16135   2.665   3.264   2.786
 5190SOL    HW116136   2.755   3.278   2.744
 5190SOL    HW216137   2.594   3.266   2.715
 5191SOL     OW16138   2.784   2.365   2.761
 5191SOL    HW116139   2.759   2.356   2.665
 5191SOL    HW216140   2.832   2.283   2.792
 5192SOL     OW16141   2.401   1.926   2.374
 5192SOL    HW116142   2.320   1.927   2.432
 5192SOL    HW216143   2.404   2.009   2.319
 5193SOL     OW16144   3.296   3.050   1.903
 5193SOL    HW116145   3.328   2.974   1.960
 5193SOL    HW216146   3.204   3.077   1.933
 5194SOL     OW16147   2.797   2.098   2.342
 5194SOL    HW116148   2.749   2.139   2.264
 5194SOL    HW216149   2.896   2.096   2.323
 5195SOL     OW16150   2.938   2.545   3.326
 5195SOL    HW116151   2.858   2.484   3.329
 5195SOL    HW216152   3.019   2.492   3.302
 5196SOL     OW16153   3.089   3.432   2.655
 5196SOL    HW116154   3.110   3.506   2.590
 5196SOL    HW216155   3.157   3.432   2.728
 5197SOL     OW16156   2.321   3.014   2.603
 5197SOL    HW116157   2.250   2.987   2.668
 5197SOL    HW216158   2.295   2.986   2.510
 5198SOL     OW16159   3.133   3.659   2.453
 5198SOL    HW116160   3.177   3.723   2.389
 5198SOL    HW216161   3.083   3.711   2.523
 5199SOL     OW16162   2.894   2.411   1.878
 5199SOL    HW116163   2.853   2.493   1.839
 5199SOL    HW216164   2.958   2.437   1.951
 5200SOL     OW16165   1.940   2.418   3.248
 5200SOL    HW116166   2.032   2.417   3.207
 5200SOL    HW216167   1.934   2.492   3.315
 5201SOL     OW16168   2.423   2.084   3.009
 5201SOL    HW116169   2.461   2.000   3.046
 5201SOL    HW216170   2.335   2.103   3.053
 5202SOL     OW16171   2.728   2.316   2.504
 5202SOL    HW116172   2.696   2.388   2.442
 5202SOL    HW216173   2.752   2.235   2.451
 5203SOL     OW16174   2.879   1.901   2.615
 5203SOL    HW116175   2.807   1.906   2.546
 5203SOL    HW216176   2.855   1.832   2.684
 5204SOL     OW16177   3.291   3.035   2.729
 5204SOL    HW116178   3.236   2.951   2.722
 5204SOL    HW216179   3.317   3.064   2.637
 5205SOL     OW16180   3.328   2.452   2.854
 5205SOL    HW116181   3.298   2.357   2.861
 5205SOL    HW216182   3.401   2.468   2.920
 5206SOL     OW16183   3.719   2.695   2.239
 5206SOL    HW116184   3.761   2.631   2.303
 5206SOL    HW216185   3.681   2.644   2.161
 5207SOL     OW16186   2.350   3.247   2.036
 5207SOL    HW116187   2.263   3.232   2.083
 5207SOL    HW216188   2.333   3.273   1.941
 5208SOL     OW16189   3.526   3.142   2.519
 5208SOL    HW116190   3.625   3.150   2.533
 5208SOL    HW216191   3.481   3.226   2.550
 5209SOL     OW16192   3.252   2.437   1.940
 5209SOL    HW116193   3.198   2.416   2.021
 5209SOL    HW216194   3.343   2.396   1.949
 5210SOL     OW16195   2.389   2.118   2.190
 5210SOL    HW116196   2.416   2.059   2.115
 5210SOL    HW216197   2.389   2.213   2.159
 5211SOL     OW16198   3.616   3.085   3.450
 5211SOL    HW116199   3.707   3.046   3.437
 5211SOL    HW216200   3.624   3.181   3.474
 5212SOL     OW16201   2.926   3.209   3.202
 5212SOL    HW116202   2.846   3.186   3.257
 5212SOL    HW216203   3.009   3.183   3.251
 5213SOL     OW16204   3.454   3.491   3.487
 5213SOL    HW116205   3.481   3.525   3.397
 5213SOL    HW216206   3.533   3.453   3.533
 5214SOL     OW16207   2.973   3.057   2.962
 5214SOL    HW116208   2.933   3.101   3.043
 5214SOL    HW216209   2.932   3.094   2.879
 5215SOL     OW16210   3.500   2.961   2.941
 5215SOL    HW116211   3.505   3.042   3.000
 5215SOL    HW216212   3.414   2.963   2.890
 5216SOL     OW16213   2.777   1.951   3.264
 5216SOL    HW116214   2.802   1.931   3.169
 5216SOL    HW216215   2.849   2.007   3.306
 5217SOL     OW16216   2.842   2.978   3.581
 5217SOL    HW116217   2.743   2.984   3.591
 5217SOL    HW216218   2.865   2.898   3.525
 5218SOL     OW16219   2.567   2.912   2.230
 5218SOL    HW116220   2.553   2.919   2.329
 5218SOL    HW216221   2.651   2.861   2.212
 5219SOL     OW16222   2.272   2.675   3.113
 5219SOL    HW116223   2.358   2.687   3.163
 5219SOL    HW216224   2.230   2.588   3.140
 5220SOL     OW16225   3.136   2.248   3.124
 5220SOL    HW116226   3.157   2.322   3.188
 5220SOL    HW216227   3.047   2.265   3.081
 5221SOL     OW16228   1.926   3.426   3.193
 5221SOL    HW116229   1.880   3.508   3.159
 5221SOL    HW216230   2.024   3.445   3.202
 5222SOL     OW16231   2.229   2.962   2.363
 5222SOL    HW116232   2.222   3.045   2.307
 5222SOL    HW216233   2.233   2.882   2.303
 5223SOL     OW16234   2.428   2.399   2.727
 5223SOL    HW116235   2.440   2.465   2.653
 5223SOL    HW216236   2.474   2.433   2.810
 5224SOL     OW16237   3.114   3.210   2.250
 5224SOL    HW116238   3.164   3.287   2.290
 5224SOL    HW216239   3.019   3.212   2.282
 5225SOL     OW16240   3.134   3.307   3.004
 5225SOL    HW116241   3.181   3.320   3.091
 5225SOL    HW216242   3.068   3.233   3.013
 5226SOL     OW16243   3.444   2.501   2.334
 5226SOL    HW116244   3.413   2.562   2.407
 5226SOL    HW216245   3.494   2.553   2.265
 5227SOL     OW16246   2.216   3.372   3.191
 5227SOL    HW116247   2.195   3.328   3.104
 5227SOL    HW216248   2.313   3.398   3.194
 5228SOL     OW16249   2.264   2.613   3.460
 5228SOL    HW116250   2.332   2.668   3.413
 5228SOL    HW216251   2.304   2.525   3.487
 5229SOL     OW16252   3.449   2.641   3.532
 5229SOL    HW116253   3.357   2.679   3.527
 5229SOL    HW216254   3.509   2.688   3.467
 5230SOL     OW16255   2.875   1.967   3.632
 5230SOL    HW116256   2.881   2.052   3.580
 5230SOL    HW216257   2.907   1.891   3.575
 5231SOL     OW16258   2.366   1.912   3.602
 5231SOL    HW116259   2.324   1.855   3.532
 5231SOL    HW216260   2.300   1.981   3.634
 5232SOL     OW16261   2.435   2.732   2.891
 5232SOL    HW116262   2.479   2.821   2.882
 5232SOL    HW216263   2.372   2.732   2.968
 5233SOL     OW16264   3.222   2.724   2.907
 5233SOL    HW116265   3.147   2.724   2.841
 5233SOL    HW216266   3.259   2.632   2.916
 5234SOL     OW16267   3.071   2.387   2.137
 5234SOL    HW116268   3.084   2.303   2.191
 5234SOL    HW216269   3.042   2.461   2.197
 5235SOL     OW16270   1.899   3.172   3.144
 5235SOL    HW116271   1.952   3.123   3.212
 5235SOL    HW216272   1.921   3.270   3.149
 5236SOL     OW16273   2.594   2.496   2.926
 5236SOL    HW116274   2.653   2.470   2.850
 5236SOL    HW216275   2.566   2.592   2.915
 5237SOL     OW16276   3.590   2.797   3.716
 5237SOL    HW116277   3.544   2.790   3.627
 5237SOL    HW216278   3.528   2.841   3.782
 5238SOL     OW16279   2.169   1.925   2.480
 5238SOL    HW116280   2.158   2.019   2.513
 5238SOL    HW216281   2.164   1.862   2.557
 5239SOL     OW16282   3.484   2.229   2.236
 5239SOL    HW116283   3.486   2.153   2.300
 5239SOL    HW216284   3.436   2.306   2.276
 5240SOL     OW16285   2.885   2.628   2.828
 5240SOL    HW116286   2.900   2.649   2.924
 5240SOL    HW216287   2.855   2.533   2.819
 5241SOL     OW16288   2.842   3.435   3.562
 5241SOL    HW116289   2.822   3.479   3.474
 5241SOL    HW216290   2.881   3.344   3.546
 5242SOL     OW16291   3.721   3.380   3.467
 5242SOL    HW116292   3.735   3.407   3.372
 5242SOL    HW216293   3.804   3.402   3.520
 5243SOL     OW16294   2.212   2.760   3.666
 5243SOL    HW116295   2.288   2.804   3.714
 5243SOL    HW216296   2.247   2.713   3.584
 5244SOL     OW16297   3.402   2.136   1.987
 5244SOL    HW116298   3.341   2.061   2.010
 5244SOL    HW216299   3.424   2.188   2.070
 5245SOL     OW16300   3.165   2.700   1.904
 5245SOL    HW116301   3.199   2.607   1.919
 5245SOL    HW216302   3.183   2.727   1.809
 5246SOL     OW16303   2.930   3.195   2.711
 5246SOL    HW116304   2.937   3.111   2.656
 5246SOL    HW216305   2.992   3.264   2.675
 5247SOL     OW16306   2.181   2.672   2.811
 5247SOL    HW116307   2.274   2.708   2.816
 5247SOL    HW216308   2.175   2.587   2.863
 5248SOL     OW16309   2.201   2.371   2.868
 5248SOL    HW116310   2.149   2.288   2.851
 5248SOL    HW216311   2.278   2.376   2.804
 5249SOL     OW16312   3.000   2.242   3.540
 5249SOL    HW116313   2.955   2.305   3.604
 5249SOL    HW216314   3.093   2.273   3.523
 5250SOL     OW16315   3.022   2.069   3.339
 5250SOL    HW116316   3.022   2.133   3.416
 5250SOL    HW216317   3.050   2.117   3.256
 5251SOL     OW16318   1.870   3.188   2.062
 5251SOL    HW116319   1.777   3.209   2.031
 5251SOL    HW216320   1.880   3.089   2.075
 5252SOL     OW16321   1.950   3.663   2.789
 5252SOL    HW116322   1.908   3.577   2.762
 5252SOL    HW216323   2.044   3.666   2.755
 5253SOL     OW16324   2.366   3.430   2.772
 5253SOL    HW116325   2.432   3.504   2.781
 5253SOL    HW216326   2.410   3.351   2.730
 5254SOL     OW16327   2.864   2.658   3.100
 5254SOL    HW116328   2.905   2.626   3.186
 5254SOL    HW216329   2.768   2.631   3.097
 5255SOL     OW16330   1.902   2.406   2.976
 5255SOL    HW116331   1.987   2.373   2.935
 5255SOL    HW216332   1.915   2.421   3.074
 5256SOL     OW16333   2.051   2.382   3.584
 5256SOL    HW116334   2.110   2.342   3.514
 5256SOL    HW216335   1.993   2.453   3.543
 5257SOL     OW16336   3.231   2.812   3.522
 5257SOL    HW116337   3.270   2.901   3.542
 5257SOL    HW216338   3.241   2.792   3.425
 5258SOL     OW16339   2.677   2.434   2.187
 5258SOL    HW116340   2.684   2.345   2.141
 5258SOL    HW216341   2.583   2.468   2.179
 5259SOL     OW16342   3.519   2.466   3.068
 5259SOL    HW116343   3.481   2.397   3.130
 5259SOL    HW216344   3.601   2.430   3.024
 5260SOL     OW16345   2.114   3.426   3.606
 5260SOL    HW116346   2.084   3.483   3.682
 5260SOL    HW216347   2.107   3.329   3.632
 5261SOL     OW16348   2.533   2.326   3.131
 5261SOL    HW116349   2.499   2.237   3.101
 5261SOL    HW216350   2.559   2.380   3.051
 5262SOL     OW16351   2.792   3.540   3.327
 5262SOL    HW116352   2.768   3.522   3.232
 5262SOL    HW216353   2.822   3.634   3.337
 5263SOL     OW16354   2.335   2.362   2.053
 5263SOL    HW116355   2.396   2.442   2.057
 5263SOL    HW216356   2.240   2.393   2.060
 5264SOL     OW16357   2.021   2.999   3.328
 5264SOL    HW116358   2.043   2.938   3.404
 5264SOL    HW216359   2.031   2.950   3.242
 5265SOL     OW16360   3.209   2.921   3.096
 5265SOL    HW116361   3.233   2.858   3.022
 5265SOL    HW216362   3.119   2.961   3.078
 5266SOL     OW16363   3.164   2.717   2.171
 5266SOL    HW116364   3.078   2.686   2.213
 5266SOL    HW216365   3.160   2.703   2.072
 5267SOL     OW16366   3.621   3.609   3.016
 5267SOL    HW116367   3.682   3.639   2.943
 5267SOL    HW216368   3.583   3.520   2.994
 5268SOL     OW16369   3.114   3.593   2.990
 5268SOL    HW116370   3.198   3.598   2.936
 5268SOL    HW216371   3.091   3.497   3.008
 5269SOL     OW16372   1.945   3.120   2.884
 5269SOL    HW116373   1.940   3.119   2.984
 5269SOL    HW216374   1.862   3.079   2.846
 5270SOL     OW16375   2.550   3.524   3.578
 5270SOL    HW116376   2.494   3.605   3.587
 5270SOL    HW216377   2.602   3.528   3.492
 5271SOL     OW16378   3.588   1.997   2.385
 5271SOL    HW116379   3.661   1.980   2.318
 5271SOL    HW216380   3.557   1.910   2.423
 5272SOL     OW16381   3.250   3.435   2.339
 5272SOL    HW116382   3.317   3.447   2.265
 5272SOL    HW216383   3.210   3.524   2.362
 5273SOL     OW16384   1.992   3.656   3.713
 5273SOL    HW116385   1.951   3.582   3.766
 5273SOL    HW216386   2.056   3.707   3.771
 5274SOL     OW16387   3.142   2.789   2.534
 5274SOL    HW116388   3.202   2.708   2.536
 5274SOL    HW216389   3.182   2.858   2.474
 5275SOL     OW16390   2.692   3.135   3.284
 5275SOL    HW116391   2.687   3.168   3.379
 5275SOL    HW216392   2.606   3.154   3.238
 5276SOL     OW16393   2.534   3.478   2.016
 5276SOL    HW116394   2.543   3.488   1.917
 5276SOL    HW216395   2.494   3.389   2.037
 5277SOL     OW16396   3.512   3.582   3.256
 5277SOL    HW116397   3.565   3.592   3.172
 5277SOL    HW216398   3.485   3.672   3.290
 5278SOL     OW16399   3.703   2.037   2.825
 5278SOL    HW116400   3.742   1.952   2.789
 5278SOL    HW216401   3.605   2.039   2.806
 5279SOL     OW16402   3.056   3.474   1.893
 5279SOL    HW116403   3.062   3.381   1.930
 5279SOL    HW216404   2.997   3.474   1.813
 5280SOL     OW16405   2.684   2.864   3.234
 5280SOL    HW116406   2.724   2.863   3.142
 5280SOL    HW216407   2.694   2.956   3.274
 5281SOL     OW16408   2.778   2.772   2.153
 5281SOL    HW116409   2.841   2.810   2.085
 5281SOL    HW216410   2.818   2.689   2.192
 5282SOL     OW16411   3.366   3.469   1.906
 5282SOL    HW116412   3.274   3.506   1.913
 5282SOL    HW216413   3.404   3.489   1.816
 5283SOL     OW16414   2.234   3.150   3.352
 5283SOL    HW116415   2.221   3.243   3.318
 5283SOL    HW216416   2.150   3.098   3.339
 5284SOL     OW16417   3.476   3.154   3.151
 5284SOL    HW116418   3.536   3.157   3.231
 5284SOL    HW216419   3.401   3.218   3.164
 5285SOL     OW16420   2.901   2.960   2.558
 5285SOL    HW116421   2.831   2.913   2.612
 5285SOL    HW216422   2.960   2.892   2.515
 5286SOL     OW16423   2.876   2.098   2.833
 5286SOL    HW116424   2.868   2.062   2.740
 5286SOL    HW216425   2.874   2.022   2.898
 5287SOL     OW16426   2.452   3.349   2.353
 5287SOL    HW116427   2.494   3.291   2.283
 5287SOL    HW216428   2.408   3.428   2.309
 5288SOL     OW16429   3.571   2.247   3.243
 5288SOL    HW116430   3.644   2.316   3.247
 5288SOL    HW216431   3.599   2.172   3.184
 5289SOL     OW16432   2.117   3.210   2.152
 5289SOL    HW116433   2.021   3.211   2.125
 5289SOL    HW216434   2.129   3.263   2.236
 5290SOL     OW16435   1.967   2.875   3.588
 5290SOL    HW116436   1.890   2.842   3.642
 5290SOL    HW216437   2.052   2.845   3.630
 5291SOL     OW16438   2.534   2.065   3.351
 5291SOL    HW116439   2.624   2.049   3.311
 5291SOL    HW216440   2.542   2.070   3.450
 5292SOL     OW16441   1.937   2.207   1.895
 5292SOL    HW116442   1.845   2.179   1.866
 5292SOL    HW216443   1.968   2.284   1.839
 5293SOL     OW16444   3.302   2.718   3.260
 5293SOL    HW116445   3.245   2.770   3.197
 5293SOL    HW216446   3.398   2.730   3.236
 5294SOL     OW16447   3.045   3.197   1.981
 5294SOL    HW116448   2.946   3.186   1.983
 5294SOL    HW216449   3.079   3.212   2.074
 5295SOL     OW16450   2.475   2.704   3.293
 5295SOL    HW116451   2.531   2.785   3.276
 5295SOL    HW216452   2.534   2.624   3.296
 5296SOL     OW16453   3.355   3.629   2.821
 5296SOL    HW116454   3.388   3.693   2.752
 5296SOL    HW216455   3.421   3.623   2.896
 5297SOL     OW16456   2.578   2.427   3.570
 5297SOL    HW116457   2.597   2.492   3.644
 5297SOL    HW216458   2.638   2.347   3.579
 5298SOL     OW16459   3.312   3.082   3.495
 5298SOL    HW116460   3.303   3.072   3.594
 5298SOL    HW216461   3.408   3.075   3.469
 5299SOL     OW16462   2.252   3.603   3.422
 5299SOL    HW116463   2.161   3.644   3.420
 5299SOL    HW216464   2.245   3.509   3.454
 5300SOL     OW16465   3.536   2.745   3.116
 5300SOL    HW116466   3.509   2.656   3.079
 5300SOL    HW216467   3.537   2.813   3.043
 5301SOL     OW16468   3.087   2.187   2.311
 5301SOL    HW116469   3.152   2.113   2.300
 5301SOL    HW216470   3.107   2.237   2.395
 5302SOL     OW16471   2.456   2.607   2.514
 5302SOL    HW116472   2.506   2.692   2.495
 5302SOL    HW216473   2.368   2.609   2.466
 5303SOL     OW16474   3.639   2.204   3.504
 5303SOL    HW116475   3.622   2.235   3.410
 5303SOL    HW216476   3.555   2.167   3.542
 5304SOL     OW16477   3.592   2.796   3.379
 5304SOL    HW116478   3.630   2.887   3.394
 5304SOL    HW216479   3.584   2.779   3.280
 5305SOL     OW16480   2.721   3.236   1.878
 5305SOL    HW116481   2.675   3.251   1.966
 5305SOL    HW216482   2.765   3.321   1.848
 5306SOL     OW16483   2.523   3.652   2.815
 5306SOL    HW116484   2.477   3.740   2.802
 5306SOL    HW216485   2.622   3.664   2.808
 5307SOL     OW16486   2.721   2.818   2.723
 5307SOL    HW116487   2.775   2.749   2.771
 5307SOL    HW216488   2.689   2.887   2.789
 5308SOL     OW16489   2.945   2.846   1.949
 5308SOL    HW116490   2.922   2.899   1.867
 5308SOL    HW216491   3.026   2.790   1.930
 5309SOL     OW16492   3.723   3.431   2.713
 5309SOL    HW116493   3.652   3.419   2.643
 5309SOL    HW216494   3.724   3.352   2.773
 5310SOL     OW16495   2.083   3.176   3.706
 5310SOL    HW116496   2.018   3.103   3.685
 5310SOL    HW216497   2.087   3.190   3.804
 5311SOL     OW16498   1.941   3.102   2.515
 5311SOL    HW116499   1.940   3.055   2.603
 5311SOL    HW216500   2.023   3.074   2.464
 5312SOL     OW16501   2.534   3.253   3.486
 5312SOL    HW116502   2.456   3.203   3.524
 5312SOL    HW216503   2.531   3.348   3.517
 5313SOL     OW16504   3.686   2.054   3.089
 5313SOL    HW116505   3.682   1.964   3.133
 5313SOL    HW216506   3.689   2.043   2.990
 5314SOL     OW16507   2.290   2.286   2.382
 5314SOL    HW116508   2.320   2.214   2.320
 5314SOL    HW216509   2.251   2.246   2.465
 5315SOL     OW16510   3.567   3.349   2.966
 5315SOL    HW116511   3.474   3.324   2.939
 5315SOL    HW216512   3.593   3.299   3.048
 5316SOL     OW16513   2.179   2.409   3.142
 5316SOL    HW116514   2.217   2.350   3.214
 5316SOL    HW216515   2.219   2.383   3.054
 5317SOL     OW16516   2.674   3.448   2.549
 5317SOL    HW116517   2.706   3.458   2.455
 5317SOL    HW216518   2.595   3.386   2.551
 5318SOL     OW16519   3.286   2.076   2.974
 5318SOL    HW116520   3.338   2.011   3.029
 5318SOL    HW216521   3.237   2.139   3.035
 5319SOL     OW16522   2.863   1.896   3.016
 5319SOL    HW116523   2.800   1.824   2.985
 5319SOL    HW216524   2.956   1.860   3.016
 5320SOL     OW16525   2.632   3.192   2.163
 5320SOL    HW116526   2.586   3.105   2.180
 5320SOL    HW216527   2.723   3.189   2.204
 5321SOL     OW16528   2.480   3.429   3.146
 5321SOL    HW116529   2.475   3.511   3.203
 5321SOL    HW216530   2.569   3.426   3.101
 5322SOL     OW16531   3.214   1.914   2.030
 5322SOL    HW116532   3.249   1.873   1.946
 5322SOL    HW216533   3.124   1.876   2.050
 5323SOL     OW16534   3.162   2.315   2.553
 5323SOL    HW116535   3.103   2.395   2.557
 5323SOL    HW216536   3.177   2.280   2.646
 5324SOL     OW16537   3.455   2.083   2.744
 5324SOL    HW116538   3.371   2.082   2.798
 5324SOL    HW216539   3.457   2.166   2.688
 5325SOL     OW16540   1.901   2.939   2.162
 5325SOL    HW116541   2.000   2.928   2.153
 5325SOL    HW216542   1.861   2.853   2.194
 5326SOL     OW16543   2.737   3.508   2.199
 5326SOL    HW116544   2.660   3.473   2.145
 5326SOL    HW216545   2.705   3.579   2.261
 5327SOL     OW16546   2.092   2.490   3.837
 5327SOL    HW116547   1.999   2.488   3.874
 5327SOL    HW216548   2.093   2.451   3.745
 5328SOL     OW16549   1.881   2.230   4.371
 5328SOL    HW116550   1.799   2.273   4.410
 5328SOL    HW216551   1.853   2.157   4.308
 5329SOL     OW16552   2.431   3.137   4.889
 5329SOL    HW116553   2.338   3.130   4.852
 5329SOL    HW216554   2.442   3.226   4.933
 5330SOL     OW16555   3.417   3.373   4.427
 5330SOL    HW116556   3.360   3.357   4.508
 5330SOL    HW216557   3.358   3.383   4.347
 5331SOL     OW16558   2.997   2.565   4.441
 5331SOL    HW116559   3.054   2.643   4.416
 5331SOL    HW216560   2.937   2.591   4.517
 5332SOL     OW16561   3.617   2.469   3.955
 5332SOL    HW116562   3.605   2.456   3.856
 5332SOL    HW216563   3.587   2.388   4.004
 5333SOL     OW16564   2.630   3.006   4.747
 5333SOL    HW116565   2.552   3.023   4.807
 5333SOL    HW216566   2.664   3.093   4.711
 5334SOL     OW16567   2.712   2.660   5.547
 5334SOL    HW116568   2.708   2.736   5.612
 5334SOL    HW216569   2.734   2.696   5.456
 5335SOL     OW16570   2.547   2.874   4.389
 5335SOL    HW116571   2.616   2.858   4.459
 5335SOL    HW216572   2.474   2.931   4.427
 5336SOL     OW16573   2.548   3.023   5.527
 5336SOL    HW116574   2.608   3.102   5.541
 5336SOL    HW216575   2.462   3.054   5.486
 5337SOL     OW16576   2.197   3.297   4.785
 5337SOL    HW116577   2.119   3.266   4.732
 5337SOL    HW216578   2.255   3.355   4.728
 5338SOL     OW16579   3.322   3.367   5.063
 5338SOL    HW116580   3.346   3.461   5.089
 5338SOL    HW216581   3.306   3.313   5.145
 5339SOL     OW16582   2.300   2.254   5.223
 5339SOL    HW116583   2.382   2.198   5.232
 5339SOL    HW216584   2.219   2.196   5.227
 5340SOL     OW16585   3.465   2.309   4.461
 5340SOL    HW116586   3.391   2.355   4.411
 5340SOL    HW216587   3.516   2.377   4.514
 5341SOL     OW16588   2.093   3.575   4.207
 5341SOL    HW116589   2.127   3.652   4.261
 5341SOL    HW216590   2.137   3.575   4.117
 5342SOL     OW16591   2.989   3.203   5.414
 5342SOL    HW116592   3.036   3.203   5.502
 5342SOL    HW216593   2.941   3.116   5.403
 5343SOL     OW16594   2.092   3.296   4.262
 5343SOL    HW116595   2.066   3.392   4.262
 5343SOL    HW216596   2.021   3.242   4.307
 5344SOL     OW16597   2.102   2.953   4.610
 5344SOL    HW116598   2.116   2.869   4.662
 5344SOL    HW216599   2.047   3.017   4.665
 5345SOL     OW16600   2.482   3.648   5.163
 5345SOL    HW116601   2.390   3.631   5.198
 5345SOL    HW216602   2.510   3.740   5.189
 5346SOL     OW16603   2.468   2.826   3.847
 5346SOL    HW116604   2.475   2.910   3.793
 5346SOL    HW216605   2.514   2.839   3.935
 5347SOL     OW16606   3.456   1.976   5.204
 5347SOL    HW116607   3.438   2.043   5.132
 5347SOL    HW216608   3.453   2.022   5.293
 5348SOL     OW16609   1.984   2.505   4.287
 5348SOL    HW116610   1.939   2.417   4.304
 5348SOL    HW216611   1.983   2.559   4.371
 5349SOL     OW16612   3.704   3.629   4.083
 5349SOL    HW116613   3.758   3.600   4.163
 5349SOL    HW216614   3.734   3.719   4.054
 5350SOL     OW16615   1.889   3.458   3.841
 5350SOL    HW116616   1.870   3.362   3.862
 5350SOL    HW216617   1.856   3.516   3.916
 5351SOL     OW16618   3.551   2.784   4.336
 5351SOL    HW116619   3.646   2.755   4.344
 5351SOL    HW216620   3.543   2.849   4.261
 5352SOL     OW16621   3.503   2.970   4.156
 5352SOL    HW116622   3.589   2.972   4.104
 5352SOL    HW216623   3.517   3.017   4.244
 5353SOL     OW16624   1.975   2.599   5.321
 5353SOL    HW116625   2.063   2.586   5.366
 5353SOL    HW216626   1.962   2.696   5.299
 5354SOL     OW16627   2.475   3.227   4.450
 5354SOL    HW116628   2.426   3.140   4.459
 5354SOL    HW216629   2.452   3.270   4.363
 5355SOL     OW16630   3.155   3.090   5.147
 5355SOL    HW116631   3.192   3.017   5.089
 5355SOL    HW216632   3.207   3.095   5.232
 5356SOL     OW16633   2.671   1.866   4.226
 5356SOL    HW116634   2.711   1.957   4.217
 5356SOL    HW216635   2.571   1.874   4.232
 5357SOL     OW16636   2.059   2.838   4.988
 5357SOL    HW116637   2.148   2.793   4.974
 5357SOL    HW216638   1.986   2.773   4.969
 5358SOL     OW16639   3.387   2.861   3.914
 5358SOL    HW116640   3.324   2.785   3.927
 5358SOL    HW216641   3.435   2.879   4.000
 5359SOL     OW16642   3.049   3.654   5.340
 5359SOL    HW116643   3.073   3.714   5.264
 5359SOL    HW216644   3.056   3.559   5.310
 5360SOL     OW16645   3.328   3.279   4.677
 5360SOL    HW116646   3.269   3.285   4.757
 5360SOL    HW216647   3.313   3.191   4.631
 5361SOL     OW16648   3.529   3.576   4.296
 5361SOL    HW116649   3.488   3.553   4.208
 5361SOL    HW216650   3.511   3.502   4.361
 5362SOL     OW16651   2.460   2.591   3.994
 5362SOL    HW116652   2.484   2.660   3.926
 5362SOL    HW216653   2.382   2.624   4.048
 5363SOL     OW16654   3.143   2.207   4.668
 5363SOL    HW116655   3.057   2.157   4.655
 5363SOL    HW216656   3.205   2.153   4.724
 5364SOL     OW16657   3.438   3.524   4.031
 5364SOL    HW116658   3.527   3.570   4.034
 5364SOL    HW216659   3.417   3.500   3.936
 5365SOL     OW16660   2.669   2.467   5.189
 5365SOL    HW116661   2.622   2.464   5.278
 5365SOL    HW216662   2.618   2.412   5.123
 5366SOL     OW16663   3.256   2.331   5.398
 5366SOL    HW116664   3.236   2.374   5.486
 5366SOL    HW216665   3.334   2.269   5.407
 5367SOL     OW16666   2.835   2.752   5.296
 5367SOL    HW116667   2.881   2.668   5.267
 5367SOL    HW216668   2.779   2.786   5.221
 5368SOL     OW16669   2.853   2.272   4.966
 5368SOL    HW116670   2.776   2.306   5.020
 5368SOL    HW216671   2.819   2.221   4.887
 5369SOL     OW16672   2.903   2.563   4.153
 5369SOL    HW116673   2.929   2.559   4.249
 5369SOL    HW216674   2.818   2.512   4.139
 5370SOL     OW16675   1.938   2.673   4.513
 5370SOL    HW116676   2.037   2.661   4.522
 5370SOL    HW216677   1.914   2.768   4.534
 5371SOL     OW16678   1.992   3.683   5.295
 5371SOL    HW116679   1.982   3.668   5.394
 5371SOL    HW216680   1.906   3.719   5.259
 5372SOL     OW16681   2.727   2.210   3.919
 5372SOL    HW116682   2.786   2.273   3.870
 5372SOL    HW216683   2.746   2.116   3.890
 5373SOL     OW16684   3.581   2.447   5.555
 5373SOL    HW116685   3.555   2.536   5.519
 5373SOL    HW216686   3.579   2.379   5.482
 5374SOL     OW16687   3.224   3.006   4.269
 5374SOL    HW116688   3.307   2.977   4.221
 5374SOL    HW216689   3.175   3.073   4.213
 5375SOL     OW16690   2.412   2.058   4.609
 5375SOL    HW116691   2.407   2.053   4.709
 5375SOL    HW216692   2.414   2.154   4.580
 5376SOL     OW16693   2.870   3.318   4.201
 5376SOL    HW116694   2.824   3.390   4.149
 5376SOL    HW216695   2.866   3.338   4.299
 5377SOL     OW16696   2.213   3.663   4.577
 5377SOL    HW116697   2.263   3.577   4.583
 5377SOL    HW216698   2.278   3.740   4.574
 5378SOL     OW16699   3.657   2.928   4.597
 5378SOL    HW116700   3.595   2.913   4.521
 5378SOL    HW216701   3.605   2.939   4.682
 5379SOL     OW16702   3.089   3.412   5.230
 5379SOL    HW116703   3.095   3.335   5.294
 5379SOL    HW216704   3.037   3.386   5.150
 5380SOL     OW16705   2.183   2.805   3.966
 5380SOL    HW116706   2.265   2.844   3.924
 5380SOL    HW216707   2.156   2.723   3.917
 5381SOL     OW16708   3.320   2.597   4.452
 5381SOL    HW116709   3.315   2.532   4.527
 5381SOL    HW216710   3.400   2.656   4.465
 5382SOL     OW16711   2.323   3.128   5.451
 5382SOL    HW116712   2.273   3.129   5.365
 5382SOL    HW216713   2.260   3.110   5.527
 5383SOL     OW16714   2.973   3.638   3.961
 5383SOL    HW116715   2.913   3.576   4.011
 5383SOL    HW216716   3.004   3.594   3.876
 5384SOL     OW16717   3.494   3.239   3.805
 5384SOL    HW116718   3.462   3.333   3.795
 5384SOL    HW216719   3.418   3.176   3.793
 5385SOL     OW16720   2.326   3.605   4.047
 5385SOL    HW116721   2.359   3.644   4.133
 5385SOL    HW216722   2.402   3.598   3.982
 5386SOL     OW16723   3.262   1.969   4.150
 5386SOL    HW116724   3.238   1.932   4.060
 5386SOL    HW216725   3.361   1.985   4.154
 5387SOL     OW16726   2.111   3.647   4.965
 5387SOL    HW116727   2.168   3.582   5.015
 5387SOL    HW216728   2.095   3.614   4.872
 5388SOL     OW16729   2.802   3.560   4.628
 5388SOL    HW116730   2.882   3.503   4.649
 5388SOL    HW216731   2.753   3.520   4.551
 5389SOL     OW16732   2.244   2.562   4.204
 5389SOL    HW116733   2.289   2.472   4.201
 5389SOL    HW216734   2.150   2.551   4.237
 5390SOL     OW16735   3.409   2.084   5.453
 5390SOL    HW116736   3.404   2.121   5.545
 5390SOL    HW216737   3.337   2.015   5.441
 5391SOL     OW16738   2.476   1.984   3.841
 5391SOL    HW116739   2.574   1.962   3.848
 5391SOL    HW216740   2.445   1.967   3.748
 5392SOL     OW16741   2.643   2.126   5.473
 5392SOL    HW116742   2.710   2.065   5.516
 5392SOL    HW216743   2.570   2.145   5.538
 5393SOL     OW16744   2.750   3.376   4.919
 5393SOL    HW116745   2.727   3.351   4.825
 5393SOL    HW216746   2.811   3.307   4.958
 5394SOL     OW16747   3.213   2.452   5.157
 5394SOL    HW116748   3.241   2.409   5.242
 5394SOL    HW216749   3.238   2.548   5.158
 5395SOL     OW16750   2.665   3.264   4.648
 5395SOL    HW116751   2.755   3.278   4.606
 5395SOL    HW216752   2.594   3.266   4.577
 5396SOL     OW16753   2.784   2.365   4.623
 5396SOL    HW116754   2.759   2.356   4.527
 5396SOL    HW216755   2.832   2.283   4.654
 5397SOL     OW16756   2.401   1.926   4.236
 5397SOL    HW116757   2.320   1.927   4.294
 5397SOL    HW216758   2.404   2.009   4.181
 5398SOL     OW16759   3.296   3.050   3.765
 5398SOL    HW116760   3.328   2.974   3.822
 5398SOL    HW216761   3.204   3.077   3.795
 5399SOL     OW16762   2.797   2.098   4.204
 5399SOL    HW116763   2.749   2.139   4.126
 5399SOL    HW216764   2.896   2.096   4.185
 5400SOL     OW16765   2.938   2.545   5.188
 5400SOL    HW116766   2.858   2.484   5.191
 5400SOL    HW216767   3.019   2.492   5.164
 5401SOL     OW16768   3.089   3.432   4.517
 5401SOL    HW116769   3.110   3.506   4.452
 5401SOL    HW216770   3.157   3.432   4.590
 5402SOL     OW16771   2.321   3.014   4.465
 5402SOL    HW116772   2.250   2.987   4.530
 5402SOL    HW216773   2.295   2.986   4.372
 5403SOL     OW16774   3.133   3.659   4.315
 5403SOL    HW116775   3.177   3.723   4.251
 5403SOL    HW216776   3.083   3.711   4.385
 5404SOL     OW16777   2.894   2.411   3.740
 5404SOL    HW116778   2.853   2.493   3.701
 5404SOL    HW216779   2.958   2.437   3.813
 5405SOL     OW16780   1.940   2.418   5.110
 5405SOL    HW116781   2.032   2.417   5.069
 5405SOL    HW216782   1.934   2.492   5.177
 5406SOL     OW16783   2.423   2.084   4.871
 5406SOL    HW116784   2.461   2.000   4.908
 5406SOL    HW216785   2.335   2.103   4.915
 5407SOL     OW16786   2.728   2.316   4.366
 5407SOL    HW116787   2.696   2.388   4.304
 5407SOL    HW216788   2.752   2.235   4.313
 5408SOL     OW16789   2.879   1.901   4.477
 5408SOL    HW116790   2.807   1.906   4.408
 5408SOL    HW216791   2.855   1.832   4.546
 5409SOL     OW16792   3.291   3.035   4.591
 5409SOL    HW116793   3.236   2.951   4.584
 5409SOL    HW216794   3.317   3.064   4.499
 5410SOL     OW16795   3.328   2.452   4.716
 5410SOL    HW116796   3.298   2.357   4.723
 5410SOL    HW216797   3.401   2.468   4.782
 5411SOL     OW16798   3.719   2.695   4.101
 5411SOL    HW116799   3.761   2.631   4.165
 5411SOL    HW216800   3.681   2.644   4.023
 5412SOL     OW16801   2.350   3.247   3.898
 5412SOL    HW116802   2.263   3.232   3.945
 5412SOL    HW216803   2.333   3.273   3.803
 5413SOL     OW16804   3.526   3.142   4.381
 5413SOL    HW116805   3.625   3.150   4.395
 5413SOL    HW216806   3.481   3.226   4.412
 5414SOL     OW16807   3.252   2.437   3.802
 5414SOL    HW116808   3.198   2.416   3.883
 5414SOL    HW216809   3.343   2.396   3.811
 5415SOL     OW16810   2.389   2.118   4.052
 5415SOL    HW116811   2.416   2.059   3.977
 5415SOL    HW216812   2.389   2.213   4.021
 5416SOL     OW16813   3.616   3.085   5.312
 5416SOL    HW116814   3.707   3.046   5.299
 5416SOL    HW216815   3.624   3.181   5.336
 5417SOL     OW16816   2.926   3.209   5.064
 5417SOL    HW116817   2.846   3.186   5.119
 5417SOL    HW216818   3.009   3.183   5.113
 5418SOL     OW16819   3.454   3.491   5.349
 5418SOL    HW116820   3.481   3.525   5.259
 5418SOL    HW216821   3.533   3.453   5.395
 5419SOL     OW16822   2.973   3.057   4.824
 5419SOL    HW116823   2.933   3.101   4.905
 5419SOL    HW216824   2.932   3.094   4.741
 5420SOL     OW16825   3.500   2.961   4.803
 5420SOL    HW116826   3.505   3.042   4.862
 5420SOL    HW216827   3.414   2.963   4.752
 5421SOL     OW16828   2.777   1.951   5.126
 5421SOL    HW116829   2.802   1.931   5.031
 5421SOL    HW216830   2.849   2.007   5.168
 5422SOL     OW16831   2.842   2.978   5.443
 5422SOL    HW116832   2.743   2.984   5.453
 5422SOL    HW216833   2.865   2.898   5.387
 5423SOL     OW16834   2.567   2.912   4.092
 5423SOL    HW116835   2.553   2.919   4.191
 5423SOL    HW216836   2.651   2.861   4.074
 5424SOL     OW16837   2.272   2.675   4.975
 5424SOL    HW116838   2.358   2.687   5.025
 5424SOL    HW216839   2.230   2.588   5.002
 5425SOL     OW16840   3.136   2.248   4.986
 5425SOL    HW116841   3.157   2.322   5.050
 5425SOL    HW216842   3.047   2.265   4.943
 5426SOL     OW16843   1.926   3.426   5.055
 5426SOL    HW116844   1.880   3.508   5.021
 5426SOL    HW216845   2.024   3.445   5.064
 5427SOL     OW16846   2.229   2.962   4.225
 5427SOL    HW116847   2.222   3.045   4.169
 5427SOL    HW216848   2.233   2.882   4.165
 5428SOL     OW16849   2.428   2.399   4.589
 5428SOL    HW116850   2.440   2.465   4.515
 5428SOL    HW216851   2.474   2.433   4.672
 5429SOL     OW16852   3.114   3.210   4.112
 5429SOL    HW116853   3.164   3.287   4.152
 5429SOL    HW216854   3.019   3.212   4.144
 5430SOL     OW16855   3.134   3.307   4.866
 5430SOL    HW116856   3.181   3.320   4.953
 5430SOL    HW216857   3.068   3.233   4.875
 5431SOL     OW16858   3.444   2.501   4.196
 5431SOL    HW116859   3.413   2.562   4.269
 5431SOL    HW216860   3.494   2.553   4.127
 5432SOL     OW16861   2.216   3.372   5.053
 5432SOL    HW116862   2.195   3.328   4.966
 5432SOL    HW216863   2.313   3.398   5.056
 5433SOL     OW16864   2.264   2.613   5.322
 5433SOL    HW116865   2.332   2.668   5.275
 5433SOL    HW216866   2.304   2.525   5.349
 5434SOL     OW16867   3.449   2.641   5.394
 5434SOL    HW116868   3.357   2.679   5.389
 5434SOL    HW216869   3.509   2.688   5.329
 5435SOL     OW16870   2.875   1.967   5.494
 5435SOL    HW116871   2.881   2.052   5.442
 5435SOL    HW216872   2.907   1.891   5.437
 5436SOL     OW16873   2.366   1.912   5.464
 5436SOL    HW116874   2.324   1.855   5.394
 5436SOL    HW216875   2.300   1.981   5.496
 5437SOL     OW16876   2.435   2.732   4.753
 5437SOL    HW116877   2.479   2.821   4.744
 5437SOL    HW216878   2.372   2.732   4.830
 5438SOL     OW16879   3.222   2.724   4.769
 5438SOL    HW116880   3.147   2.724   4.703
 5438SOL    HW216881   3.259   2.632   4.778
 5439SOL     OW16882   3.071   2.387   3.999
 5439SOL    HW116883   3.084   2.303   4.053
 5439SOL    HW216884   3.042   2.461   4.059
 5440SOL     OW16885   1.899   3.172   5.006
 5440SOL    HW116886   1.952   3.123   5.074
 5440SOL    HW216887   1.921   3.270   5.011
 5441SOL     OW16888   2.594   2.496   4.788
 5441SOL    HW116889   2.653   2.470   4.712
 5441SOL    HW216890   2.566   2.592   4.777
 5442SOL     OW16891   3.590   2.797   5.578
 5442SOL    HW116892   3.544   2.790   5.489
 5442SOL    HW216893   3.528   2.841   5.644
 5443SOL     OW16894   2.169   1.925   4.342
 5443SOL    HW116895   2.158   2.019   4.375
 5443SOL    HW216896   2.164   1.862   4.419
 5444SOL     OW16897   3.484   2.229   4.098
 5444SOL    HW116898   3.486   2.153   4.162
 5444SOL    HW216899   3.436   2.306   4.138
 5445SOL     OW16900   2.885   2.628   4.690
 5445SOL    HW116901   2.900   2.649   4.786
 5445SOL    HW216902   2.855   2.533   4.681
 5446SOL     OW16903   2.842   3.435   5.424
 5446SOL    HW116904   2.822   3.479   5.336
 5446SOL    HW216905   2.881   3.344   5.408
 5447SOL     OW16906   3.721   3.380   5.329
 5447SOL    HW116907   3.735   3.407   5.234
 5447SOL    HW216908   3.804   3.402   5.382
 5448SOL     OW16909   2.212   2.760   5.528
 5448SOL    HW116910   2.288   2.804   5.576
 5448SOL    HW216911   2.247   2.713   5.446
 5449SOL     OW16912   3.402   2.136   3.849
 5449SOL    HW116913   3.341   2.061   3.872
 5449SOL    HW216914   3.424   2.188   3.932
 5450SOL     OW16915   3.165   2.700   3.766
 5450SOL    HW116916   3.199   2.607   3.781
 5450SOL    HW216917   3.183   2.727   3.671
 5451SOL     OW16918   2.930   3.195   4.573
 5451SOL    HW116919   2.937   3.111   4.518
 5451SOL    HW216920   2.992   3.264   4.537
 5452SOL     OW16921   2.181   2.672   4.673
 5452SOL    HW116922   2.274   2.708   4.678
 5452SOL    HW216923   2.175   2.587   4.725
 5453SOL     OW16924   2.201   2.371   4.730
 5453SOL    HW116925   2.149   2.288   4.713
 5453SOL    HW216926   2.278   2.376   4.666
 5454SOL     OW16927   3.000   2.242   5.402
 5454SOL    HW116928   2.955   2.305   5.466
 5454SOL    HW216929   3.093   2.273   5.385
 5455SOL     OW16930   3.022   2.069   5.201
 5455SOL    HW116931   3.022   2.133   5.278
 5455SOL    HW216932   3.050   2.117   5.118
 5456SOL     OW16933   1.870   3.188   3.924
 5456SOL    HW116934   1.777   3.209   3.893
 5456SOL    HW216935   1.880   3.089   3.937
 5457SOL     OW16936   1.950   3.663   4.651
 5457SOL    HW116937   1.908   3.577   4.624
 5457SOL    HW216938   2.044   3.666   4.617
 5458SOL     OW16939   2.366   3.430   4.634
 5458SOL    HW116940   2.432   3.504   4.643
 5458SOL    HW216941   2.410   3.351   4.592
 5459SOL     OW16942   2.864   2.658   4.962
 5459SOL    HW116943   2.905   2.626   5.048
 5459SOL    HW216944   2.768   2.631   4.959
 5460SOL     OW16945   1.902   2.406   4.838
 5460SOL    HW116946   1.987   2.373   4.797
 5460SOL    HW216947   1.915   2.421   4.936
 5461SOL     OW16948   2.051   2.382   5.446
 5461SOL    HW116949   2.110   2.342   5.376
 5461SOL    HW216950   1.993   2.453   5.405
 5462SOL     OW16951   3.231   2.812   5.384
 5462SOL    HW116952   3.270   2.901   5.404
 5462SOL    HW216953   3.241   2.792   5.287
 5463SOL     OW16954   2.677   2.434   4.049
 5463SOL    HW116955   2.684   2.345   4.003
 5463SOL    HW216956   2.583   2.468   4.041
 5464SOL     OW16957   3.519   2.466   4.930
 5464SOL    HW116958   3.481   2.397   4.992
 5464SOL    HW216959   3.601   2.430   4.886
 5465SOL     OW16960   2.114   3.426   5.468
 5465SOL    HW116961   2.084   3.483   5.544
 5465SOL    HW216962   2.107   3.329   5.494
 5466SOL     OW16963   2.533   2.326   4.993
 5466SOL    HW116964   2.499   2.237   4.963
 5466SOL    HW216965   2.559   2.380   4.913
 5467SOL     OW16966   2.792   3.540   5.189
 5467SOL    HW116967   2.768   3.522   5.094
 5467SOL    HW216968   2.822   3.634   5.199
 5468SOL     OW16969   2.335   2.362   3.915
 5468SOL    HW116970   2.396   2.442   3.919
 5468SOL    HW216971   2.240   2.393   3.922
 5469SOL     OW16972   2.021   2.999   5.190
 5469SOL    HW116973   2.043   2.938   5.266
 5469SOL    HW216974   2.031   2.950   5.104
 5470SOL     OW16975   3.209   2.921   4.958
 5470SOL    HW116976   3.233   2.858   4.884
 5470SOL    HW216977   3.119   2.961   4.940
 5471SOL     OW16978   3.164   2.717   4.033
 5471SOL    HW116979   3.078   2.686   4.075
 5471SOL    HW216980   3.160   2.703   3.934
 5472SOL     OW16981   3.621   3.609   4.878
 5472SOL    HW116982   3.682   3.639   4.805
 5472SOL    HW216983   3.583   3.520   4.856
 5473SOL     OW16984   3.114   3.593   4.852
 5473SOL    HW116985   3.198   3.598   4.798
 5473SOL    HW216986   3.091   3.497   4.870
 5474SOL     OW16987   1.945   3.120   4.746
 5474SOL    HW116988   1.940   3.119   4.846
 5474SOL    HW216989   1.862   3.079   4.708
 5475SOL     OW16990   2.550   3.524   5.440
 5475SOL    HW116991   2.494   3.605   5.449
 5475SOL    HW216992   2.602   3.528   5.354
 5476SOL     OW16993   3.588   1.997   4.247
 5476SOL    HW116994   3.661   1.980   4.180
 5476SOL    HW216995   3.557   1.910   4.285
 5477SOL     OW16996   3.250   3.435   4.201
 5477SOL    HW116997   3.317   3.447   4.127
 5477SOL    HW216998   3.210   3.524   4.224
 5478SOL     OW16999   1.992   3.656   5.575
 5478SOL    HW117000   1.951   3.582   5.628
 5478SOL    HW217001   2.056   3.707   5.633
 5479SOL     OW17002   3.142   2.789   4.396
 5479SOL    HW117003   3.202   2.708   4.398
 5479SOL    HW217004   3.182   2.858   4.336
 5480SOL     OW17005   2.692   3.135   5.146
 5480SOL    HW117006   2.687   3.168   5.241
 5480SOL    HW217007   2.606   3.154   5.100
 5481SOL     OW17008   2.534   3.478   3.878
 5481SOL    HW117009   2.543   3.488   3.779
 5481SOL    HW217010   2.494   3.389   3.899
 5482SOL     OW17011   3.512   3.582   5.118
 5482SOL    HW117012   3.565   3.592   5.034
 5482SOL    HW217013   3.485   3.672   5.152
 5483SOL     OW17014   3.703   2.037   4.687
 5483SOL    HW117015   3.742   1.952   4.651
 5483SOL    HW217016   3.605   2.039   4.668
 5484SOL     OW17017   3.056   3.474   3.755
 5484SOL    HW117018   3.062   3.381   3.792
 5484SOL    HW217019   2.997   3.474   3.675
 5485SOL     OW17020   2.684   2.864   5.096
 5485SOL    HW117021   2.724   2.863   5.004
 5485SOL    HW217022   2.694   2.956   5.136
 5486SOL     OW17023   2.778   2.772   4.015
 5486SOL    HW117024   2.841   2.810   3.947
 5486SOL    HW217025   2.818   2.689   4.054
 5487SOL     OW17026   3.366   3.469   3.768
 5487SOL    HW117027   3.274   3.506   3.775
 5487SOL    HW217028   3.404   3.489   3.678
 5488SOL     OW17029   2.234   3.150   5.214
 5488SOL    HW117030   2.221   3.243   5.180
 5488SOL    HW217031   2.150   3.098   5.201
 5489SOL     OW17032   3.476   3.154   5.013
 5489SOL    HW117033   3.536   3.157   5.093
 5489SOL    HW217034   3.401   3.218   5.026
 5490SOL     OW17035   2.901   2.960   4.420
 5490SOL    HW117036   2.831   2.913   4.474
 5490SOL    HW217037   2.960   2.892   4.377
 5491SOL     OW17038   2.876   2.098   4.695
 5491SOL    HW117039   2.868   2.062   4.602
 5491SOL    HW217040   2.874   2.022   4.760
 5492SOL     OW17041   2.452   3.349   4.215
 5492SOL    HW117042   2.494   3.291   4.145
 5492SOL    HW217043   2.408   3.428   4.171
 5493SOL     OW17044   3.571   2.247   5.105
 5493SOL    HW117045   3.644   2.316   5.109
 5493SOL    HW217046   3.599   2.172   5.046
 5494SOL     OW17047   2.117   3.210   4.014
 5494SOL    HW117048   2.021   3.211   3.987
 5494SOL    HW217049   2.129   3.263   4.098
 5495SOL     OW17050   1.967   2.875   5.450
 5495SOL    HW117051   1.890   2.842   5.504
 5495SOL    HW217052   2.052   2.845   5.492
 5496SOL     OW17053   2.534   2.065   5.213
 5496SOL    HW117054   2.624   2.049   5.173
 5496SOL    HW217055   2.542   2.070   5.312
 5497SOL     OW17056   1.937   2.207   3.757
 5497SOL    HW117057   1.845   2.179   3.728
 5497SOL    HW217058   1.968   2.284   3.701
 5498SOL     OW17059   3.302   2.718   5.122
 5498SOL    HW117060   3.245   2.770   5.059
 5498SOL    HW217061   3.398   2.730   5.098
 5499SOL     OW17062   3.045   3.197   3.843
 5499SOL    HW117063   2.946   3.186   3.845
 5499SOL    HW217064   3.079   3.212   3.936
 5500SOL     OW17065   2.475   2.704   5.155
 5500SOL    HW117066   2.531   2.785   5.138
 5500SOL    HW217067   2.534   2.624   5.158
 5501SOL     OW17068   3.355   3.629   4.683
 5501SOL    HW117069   3.388   3.693   4.614
 5501SOL    HW217070   3.421   3.623   4.758
 5502SOL     OW17071   2.578   2.427   5.432
 5502SOL    HW117072   2.597   2.492   5.506
 5502SOL    HW217073   2.638   2.347   5.441
 5503SOL     OW17074   3.312   3.082   5.357
 5503SOL    HW117075   3.303   3.072   5.456
 5503SOL    HW217076   3.408   3.075   5.331
 5504SOL     OW17077   2.252   3.603   5.284
 5504SOL    HW117078   2.161   3.644   5.282
 5504SOL    HW217079   2.245   3.509   5.316
 5505SOL     OW17080   3.536   2.745   4.978
 5505SOL    HW117081   3.509   2.656   4.941
 5505SOL    HW217082   3.537   2.813   4.905
 5506SOL     OW17083   3.087   2.187   4.173
 5506SOL    HW117084   3.152   2.113   4.162
 5506SOL    HW217085   3.107   2.237   4.257
 5507SOL     OW17086   2.456   2.607   4.376
 5507SOL    HW117087   2.506   2.692   4.357
 5507SOL    HW217088   2.368   2.609   4.328
 5508SOL     OW17089   3.639   2.204   5.366
 5508SOL    HW117090   3.622   2.235   5.272
 5508SOL    HW217091   3.555   2.167   5.404
 5509SOL     OW17092   3.592   2.796   5.241
 5509SOL    HW117093   3.630   2.887   5.256
 5509SOL    HW217094   3.584   2.779   5.142
 5510SOL     OW17095   2.721   3.236   3.740
 5510SOL    HW117096   2.675   3.251   3.828
 5510SOL    HW217097   2.765   3.321   3.710
 5511SOL     OW17098   2.523   3.652   4.677
 5511SOL    HW117099   2.477   3.740   4.664
 5511SOL    HW217100   2.622   3.664   4.670
 5512SOL     OW17101   2.721   2.818   4.585
 5512SOL    HW117102   2.775   2.749   4.633
 5512SOL    HW217103   2.689   2.887   4.651
 5513SOL     OW17104   2.945   2.846   3.811
 5513SOL    HW117105   2.922   2.899   3.729
 5513SOL    HW217106   3.026   2.790   3.792
 5514SOL     OW17107   3.723   3.431   4.575
 5514SOL    HW117108   3.652   3.419   4.505
 5514SOL    HW217109   3.724   3.352   4.635
 5515SOL     OW17110   2.083   3.176   5.568
 5515SOL    HW117111   2.018   3.103   5.547
 5515SOL    HW217112   2.087   3.190   5.666
 5516SOL     OW17113   1.941   3.102   4.377
 5516SOL    HW117114   1.940   3.055   4.465
 5516SOL    HW217115   2.023   3.074   4.326
 5517SOL     OW17116   2.534   3.253   5.348
 5517SOL    HW117117   2.456   3.203   5.386
 5517SOL    HW217118   2.531   3.348   5.379
 5518SOL     OW17119   3.686   2.054   4.951
 5518SOL    HW117120   3.682   1.964   4.995
 5518SOL    HW217121   3.689   2.043   4.852
 5519SOL     OW17122   2.290   2.286   4.244
 5519SOL    HW117123   2.320   2.214   4.182
 5519SOL    HW217124   2.251   2.246   4.327
 5520SOL     OW17125   3.567   3.349   4.828
 5520SOL    HW117126   3.474   3.324   4.801
 5520SOL    HW217127   3.593   3.299   4.910
 5521SOL     OW17128   2.179   2.409   5.004
 5521SOL    HW117129   2.217   2.350   5.076
 5521SOL    HW217130   2.219   2.383   4.916
 5522SOL     OW17131   2.674   3.448   4.411
 5522SOL    HW117132   2.706   3.458   4.317
 5522SOL    HW217133   2.595   3.386   4.413
 5523SOL     OW17134   3.286   2.076   4.836
 5523SOL    HW117135   3.338   2.011   4.891
 5523SOL    HW217136   3.237   2.139   4.897
 5524SOL     OW17137   2.863   1.896   4.878
 5524SOL    HW117138   2.800   1.824   4.847
 5524SOL    HW217139   2.956   1.860   4.878
 5525SOL     OW17140   2.632   3.192   4.025
 5525SOL    HW117141   2.586   3.105   4.042
 5525SOL    HW217142   2.723   3.189   4.066
 5526SOL     OW17143   2.480   3.429   5.008
 5526SOL    HW117144   2.475   3.511   5.065
 5526SOL    HW217145   2.569   3.426   4.963
 5527SOL     OW17146   3.214   1.914   3.892
 5527SOL    HW117147   3.249   1.873   3.808
 5527SOL    HW217148   3.124   1.876   3.912
 5528SOL     OW17149   3.162   2.315   4.415
 5528SOL    HW117150   3.103   2.395   4.419
 5528SOL    HW217151   3.177   2.280   4.508
 5529SOL     OW17152   3.455   2.083   4.606
 5529SOL    HW117153   3.371   2.082   4.660
 5529SOL    HW217154   3.457   2.166   4.550
 5530SOL     OW17155   1.901   2.939   4.024
 5530SOL    HW117156   2.000   2.928   4.015
 5530SOL    HW217157   1.861   2.853   4.056
 5531SOL     OW17158   2.737   3.508   4.061
 5531SOL    HW117159   2.660   3.473   4.007
 5531SOL    HW217160   2.705   3.579   4.123
 5532SOL     OW17161   2.092   2.490   5.699
 5532SOL    HW117162   1.999   2.488   5.736
 5532SOL    HW217163   2.093   2.451   5.607
 5533SOL     OW17164   1.881   2.230   6.233
 5533SOL    HW117165   1.799   2.273   6.272
 5533SOL    HW217166   1.853   2.157   6.170
 5534SOL     OW17167   2.431   3.137   6.751
 5534SOL    HW117168   2.338   3.130   6.714
 5534SOL    HW217169   2.442   3.226   6.795
 5535SOL     OW17170   3.417   3.373   6.289
 5535SOL    HW117171   3.360   3.357   6.370
 5535SOL    HW217172   3.358   3.383   6.209
 5536SOL     OW17173   2.997   2.565   6.303
 5536SOL    HW117174   3.054   2.643   6.278
 5536SOL    HW217175   2.937   2.591   6.379
 5537SOL     OW17176   3.617   2.469   5.817
 5537SOL    HW117177   3.605   2.456   5.718
 5537SOL    HW217178   3.587   2.388   5.866
 5538SOL     OW17179   2.630   3.006   6.609
 5538SOL    HW117180   2.552   3.023   6.669
 5538SOL    HW217181   2.664   3.093   6.573
 5539SOL     OW17182   2.712   2.660   7.409
 5539SOL    HW117183   2.708   2.736   7.474
 5539SOL    HW217184   2.734   2.696   7.318
 5540SOL     OW17185   2.547   2.874   6.251
 5540SOL    HW117186   2.616   2.858   6.321
 5540SOL    HW217187   2.474   2.931   6.289
 5541SOL     OW17188   2.548   3.023   7.389
 5541SOL    HW117189   2.608   3.102   7.403
 5541SOL    HW217190   2.462   3.054   7.348
 5542SOL     OW17191   2.197   3.297   6.647
 5542SOL    HW117192   2.119   3.266   6.594
 5542SOL    HW217193   2.255   3.355   6.590
 5543SOL     OW17194   3.322   3.367   6.925
 5543SOL    HW117195   3.346   3.461   6.951
 5543SOL    HW217196   3.306   3.313   7.007
 5544SOL     OW17197   3.465   2.309   6.323
 5544SOL    HW117198   3.391   2.355   6.273
 5544SOL    HW217199   3.516   2.377   6.376
 5545SOL     OW17200   2.093   3.575   6.069
 5545SOL    HW117201   2.127   3.652   6.123
 5545SOL    HW217202   2.137   3.575   5.979
 5546SOL     OW17203   2.989   3.203   7.276
 5546SOL    HW117204   3.036   3.203   7.364
 5546SOL    HW217205   2.941   3.116   7.265
 5547SOL     OW17206   2.092   3.296   6.124
 5547SOL    HW117207   2.066   3.392   6.124
 5547SOL    HW217208   2.021   3.242   6.169
 5548SOL     OW17209   2.102   2.953   6.472
 5548SOL    HW117210   2.116   2.869   6.524
 5548SOL    HW217211   2.047   3.017   6.527
 5549SOL     OW17212   2.482   3.648   7.025
 5549SOL    HW117213   2.390   3.631   7.060
 5549SOL    HW217214   2.510   3.740   7.051
 5550SOL     OW17215   2.468   2.826   5.709
 5550SOL    HW117216   2.475   2.910   5.655
 5550SOL    HW217217   2.514   2.839   5.797
 5551SOL     OW17218   3.456   1.976   7.066
 5551SOL    HW117219   3.438   2.043   6.994
 5551SOL    HW217220   3.453   2.022   7.155
 5552SOL     OW17221   3.704   3.629   5.945
 5552SOL    HW117222   3.758   3.600   6.025
 5552SOL    HW217223   3.734   3.719   5.916
 5553SOL     OW17224   1.889   3.458   5.703
 5553SOL    HW117225   1.870   3.362   5.724
 5553SOL    HW217226   1.856   3.516   5.778
 5554SOL     OW17227   3.551   2.784   6.198
 5554SOL    HW117228   3.646   2.755   6.206
 5554SOL    HW217229   3.543   2.849   6.123
 5555SOL     OW17230   3.503   2.970   6.018
 5555SOL    HW117231   3.589   2.972   5.966
 5555SOL    HW217232   3.517   3.017   6.106
 5556SOL     OW17233   2.475   3.227   6.312
 5556SOL    HW117234   2.426   3.140   6.321
 5556SOL    HW217235   2.452   3.270   6.225
 5557SOL     OW17236   3.155   3.090   7.009
 5557SOL    HW117237   3.192   3.017   6.951
 5557SOL    HW217238   3.207   3.095   7.094
 5558SOL     OW17239   2.059   2.838   6.850
 5558SOL    HW117240   2.148   2.793   6.836
 5558SOL    HW217241   1.986   2.773   6.831
 5559SOL     OW17242   3.387   2.861   5.776
 5559SOL    HW117243   3.324   2.785   5.789
 5559SOL    HW217244   3.435   2.879   5.862
 5560SOL     OW17245   3.049   3.654   7.202
 5560SOL    HW117246   3.073   3.714   7.126
 5560SOL    HW217247   3.056   3.559   7.172
 5561SOL     OW17248   3.328   3.279   6.539
 5561SOL    HW117249   3.269   3.285   6.619
 5561SOL    HW217250   3.313   3.191   6.493
 5562SOL     OW17251   3.529   3.576   6.158
 5562SOL    HW117252   3.488   3.553   6.070
 5562SOL    HW217253   3.511   3.502   6.223
 5563SOL     OW17254   2.460   2.591   5.856
 5563SOL    HW117255   2.484   2.660   5.788
 5563SOL    HW217256   2.382   2.624   5.910
 5564SOL     OW17257   3.143   2.207   6.530
 5564SOL    HW117258   3.057   2.157   6.517
 5564SOL    HW217259   3.205   2.153   6.586
 5565SOL     OW17260   3.438   3.524   5.893
 5565SOL    HW117261   3.527   3.570   5.896
 5565SOL    HW217262   3.417   3.500   5.798
 5566SOL     OW17263   2.669   2.467   7.051
 5566SOL    HW117264   2.622   2.464   7.140
 5566SOL    HW217265   2.618   2.412   6.985
 5567SOL     OW17266   3.256   2.331   7.260
 5567SOL    HW117267   3.236   2.374   7.348
 5567SOL    HW217268   3.334   2.269   7.269
 5568SOL     OW17269   2.835   2.752   7.158
 5568SOL    HW117270   2.881   2.668   7.129
 5568SOL    HW217271   2.779   2.786   7.083
 5569SOL     OW17272   2.853   2.272   6.828
 5569SOL    HW117273   2.776   2.306   6.882
 5569SOL    HW217274   2.819   2.221   6.749
 5570SOL     OW17275   2.903   2.563   6.015
 5570SOL    HW117276   2.929   2.559   6.111
 5570SOL    HW217277   2.818   2.512   6.001
 5571SOL     OW17278   1.992   3.683   7.157
 5571SOL    HW117279   1.982   3.668   7.256
 5571SOL    HW217280   1.906   3.719   7.121
 5572SOL     OW17281   2.727   2.210   5.781
 5572SOL    HW117282   2.786   2.273   5.732
 5572SOL    HW217283   2.746   2.116   5.752
 5573SOL     OW17284   3.581   2.447   7.417
 5573SOL    HW117285   3.555   2.536   7.381
 5573SOL    HW217286   3.579   2.379   7.344
 5574SOL     OW17287   3.224   3.006   6.131
 5574SOL    HW117288   3.307   2.977   6.083
 5574SOL    HW217289   3.175   3.073   6.075
 5575SOL     OW17290   2.870   3.318   6.063
 5575SOL    HW117291   2.824   3.390   6.011
 5575SOL    HW217292   2.866   3.338   6.161
 5576SOL     OW17293   2.213   3.663   6.439
 5576SOL    HW117294   2.263   3.577   6.445
 5576SOL    HW217295   2.278   3.740   6.436
 5577SOL     OW17296   3.657   2.928   6.459
 5577SOL    HW117297   3.595   2.913   6.383
 5577SOL    HW217298   3.605   2.939   6.544
 5578SOL     OW17299   3.089   3.412   7.092
 5578SOL    HW117300   3.095   3.335   7.156
 5578SOL    HW217301   3.037   3.386   7.012
 5579SOL     OW17302   2.183   2.805   5.828
 5579SOL    HW117303   2.265   2.844   5.786
 5579SOL    HW217304   2.156   2.723   5.779
 5580SOL     OW17305   3.320   2.597   6.314
 5580SOL    HW117306   3.315   2.532   6.389
 5580SOL    HW217307   3.400   2.656   6.327
 5581SOL     OW17308   2.323   3.128   7.313
 5581SOL    HW117309   2.273   3.129   7.227
 5581SOL    HW217310   2.260   3.110   7.389
 5582SOL     OW17311   2.973   3.638   5.823
 5582SOL    HW117312   2.913   3.576   5.873
 5582SOL    HW217313   3.004   3.594   5.738
 5583SOL     OW17314   3.494   3.239   5.667
 5583SOL    HW117315   3.462   3.333   5.657
 5583SOL    HW217316   3.418   3.176   5.655
 5584SOL     OW17317   2.326   3.605   5.909
 5584SOL    HW117318   2.359   3.644   5.995
 5584SOL    HW217319   2.402   3.598   5.844
 5585SOL     OW17320   3.262   1.969   6.012
 5585SOL    HW117321   3.238   1.932   5.922
 5585SOL    HW217322   3.361   1.985   6.016
 5586SOL     OW17323   2.111   3.647   6.827
 5586SOL    HW117324   2.168   3.582   6.877
 5586SOL    HW217325   2.095   3.614   6.734
 5587SOL     OW17326   2.802   3.560   6.490
 5587SOL    HW117327   2.882   3.503   6.511
 5587SOL    HW217328   2.753   3.520   6.413
 5588SOL     OW17329   3.409   2.084   7.315
 5588SOL    HW117330   3.404   2.121   7.407
 5588SOL    HW217331   3.337   2.015   7.303
 5589SOL     OW17332   2.476   1.984   5.703
 5589SOL    HW117333   2.574   1.962   5.710
 5589SOL    HW217334   2.445   1.967   5.610
 5590SOL     OW17335   2.750   3.376   6.781
 5590SOL    HW117336   2.727   3.351   6.687
 5590SOL    HW217337   2.811   3.307   6.820
 5591SOL     OW17338   3.213   2.452   7.019
 5591SOL    HW117339   3.241   2.409   7.104
 5591SOL    HW217340   3.238   2.548   7.020
 5592SOL     OW17341   2.665   3.264   6.510
 5592SOL    HW117342   2.755   3.278   6.468
 5592SOL    HW217343   2.594   3.266   6.439
 5593SOL     OW17344   2.784   2.365   6.485
 5593SOL    HW117345   2.759   2.356   6.389
 5593SOL    HW217346   2.832   2.283   6.516
 5594SOL     OW17347   3.296   3.050   5.627
 5594SOL    HW117348   3.328   2.974   5.684
 5594SOL    HW217349   3.204   3.077   5.657
 5595SOL     OW17350   2.797   2.098   6.066
 5595SOL    HW117351   2.749   2.139   5.988
 5595SOL    HW217352   2.896   2.096   6.047
 5596SOL     OW17353   2.938   2.545   7.050
 5596SOL    HW117354   2.858   2.484   7.053
 5596SOL    HW217355   3.019   2.492   7.026
 5597SOL     OW17356   3.089   3.432   6.379
 5597SOL    HW117357   3.110   3.506   6.314
 5597SOL    HW217358   3.157   3.432   6.452
 5598SOL     OW17359   2.321   3.014   6.327
 5598SOL    HW117360   2.250   2.987   6.392
 5598SOL    HW217361   2.295   2.986   6.234
 5599SOL     OW17362   3.133   3.659   6.177
 5599SOL    HW117363   3.177   3.723   6.113
 5599SOL    HW217364   3.083   3.711   6.247
 5600SOL     OW17365   2.894   2.411   5.602
 5600SOL    HW117366   2.853   2.493   5.563
 5600SOL    HW217367   2.958   2.437   5.675
 5601SOL     OW17368   2.728   2.316   6.228
 5601SOL    HW117369   2.696   2.388   6.166
 5601SOL    HW217370   2.752   2.235   6.175
 5602SOL     OW17371   3.291   3.035   6.453
 5602SOL    HW117372   3.236   2.951   6.446
 5602SOL    HW217373   3.317   3.064   6.361
 5603SOL     OW17374   3.328   2.452   6.578
 5603SOL    HW117375   3.298   2.357   6.585
 5603SOL    HW217376   3.401   2.468   6.644
 5604SOL     OW17377   3.719   2.695   5.963
 5604SOL    HW117378   3.761   2.631   6.027
 5604SOL    HW217379   3.681   2.644   5.885
 5605SOL     OW17380   2.350   3.247   5.760
 5605SOL    HW117381   2.263   3.232   5.807
 5605SOL    HW217382   2.333   3.273   5.665
 5606SOL     OW17383   3.526   3.142   6.243
 5606SOL    HW117384   3.625   3.150   6.257
 5606SOL    HW217385   3.481   3.226   6.274
 5607SOL     OW17386   3.252   2.437   5.664
 5607SOL    HW117387   3.198   2.416   5.745
 5607SOL    HW217388   3.343   2.396   5.673
 5608SOL     OW17389   2.389   2.118   5.914
 5608SOL    HW117390   2.416   2.059   5.839
 5608SOL    HW217391   2.389   2.213   5.883
 5609SOL     OW17392   3.616   3.085   7.174
 5609SOL    HW117393   3.707   3.046   7.161
 5609SOL    HW217394   3.624   3.181   7.198
 5610SOL     OW17395   2.926   3.209   6.926
 5610SOL    HW117396   2.846   3.186   6.981
 5610SOL    HW217397   3.009   3.183   6.975
 5611SOL     OW17398   3.454   3.491   7.211
 5611SOL    HW117399   3.481   3.525   7.121
 5611SOL    HW217400   3.533   3.453   7.257
 5612SOL     OW17401   2.973   3.057   6.686
 5612SOL    HW117402   2.933   3.101   6.767
 5612SOL    HW217403   2.932   3.094   6.603
 5613SOL     OW17404   3.500   2.961   6.665
 5613SOL    HW117405   3.505   3.042   6.724
 5613SOL    HW217406   3.414   2.963   6.614
 5614SOL     OW17407   2.777   1.951   6.988
 5614SOL    HW117408   2.802   1.931   6.893
 5614SOL    HW217409   2.849   2.007   7.030
 5615SOL     OW17410   2.842   2.978   7.305
 5615SOL    HW117411   2.743   2.984   7.315
 5615SOL    HW217412   2.865   2.898   7.249
 5616SOL     OW17413   2.567   2.912   5.954
 5616SOL    HW117414   2.553   2.919   6.053
 5616SOL    HW217415   2.651   2.861   5.936
 5617SOL     OW17416   2.272   2.675   6.837
 5617SOL    HW117417   2.358   2.687   6.887
 5617SOL    HW217418   2.230   2.588   6.864
 5618SOL     OW17419   3.136   2.248   6.848
 5618SOL    HW117420   3.157   2.322   6.912
 5618SOL    HW217421   3.047   2.265   6.805
 5619SOL     OW17422   1.926   3.426   6.917
 5619SOL    HW117423   1.880   3.508   6.883
 5619SOL    HW217424   2.024   3.445   6.926
 5620SOL     OW17425   2.229   2.962   6.087
 5620SOL    HW117426   2.222   3.045   6.031
 5620SOL    HW217427   2.233   2.882   6.027
 5621SOL     OW17428   3.114   3.210   5.974
 5621SOL    HW117429   3.164   3.287   6.014
 5621SOL    HW217430   3.019   3.212   6.006
 5622SOL     OW17431   3.134   3.307   6.728
 5622SOL    HW117432   3.181   3.320   6.815
 5622SOL    HW217433   3.068   3.233   6.737
 5623SOL     OW17434   3.444   2.501   6.058
 5623SOL    HW117435   3.413   2.562   6.131
 5623SOL    HW217436   3.494   2.553   5.989
 5624SOL     OW17437   2.216   3.372   6.915
 5624SOL    HW117438   2.195   3.328   6.828
 5624SOL    HW217439   2.313   3.398   6.918
 5625SOL     OW17440   2.264   2.613   7.184
 5625SOL    HW117441   2.332   2.668   7.137
 5625SOL    HW217442   2.304   2.525   7.211
 5626SOL     OW17443   3.449   2.641   7.256
 5626SOL    HW117444   3.357   2.679   7.251
 5626SOL    HW217445   3.509   2.688   7.191
 5627SOL     OW17446   2.875   1.967   7.356
 5627SOL    HW117447   2.881   2.052   7.304
 5627SOL    HW217448   2.907   1.891   7.299
 5628SOL     OW17449   2.435   2.732   6.615
 5628SOL    HW117450   2.479   2.821   6.606
 5628SOL    HW217451   2.372   2.732   6.692
 5629SOL     OW17452   3.222   2.724   6.631
 5629SOL    HW117453   3.147   2.724   6.565
 5629SOL    HW217454   3.259   2.632   6.640
 5630SOL     OW17455   3.071   2.387   5.861
 5630SOL    HW117456   3.084   2.303   5.915
 5630SOL    HW217457   3.042   2.461   5.921
 5631SOL     OW17458   1.899   3.172   6.868
 5631SOL    HW117459   1.952   3.123   6.936
 5631SOL    HW217460   1.921   3.270   6.873
 5632SOL     OW17461   2.594   2.496   6.650
 5632SOL    HW117462   2.653   2.470   6.574
 5632SOL    HW217463   2.566   2.592   6.639
 5633SOL     OW17464   3.590   2.797   7.440
 5633SOL    HW117465   3.544   2.790   7.351
 5633SOL    HW217466   3.528   2.841   7.506
 5634SOL     OW17467   3.484   2.229   5.960
 5634SOL    HW117468   3.486   2.153   6.024
 5634SOL    HW217469   3.436   2.306   6.000
 5635SOL     OW17470   2.885   2.628   6.552
 5635SOL    HW117471   2.900   2.649   6.648
 5635SOL    HW217472   2.855   2.533   6.543
 5636SOL     OW17473   2.842   3.435   7.286
 5636SOL    HW117474   2.822   3.479   7.198
 5636SOL    HW217475   2.881   3.344   7.270
 5637SOL     OW17476   3.721   3.380   7.191
 5637SOL    HW117477   3.735   3.407   7.096
 5637SOL    HW217478   3.804   3.402   7.244
 5638SOL     OW17479   2.212   2.760   7.390
 5638SOL    HW117480   2.288   2.804   7.438
 5638SOL    HW217481   2.247   2.713   7.308
 5639SOL     OW17482   3.402   2.136   5.711
 5639SOL    HW117483   3.341   2.061   5.734
 5639SOL    HW217484   3.424   2.188   5.794
 5640SOL     OW17485   3.165   2.700   5.628
 5640SOL    HW117486   3.199   2.607   5.643
 5640SOL    HW217487   3.183   2.727   5.533
 5641SOL     OW17488   2.930   3.195   6.435
 5641SOL    HW117489   2.937   3.111   6.380
 5641SOL    HW217490   2.992   3.264   6.399
 5642SOL     OW17491   3.000   2.242   7.264
 5642SOL    HW117492   2.955   2.305   7.328
 5642SOL    HW217493   3.093   2.273   7.247
 5643SOL     OW17494   3.022   2.069   7.063
 5643SOL    HW117495   3.022   2.133   7.140
 5643SOL    HW217496   3.050   2.117   6.980
 5644SOL     OW17497   1.870   3.188   5.786
 5644SOL    HW117498   1.777   3.209   5.755
 5644SOL    HW217499   1.880   3.089   5.799
 5645SOL     OW17500   1.950   3.663   6.513
 5645SOL    HW117501   1.908   3.577   6.486
 5645SOL    HW217502   2.044   3.666   6.479
 5646SOL     OW17503   2.366   3.430   6.496
 5646SOL    HW117504   2.432   3.504   6.505
 5646SOL    HW217505   2.410   3.351   6.454
 5647SOL     OW17506   2.864   2.658   6.824
 5647SOL    HW117507   2.905   2.626   6.910
 5647SOL    HW217508   2.768   2.631   6.821
 5648SOL     OW17509   3.231   2.812   7.246
 5648SOL    HW117510   3.270   2.901   7.266
 5648SOL    HW217511   3.241   2.792   7.149
 5649SOL     OW17512   2.677   2.434   5.911
 5649SOL    HW117513   2.684   2.345   5.865
 5649SOL    HW217514   2.583   2.468   5.903
 5650SOL     OW17515   3.519   2.466   6.792
 5650SOL    HW117516   3.481   2.397   6.854
 5650SOL    HW217517   3.601   2.430   6.748
 5651SOL     OW17518   2.114   3.426   7.330
 5651SOL    HW117519   2.084   3.483   7.406
 5651SOL    HW217520   2.107   3.329   7.356
 5652SOL     OW17521   2.792   3.540   7.051
 5652SOL    HW117522   2.768   3.522   6.956
 5652SOL    HW217523   2.822   3.634   7.061
 5653SOL     OW17524   2.335   2.362   5.777
 5653SOL    HW117525   2.396   2.442   5.781
 5653SOL    HW217526   2.240   2.393   5.784
 5654SOL     OW17527   2.021   2.999   7.052
 5654SOL    HW117528   2.043   2.938   7.128
 5654SOL    HW217529   2.031   2.950   6.966
 5655SOL     OW17530   3.209   2.921   6.820
 5655SOL    HW117531   3.233   2.858   6.746
 5655SOL    HW217532   3.119   2.961   6.802
 5656SOL     OW17533   3.164   2.717   5.895
 5656SOL    HW117534   3.078   2.686   5.937
 5656SOL    HW217535   3.160   2.703   5.796
 5657SOL     OW17536   3.621   3.609   6.740
 5657SOL    HW117537   3.682   3.639   6.667
 5657SOL    HW217538   3.583   3.520   6.718
 5658SOL     OW17539   3.114   3.593   6.714
 5658SOL    HW117540   3.198   3.598   6.660
 5658SOL    HW217541   3.091   3.497   6.732
 5659SOL     OW17542   1.945   3.120   6.608
 5659SOL    HW117543   1.940   3.119   6.708
 5659SOL    HW217544   1.862   3.079   6.570
 5660SOL     OW17545   2.550   3.524   7.302
 5660SOL    HW117546   2.494   3.605   7.311
 5660SOL    HW217547   2.602   3.528   7.216
 5661SOL     OW17548   3.588   1.997   6.109
 5661SOL    HW117549   3.661   1.980   6.042
 5661SOL    HW217550   3.557   1.910   6.147
 5662SOL     OW17551   3.250   3.435   6.063
 5662SOL    HW117552   3.317   3.447   5.989
 5662SOL    HW217553   3.210   3.524   6.086
 5663SOL     OW17554   1.992   3.656   7.437
 5663SOL    HW117555   1.951   3.582   7.490
 5663SOL    HW217556   2.056   3.707   7.495
 5664SOL     OW17557   3.142   2.789   6.258
 5664SOL    HW117558   3.202   2.708   6.260
 5664SOL    HW217559   3.182   2.858   6.198
 5665SOL     OW17560   2.692   3.135   7.008
 5665SOL    HW117561   2.687   3.168   7.103
 5665SOL    HW217562   2.606   3.154   6.962
 5666SOL     OW17563   2.534   3.478   5.740
 5666SOL    HW117564   2.543   3.488   5.641
 5666SOL    HW217565   2.494   3.389   5.761
 5667SOL     OW17566   3.512   3.582   6.980
 5667SOL    HW117567   3.565   3.592   6.896
 5667SOL    HW217568   3.485   3.672   7.014
 5668SOL     OW17569   3.703   2.037   6.549
 5668SOL    HW117570   3.742   1.952   6.513
 5668SOL    HW217571   3.605   2.039   6.530
 5669SOL     OW17572   3.056   3.474   5.617
 5669SOL    HW117573   3.062   3.381   5.654
 5669SOL    HW217574   2.997   3.474   5.537
 5670SOL     OW17575   2.684   2.864   6.958
 5670SOL    HW117576   2.724   2.863   6.866
 5670SOL    HW217577   2.694   2.956   6.998
 5671SOL     OW17578   2.778   2.772   5.877
 5671SOL    HW117579   2.841   2.810   5.809
 5671SOL    HW217580   2.818   2.689   5.916
 5672SOL     OW17581   3.366   3.469   5.630
 5672SOL    HW117582   3.274   3.506   5.637
 5672SOL    HW217583   3.404   3.489   5.540
 5673SOL     OW17584   2.234   3.150   7.076
 5673SOL    HW117585   2.221   3.243   7.042
 5673SOL    HW217586   2.150   3.098   7.063
 5674SOL     OW17587   3.476   3.154   6.875
 5674SOL    HW117588   3.536   3.157   6.955
 5674SOL    HW217589   3.401   3.218   6.888
 5675SOL     OW17590   2.901   2.960   6.282
 5675SOL    HW117591   2.831   2.913   6.336
 5675SOL    HW217592   2.960   2.892   6.239
 5676SOL     OW17593   2.876   2.098   6.557
 5676SOL    HW117594   2.868   2.062   6.464
 5676SOL    HW217595   2.874   2.022   6.622
 5677SOL     OW17596   2.452   3.349   6.077
 5677SOL    HW117597   2.494   3.291   6.007
 5677SOL    HW217598   2.408   3.428   6.033
 5678SOL     OW17599   3.571   2.247   6.967
 5678SOL    HW117600   3.644   2.316   6.971
 5678SOL    HW217601   3.599   2.172   6.908
 5679SOL     OW17602   2.117   3.210   5.876
 5679SOL    HW117603   2.021   3.211   5.849
 5679SOL    HW217604   2.129   3.263   5.960
 5680SOL     OW17605   1.967   2.875   7.312
 5680SOL    HW117606   1.890   2.842   7.366
 5680SOL    HW217607   2.052   2.845   7.354
 5681SOL     OW17608   2.534   2.065   7.075
 5681SOL    HW117609   2.624   2.049   7.035
 5681SOL    HW217610   2.542   2.070   7.174
 5682SOL     OW17611   1.937   2.207   5.619
 5682SOL    HW117612   1.845   2.179   5.590
 5682SOL    HW217613   1.968   2.284   5.563
 5683SOL     OW17614   3.302   2.718   6.984
 5683SOL    HW117615   3.245   2.770   6.921
 5683SOL    HW217616   3.398   2.730   6.960
 5684SOL     OW17617   3.045   3.197   5.705
 5684SOL    HW117618   2.946   3.186   5.707
 5684SOL    HW217619   3.079   3.212   5.798
 5685SOL     OW17620   2.475   2.704   7.017
 5685SOL    HW117621   2.531   2.785   7.000
 5685SOL    HW217622   2.534   2.624   7.020
 5686SOL     OW17623   3.355   3.629   6.545
 5686SOL    HW117624   3.388   3.693   6.476
 5686SOL    HW217625   3.421   3.623   6.620
 5687SOL     OW17626   2.578   2.427   7.294
 5687SOL    HW117627   2.597   2.492   7.368
 5687SOL    HW217628   2.638   2.347   7.303
 5688SOL     OW17629   3.312   3.082   7.219
 5688SOL    HW117630   3.303   3.072   7.318
 5688SOL    HW217631   3.408   3.075   7.193
 5689SOL     OW17632   2.252   3.603   7.146
 5689SOL    HW117633   2.161   3.644   7.144
 5689SOL    HW217634   2.245   3.509   7.178
 5690SOL     OW17635   3.536   2.745   6.840
 5690SOL    HW117636   3.509   2.656   6.803
 5690SOL    HW217637   3.537   2.813   6.767
 5691SOL     OW17638   3.087   2.187   6.035
 5691SOL    HW117639   3.152   2.113   6.024
 5691SOL    HW217640   3.107   2.237   6.119
 5692SOL     OW17641   3.639   2.204   7.228
 5692SOL    HW117642   3.622   2.235   7.134
 5692SOL    HW217643   3.555   2.167   7.266
 5693SOL     OW17644   3.592   2.796   7.103
 5693SOL    HW117645   3.630   2.887   7.118
 5693SOL    HW217646   3.584   2.779   7.004
 5694SOL     OW17647   2.721   3.236   5.602
 5694SOL    HW117648   2.675   3.251   5.690
 5694SOL    HW217649   2.765   3.321   5.572
 5695SOL     OW17650   2.523   3.652   6.539
 5695SOL    HW117651   2.477   3.740   6.526
 5695SOL    HW217652   2.622   3.664   6.532
 5696SOL     OW17653   2.721   2.818   6.447
 5696SOL    HW117654   2.775   2.749   6.495
 5696SOL    HW217655   2.689   2.887   6.513
 5697SOL     OW17656   2.945   2.846   5.673
 5697SOL    HW117657   2.922   2.899   5.591
 5697SOL    HW217658   3.026   2.790   5.654
 5698SOL     OW17659   3.723   3.431   6.437
 5698SOL    HW117660   3.652   3.419   6.367
 5698SOL    HW217661   3.724   3.352   6.497
 5699SOL     OW17662   2.083   3.176   7.430
 5699SOL    HW117663   2.018   3.103   7.409
 5699SOL    HW217664   2.087   3.190   7.528
 5700SOL     OW17665   1.941   3.102   6.239
 5700SOL    HW117666   1.940   3.055   6.327
 5700SOL    HW217667   2.023   3.074   6.188
 5701SOL     OW17668   2.534   3.253   7.210
 5701SOL    HW117669   2.456   3.203   7.248
 5701SOL    HW217670   2.531   3.348   7.241
 5702SOL     OW17671   3.686   2.054   6.813
 5702SOL    HW117672   3.682   1.964   6.857
 5702SOL    HW217673   3.689   2.043   6.714
 5703SOL     OW17674   3.567   3.349   6.690
 5703SOL    HW117675   3.474   3.324   6.663
 5703SOL    HW217676   3.593   3.299   6.772
 5704SOL     OW17677   2.674   3.448   6.273
 5704SOL    HW117678   2.706   3.458   6.179
 5704SOL    HW217679   2.595   3.386   6.275
 5705SOL     OW17680   3.286   2.076   6.698
 5705SOL    HW117681   3.338   2.011   6.753
 5705SOL    HW217682   3.237   2.139   6.759
 5706SOL     OW17683   2.863   1.896   6.740
 5706SOL    HW117684   2.800   1.824   6.709
 5706SOL    HW217685   2.956   1.860   6.740
 5707SOL     OW17686   2.632   3.192   5.887
 5707SOL    HW117687   2.586   3.105   5.904
 5707SOL    HW217688   2.723   3.189   5.928
 5708SOL     OW17689   2.480   3.429   6.870
 5708SOL    HW117690   2.475   3.511   6.927
 5708SOL    HW217691   2.569   3.426   6.825
 5709SOL     OW17692   3.214   1.914   5.754
 5709SOL    HW117693   3.249   1.873   5.670
 5709SOL    HW217694   3.124   1.876   5.774
 5710SOL     OW17695   3.162   2.315   6.277
 5710SOL    HW117696   3.103   2.395   6.281
 5710SOL    HW217697   3.177   2.280   6.370
 5711SOL     OW17698   3.455   2.083   6.468
 5711SOL    HW117699   3.371   2.082   6.522
 5711SOL    HW217700   3.457   2.166   6.412
 5712SOL     OW17701   1.901   2.939   5.886
 5712SOL    HW117702   2.000   2.928   5.877
 5712SOL    HW217703   1.861   2.853   5.918
 5713SOL     OW17704   2.737   3.508   5.923
 5713SOL    HW117705   2.660   3.473   5.869
 5713SOL    HW217706   2.705   3.579   5.985
 5714SOL     OW17707   1.881   2.230   8.095
 5714SOL    HW117708   1.799   2.273   8.134
 5714SOL    HW217709   1.853   2.157   8.032
 5715SOL     OW17710   2.431   3.137   8.613
 5715SOL    HW117711   2.338   3.130   8.576
 5715SOL    HW217712   2.442   3.226   8.657
 5716SOL     OW17713   3.417   3.373   8.151
 5716SOL    HW117714   3.360   3.357   8.232
 5716SOL    HW217715   3.358   3.383   8.071
 5717SOL     OW17716   2.997   2.565   8.165
 5717SOL    HW117717   3.054   2.643   8.140
 5717SOL    HW217718   2.937   2.591   8.241
 5718SOL     OW17719   3.617   2.469   7.679
 5718SOL    HW117720   3.605   2.456   7.580
 5718SOL    HW217721   3.587   2.388   7.728
 5719SOL     OW17722   2.630   3.006   8.471
 5719SOL    HW117723   2.552   3.023   8.531
 5719SOL    HW217724   2.664   3.093   8.435
 5720SOL     OW17725   2.712   2.660   9.271
 5720SOL    HW117726   2.708   2.736   9.336
 5720SOL    HW217727   2.734   2.696   9.180
 5721SOL     OW17728   2.547   2.874   8.113
 5721SOL    HW117729   2.616   2.858   8.183
 5721SOL    HW217730   2.474   2.931   8.151
 5722SOL     OW17731   2.548   3.023   9.251
 5722SOL    HW117732   2.608   3.102   9.265
 5722SOL    HW217733   2.462   3.054   9.210
 5723SOL     OW17734   2.197   3.297   8.509
 5723SOL    HW117735   2.119   3.266   8.456
 5723SOL    HW217736   2.255   3.355   8.452
 5724SOL     OW17737   3.322   3.367   8.787
 5724SOL    HW117738   3.346   3.461   8.813
 5724SOL    HW217739   3.306   3.313   8.869
 5725SOL     OW17740   2.300   2.254   8.947
 5725SOL    HW117741   2.382   2.198   8.956
 5725SOL    HW217742   2.219   2.196   8.951
 5726SOL     OW17743   3.465   2.309   8.185
 5726SOL    HW117744   3.391   2.355   8.135
 5726SOL    HW217745   3.516   2.377   8.238
 5727SOL     OW17746   2.093   3.575   7.931
 5727SOL    HW117747   2.127   3.652   7.985
 5727SOL    HW217748   2.137   3.575   7.841
 5728SOL     OW17749   2.989   3.203   9.138
 5728SOL    HW117750   3.036   3.203   9.226
 5728SOL    HW217751   2.941   3.116   9.127
 5729SOL     OW17752   2.092   3.296   7.986
 5729SOL    HW117753   2.066   3.392   7.986
 5729SOL    HW217754   2.021   3.242   8.031
 5730SOL     OW17755   2.102   2.953   8.334
 5730SOL    HW117756   2.116   2.869   8.386
 5730SOL    HW217757   2.047   3.017   8.389
 5731SOL     OW17758   2.482   3.648   8.887
 5731SOL    HW117759   2.390   3.631   8.922
 5731SOL    HW217760   2.510   3.740   8.913
 5732SOL     OW17761   2.468   2.826   7.571
 5732SOL    HW117762   2.475   2.910   7.517
 5732SOL    HW217763   2.514   2.839   7.659
 5733SOL     OW17764   3.456   1.976   8.928
 5733SOL    HW117765   3.438   2.043   8.856
 5733SOL    HW217766   3.453   2.022   9.017
 5734SOL     OW17767   1.984   2.505   8.011
 5734SOL    HW117768   1.939   2.417   8.028
 5734SOL    HW217769   1.983   2.559   8.095
 5735SOL     OW17770   3.704   3.629   7.807
 5735SOL    HW117771   3.758   3.600   7.887
 5735SOL    HW217772   3.734   3.719   7.778
 5736SOL     OW17773   1.889   3.458   7.565
 5736SOL    HW117774   1.870   3.362   7.586
 5736SOL    HW217775   1.856   3.516   7.640
 5737SOL     OW17776   3.551   2.784   8.060
 5737SOL    HW117777   3.646   2.755   8.068
 5737SOL    HW217778   3.543   2.849   7.985
 5738SOL     OW17779   3.503   2.970   7.880
 5738SOL    HW117780   3.589   2.972   7.828
 5738SOL    HW217781   3.517   3.017   7.968
 5739SOL     OW17782   1.975   2.599   9.045
 5739SOL    HW117783   2.063   2.586   9.090
 5739SOL    HW217784   1.962   2.696   9.023
 5740SOL     OW17785   2.475   3.227   8.174
 5740SOL    HW117786   2.426   3.140   8.183
 5740SOL    HW217787   2.452   3.270   8.087
 5741SOL     OW17788   3.155   3.090   8.871
 5741SOL    HW117789   3.192   3.017   8.813
 5741SOL    HW217790   3.207   3.095   8.956
 5742SOL     OW17791   2.059   2.838   8.712
 5742SOL    HW117792   2.148   2.793   8.698
 5742SOL    HW217793   1.986   2.773   8.693
 5743SOL     OW17794   3.387   2.861   7.638
 5743SOL    HW117795   3.324   2.785   7.651
 5743SOL    HW217796   3.435   2.879   7.724
 5744SOL     OW17797   3.049   3.654   9.064
 5744SOL    HW117798   3.073   3.714   8.988
 5744SOL    HW217799   3.056   3.559   9.034
 5745SOL     OW17800   2.179   2.113   9.249
 5745SOL    HW117801   2.250   2.184   9.255
 5745SOL    HW217802   2.091   2.152   9.277
 5746SOL     OW17803   3.328   3.279   8.401
 5746SOL    HW117804   3.269   3.285   8.481
 5746SOL    HW217805   3.313   3.191   8.355
 5747SOL     OW17806   3.529   3.576   8.020
 5747SOL    HW117807   3.488   3.553   7.932
 5747SOL    HW217808   3.511   3.502   8.085
 5748SOL     OW17809   3.143   2.207   8.392
 5748SOL    HW117810   3.057   2.157   8.379
 5748SOL    HW217811   3.205   2.153   8.448
 5749SOL     OW17812   3.438   3.524   7.755
 5749SOL    HW117813   3.527   3.570   7.758
 5749SOL    HW217814   3.417   3.500   7.660
 5750SOL     OW17815   2.669   2.467   8.913
 5750SOL    HW117816   2.622   2.464   9.002
 5750SOL    HW217817   2.618   2.412   8.847
 5751SOL     OW17818   3.256   2.331   9.122
 5751SOL    HW117819   3.236   2.374   9.210
 5751SOL    HW217820   3.334   2.269   9.131
 5752SOL     OW17821   2.835   2.752   9.020
 5752SOL    HW117822   2.881   2.668   8.991
 5752SOL    HW217823   2.779   2.786   8.945
 5753SOL     OW17824   2.853   2.272   8.690
 5753SOL    HW117825   2.776   2.306   8.744
 5753SOL    HW217826   2.819   2.221   8.611
 5754SOL     OW17827   2.903   2.563   7.877
 5754SOL    HW117828   2.929   2.559   7.973
 5754SOL    HW217829   2.818   2.512   7.863
 5755SOL     OW17830   1.938   2.673   8.237
 5755SOL    HW117831   2.037   2.661   8.246
 5755SOL    HW217832   1.914   2.768   8.258
 5756SOL     OW17833   1.992   3.683   9.019
 5756SOL    HW117834   1.982   3.668   9.118
 5756SOL    HW217835   1.906   3.719   8.983
 5757SOL     OW17836   3.581   2.447   9.279
 5757SOL    HW117837   3.555   2.536   9.243
 5757SOL    HW217838   3.579   2.379   9.206
 5758SOL     OW17839   3.224   3.006   7.993
 5758SOL    HW117840   3.307   2.977   7.945
 5758SOL    HW217841   3.175   3.073   7.937
 5759SOL     OW17842   2.412   2.058   8.333
 5759SOL    HW117843   2.407   2.053   8.433
 5759SOL    HW217844   2.414   2.154   8.304
 5760SOL     OW17845   2.870   3.318   7.925
 5760SOL    HW117846   2.824   3.390   7.873
 5760SOL    HW217847   2.866   3.338   8.023
 5761SOL     OW17848   2.213   3.663   8.301
 5761SOL    HW117849   2.263   3.577   8.307
 5761SOL    HW217850   2.278   3.740   8.298
 5762SOL     OW17851   3.657   2.928   8.321
 5762SOL    HW117852   3.595   2.913   8.245
 5762SOL    HW217853   3.605   2.939   8.406
 5763SOL     OW17854   3.089   3.412   8.954
 5763SOL    HW117855   3.095   3.335   9.018
 5763SOL    HW217856   3.037   3.386   8.874
 5764SOL     OW17857   3.320   2.597   8.176
 5764SOL    HW117858   3.315   2.532   8.251
 5764SOL    HW217859   3.400   2.656   8.189
 5765SOL     OW17860   2.323   3.128   9.175
 5765SOL    HW117861   2.273   3.129   9.089
 5765SOL    HW217862   2.260   3.110   9.251
 5766SOL     OW17863   2.973   3.638   7.685
 5766SOL    HW117864   2.913   3.576   7.735
 5766SOL    HW217865   3.004   3.594   7.600
 5767SOL     OW17866   3.494   3.239   7.529
 5767SOL    HW117867   3.462   3.333   7.519
 5767SOL    HW217868   3.418   3.176   7.517
 5768SOL     OW17869   2.326   3.605   7.771
 5768SOL    HW117870   2.359   3.644   7.857
 5768SOL    HW217871   2.402   3.598   7.706
 5769SOL     OW17872   3.262   1.969   7.874
 5769SOL    HW117873   3.238   1.932   7.784
 5769SOL    HW217874   3.361   1.985   7.878
 5770SOL     OW17875   2.111   3.647   8.689
 5770SOL    HW117876   2.168   3.582   8.739
 5770SOL    HW217877   2.095   3.614   8.596
 5771SOL     OW17878   2.802   3.560   8.352
 5771SOL    HW117879   2.882   3.503   8.373
 5771SOL    HW217880   2.753   3.520   8.275
 5772SOL     OW17881   2.244   2.562   7.928
 5772SOL    HW117882   2.289   2.472   7.925
 5772SOL    HW217883   2.150   2.551   7.961
 5773SOL     OW17884   3.409   2.084   9.177
 5773SOL    HW117885   3.404   2.121   9.269
 5773SOL    HW217886   3.337   2.015   9.165
 5774SOL     OW17887   2.643   2.126   9.197
 5774SOL    HW117888   2.710   2.065   9.240
 5774SOL    HW217889   2.570   2.145   9.262
 5775SOL     OW17890   2.750   3.376   8.643
 5775SOL    HW117891   2.727   3.351   8.549
 5775SOL    HW217892   2.811   3.307   8.682
 5776SOL     OW17893   3.213   2.452   8.881
 5776SOL    HW117894   3.241   2.409   8.966
 5776SOL    HW217895   3.238   2.548   8.882
 5777SOL     OW17896   2.665   3.264   8.372
 5777SOL    HW117897   2.755   3.278   8.330
 5777SOL    HW217898   2.594   3.266   8.301
 5778SOL     OW17899   2.784   2.365   8.347
 5778SOL    HW117900   2.759   2.356   8.251
 5778SOL    HW217901   2.832   2.283   8.378
 5779SOL     OW17902   3.296   3.050   7.489
 5779SOL    HW117903   3.328   2.974   7.546
 5779SOL    HW217904   3.204   3.077   7.519
 5780SOL     OW17905   2.938   2.545   8.912
 5780SOL    HW117906   2.858   2.484   8.915
 5780SOL    HW217907   3.019   2.492   8.888
 5781SOL     OW17908   3.089   3.432   8.241
 5781SOL    HW117909   3.110   3.506   8.176
 5781SOL    HW217910   3.157   3.432   8.314
 5782SOL     OW17911   2.321   3.014   8.189
 5782SOL    HW117912   2.250   2.987   8.254
 5782SOL    HW217913   2.295   2.986   8.096
 5783SOL     OW17914   3.133   3.659   8.039
 5783SOL    HW117915   3.177   3.723   7.975
 5783SOL    HW217916   3.083   3.711   8.109
 5784SOL     OW17917   2.894   2.411   7.464
 5784SOL    HW117918   2.853   2.493   7.425
 5784SOL    HW217919   2.958   2.437   7.537
 5785SOL     OW17920   1.940   2.418   8.834
 5785SOL    HW117921   2.032   2.417   8.793
 5785SOL    HW217922   1.934   2.492   8.901
 5786SOL     OW17923   2.423   2.084   8.595
 5786SOL    HW117924   2.461   2.000   8.632
 5786SOL    HW217925   2.335   2.103   8.639
 5787SOL     OW17926   2.728   2.316   8.090
 5787SOL    HW117927   2.696   2.388   8.028
 5787SOL    HW217928   2.752   2.235   8.037
 5788SOL     OW17929   2.879   1.901   8.201
 5788SOL    HW117930   2.807   1.906   8.132
 5788SOL    HW217931   2.855   1.832   8.270
 5789SOL     OW17932   3.291   3.035   8.315
 5789SOL    HW117933   3.236   2.951   8.308
 5789SOL    HW217934   3.317   3.064   8.223
 5790SOL     OW17935   3.328   2.452   8.440
 5790SOL    HW117936   3.298   2.357   8.447
 5790SOL    HW217937   3.401   2.468   8.506
 5791SOL     OW17938   3.719   2.695   7.825
 5791SOL    HW117939   3.761   2.631   7.889
 5791SOL    HW217940   3.681   2.644   7.747
 5792SOL     OW17941   2.350   3.247   7.622
 5792SOL    HW117942   2.263   3.232   7.669
 5792SOL    HW217943   2.333   3.273   7.527
 5793SOL     OW17944   3.526   3.142   8.105
 5793SOL    HW117945   3.625   3.150   8.119
 5793SOL    HW217946   3.481   3.226   8.136
 5794SOL     OW17947   3.252   2.437   7.526
 5794SOL    HW117948   3.198   2.416   7.607
 5794SOL    HW217949   3.343   2.396   7.535
 5795SOL     OW17950   3.616   3.085   9.036
 5795SOL    HW117951   3.707   3.046   9.023
 5795SOL    HW217952   3.624   3.181   9.060
 5796SOL     OW17953   2.926   3.209   8.788
 5796SOL    HW117954   2.846   3.186   8.843
 5796SOL    HW217955   3.009   3.183   8.837
 5797SOL     OW17956   3.454   3.491   9.073
 5797SOL    HW117957   3.481   3.525   8.983
 5797SOL    HW217958   3.533   3.453   9.119
 5798SOL     OW17959   2.973   3.057   8.548
 5798SOL    HW117960   2.933   3.101   8.629
 5798SOL    HW217961   2.932   3.094   8.465
 5799SOL     OW17962   3.500   2.961   8.527
 5799SOL    HW117963   3.505   3.042   8.586
 5799SOL    HW217964   3.414   2.963   8.476
 5800SOL     OW17965   2.777   1.951   8.850
 5800SOL    HW117966   2.802   1.931   8.755
 5800SOL    HW217967   2.849   2.007   8.892
 5801SOL     OW17968   2.842   2.978   9.167
 5801SOL    HW117969   2.743   2.984   9.177
 5801SOL    HW217970   2.865   2.898   9.111
 5802SOL     OW17971   2.567   2.912   7.816
 5802SOL    HW117972   2.553   2.919   7.915
 5802SOL    HW217973   2.651   2.861   7.798
 5803SOL     OW17974   2.272   2.675   8.699
 5803SOL    HW117975   2.358   2.687   8.749
 5803SOL    HW217976   2.230   2.588   8.726
 5804SOL     OW17977   3.136   2.248   8.710
 5804SOL    HW117978   3.157   2.322   8.774
 5804SOL    HW217979   3.047   2.265   8.667
 5805SOL     OW17980   1.926   3.426   8.779
 5805SOL    HW117981   1.880   3.508   8.745
 5805SOL    HW217982   2.024   3.445   8.788
 5806SOL     OW17983   2.229   2.962   7.949
 5806SOL    HW117984   2.222   3.045   7.893
 5806SOL    HW217985   2.233   2.882   7.889
 5807SOL     OW17986   2.428   2.399   8.313
 5807SOL    HW117987   2.440   2.465   8.239
 5807SOL    HW217988   2.474   2.433   8.396
 5808SOL     OW17989   3.114   3.210   7.836
 5808SOL    HW117990   3.164   3.287   7.876
 5808SOL    HW217991   3.019   3.212   7.868
 5809SOL     OW17992   3.134   3.307   8.590
 5809SOL    HW117993   3.181   3.320   8.677
 5809SOL    HW217994   3.068   3.233   8.599
 5810SOL     OW17995   3.444   2.501   7.920
 5810SOL    HW117996   3.413   2.562   7.993
 5810SOL    HW217997   3.494   2.553   7.851
 5811SOL     OW17998   2.216   3.372   8.777
 5811SOL    HW117999   2.195   3.328   8.690
 5811SOL    HW218000   2.313   3.398   8.780
 5812SOL     OW18001   2.264   2.613   9.046
 5812SOL    HW118002   2.332   2.668   8.999
 5812SOL    HW218003   2.304   2.525   9.073
 5813SOL     OW18004   3.449   2.641   9.118
 5813SOL    HW118005   3.357   2.679   9.113
 5813SOL    HW218006   3.509   2.688   9.053
 5814SOL     OW18007   2.875   1.967   9.218
 5814SOL    HW118008   2.881   2.052   9.166
 5814SOL    HW218009   2.907   1.891   9.161
 5815SOL     OW18010   2.366   1.912   9.188
 5815SOL    HW118011   2.324   1.855   9.118
 5815SOL    HW218012   2.300   1.981   9.220
 5816SOL     OW18013   2.435   2.732   8.477
 5816SOL    HW118014   2.479   2.821   8.468
 5816SOL    HW218015   2.372   2.732   8.554
 5817SOL     OW18016   3.222   2.724   8.493
 5817SOL    HW118017   3.147   2.724   8.427
 5817SOL    HW218018   3.259   2.632   8.502
 5818SOL     OW18019   3.071   2.387   7.723
 5818SOL    HW118020   3.084   2.303   7.777
 5818SOL    HW218021   3.042   2.461   7.783
 5819SOL     OW18022   2.169   2.075   8.679
 5819SOL    HW118023   2.146   2.112   8.769
 5819SOL    HW218024   2.139   1.980   8.673
 5820SOL     OW18025   1.899   3.172   8.730
 5820SOL    HW118026   1.952   3.123   8.798
 5820SOL    HW218027   1.921   3.270   8.735
 5821SOL     OW18028   2.594   2.496   8.512
 5821SOL    HW118029   2.653   2.470   8.436
 5821SOL    HW218030   2.566   2.592   8.501
 5822SOL     OW18031   3.590   2.797   9.302
 5822SOL    HW118032   3.544   2.790   9.213
 5822SOL    HW218033   3.528   2.841   9.368
 5823SOL     OW18034   3.484   2.229   7.822
 5823SOL    HW118035   3.486   2.153   7.886
 5823SOL    HW218036   3.436   2.306   7.862
 5824SOL     OW18037   2.885   2.628   8.414
 5824SOL    HW118038   2.900   2.649   8.510
 5824SOL    HW218039   2.855   2.533   8.405
 5825SOL     OW18040   2.842   3.435   9.148
 5825SOL    HW118041   2.822   3.479   9.060
 5825SOL    HW218042   2.881   3.344   9.132
 5826SOL     OW18043   3.721   3.380   9.053
 5826SOL    HW118044   3.735   3.407   8.958
 5826SOL    HW218045   3.804   3.402   9.106
 5827SOL     OW18046   2.212   2.760   9.252
 5827SOL    HW118047   2.288   2.804   9.300
 5827SOL    HW218048   2.247   2.713   9.170
 5828SOL     OW18049   3.402   2.136   7.573
 5828SOL    HW118050   3.341   2.061   7.596
 5828SOL    HW218051   3.424   2.188   7.656
 5829SOL     OW18052   3.165   2.700   7.490
 5829SOL    HW118053   3.199   2.607   7.505
 5829SOL    HW218054   3.183   2.727   7.395
 5830SOL     OW18055   2.930   3.195   8.297
 5830SOL    HW118056   2.937   3.111   8.242
 5830SOL    HW218057   2.992   3.264   8.261
 5831SOL     OW18058   2.181   2.672   8.397
 5831SOL    HW118059   2.274   2.708   8.402
 5831SOL    HW218060   2.175   2.587   8.449
 5832SOL     OW18061   2.201   2.371   8.454
 5832SOL    HW118062   2.149   2.288   8.437
 5832SOL    HW218063   2.278   2.376   8.390
 5833SOL     OW18064   3.000   2.242   9.126
 5833SOL    HW118065   2.955   2.305   9.190
 5833SOL    HW218066   3.093   2.273   9.109
 5834SOL     OW18067   3.022   2.069   8.925
 5834SOL    HW118068   3.022   2.133   9.002
 5834SOL    HW218069   3.050   2.117   8.842
 5835SOL     OW18070   1.870   3.188   7.648
 5835SOL    HW118071   1.777   3.209   7.617
 5835SOL    HW218072   1.880   3.089   7.661
 5836SOL     OW18073   1.950   3.663   8.375
 5836SOL    HW118074   1.908   3.577   8.348
 5836SOL    HW218075   2.044   3.666   8.341
 5837SOL     OW18076   2.366   3.430   8.358
 5837SOL    HW118077   2.432   3.504   8.367
 5837SOL    HW218078   2.410   3.351   8.316
 5838SOL     OW18079   2.864   2.658   8.686
 5838SOL    HW118080   2.905   2.626   8.772
 5838SOL    HW218081   2.768   2.631   8.683
 5839SOL     OW18082   1.902   2.406   8.562
 5839SOL    HW118083   1.987   2.373   8.521
 5839SOL    HW218084   1.915   2.421   8.660
 5840SOL     OW18085   2.051   2.382   9.170
 5840SOL    HW118086   2.110   2.342   9.100
 5840SOL    HW218087   1.993   2.453   9.129
 5841SOL     OW18088   3.231   2.812   9.108
 5841SOL    HW118089   3.270   2.901   9.128
 5841SOL    HW218090   3.241   2.792   9.011
 5842SOL     OW18091   2.677   2.434   7.773
 5842SOL    HW118092   2.684   2.345   7.727
 5842SOL    HW218093   2.583   2.468   7.765
 5843SOL     OW18094   3.519   2.466   8.654
 5843SOL    HW118095   3.481   2.397   8.716
 5843SOL    HW218096   3.601   2.430   8.610
 5844SOL     OW18097   2.114   3.426   9.192
 5844SOL    HW118098   2.084   3.483   9.268
 5844SOL    HW218099   2.107   3.329   9.218
 5845SOL     OW18100   2.533   2.326   8.717
 5845SOL    HW118101   2.499   2.237   8.687
 5845SOL    HW218102   2.559   2.380   8.637
 5846SOL     OW18103   2.792   3.540   8.913
 5846SOL    HW118104   2.768   3.522   8.818
 5846SOL    HW218105   2.822   3.634   8.923
 5847SOL     OW18106   2.021   2.999   8.914
 5847SOL    HW118107   2.043   2.938   8.990
 5847SOL    HW218108   2.031   2.950   8.828
 5848SOL     OW18109   3.209   2.921   8.682
 5848SOL    HW118110   3.233   2.858   8.608
 5848SOL    HW218111   3.119   2.961   8.664
 5849SOL     OW18112   3.164   2.717   7.757
 5849SOL    HW118113   3.078   2.686   7.799
 5849SOL    HW218114   3.160   2.703   7.658
 5850SOL     OW18115   3.621   3.609   8.602
 5850SOL    HW118116   3.682   3.639   8.529
 5850SOL    HW218117   3.583   3.520   8.580
 5851SOL     OW18118   3.114   3.593   8.576
 5851SOL    HW118119   3.198   3.598   8.522
 5851SOL    HW218120   3.091   3.497   8.594
 5852SOL     OW18121   1.945   3.120   8.470
 5852SOL    HW118122   1.940   3.119   8.570
 5852SOL    HW218123   1.862   3.079   8.432
 5853SOL     OW18124   2.550   3.524   9.164
 5853SOL    HW118125   2.494   3.605   9.173
 5853SOL    HW218126   2.602   3.528   9.078
 5854SOL     OW18127   3.588   1.997   7.971
 5854SOL    HW118128   3.661   1.980   7.904
 5854SOL    HW218129   3.557   1.910   8.009
 5855SOL     OW18130   3.250   3.435   7.925
 5855SOL    HW118131   3.317   3.447   7.851
 5855SOL    HW218132   3.210   3.524   7.948
 5856SOL     OW18133   1.992   3.656   9.299
 5856SOL    HW118134   1.951   3.582   9.352
 5856SOL    HW218135   2.056   3.707   9.357
 5857SOL     OW18136   3.142   2.789   8.120
 5857SOL    HW118137   3.202   2.708   8.122
 5857SOL    HW218138   3.182   2.858   8.060
 5858SOL     OW18139   2.692   3.135   8.870
 5858SOL    HW118140   2.687   3.168   8.965
 5858SOL    HW218141   2.606   3.154   8.824
 5859SOL     OW18142   2.534   3.478   7.602
 5859SOL    HW118143   2.543   3.488   7.503
 5859SOL    HW218144   2.494   3.389   7.623
 5860SOL     OW18145   3.512   3.582   8.842
 5860SOL    HW118146   3.565   3.592   8.758
 5860SOL    HW218147   3.485   3.672   8.876
 5861SOL     OW18148   3.703   2.037   8.411
 5861SOL    HW118149   3.742   1.952   8.375
 5861SOL    HW218150   3.605   2.039   8.392
 5862SOL     OW18151   3.056   3.474   7.479
 5862SOL    HW118152   3.062   3.381   7.516
 5862SOL    HW218153   2.997   3.474   7.399
 5863SOL     OW18154   2.684   2.864   8.820
 5863SOL    HW118155   2.724   2.863   8.728
 5863SOL    HW218156   2.694   2.956   8.860
 5864SOL     OW18157   2.778   2.772   7.739
 5864SOL    HW118158   2.841   2.810   7.671
 5864SOL    HW218159   2.818   2.689   7.778
 5865SOL     OW18160   3.366   3.469   7.492
 5865SOL    HW118161   3.274   3.506   7.499
 5865SOL    HW218162   3.404   3.489   7.402
 5866SOL     OW18163   2.234   3.150   8.938
 5866SOL    HW118164   2.221   3.243   8.904
 5866SOL    HW218165   2.150   3.098   8.925
 5867SOL     OW18166   3.476   3.154   8.737
 5867SOL    HW118167   3.536   3.157   8.817
 5867SOL    HW218168   3.401   3.218   8.750
 5868SOL     OW18169   2.901   2.960   8.144
 5868SOL    HW118170   2.831   2.913   8.198
 5868SOL    HW218171   2.960   2.892   8.101
 5869SOL     OW18172   2.876   2.098   8.419
 5869SOL    HW118173   2.868   2.062   8.326
 5869SOL    HW218174   2.874   2.022   8.484
 5870SOL     OW18175   2.452   3.349   7.939
 5870SOL    HW118176   2.494   3.291   7.869
 5870SOL    HW218177   2.408   3.428   7.895
 5871SOL     OW18178   3.571   2.247   8.829
 5871SOL    HW118179   3.644   2.316   8.833
 5871SOL    HW218180   3.599   2.172   8.770
 5872SOL     OW18181   2.117   3.210   7.738
 5872SOL    HW118182   2.021   3.211   7.711
 5872SOL    HW218183   2.129   3.263   7.822
 5873SOL     OW18184   1.967   2.875   9.174
 5873SOL    HW118185   1.890   2.842   9.228
 5873SOL    HW218186   2.052   2.845   9.216
 5874SOL     OW18187   2.534   2.065   8.937
 5874SOL    HW118188   2.624   2.049   8.897
 5874SOL    HW218189   2.542   2.070   9.036
 5875SOL     OW18190   3.302   2.718   8.846
 5875SOL    HW118191   3.245   2.770   8.783
 5875SOL    HW218192   3.398   2.730   8.822
 5876SOL     OW18193   3.045   3.197   7.567
 5876SOL    HW118194   2.946   3.186   7.569
 5876SOL    HW218195   3.079   3.212   7.660
 5877SOL     OW18196   2.475   2.704   8.879
 5877SOL    HW118197   2.531   2.785   8.862
 5877SOL    HW218198   2.534   2.624   8.882
 5878SOL     OW18199   3.355   3.629   8.407
 5878SOL    HW118200   3.388   3.693   8.338
 5878SOL    HW218201   3.421   3.623   8.482
 5879SOL     OW18202   2.578   2.427   9.156
 5879SOL    HW118203   2.597   2.492   9.230
 5879SOL    HW218204   2.638   2.347   9.165
 5880SOL     OW18205   3.312   3.082   9.081
 5880SOL    HW118206   3.303   3.072   9.180
 5880SOL    HW218207   3.408   3.075   9.055
 5881SOL     OW18208   2.252   3.603   9.008
 5881SOL    HW118209   2.161   3.644   9.006
 5881SOL    HW218210   2.245   3.509   9.040
 5882SOL     OW18211   3.536   2.745   8.702
 5882SOL    HW118212   3.509   2.656   8.665
 5882SOL    HW218213   3.537   2.813   8.629
 5883SOL     OW18214   3.087   2.187   7.897
 5883SOL    HW118215   3.152   2.113   7.886
 5883SOL    HW218216   3.107   2.237   7.981
 5884SOL     OW18217   2.456   2.607   8.100
 5884SOL    HW118218   2.506   2.692   8.081
 5884SOL    HW218219   2.368   2.609   8.052
 5885SOL     OW18220   3.639   2.204   9.090
 5885SOL    HW118221   3.622   2.235   8.996
 5885SOL    HW218222   3.555   2.167   9.128
 5886SOL     OW18223   3.592   2.796   8.965
 5886SOL    HW118224   3.630   2.887   8.980
 5886SOL    HW218225   3.584   2.779   8.866
 5887SOL     OW18226   2.721   3.236   7.464
 5887SOL    HW118227   2.675   3.251   7.552
 5887SOL    HW218228   2.765   3.321   7.434
 5888SOL     OW18229   2.523   3.652   8.401
 5888SOL    HW118230   2.477   3.740   8.388
 5888SOL    HW218231   2.622   3.664   8.394
 5889SOL     OW18232   2.721   2.818   8.309
 5889SOL    HW118233   2.775   2.749   8.357
 5889SOL    HW218234   2.689   2.887   8.375
 5890SOL     OW18235   2.945   2.846   7.535
 5890SOL    HW118236   2.922   2.899   7.453
 5890SOL    HW218237   3.026   2.790   7.516
 5891SOL     OW18238   3.723   3.431   8.299
 5891SOL    HW118239   3.652   3.419   8.229
 5891SOL    HW218240   3.724   3.352   8.359
 5892SOL     OW18241   2.083   3.176   9.292
 5892SOL    HW118242   2.018   3.103   9.271
 5892SOL    HW218243   2.087   3.190   9.390
 5893SOL     OW18244   1.941   3.102   8.101
 5893SOL    HW118245   1.940   3.055   8.189
 5893SOL    HW218246   2.023   3.074   8.050
 5894SOL     OW18247   2.534   3.253   9.072
 5894SOL    HW118248   2.456   3.203   9.110
 5894SOL    HW218249   2.531   3.348   9.103
 5895SOL     OW18250   3.686   2.054   8.675
 5895SOL    HW118251   3.682   1.964   8.719
 5895SOL    HW218252   3.689   2.043   8.576
 5896SOL     OW18253   2.290   2.286   7.968
 5896SOL    HW118254   2.320   2.214   7.906
 5896SOL    HW218255   2.251   2.246   8.051
 5897SOL     OW18256   3.567   3.349   8.552
 5897SOL    HW118257   3.474   3.324   8.525
 5897SOL    HW218258   3.593   3.299   8.634
 5898SOL     OW18259   2.179   2.409   8.728
 5898SOL    HW118260   2.217   2.350   8.800
 5898SOL    HW218261   2.219   2.383   8.640
 5899SOL     OW18262   2.674   3.448   8.135
 5899SOL    HW118263   2.706   3.458   8.041
 5899SOL    HW218264   2.595   3.386   8.137
 5900SOL     OW18265   3.286   2.076   8.560
 5900SOL    HW118266   3.338   2.011   8.615
 5900SOL    HW218267   3.237   2.139   8.621
 5901SOL     OW18268   2.863   1.896   8.602
 5901SOL    HW118269   2.800   1.824   8.571
 5901SOL    HW218270   2.956   1.860   8.602
 5902SOL     OW18271   2.632   3.192   7.749
 5902SOL    HW118272   2.586   3.105   7.766
 5902SOL    HW218273   2.723   3.189   7.790
 5903SOL     OW18274   2.480   3.429   8.732
 5903SOL    HW118275   2.475   3.511   8.789
 5903SOL    HW218276   2.569   3.426   8.687
 5904SOL     OW18277   3.214   1.914   7.616
 5904SOL    HW118278   3.249   1.873   7.532
 5904SOL    HW218279   3.124   1.876   7.636
 5905SOL     OW18280   3.162   2.315   8.139
 5905SOL    HW118281   3.103   2.395   8.143
 5905SOL    HW218282   3.177   2.280   8.232
 5906SOL     OW18283   3.455   2.083   8.330
 5906SOL    HW118284   3.371   2.082   8.384
 5906SOL    HW218285   3.457   2.166   8.274
 5907SOL     OW18286   1.901   2.939   7.748
 5907SOL    HW118287   2.000   2.928   7.739
 5907SOL    HW218288   1.861   2.853   7.780
 5908SOL     OW18289   2.737   3.508   7.785
 5908SOL    HW118290   2.660   3.473   7.731
 5908SOL    HW218291   2.705   3.579   7.847
 5909SOL     OW18292   2.092   2.490   9.423
 5909SOL    HW118293   1.999   2.488   9.460
 5909SOL    HW218294   2.093   2.451   9.331
 5910SOL     OW18295   1.881   2.230   9.957
 5910SOL    HW118296   1.799   2.273   9.996
 5910SOL    HW218297   1.853   2.157   9.894
 5911SOL     OW18298   2.431   3.137  10.475
 5911SOL    HW118299   2.338   3.130  10.438
 5911SOL    HW218300   2.442   3.226  10.519
 5912SOL     OW18301   3.417   3.373  10.013
 5912SOL    HW118302   3.360   3.357  10.094
 5912SOL    HW218303   3.358   3.383   9.933
 5913SOL     OW18304   2.997   2.565  10.027
 5913SOL    HW118305   3.054   2.643  10.002
 5913SOL    HW218306   2.937   2.591  10.103
 5914SOL     OW18307   3.617   2.469   9.541
 5914SOL    HW118308   3.605   2.456   9.442
 5914SOL    HW218309   3.587   2.388   9.590
 5915SOL     OW18310   2.630   3.006  10.333
 5915SOL    HW118311   2.552   3.023  10.393
 5915SOL    HW218312   2.664   3.093  10.297
 5916SOL     OW18313   2.712   2.660  11.133
 5916SOL    HW118314   2.708   2.736  11.198
 5916SOL    HW218315   2.734   2.696  11.042
 5917SOL     OW18316   2.547   2.874   9.975
 5917SOL    HW118317   2.616   2.858  10.045
 5917SOL    HW218318   2.474   2.931  10.013
 5918SOL     OW18319   2.548   3.023  11.113
 5918SOL    HW118320   2.608   3.102  11.127
 5918SOL    HW218321   2.462   3.054  11.072
 5919SOL     OW18322   2.197   3.297  10.371
 5919SOL    HW118323   2.119   3.266  10.318
 5919SOL    HW218324   2.255   3.355  10.314
 5920SOL     OW18325   3.322   3.367  10.649
 5920SOL    HW118326   3.346   3.461  10.675
 5920SOL    HW218327   3.306   3.313  10.731
 5921SOL     OW18328   2.300   2.254  10.809
 5921SOL    HW118329   2.382   2.198  10.818
 5921SOL    HW218330   2.219   2.196  10.813
 5922SOL     OW18331   3.465   2.309  10.047
 5922SOL    HW118332   3.391   2.355   9.997
 5922SOL    HW218333   3.516   2.377  10.100
 5923SOL     OW18334   2.093   3.575   9.793
 5923SOL    HW118335   2.127   3.652   9.847
 5923SOL    HW218336   2.137   3.575   9.703
 5924SOL     OW18337   2.989   3.203  11.000
 5924SOL    HW118338   3.036   3.203  11.088
 5924SOL    HW218339   2.941   3.116  10.989
 5925SOL     OW18340   2.092   3.296   9.848
 5925SOL    HW118341   2.066   3.392   9.848
 5925SOL    HW218342   2.021   3.242   9.893
 5926SOL     OW18343   2.102   2.953  10.196
 5926SOL    HW118344   2.116   2.869  10.248
 5926SOL    HW218345   2.047   3.017  10.251
 5927SOL     OW18346   2.482   3.648  10.749
 5927SOL    HW118347   2.390   3.631  10.784
 5927SOL    HW218348   2.510   3.740  10.775
 5928SOL     OW18349   2.468   2.826   9.433
 5928SOL    HW118350   2.475   2.910   9.379
 5928SOL    HW218351   2.514   2.839   9.521
 5929SOL     OW18352   3.456   1.976  10.790
 5929SOL    HW118353   3.438   2.043  10.718
 5929SOL    HW218354   3.453   2.022  10.879
 5930SOL     OW18355   1.984   2.505   9.873
 5930SOL    HW118356   1.939   2.417   9.890
 5930SOL    HW218357   1.983   2.559   9.957
 5931SOL     OW18358   3.704   3.629   9.669
 5931SOL    HW118359   3.758   3.600   9.749
 5931SOL    HW218360   3.734   3.719   9.640
 5932SOL     OW18361   1.889   3.458   9.427
 5932SOL    HW118362   1.870   3.362   9.448
 5932SOL    HW218363   1.856   3.516   9.502
 5933SOL     OW18364   3.551   2.784   9.922
 5933SOL    HW118365   3.646   2.755   9.930
 5933SOL    HW218366   3.543   2.849   9.847
 5934SOL     OW18367   3.503   2.970   9.742
 5934SOL    HW118368   3.589   2.972   9.690
 5934SOL    HW218369   3.517   3.017   9.830
 5935SOL     OW18370   1.975   2.599  10.907
 5935SOL    HW118371   2.063   2.586  10.952
 5935SOL    HW218372   1.962   2.696  10.885
 5936SOL     OW18373   2.475   3.227  10.036
 5936SOL    HW118374   2.426   3.140  10.045
 5936SOL    HW218375   2.452   3.270   9.949
 5937SOL     OW18376   3.155   3.090  10.733
 5937SOL    HW118377   3.192   3.017  10.675
 5937SOL    HW218378   3.207   3.095  10.818
 5938SOL     OW18379   2.671   1.866   9.812
 5938SOL    HW118380   2.711   1.957   9.803
 5938SOL    HW218381   2.571   1.874   9.818
 5939SOL     OW18382   2.059   2.838  10.574
 5939SOL    HW118383   2.148   2.793  10.560
 5939SOL    HW218384   1.986   2.773  10.555
 5940SOL     OW18385   3.387   2.861   9.500
 5940SOL    HW118386   3.324   2.785   9.513
 5940SOL    HW218387   3.435   2.879   9.586
 5941SOL     OW18388   3.049   3.654  10.926
 5941SOL    HW118389   3.073   3.714  10.850
 5941SOL    HW218390   3.056   3.559  10.896
 5942SOL     OW18391   2.179   2.113  11.111
 5942SOL    HW118392   2.250   2.184  11.117
 5942SOL    HW218393   2.091   2.152  11.139
 5943SOL     OW18394   3.328   3.279  10.263
 5943SOL    HW118395   3.269   3.285  10.343
 5943SOL    HW218396   3.313   3.191  10.217
 5944SOL     OW18397   3.529   3.576   9.882
 5944SOL    HW118398   3.488   3.553   9.794
 5944SOL    HW218399   3.511   3.502   9.947
 5945SOL     OW18400   2.460   2.591   9.580
 5945SOL    HW118401   2.484   2.660   9.512
 5945SOL    HW218402   2.382   2.624   9.634
 5946SOL     OW18403   3.143   2.207  10.254
 5946SOL    HW118404   3.057   2.157  10.241
 5946SOL    HW218405   3.205   2.153  10.310
 5947SOL     OW18406   3.438   3.524   9.617
 5947SOL    HW118407   3.527   3.570   9.620
 5947SOL    HW218408   3.417   3.500   9.522
 5948SOL     OW18409   2.669   2.467  10.775
 5948SOL    HW118410   2.622   2.464  10.864
 5948SOL    HW218411   2.618   2.412  10.709
 5949SOL     OW18412   3.256   2.331  10.984
 5949SOL    HW118413   3.236   2.374  11.072
 5949SOL    HW218414   3.334   2.269  10.993
 5950SOL     OW18415   2.835   2.752  10.882
 5950SOL    HW118416   2.881   2.668  10.853
 5950SOL    HW218417   2.779   2.786  10.807
 5951SOL     OW18418   2.853   2.272  10.552
 5951SOL    HW118419   2.776   2.306  10.606
 5951SOL    HW218420   2.819   2.221  10.473
 5952SOL     OW18421   2.903   2.563   9.739
 5952SOL    HW118422   2.929   2.559   9.835
 5952SOL    HW218423   2.818   2.512   9.725
 5953SOL     OW18424   1.938   2.673  10.099
 5953SOL    HW118425   2.037   2.661  10.108
 5953SOL    HW218426   1.914   2.768  10.120
 5954SOL     OW18427   1.992   3.683  10.881
 5954SOL    HW118428   1.982   3.668  10.980
 5954SOL    HW218429   1.906   3.719  10.845
 5955SOL     OW18430   2.727   2.210   9.505
 5955SOL    HW118431   2.786   2.273   9.456
 5955SOL    HW218432   2.746   2.116   9.476
 5956SOL     OW18433   3.581   2.447  11.141
 5956SOL    HW118434   3.555   2.536  11.105
 5956SOL    HW218435   3.579   2.379  11.068
 5957SOL     OW18436   3.224   3.006   9.855
 5957SOL    HW118437   3.307   2.977   9.807
 5957SOL    HW218438   3.175   3.073   9.799
 5958SOL     OW18439   2.412   2.058  10.195
 5958SOL    HW118440   2.407   2.053  10.295
 5958SOL    HW218441   2.414   2.154  10.166
 5959SOL     OW18442   2.870   3.318   9.787
 5959SOL    HW118443   2.824   3.390   9.735
 5959SOL    HW218444   2.866   3.338   9.885
 5960SOL     OW18445   2.213   3.663  10.163
 5960SOL    HW118446   2.263   3.577  10.169
 5960SOL    HW218447   2.278   3.740  10.160
 5961SOL     OW18448   3.657   2.928  10.183
 5961SOL    HW118449   3.595   2.913  10.107
 5961SOL    HW218450   3.605   2.939  10.268
 5962SOL     OW18451   3.089   3.412  10.816
 5962SOL    HW118452   3.095   3.335  10.880
 5962SOL    HW218453   3.037   3.386  10.736
 5963SOL     OW18454   2.183   2.805   9.552
 5963SOL    HW118455   2.265   2.844   9.510
 5963SOL    HW218456   2.156   2.723   9.503
 5964SOL     OW18457   3.320   2.597  10.038
 5964SOL    HW118458   3.315   2.532  10.113
 5964SOL    HW218459   3.400   2.656  10.051
 5965SOL     OW18460   2.323   3.128  11.037
 5965SOL    HW118461   2.273   3.129  10.951
 5965SOL    HW218462   2.260   3.110  11.113
 5966SOL     OW18463   2.973   3.638   9.547
 5966SOL    HW118464   2.913   3.576   9.597
 5966SOL    HW218465   3.004   3.594   9.462
 5967SOL     OW18466   3.494   3.239   9.391
 5967SOL    HW118467   3.462   3.333   9.381
 5967SOL    HW218468   3.418   3.176   9.379
 5968SOL     OW18469   2.326   3.605   9.633
 5968SOL    HW118470   2.359   3.644   9.719
 5968SOL    HW218471   2.402   3.598   9.568
 5969SOL     OW18472   3.262   1.969   9.736
 5969SOL    HW118473   3.238   1.932   9.646
 5969SOL    HW218474   3.361   1.985   9.740
 5970SOL     OW18475   2.111   3.647  10.551
 5970SOL    HW118476   2.168   3.582  10.601
 5970SOL    HW218477   2.095   3.614  10.458
 5971SOL     OW18478   2.802   3.560  10.214
 5971SOL    HW118479   2.882   3.503  10.235
 5971SOL    HW218480   2.753   3.520  10.137
 5972SOL     OW18481   2.244   2.562   9.790
 5972SOL    HW118482   2.289   2.472   9.787
 5972SOL    HW218483   2.150   2.551   9.823
 5973SOL     OW18484   3.409   2.084  11.039
 5973SOL    HW118485   3.404   2.121  11.131
 5973SOL    HW218486   3.337   2.015  11.027
 5974SOL     OW18487   2.476   1.984   9.427
 5974SOL    HW118488   2.574   1.962   9.434
 5974SOL    HW218489   2.445   1.967   9.334
 5975SOL     OW18490   2.643   2.126  11.059
 5975SOL    HW118491   2.710   2.065  11.102
 5975SOL    HW218492   2.570   2.145  11.124
 5976SOL     OW18493   2.750   3.376  10.505
 5976SOL    HW118494   2.727   3.351  10.411
 5976SOL    HW218495   2.811   3.307  10.544
 5977SOL     OW18496   3.213   2.452  10.743
 5977SOL    HW118497   3.241   2.409  10.828
 5977SOL    HW218498   3.238   2.548  10.744
 5978SOL     OW18499   2.665   3.264  10.234
 5978SOL    HW118500   2.755   3.278  10.192
 5978SOL    HW218501   2.594   3.266  10.163
 5979SOL     OW18502   2.784   2.365  10.209
 5979SOL    HW118503   2.759   2.356  10.113
 5979SOL    HW218504   2.832   2.283  10.240
 5980SOL     OW18505   2.401   1.926   9.822
 5980SOL    HW118506   2.320   1.927   9.880
 5980SOL    HW218507   2.404   2.009   9.767
 5981SOL     OW18508   3.296   3.050   9.351
 5981SOL    HW118509   3.328   2.974   9.408
 5981SOL    HW218510   3.204   3.077   9.381
 5982SOL     OW18511   2.797   2.098   9.790
 5982SOL    HW118512   2.749   2.139   9.712
 5982SOL    HW218513   2.896   2.096   9.771
 5983SOL     OW18514   2.938   2.545  10.774
 5983SOL    HW118515   2.858   2.484  10.777
 5983SOL    HW218516   3.019   2.492  10.750
 5984SOL     OW18517   3.089   3.432  10.103
 5984SOL    HW118518   3.110   3.506  10.038
 5984SOL    HW218519   3.157   3.432  10.176
 5985SOL     OW18520   2.321   3.014  10.051
 5985SOL    HW118521   2.250   2.987  10.116
 5985SOL    HW218522   2.295   2.986   9.958
 5986SOL     OW18523   3.133   3.659   9.901
 5986SOL    HW118524   3.177   3.723   9.837
 5986SOL    HW218525   3.083   3.711   9.971
 5987SOL     OW18526   2.894   2.411   9.326
 5987SOL    HW118527   2.853   2.493   9.287
 5987SOL    HW218528   2.958   2.437   9.399
 5988SOL     OW18529   1.940   2.418  10.696
 5988SOL    HW118530   2.032   2.417  10.655
 5988SOL    HW218531   1.934   2.492  10.763
 5989SOL     OW18532   2.423   2.084  10.457
 5989SOL    HW118533   2.461   2.000  10.494
 5989SOL    HW218534   2.335   2.103  10.501
 5990SOL     OW18535   2.728   2.316   9.952
 5990SOL    HW118536   2.696   2.388   9.890
 5990SOL    HW218537   2.752   2.235   9.899
 5991SOL     OW18538   2.879   1.901  10.063
 5991SOL    HW118539   2.807   1.906   9.994
 5991SOL    HW218540   2.855   1.832  10.132
 5992SOL     OW18541   3.291   3.035  10.177
 5992SOL    HW118542   3.236   2.951  10.170
 5992SOL    HW218543   3.317   3.064  10.085
 5993SOL     OW18544   3.328   2.452  10.302
 5993SOL    HW118545   3.298   2.357  10.309
 5993SOL    HW218546   3.401   2.468  10.368
 5994SOL     OW18547   3.719   2.695   9.687
 5994SOL    HW118548   3.761   2.631   9.751
 5994SOL    HW218549   3.681   2.644   9.609
 5995SOL     OW18550   2.350   3.247   9.484
 5995SOL    HW118551   2.263   3.232   9.531
 5995SOL    HW218552   2.333   3.273   9.389
 5996SOL     OW18553   3.526   3.142   9.967
 5996SOL    HW118554   3.625   3.150   9.981
 5996SOL    HW218555   3.481   3.226   9.998
 5997SOL     OW18556   3.252   2.437   9.388
 5997SOL    HW118557   3.198   2.416   9.469
 5997SOL    HW218558   3.343   2.396   9.397
 5998SOL     OW18559   2.389   2.118   9.638
 5998SOL    HW118560   2.416   2.059   9.563
 5998SOL    HW218561   2.389   2.213   9.607
 5999SOL     OW18562   3.616   3.085  10.898
 5999SOL    HW118563   3.707   3.046  10.885
 5999SOL    HW218564   3.624   3.181  10.922
 6000SOL     OW18565   2.926   3.209  10.650
 6000SOL    HW118566   2.846   3.186  10.705
 6000SOL    HW218567   3.009   3.183  10.699
 6001SOL     OW18568   3.454   3.491  10.935
 6001SOL    HW118569   3.481   3.525  10.845
 6001SOL    HW218570   3.533   3.453  10.981
 6002SOL     OW18571   2.973   3.057  10.410
 6002SOL    HW118572   2.933   3.101  10.491
 6002SOL    HW218573   2.932   3.094  10.327
 6003SOL     OW18574   3.500   2.961  10.389
 6003SOL    HW118575   3.505   3.042  10.448
 6003SOL    HW218576   3.414   2.963  10.338
 6004SOL     OW18577   2.777   1.951  10.712
 6004SOL    HW118578   2.802   1.931  10.617
 6004SOL    HW218579   2.849   2.007  10.754
 6005SOL     OW18580   2.842   2.978  11.029
 6005SOL    HW118581   2.743   2.984  11.039
 6005SOL    HW218582   2.865   2.898  10.973
 6006SOL     OW18583   2.567   2.912   9.678
 6006SOL    HW118584   2.553   2.919   9.777
 6006SOL    HW218585   2.651   2.861   9.660
 6007SOL     OW18586   2.272   2.675  10.561
 6007SOL    HW118587   2.358   2.687  10.611
 6007SOL    HW218588   2.230   2.588  10.588
 6008SOL     OW18589   3.136   2.248  10.572
 6008SOL    HW118590   3.157   2.322  10.636
 6008SOL    HW218591   3.047   2.265  10.529
 6009SOL     OW18592   1.926   3.426  10.641
 6009SOL    HW118593   1.880   3.508  10.607
 6009SOL    HW218594   2.024   3.445  10.650
 6010SOL     OW18595   2.229   2.962   9.811
 6010SOL    HW118596   2.222   3.045   9.755
 6010SOL    HW218597   2.233   2.882   9.751
 6011SOL     OW18598   2.428   2.399  10.175
 6011SOL    HW118599   2.440   2.465  10.101
 6011SOL    HW218600   2.474   2.433  10.258
 6012SOL     OW18601   3.114   3.210   9.698
 6012SOL    HW118602   3.164   3.287   9.738
 6012SOL    HW218603   3.019   3.212   9.730
 6013SOL     OW18604   3.134   3.307  10.452
 6013SOL    HW118605   3.181   3.320  10.539
 6013SOL    HW218606   3.068   3.233  10.461
 6014SOL     OW18607   3.444   2.501   9.782
 6014SOL    HW118608   3.413   2.562   9.855
 6014SOL    HW218609   3.494   2.553   9.713
 6015SOL     OW18610   2.216   3.372  10.639
 6015SOL    HW118611   2.195   3.328  10.552
 6015SOL    HW218612   2.313   3.398  10.642
 6016SOL     OW18613   2.264   2.613  10.908
 6016SOL    HW118614   2.332   2.668  10.861
 6016SOL    HW218615   2.304   2.525  10.935
 6017SOL     OW18616   3.449   2.641  10.980
 6017SOL    HW118617   3.357   2.679  10.975
 6017SOL    HW218618   3.509   2.688  10.915
 6018SOL     OW18619   2.875   1.967  11.080
 6018SOL    HW118620   2.881   2.052  11.028
 6018SOL    HW218621   2.907   1.891  11.023
 6019SOL     OW18622   2.366   1.912  11.050
 6019SOL    HW118623   2.324   1.855  10.980
 6019SOL    HW218624   2.300   1.981  11.082
 6020SOL     OW18625   2.435   2.732  10.339
 6020SOL    HW118626   2.479   2.821  10.330
 6020SOL    HW218627   2.372   2.732  10.416
 6021SOL     OW18628   3.222   2.724  10.355
 6021SOL    HW118629   3.147   2.724  10.289
 6021SOL    HW218630   3.259   2.632  10.364
 6022SOL     OW18631   3.071   2.387   9.585
 6022SOL    HW118632   3.084   2.303   9.639
 6022SOL    HW218633   3.042   2.461   9.645
 6023SOL     OW18634   1.899   3.172  10.592
 6023SOL    HW118635   1.952   3.123  10.660
 6023SOL    HW218636   1.921   3.270  10.597
 6024SOL     OW18637   2.594   2.496  10.374
 6024SOL    HW118638   2.653   2.470  10.298
 6024SOL    HW218639   2.566   2.592  10.363
 6025SOL     OW18640   3.590   2.797  11.164
 6025SOL    HW118641   3.544   2.790  11.075
 6025SOL    HW218642   3.528   2.841  11.230
 6026SOL     OW18643   3.484   2.229   9.684
 6026SOL    HW118644   3.486   2.153   9.748
 6026SOL    HW218645   3.436   2.306   9.724
 6027SOL     OW18646   2.885   2.628  10.276
 6027SOL    HW118647   2.900   2.649  10.372
 6027SOL    HW218648   2.855   2.533  10.267
 6028SOL     OW18649   2.842   3.435  11.010
 6028SOL    HW118650   2.822   3.479  10.922
 6028SOL    HW218651   2.881   3.344  10.994
 6029SOL     OW18652   3.721   3.380  10.915
 6029SOL    HW118653   3.735   3.407  10.820
 6029SOL    HW218654   3.804   3.402  10.968
 6030SOL     OW18655   2.212   2.760  11.114
 6030SOL    HW118656   2.288   2.804  11.162
 6030SOL    HW218657   2.247   2.713  11.032
 6031SOL     OW18658   3.402   2.136   9.435
 6031SOL    HW118659   3.341   2.061   9.458
 6031SOL    HW218660   3.424   2.188   9.518
 6032SOL     OW18661   3.165   2.700   9.352
 6032SOL    HW118662   3.199   2.607   9.367
 6032SOL    HW218663   3.183   2.727   9.257
 6033SOL     OW18664   2.930   3.195  10.159
 6033SOL    HW118665   2.937   3.111  10.104
 6033SOL    HW218666   2.992   3.264  10.123
 6034SOL     OW18667   2.181   2.672  10.259
 6034SOL    HW118668   2.274   2.708  10.264
 6034SOL    HW218669   2.175   2.587  10.311
 6035SOL     OW18670   2.201   2.371  10.316
 6035SOL    HW118671   2.149   2.288  10.299
 6035SOL    HW218672   2.278   2.376  10.252
 6036SOL     OW18673   3.000   2.242  10.988
 6036SOL    HW118674   2.955   2.305  11.052
 6036SOL    HW218675   3.093   2.273  10.971
 6037SOL     OW18676   3.022   2.069  10.787
 6037SOL    HW118677   3.022   2.133  10.864
 6037SOL    HW218678   3.050   2.117  10.704
 6038SOL     OW18679   1.870   3.188   9.510
 6038SOL    HW118680   1.777   3.209   9.479
 6038SOL    HW218681   1.880   3.089   9.523
 6039SOL     OW18682   1.950   3.663  10.237
 6039SOL    HW118683   1.908   3.577  10.210
 6039SOL    HW218684   2.044   3.666  10.203
 6040SOL     OW18685   2.366   3.430  10.220
 6040SOL    HW118686   2.432   3.504  10.229
 6040SOL    HW218687   2.410   3.351  10.178
 6041SOL     OW18688   2.864   2.658  10.548
 6041SOL    HW118689   2.905   2.626  10.634
 6041SOL    HW218690   2.768   2.631  10.545
 6042SOL     OW18691   1.902   2.406  10.424
 6042SOL    HW118692   1.987   2.373  10.383
 6042SOL    HW218693   1.915   2.421  10.522
 6043SOL     OW18694   2.051   2.382  11.032
 6043SOL    HW118695   2.110   2.342  10.962
 6043SOL    HW218696   1.993   2.453  10.991
 6044SOL     OW18697   3.231   2.812  10.970
 6044SOL    HW118698   3.270   2.901  10.990
 6044SOL    HW218699   3.241   2.792  10.873
 6045SOL     OW18700   2.677   2.434   9.635
 6045SOL    HW118701   2.684   2.345   9.589
 6045SOL    HW218702   2.583   2.468   9.627
 6046SOL     OW18703   3.519   2.466  10.516
 6046SOL    HW118704   3.481   2.397  10.578
 6046SOL    HW218705   3.601   2.430  10.472
 6047SOL     OW18706   2.114   3.426  11.054
 6047SOL    HW118707   2.084   3.483  11.130
 6047SOL    HW218708   2.107   3.329  11.080
 6048SOL     OW18709   2.533   2.326  10.579
 6048SOL    HW118710   2.499   2.237  10.549
 6048SOL    HW218711   2.559   2.380  10.499
 6049SOL     OW18712   2.792   3.540  10.775
 6049SOL    HW118713   2.768   3.522  10.680
 6049SOL    HW218714   2.822   3.634  10.785
 6050SOL     OW18715   2.335   2.362   9.501
 6050SOL    HW118716   2.396   2.442   9.505
 6050SOL    HW218717   2.240   2.393   9.508
 6051SOL     OW18718   2.021   2.999  10.776
 6051SOL    HW118719   2.043   2.938  10.852
 6051SOL    HW218720   2.031   2.950  10.690
 6052SOL     OW18721   3.209   2.921  10.544
 6052SOL    HW118722   3.233   2.858  10.470
 6052SOL    HW218723   3.119   2.961  10.526
 6053SOL     OW18724   3.164   2.717   9.619
 6053SOL    HW118725   3.078   2.686   9.661
 6053SOL    HW218726   3.160   2.703   9.520
 6054SOL     OW18727   3.621   3.609  10.464
 6054SOL    HW118728   3.682   3.639  10.391
 6054SOL    HW218729   3.583   3.520  10.442
 6055SOL     OW18730   3.114   3.593  10.438
 6055SOL    HW118731   3.198   3.598  10.384
 6055SOL    HW218732   3.091   3.497  10.456
 6056SOL     OW18733   1.945   3.120  10.332
 6056SOL    HW118734   1.940   3.119  10.432
 6056SOL    HW218735   1.862   3.079  10.294
 6057SOL     OW18736   2.550   3.524  11.026
 6057SOL    HW118737   2.494   3.605  11.035
 6057SOL    HW218738   2.602   3.528  10.940
 6058SOL     OW18739   3.588   1.997   9.833
 6058SOL    HW118740   3.661   1.980   9.766
 6058SOL    HW218741   3.557   1.910   9.871
 6059SOL     OW18742   3.250   3.435   9.787
 6059SOL    HW118743   3.317   3.447   9.713
 6059SOL    HW218744   3.210   3.524   9.810
 6060SOL     OW18745   1.992   3.656  11.161
 6060SOL    HW118746   1.951   3.582  11.214
 6060SOL    HW218747   2.056   3.707  11.219
 6061SOL     OW18748   3.142   2.789   9.982
 6061SOL    HW118749   3.202   2.708   9.984
 6061SOL    HW218750   3.182   2.858   9.922
 6062SOL     OW18751   2.692   3.135  10.732
 6062SOL    HW118752   2.687   3.168  10.827
 6062SOL    HW218753   2.606   3.154  10.686
 6063SOL     OW18754   2.534   3.478   9.464
 6063SOL    HW118755   2.543   3.488   9.365
 6063SOL    HW218756   2.494   3.389   9.485
 6064SOL     OW18757   3.512   3.582  10.704
 6064SOL    HW118758   3.565   3.592  10.620
 6064SOL    HW218759   3.485   3.672  10.738
 6065SOL     OW18760   3.703   2.037  10.273
 6065SOL    HW118761   3.742   1.952  10.237
 6065SOL    HW218762   3.605   2.039  10.254
 6066SOL     OW18763   3.056   3.474   9.341
 6066SOL    HW118764   3.062   3.381   9.378
 6066SOL    HW218765   2.997   3.474   9.261
 6067SOL     OW18766   2.684   2.864  10.682
 6067SOL    HW118767   2.724   2.863  10.590
 6067SOL    HW218768   2.694   2.956  10.722
 6068SOL     OW18769   2.778   2.772   9.601
 6068SOL    HW118770   2.841   2.810   9.533
 6068SOL    HW218771   2.818   2.689   9.640
 6069SOL     OW18772   3.366   3.469   9.354
 6069SOL    HW118773   3.274   3.506   9.361
 6069SOL    HW218774   3.404   3.489   9.264
 6070SOL     OW18775   2.234   3.150  10.800
 6070SOL    HW118776   2.221   3.243  10.766
 6070SOL    HW218777   2.150   3.098  10.787
 6071SOL     OW18778   3.476   3.154  10.599
 6071SOL    HW118779   3.536   3.157  10.679
 6071SOL    HW218780   3.401   3.218  10.612
 6072SOL     OW18781   2.901   2.960  10.006
 6072SOL    HW118782   2.831   2.913  10.060
 6072SOL    HW218783   2.960   2.892   9.963
 6073SOL     OW18784   2.876   2.098  10.281
 6073SOL    HW118785   2.868   2.062  10.188
 6073SOL    HW218786   2.874   2.022  10.346
 6074SOL     OW18787   2.452   3.349   9.801
 6074SOL    HW118788   2.494   3.291   9.731
 6074SOL    HW218789   2.408   3.428   9.757
 6075SOL     OW18790   3.571   2.247  10.691
 6075SOL    HW118791   3.644   2.316  10.695
 6075SOL    HW218792   3.599   2.172  10.632
 6076SOL     OW18793   2.117   3.210   9.600
 6076SOL    HW118794   2.021   3.211   9.573
 6076SOL    HW218795   2.129   3.263   9.684
 6077SOL     OW18796   1.967   2.875  11.036
 6077SOL    HW118797   1.890   2.842  11.090
 6077SOL    HW218798   2.052   2.845  11.078
 6078SOL     OW18799   2.534   2.065  10.799
 6078SOL    HW118800   2.624   2.049  10.759
 6078SOL    HW218801   2.542   2.070  10.898
 6079SOL     OW18802   3.302   2.718  10.708
 6079SOL    HW118803   3.245   2.770  10.645
 6079SOL    HW218804   3.398   2.730  10.684
 6080SOL     OW18805   3.045   3.197   9.429
 6080SOL    HW118806   2.946   3.186   9.431
 6080SOL    HW218807   3.079   3.212   9.522
 6081SOL     OW18808   2.475   2.704  10.741
 6081SOL    HW118809   2.531   2.785  10.724
 6081SOL    HW218810   2.534   2.624  10.744
 6082SOL     OW18811   3.355   3.629  10.269
 6082SOL    HW118812   3.388   3.693  10.200
 6082SOL    HW218813   3.421   3.623  10.344
 6083SOL     OW18814   2.578   2.427  11.018
 6083SOL    HW118815   2.597   2.492  11.092
 6083SOL    HW218816   2.638   2.347  11.027
 6084SOL     OW18817   3.312   3.082  10.943
 6084SOL    HW118818   3.303   3.072  11.042
 6084SOL    HW218819   3.408   3.075  10.917
 6085SOL     OW18820   2.252   3.603  10.870
 6085SOL    HW118821   2.161   3.644  10.868
 6085SOL    HW218822   2.245   3.509  10.902
 6086SOL     OW18823   3.536   2.745  10.564
 6086SOL    HW118824   3.509   2.656  10.527
 6086SOL    HW218825   3.537   2.813  10.491
 6087SOL     OW18826   3.087   2.187   9.759
 6087SOL    HW118827   3.152   2.113   9.748
 6087SOL    HW218828   3.107   2.237   9.843
 6088SOL     OW18829   2.456   2.607   9.962
 6088SOL    HW118830   2.506   2.692   9.943
 6088SOL    HW218831   2.368   2.609   9.914
 6089SOL     OW18832   3.639   2.204  10.952
 6089SOL    HW118833   3.622   2.235  10.858
 6089SOL    HW218834   3.555   2.167  10.990
 6090SOL     OW18835   3.592   2.796  10.827
 6090SOL    HW118836   3.630   2.887  10.842
 6090SOL    HW218837   3.584   2.779  10.728
 6091SOL     OW18838   2.721   3.236   9.326
 6091SOL    HW118839   2.675   3.251   9.414
 6091SOL    HW218840   2.765   3.321   9.296
 6092SOL     OW18841   2.523   3.652  10.263
 6092SOL    HW118842   2.477   3.740  10.250
 6092SOL    HW218843   2.622   3.664  10.256
 6093SOL     OW18844   2.721   2.818  10.171
 6093SOL    HW118845   2.775   2.749  10.219
 6093SOL    HW218846   2.689   2.887  10.237
 6094SOL     OW18847   2.945   2.846   9.397
 6094SOL    HW118848   2.922   2.899   9.315
 6094SOL    HW218849   3.026   2.790   9.378
 6095SOL     OW18850   3.723   3.431  10.161
 6095SOL    HW118851   3.652   3.419  10.091
 6095SOL    HW218852   3.724   3.352  10.221
 6096SOL     OW18853   2.083   3.176  11.154
 6096SOL    HW118854   2.018   3.103  11.133
 6096SOL    HW218855   2.087   3.190  11.252
 6097SOL     OW18856   1.941   3.102   9.963
 6097SOL    HW118857   1.940   3.055  10.051
 6097SOL    HW218858   2.023   3.074   9.912
 6098SOL     OW18859   2.534   3.253  10.934
 6098SOL    HW118860   2.456   3.203  10.972
 6098SOL    HW218861   2.531   3.348  10.965
 6099SOL     OW18862   3.686   2.054  10.537
 6099SOL    HW118863   3.682   1.964  10.581
 6099SOL    HW218864   3.689   2.043  10.438
 6100SOL     OW18865   2.290   2.286   9.830
 6100SOL    HW118866   2.320   2.214   9.768
 6100SOL    HW218867   2.251   2.246   9.913
 6101SOL     OW18868   3.567   3.349  10.414
 6101SOL    HW118869   3.474   3.324  10.387
 6101SOL    HW218870   3.593   3.299  10.496
 6102SOL     OW18871   2.179   2.409  10.590
 6102SOL    HW118872   2.217   2.350  10.662
 6102SOL    HW218873   2.219   2.383  10.502
 6103SOL     OW18874   2.674   3.448   9.997
 6103SOL    HW118875   2.706   3.458   9.903
 6103SOL    HW218876   2.595   3.386   9.999
 6104SOL     OW18877   3.286   2.076  10.422
 6104SOL    HW118878   3.338   2.011  10.477
 6104SOL    HW218879   3.237   2.139  10.483
 6105SOL     OW18880   2.863   1.896  10.464
 6105SOL    HW118881   2.800   1.824  10.433
 6105SOL    HW218882   2.956   1.860  10.464
 6106SOL     OW18883   2.632   3.192   9.611
 6106SOL    HW118884   2.586   3.105   9.628
 6106SOL    HW218885   2.723   3.189   9.652
 6107SOL     OW18886   2.480   3.429  10.594
 6107SOL    HW118887   2.475   3.511  10.651
 6107SOL    HW218888   2.569   3.426  10.549
 6108SOL     OW18889   3.214   1.914   9.478
 6108SOL    HW118890   3.249   1.873   9.394
 6108SOL    HW218891   3.124   1.876   9.498
 6109SOL     OW18892   3.162   2.315  10.001
 6109SOL    HW118893   3.103   2.395  10.005
 6109SOL    HW218894   3.177   2.280  10.094
 6110SOL     OW18895   3.455   2.083  10.192
 6110SOL    HW118896   3.371   2.082  10.246
 6110SOL    HW218897   3.457   2.166  10.136
 6111SOL     OW18898   1.901   2.939   9.610
 6111SOL    HW118899   2.000   2.928   9.601
 6111SOL    HW218900   1.861   2.853   9.642
 6112SOL     OW18901   2.737   3.508   9.647
 6112SOL    HW118902   2.660   3.473   9.593
 6112SOL    HW218903   2.705   3.579   9.709
 6113SOL     OW18904   2.092   2.490  11.285
 6113SOL    HW118905   1.999   2.488  11.322
 6113SOL    HW218906   2.093   2.451  11.193
 6114SOL     OW18907   1.881   2.230  11.819
 6114SOL    HW118908   1.799   2.273  11.858
 6114SOL    HW218909   1.853   2.157  11.756
 6115SOL     OW18910   2.431   3.137  12.337
 6115SOL    HW118911   2.338   3.130  12.300
 6115SOL    HW218912   2.442   3.226  12.381
 6116SOL     OW18913   3.417   3.373  11.875
 6116SOL    HW118914   3.360   3.357  11.956
 6116SOL    HW218915   3.358   3.383  11.795
 6117SOL     OW18916   2.997   2.565  11.889
 6117SOL    HW118917   3.054   2.643  11.864
 6117SOL    HW218918   2.937   2.591  11.965
 6118SOL     OW18919   3.617   2.469  11.403
 6118SOL    HW118920   3.605   2.456  11.304
 6118SOL    HW218921   3.587   2.388  11.452
 6119SOL     OW18922   2.630   3.006  12.195
 6119SOL    HW118923   2.552   3.023  12.255
 6119SOL    HW218924   2.664   3.093  12.159
 6120SOL     OW18925   2.712   2.660  12.995
 6120SOL    HW118926   2.708   2.736  13.060
 6120SOL    HW218927   2.734   2.696  12.904
 6121SOL     OW18928   2.547   2.874  11.837
 6121SOL    HW118929   2.616   2.858  11.907
 6121SOL    HW218930   2.474   2.931  11.875
 6122SOL     OW18931   2.548   3.023  12.975
 6122SOL    HW118932   2.608   3.102  12.989
 6122SOL    HW218933   2.462   3.054  12.934
 6123SOL     OW18934   2.197   3.297  12.233
 6123SOL    HW118935   2.119   3.266  12.180
 6123SOL    HW218936   2.255   3.355  12.176
 6124SOL     OW18937   3.322   3.367  12.511
 6124SOL    HW118938   3.346   3.461  12.537
 6124SOL    HW218939   3.306   3.313  12.593
 6125SOL     OW18940   2.300   2.254  12.671
 6125SOL    HW118941   2.382   2.198  12.680
 6125SOL    HW218942   2.219   2.196  12.675
 6126SOL     OW18943   3.465   2.309  11.909
 6126SOL    HW118944   3.391   2.355  11.859
 6126SOL    HW218945   3.516   2.377  11.962
 6127SOL     OW18946   2.093   3.575  11.655
 6127SOL    HW118947   2.127   3.652  11.709
 6127SOL    HW218948   2.137   3.575  11.565
 6128SOL     OW18949   2.989   3.203  12.862
 6128SOL    HW118950   3.036   3.203  12.950
 6128SOL    HW218951   2.941   3.116  12.851
 6129SOL     OW18952   2.092   3.296  11.710
 6129SOL    HW118953   2.066   3.392  11.710
 6129SOL    HW218954   2.021   3.242  11.755
 6130SOL     OW18955   2.102   2.953  12.058
 6130SOL    HW118956   2.116   2.869  12.110
 6130SOL    HW218957   2.047   3.017  12.113
 6131SOL     OW18958   2.482   3.648  12.611
 6131SOL    HW118959   2.390   3.631  12.646
 6131SOL    HW218960   2.510   3.740  12.637
 6132SOL     OW18961   2.468   2.826  11.295
 6132SOL    HW118962   2.475   2.910  11.241
 6132SOL    HW218963   2.514   2.839  11.383
 6133SOL     OW18964   3.456   1.976  12.652
 6133SOL    HW118965   3.438   2.043  12.580
 6133SOL    HW218966   3.453   2.022  12.741
 6134SOL     OW18967   1.984   2.505  11.735
 6134SOL    HW118968   1.939   2.417  11.752
 6134SOL    HW218969   1.983   2.559  11.819
 6135SOL     OW18970   3.704   3.629  11.531
 6135SOL    HW118971   3.758   3.600  11.611
 6135SOL    HW218972   3.734   3.719  11.502
 6136SOL     OW18973   1.889   3.458  11.289
 6136SOL    HW118974   1.870   3.362  11.310
 6136SOL    HW218975   1.856   3.516  11.364
 6137SOL     OW18976   3.551   2.784  11.784
 6137SOL    HW118977   3.646   2.755  11.792
 6137SOL    HW218978   3.543   2.849  11.709
 6138SOL     OW18979   3.503   2.970  11.604
 6138SOL    HW118980   3.589   2.972  11.552
 6138SOL    HW218981   3.517   3.017  11.692
 6139SOL     OW18982   1.975   2.599  12.769
 6139SOL    HW118983   2.063   2.586  12.814
 6139SOL    HW218984   1.962   2.696  12.747
 6140SOL     OW18985   2.475   3.227  11.898
 6140SOL    HW118986   2.426   3.140  11.907
 6140SOL    HW218987   2.452   3.270  11.811
 6141SOL     OW18988   3.155   3.090  12.595
 6141SOL    HW118989   3.192   3.017  12.537
 6141SOL    HW218990   3.207   3.095  12.680
 6142SOL     OW18991   2.671   1.866  11.674
 6142SOL    HW118992   2.711   1.957  11.665
 6142SOL    HW218993   2.571   1.874  11.680
 6143SOL     OW18994   2.059   2.838  12.436
 6143SOL    HW118995   2.148   2.793  12.422
 6143SOL    HW218996   1.986   2.773  12.417
 6144SOL     OW18997   3.387   2.861  11.362
 6144SOL    HW118998   3.324   2.785  11.375
 6144SOL    HW218999   3.435   2.879  11.448
 6145SOL     OW19000   3.049   3.654  12.788
 6145SOL    HW119001   3.073   3.714  12.712
 6145SOL    HW219002   3.056   3.559  12.758
 6146SOL     OW19003   2.179   2.113  12.973
 6146SOL    HW119004   2.250   2.184  12.979
 6146SOL    HW219005   2.091   2.152  13.001
 6147SOL     OW19006   3.328   3.279  12.125
 6147SOL    HW119007   3.269   3.285  12.205
 6147SOL    HW219008   3.313   3.191  12.079
 6148SOL     OW19009   3.529   3.576  11.744
 6148SOL    HW119010   3.488   3.553  11.656
 6148SOL    HW219011   3.511   3.502  11.809
 6149SOL     OW19012   2.460   2.591  11.442
 6149SOL    HW119013   2.484   2.660  11.374
 6149SOL    HW219014   2.382   2.624  11.496
 6150SOL     OW19015   3.143   2.207  12.116
 6150SOL    HW119016   3.057   2.157  12.103
 6150SOL    HW219017   3.205   2.153  12.172
 6151SOL     OW19018   3.438   3.524  11.479
 6151SOL    HW119019   3.527   3.570  11.482
 6151SOL    HW219020   3.417   3.500  11.384
 6152SOL     OW19021   2.669   2.467  12.637
 6152SOL    HW119022   2.622   2.464  12.726
 6152SOL    HW219023   2.618   2.412  12.571
 6153SOL     OW19024   3.256   2.331  12.846
 6153SOL    HW119025   3.236   2.374  12.934
 6153SOL    HW219026   3.334   2.269  12.855
 6154SOL     OW19027   2.835   2.752  12.744
 6154SOL    HW119028   2.881   2.668  12.715
 6154SOL    HW219029   2.779   2.786  12.669
 6155SOL     OW19030   2.853   2.272  12.414
 6155SOL    HW119031   2.776   2.306  12.468
 6155SOL    HW219032   2.819   2.221  12.335
 6156SOL     OW19033   2.903   2.563  11.601
 6156SOL    HW119034   2.929   2.559  11.697
 6156SOL    HW219035   2.818   2.512  11.587
 6157SOL     OW19036   1.938   2.673  11.961
 6157SOL    HW119037   2.037   2.661  11.970
 6157SOL    HW219038   1.914   2.768  11.982
 6158SOL     OW19039   1.992   3.683  12.743
 6158SOL    HW119040   1.982   3.668  12.842
 6158SOL    HW219041   1.906   3.719  12.707
 6159SOL     OW19042   2.727   2.210  11.367
 6159SOL    HW119043   2.786   2.273  11.318
 6159SOL    HW219044   2.746   2.116  11.338
 6160SOL     OW19045   3.581   2.447  13.003
 6160SOL    HW119046   3.555   2.536  12.967
 6160SOL    HW219047   3.579   2.379  12.930
 6161SOL     OW19048   3.224   3.006  11.717
 6161SOL    HW119049   3.307   2.977  11.669
 6161SOL    HW219050   3.175   3.073  11.661
 6162SOL     OW19051   2.412   2.058  12.057
 6162SOL    HW119052   2.407   2.053  12.157
 6162SOL    HW219053   2.414   2.154  12.028
 6163SOL     OW19054   2.870   3.318  11.649
 6163SOL    HW119055   2.824   3.390  11.597
 6163SOL    HW219056   2.866   3.338  11.747
 6164SOL     OW19057   2.213   3.663  12.025
 6164SOL    HW119058   2.263   3.577  12.031
 6164SOL    HW219059   2.278   3.740  12.022
 6165SOL     OW19060   3.657   2.928  12.045
 6165SOL    HW119061   3.595   2.913  11.969
 6165SOL    HW219062   3.605   2.939  12.130
 6166SOL     OW19063   3.089   3.412  12.678
 6166SOL    HW119064   3.095   3.335  12.742
 6166SOL    HW219065   3.037   3.386  12.598
 6167SOL     OW19066   2.183   2.805  11.414
 6167SOL    HW119067   2.265   2.844  11.372
 6167SOL    HW219068   2.156   2.723  11.365
 6168SOL     OW19069   3.320   2.597  11.900
 6168SOL    HW119070   3.315   2.532  11.975
 6168SOL    HW219071   3.400   2.656  11.913
 6169SOL     OW19072   2.323   3.128  12.899
 6169SOL    HW119073   2.273   3.129  12.813
 6169SOL    HW219074   2.260   3.110  12.975
 6170SOL     OW19075   2.973   3.638  11.409
 6170SOL    HW119076   2.913   3.576  11.459
 6170SOL    HW219077   3.004   3.594  11.324
 6171SOL     OW19078   3.494   3.239  11.253
 6171SOL    HW119079   3.462   3.333  11.243
 6171SOL    HW219080   3.418   3.176  11.241
 6172SOL     OW19081   2.326   3.605  11.495
 6172SOL    HW119082   2.359   3.644  11.581
 6172SOL    HW219083   2.402   3.598  11.430
 6173SOL     OW19084   3.262   1.969  11.598
 6173SOL    HW119085   3.238   1.932  11.508
 6173SOL    HW219086   3.361   1.985  11.602
 6174SOL     OW19087   2.111   3.647  12.413
 6174SOL    HW119088   2.168   3.582  12.463
 6174SOL    HW219089   2.095   3.614  12.320
 6175SOL     OW19090   2.802   3.560  12.076
 6175SOL    HW119091   2.882   3.503  12.097
 6175SOL    HW219092   2.753   3.520  11.999
 6176SOL     OW19093   2.244   2.562  11.652
 6176SOL    HW119094   2.289   2.472  11.649
 6176SOL    HW219095   2.150   2.551  11.685
 6177SOL     OW19096   3.409   2.084  12.901
 6177SOL    HW119097   3.404   2.121  12.993
 6177SOL    HW219098   3.337   2.015  12.889
 6178SOL     OW19099   2.476   1.984  11.289
 6178SOL    HW119100   2.574   1.962  11.296
 6178SOL    HW219101   2.445   1.967  11.196
 6179SOL     OW19102   2.643   2.126  12.921
 6179SOL    HW119103   2.710   2.065  12.964
 6179SOL    HW219104   2.570   2.145  12.986
 6180SOL     OW19105   2.750   3.376  12.367
 6180SOL    HW119106   2.727   3.351  12.273
 6180SOL    HW219107   2.811   3.307  12.406
 6181SOL     OW19108   3.213   2.452  12.605
 6181SOL    HW119109   3.241   2.409  12.690
 6181SOL    HW219110   3.238   2.548  12.606
 6182SOL     OW19111   2.665   3.264  12.096
 6182SOL    HW119112   2.755   3.278  12.054
 6182SOL    HW219113   2.594   3.266  12.025
 6183SOL     OW19114   2.784   2.365  12.071
 6183SOL    HW119115   2.759   2.356  11.975
 6183SOL    HW219116   2.832   2.283  12.102
 6184SOL     OW19117   2.401   1.926  11.684
 6184SOL    HW119118   2.320   1.927  11.742
 6184SOL    HW219119   2.404   2.009  11.629
 6185SOL     OW19120   3.296   3.050  11.213
 6185SOL    HW119121   3.328   2.974  11.270
 6185SOL    HW219122   3.204   3.077  11.243
 6186SOL     OW19123   2.797   2.098  11.652
 6186SOL    HW119124   2.749   2.139  11.574
 6186SOL    HW219125   2.896   2.096  11.633
 6187SOL     OW19126   2.938   2.545  12.636
 6187SOL    HW119127   2.858   2.484  12.639
 6187SOL    HW219128   3.019   2.492  12.612
 6188SOL     OW19129   3.089   3.432  11.965
 6188SOL    HW119130   3.110   3.506  11.900
 6188SOL    HW219131   3.157   3.432  12.038
 6189SOL     OW19132   2.321   3.014  11.913
 6189SOL    HW119133   2.250   2.987  11.978
 6189SOL    HW219134   2.295   2.986  11.820
 6190SOL     OW19135   3.133   3.659  11.763
 6190SOL    HW119136   3.177   3.723  11.699
 6190SOL    HW219137   3.083   3.711  11.833
 6191SOL     OW19138   2.894   2.411  11.188
 6191SOL    HW119139   2.853   2.493  11.149
 6191SOL    HW219140   2.958   2.437  11.261
 6192SOL     OW19141   1.940   2.418  12.558
 6192SOL    HW119142   2.032   2.417  12.517
 6192SOL    HW219143   1.934   2.492  12.625
 6193SOL     OW19144   2.423   2.084  12.319
 6193SOL    HW119145   2.461   2.000  12.356
 6193SOL    HW219146   2.335   2.103  12.363
 6194SOL     OW19147   2.728   2.316  11.814
 6194SOL    HW119148   2.696   2.388  11.752
 6194SOL    HW219149   2.752   2.235  11.761
 6195SOL     OW19150   2.879   1.901  11.925
 6195SOL    HW119151   2.807   1.906  11.856
 6195SOL    HW219152   2.855   1.832  11.994
 6196SOL     OW19153   3.291   3.035  12.039
 6196SOL    HW119154   3.236   2.951  12.032
 6196SOL    HW219155   3.317   3.064  11.947
 6197SOL     OW19156   3.328   2.452  12.164
 6197SOL    HW119157   3.298   2.357  12.171
 6197SOL    HW219158   3.401   2.468  12.230
 6198SOL     OW19159   3.719   2.695  11.549
 6198SOL    HW119160   3.761   2.631  11.613
 6198SOL    HW219161   3.681   2.644  11.471
 6199SOL     OW19162   2.350   3.247  11.346
 6199SOL    HW119163   2.263   3.232  11.393
 6199SOL    HW219164   2.333   3.273  11.251
 6200SOL     OW19165   3.526   3.142  11.829
 6200SOL    HW119166   3.625   3.150  11.843
 6200SOL    HW219167   3.481   3.226  11.860
 6201SOL     OW19168   3.252   2.437  11.250
 6201SOL    HW119169   3.198   2.416  11.331
 6201SOL    HW219170   3.343   2.396  11.259
 6202SOL     OW19171   2.389   2.118  11.500
 6202SOL    HW119172   2.416   2.059  11.425
 6202SOL    HW219173   2.389   2.213  11.469
 6203SOL     OW19174   3.616   3.085  12.760
 6203SOL    HW119175   3.707   3.046  12.747
 6203SOL    HW219176   3.624   3.181  12.784
 6204SOL     OW19177   2.926   3.209  12.512
 6204SOL    HW119178   2.846   3.186  12.567
 6204SOL    HW219179   3.009   3.183  12.561
 6205SOL     OW19180   3.454   3.491  12.797
 6205SOL    HW119181   3.481   3.525  12.707
 6205SOL    HW219182   3.533   3.453  12.843
 6206SOL     OW19183   2.973   3.057  12.272
 6206SOL    HW119184   2.933   3.101  12.353
 6206SOL    HW219185   2.932   3.094  12.189
 6207SOL     OW19186   3.500   2.961  12.251
 6207SOL    HW119187   3.505   3.042  12.310
 6207SOL    HW219188   3.414   2.963  12.200
 6208SOL     OW19189   2.777   1.951  12.574
 6208SOL    HW119190   2.802   1.931  12.479
 6208SOL    HW219191   2.849   2.007  12.616
 6209SOL     OW19192   2.842   2.978  12.891
 6209SOL    HW119193   2.743   2.984  12.901
 6209SOL    HW219194   2.865   2.898  12.835
 6210SOL     OW19195   2.567   2.912  11.540
 6210SOL    HW119196   2.553   2.919  11.639
 6210SOL    HW219197   2.651   2.861  11.522
 6211SOL     OW19198   2.272   2.675  12.423
 6211SOL    HW119199   2.358   2.687  12.473
 6211SOL    HW219200   2.230   2.588  12.450
 6212SOL     OW19201   3.136   2.248  12.434
 6212SOL    HW119202   3.157   2.322  12.498
 6212SOL    HW219203   3.047   2.265  12.391
 6213SOL     OW19204   1.926   3.426  12.503
 6213SOL    HW119205   1.880   3.508  12.469
 6213SOL    HW219206   2.024   3.445  12.512
 6214SOL     OW19207   2.229   2.962  11.673
 6214SOL    HW119208   2.222   3.045  11.617
 6214SOL    HW219209   2.233   2.882  11.613
 6215SOL     OW19210   2.428   2.399  12.037
 6215SOL    HW119211   2.440   2.465  11.963
 6215SOL    HW219212   2.474   2.433  12.120
 6216SOL     OW19213   3.114   3.210  11.560
 6216SOL    HW119214   3.164   3.287  11.600
 6216SOL    HW219215   3.019   3.212  11.592
 6217SOL     OW19216   3.134   3.307  12.314
 6217SOL    HW119217   3.181   3.320  12.401
 6217SOL    HW219218   3.068   3.233  12.323
 6218SOL     OW19219   3.444   2.501  11.644
 6218SOL    HW119220   3.413   2.562  11.717
 6218SOL    HW219221   3.494   2.553  11.575
 6219SOL     OW19222   2.216   3.372  12.501
 6219SOL    HW119223   2.195   3.328  12.414
 6219SOL    HW219224   2.313   3.398  12.504
 6220SOL     OW19225   2.264   2.613  12.770
 6220SOL    HW119226   2.332   2.668  12.723
 6220SOL    HW219227   2.304   2.525  12.797
 6221SOL     OW19228   3.449   2.641  12.842
 6221SOL    HW119229   3.357   2.679  12.837
 6221SOL    HW219230   3.509   2.688  12.777
 6222SOL     OW19231   2.875   1.967  12.942
 6222SOL    HW119232   2.881   2.052  12.890
 6222SOL    HW219233   2.907   1.891  12.885
 6223SOL     OW19234   2.366   1.912  12.912
 6223SOL    HW119235   2.324   1.855  12.842
 6223SOL    HW219236   2.300   1.981  12.944
 6224SOL     OW19237   2.435   2.732  12.201
 6224SOL    HW119238   2.479   2.821  12.192
 6224SOL    HW219239   2.372   2.732  12.278
 6225SOL     OW19240   3.222   2.724  12.217
 6225SOL    HW119241   3.147   2.724  12.151
 6225SOL    HW219242   3.259   2.632  12.226
 6226SOL     OW19243   3.071   2.387  11.447
 6226SOL    HW119244   3.084   2.303  11.501
 6226SOL    HW219245   3.042   2.461  11.507
 6227SOL     OW19246   1.899   3.172  12.454
 6227SOL    HW119247   1.952   3.123  12.522
 6227SOL    HW219248   1.921   3.270  12.459
 6228SOL     OW19249   2.594   2.496  12.236
 6228SOL    HW119250   2.653   2.470  12.160
 6228SOL    HW219251   2.566   2.592  12.225
 6229SOL     OW19252   3.590   2.797  13.026
 6229SOL    HW119253   3.544   2.790  12.937
 6229SOL    HW219254   3.528   2.841  13.092
 6230SOL     OW19255   3.484   2.229  11.546
 6230SOL    HW119256   3.486   2.153  11.610
 6230SOL    HW219257   3.436   2.306  11.586
 6231SOL     OW19258   2.885   2.628  12.138
 6231SOL    HW119259   2.900   2.649  12.234
 6231SOL    HW219260   2.855   2.533  12.129
 6232SOL     OW19261   2.842   3.435  12.872
 6232SOL    HW119262   2.822   3.479  12.784
 6232SOL    HW219263   2.881   3.344  12.856
 6233SOL     OW19264   3.721   3.380  12.777
 6233SOL    HW119265   3.735   3.407  12.682
 6233SOL    HW219266   3.804   3.402  12.830
 6234SOL     OW19267   2.212   2.760  12.976
 6234SOL    HW119268   2.288   2.804  13.024
 6234SOL    HW219269   2.247   2.713  12.894
 6235SOL     OW19270   3.402   2.136  11.297
 6235SOL    HW119271   3.341   2.061  11.320
 6235SOL    HW219272   3.424   2.188  11.380
 6236SOL     OW19273   3.165   2.700  11.214
 6236SOL    HW119274   3.199   2.607  11.229
 6236SOL    HW219275   3.183   2.727  11.119
 6237SOL     OW19276   2.930   3.195  12.021
 6237SOL    HW119277   2.937   3.111  11.966
 6237SOL    HW219278   2.992   3.264  11.985
 6238SOL     OW19279   2.181   2.672  12.121
 6238SOL    HW119280   2.274   2.708  12.126
 6238SOL    HW219281   2.175   2.587  12.173
 6239SOL     OW19282   2.201   2.371  12.178
 6239SOL    HW119283   2.149   2.288  12.161
 6239SOL    HW219284   2.278   2.376  12.114
 6240SOL     OW19285   3.000   2.242  12.850
 6240SOL    HW119286   2.955   2.305  12.914
 6240SOL    HW219287   3.093   2.273  12.833
 6241SOL     OW19288   3.022   2.069  12.649
 6241SOL    HW119289   3.022   2.133  12.726
 6241SOL    HW219290   3.050   2.117  12.566
 6242SOL     OW19291   1.870   3.188  11.372
 6242SOL    HW119292   1.777   3.209  11.341
 6242SOL    HW219293   1.880   3.089  11.385
 6243SOL     OW19294   1.950   3.663  12.099
 6243SOL    HW119295   1.908   3.577  12.072
 6243SOL    HW219296   2.044   3.666  12.065
 6244SOL     OW19297   2.366   3.430  12.082
 6244SOL    HW119298   2.432   3.504  12.091
 6244SOL    HW219299   2.410   3.351  12.040
 6245SOL     OW19300   2.864   2.658  12.410
 6245SOL    HW119301   2.905   2.626  12.496
 6245SOL    HW219302   2.768   2.631  12.407
 6246SOL     OW19303   1.902   2.406  12.286
 6246SOL    HW119304   1.987   2.373  12.245
 6246SOL    HW219305   1.915   2.421  12.384
 6247SOL     OW19306   2.051   2.382  12.894
 6247SOL    HW119307   2.110   2.342  12.824
 6247SOL    HW219308   1.993   2.453  12.853
 6248SOL     OW19309   3.231   2.812  12.832
 6248SOL    HW119310   3.270   2.901  12.852
 6248SOL    HW219311   3.241   2.792  12.735
 6249SOL     OW19312   2.677   2.434  11.497
 6249SOL    HW119313   2.684   2.345  11.451
 6249SOL    HW219314   2.583   2.468  11.489
 6250SOL     OW19315   3.519   2.466  12.378
 6250SOL    HW119316   3.481   2.397  12.440
 6250SOL    HW219317   3.601   2.430  12.334
 6251SOL     OW19318   2.114   3.426  12.916
 6251SOL    HW119319   2.084   3.483  12.992
 6251SOL    HW219320   2.107   3.329  12.942
 6252SOL     OW19321   2.533   2.326  12.441
 6252SOL    HW119322   2.499   2.237  12.411
 6252SOL    HW219323   2.559   2.380  12.361
 6253SOL     OW19324   2.792   3.540  12.637
 6253SOL    HW119325   2.768   3.522  12.542
 6253SOL    HW219326   2.822   3.634  12.647
 6254SOL     OW19327   2.335   2.362  11.363
 6254SOL    HW119328   2.396   2.442  11.367
 6254SOL    HW219329   2.240   2.393  11.370
 6255SOL     OW19330   2.021   2.999  12.638
 6255SOL    HW119331   2.043   2.938  12.714
 6255SOL    HW219332   2.031   2.950  12.552
 6256SOL     OW19333   3.209   2.921  12.406
 6256SOL    HW119334   3.233   2.858  12.332
 6256SOL    HW219335   3.119   2.961  12.388
 6257SOL     OW19336   3.164   2.717  11.481
 6257SOL    HW119337   3.078   2.686  11.523
 6257SOL    HW219338   3.160   2.703  11.382
 6258SOL     OW19339   3.621   3.609  12.326
 6258SOL    HW119340   3.682   3.639  12.253
 6258SOL    HW219341   3.583   3.520  12.304
 6259SOL     OW19342   3.114   3.593  12.300
 6259SOL    HW119343   3.198   3.598  12.246
 6259SOL    HW219344   3.091   3.497  12.318
 6260SOL     OW19345   1.945   3.120  12.194
 6260SOL    HW119346   1.940   3.119  12.294
 6260SOL    HW219347   1.862   3.079  12.156
 6261SOL     OW19348   2.550   3.524  12.888
 6261SOL    HW119349   2.494   3.605  12.897
 6261SOL    HW219350   2.602   3.528  12.802
 6262SOL     OW19351   3.588   1.997  11.695
 6262SOL    HW119352   3.661   1.980  11.628
 6262SOL    HW219353   3.557   1.910  11.733
 6263SOL     OW19354   3.250   3.435  11.649
 6263SOL    HW119355   3.317   3.447  11.575
 6263SOL    HW219356   3.210   3.524  11.672
 6264SOL     OW19357   1.992   3.656  13.023
 6264SOL    HW119358   1.951   3.582  13.076
 6264SOL    HW219359   2.056   3.707  13.081
 6265SOL     OW19360   3.142   2.789  11.844
 6265SOL    HW119361   3.202   2.708  11.846
 6265SOL    HW219362   3.182   2.858  11.784
 6266SOL     OW19363   2.692   3.135  12.594
 6266SOL    HW119364   2.687   3.168  12.689
 6266SOL    HW219365   2.606   3.154  12.548
 6267SOL     OW19366   2.534   3.478  11.326
 6267SOL    HW119367   2.543   3.488  11.227
 6267SOL    HW219368   2.494   3.389  11.347
 6268SOL     OW19369   3.512   3.582  12.566
 6268SOL    HW119370   3.565   3.592  12.482
 6268SOL    HW219371   3.485   3.672  12.600
 6269SOL     OW19372   3.703   2.037  12.135
 6269SOL    HW119373   3.742   1.952  12.099
 6269SOL    HW219374   3.605   2.039  12.116
 6270SOL     OW19375   3.056   3.474  11.203
 6270SOL    HW119376   3.062   3.381  11.240
 6270SOL    HW219377   2.997   3.474  11.123
 6271SOL     OW19378   2.684   2.864  12.544
 6271SOL    HW119379   2.724   2.863  12.452
 6271SOL    HW219380   2.694   2.956  12.584
 6272SOL     OW19381   2.778   2.772  11.463
 6272SOL    HW119382   2.841   2.810  11.395
 6272SOL    HW219383   2.818   2.689  11.502
 6273SOL     OW19384   3.366   3.469  11.216
 6273SOL    HW119385   3.274   3.506  11.223
 6273SOL    HW219386   3.404   3.489  11.126
 6274SOL     OW19387   2.234   3.150  12.662
 6274SOL    HW119388   2.221   3.243  12.628
 6274SOL    HW219389   2.150   3.098  12.649
 6275SOL     OW19390   3.476   3.154  12.461
 6275SOL    HW119391   3.536   3.157  12.541
 6275SOL    HW219392   3.401   3.218  12.474
 6276SOL     OW19393   2.901   2.960  11.868
 6276SOL    HW119394   2.831   2.913  11.922
 6276SOL    HW219395   2.960   2.892  11.825
 6277SOL     OW19396   2.876   2.098  12.143
 6277SOL    HW119397   2.868   2.062  12.050
 6277SOL    HW219398   2.874   2.022  12.208
 6278SOL     OW19399   2.452   3.349  11.663
 6278SOL    HW119400   2.494   3.291  11.593
 6278SOL    HW219401   2.408   3.428  11.619
 6279SOL     OW19402   3.571   2.247  12.553
 6279SOL    HW119403   3.644   2.316  12.557
 6279SOL    HW219404   3.599   2.172  12.494
 6280SOL     OW19405   2.117   3.210  11.462
 6280SOL    HW119406   2.021   3.211  11.435
 6280SOL    HW219407   2.129   3.263  11.546
 6281SOL     OW19408   1.967   2.875  12.898
 6281SOL    HW119409   1.890   2.842  12.952
 6281SOL    HW219410   2.052   2.845  12.940
 6282SOL     OW19411   2.534   2.065  12.661
 6282SOL    HW119412   2.624   2.049  12.621
 6282SOL    HW219413   2.542   2.070  12.760
 6283SOL     OW19414   3.302   2.718  12.570
 6283SOL    HW119415   3.245   2.770  12.507
 6283SOL    HW219416   3.398   2.730  12.546
 6284SOL     OW19417   3.045   3.197  11.291
 6284SOL    HW119418   2.946   3.186  11.293
 6284SOL    HW219419   3.079   3.212  11.384
 6285SOL     OW19420   2.475   2.704  12.603
 6285SOL    HW119421   2.531   2.785  12.586
 6285SOL    HW219422   2.534   2.624  12.606
 6286SOL     OW19423   3.355   3.629  12.131
 6286SOL    HW119424   3.388   3.693  12.062
 6286SOL    HW219425   3.421   3.623  12.206
 6287SOL     OW19426   2.578   2.427  12.880
 6287SOL    HW119427   2.597   2.492  12.954
 6287SOL    HW219428   2.638   2.347  12.889
 6288SOL     OW19429   3.312   3.082  12.805
 6288SOL    HW119430   3.303   3.072  12.904
 6288SOL    HW219431   3.408   3.075  12.779
 6289SOL     OW19432   2.252   3.603  12.732
 6289SOL    HW119433   2.161   3.644  12.730
 6289SOL    HW219434   2.245   3.509  12.764
 6290SOL     OW19435   3.536   2.745  12.426
 6290SOL    HW119436   3.509   2.656  12.389
 6290SOL    HW219437   3.537   2.813  12.353
 6291SOL     OW19438   3.087   2.187  11.621
 6291SOL    HW119439   3.152   2.113  11.610
 6291SOL    HW219440   3.107   2.237  11.705
 6292SOL     OW19441   2.456   2.607  11.824
 6292SOL    HW119442   2.506   2.692  11.805
 6292SOL    HW219443   2.368   2.609  11.776
 6293SOL     OW19444   3.639   2.204  12.814
 6293SOL    HW119445   3.622   2.235  12.720
 6293SOL    HW219446   3.555   2.167  12.852
 6294SOL     OW19447   3.592   2.796  12.689
 6294SOL    HW119448   3.630   2.887  12.704
 6294SOL    HW219449   3.584   2.779  12.590
 6295SOL     OW19450   2.721   3.236  11.188
 6295SOL    HW119451   2.675   3.251  11.276
 6295SOL    HW219452   2.765   3.321  11.158
 6296SOL     OW19453   2.523   3.652  12.125
 6296SOL    HW119454   2.477   3.740  12.112
 6296SOL    HW219455   2.622   3.664  12.118
 6297SOL     OW19456   2.721   2.818  12.033
 6297SOL    HW119457   2.775   2.749  12.081
 6297SOL    HW219458   2.689   2.887  12.099
 6298SOL     OW19459   2.945   2.846  11.259
 6298SOL    HW119460   2.922   2.899  11.177
 6298SOL    HW219461   3.026   2.790  11.240
 6299SOL     OW19462   3.723   3.431  12.023
 6299SOL    HW119463   3.652   3.419  11.953
 6299SOL    HW219464   3.724   3.352  12.083
 6300SOL     OW19465   2.083   3.176  13.016
 6300SOL    HW119466   2.018   3.103  12.995
 6300SOL    HW219467   2.087   3.190  13.114
 6301SOL     OW19468   1.941   3.102  11.825
 6301SOL    HW119469   1.940   3.055  11.913
 6301SOL    HW219470   2.023   3.074  11.774
 6302SOL     OW19471   2.534   3.253  12.796
 6302SOL    HW119472   2.456   3.203  12.834
 6302SOL    HW219473   2.531   3.348  12.827
 6303SOL     OW19474   3.686   2.054  12.399
 6303SOL    HW119475   3.682   1.964  12.443
 6303SOL    HW219476   3.689   2.043  12.300
 6304SOL     OW19477   2.290   2.286  11.692
 6304SOL    HW119478   2.320   2.214  11.630
 6304SOL    HW219479   2.251   2.246  11.775
 6305SOL     OW19480   3.567   3.349  12.276
 6305SOL    HW119481   3.474   3.324  12.249
 6305SOL    HW219482   3.593   3.299  12.358
 6306SOL     OW19483   2.179   2.409  12.452
 6306SOL    HW119484   2.217   2.350  12.524
 6306SOL    HW219485   2.219   2.383  12.364
 6307SOL     OW19486   2.674   3.448  11.859
 6307SOL    HW119487   2.706   3.458  11.765
 6307SOL    HW219488   2.595   3.386  11.861
 6308SOL     OW19489   3.286   2.076  12.284
 6308SOL    HW119490   3.338   2.011  12.339
 6308SOL    HW219491   3.237   2.139  12.345
 6309SOL     OW19492   2.863   1.896  12.326
 6309SOL    HW119493   2.800   1.824  12.295
 6309SOL    HW219494   2.956   1.860  12.326
 6310SOL     OW19495   2.632   3.192  11.473
 6310SOL    HW119496   2.586   3.105  11.490
 6310SOL    HW219497   2.723   3.189  11.514
 6311SOL     OW19498   2.480   3.429  12.456
 6311SOL    HW119499   2.475   3.511  12.513
 6311SOL    HW219500   2.569   3.426  12.411
 6312SOL     OW19501   3.214   1.914  11.340
 6312SOL    HW119502   3.249   1.873  11.256
 6312SOL    HW219503   3.124   1.876  11.360
 6313SOL     OW19504   3.162   2.315  11.863
 6313SOL    HW119505   3.103   2.395  11.867
 6313SOL    HW219506   3.177   2.280  11.956
 6314SOL     OW19507   3.455   2.083  12.054
 6314SOL    HW119508   3.371   2.082  12.108
 6314SOL    HW219509   3.457   2.166  11.998
 6315SOL     OW19510   1.901   2.939  11.472
 6315SOL    HW119511   2.000   2.928  11.463
 6315SOL    HW219512   1.861   2.853  11.504
 6316SOL     OW19513   2.737   3.508  11.509
 6316SOL    HW119514   2.660   3.473  11.455
 6316SOL    HW219515   2.705   3.579  11.571
 6317SOL     OW19516   2.092   2.490  13.147
 6317SOL    HW119517   1.999   2.488  13.184
 6317SOL    HW219518   2.093   2.451  13.055
 6318SOL     OW19519   1.881   2.230  13.681
 6318SOL    HW119520   1.799   2.273  13.720
 6318SOL    HW219521   1.853   2.157  13.618
 6319SOL     OW19522   3.417   3.373  13.737
 6319SOL    HW119523   3.360   3.357  13.818
 6319SOL    HW219524   3.358   3.383  13.657
 6320SOL     OW19525   2.997   2.565  13.751
 6320SOL    HW119526   3.054   2.643  13.726
 6320SOL    HW219527   2.937   2.591  13.827
 6321SOL     OW19528   3.617   2.469  13.265
 6321SOL    HW119529   3.605   2.456  13.166
 6321SOL    HW219530   3.587   2.388  13.314
 6322SOL     OW19531   2.547   2.874  13.699
 6322SOL    HW119532   2.616   2.858  13.769
 6322SOL    HW219533   2.474   2.931  13.737
 6323SOL     OW19534   3.465   2.309  13.771
 6323SOL    HW119535   3.391   2.355  13.721
 6323SOL    HW219536   3.516   2.377  13.824
 6324SOL     OW19537   2.093   3.575  13.517
 6324SOL    HW119538   2.127   3.652  13.571
 6324SOL    HW219539   2.137   3.575  13.427
 6325SOL     OW19540   2.092   3.296  13.572
 6325SOL    HW119541   2.066   3.392  13.572
 6325SOL    HW219542   2.021   3.242  13.617
 6326SOL     OW19543   2.102   2.953  13.920
 6326SOL    HW119544   2.116   2.869  13.972
 6326SOL    HW219545   2.047   3.017  13.975
 6327SOL     OW19546   2.468   2.826  13.157
 6327SOL    HW119547   2.475   2.910  13.103
 6327SOL    HW219548   2.514   2.839  13.245
 6328SOL     OW19549   1.984   2.505  13.597
 6328SOL    HW119550   1.939   2.417  13.614
 6328SOL    HW219551   1.983   2.559  13.681
 6329SOL     OW19552   3.704   3.629  13.393
 6329SOL    HW119553   3.758   3.600  13.473
 6329SOL    HW219554   3.734   3.719  13.364
 6330SOL     OW19555   1.889   3.458  13.151
 6330SOL    HW119556   1.870   3.362  13.172
 6330SOL    HW219557   1.856   3.516  13.226
 6331SOL     OW19558   3.551   2.784  13.646
 6331SOL    HW119559   3.646   2.755  13.654
 6331SOL    HW219560   3.543   2.849  13.571
 6332SOL     OW19561   3.503   2.970  13.466
 6332SOL    HW119562   3.589   2.972  13.414
 6332SOL    HW219563   3.517   3.017  13.554
 6333SOL     OW19564   2.475   3.227  13.760
 6333SOL    HW119565   2.426   3.140  13.769
 6333SOL    HW219566   2.452   3.270  13.673
 6334SOL     OW19567   2.671   1.866  13.536
 6334SOL    HW119568   2.711   1.957  13.527
 6334SOL    HW219569   2.571   1.874  13.542
 6335SOL     OW19570   3.387   2.861  13.224
 6335SOL    HW119571   3.324   2.785  13.237
 6335SOL    HW219572   3.435   2.879  13.310
 6336SOL     OW19573   3.529   3.576  13.606
 6336SOL    HW119574   3.488   3.553  13.518
 6336SOL    HW219575   3.511   3.502  13.671
 6337SOL     OW19576   2.460   2.591  13.304
 6337SOL    HW119577   2.484   2.660  13.236
 6337SOL    HW219578   2.382   2.624  13.358
 6338SOL     OW19579   3.143   2.207  13.978
 6338SOL    HW119580   3.057   2.157  13.965
 6338SOL    HW219581   3.205   2.153  14.034
 6339SOL     OW19582   3.438   3.524  13.341
 6339SOL    HW119583   3.527   3.570  13.344
 6339SOL    HW219584   3.417   3.500  13.246
 6340SOL     OW19585   2.903   2.563  13.463
 6340SOL    HW119586   2.929   2.559  13.559
 6340SOL    HW219587   2.818   2.512  13.449
 6341SOL     OW19588   1.938   2.673  13.823
 6341SOL    HW119589   2.037   2.661  13.832
 6341SOL    HW219590   1.914   2.768  13.844
 6342SOL     OW19591   2.727   2.210  13.229
 6342SOL    HW119592   2.786   2.273  13.180
 6342SOL    HW219593   2.746   2.116  13.200
 6343SOL     OW19594   3.224   3.006  13.579
 6343SOL    HW119595   3.307   2.977  13.531
 6343SOL    HW219596   3.175   3.073  13.523
 6344SOL     OW19597   2.870   3.318  13.511
 6344SOL    HW119598   2.824   3.390  13.459
 6344SOL    HW219599   2.866   3.338  13.609
 6345SOL     OW19600   2.213   3.663  13.887
 6345SOL    HW119601   2.263   3.577  13.893
 6345SOL    HW219602   2.278   3.740  13.884
 6346SOL     OW19603   3.657   2.928  13.907
 6346SOL    HW119604   3.595   2.913  13.831
 6346SOL    HW219605   3.605   2.939  13.992
 6347SOL     OW19606   2.183   2.805  13.276
 6347SOL    HW119607   2.265   2.844  13.234
 6347SOL    HW219608   2.156   2.723  13.227
 6348SOL     OW19609   3.320   2.597  13.762
 6348SOL    HW119610   3.315   2.532  13.837
 6348SOL    HW219611   3.400   2.656  13.775
 6349SOL     OW19612   2.973   3.638  13.271
 6349SOL    HW119613   2.913   3.576  13.321
 6349SOL    HW219614   3.004   3.594  13.186
 6350SOL     OW19615   3.494   3.239  13.115
 6350SOL    HW119616   3.462   3.333  13.105
 6350SOL    HW219617   3.418   3.176  13.103
 6351SOL     OW19618   2.326   3.605  13.357
 6351SOL    HW119619   2.359   3.644  13.443
 6351SOL    HW219620   2.402   3.598  13.292
 6352SOL     OW19621   3.262   1.969  13.460
 6352SOL    HW119622   3.238   1.932  13.370
 6352SOL    HW219623   3.361   1.985  13.464
 6353SOL     OW19624   2.802   3.560  13.938
 6353SOL    HW119625   2.882   3.503  13.959
 6353SOL    HW219626   2.753   3.520  13.861
 6354SOL     OW19627   2.244   2.562  13.514
 6354SOL    HW119628   2.289   2.472  13.511
 6354SOL    HW219629   2.150   2.551  13.547
 6355SOL     OW19630   2.476   1.984  13.151
 6355SOL    HW119631   2.574   1.962  13.158
 6355SOL    HW219632   2.445   1.967  13.058
 6356SOL     OW19633   2.401   1.926  13.546
 6356SOL    HW119634   2.320   1.927  13.604
 6356SOL    HW219635   2.404   2.009  13.491
 6357SOL     OW19636   3.296   3.050  13.075
 6357SOL    HW119637   3.328   2.974  13.132
 6357SOL    HW219638   3.204   3.077  13.105
 6358SOL     OW19639   2.797   2.098  13.514
 6358SOL    HW119640   2.749   2.139  13.436
 6358SOL    HW219641   2.896   2.096  13.495
 6359SOL     OW19642   2.321   3.014  13.775
 6359SOL    HW119643   2.250   2.987  13.840
 6359SOL    HW219644   2.295   2.986  13.682
 6360SOL     OW19645   3.133   3.659  13.625
 6360SOL    HW119646   3.177   3.723  13.561
 6360SOL    HW219647   3.083   3.711  13.695
 6361SOL     OW19648   2.894   2.411  13.050
 6361SOL    HW119649   2.853   2.493  13.011
 6361SOL    HW219650   2.958   2.437  13.123
 6362SOL     OW19651   2.728   2.316  13.676
 6362SOL    HW119652   2.696   2.388  13.614
 6362SOL    HW219653   2.752   2.235  13.623
 6363SOL     OW19654   2.879   1.901  13.787
 6363SOL    HW119655   2.807   1.906  13.718
 6363SOL    HW219656   2.855   1.832  13.856
 6364SOL     OW19657   3.719   2.695  13.411
 6364SOL    HW119658   3.761   2.631  13.475
 6364SOL    HW219659   3.681   2.644  13.333
 6365SOL     OW19660   2.350   3.247  13.208
 6365SOL    HW119661   2.263   3.232  13.255
 6365SOL    HW219662   2.333   3.273  13.113
 6366SOL     OW19663   3.526   3.142  13.691
 6366SOL    HW119664   3.625   3.150  13.705
 6366SOL    HW219665   3.481   3.226  13.722
 6367SOL     OW19666   3.252   2.437  13.112
 6367SOL    HW119667   3.198   2.416  13.193
 6367SOL    HW219668   3.343   2.396  13.121
 6368SOL     OW19669   2.389   2.118  13.362
 6368SOL    HW119670   2.416   2.059  13.287
 6368SOL    HW219671   2.389   2.213  13.331
 6369SOL     OW19672   2.567   2.912  13.402
 6369SOL    HW119673   2.553   2.919  13.501
 6369SOL    HW219674   2.651   2.861  13.384
 6370SOL     OW19675   2.229   2.962  13.535
 6370SOL    HW119676   2.222   3.045  13.479
 6370SOL    HW219677   2.233   2.882  13.475
 6371SOL     OW19678   2.428   2.399  13.899
 6371SOL    HW119679   2.440   2.465  13.825
 6371SOL    HW219680   2.474   2.433  13.982
 6372SOL     OW19681   3.114   3.210  13.422
 6372SOL    HW119682   3.164   3.287  13.462
 6372SOL    HW219683   3.019   3.212  13.454
 6373SOL     OW19684   3.444   2.501  13.506
 6373SOL    HW119685   3.413   2.562  13.579
 6373SOL    HW219686   3.494   2.553  13.437
 6374SOL     OW19687   3.071   2.387  13.309
 6374SOL    HW119688   3.084   2.303  13.363
 6374SOL    HW219689   3.042   2.461  13.369
 6375SOL     OW19690   3.484   2.229  13.408
 6375SOL    HW119691   3.486   2.153  13.472
 6375SOL    HW219692   3.436   2.306  13.448
 6376SOL     OW19693   3.402   2.136  13.159
 6376SOL    HW119694   3.341   2.061  13.182
 6376SOL    HW219695   3.424   2.188  13.242
 6377SOL     OW19696   3.165   2.700  13.076
 6377SOL    HW119697   3.199   2.607  13.091
 6377SOL    HW219698   3.183   2.727  12.981
 6378SOL     OW19699   1.870   3.188  13.234
 6378SOL    HW119700   1.777   3.209  13.203
 6378SOL    HW219701   1.880   3.089  13.247
 6379SOL     OW19702   2.677   2.434  13.359
 6379SOL    HW119703   2.684   2.345  13.313
 6379SOL    HW219704   2.583   2.468  13.351
 6380SOL     OW19705   2.335   2.362  13.225
 6380SOL    HW119706   2.396   2.442  13.229
 6380SOL    HW219707   2.240   2.393  13.232
 6381SOL     OW19708   3.164   2.717  13.343
 6381SOL    HW119709   3.078   2.686  13.385
 6381SOL    HW219710   3.160   2.703  13.244
 6382SOL     OW19711   3.588   1.997  13.557
 6382SOL    HW119712   3.661   1.980  13.490
 6382SOL    HW219713   3.557   1.910  13.595
 6383SOL     OW19714   3.250   3.435  13.511
 6383SOL    HW119715   3.317   3.447  13.437
 6383SOL    HW219716   3.210   3.524  13.534
 6384SOL     OW19717   3.142   2.789  13.706
 6384SOL    HW119718   3.202   2.708  13.708
 6384SOL    HW219719   3.182   2.858  13.646
 6385SOL     OW19720   2.534   3.478  13.188
 6385SOL    HW119721   2.543   3.488  13.089
 6385SOL    HW219722   2.494   3.389  13.209
 6386SOL     OW19723   3.703   2.037  13.997
 6386SOL    HW119724   3.742   1.952  13.961
 6386SOL    HW219725   3.605   2.039  13.978
 6387SOL     OW19726   2.125   2.188  13.754
 6387SOL    HW119727   2.046   2.239  13.720
 6387SOL    HW219728   2.116   2.173  13.852
 6388SOL     OW19729   3.056   3.474  13.065
 6388SOL    HW119730   3.062   3.381  13.102
 6388SOL    HW219731   2.997   3.474  12.985
 6389SOL     OW19732   2.778   2.772  13.325
 6389SOL    HW119733   2.841   2.810  13.257
 6389SOL    HW219734   2.818   2.689  13.364
 6390SOL     OW19735   3.366   3.469  13.078
 6390SOL    HW119736   3.274   3.506  13.085
 6390SOL    HW219737   3.404   3.489  12.988
 6391SOL     OW19738   2.901   2.960  13.730
 6391SOL    HW119739   2.831   2.913  13.784
 6391SOL    HW219740   2.960   2.892  13.687
 6392SOL     OW19741   2.452   3.349  13.525
 6392SOL    HW119742   2.494   3.291  13.455
 6392SOL    HW219743   2.408   3.428  13.481
 6393SOL     OW19744   2.117   3.210  13.324
 6393SOL    HW119745   2.021   3.211  13.297
 6393SOL    HW219746   2.129   3.263  13.408
 6394SOL     OW19747   3.045   3.197  13.153
 6394SOL    HW119748   2.946   3.186  13.155
 6394SOL    HW219749   3.079   3.212  13.246
 6395SOL     OW19750   3.087   2.187  13.483
 6395SOL    HW119751   3.152   2.113  13.472
 6395SOL    HW219752   3.107   2.237  13.567
 6396SOL     OW19753   2.456   2.607  13.686
 6396SOL    HW119754   2.506   2.692  13.667
 6396SOL    HW219755   2.368   2.609  13.638
 6397SOL     OW19756   2.721   3.236  13.050
 6397SOL    HW119757   2.675   3.251  13.138
 6397SOL    HW219758   2.765   3.321  13.020
 6398SOL     OW19759   2.523   3.652  13.987
 6398SOL    HW119760   2.477   3.740  13.974
 6398SOL    HW219761   2.622   3.664  13.980
 6399SOL     OW19762   2.721   2.818  13.895
 6399SOL    HW119763   2.775   2.749  13.943
 6399SOL    HW219764   2.689   2.887  13.961
 6400SOL     OW19765   2.945   2.846  13.121
 6400SOL    HW119766   2.922   2.899  13.039
 6400SOL    HW219767   3.026   2.790  13.102
 6401SOL     OW19768   1.941   3.102  13.687
 6401SOL    HW119769   1.940   3.055  13.775
 6401SOL    HW219770   2.023   3.074  13.636
 6402SOL     OW19771   2.290   2.286  13.554
 6402SOL    HW119772   2.320   2.214  13.492
 6402SOL    HW219773   2.251   2.246  13.637
 6403SOL     OW19774   3.567   3.349  14.138
 6403SOL    HW119775   3.474   3.324  14.111
 6403SOL    HW219776   3.593   3.299  14.220
 6404SOL     OW19777   2.674   3.448  13.721
 6404SOL    HW119778   2.706   3.458  13.627
 6404SOL    HW219779   2.595   3.386  13.723
 6405SOL     OW19780   2.632   3.192  13.335
 6405SOL    HW119781   2.586   3.105  13.352
 6405SOL    HW219782   2.723   3.189  13.376
 6406SOL     OW19783   3.214   1.914  13.202
 6406SOL    HW119784   3.249   1.873  13.118
 6406SOL    HW219785   3.124   1.876  13.222
 6407SOL     OW19786   3.162   2.315  13.725
 6407SOL    HW119787   3.103   2.395  13.729
 6407SOL    HW219788   3.177   2.280  13.818
 6408SOL     OW19789   1.901   2.939  13.334
 6408SOL    HW119790   2.000   2.928  13.325
 6408SOL    HW219791   1.861   2.853  13.366
 6409SOL     OW19792   2.737   3.508  13.371
 6409SOL    HW119793   2.660   3.473  13.317
 6409SOL    HW219794   2.705   3.579  13.433
 6410SOL     OW19795   2.087   3.999   0.996
 6410SOL    HW119796   2.122   3.982   1.088
 6410SOL    HW219797   1.999   3.954   0.984
 6411SOL     OW19798   1.881   4.092   0.647
 6411SOL    HW119799   1.799   4.135   0.686
 6411SOL    HW219800   1.853   4.019   0.584
 6412SOL     OW19801   3.617   4.331   0.231
 6412SOL    HW119802   3.605   4.318   0.132
 6412SOL    HW219803   3.587   4.250   0.280
 6413SOL     OW19804   2.300   4.116   1.499
 6413SOL    HW119805   2.382   4.060   1.508
 6413SOL    HW219806   2.219   4.058   1.503
 6414SOL     OW19807   3.456   3.838   1.480
 6414SOL    HW119808   3.438   3.905   1.408
 6414SOL    HW219809   3.453   3.884   1.569
 6415SOL     OW19810   2.671   3.728   0.502
 6415SOL    HW119811   2.711   3.819   0.493
 6415SOL    HW219812   2.571   3.736   0.508
 6416SOL     OW19813   3.143   4.069   0.944
 6416SOL    HW119814   3.057   4.019   0.931
 6416SOL    HW219815   3.205   4.015   1.000
 6417SOL     OW19816   2.412   3.920   0.885
 6417SOL    HW119817   2.407   3.915   0.985
 6417SOL    HW219818   2.414   4.016   0.856
 6418SOL     OW19819   2.064   4.009   1.498
 6418SOL    HW119820   1.984   4.069   1.485
 6418SOL    HW219821   2.054   3.960   1.584
 6419SOL     OW19822   3.262   3.831   0.426
 6419SOL    HW119823   3.238   3.794   0.336
 6419SOL    HW219824   3.361   3.847   0.430
 6420SOL     OW19825   3.409   3.946   1.729
 6420SOL    HW119826   3.404   3.983   1.821
 6420SOL    HW219827   3.337   3.877   1.717
 6421SOL     OW19828   2.643   3.988   1.749
 6421SOL    HW119829   2.710   3.927   1.792
 6421SOL    HW219830   2.570   4.007   1.814
 6422SOL     OW19831   2.401   3.788   0.512
 6422SOL    HW119832   2.320   3.789   0.570
 6422SOL    HW219833   2.404   3.871   0.457
 6423SOL     OW19834   2.159   3.759   0.171
 6423SOL    HW119835   2.208   3.843   0.150
 6423SOL    HW219836   2.221   3.694   0.216
 6424SOL     OW19837   2.423   3.946   1.147
 6424SOL    HW119838   2.461   3.862   1.184
 6424SOL    HW219839   2.335   3.965   1.191
 6425SOL     OW19840   2.879   3.763   0.753
 6425SOL    HW119841   2.807   3.768   0.684
 6425SOL    HW219842   2.855   3.694   0.822
 6426SOL     OW19843   2.777   3.813   1.402
 6426SOL    HW119844   2.802   3.793   1.307
 6426SOL    HW219845   2.849   3.869   1.444
 6427SOL     OW19846   3.136   4.110   1.262
 6427SOL    HW119847   3.157   4.184   1.326
 6427SOL    HW219848   3.047   4.127   1.219
 6428SOL     OW19849   2.366   3.774   1.740
 6428SOL    HW119850   2.324   3.717   1.670
 6428SOL    HW219851   2.300   3.843   1.772
 6429SOL     OW19852   2.169   3.937   1.231
 6429SOL    HW119853   2.146   3.974   1.321
 6429SOL    HW219854   2.139   3.842   1.225
 6430SOL     OW19855   3.402   3.998   0.125
 6430SOL    HW119856   3.341   3.923   0.148
 6430SOL    HW219857   3.424   4.050   0.208
 6431SOL     OW19858   3.022   3.931   1.477
 6431SOL    HW119859   3.022   3.995   1.554
 6431SOL    HW219860   3.050   3.979   1.394
 6432SOL     OW19861   2.765   3.810   0.133
 6432SOL    HW119862   2.816   3.811   0.047
 6432SOL    HW219863   2.821   3.768   0.204
 6433SOL     OW19864   3.588   3.859   0.523
 6433SOL    HW119865   3.661   3.842   0.456
 6433SOL    HW219866   3.557   3.772   0.561
 6434SOL     OW19867   3.703   3.899   0.963
 6434SOL    HW119868   3.742   3.814   0.927
 6434SOL    HW219869   3.605   3.901   0.944
 6435SOL     OW19870   2.534   3.927   1.489
 6435SOL    HW119871   2.624   3.911   1.449
 6435SOL    HW219872   2.542   3.932   1.588
 6436SOL     OW19873   1.934   3.890   0.318
 6436SOL    HW119874   1.917   3.973   0.264
 6436SOL    HW219875   2.024   3.853   0.296
 6437SOL     OW19876   3.087   4.049   0.449
 6437SOL    HW119877   3.152   3.975   0.438
 6437SOL    HW219878   3.107   4.099   0.533
 6438SOL     OW19879   3.639   4.066   1.642
 6438SOL    HW119880   3.622   4.097   1.548
 6438SOL    HW219881   3.555   4.029   1.680
 6439SOL     OW19882   3.686   3.916   1.227
 6439SOL    HW119883   3.682   3.826   1.271
 6439SOL    HW219884   3.689   3.905   1.128
 6440SOL     OW19885   3.286   3.938   1.112
 6440SOL    HW119886   3.338   3.873   1.167
 6440SOL    HW219887   3.237   4.001   1.173
 6441SOL     OW19888   2.863   3.758   1.154
 6441SOL    HW119889   2.800   3.686   1.123
 6441SOL    HW219890   2.956   3.722   1.154
 6442SOL     OW19891   3.214   3.776   0.168
 6442SOL    HW119892   3.249   3.735   0.084
 6442SOL    HW219893   3.124   3.738   0.188
 6443SOL     OW19894   3.162   4.177   0.691
 6443SOL    HW119895   3.103   4.257   0.695
 6443SOL    HW219896   3.177   4.142   0.784
 6444SOL     OW19897   3.455   3.945   0.882
 6444SOL    HW119898   3.371   3.944   0.936
 6444SOL    HW219899   3.457   4.028   0.826
 6445SOL     OW19900   2.087   3.999   2.858
 6445SOL    HW119901   2.122   3.982   2.950
 6445SOL    HW219902   1.999   3.954   2.846
 6446SOL     OW19903   1.881   4.092   2.509
 6446SOL    HW119904   1.799   4.135   2.548
 6446SOL    HW219905   1.853   4.019   2.446
 6447SOL     OW19906   3.617   4.331   2.093
 6447SOL    HW119907   3.605   4.318   1.994
 6447SOL    HW219908   3.587   4.250   2.142
 6448SOL     OW19909   2.300   4.116   3.361
 6448SOL    HW119910   2.382   4.060   3.370
 6448SOL    HW219911   2.219   4.058   3.365
 6449SOL     OW19912   3.456   3.838   3.342
 6449SOL    HW119913   3.438   3.905   3.270
 6449SOL    HW219914   3.453   3.884   3.431
 6450SOL     OW19915   2.671   3.728   2.364
 6450SOL    HW119916   2.711   3.819   2.355
 6450SOL    HW219917   2.571   3.736   2.370
 6451SOL     OW19918   3.143   4.069   2.806
 6451SOL    HW119919   3.057   4.019   2.793
 6451SOL    HW219920   3.205   4.015   2.862
 6452SOL     OW19921   2.412   3.920   2.747
 6452SOL    HW119922   2.407   3.915   2.847
 6452SOL    HW219923   2.414   4.016   2.718
 6453SOL     OW19924   2.064   4.009   3.360
 6453SOL    HW119925   1.984   4.069   3.347
 6453SOL    HW219926   2.054   3.960   3.446
 6454SOL     OW19927   3.262   3.831   2.288
 6454SOL    HW119928   3.238   3.794   2.198
 6454SOL    HW219929   3.361   3.847   2.292
 6455SOL     OW19930   3.409   3.946   3.591
 6455SOL    HW119931   3.404   3.983   3.683
 6455SOL    HW219932   3.337   3.877   3.579
 6456SOL     OW19933   2.476   3.846   1.979
 6456SOL    HW119934   2.574   3.824   1.986
 6456SOL    HW219935   2.445   3.829   1.886
 6457SOL     OW19936   2.643   3.988   3.611
 6457SOL    HW119937   2.710   3.927   3.654
 6457SOL    HW219938   2.570   4.007   3.676
 6458SOL     OW19939   2.401   3.788   2.374
 6458SOL    HW119940   2.320   3.789   2.432
 6458SOL    HW219941   2.404   3.871   2.319
 6459SOL     OW19942   2.159   3.759   2.033
 6459SOL    HW119943   2.208   3.843   2.012
 6459SOL    HW219944   2.221   3.694   2.078
 6460SOL     OW19945   2.423   3.946   3.009
 6460SOL    HW119946   2.461   3.862   3.046
 6460SOL    HW219947   2.335   3.965   3.053
 6461SOL     OW19948   2.879   3.763   2.615
 6461SOL    HW119949   2.807   3.768   2.546
 6461SOL    HW219950   2.855   3.694   2.684
 6462SOL     OW19951   2.777   3.813   3.264
 6462SOL    HW119952   2.802   3.793   3.169
 6462SOL    HW219953   2.849   3.869   3.306
 6463SOL     OW19954   3.136   4.110   3.124
 6463SOL    HW119955   3.157   4.184   3.188
 6463SOL    HW219956   3.047   4.127   3.081
 6464SOL     OW19957   2.366   3.774   3.602
 6464SOL    HW119958   2.324   3.717   3.532
 6464SOL    HW219959   2.300   3.843   3.634
 6465SOL     OW19960   2.169   3.937   3.093
 6465SOL    HW119961   2.146   3.974   3.183
 6465SOL    HW219962   2.139   3.842   3.087
 6466SOL     OW19963   3.402   3.998   1.987
 6466SOL    HW119964   3.341   3.923   2.010
 6466SOL    HW219965   3.424   4.050   2.070
 6467SOL     OW19966   3.022   3.931   3.339
 6467SOL    HW119967   3.022   3.995   3.416
 6467SOL    HW219968   3.050   3.979   3.256
 6468SOL     OW19969   2.765   3.810   1.995
 6468SOL    HW119970   2.816   3.811   1.909
 6468SOL    HW219971   2.821   3.768   2.066
 6469SOL     OW19972   3.588   3.859   2.385
 6469SOL    HW119973   3.661   3.842   2.318
 6469SOL    HW219974   3.557   3.772   2.423
 6470SOL     OW19975   3.703   3.899   2.825
 6470SOL    HW119976   3.742   3.814   2.789
 6470SOL    HW219977   3.605   3.901   2.806
 6471SOL     OW19978   2.534   3.927   3.351
 6471SOL    HW119979   2.624   3.911   3.311
 6471SOL    HW219980   2.542   3.932   3.450
 6472SOL     OW19981   1.937   4.069   1.895
 6472SOL    HW119982   1.845   4.041   1.866
 6472SOL    HW219983   1.968   4.146   1.839
 6473SOL     OW19984   1.934   3.890   2.180
 6473SOL    HW119985   1.917   3.973   2.126
 6473SOL    HW219986   2.024   3.853   2.158
 6474SOL     OW19987   3.087   4.049   2.311
 6474SOL    HW119988   3.152   3.975   2.300
 6474SOL    HW219989   3.107   4.099   2.395
 6475SOL     OW19990   3.639   4.066   3.504
 6475SOL    HW119991   3.622   4.097   3.410
 6475SOL    HW219992   3.555   4.029   3.542
 6476SOL     OW19993   3.686   3.916   3.089
 6476SOL    HW119994   3.682   3.826   3.133
 6476SOL    HW219995   3.689   3.905   2.990
 6477SOL     OW19996   3.286   3.938   2.974
 6477SOL    HW119997   3.338   3.873   3.029
 6477SOL    HW219998   3.237   4.001   3.035
 6478SOL     OW19999   2.863   3.758   3.016
 6478SOL    HW120000   2.800   3.686   2.985
 6478SOL    HW220001   2.956   3.722   3.016
 6479SOL     OW20002   3.214   3.776   2.030
 6479SOL    HW120003   3.249   3.735   1.946
 6479SOL    HW220004   3.124   3.738   2.050
 6480SOL     OW20005   3.162   4.177   2.553
 6480SOL    HW120006   3.103   4.257   2.557
 6480SOL    HW220007   3.177   4.142   2.646
 6481SOL     OW20008   3.455   3.945   2.744
 6481SOL    HW120009   3.371   3.944   2.798
 6481SOL    HW220010   3.457   4.028   2.688
 6482SOL     OW20011   2.087   3.999   4.720
 6482SOL    HW120012   2.122   3.982   4.812
 6482SOL    HW220013   1.999   3.954   4.708
 6483SOL     OW20014   1.881   4.092   4.371
 6483SOL    HW120015   1.799   4.135   4.410
 6483SOL    HW220016   1.853   4.019   4.308
 6484SOL     OW20017   3.617   4.331   3.955
 6484SOL    HW120018   3.605   4.318   3.856
 6484SOL    HW220019   3.587   4.250   4.004
 6485SOL     OW20020   2.300   4.116   5.223
 6485SOL    HW120021   2.382   4.060   5.232
 6485SOL    HW220022   2.219   4.058   5.227
 6486SOL     OW20023   3.456   3.838   5.204
 6486SOL    HW120024   3.438   3.905   5.132
 6486SOL    HW220025   3.453   3.884   5.293
 6487SOL     OW20026   2.671   3.728   4.226
 6487SOL    HW120027   2.711   3.819   4.217
 6487SOL    HW220028   2.571   3.736   4.232
 6488SOL     OW20029   3.143   4.069   4.668
 6488SOL    HW120030   3.057   4.019   4.655
 6488SOL    HW220031   3.205   4.015   4.724
 6489SOL     OW20032   2.412   3.920   4.609
 6489SOL    HW120033   2.407   3.915   4.709
 6489SOL    HW220034   2.414   4.016   4.580
 6490SOL     OW20035   2.064   4.009   5.222
 6490SOL    HW120036   1.984   4.069   5.209
 6490SOL    HW220037   2.054   3.960   5.308
 6491SOL     OW20038   3.262   3.831   4.150
 6491SOL    HW120039   3.238   3.794   4.060
 6491SOL    HW220040   3.361   3.847   4.154
 6492SOL     OW20041   3.409   3.946   5.453
 6492SOL    HW120042   3.404   3.983   5.545
 6492SOL    HW220043   3.337   3.877   5.441
 6493SOL     OW20044   2.476   3.846   3.841
 6493SOL    HW120045   2.574   3.824   3.848
 6493SOL    HW220046   2.445   3.829   3.748
 6494SOL     OW20047   2.643   3.988   5.473
 6494SOL    HW120048   2.710   3.927   5.516
 6494SOL    HW220049   2.570   4.007   5.538
 6495SOL     OW20050   2.401   3.788   4.236
 6495SOL    HW120051   2.320   3.789   4.294
 6495SOL    HW220052   2.404   3.871   4.181
 6496SOL     OW20053   2.159   3.759   3.895
 6496SOL    HW120054   2.208   3.843   3.874
 6496SOL    HW220055   2.221   3.694   3.940
 6497SOL     OW20056   2.423   3.946   4.871
 6497SOL    HW120057   2.461   3.862   4.908
 6497SOL    HW220058   2.335   3.965   4.915
 6498SOL     OW20059   2.879   3.763   4.477
 6498SOL    HW120060   2.807   3.768   4.408
 6498SOL    HW220061   2.855   3.694   4.546
 6499SOL     OW20062   2.777   3.813   5.126
 6499SOL    HW120063   2.802   3.793   5.031
 6499SOL    HW220064   2.849   3.869   5.168
 6500SOL     OW20065   3.136   4.110   4.986
 6500SOL    HW120066   3.157   4.184   5.050
 6500SOL    HW220067   3.047   4.127   4.943
 6501SOL     OW20068   2.366   3.774   5.464
 6501SOL    HW120069   2.324   3.717   5.394
 6501SOL    HW220070   2.300   3.843   5.496
 6502SOL     OW20071   2.169   3.937   4.955
 6502SOL    HW120072   2.146   3.974   5.045
 6502SOL    HW220073   2.139   3.842   4.949
 6503SOL     OW20074   3.402   3.998   3.849
 6503SOL    HW120075   3.341   3.923   3.872
 6503SOL    HW220076   3.424   4.050   3.932
 6504SOL     OW20077   3.022   3.931   5.201
 6504SOL    HW120078   3.022   3.995   5.278
 6504SOL    HW220079   3.050   3.979   5.118
 6505SOL     OW20080   2.765   3.810   3.857
 6505SOL    HW120081   2.816   3.811   3.771
 6505SOL    HW220082   2.821   3.768   3.928
 6506SOL     OW20083   3.588   3.859   4.247
 6506SOL    HW120084   3.661   3.842   4.180
 6506SOL    HW220085   3.557   3.772   4.285
 6507SOL     OW20086   3.703   3.899   4.687
 6507SOL    HW120087   3.742   3.814   4.651
 6507SOL    HW220088   3.605   3.901   4.668
 6508SOL     OW20089   2.534   3.927   5.213
 6508SOL    HW120090   2.624   3.911   5.173
 6508SOL    HW220091   2.542   3.932   5.312
 6509SOL     OW20092   1.937   4.069   3.757
 6509SOL    HW120093   1.845   4.041   3.728
 6509SOL    HW220094   1.968   4.146   3.701
 6510SOL     OW20095   1.934   3.890   4.042
 6510SOL    HW120096   1.917   3.973   3.988
 6510SOL    HW220097   2.024   3.853   4.020
 6511SOL     OW20098   3.087   4.049   4.173
 6511SOL    HW120099   3.152   3.975   4.162
 6511SOL    HW220100   3.107   4.099   4.257
 6512SOL     OW20101   3.639   4.066   5.366
 6512SOL    HW120102   3.622   4.097   5.272
 6512SOL    HW220103   3.555   4.029   5.404
 6513SOL     OW20104   3.686   3.916   4.951
 6513SOL    HW120105   3.682   3.826   4.995
 6513SOL    HW220106   3.689   3.905   4.852
 6514SOL     OW20107   3.286   3.938   4.836
 6514SOL    HW120108   3.338   3.873   4.891
 6514SOL    HW220109   3.237   4.001   4.897
 6515SOL     OW20110   2.863   3.758   4.878
 6515SOL    HW120111   2.800   3.686   4.847
 6515SOL    HW220112   2.956   3.722   4.878
 6516SOL     OW20113   3.214   3.776   3.892
 6516SOL    HW120114   3.249   3.735   3.808
 6516SOL    HW220115   3.124   3.738   3.912
 6517SOL     OW20116   3.162   4.177   4.415
 6517SOL    HW120117   3.103   4.257   4.419
 6517SOL    HW220118   3.177   4.142   4.508
 6518SOL     OW20119   3.455   3.945   4.606
 6518SOL    HW120120   3.371   3.944   4.660
 6518SOL    HW220121   3.457   4.028   4.550
 6519SOL     OW20122   2.087   3.999   6.582
 6519SOL    HW120123   2.122   3.982   6.674
 6519SOL    HW220124   1.999   3.954   6.570
 6520SOL     OW20125   1.881   4.092   6.233
 6520SOL    HW120126   1.799   4.135   6.272
 6520SOL    HW220127   1.853   4.019   6.170
 6521SOL     OW20128   3.617   4.331   5.817
 6521SOL    HW120129   3.605   4.318   5.718
 6521SOL    HW220130   3.587   4.250   5.866
 6522SOL     OW20131   2.300   4.116   7.085
 6522SOL    HW120132   2.382   4.060   7.094
 6522SOL    HW220133   2.219   4.058   7.089
 6523SOL     OW20134   3.456   3.838   7.066
 6523SOL    HW120135   3.438   3.905   6.994
 6523SOL    HW220136   3.453   3.884   7.155
 6524SOL     OW20137   2.671   3.728   6.088
 6524SOL    HW120138   2.711   3.819   6.079
 6524SOL    HW220139   2.571   3.736   6.094
 6525SOL     OW20140   3.143   4.069   6.530
 6525SOL    HW120141   3.057   4.019   6.517
 6525SOL    HW220142   3.205   4.015   6.586
 6526SOL     OW20143   2.412   3.920   6.471
 6526SOL    HW120144   2.407   3.915   6.571
 6526SOL    HW220145   2.414   4.016   6.442
 6527SOL     OW20146   2.064   4.009   7.084
 6527SOL    HW120147   1.984   4.069   7.071
 6527SOL    HW220148   2.054   3.960   7.170
 6528SOL     OW20149   3.262   3.831   6.012
 6528SOL    HW120150   3.238   3.794   5.922
 6528SOL    HW220151   3.361   3.847   6.016
 6529SOL     OW20152   3.409   3.946   7.315
 6529SOL    HW120153   3.404   3.983   7.407
 6529SOL    HW220154   3.337   3.877   7.303
 6530SOL     OW20155   2.476   3.846   5.703
 6530SOL    HW120156   2.574   3.824   5.710
 6530SOL    HW220157   2.445   3.829   5.610
 6531SOL     OW20158   2.643   3.988   7.335
 6531SOL    HW120159   2.710   3.927   7.378
 6531SOL    HW220160   2.570   4.007   7.400
 6532SOL     OW20161   2.401   3.788   6.098
 6532SOL    HW120162   2.320   3.789   6.156
 6532SOL    HW220163   2.404   3.871   6.043
 6533SOL     OW20164   2.159   3.759   5.757
 6533SOL    HW120165   2.208   3.843   5.736
 6533SOL    HW220166   2.221   3.694   5.802
 6534SOL     OW20167   2.423   3.946   6.733
 6534SOL    HW120168   2.461   3.862   6.770
 6534SOL    HW220169   2.335   3.965   6.777
 6535SOL     OW20170   2.879   3.763   6.339
 6535SOL    HW120171   2.807   3.768   6.270
 6535SOL    HW220172   2.855   3.694   6.408
 6536SOL     OW20173   2.777   3.813   6.988
 6536SOL    HW120174   2.802   3.793   6.893
 6536SOL    HW220175   2.849   3.869   7.030
 6537SOL     OW20176   3.136   4.110   6.848
 6537SOL    HW120177   3.157   4.184   6.912
 6537SOL    HW220178   3.047   4.127   6.805
 6538SOL     OW20179   2.366   3.774   7.326
 6538SOL    HW120180   2.324   3.717   7.256
 6538SOL    HW220181   2.300   3.843   7.358
 6539SOL     OW20182   2.169   3.937   6.817
 6539SOL    HW120183   2.146   3.974   6.907
 6539SOL    HW220184   2.139   3.842   6.811
 6540SOL     OW20185   3.402   3.998   5.711
 6540SOL    HW120186   3.341   3.923   5.734
 6540SOL    HW220187   3.424   4.050   5.794
 6541SOL     OW20188   3.022   3.931   7.063
 6541SOL    HW120189   3.022   3.995   7.140
 6541SOL    HW220190   3.050   3.979   6.980
 6542SOL     OW20191   2.765   3.810   5.719
 6542SOL    HW120192   2.816   3.811   5.633
 6542SOL    HW220193   2.821   3.768   5.790
 6543SOL     OW20194   3.588   3.859   6.109
 6543SOL    HW120195   3.661   3.842   6.042
 6543SOL    HW220196   3.557   3.772   6.147
 6544SOL     OW20197   3.703   3.899   6.549
 6544SOL    HW120198   3.742   3.814   6.513
 6544SOL    HW220199   3.605   3.901   6.530
 6545SOL     OW20200   2.534   3.927   7.075
 6545SOL    HW120201   2.624   3.911   7.035
 6545SOL    HW220202   2.542   3.932   7.174
 6546SOL     OW20203   1.937   4.069   5.619
 6546SOL    HW120204   1.845   4.041   5.590
 6546SOL    HW220205   1.968   4.146   5.563
 6547SOL     OW20206   1.934   3.890   5.904
 6547SOL    HW120207   1.917   3.973   5.850
 6547SOL    HW220208   2.024   3.853   5.882
 6548SOL     OW20209   3.087   4.049   6.035
 6548SOL    HW120210   3.152   3.975   6.024
 6548SOL    HW220211   3.107   4.099   6.119
 6549SOL     OW20212   3.639   4.066   7.228
 6549SOL    HW120213   3.622   4.097   7.134
 6549SOL    HW220214   3.555   4.029   7.266
 6550SOL     OW20215   3.686   3.916   6.813
 6550SOL    HW120216   3.682   3.826   6.857
 6550SOL    HW220217   3.689   3.905   6.714
 6551SOL     OW20218   3.286   3.938   6.698
 6551SOL    HW120219   3.338   3.873   6.753
 6551SOL    HW220220   3.237   4.001   6.759
 6552SOL     OW20221   2.863   3.758   6.740
 6552SOL    HW120222   2.800   3.686   6.709
 6552SOL    HW220223   2.956   3.722   6.740
 6553SOL     OW20224   3.214   3.776   5.754
 6553SOL    HW120225   3.249   3.735   5.670
 6553SOL    HW220226   3.124   3.738   5.774
 6554SOL     OW20227   3.162   4.177   6.277
 6554SOL    HW120228   3.103   4.257   6.281
 6554SOL    HW220229   3.177   4.142   6.370
 6555SOL     OW20230   3.455   3.945   6.468
 6555SOL    HW120231   3.371   3.944   6.522
 6555SOL    HW220232   3.457   4.028   6.412
 6556SOL     OW20233   2.087   3.999   8.444
 6556SOL    HW120234   2.122   3.982   8.536
 6556SOL    HW220235   1.999   3.954   8.432
 6557SOL     OW20236   1.881   4.092   8.095
 6557SOL    HW120237   1.799   4.135   8.134
 6557SOL    HW220238   1.853   4.019   8.032
 6558SOL     OW20239   3.617   4.331   7.679
 6558SOL    HW120240   3.605   4.318   7.580
 6558SOL    HW220241   3.587   4.250   7.728
 6559SOL     OW20242   2.300   4.116   8.947
 6559SOL    HW120243   2.382   4.060   8.956
 6559SOL    HW220244   2.219   4.058   8.951
 6560SOL     OW20245   3.456   3.838   8.928
 6560SOL    HW120246   3.438   3.905   8.856
 6560SOL    HW220247   3.453   3.884   9.017
 6561SOL     OW20248   2.671   3.728   7.950
 6561SOL    HW120249   2.711   3.819   7.941
 6561SOL    HW220250   2.571   3.736   7.956
 6562SOL     OW20251   3.143   4.069   8.392
 6562SOL    HW120252   3.057   4.019   8.379
 6562SOL    HW220253   3.205   4.015   8.448
 6563SOL     OW20254   2.412   3.920   8.333
 6563SOL    HW120255   2.407   3.915   8.433
 6563SOL    HW220256   2.414   4.016   8.304
 6564SOL     OW20257   2.064   4.009   8.946
 6564SOL    HW120258   1.984   4.069   8.933
 6564SOL    HW220259   2.054   3.960   9.032
 6565SOL     OW20260   3.262   3.831   7.874
 6565SOL    HW120261   3.238   3.794   7.784
 6565SOL    HW220262   3.361   3.847   7.878
 6566SOL     OW20263   3.409   3.946   9.177
 6566SOL    HW120264   3.404   3.983   9.269
 6566SOL    HW220265   3.337   3.877   9.165
 6567SOL     OW20266   2.476   3.846   7.565
 6567SOL    HW120267   2.574   3.824   7.572
 6567SOL    HW220268   2.445   3.829   7.472
 6568SOL     OW20269   2.643   3.988   9.197
 6568SOL    HW120270   2.710   3.927   9.240
 6568SOL    HW220271   2.570   4.007   9.262
 6569SOL     OW20272   2.401   3.788   7.960
 6569SOL    HW120273   2.320   3.789   8.018
 6569SOL    HW220274   2.404   3.871   7.905
 6570SOL     OW20275   2.159   3.759   7.619
 6570SOL    HW120276   2.208   3.843   7.598
 6570SOL    HW220277   2.221   3.694   7.664
 6571SOL     OW20278   2.423   3.946   8.595
 6571SOL    HW120279   2.461   3.862   8.632
 6571SOL    HW220280   2.335   3.965   8.639
 6572SOL     OW20281   2.879   3.763   8.201
 6572SOL    HW120282   2.807   3.768   8.132
 6572SOL    HW220283   2.855   3.694   8.270
 6573SOL     OW20284   2.777   3.813   8.850
 6573SOL    HW120285   2.802   3.793   8.755
 6573SOL    HW220286   2.849   3.869   8.892
 6574SOL     OW20287   3.136   4.110   8.710
 6574SOL    HW120288   3.157   4.184   8.774
 6574SOL    HW220289   3.047   4.127   8.667
 6575SOL     OW20290   2.366   3.774   9.188
 6575SOL    HW120291   2.324   3.717   9.118
 6575SOL    HW220292   2.300   3.843   9.220
 6576SOL     OW20293   2.169   3.937   8.679
 6576SOL    HW120294   2.146   3.974   8.769
 6576SOL    HW220295   2.139   3.842   8.673
 6577SOL     OW20296   3.402   3.998   7.573
 6577SOL    HW120297   3.341   3.923   7.596
 6577SOL    HW220298   3.424   4.050   7.656
 6578SOL     OW20299   3.022   3.931   8.925
 6578SOL    HW120300   3.022   3.995   9.002
 6578SOL    HW220301   3.050   3.979   8.842
 6579SOL     OW20302   2.765   3.810   7.581
 6579SOL    HW120303   2.816   3.811   7.495
 6579SOL    HW220304   2.821   3.768   7.652
 6580SOL     OW20305   3.588   3.859   7.971
 6580SOL    HW120306   3.661   3.842   7.904
 6580SOL    HW220307   3.557   3.772   8.009
 6581SOL     OW20308   3.703   3.899   8.411
 6581SOL    HW120309   3.742   3.814   8.375
 6581SOL    HW220310   3.605   3.901   8.392
 6582SOL     OW20311   2.534   3.927   8.937
 6582SOL    HW120312   2.624   3.911   8.897
 6582SOL    HW220313   2.542   3.932   9.036
 6583SOL     OW20314   1.937   4.069   7.481
 6583SOL    HW120315   1.845   4.041   7.452
 6583SOL    HW220316   1.968   4.146   7.425
 6584SOL     OW20317   1.934   3.890   7.766
 6584SOL    HW120318   1.917   3.973   7.712
 6584SOL    HW220319   2.024   3.853   7.744
 6585SOL     OW20320   3.087   4.049   7.897
 6585SOL    HW120321   3.152   3.975   7.886
 6585SOL    HW220322   3.107   4.099   7.981
 6586SOL     OW20323   3.639   4.066   9.090
 6586SOL    HW120324   3.622   4.097   8.996
 6586SOL    HW220325   3.555   4.029   9.128
 6587SOL     OW20326   3.686   3.916   8.675
 6587SOL    HW120327   3.682   3.826   8.719
 6587SOL    HW220328   3.689   3.905   8.576
 6588SOL     OW20329   3.286   3.938   8.560
 6588SOL    HW120330   3.338   3.873   8.615
 6588SOL    HW220331   3.237   4.001   8.621
 6589SOL     OW20332   2.863   3.758   8.602
 6589SOL    HW120333   2.800   3.686   8.571
 6589SOL    HW220334   2.956   3.722   8.602
 6590SOL     OW20335   3.214   3.776   7.616
 6590SOL    HW120336   3.249   3.735   7.532
 6590SOL    HW220337   3.124   3.738   7.636
 6591SOL     OW20338   3.162   4.177   8.139
 6591SOL    HW120339   3.103   4.257   8.143
 6591SOL    HW220340   3.177   4.142   8.232
 6592SOL     OW20341   3.455   3.945   8.330
 6592SOL    HW120342   3.371   3.944   8.384
 6592SOL    HW220343   3.457   4.028   8.274
 6593SOL     OW20344   2.087   3.999  10.306
 6593SOL    HW120345   2.122   3.982  10.398
 6593SOL    HW220346   1.999   3.954  10.294
 6594SOL     OW20347   1.881   4.092   9.957
 6594SOL    HW120348   1.799   4.135   9.996
 6594SOL    HW220349   1.853   4.019   9.894
 6595SOL     OW20350   3.617   4.331   9.541
 6595SOL    HW120351   3.605   4.318   9.442
 6595SOL    HW220352   3.587   4.250   9.590
 6596SOL     OW20353   2.300   4.116  10.809
 6596SOL    HW120354   2.382   4.060  10.818
 6596SOL    HW220355   2.219   4.058  10.813
 6597SOL     OW20356   3.456   3.838  10.790
 6597SOL    HW120357   3.438   3.905  10.718
 6597SOL    HW220358   3.453   3.884  10.879
 6598SOL     OW20359   2.671   3.728   9.812
 6598SOL    HW120360   2.711   3.819   9.803
 6598SOL    HW220361   2.571   3.736   9.818
 6599SOL     OW20362   3.143   4.069  10.254
 6599SOL    HW120363   3.057   4.019  10.241
 6599SOL    HW220364   3.205   4.015  10.310
 6600SOL     OW20365   2.412   3.920  10.195
 6600SOL    HW120366   2.407   3.915  10.295
 6600SOL    HW220367   2.414   4.016  10.166
 6601SOL     OW20368   2.064   4.009  10.808
 6601SOL    HW120369   1.984   4.069  10.795
 6601SOL    HW220370   2.054   3.960  10.894
 6602SOL     OW20371   3.262   3.831   9.736
 6602SOL    HW120372   3.238   3.794   9.646
 6602SOL    HW220373   3.361   3.847   9.740
 6603SOL     OW20374   3.409   3.946  11.039
 6603SOL    HW120375   3.404   3.983  11.131
 6603SOL    HW220376   3.337   3.877  11.027
 6604SOL     OW20377   2.476   3.846   9.427
 6604SOL    HW120378   2.574   3.824   9.434
 6604SOL    HW220379   2.445   3.829   9.334
 6605SOL     OW20380   2.643   3.988  11.059
 6605SOL    HW120381   2.710   3.927  11.102
 6605SOL    HW220382   2.570   4.007  11.124
 6606SOL     OW20383   2.401   3.788   9.822
 6606SOL    HW120384   2.320   3.789   9.880
 6606SOL    HW220385   2.404   3.871   9.767
 6607SOL     OW20386   2.159   3.759   9.481
 6607SOL    HW120387   2.208   3.843   9.460
 6607SOL    HW220388   2.221   3.694   9.526
 6608SOL     OW20389   2.423   3.946  10.457
 6608SOL    HW120390   2.461   3.862  10.494
 6608SOL    HW220391   2.335   3.965  10.501
 6609SOL     OW20392   2.879   3.763  10.063
 6609SOL    HW120393   2.807   3.768   9.994
 6609SOL    HW220394   2.855   3.694  10.132
 6610SOL     OW20395   2.777   3.813  10.712
 6610SOL    HW120396   2.802   3.793  10.617
 6610SOL    HW220397   2.849   3.869  10.754
 6611SOL     OW20398   3.136   4.110  10.572
 6611SOL    HW120399   3.157   4.184  10.636
 6611SOL    HW220400   3.047   4.127  10.529
 6612SOL     OW20401   2.366   3.774  11.050
 6612SOL    HW120402   2.324   3.717  10.980
 6612SOL    HW220403   2.300   3.843  11.082
 6613SOL     OW20404   2.169   3.937  10.541
 6613SOL    HW120405   2.146   3.974  10.631
 6613SOL    HW220406   2.139   3.842  10.535
 6614SOL     OW20407   3.402   3.998   9.435
 6614SOL    HW120408   3.341   3.923   9.458
 6614SOL    HW220409   3.424   4.050   9.518
 6615SOL     OW20410   3.022   3.931  10.787
 6615SOL    HW120411   3.022   3.995  10.864
 6615SOL    HW220412   3.050   3.979  10.704
 6616SOL     OW20413   2.765   3.810   9.443
 6616SOL    HW120414   2.816   3.811   9.357
 6616SOL    HW220415   2.821   3.768   9.514
 6617SOL     OW20416   3.588   3.859   9.833
 6617SOL    HW120417   3.661   3.842   9.766
 6617SOL    HW220418   3.557   3.772   9.871
 6618SOL     OW20419   3.703   3.899  10.273
 6618SOL    HW120420   3.742   3.814  10.237
 6618SOL    HW220421   3.605   3.901  10.254
 6619SOL     OW20422   2.534   3.927  10.799
 6619SOL    HW120423   2.624   3.911  10.759
 6619SOL    HW220424   2.542   3.932  10.898
 6620SOL     OW20425   1.937   4.069   9.343
 6620SOL    HW120426   1.845   4.041   9.314
 6620SOL    HW220427   1.968   4.146   9.287
 6621SOL     OW20428   1.934   3.890   9.628
 6621SOL    HW120429   1.917   3.973   9.574
 6621SOL    HW220430   2.024   3.853   9.606
 6622SOL     OW20431   3.087   4.049   9.759
 6622SOL    HW120432   3.152   3.975   9.748
 6622SOL    HW220433   3.107   4.099   9.843
 6623SOL     OW20434   3.639   4.066  10.952
 6623SOL    HW120435   3.622   4.097  10.858
 6623SOL    HW220436   3.555   4.029  10.990
 6624SOL     OW20437   3.686   3.916  10.537
 6624SOL    HW120438   3.682   3.826  10.581
 6624SOL    HW220439   3.689   3.905  10.438
 6625SOL     OW20440   3.286   3.938  10.422
 6625SOL    HW120441   3.338   3.873  10.477
 6625SOL    HW220442   3.237   4.001  10.483
 6626SOL     OW20443   2.863   3.758  10.464
 6626SOL    HW120444   2.800   3.686  10.433
 6626SOL    HW220445   2.956   3.722  10.464
 6627SOL     OW20446   3.214   3.776   9.478
 6627SOL    HW120447   3.249   3.735   9.394
 6627SOL    HW220448   3.124   3.738   9.498
 6628SOL     OW20449   3.162   4.177  10.001
 6628SOL    HW120450   3.103   4.257  10.005
 6628SOL    HW220451   3.177   4.142  10.094
 6629SOL     OW20452   3.455   3.945  10.192
 6629SOL    HW120453   3.371   3.944  10.246
 6629SOL    HW220454   3.457   4.028  10.136
 6630SOL     OW20455   2.087   3.999  12.168
 6630SOL    HW120456   2.122   3.982  12.260
 6630SOL    HW220457   1.999   3.954  12.156
 6631SOL     OW20458   1.881   4.092  11.819
 6631SOL    HW120459   1.799   4.135  11.858
 6631SOL    HW220460   1.853   4.019  11.756
 6632SOL     OW20461   3.617   4.331  11.403
 6632SOL    HW120462   3.605   4.318  11.304
 6632SOL    HW220463   3.587   4.250  11.452
 6633SOL     OW20464   2.300   4.116  12.671
 6633SOL    HW120465   2.382   4.060  12.680
 6633SOL    HW220466   2.219   4.058  12.675
 6634SOL     OW20467   3.456   3.838  12.652
 6634SOL    HW120468   3.438   3.905  12.580
 6634SOL    HW220469   3.453   3.884  12.741
 6635SOL     OW20470   2.671   3.728  11.674
 6635SOL    HW120471   2.711   3.819  11.665
 6635SOL    HW220472   2.571   3.736  11.680
 6636SOL     OW20473   3.143   4.069  12.116
 6636SOL    HW120474   3.057   4.019  12.103
 6636SOL    HW220475   3.205   4.015  12.172
 6637SOL     OW20476   2.412   3.920  12.057
 6637SOL    HW120477   2.407   3.915  12.157
 6637SOL    HW220478   2.414   4.016  12.028
 6638SOL     OW20479   2.064   4.009  12.670
 6638SOL    HW120480   1.984   4.069  12.657
 6638SOL    HW220481   2.054   3.960  12.756
 6639SOL     OW20482   3.262   3.831  11.598
 6639SOL    HW120483   3.238   3.794  11.508
 6639SOL    HW220484   3.361   3.847  11.602
 6640SOL     OW20485   3.409   3.946  12.901
 6640SOL    HW120486   3.404   3.983  12.993
 6640SOL    HW220487   3.337   3.877  12.889
 6641SOL     OW20488   2.476   3.846  11.289
 6641SOL    HW120489   2.574   3.824  11.296
 6641SOL    HW220490   2.445   3.829  11.196
 6642SOL     OW20491   2.643   3.988  12.921
 6642SOL    HW120492   2.710   3.927  12.964
 6642SOL    HW220493   2.570   4.007  12.986
 6643SOL     OW20494   2.401   3.788  11.684
 6643SOL    HW120495   2.320   3.789  11.742
 6643SOL    HW220496   2.404   3.871  11.629
 6644SOL     OW20497   2.159   3.759  11.343
 6644SOL    HW120498   2.208   3.843  11.322
 6644SOL    HW220499   2.221   3.694  11.388
 6645SOL     OW20500   2.423   3.946  12.319
 6645SOL    HW120501   2.461   3.862  12.356
 6645SOL    HW220502   2.335   3.965  12.363
 6646SOL     OW20503   2.879   3.763  11.925
 6646SOL    HW120504   2.807   3.768  11.856
 6646SOL    HW220505   2.855   3.694  11.994
 6647SOL     OW20506   2.777   3.813  12.574
 6647SOL    HW120507   2.802   3.793  12.479
 6647SOL    HW220508   2.849   3.869  12.616
 6648SOL     OW20509   3.136   4.110  12.434
 6648SOL    HW120510   3.157   4.184  12.498
 6648SOL    HW220511   3.047   4.127  12.391
 6649SOL     OW20512   2.366   3.774  12.912
 6649SOL    HW120513   2.324   3.717  12.842
 6649SOL    HW220514   2.300   3.843  12.944
 6650SOL     OW20515   2.169   3.937  12.403
 6650SOL    HW120516   2.146   3.974  12.493
 6650SOL    HW220517   2.139   3.842  12.397
 6651SOL     OW20518   3.402   3.998  11.297
 6651SOL    HW120519   3.341   3.923  11.320
 6651SOL    HW220520   3.424   4.050  11.380
 6652SOL     OW20521   3.022   3.931  12.649
 6652SOL    HW120522   3.022   3.995  12.726
 6652SOL    HW220523   3.050   3.979  12.566
 6653SOL     OW20524   2.765   3.810  11.305
 6653SOL    HW120525   2.816   3.811  11.219
 6653SOL    HW220526   2.821   3.768  11.376
 6654SOL     OW20527   3.588   3.859  11.695
 6654SOL    HW120528   3.661   3.842  11.628
 6654SOL    HW220529   3.557   3.772  11.733
 6655SOL     OW20530   3.703   3.899  12.135
 6655SOL    HW120531   3.742   3.814  12.099
 6655SOL    HW220532   3.605   3.901  12.116
 6656SOL     OW20533   2.534   3.927  12.661
 6656SOL    HW120534   2.624   3.911  12.621
 6656SOL    HW220535   2.542   3.932  12.760
 6657SOL     OW20536   1.937   4.069  11.205
 6657SOL    HW120537   1.845   4.041  11.176
 6657SOL    HW220538   1.968   4.146  11.149
 6658SOL     OW20539   1.934   3.890  11.490
 6658SOL    HW120540   1.917   3.973  11.436
 6658SOL    HW220541   2.024   3.853  11.468
 6659SOL     OW20542   3.087   4.049  11.621
 6659SOL    HW120543   3.152   3.975  11.610
 6659SOL    HW220544   3.107   4.099  11.705
 6660SOL     OW20545   3.639   4.066  12.814
 6660SOL    HW120546   3.622   4.097  12.720
 6660SOL    HW220547   3.555   4.029  12.852
 6661SOL     OW20548   3.686   3.916  12.399
 6661SOL    HW120549   3.682   3.826  12.443
 6661SOL    HW220550   3.689   3.905  12.300
 6662SOL     OW20551   3.286   3.938  12.284
 6662SOL    HW120552   3.338   3.873  12.339
 6662SOL    HW220553   3.237   4.001  12.345
 6663SOL     OW20554   2.863   3.758  12.326
 6663SOL    HW120555   2.800   3.686  12.295
 6663SOL    HW220556   2.956   3.722  12.326
 6664SOL     OW20557   3.214   3.776  11.340
 6664SOL    HW120558   3.249   3.735  11.256
 6664SOL    HW220559   3.124   3.738  11.360
 6665SOL     OW20560   3.162   4.177  11.863
 6665SOL    HW120561   3.103   4.257  11.867
 6665SOL    HW220562   3.177   4.142  11.956
 6666SOL     OW20563   3.455   3.945  12.054
 6666SOL    HW120564   3.371   3.944  12.108
 6666SOL    HW220565   3.457   4.028  11.998
 6667SOL     OW20566   1.881   4.092  13.681
 6667SOL    HW120567   1.799   4.135  13.720
 6667SOL    HW220568   1.853   4.019  13.618
 6668SOL     OW20569   3.617   4.331  13.265
 6668SOL    HW120570   3.605   4.318  13.166
 6668SOL    HW220571   3.587   4.250  13.314
 6669SOL     OW20572   3.465   4.171  13.771
 6669SOL    HW120573   3.391   4.217  13.721
 6669SOL    HW220574   3.516   4.239  13.824
 6670SOL     OW20575   2.671   3.728  13.536
 6670SOL    HW120576   2.711   3.819  13.527
 6670SOL    HW220577   2.571   3.736  13.542
 6671SOL     OW20578   3.262   3.831  13.460
 6671SOL    HW120579   3.238   3.794  13.370
 6671SOL    HW220580   3.361   3.847  13.464
 6672SOL     OW20581   2.476   3.846  13.151
 6672SOL    HW120582   2.574   3.824  13.158
 6672SOL    HW220583   2.445   3.829  13.058
 6673SOL     OW20584   2.401   3.788  13.546
 6673SOL    HW120585   2.320   3.789  13.604
 6673SOL    HW220586   2.404   3.871  13.491
 6674SOL     OW20587   2.159   3.759  13.205
 6674SOL    HW120588   2.208   3.843  13.184
 6674SOL    HW220589   2.221   3.694  13.250
 6675SOL     OW20590   2.879   3.763  13.787
 6675SOL    HW120591   2.807   3.768  13.718
 6675SOL    HW220592   2.855   3.694  13.856
 6676SOL     OW20593   3.402   3.998  13.159
 6676SOL    HW120594   3.341   3.923  13.182
 6676SOL    HW220595   3.424   4.050  13.242
 6677SOL     OW20596   2.765   3.810  13.167
 6677SOL    HW120597   2.816   3.811  13.081
 6677SOL    HW220598   2.821   3.768  13.238
 6678SOL     OW20599   3.588   3.859  13.557
 6678SOL    HW120600   3.661   3.842  13.490
 6678SOL    HW220601   3.557   3.772  13.595
 6679SOL     OW20602   3.703   3.899  13.997
 6679SOL    HW120603   3.742   3.814  13.961
 6679SOL    HW220604   3.605   3.901  13.978
 6680SOL     OW20605   1.937   4.069  13.067
 6680SOL    HW120606   1.845   4.041  13.038
 6680SOL    HW220607   1.968   4.146  13.011
 6681SOL     OW20608   1.934   3.890  13.352
 6681SOL    HW120609   1.917   3.973  13.298
 6681SOL    HW220610   2.024   3.853  13.330
 6682SOL     OW20611   3.087   4.049  13.483
 6682SOL    HW120612   3.152   3.975  13.472
 6682SOL    HW220613   3.107   4.099  13.567
 6683SOL     OW20614   3.214   3.776  13.202
 6683SOL    HW120615   3.249   3.735  13.118
 6683SOL    HW220616   3.124   3.738  13.222
 6684SOL     OW20617   3.162   4.177  13.725
 6684SOL    HW120618   3.103   4.257  13.729
 6684SOL    HW220619   3.177   4.142  13.818
 6685SOL     OW20620   3.954   0.628   0.113
 6685SOL    HW120621   3.861   0.626   0.150
 6685SOL    HW220622   3.955   0.589   0.021
 6686SOL     OW20623   3.949   0.275   0.996
 6686SOL    HW120624   3.984   0.258   1.088
 6686SOL    HW220625   3.861   0.230   0.984
 6687SOL     OW20626   3.743   0.368   0.647
 6687SOL    HW120627   3.661   0.411   0.686
 6687SOL    HW220628   3.715   0.295   0.584
 6688SOL     OW20629   4.059   1.435   1.061
 6688SOL    HW120630   3.981   1.404   1.008
 6688SOL    HW220631   4.117   1.493   1.004
 6689SOL     OW20632   3.955   1.713   0.483
 6689SOL    HW120633   3.989   1.790   0.537
 6689SOL    HW220634   3.999   1.713   0.393
 6690SOL     OW20635   3.954   1.434   0.538
 6690SOL    HW120636   3.928   1.530   0.538
 6690SOL    HW220637   3.883   1.380   0.583
 6691SOL     OW20638   3.846   0.643   0.563
 6691SOL    HW120639   3.801   0.555   0.580
 6691SOL    HW220640   3.845   0.697   0.647
 6692SOL     OW20641   3.751   1.596   0.117
 6692SOL    HW120642   3.732   1.500   0.138
 6692SOL    HW220643   3.718   1.654   0.192
 6693SOL     OW20644   3.837   0.737   1.597
 6693SOL    HW120645   3.925   0.724   1.642
 6693SOL    HW220646   3.824   0.834   1.575
 6694SOL     OW20647   3.800   0.811   0.789
 6694SOL    HW120648   3.899   0.799   0.798
 6694SOL    HW220649   3.776   0.906   0.810
 6695SOL     OW20650   3.854   1.821   1.571
 6695SOL    HW120651   3.844   1.806   1.670
 6695SOL    HW220652   3.768   1.857   1.535
 6696SOL     OW20653   3.926   0.285   1.498
 6696SOL    HW120654   3.846   0.345   1.485
 6696SOL    HW220655   3.916   0.236   1.584
 6697SOL     OW20656   3.802   0.556   1.386
 6697SOL    HW120657   3.894   0.555   1.345
 6697SOL    HW220658   3.796   0.630   1.453
 6698SOL     OW20659   3.788   1.564   1.331
 6698SOL    HW120660   3.742   1.646   1.297
 6698SOL    HW220661   3.886   1.583   1.340
 6699SOL     OW20662   4.091   1.100   0.501
 6699SOL    HW120663   4.084   1.183   0.445
 6699SOL    HW220664   4.095   1.020   0.441
 6700SOL     OW20665   4.031   0.213   1.231
 6700SOL    HW120666   4.008   0.250   1.321
 6700SOL    HW220667   4.001   0.118   1.225
 6701SOL     OW20668   3.761   1.310   1.282
 6701SOL    HW120669   3.814   1.261   1.350
 6701SOL    HW220670   3.783   1.408   1.287
 6702SOL     OW20671   3.732   1.326   0.200
 6702SOL    HW120672   3.639   1.347   0.169
 6702SOL    HW220673   3.742   1.227   0.213
 6703SOL     OW20674   3.812   1.801   0.927
 6703SOL    HW120675   3.770   1.715   0.900
 6703SOL    HW220676   3.906   1.804   0.893
 6704SOL     OW20677   4.228   1.568   0.910
 6704SOL    HW120678   4.294   1.642   0.919
 6704SOL    HW220679   4.272   1.489   0.868
 6705SOL     OW20680   3.764   0.544   1.114
 6705SOL    HW120681   3.849   0.511   1.073
 6705SOL    HW220682   3.777   0.559   1.212
 6706SOL     OW20683   3.913   0.520   1.722
 6706SOL    HW120684   3.972   0.480   1.652
 6706SOL    HW220685   3.855   0.591   1.681
 6707SOL     OW20686   3.976   1.564   1.744
 6707SOL    HW120687   3.946   1.621   1.820
 6707SOL    HW220688   3.969   1.467   1.770
 6708SOL     OW20689   3.883   1.137   1.466
 6708SOL    HW120690   3.905   1.076   1.542
 6708SOL    HW220691   3.893   1.088   1.380
 6709SOL     OW20692   3.807   1.258   1.022
 6709SOL    HW120693   3.802   1.257   1.122
 6709SOL    HW220694   3.724   1.217   0.984
 6710SOL     OW20695   3.854   1.794   1.851
 6710SOL    HW120696   3.813   1.720   1.904
 6710SOL    HW220697   3.918   1.845   1.909
 6711SOL     OW20698   3.799   0.345   0.033
 6711SOL    HW120699   3.707   0.317   0.004
 6711SOL    HW220700   3.830   0.422  -0.023
 6712SOL     OW20701   3.796   0.166   0.318
 6712SOL    HW120702   3.779   0.249   0.264
 6712SOL    HW220703   3.886   0.129   0.296
 6713SOL     OW20704   3.803   1.240   0.653
 6713SOL    HW120705   3.802   1.193   0.741
 6713SOL    HW220706   3.885   1.212   0.602
 6714SOL     OW20707   3.763   1.077   0.300
 6714SOL    HW120708   3.862   1.066   0.291
 6714SOL    HW220709   3.723   0.991   0.332
 6715SOL     OW20710   3.954   0.628   1.975
 6715SOL    HW120711   3.861   0.626   2.012
 6715SOL    HW220712   3.955   0.589   1.883
 6716SOL     OW20713   3.949   0.275   2.858
 6716SOL    HW120714   3.984   0.258   2.950
 6716SOL    HW220715   3.861   0.230   2.846
 6717SOL     OW20716   3.743   0.368   2.509
 6717SOL    HW120717   3.661   0.411   2.548
 6717SOL    HW220718   3.715   0.295   2.446
 6718SOL     OW20719   4.059   1.435   2.923
 6718SOL    HW120720   3.981   1.404   2.870
 6718SOL    HW220721   4.117   1.493   2.866
 6719SOL     OW20722   3.955   1.713   2.345
 6719SOL    HW120723   3.989   1.790   2.399
 6719SOL    HW220724   3.999   1.713   2.255
 6720SOL     OW20725   3.954   1.434   2.400
 6720SOL    HW120726   3.928   1.530   2.400
 6720SOL    HW220727   3.883   1.380   2.445
 6721SOL     OW20728   3.846   0.643   2.425
 6721SOL    HW120729   3.801   0.555   2.442
 6721SOL    HW220730   3.845   0.697   2.509
 6722SOL     OW20731   3.751   1.596   1.979
 6722SOL    HW120732   3.732   1.500   2.000
 6722SOL    HW220733   3.718   1.654   2.054
 6723SOL     OW20734   3.837   0.737   3.459
 6723SOL    HW120735   3.925   0.724   3.504
 6723SOL    HW220736   3.824   0.834   3.437
 6724SOL     OW20737   3.800   0.811   2.651
 6724SOL    HW120738   3.899   0.799   2.660
 6724SOL    HW220739   3.776   0.906   2.672
 6725SOL     OW20740   3.854   1.821   3.433
 6725SOL    HW120741   3.844   1.806   3.532
 6725SOL    HW220742   3.768   1.857   3.397
 6726SOL     OW20743   3.926   0.285   3.360
 6726SOL    HW120744   3.846   0.345   3.347
 6726SOL    HW220745   3.916   0.236   3.446
 6727SOL     OW20746   3.802   0.556   3.248
 6727SOL    HW120747   3.894   0.555   3.207
 6727SOL    HW220748   3.796   0.630   3.315
 6728SOL     OW20749   4.251   0.256   2.190
 6728SOL    HW120750   4.278   0.197   2.115
 6728SOL    HW220751   4.251   0.351   2.159
 6729SOL     OW20752   3.788   1.564   3.193
 6729SOL    HW120753   3.742   1.646   3.159
 6729SOL    HW220754   3.886   1.583   3.202
 6730SOL     OW20755   4.091   1.100   2.363
 6730SOL    HW120756   4.084   1.183   2.307
 6730SOL    HW220757   4.095   1.020   2.303
 6731SOL     OW20758   4.031   0.213   3.093
 6731SOL    HW120759   4.008   0.250   3.183
 6731SOL    HW220760   4.001   0.118   3.087
 6732SOL     OW20761   3.761   1.310   3.144
 6732SOL    HW120762   3.814   1.261   3.212
 6732SOL    HW220763   3.783   1.408   3.149
 6733SOL     OW20764   3.732   1.326   2.062
 6733SOL    HW120765   3.639   1.347   2.031
 6733SOL    HW220766   3.742   1.227   2.075
 6734SOL     OW20767   3.812   1.801   2.789
 6734SOL    HW120768   3.770   1.715   2.762
 6734SOL    HW220769   3.906   1.804   2.755
 6735SOL     OW20770   4.228   1.568   2.772
 6735SOL    HW120771   4.294   1.642   2.781
 6735SOL    HW220772   4.272   1.489   2.730
 6736SOL     OW20773   3.764   0.544   2.976
 6736SOL    HW120774   3.849   0.511   2.935
 6736SOL    HW220775   3.777   0.559   3.074
 6737SOL     OW20776   3.913   0.520   3.584
 6737SOL    HW120777   3.972   0.480   3.514
 6737SOL    HW220778   3.855   0.591   3.543
 6738SOL     OW20779   3.976   1.564   3.606
 6738SOL    HW120780   3.946   1.621   3.682
 6738SOL    HW220781   3.969   1.467   3.632
 6739SOL     OW20782   3.883   1.137   3.328
 6739SOL    HW120783   3.905   1.076   3.404
 6739SOL    HW220784   3.893   1.088   3.242
 6740SOL     OW20785   3.807   1.258   2.884
 6740SOL    HW120786   3.802   1.257   2.984
 6740SOL    HW220787   3.724   1.217   2.846
 6741SOL     OW20788   3.854   1.794   3.713
 6741SOL    HW120789   3.813   1.720   3.766
 6741SOL    HW220790   3.918   1.845   3.771
 6742SOL     OW20791   3.799   0.345   1.895
 6742SOL    HW120792   3.707   0.317   1.866
 6742SOL    HW220793   3.830   0.422   1.839
 6743SOL     OW20794   3.796   0.166   2.180
 6743SOL    HW120795   3.779   0.249   2.126
 6743SOL    HW220796   3.886   0.129   2.158
 6744SOL     OW20797   3.803   1.240   2.515
 6744SOL    HW120798   3.802   1.193   2.603
 6744SOL    HW220799   3.885   1.212   2.464
 6745SOL     OW20800   3.763   1.077   2.162
 6745SOL    HW120801   3.862   1.066   2.153
 6745SOL    HW220802   3.723   0.991   2.194
 6746SOL     OW20803   3.954   0.628   3.837
 6746SOL    HW120804   3.861   0.626   3.874
 6746SOL    HW220805   3.955   0.589   3.745
 6747SOL     OW20806   3.949   0.275   4.720
 6747SOL    HW120807   3.984   0.258   4.812
 6747SOL    HW220808   3.861   0.230   4.708
 6748SOL     OW20809   3.743   0.368   4.371
 6748SOL    HW120810   3.661   0.411   4.410
 6748SOL    HW220811   3.715   0.295   4.308
 6749SOL     OW20812   4.059   1.435   4.785
 6749SOL    HW120813   3.981   1.404   4.732
 6749SOL    HW220814   4.117   1.493   4.728
 6750SOL     OW20815   3.955   1.713   4.207
 6750SOL    HW120816   3.989   1.790   4.261
 6750SOL    HW220817   3.999   1.713   4.117
 6751SOL     OW20818   3.954   1.434   4.262
 6751SOL    HW120819   3.928   1.530   4.262
 6751SOL    HW220820   3.883   1.380   4.307
 6752SOL     OW20821   3.846   0.643   4.287
 6752SOL    HW120822   3.801   0.555   4.304
 6752SOL    HW220823   3.845   0.697   4.371
 6753SOL     OW20824   3.751   1.596   3.841
 6753SOL    HW120825   3.732   1.500   3.862
 6753SOL    HW220826   3.718   1.654   3.916
 6754SOL     OW20827   3.837   0.737   5.321
 6754SOL    HW120828   3.925   0.724   5.366
 6754SOL    HW220829   3.824   0.834   5.299
 6755SOL     OW20830   3.800   0.811   4.513
 6755SOL    HW120831   3.899   0.799   4.522
 6755SOL    HW220832   3.776   0.906   4.534
 6756SOL     OW20833   3.854   1.821   5.295
 6756SOL    HW120834   3.844   1.806   5.394
 6756SOL    HW220835   3.768   1.857   5.259
 6757SOL     OW20836   3.926   0.285   5.222
 6757SOL    HW120837   3.846   0.345   5.209
 6757SOL    HW220838   3.916   0.236   5.308
 6758SOL     OW20839   3.802   0.556   5.110
 6758SOL    HW120840   3.894   0.555   5.069
 6758SOL    HW220841   3.796   0.630   5.177
 6759SOL     OW20842   4.251   0.256   4.052
 6759SOL    HW120843   4.278   0.197   3.977
 6759SOL    HW220844   4.251   0.351   4.021
 6760SOL     OW20845   3.788   1.564   5.055
 6760SOL    HW120846   3.742   1.646   5.021
 6760SOL    HW220847   3.886   1.583   5.064
 6761SOL     OW20848   4.091   1.100   4.225
 6761SOL    HW120849   4.084   1.183   4.169
 6761SOL    HW220850   4.095   1.020   4.165
 6762SOL     OW20851   4.031   0.213   4.955
 6762SOL    HW120852   4.008   0.250   5.045
 6762SOL    HW220853   4.001   0.118   4.949
 6763SOL     OW20854   3.761   1.310   5.006
 6763SOL    HW120855   3.814   1.261   5.074
 6763SOL    HW220856   3.783   1.408   5.011
 6764SOL     OW20857   3.732   1.326   3.924
 6764SOL    HW120858   3.639   1.347   3.893
 6764SOL    HW220859   3.742   1.227   3.937
 6765SOL     OW20860   3.812   1.801   4.651
 6765SOL    HW120861   3.770   1.715   4.624
 6765SOL    HW220862   3.906   1.804   4.617
 6766SOL     OW20863   4.228   1.568   4.634
 6766SOL    HW120864   4.294   1.642   4.643
 6766SOL    HW220865   4.272   1.489   4.592
 6767SOL     OW20866   3.764   0.544   4.838
 6767SOL    HW120867   3.849   0.511   4.797
 6767SOL    HW220868   3.777   0.559   4.936
 6768SOL     OW20869   3.913   0.520   5.446
 6768SOL    HW120870   3.972   0.480   5.376
 6768SOL    HW220871   3.855   0.591   5.405
 6769SOL     OW20872   3.976   1.564   5.468
 6769SOL    HW120873   3.946   1.621   5.544
 6769SOL    HW220874   3.969   1.467   5.494
 6770SOL     OW20875   3.883   1.137   5.190
 6770SOL    HW120876   3.905   1.076   5.266
 6770SOL    HW220877   3.893   1.088   5.104
 6771SOL     OW20878   3.807   1.258   4.746
 6771SOL    HW120879   3.802   1.257   4.846
 6771SOL    HW220880   3.724   1.217   4.708
 6772SOL     OW20881   3.854   1.794   5.575
 6772SOL    HW120882   3.813   1.720   5.628
 6772SOL    HW220883   3.918   1.845   5.633
 6773SOL     OW20884   3.799   0.345   3.757
 6773SOL    HW120885   3.707   0.317   3.728
 6773SOL    HW220886   3.830   0.422   3.701
 6774SOL     OW20887   3.796   0.166   4.042
 6774SOL    HW120888   3.779   0.249   3.988
 6774SOL    HW220889   3.886   0.129   4.020
 6775SOL     OW20890   3.803   1.240   4.377
 6775SOL    HW120891   3.802   1.193   4.465
 6775SOL    HW220892   3.885   1.212   4.326
 6776SOL     OW20893   3.763   1.077   4.024
 6776SOL    HW120894   3.862   1.066   4.015
 6776SOL    HW220895   3.723   0.991   4.056
 6777SOL     OW20896   3.954   0.628   5.699
 6777SOL    HW120897   3.861   0.626   5.736
 6777SOL    HW220898   3.955   0.589   5.607
 6778SOL     OW20899   3.949   0.275   6.582
 6778SOL    HW120900   3.984   0.258   6.674
 6778SOL    HW220901   3.861   0.230   6.570
 6779SOL     OW20902   3.743   0.368   6.233
 6779SOL    HW120903   3.661   0.411   6.272
 6779SOL    HW220904   3.715   0.295   6.170
 6780SOL     OW20905   4.059   1.435   6.647
 6780SOL    HW120906   3.981   1.404   6.594
 6780SOL    HW220907   4.117   1.493   6.590
 6781SOL     OW20908   3.955   1.713   6.069
 6781SOL    HW120909   3.989   1.790   6.123
 6781SOL    HW220910   3.999   1.713   5.979
 6782SOL     OW20911   3.954   1.434   6.124
 6782SOL    HW120912   3.928   1.530   6.124
 6782SOL    HW220913   3.883   1.380   6.169
 6783SOL     OW20914   3.846   0.643   6.149
 6783SOL    HW120915   3.801   0.555   6.166
 6783SOL    HW220916   3.845   0.697   6.233
 6784SOL     OW20917   3.751   1.596   5.703
 6784SOL    HW120918   3.732   1.500   5.724
 6784SOL    HW220919   3.718   1.654   5.778
 6785SOL     OW20920   3.837   0.737   7.183
 6785SOL    HW120921   3.925   0.724   7.228
 6785SOL    HW220922   3.824   0.834   7.161
 6786SOL     OW20923   3.800   0.811   6.375
 6786SOL    HW120924   3.899   0.799   6.384
 6786SOL    HW220925   3.776   0.906   6.396
 6787SOL     OW20926   3.854   1.821   7.157
 6787SOL    HW120927   3.844   1.806   7.256
 6787SOL    HW220928   3.768   1.857   7.121
 6788SOL     OW20929   3.926   0.285   7.084
 6788SOL    HW120930   3.846   0.345   7.071
 6788SOL    HW220931   3.916   0.236   7.170
 6789SOL     OW20932   3.802   0.556   6.972
 6789SOL    HW120933   3.894   0.555   6.931
 6789SOL    HW220934   3.796   0.630   7.039
 6790SOL     OW20935   4.251   0.256   5.914
 6790SOL    HW120936   4.278   0.197   5.839
 6790SOL    HW220937   4.251   0.351   5.883
 6791SOL     OW20938   3.788   1.564   6.917
 6791SOL    HW120939   3.742   1.646   6.883
 6791SOL    HW220940   3.886   1.583   6.926
 6792SOL     OW20941   4.091   1.100   6.087
 6792SOL    HW120942   4.084   1.183   6.031
 6792SOL    HW220943   4.095   1.020   6.027
 6793SOL     OW20944   4.031   0.213   6.817
 6793SOL    HW120945   4.008   0.250   6.907
 6793SOL    HW220946   4.001   0.118   6.811
 6794SOL     OW20947   3.761   1.310   6.868
 6794SOL    HW120948   3.814   1.261   6.936
 6794SOL    HW220949   3.783   1.408   6.873
 6795SOL     OW20950   3.732   1.326   5.786
 6795SOL    HW120951   3.639   1.347   5.755
 6795SOL    HW220952   3.742   1.227   5.799
 6796SOL     OW20953   3.812   1.801   6.513
 6796SOL    HW120954   3.770   1.715   6.486
 6796SOL    HW220955   3.906   1.804   6.479
 6797SOL     OW20956   4.228   1.568   6.496
 6797SOL    HW120957   4.294   1.642   6.505
 6797SOL    HW220958   4.272   1.489   6.454
 6798SOL     OW20959   3.764   0.544   6.700
 6798SOL    HW120960   3.849   0.511   6.659
 6798SOL    HW220961   3.777   0.559   6.798
 6799SOL     OW20962   3.913   0.520   7.308
 6799SOL    HW120963   3.972   0.480   7.238
 6799SOL    HW220964   3.855   0.591   7.267
 6800SOL     OW20965   3.976   1.564   7.330
 6800SOL    HW120966   3.946   1.621   7.406
 6800SOL    HW220967   3.969   1.467   7.356
 6801SOL     OW20968   3.883   1.137   7.052
 6801SOL    HW120969   3.905   1.076   7.128
 6801SOL    HW220970   3.893   1.088   6.966
 6802SOL     OW20971   3.807   1.258   6.608
 6802SOL    HW120972   3.802   1.257   6.708
 6802SOL    HW220973   3.724   1.217   6.570
 6803SOL     OW20974   3.854   1.794   7.437
 6803SOL    HW120975   3.813   1.720   7.490
 6803SOL    HW220976   3.918   1.845   7.495
 6804SOL     OW20977   3.799   0.345   5.619
 6804SOL    HW120978   3.707   0.317   5.590
 6804SOL    HW220979   3.830   0.422   5.563
 6805SOL     OW20980   3.796   0.166   5.904
 6805SOL    HW120981   3.779   0.249   5.850
 6805SOL    HW220982   3.886   0.129   5.882
 6806SOL     OW20983   3.803   1.240   6.239
 6806SOL    HW120984   3.802   1.193   6.327
 6806SOL    HW220985   3.885   1.212   6.188
 6807SOL     OW20986   3.763   1.077   5.886
 6807SOL    HW120987   3.862   1.066   5.877
 6807SOL    HW220988   3.723   0.991   5.918
 6808SOL     OW20989   3.954   0.628   7.561
 6808SOL    HW120990   3.861   0.626   7.598
 6808SOL    HW220991   3.955   0.589   7.469
 6809SOL     OW20992   3.949   0.275   8.444
 6809SOL    HW120993   3.984   0.258   8.536
 6809SOL    HW220994   3.861   0.230   8.432
 6810SOL     OW20995   3.743   0.368   8.095
 6810SOL    HW120996   3.661   0.411   8.134
 6810SOL    HW220997   3.715   0.295   8.032
 6811SOL     OW20998   4.059   1.435   8.509
 6811SOL    HW120999   3.981   1.404   8.456
 6811SOL    HW221000   4.117   1.493   8.452
 6812SOL     OW21001   3.955   1.713   7.931
 6812SOL    HW121002   3.989   1.790   7.985
 6812SOL    HW221003   3.999   1.713   7.841
 6813SOL     OW21004   3.954   1.434   7.986
 6813SOL    HW121005   3.928   1.530   7.986
 6813SOL    HW221006   3.883   1.380   8.031
 6814SOL     OW21007   3.846   0.643   8.011
 6814SOL    HW121008   3.801   0.555   8.028
 6814SOL    HW221009   3.845   0.697   8.095
 6815SOL     OW21010   3.751   1.596   7.565
 6815SOL    HW121011   3.732   1.500   7.586
 6815SOL    HW221012   3.718   1.654   7.640
 6816SOL     OW21013   3.837   0.737   9.045
 6816SOL    HW121014   3.925   0.724   9.090
 6816SOL    HW221015   3.824   0.834   9.023
 6817SOL     OW21016   3.800   0.811   8.237
 6817SOL    HW121017   3.899   0.799   8.246
 6817SOL    HW221018   3.776   0.906   8.258
 6818SOL     OW21019   3.854   1.821   9.019
 6818SOL    HW121020   3.844   1.806   9.118
 6818SOL    HW221021   3.768   1.857   8.983
 6819SOL     OW21022   3.926   0.285   8.946
 6819SOL    HW121023   3.846   0.345   8.933
 6819SOL    HW221024   3.916   0.236   9.032
 6820SOL     OW21025   3.802   0.556   8.834
 6820SOL    HW121026   3.894   0.555   8.793
 6820SOL    HW221027   3.796   0.630   8.901
 6821SOL     OW21028   4.251   0.256   7.776
 6821SOL    HW121029   4.278   0.197   7.701
 6821SOL    HW221030   4.251   0.351   7.745
 6822SOL     OW21031   3.788   1.564   8.779
 6822SOL    HW121032   3.742   1.646   8.745
 6822SOL    HW221033   3.886   1.583   8.788
 6823SOL     OW21034   4.091   1.100   7.949
 6823SOL    HW121035   4.084   1.183   7.893
 6823SOL    HW221036   4.095   1.020   7.889
 6824SOL     OW21037   4.031   0.213   8.679
 6824SOL    HW121038   4.008   0.250   8.769
 6824SOL    HW221039   4.001   0.118   8.673
 6825SOL     OW21040   3.761   1.310   8.730
 6825SOL    HW121041   3.814   1.261   8.798
 6825SOL    HW221042   3.783   1.408   8.735
 6826SOL     OW21043   3.732   1.326   7.648
 6826SOL    HW121044   3.639   1.347   7.617
 6826SOL    HW221045   3.742   1.227   7.661
 6827SOL     OW21046   3.812   1.801   8.375
 6827SOL    HW121047   3.770   1.715   8.348
 6827SOL    HW221048   3.906   1.804   8.341
 6828SOL     OW21049   4.228   1.568   8.358
 6828SOL    HW121050   4.294   1.642   8.367
 6828SOL    HW221051   4.272   1.489   8.316
 6829SOL     OW21052   3.764   0.544   8.562
 6829SOL    HW121053   3.849   0.511   8.521
 6829SOL    HW221054   3.777   0.559   8.660
 6830SOL     OW21055   3.913   0.520   9.170
 6830SOL    HW121056   3.972   0.480   9.100
 6830SOL    HW221057   3.855   0.591   9.129
 6831SOL     OW21058   3.976   1.564   9.192
 6831SOL    HW121059   3.946   1.621   9.268
 6831SOL    HW221060   3.969   1.467   9.218
 6832SOL     OW21061   3.883   1.137   8.914
 6832SOL    HW121062   3.905   1.076   8.990
 6832SOL    HW221063   3.893   1.088   8.828
 6833SOL     OW21064   3.807   1.258   8.470
 6833SOL    HW121065   3.802   1.257   8.570
 6833SOL    HW221066   3.724   1.217   8.432
 6834SOL     OW21067   3.854   1.794   9.299
 6834SOL    HW121068   3.813   1.720   9.352
 6834SOL    HW221069   3.918   1.845   9.357
 6835SOL     OW21070   3.799   0.345   7.481
 6835SOL    HW121071   3.707   0.317   7.452
 6835SOL    HW221072   3.830   0.422   7.425
 6836SOL     OW21073   3.796   0.166   7.766
 6836SOL    HW121074   3.779   0.249   7.712
 6836SOL    HW221075   3.886   0.129   7.744
 6837SOL     OW21076   3.803   1.240   8.101
 6837SOL    HW121077   3.802   1.193   8.189
 6837SOL    HW221078   3.885   1.212   8.050
 6838SOL     OW21079   3.763   1.077   7.748
 6838SOL    HW121080   3.862   1.066   7.739
 6838SOL    HW221081   3.723   0.991   7.780
 6839SOL     OW21082   3.954   0.628   9.423
 6839SOL    HW121083   3.861   0.626   9.460
 6839SOL    HW221084   3.955   0.589   9.331
 6840SOL     OW21085   3.949   0.275  10.306
 6840SOL    HW121086   3.984   0.258  10.398
 6840SOL    HW221087   3.861   0.230  10.294
 6841SOL     OW21088   3.743   0.368   9.957
 6841SOL    HW121089   3.661   0.411   9.996
 6841SOL    HW221090   3.715   0.295   9.894
 6842SOL     OW21091   4.059   1.435  10.371
 6842SOL    HW121092   3.981   1.404  10.318
 6842SOL    HW221093   4.117   1.493  10.314
 6843SOL     OW21094   3.955   1.713   9.793
 6843SOL    HW121095   3.989   1.790   9.847
 6843SOL    HW221096   3.999   1.713   9.703
 6844SOL     OW21097   3.954   1.434   9.848
 6844SOL    HW121098   3.928   1.530   9.848
 6844SOL    HW221099   3.883   1.380   9.893
 6845SOL     OW21100   3.846   0.643   9.873
 6845SOL    HW121101   3.801   0.555   9.890
 6845SOL    HW221102   3.845   0.697   9.957
 6846SOL     OW21103   3.751   1.596   9.427
 6846SOL    HW121104   3.732   1.500   9.448
 6846SOL    HW221105   3.718   1.654   9.502
 6847SOL     OW21106   3.837   0.737  10.907
 6847SOL    HW121107   3.925   0.724  10.952
 6847SOL    HW221108   3.824   0.834  10.885
 6848SOL     OW21109   3.800   0.811  10.099
 6848SOL    HW121110   3.899   0.799  10.108
 6848SOL    HW221111   3.776   0.906  10.120
 6849SOL     OW21112   3.854   1.821  10.881
 6849SOL    HW121113   3.844   1.806  10.980
 6849SOL    HW221114   3.768   1.857  10.845
 6850SOL     OW21115   3.926   0.285  10.808
 6850SOL    HW121116   3.846   0.345  10.795
 6850SOL    HW221117   3.916   0.236  10.894
 6851SOL     OW21118   3.802   0.556  10.696
 6851SOL    HW121119   3.894   0.555  10.655
 6851SOL    HW221120   3.796   0.630  10.763
 6852SOL     OW21121   4.251   0.256   9.638
 6852SOL    HW121122   4.278   0.197   9.563
 6852SOL    HW221123   4.251   0.351   9.607
 6853SOL     OW21124   3.788   1.564  10.641
 6853SOL    HW121125   3.742   1.646  10.607
 6853SOL    HW221126   3.886   1.583  10.650
 6854SOL     OW21127   4.091   1.100   9.811
 6854SOL    HW121128   4.084   1.183   9.755
 6854SOL    HW221129   4.095   1.020   9.751
 6855SOL     OW21130   4.031   0.213  10.541
 6855SOL    HW121131   4.008   0.250  10.631
 6855SOL    HW221132   4.001   0.118  10.535
 6856SOL     OW21133   3.761   1.310  10.592
 6856SOL    HW121134   3.814   1.261  10.660
 6856SOL    HW221135   3.783   1.408  10.597
 6857SOL     OW21136   3.732   1.326   9.510
 6857SOL    HW121137   3.639   1.347   9.479
 6857SOL    HW221138   3.742   1.227   9.523
 6858SOL     OW21139   3.812   1.801  10.237
 6858SOL    HW121140   3.770   1.715  10.210
 6858SOL    HW221141   3.906   1.804  10.203
 6859SOL     OW21142   4.228   1.568  10.220
 6859SOL    HW121143   4.294   1.642  10.229
 6859SOL    HW221144   4.272   1.489  10.178
 6860SOL     OW21145   3.764   0.544  10.424
 6860SOL    HW121146   3.849   0.511  10.383
 6860SOL    HW221147   3.777   0.559  10.522
 6861SOL     OW21148   3.913   0.520  11.032
 6861SOL    HW121149   3.972   0.480  10.962
 6861SOL    HW221150   3.855   0.591  10.991
 6862SOL     OW21151   3.976   1.564  11.054
 6862SOL    HW121152   3.946   1.621  11.130
 6862SOL    HW221153   3.969   1.467  11.080
 6863SOL     OW21154   3.883   1.137  10.776
 6863SOL    HW121155   3.905   1.076  10.852
 6863SOL    HW221156   3.893   1.088  10.690
 6864SOL     OW21157   3.807   1.258  10.332
 6864SOL    HW121158   3.802   1.257  10.432
 6864SOL    HW221159   3.724   1.217  10.294
 6865SOL     OW21160   3.854   1.794  11.161
 6865SOL    HW121161   3.813   1.720  11.214
 6865SOL    HW221162   3.918   1.845  11.219
 6866SOL     OW21163   3.799   0.345   9.343
 6866SOL    HW121164   3.707   0.317   9.314
 6866SOL    HW221165   3.830   0.422   9.287
 6867SOL     OW21166   3.796   0.166   9.628
 6867SOL    HW121167   3.779   0.249   9.574
 6867SOL    HW221168   3.886   0.129   9.606
 6868SOL     OW21169   3.803   1.240   9.963
 6868SOL    HW121170   3.802   1.193  10.051
 6868SOL    HW221171   3.885   1.212   9.912
 6869SOL     OW21172   3.763   1.077   9.610
 6869SOL    HW121173   3.862   1.066   9.601
 6869SOL    HW221174   3.723   0.991   9.642
 6870SOL     OW21175   3.954   0.628  11.285
 6870SOL    HW121176   3.861   0.626  11.322
 6870SOL    HW221177   3.955   0.589  11.193
 6871SOL     OW21178   3.949   0.275  12.168
 6871SOL    HW121179   3.984   0.258  12.260
 6871SOL    HW221180   3.861   0.230  12.156
 6872SOL     OW21181   3.743   0.368  11.819
 6872SOL    HW121182   3.661   0.411  11.858
 6872SOL    HW221183   3.715   0.295  11.756
 6873SOL     OW21184   4.059   1.435  12.233
 6873SOL    HW121185   3.981   1.404  12.180
 6873SOL    HW221186   4.117   1.493  12.176
 6874SOL     OW21187   3.955   1.713  11.655
 6874SOL    HW121188   3.989   1.790  11.709
 6874SOL    HW221189   3.999   1.713  11.565
 6875SOL     OW21190   3.954   1.434  11.710
 6875SOL    HW121191   3.928   1.530  11.710
 6875SOL    HW221192   3.883   1.380  11.755
 6876SOL     OW21193   3.846   0.643  11.735
 6876SOL    HW121194   3.801   0.555  11.752
 6876SOL    HW221195   3.845   0.697  11.819
 6877SOL     OW21196   3.751   1.596  11.289
 6877SOL    HW121197   3.732   1.500  11.310
 6877SOL    HW221198   3.718   1.654  11.364
 6878SOL     OW21199   3.837   0.737  12.769
 6878SOL    HW121200   3.925   0.724  12.814
 6878SOL    HW221201   3.824   0.834  12.747
 6879SOL     OW21202   3.800   0.811  11.961
 6879SOL    HW121203   3.899   0.799  11.970
 6879SOL    HW221204   3.776   0.906  11.982
 6880SOL     OW21205   3.854   1.821  12.743
 6880SOL    HW121206   3.844   1.806  12.842
 6880SOL    HW221207   3.768   1.857  12.707
 6881SOL     OW21208   3.926   0.285  12.670
 6881SOL    HW121209   3.846   0.345  12.657
 6881SOL    HW221210   3.916   0.236  12.756
 6882SOL     OW21211   3.802   0.556  12.558
 6882SOL    HW121212   3.894   0.555  12.517
 6882SOL    HW221213   3.796   0.630  12.625
 6883SOL     OW21214   4.251   0.256  11.500
 6883SOL    HW121215   4.278   0.197  11.425
 6883SOL    HW221216   4.251   0.351  11.469
 6884SOL     OW21217   3.788   1.564  12.503
 6884SOL    HW121218   3.742   1.646  12.469
 6884SOL    HW221219   3.886   1.583  12.512
 6885SOL     OW21220   4.091   1.100  11.673
 6885SOL    HW121221   4.084   1.183  11.617
 6885SOL    HW221222   4.095   1.020  11.613
 6886SOL     OW21223   4.031   0.213  12.403
 6886SOL    HW121224   4.008   0.250  12.493
 6886SOL    HW221225   4.001   0.118  12.397
 6887SOL     OW21226   3.761   1.310  12.454
 6887SOL    HW121227   3.814   1.261  12.522
 6887SOL    HW221228   3.783   1.408  12.459
 6888SOL     OW21229   3.732   1.326  11.372
 6888SOL    HW121230   3.639   1.347  11.341
 6888SOL    HW221231   3.742   1.227  11.385
 6889SOL     OW21232   3.812   1.801  12.099
 6889SOL    HW121233   3.770   1.715  12.072
 6889SOL    HW221234   3.906   1.804  12.065
 6890SOL     OW21235   4.228   1.568  12.082
 6890SOL    HW121236   4.294   1.642  12.091
 6890SOL    HW221237   4.272   1.489  12.040
 6891SOL     OW21238   3.764   0.544  12.286
 6891SOL    HW121239   3.849   0.511  12.245
 6891SOL    HW221240   3.777   0.559  12.384
 6892SOL     OW21241   3.913   0.520  12.894
 6892SOL    HW121242   3.972   0.480  12.824
 6892SOL    HW221243   3.855   0.591  12.853
 6893SOL     OW21244   3.976   1.564  12.916
 6893SOL    HW121245   3.946   1.621  12.992
 6893SOL    HW221246   3.969   1.467  12.942
 6894SOL     OW21247   3.883   1.137  12.638
 6894SOL    HW121248   3.905   1.076  12.714
 6894SOL    HW221249   3.893   1.088  12.552
 6895SOL     OW21250   3.807   1.258  12.194
 6895SOL    HW121251   3.802   1.257  12.294
 6895SOL    HW221252   3.724   1.217  12.156
 6896SOL     OW21253   3.854   1.794  13.023
 6896SOL    HW121254   3.813   1.720  13.076
 6896SOL    HW221255   3.918   1.845  13.081
 6897SOL     OW21256   3.799   0.345  11.205
 6897SOL    HW121257   3.707   0.317  11.176
 6897SOL    HW221258   3.830   0.422  11.149
 6898SOL     OW21259   3.796   0.166  11.490
 6898SOL    HW121260   3.779   0.249  11.436
 6898SOL    HW221261   3.886   0.129  11.468
 6899SOL     OW21262   3.803   1.240  11.825
 6899SOL    HW121263   3.802   1.193  11.913
 6899SOL    HW221264   3.885   1.212  11.774
 6900SOL     OW21265   3.763   1.077  11.472
 6900SOL    HW121266   3.862   1.066  11.463
 6900SOL    HW221267   3.723   0.991  11.504
 6901SOL     OW21268   3.954   0.628  13.147
 6901SOL    HW121269   3.861   0.626  13.184
 6901SOL    HW221270   3.955   0.589  13.055
 6902SOL     OW21271   3.743   0.368  13.681
 6902SOL    HW121272   3.661   0.411  13.720
 6902SOL    HW221273   3.715   0.295  13.618
 6903SOL     OW21274   3.955   1.713  13.517
 6903SOL    HW121275   3.989   1.790  13.571
 6903SOL    HW221276   3.999   1.713  13.427
 6904SOL     OW21277   3.954   1.434  13.572
 6904SOL    HW121278   3.928   1.530  13.572
 6904SOL    HW221279   3.883   1.380  13.617
 6905SOL     OW21280   3.964   1.091  13.920
 6905SOL    HW121281   3.978   1.007  13.972
 6905SOL    HW221282   3.909   1.155  13.975
 6906SOL     OW21283   3.846   0.643  13.597
 6906SOL    HW121284   3.801   0.555  13.614
 6906SOL    HW221285   3.845   0.697  13.681
 6907SOL     OW21286   3.751   1.596  13.151
 6907SOL    HW121287   3.732   1.500  13.172
 6907SOL    HW221288   3.718   1.654  13.226
 6908SOL     OW21289   3.800   0.811  13.823
 6908SOL    HW121290   3.899   0.799  13.832
 6908SOL    HW221291   3.776   0.906  13.844
 6909SOL     OW21292   4.075   1.801  13.887
 6909SOL    HW121293   4.125   1.715  13.893
 6909SOL    HW221294   4.140   1.878  13.884
 6910SOL     OW21295   4.251   0.256  13.362
 6910SOL    HW121296   4.278   0.197  13.287
 6910SOL    HW221297   4.251   0.351  13.331
 6911SOL     OW21298   4.091   1.100  13.535
 6911SOL    HW121299   4.084   1.183  13.479
 6911SOL    HW221300   4.095   1.020  13.475
 6912SOL     OW21301   3.732   1.326  13.234
 6912SOL    HW121302   3.639   1.347  13.203
 6912SOL    HW221303   3.742   1.227  13.247
 6913SOL     OW21304   4.228   1.568  13.944
 6913SOL    HW121305   4.294   1.642  13.953
 6913SOL    HW221306   4.272   1.489  13.902
 6914SOL     OW21307   3.799   0.345  13.067
 6914SOL    HW121308   3.707   0.317  13.038
 6914SOL    HW221309   3.830   0.422  13.011
 6915SOL     OW21310   3.796   0.166  13.352
 6915SOL    HW121311   3.779   0.249  13.298
 6915SOL    HW221312   3.886   0.129  13.330
 6916SOL     OW21313   3.803   1.240  13.687
 6916SOL    HW121314   3.802   1.193  13.775
 6916SOL    HW221315   3.885   1.212  13.636
 6917SOL     OW21316   3.763   1.077  13.334
 6917SOL    HW121317   3.862   1.066  13.325
 6917SOL    HW221318   3.723   0.991  13.366
 6918SOL     OW21319   3.954   2.490   0.113
 6918SOL    HW121320   3.861   2.488   0.150
 6918SOL    HW221321   3.955   2.451   0.021
 6919SOL     OW21322   3.949   2.137   0.996
 6919SOL    HW121323   3.984   2.120   1.088
 6919SOL    HW221324   3.861   2.092   0.984
 6920SOL     OW21325   3.743   2.230   0.647
 6920SOL    HW121326   3.661   2.273   0.686
 6920SOL    HW221327   3.715   2.157   0.584
 6921SOL     OW21328   4.059   3.297   1.061
 6921SOL    HW121329   3.981   3.266   1.008
 6921SOL    HW221330   4.117   3.355   1.004
 6922SOL     OW21331   3.955   3.575   0.483
 6922SOL    HW121332   3.989   3.652   0.537
 6922SOL    HW221333   3.999   3.575   0.393
 6923SOL     OW21334   3.954   3.296   0.538
 6923SOL    HW121335   3.928   3.392   0.538
 6923SOL    HW221336   3.883   3.242   0.583
 6924SOL     OW21337   3.846   2.505   0.563
 6924SOL    HW121338   3.801   2.417   0.580
 6924SOL    HW221339   3.845   2.559   0.647
 6925SOL     OW21340   3.751   3.458   0.117
 6925SOL    HW121341   3.732   3.362   0.138
 6925SOL    HW221342   3.718   3.516   0.192
 6926SOL     OW21343   3.837   2.599   1.597
 6926SOL    HW121344   3.925   2.586   1.642
 6926SOL    HW221345   3.824   2.696   1.575
 6927SOL     OW21346   3.800   2.673   0.789
 6927SOL    HW121347   3.899   2.661   0.798
 6927SOL    HW221348   3.776   2.768   0.810
 6928SOL     OW21349   3.854   3.683   1.571
 6928SOL    HW121350   3.844   3.668   1.670
 6928SOL    HW221351   3.768   3.719   1.535
 6929SOL     OW21352   3.926   2.147   1.498
 6929SOL    HW121353   3.846   2.207   1.485
 6929SOL    HW221354   3.916   2.098   1.584
 6930SOL     OW21355   3.802   2.418   1.386
 6930SOL    HW121356   3.894   2.417   1.345
 6930SOL    HW221357   3.796   2.492   1.453
 6931SOL     OW21358   3.788   3.426   1.331
 6931SOL    HW121359   3.742   3.508   1.297
 6931SOL    HW221360   3.886   3.445   1.340
 6932SOL     OW21361   4.091   2.962   0.501
 6932SOL    HW121362   4.084   3.045   0.445
 6932SOL    HW221363   4.095   2.882   0.441
 6933SOL     OW21364   4.031   2.075   1.231
 6933SOL    HW121365   4.008   2.112   1.321
 6933SOL    HW221366   4.001   1.980   1.225
 6934SOL     OW21367   3.761   3.172   1.282
 6934SOL    HW121368   3.814   3.123   1.350
 6934SOL    HW221369   3.783   3.270   1.287
 6935SOL     OW21370   4.031   1.925   0.618
 6935SOL    HW121371   4.020   2.019   0.651
 6935SOL    HW221372   4.026   1.862   0.695
 6936SOL     OW21373   3.732   3.188   0.200
 6936SOL    HW121374   3.639   3.209   0.169
 6936SOL    HW221375   3.742   3.089   0.213
 6937SOL     OW21376   3.812   3.663   0.927
 6937SOL    HW121377   3.770   3.577   0.900
 6937SOL    HW221378   3.906   3.666   0.893
 6938SOL     OW21379   4.228   3.430   0.910
 6938SOL    HW121380   4.294   3.504   0.919
 6938SOL    HW221381   4.272   3.351   0.868
 6939SOL     OW21382   3.764   2.406   1.114
 6939SOL    HW121383   3.849   2.373   1.073
 6939SOL    HW221384   3.777   2.421   1.212
 6940SOL     OW21385   3.913   2.382   1.722
 6940SOL    HW121386   3.972   2.342   1.652
 6940SOL    HW221387   3.855   2.453   1.681
 6941SOL     OW21388   3.976   3.426   1.744
 6941SOL    HW121389   3.946   3.483   1.820
 6941SOL    HW221390   3.969   3.329   1.770
 6942SOL     OW21391   3.883   2.999   1.466
 6942SOL    HW121392   3.905   2.938   1.542
 6942SOL    HW221393   3.893   2.950   1.380
 6943SOL     OW21394   3.807   3.120   1.022
 6943SOL    HW121395   3.802   3.119   1.122
 6943SOL    HW221396   3.724   3.079   0.984
 6944SOL     OW21397   3.854   3.656   1.851
 6944SOL    HW121398   3.813   3.582   1.904
 6944SOL    HW221399   3.918   3.707   1.909
 6945SOL     OW21400   3.799   2.207   0.033
 6945SOL    HW121401   3.707   2.179   0.004
 6945SOL    HW221402   3.830   2.284  -0.023
 6946SOL     OW21403   3.796   2.028   0.318
 6946SOL    HW121404   3.779   2.111   0.264
 6946SOL    HW221405   3.886   1.991   0.296
 6947SOL     OW21406   3.803   3.102   0.653
 6947SOL    HW121407   3.802   3.055   0.741
 6947SOL    HW221408   3.885   3.074   0.602
 6948SOL     OW21409   3.763   2.939   0.300
 6948SOL    HW121410   3.862   2.928   0.291
 6948SOL    HW221411   3.723   2.853   0.332
 6949SOL     OW21412   3.954   2.490   1.975
 6949SOL    HW121413   3.861   2.488   2.012
 6949SOL    HW221414   3.955   2.451   1.883
 6950SOL     OW21415   3.949   2.137   2.858
 6950SOL    HW121416   3.984   2.120   2.950
 6950SOL    HW221417   3.861   2.092   2.846
 6951SOL     OW21418   3.743   2.230   2.509
 6951SOL    HW121419   3.661   2.273   2.548
 6951SOL    HW221420   3.715   2.157   2.446
 6952SOL     OW21421   4.059   3.297   2.923
 6952SOL    HW121422   3.981   3.266   2.870
 6952SOL    HW221423   4.117   3.355   2.866
 6953SOL     OW21424   3.955   3.575   2.345
 6953SOL    HW121425   3.989   3.652   2.399
 6953SOL    HW221426   3.999   3.575   2.255
 6954SOL     OW21427   3.954   3.296   2.400
 6954SOL    HW121428   3.928   3.392   2.400
 6954SOL    HW221429   3.883   3.242   2.445
 6955SOL     OW21430   3.846   2.505   2.425
 6955SOL    HW121431   3.801   2.417   2.442
 6955SOL    HW221432   3.845   2.559   2.509
 6956SOL     OW21433   3.751   3.458   1.979
 6956SOL    HW121434   3.732   3.362   2.000
 6956SOL    HW221435   3.718   3.516   2.054
 6957SOL     OW21436   3.837   2.599   3.459
 6957SOL    HW121437   3.925   2.586   3.504
 6957SOL    HW221438   3.824   2.696   3.437
 6958SOL     OW21439   3.800   2.673   2.651
 6958SOL    HW121440   3.899   2.661   2.660
 6958SOL    HW221441   3.776   2.768   2.672
 6959SOL     OW21442   3.854   3.683   3.433
 6959SOL    HW121443   3.844   3.668   3.532
 6959SOL    HW221444   3.768   3.719   3.397
 6960SOL     OW21445   3.926   2.147   3.360
 6960SOL    HW121446   3.846   2.207   3.347
 6960SOL    HW221447   3.916   2.098   3.446
 6961SOL     OW21448   4.021   1.897   2.033
 6961SOL    HW121449   4.070   1.981   2.012
 6961SOL    HW221450   4.083   1.832   2.078
 6962SOL     OW21451   3.802   2.418   3.248
 6962SOL    HW121452   3.894   2.417   3.207
 6962SOL    HW221453   3.796   2.492   3.315
 6963SOL     OW21454   4.251   2.118   2.190
 6963SOL    HW121455   4.278   2.059   2.115
 6963SOL    HW221456   4.251   2.213   2.159
 6964SOL     OW21457   3.788   3.426   3.193
 6964SOL    HW121458   3.742   3.508   3.159
 6964SOL    HW221459   3.886   3.445   3.202
 6965SOL     OW21460   4.091   2.962   2.363
 6965SOL    HW121461   4.084   3.045   2.307
 6965SOL    HW221462   4.095   2.882   2.303
 6966SOL     OW21463   4.031   2.075   3.093
 6966SOL    HW121464   4.008   2.112   3.183
 6966SOL    HW221465   4.001   1.980   3.087
 6967SOL     OW21466   3.761   3.172   3.144
 6967SOL    HW121467   3.814   3.123   3.212
 6967SOL    HW221468   3.783   3.270   3.149
 6968SOL     OW21469   4.031   1.925   2.480
 6968SOL    HW121470   4.020   2.019   2.513
 6968SOL    HW221471   4.026   1.862   2.557
 6969SOL     OW21472   3.732   3.188   2.062
 6969SOL    HW121473   3.639   3.209   2.031
 6969SOL    HW221474   3.742   3.089   2.075
 6970SOL     OW21475   3.812   3.663   2.789
 6970SOL    HW121476   3.770   3.577   2.762
 6970SOL    HW221477   3.906   3.666   2.755
 6971SOL     OW21478   4.228   3.430   2.772
 6971SOL    HW121479   4.294   3.504   2.781
 6971SOL    HW221480   4.272   3.351   2.730
 6972SOL     OW21481   3.764   2.406   2.976
 6972SOL    HW121482   3.849   2.373   2.935
 6972SOL    HW221483   3.777   2.421   3.074
 6973SOL     OW21484   3.913   2.382   3.584
 6973SOL    HW121485   3.972   2.342   3.514
 6973SOL    HW221486   3.855   2.453   3.543
 6974SOL     OW21487   3.976   3.426   3.606
 6974SOL    HW121488   3.946   3.483   3.682
 6974SOL    HW221489   3.969   3.329   3.632
 6975SOL     OW21490   3.883   2.999   3.328
 6975SOL    HW121491   3.905   2.938   3.404
 6975SOL    HW221492   3.893   2.950   3.242
 6976SOL     OW21493   3.807   3.120   2.884
 6976SOL    HW121494   3.802   3.119   2.984
 6976SOL    HW221495   3.724   3.079   2.846
 6977SOL     OW21496   3.854   3.656   3.713
 6977SOL    HW121497   3.813   3.582   3.766
 6977SOL    HW221498   3.918   3.707   3.771
 6978SOL     OW21499   3.799   2.207   1.895
 6978SOL    HW121500   3.707   2.179   1.866
 6978SOL    HW221501   3.830   2.284   1.839
 6979SOL     OW21502   3.796   2.028   2.180
 6979SOL    HW121503   3.779   2.111   2.126
 6979SOL    HW221504   3.886   1.991   2.158
 6980SOL     OW21505   3.803   3.102   2.515
 6980SOL    HW121506   3.802   3.055   2.603
 6980SOL    HW221507   3.885   3.074   2.464
 6981SOL     OW21508   3.763   2.939   2.162
 6981SOL    HW121509   3.862   2.928   2.153
 6981SOL    HW221510   3.723   2.853   2.194
 6982SOL     OW21511   3.954   2.490   3.837
 6982SOL    HW121512   3.861   2.488   3.874
 6982SOL    HW221513   3.955   2.451   3.745
 6983SOL     OW21514   3.949   2.137   4.720
 6983SOL    HW121515   3.984   2.120   4.812
 6983SOL    HW221516   3.861   2.092   4.708
 6984SOL     OW21517   3.743   2.230   4.371
 6984SOL    HW121518   3.661   2.273   4.410
 6984SOL    HW221519   3.715   2.157   4.308
 6985SOL     OW21520   4.059   3.297   4.785
 6985SOL    HW121521   3.981   3.266   4.732
 6985SOL    HW221522   4.117   3.355   4.728
 6986SOL     OW21523   3.955   3.575   4.207
 6986SOL    HW121524   3.989   3.652   4.261
 6986SOL    HW221525   3.999   3.575   4.117
 6987SOL     OW21526   3.954   3.296   4.262
 6987SOL    HW121527   3.928   3.392   4.262
 6987SOL    HW221528   3.883   3.242   4.307
 6988SOL     OW21529   3.846   2.505   4.287
 6988SOL    HW121530   3.801   2.417   4.304
 6988SOL    HW221531   3.845   2.559   4.371
 6989SOL     OW21532   3.751   3.458   3.841
 6989SOL    HW121533   3.732   3.362   3.862
 6989SOL    HW221534   3.718   3.516   3.916
 6990SOL     OW21535   3.837   2.599   5.321
 6990SOL    HW121536   3.925   2.586   5.366
 6990SOL    HW221537   3.824   2.696   5.299
 6991SOL     OW21538   3.800   2.673   4.513
 6991SOL    HW121539   3.899   2.661   4.522
 6991SOL    HW221540   3.776   2.768   4.534
 6992SOL     OW21541   3.854   3.683   5.295
 6992SOL    HW121542   3.844   3.668   5.394
 6992SOL    HW221543   3.768   3.719   5.259
 6993SOL     OW21544   3.926   2.147   5.222
 6993SOL    HW121545   3.846   2.207   5.209
 6993SOL    HW221546   3.916   2.098   5.308
 6994SOL     OW21547   4.021   1.897   3.895
 6994SOL    HW121548   4.070   1.981   3.874
 6994SOL    HW221549   4.083   1.832   3.940
 6995SOL     OW21550   3.802   2.418   5.110
 6995SOL    HW121551   3.894   2.417   5.069
 6995SOL    HW221552   3.796   2.492   5.177
 6996SOL     OW21553   4.251   2.118   4.052
 6996SOL    HW121554   4.278   2.059   3.977
 6996SOL    HW221555   4.251   2.213   4.021
 6997SOL     OW21556   3.788   3.426   5.055
 6997SOL    HW121557   3.742   3.508   5.021
 6997SOL    HW221558   3.886   3.445   5.064
 6998SOL     OW21559   4.091   2.962   4.225
 6998SOL    HW121560   4.084   3.045   4.169
 6998SOL    HW221561   4.095   2.882   4.165
 6999SOL     OW21562   4.031   2.075   4.955
 6999SOL    HW121563   4.008   2.112   5.045
 6999SOL    HW221564   4.001   1.980   4.949
 7000SOL     OW21565   3.761   3.172   5.006
 7000SOL    HW121566   3.814   3.123   5.074
 7000SOL    HW221567   3.783   3.270   5.011
 7001SOL     OW21568   4.031   1.925   4.342
 7001SOL    HW121569   4.020   2.019   4.375
 7001SOL    HW221570   4.026   1.862   4.419
 7002SOL     OW21571   3.732   3.188   3.924
 7002SOL    HW121572   3.639   3.209   3.893
 7002SOL    HW221573   3.742   3.089   3.937
 7003SOL     OW21574   3.812   3.663   4.651
 7003SOL    HW121575   3.770   3.577   4.624
 7003SOL    HW221576   3.906   3.666   4.617
 7004SOL     OW21577   4.228   3.430   4.634
 7004SOL    HW121578   4.294   3.504   4.643
 7004SOL    HW221579   4.272   3.351   4.592
 7005SOL     OW21580   3.764   2.406   4.838
 7005SOL    HW121581   3.849   2.373   4.797
 7005SOL    HW221582   3.777   2.421   4.936
 7006SOL     OW21583   3.913   2.382   5.446
 7006SOL    HW121584   3.972   2.342   5.376
 7006SOL    HW221585   3.855   2.453   5.405
 7007SOL     OW21586   3.976   3.426   5.468
 7007SOL    HW121587   3.946   3.483   5.544
 7007SOL    HW221588   3.969   3.329   5.494
 7008SOL     OW21589   3.883   2.999   5.190
 7008SOL    HW121590   3.905   2.938   5.266
 7008SOL    HW221591   3.893   2.950   5.104
 7009SOL     OW21592   3.807   3.120   4.746
 7009SOL    HW121593   3.802   3.119   4.846
 7009SOL    HW221594   3.724   3.079   4.708
 7010SOL     OW21595   3.854   3.656   5.575
 7010SOL    HW121596   3.813   3.582   5.628
 7010SOL    HW221597   3.918   3.707   5.633
 7011SOL     OW21598   3.799   2.207   3.757
 7011SOL    HW121599   3.707   2.179   3.728
 7011SOL    HW221600   3.830   2.284   3.701
 7012SOL     OW21601   3.796   2.028   4.042
 7012SOL    HW121602   3.779   2.111   3.988
 7012SOL    HW221603   3.886   1.991   4.020
 7013SOL     OW21604   3.803   3.102   4.377
 7013SOL    HW121605   3.802   3.055   4.465
 7013SOL    HW221606   3.885   3.074   4.326
 7014SOL     OW21607   3.763   2.939   4.024
 7014SOL    HW121608   3.862   2.928   4.015
 7014SOL    HW221609   3.723   2.853   4.056
 7015SOL     OW21610   3.954   2.490   5.699
 7015SOL    HW121611   3.861   2.488   5.736
 7015SOL    HW221612   3.955   2.451   5.607
 7016SOL     OW21613   3.949   2.137   6.582
 7016SOL    HW121614   3.984   2.120   6.674
 7016SOL    HW221615   3.861   2.092   6.570
 7017SOL     OW21616   3.743   2.230   6.233
 7017SOL    HW121617   3.661   2.273   6.272
 7017SOL    HW221618   3.715   2.157   6.170
 7018SOL     OW21619   4.059   3.297   6.647
 7018SOL    HW121620   3.981   3.266   6.594
 7018SOL    HW221621   4.117   3.355   6.590
 7019SOL     OW21622   3.955   3.575   6.069
 7019SOL    HW121623   3.989   3.652   6.123
 7019SOL    HW221624   3.999   3.575   5.979
 7020SOL     OW21625   3.954   3.296   6.124
 7020SOL    HW121626   3.928   3.392   6.124
 7020SOL    HW221627   3.883   3.242   6.169
 7021SOL     OW21628   3.846   2.505   6.149
 7021SOL    HW121629   3.801   2.417   6.166
 7021SOL    HW221630   3.845   2.559   6.233
 7022SOL     OW21631   3.751   3.458   5.703
 7022SOL    HW121632   3.732   3.362   5.724
 7022SOL    HW221633   3.718   3.516   5.778
 7023SOL     OW21634   3.837   2.599   7.183
 7023SOL    HW121635   3.925   2.586   7.228
 7023SOL    HW221636   3.824   2.696   7.161
 7024SOL     OW21637   3.800   2.673   6.375
 7024SOL    HW121638   3.899   2.661   6.384
 7024SOL    HW221639   3.776   2.768   6.396
 7025SOL     OW21640   3.854   3.683   7.157
 7025SOL    HW121641   3.844   3.668   7.256
 7025SOL    HW221642   3.768   3.719   7.121
 7026SOL     OW21643   3.926   2.147   7.084
 7026SOL    HW121644   3.846   2.207   7.071
 7026SOL    HW221645   3.916   2.098   7.170
 7027SOL     OW21646   4.021   1.897   5.757
 7027SOL    HW121647   4.070   1.981   5.736
 7027SOL    HW221648   4.083   1.832   5.802
 7028SOL     OW21649   3.802   2.418   6.972
 7028SOL    HW121650   3.894   2.417   6.931
 7028SOL    HW221651   3.796   2.492   7.039
 7029SOL     OW21652   4.251   2.118   5.914
 7029SOL    HW121653   4.278   2.059   5.839
 7029SOL    HW221654   4.251   2.213   5.883
 7030SOL     OW21655   3.788   3.426   6.917
 7030SOL    HW121656   3.742   3.508   6.883
 7030SOL    HW221657   3.886   3.445   6.926
 7031SOL     OW21658   4.091   2.962   6.087
 7031SOL    HW121659   4.084   3.045   6.031
 7031SOL    HW221660   4.095   2.882   6.027
 7032SOL     OW21661   4.031   2.075   6.817
 7032SOL    HW121662   4.008   2.112   6.907
 7032SOL    HW221663   4.001   1.980   6.811
 7033SOL     OW21664   3.761   3.172   6.868
 7033SOL    HW121665   3.814   3.123   6.936
 7033SOL    HW221666   3.783   3.270   6.873
 7034SOL     OW21667   4.031   1.925   6.204
 7034SOL    HW121668   4.020   2.019   6.237
 7034SOL    HW221669   4.026   1.862   6.281
 7035SOL     OW21670   3.732   3.188   5.786
 7035SOL    HW121671   3.639   3.209   5.755
 7035SOL    HW221672   3.742   3.089   5.799
 7036SOL     OW21673   3.812   3.663   6.513
 7036SOL    HW121674   3.770   3.577   6.486
 7036SOL    HW221675   3.906   3.666   6.479
 7037SOL     OW21676   4.228   3.430   6.496
 7037SOL    HW121677   4.294   3.504   6.505
 7037SOL    HW221678   4.272   3.351   6.454
 7038SOL     OW21679   3.764   2.406   6.700
 7038SOL    HW121680   3.849   2.373   6.659
 7038SOL    HW221681   3.777   2.421   6.798
 7039SOL     OW21682   3.913   2.382   7.308
 7039SOL    HW121683   3.972   2.342   7.238
 7039SOL    HW221684   3.855   2.453   7.267
 7040SOL     OW21685   3.976   3.426   7.330
 7040SOL    HW121686   3.946   3.483   7.406
 7040SOL    HW221687   3.969   3.329   7.356
 7041SOL     OW21688   3.883   2.999   7.052
 7041SOL    HW121689   3.905   2.938   7.128
 7041SOL    HW221690   3.893   2.950   6.966
 7042SOL     OW21691   3.807   3.120   6.608
 7042SOL    HW121692   3.802   3.119   6.708
 7042SOL    HW221693   3.724   3.079   6.570
 7043SOL     OW21694   3.854   3.656   7.437
 7043SOL    HW121695   3.813   3.582   7.490
 7043SOL    HW221696   3.918   3.707   7.495
 7044SOL     OW21697   3.799   2.207   5.619
 7044SOL    HW121698   3.707   2.179   5.590
 7044SOL    HW221699   3.830   2.284   5.563
 7045SOL     OW21700   3.796   2.028   5.904
 7045SOL    HW121701   3.779   2.111   5.850
 7045SOL    HW221702   3.886   1.991   5.882
 7046SOL     OW21703   3.803   3.102   6.239
 7046SOL    HW121704   3.802   3.055   6.327
 7046SOL    HW221705   3.885   3.074   6.188
 7047SOL     OW21706   3.763   2.939   5.886
 7047SOL    HW121707   3.862   2.928   5.877
 7047SOL    HW221708   3.723   2.853   5.918
 7048SOL     OW21709   3.954   2.490   7.561
 7048SOL    HW121710   3.861   2.488   7.598
 7048SOL    HW221711   3.955   2.451   7.469
 7049SOL     OW21712   3.949   2.137   8.444
 7049SOL    HW121713   3.984   2.120   8.536
 7049SOL    HW221714   3.861   2.092   8.432
 7050SOL     OW21715   3.743   2.230   8.095
 7050SOL    HW121716   3.661   2.273   8.134
 7050SOL    HW221717   3.715   2.157   8.032
 7051SOL     OW21718   4.059   3.297   8.509
 7051SOL    HW121719   3.981   3.266   8.456
 7051SOL    HW221720   4.117   3.355   8.452
 7052SOL     OW21721   3.955   3.575   7.931
 7052SOL    HW121722   3.989   3.652   7.985
 7052SOL    HW221723   3.999   3.575   7.841
 7053SOL     OW21724   3.954   3.296   7.986
 7053SOL    HW121725   3.928   3.392   7.986
 7053SOL    HW221726   3.883   3.242   8.031
 7054SOL     OW21727   3.846   2.505   8.011
 7054SOL    HW121728   3.801   2.417   8.028
 7054SOL    HW221729   3.845   2.559   8.095
 7055SOL     OW21730   3.751   3.458   7.565
 7055SOL    HW121731   3.732   3.362   7.586
 7055SOL    HW221732   3.718   3.516   7.640
 7056SOL     OW21733   3.837   2.599   9.045
 7056SOL    HW121734   3.925   2.586   9.090
 7056SOL    HW221735   3.824   2.696   9.023
 7057SOL     OW21736   3.800   2.673   8.237
 7057SOL    HW121737   3.899   2.661   8.246
 7057SOL    HW221738   3.776   2.768   8.258
 7058SOL     OW21739   3.854   3.683   9.019
 7058SOL    HW121740   3.844   3.668   9.118
 7058SOL    HW221741   3.768   3.719   8.983
 7059SOL     OW21742   3.926   2.147   8.946
 7059SOL    HW121743   3.846   2.207   8.933
 7059SOL    HW221744   3.916   2.098   9.032
 7060SOL     OW21745   4.021   1.897   7.619
 7060SOL    HW121746   4.070   1.981   7.598
 7060SOL    HW221747   4.083   1.832   7.664
 7061SOL     OW21748   3.802   2.418   8.834
 7061SOL    HW121749   3.894   2.417   8.793
 7061SOL    HW221750   3.796   2.492   8.901
 7062SOL     OW21751   4.251   2.118   7.776
 7062SOL    HW121752   4.278   2.059   7.701
 7062SOL    HW221753   4.251   2.213   7.745
 7063SOL     OW21754   3.788   3.426   8.779
 7063SOL    HW121755   3.742   3.508   8.745
 7063SOL    HW221756   3.886   3.445   8.788
 7064SOL     OW21757   4.091   2.962   7.949
 7064SOL    HW121758   4.084   3.045   7.893
 7064SOL    HW221759   4.095   2.882   7.889
 7065SOL     OW21760   4.031   2.075   8.679
 7065SOL    HW121761   4.008   2.112   8.769
 7065SOL    HW221762   4.001   1.980   8.673
 7066SOL     OW21763   3.761   3.172   8.730
 7066SOL    HW121764   3.814   3.123   8.798
 7066SOL    HW221765   3.783   3.270   8.735
 7067SOL     OW21766   4.031   1.925   8.066
 7067SOL    HW121767   4.020   2.019   8.099
 7067SOL    HW221768   4.026   1.862   8.143
 7068SOL     OW21769   3.732   3.188   7.648
 7068SOL    HW121770   3.639   3.209   7.617
 7068SOL    HW221771   3.742   3.089   7.661
 7069SOL     OW21772   3.812   3.663   8.375
 7069SOL    HW121773   3.770   3.577   8.348
 7069SOL    HW221774   3.906   3.666   8.341
 7070SOL     OW21775   4.228   3.430   8.358
 7070SOL    HW121776   4.294   3.504   8.367
 7070SOL    HW221777   4.272   3.351   8.316
 7071SOL     OW21778   3.764   2.406   8.562
 7071SOL    HW121779   3.849   2.373   8.521
 7071SOL    HW221780   3.777   2.421   8.660
 7072SOL     OW21781   3.913   2.382   9.170
 7072SOL    HW121782   3.972   2.342   9.100
 7072SOL    HW221783   3.855   2.453   9.129
 7073SOL     OW21784   3.976   3.426   9.192
 7073SOL    HW121785   3.946   3.483   9.268
 7073SOL    HW221786   3.969   3.329   9.218
 7074SOL     OW21787   3.883   2.999   8.914
 7074SOL    HW121788   3.905   2.938   8.990
 7074SOL    HW221789   3.893   2.950   8.828
 7075SOL     OW21790   3.807   3.120   8.470
 7075SOL    HW121791   3.802   3.119   8.570
 7075SOL    HW221792   3.724   3.079   8.432
 7076SOL     OW21793   3.854   3.656   9.299
 7076SOL    HW121794   3.813   3.582   9.352
 7076SOL    HW221795   3.918   3.707   9.357
 7077SOL     OW21796   3.799   2.207   7.481
 7077SOL    HW121797   3.707   2.179   7.452
 7077SOL    HW221798   3.830   2.284   7.425
 7078SOL     OW21799   3.796   2.028   7.766
 7078SOL    HW121800   3.779   2.111   7.712
 7078SOL    HW221801   3.886   1.991   7.744
 7079SOL     OW21802   3.803   3.102   8.101
 7079SOL    HW121803   3.802   3.055   8.189
 7079SOL    HW221804   3.885   3.074   8.050
 7080SOL     OW21805   3.763   2.939   7.748
 7080SOL    HW121806   3.862   2.928   7.739
 7080SOL    HW221807   3.723   2.853   7.780
 7081SOL     OW21808   3.954   2.490   9.423
 7081SOL    HW121809   3.861   2.488   9.460
 7081SOL    HW221810   3.955   2.451   9.331
 7082SOL     OW21811   3.949   2.137  10.306
 7082SOL    HW121812   3.984   2.120  10.398
 7082SOL    HW221813   3.861   2.092  10.294
 7083SOL     OW21814   3.743   2.230   9.957
 7083SOL    HW121815   3.661   2.273   9.996
 7083SOL    HW221816   3.715   2.157   9.894
 7084SOL     OW21817   4.059   3.297  10.371
 7084SOL    HW121818   3.981   3.266  10.318
 7084SOL    HW221819   4.117   3.355  10.314
 7085SOL     OW21820   3.955   3.575   9.793
 7085SOL    HW121821   3.989   3.652   9.847
 7085SOL    HW221822   3.999   3.575   9.703
 7086SOL     OW21823   3.954   3.296   9.848
 7086SOL    HW121824   3.928   3.392   9.848
 7086SOL    HW221825   3.883   3.242   9.893
 7087SOL     OW21826   3.846   2.505   9.873
 7087SOL    HW121827   3.801   2.417   9.890
 7087SOL    HW221828   3.845   2.559   9.957
 7088SOL     OW21829   3.751   3.458   9.427
 7088SOL    HW121830   3.732   3.362   9.448
 7088SOL    HW221831   3.718   3.516   9.502
 7089SOL     OW21832   3.837   2.599  10.907
 7089SOL    HW121833   3.925   2.586  10.952
 7089SOL    HW221834   3.824   2.696  10.885
 7090SOL     OW21835   3.800   2.673  10.099
 7090SOL    HW121836   3.899   2.661  10.108
 7090SOL    HW221837   3.776   2.768  10.120
 7091SOL     OW21838   3.854   3.683  10.881
 7091SOL    HW121839   3.844   3.668  10.980
 7091SOL    HW221840   3.768   3.719  10.845
 7092SOL     OW21841   3.926   2.147  10.808
 7092SOL    HW121842   3.846   2.207  10.795
 7092SOL    HW221843   3.916   2.098  10.894
 7093SOL     OW21844   4.021   1.897   9.481
 7093SOL    HW121845   4.070   1.981   9.460
 7093SOL    HW221846   4.083   1.832   9.526
 7094SOL     OW21847   3.802   2.418  10.696
 7094SOL    HW121848   3.894   2.417  10.655
 7094SOL    HW221849   3.796   2.492  10.763
 7095SOL     OW21850   4.251   2.118   9.638
 7095SOL    HW121851   4.278   2.059   9.563
 7095SOL    HW221852   4.251   2.213   9.607
 7096SOL     OW21853   3.788   3.426  10.641
 7096SOL    HW121854   3.742   3.508  10.607
 7096SOL    HW221855   3.886   3.445  10.650
 7097SOL     OW21856   4.091   2.962   9.811
 7097SOL    HW121857   4.084   3.045   9.755
 7097SOL    HW221858   4.095   2.882   9.751
 7098SOL     OW21859   4.031   2.075  10.541
 7098SOL    HW121860   4.008   2.112  10.631
 7098SOL    HW221861   4.001   1.980  10.535
 7099SOL     OW21862   3.761   3.172  10.592
 7099SOL    HW121863   3.814   3.123  10.660
 7099SOL    HW221864   3.783   3.270  10.597
 7100SOL     OW21865   4.031   1.925   9.928
 7100SOL    HW121866   4.020   2.019   9.961
 7100SOL    HW221867   4.026   1.862  10.005
 7101SOL     OW21868   3.732   3.188   9.510
 7101SOL    HW121869   3.639   3.209   9.479
 7101SOL    HW221870   3.742   3.089   9.523
 7102SOL     OW21871   3.812   3.663  10.237
 7102SOL    HW121872   3.770   3.577  10.210
 7102SOL    HW221873   3.906   3.666  10.203
 7103SOL     OW21874   4.228   3.430  10.220
 7103SOL    HW121875   4.294   3.504  10.229
 7103SOL    HW221876   4.272   3.351  10.178
 7104SOL     OW21877   3.764   2.406  10.424
 7104SOL    HW121878   3.849   2.373  10.383
 7104SOL    HW221879   3.777   2.421  10.522
 7105SOL     OW21880   3.913   2.382  11.032
 7105SOL    HW121881   3.972   2.342  10.962
 7105SOL    HW221882   3.855   2.453  10.991
 7106SOL     OW21883   3.976   3.426  11.054
 7106SOL    HW121884   3.946   3.483  11.130
 7106SOL    HW221885   3.969   3.329  11.080
 7107SOL     OW21886   3.883   2.999  10.776
 7107SOL    HW121887   3.905   2.938  10.852
 7107SOL    HW221888   3.893   2.950  10.690
 7108SOL     OW21889   3.807   3.120  10.332
 7108SOL    HW121890   3.802   3.119  10.432
 7108SOL    HW221891   3.724   3.079  10.294
 7109SOL     OW21892   3.854   3.656  11.161
 7109SOL    HW121893   3.813   3.582  11.214
 7109SOL    HW221894   3.918   3.707  11.219
 7110SOL     OW21895   3.799   2.207   9.343
 7110SOL    HW121896   3.707   2.179   9.314
 7110SOL    HW221897   3.830   2.284   9.287
 7111SOL     OW21898   3.796   2.028   9.628
 7111SOL    HW121899   3.779   2.111   9.574
 7111SOL    HW221900   3.886   1.991   9.606
 7112SOL     OW21901   3.803   3.102   9.963
 7112SOL    HW121902   3.802   3.055  10.051
 7112SOL    HW221903   3.885   3.074   9.912
 7113SOL     OW21904   3.763   2.939   9.610
 7113SOL    HW121905   3.862   2.928   9.601
 7113SOL    HW221906   3.723   2.853   9.642
 7114SOL     OW21907   3.954   2.490  11.285
 7114SOL    HW121908   3.861   2.488  11.322
 7114SOL    HW221909   3.955   2.451  11.193
 7115SOL     OW21910   3.949   2.137  12.168
 7115SOL    HW121911   3.984   2.120  12.260
 7115SOL    HW221912   3.861   2.092  12.156
 7116SOL     OW21913   3.743   2.230  11.819
 7116SOL    HW121914   3.661   2.273  11.858
 7116SOL    HW221915   3.715   2.157  11.756
 7117SOL     OW21916   4.059   3.297  12.233
 7117SOL    HW121917   3.981   3.266  12.180
 7117SOL    HW221918   4.117   3.355  12.176
 7118SOL     OW21919   3.955   3.575  11.655
 7118SOL    HW121920   3.989   3.652  11.709
 7118SOL    HW221921   3.999   3.575  11.565
 7119SOL     OW21922   3.954   3.296  11.710
 7119SOL    HW121923   3.928   3.392  11.710
 7119SOL    HW221924   3.883   3.242  11.755
 7120SOL     OW21925   3.846   2.505  11.735
 7120SOL    HW121926   3.801   2.417  11.752
 7120SOL    HW221927   3.845   2.559  11.819
 7121SOL     OW21928   3.751   3.458  11.289
 7121SOL    HW121929   3.732   3.362  11.310
 7121SOL    HW221930   3.718   3.516  11.364
 7122SOL     OW21931   3.837   2.599  12.769
 7122SOL    HW121932   3.925   2.586  12.814
 7122SOL    HW221933   3.824   2.696  12.747
 7123SOL     OW21934   3.800   2.673  11.961
 7123SOL    HW121935   3.899   2.661  11.970
 7123SOL    HW221936   3.776   2.768  11.982
 7124SOL     OW21937   3.854   3.683  12.743
 7124SOL    HW121938   3.844   3.668  12.842
 7124SOL    HW221939   3.768   3.719  12.707
 7125SOL     OW21940   3.926   2.147  12.670
 7125SOL    HW121941   3.846   2.207  12.657
 7125SOL    HW221942   3.916   2.098  12.756
 7126SOL     OW21943   4.021   1.897  11.343
 7126SOL    HW121944   4.070   1.981  11.322
 7126SOL    HW221945   4.083   1.832  11.388
 7127SOL     OW21946   3.802   2.418  12.558
 7127SOL    HW121947   3.894   2.417  12.517
 7127SOL    HW221948   3.796   2.492  12.625
 7128SOL     OW21949   4.251   2.118  11.500
 7128SOL    HW121950   4.278   2.059  11.425
 7128SOL    HW221951   4.251   2.213  11.469
 7129SOL     OW21952   3.788   3.426  12.503
 7129SOL    HW121953   3.742   3.508  12.469
 7129SOL    HW221954   3.886   3.445  12.512
 7130SOL     OW21955   4.091   2.962  11.673
 7130SOL    HW121956   4.084   3.045  11.617
 7130SOL    HW221957   4.095   2.882  11.613
 7131SOL     OW21958   4.031   2.075  12.403
 7131SOL    HW121959   4.008   2.112  12.493
 7131SOL    HW221960   4.001   1.980  12.397
 7132SOL     OW21961   3.761   3.172  12.454
 7132SOL    HW121962   3.814   3.123  12.522
 7132SOL    HW221963   3.783   3.270  12.459
 7133SOL     OW21964   4.031   1.925  11.790
 7133SOL    HW121965   4.020   2.019  11.823
 7133SOL    HW221966   4.026   1.862  11.867
 7134SOL     OW21967   3.732   3.188  11.372
 7134SOL    HW121968   3.639   3.209  11.341
 7134SOL    HW221969   3.742   3.089  11.385
 7135SOL     OW21970   3.812   3.663  12.099
 7135SOL    HW121971   3.770   3.577  12.072
 7135SOL    HW221972   3.906   3.666  12.065
 7136SOL     OW21973   4.228   3.430  12.082
 7136SOL    HW121974   4.294   3.504  12.091
 7136SOL    HW221975   4.272   3.351  12.040
 7137SOL     OW21976   3.764   2.406  12.286
 7137SOL    HW121977   3.849   2.373  12.245
 7137SOL    HW221978   3.777   2.421  12.384
 7138SOL     OW21979   3.913   2.382  12.894
 7138SOL    HW121980   3.972   2.342  12.824
 7138SOL    HW221981   3.855   2.453  12.853
 7139SOL     OW21982   3.976   3.426  12.916
 7139SOL    HW121983   3.946   3.483  12.992
 7139SOL    HW221984   3.969   3.329  12.942
 7140SOL     OW21985   3.883   2.999  12.638
 7140SOL    HW121986   3.905   2.938  12.714
 7140SOL    HW221987   3.893   2.950  12.552
 7141SOL     OW21988   3.807   3.120  12.194
 7141SOL    HW121989   3.802   3.119  12.294
 7141SOL    HW221990   3.724   3.079  12.156
 7142SOL     OW21991   3.854   3.656  13.023
 7142SOL    HW121992   3.813   3.582  13.076
 7142SOL    HW221993   3.918   3.707  13.081
 7143SOL     OW21994   3.799   2.207  11.205
 7143SOL    HW121995   3.707   2.179  11.176
 7143SOL    HW221996   3.830   2.284  11.149
 7144SOL     OW21997   3.796   2.028  11.490
 7144SOL    HW121998   3.779   2.111  11.436
 7144SOL    HW221999   3.886   1.991  11.468
 7145SOL     OW22000   3.803   3.102  11.825
 7145SOL    HW122001   3.802   3.055  11.913
 7145SOL    HW222002   3.885   3.074  11.774
 7146SOL     OW22003   3.763   2.939  11.472
 7146SOL    HW122004   3.862   2.928  11.463
 7146SOL    HW222005   3.723   2.853  11.504
 7147SOL     OW22006   3.954   2.490  13.147
 7147SOL    HW122007   3.861   2.488  13.184
 7147SOL    HW222008   3.955   2.451  13.055
 7148SOL     OW22009   3.743   2.230  13.681
 7148SOL    HW122010   3.661   2.273  13.720
 7148SOL    HW222011   3.715   2.157  13.618
 7149SOL     OW22012   3.955   3.575  13.517
 7149SOL    HW122013   3.989   3.652  13.571
 7149SOL    HW222014   3.999   3.575  13.427
 7150SOL     OW22015   3.954   3.296  13.572
 7150SOL    HW122016   3.928   3.392  13.572
 7150SOL    HW222017   3.883   3.242  13.617
 7151SOL     OW22018   3.964   2.953  13.920
 7151SOL    HW122019   3.978   2.869  13.972
 7151SOL    HW222020   3.909   3.017  13.975
 7152SOL     OW22021   3.846   2.505  13.597
 7152SOL    HW122022   3.801   2.417  13.614
 7152SOL    HW222023   3.845   2.559  13.681
 7153SOL     OW22024   3.751   3.458  13.151
 7153SOL    HW122025   3.732   3.362  13.172
 7153SOL    HW222026   3.718   3.516  13.226
 7154SOL     OW22027   3.800   2.673  13.823
 7154SOL    HW122028   3.899   2.661  13.832
 7154SOL    HW222029   3.776   2.768  13.844
 7155SOL     OW22030   4.075   3.663  13.887
 7155SOL    HW122031   4.125   3.577  13.893
 7155SOL    HW222032   4.140   3.740  13.884
 7156SOL     OW22033   4.021   1.897  13.205
 7156SOL    HW122034   4.070   1.981  13.184
 7156SOL    HW222035   4.083   1.832  13.250
 7157SOL     OW22036   4.251   2.118  13.362
 7157SOL    HW122037   4.278   2.059  13.287
 7157SOL    HW222038   4.251   2.213  13.331
 7158SOL     OW22039   4.091   2.962  13.535
 7158SOL    HW122040   4.084   3.045  13.479
 7158SOL    HW222041   4.095   2.882  13.475
 7159SOL     OW22042   4.031   1.925  13.652
 7159SOL    HW122043   4.020   2.019  13.685
 7159SOL    HW222044   4.026   1.862  13.729
 7160SOL     OW22045   3.732   3.188  13.234
 7160SOL    HW122046   3.639   3.209  13.203
 7160SOL    HW222047   3.742   3.089  13.247
 7161SOL     OW22048   4.228   3.430  13.944
 7161SOL    HW122049   4.294   3.504  13.953
 7161SOL    HW222050   4.272   3.351  13.902
 7162SOL     OW22051   3.799   2.207  13.067
 7162SOL    HW122052   3.707   2.179  13.038
 7162SOL    HW222053   3.830   2.284  13.011
 7163SOL     OW22054   3.796   2.028  13.352
 7163SOL    HW122055   3.779   2.111  13.298
 7163SOL    HW222056   3.886   1.991  13.330
 7164SOL     OW22057   3.803   3.102  13.687
 7164SOL    HW122058   3.802   3.055  13.775
 7164SOL    HW222059   3.885   3.074  13.636
 7165SOL     OW22060   3.763   2.939  13.334
 7165SOL    HW122061   3.862   2.928  13.325
 7165SOL    HW222062   3.723   2.853  13.366
 7166SOL     OW22063   3.949   3.999   0.996
 7166SOL    HW122064   3.984   3.982   1.088
 7166SOL    HW222065   3.861   3.954   0.984
 7167SOL     OW22066   3.743   4.092   0.647
 7167SOL    HW122067   3.661   4.135   0.686
 7167SOL    HW222068   3.715   4.019   0.584
 7168SOL     OW22069   3.926   4.009   1.498
 7168SOL    HW122070   3.846   4.069   1.485
 7168SOL    HW222071   3.916   3.960   1.584
 7169SOL     OW22072   4.021   3.759   0.171
 7169SOL    HW122073   4.070   3.843   0.150
 7169SOL    HW222074   4.083   3.694   0.216
 7170SOL     OW22075   4.031   3.937   1.231
 7170SOL    HW122076   4.008   3.974   1.321
 7170SOL    HW222077   4.001   3.842   1.225
 7171SOL     OW22078   4.031   3.787   0.618
 7171SOL    HW122079   4.020   3.881   0.651
 7171SOL    HW222080   4.026   3.724   0.695
 7172SOL     OW22081   3.796   3.890   0.318
 7172SOL    HW122082   3.779   3.973   0.264
 7172SOL    HW222083   3.886   3.853   0.296
 7173SOL     OW22084   3.949   3.999   2.858
 7173SOL    HW122085   3.984   3.982   2.950
 7173SOL    HW222086   3.861   3.954   2.846
 7174SOL     OW22087   3.743   4.092   2.509
 7174SOL    HW122088   3.661   4.135   2.548
 7174SOL    HW222089   3.715   4.019   2.446
 7175SOL     OW22090   3.926   4.009   3.360
 7175SOL    HW122091   3.846   4.069   3.347
 7175SOL    HW222092   3.916   3.960   3.446
 7176SOL     OW22093   4.021   3.759   2.033
 7176SOL    HW122094   4.070   3.843   2.012
 7176SOL    HW222095   4.083   3.694   2.078
 7177SOL     OW22096   4.031   3.937   3.093
 7177SOL    HW122097   4.008   3.974   3.183
 7177SOL    HW222098   4.001   3.842   3.087
 7178SOL     OW22099   4.031   3.787   2.480
 7178SOL    HW122100   4.020   3.881   2.513
 7178SOL    HW222101   4.026   3.724   2.557
 7179SOL     OW22102   3.799   4.069   1.895
 7179SOL    HW122103   3.707   4.041   1.866
 7179SOL    HW222104   3.830   4.146   1.839
 7180SOL     OW22105   3.796   3.890   2.180
 7180SOL    HW122106   3.779   3.973   2.126
 7180SOL    HW222107   3.886   3.853   2.158
 7181SOL     OW22108   3.949   3.999   4.720
 7181SOL    HW122109   3.984   3.982   4.812
 7181SOL    HW222110   3.861   3.954   4.708
 7182SOL     OW22111   3.743   4.092   4.371
 7182SOL    HW122112   3.661   4.135   4.410
 7182SOL    HW222113   3.715   4.019   4.308
 7183SOL     OW22114   3.926   4.009   5.222
 7183SOL    HW122115   3.846   4.069   5.209
 7183SOL    HW222116   3.916   3.960   5.308
 7184SOL     OW22117   4.021   3.759   3.895
 7184SOL    HW122118   4.070   3.843   3.874
 7184SOL    HW222119   4.083   3.694   3.940
 7185SOL     OW22120   4.031   3.937   4.955
 7185SOL    HW122121   4.008   3.974   5.045
 7185SOL    HW222122   4.001   3.842   4.949
 7186SOL     OW22123   4.031   3.787   4.342
 7186SOL    HW122124   4.020   3.881   4.375
 7186SOL    HW222125   4.026   3.724   4.419
 7187SOL     OW22126   3.799   4.069   3.757
 7187SOL    HW122127   3.707   4.041   3.728
 7187SOL    HW222128   3.830   4.146   3.701
 7188SOL     OW22129   3.796   3.890   4.042
 7188SOL    HW122130   3.779   3.973   3.988
 7188SOL    HW222131   3.886   3.853   4.020
 7189SOL     OW22132   3.949   3.999   6.582
 7189SOL    HW122133   3.984   3.982   6.674
 7189SOL    HW222134   3.861   3.954   6.570
 7190SOL     OW22135   3.743   4.092   6.233
 7190SOL    HW122136   3.661   4.135   6.272
 7190SOL    HW222137   3.715   4.019   6.170
 7191SOL     OW22138   3.926   4.009   7.084
 7191SOL    HW122139   3.846   4.069   7.071
 7191SOL    HW222140   3.916   3.960   7.170
 7192SOL     OW22141   4.021   3.759   5.757
 7192SOL    HW122142   4.070   3.843   5.736
 7192SOL    HW222143   4.083   3.694   5.802
 7193SOL     OW22144   4.031   3.937   6.817
 7193SOL    HW122145   4.008   3.974   6.907
 7193SOL    HW222146   4.001   3.842   6.811
 7194SOL     OW22147   4.031   3.787   6.204
 7194SOL    HW122148   4.020   3.881   6.237
 7194SOL    HW222149   4.026   3.724   6.281
 7195SOL     OW22150   3.799   4.069   5.619
 7195SOL    HW122151   3.707   4.041   5.590
 7195SOL    HW222152   3.830   4.146   5.563
 7196SOL     OW22153   3.796   3.890   5.904
 7196SOL    HW122154   3.779   3.973   5.850
 7196SOL    HW222155   3.886   3.853   5.882
 7197SOL     OW22156   3.949   3.999   8.444
 7197SOL    HW122157   3.984   3.982   8.536
 7197SOL    HW222158   3.861   3.954   8.432
 7198SOL     OW22159   3.743   4.092   8.095
 7198SOL    HW122160   3.661   4.135   8.134
 7198SOL    HW222161   3.715   4.019   8.032
 7199SOL     OW22162   3.926   4.009   8.946
 7199SOL    HW122163   3.846   4.069   8.933
 7199SOL    HW222164   3.916   3.960   9.032
 7200SOL     OW22165   4.021   3.759   7.619
 7200SOL    HW122166   4.070   3.843   7.598
 7200SOL    HW222167   4.083   3.694   7.664
 7201SOL     OW22168   4.031   3.937   8.679
 7201SOL    HW122169   4.008   3.974   8.769
 7201SOL    HW222170   4.001   3.842   8.673
 7202SOL     OW22171   4.031   3.787   8.066
 7202SOL    HW122172   4.020   3.881   8.099
 7202SOL    HW222173   4.026   3.724   8.143
 7203SOL     OW22174   3.799   4.069   7.481
 7203SOL    HW122175   3.707   4.041   7.452
 7203SOL    HW222176   3.830   4.146   7.425
 7204SOL     OW22177   3.796   3.890   7.766
 7204SOL    HW122178   3.779   3.973   7.712
 7204SOL    HW222179   3.886   3.853   7.744
 7205SOL     OW22180   3.949   3.999  10.306
 7205SOL    HW122181   3.984   3.982  10.398
 7205SOL    HW222182   3.861   3.954  10.294
 7206SOL     OW22183   3.743   4.092   9.957
 7206SOL    HW122184   3.661   4.135   9.996
 7206SOL    HW222185   3.715   4.019   9.894
 7207SOL     OW22186   3.926   4.009  10.808
 7207SOL    HW122187   3.846   4.069  10.795
 7207SOL    HW222188   3.916   3.960  10.894
 7208SOL     OW22189   4.021   3.759   9.481
 7208SOL    HW122190   4.070   3.843   9.460
 7208SOL    HW222191   4.083   3.694   9.526
 7209SOL     OW22192   4.031   3.937  10.541
 7209SOL    HW122193   4.008   3.974  10.631
 7209SOL    HW222194   4.001   3.842  10.535
 7210SOL     OW22195   4.031   3.787   9.928
 7210SOL    HW122196   4.020   3.881   9.961
 7210SOL    HW222197   4.026   3.724  10.005
 7211SOL     OW22198   3.799   4.069   9.343
 7211SOL    HW122199   3.707   4.041   9.314
 7211SOL    HW222200   3.830   4.146   9.287
 7212SOL     OW22201   3.796   3.890   9.628
 7212SOL    HW122202   3.779   3.973   9.574
 7212SOL    HW222203   3.886   3.853   9.606
 7213SOL     OW22204   3.949   3.999  12.168
 7213SOL    HW122205   3.984   3.982  12.260
 7213SOL    HW222206   3.861   3.954  12.156
 7214SOL     OW22207   3.743   4.092  11.819
 7214SOL    HW122208   3.661   4.135  11.858
 7214SOL    HW222209   3.715   4.019  11.756
 7215SOL     OW22210   3.926   4.009  12.670
 7215SOL    HW122211   3.846   4.069  12.657
 7215SOL    HW222212   3.916   3.960  12.756
 7216SOL     OW22213   4.021   3.759  11.343
 7216SOL    HW122214   4.070   3.843  11.322
 7216SOL    HW222215   4.083   3.694  11.388
 7217SOL     OW22216   4.031   3.937  12.403
 7217SOL    HW122217   4.008   3.974  12.493
 7217SOL    HW222218   4.001   3.842  12.397
 7218SOL     OW22219   4.031   3.787  11.790
 7218SOL    HW122220   4.020   3.881  11.823
 7218SOL    HW222221   4.026   3.724  11.867
 7219SOL     OW22222   3.799   4.069  11.205
 7219SOL    HW122223   3.707   4.041  11.176
 7219SOL    HW222224   3.830   4.146  11.149
 7220SOL     OW22225   3.796   3.890  11.490
 7220SOL    HW122226   3.779   3.973  11.436
 7220SOL    HW222227   3.886   3.853  11.468
 7221SOL     OW22228   3.743   4.092  13.681
 7221SOL    HW122229   3.661   4.135  13.720
 7221SOL    HW222230   3.715   4.019  13.618
 7222SOL     OW22231   4.021   3.759  13.205
 7222SOL    HW122232   4.070   3.843  13.184
 7222SOL    HW222233   4.083   3.694  13.250
 7223SOL     OW22234   4.031   3.787  13.652
 7223SOL    HW122235   4.020   3.881  13.685
 7223SOL    HW222236   4.026   3.724  13.729
 7224SOL     OW22237   3.799   4.069  13.067
 7224SOL    HW122238   3.707   4.041  13.038
 7224SOL    HW222239   3.830   4.146  13.011
 7225SOL     OW22240   3.796   3.890  13.352
 7225SOL    HW122241   3.779   3.973  13.298
 7225SOL    HW222242   3.886   3.853  13.330
   4.00000   4.00000  13.90000
