2aCDOH_1PEG_l8
22134
    1LIG      O    1   2.777   2.598   8.076
    1LIG      C    2   2.759   2.621   0.136
    1LIG     C1    3   2.626   2.556   0.185
    1LIG     O1    4   2.561   2.646   0.276
    1LIG     C2    5   2.590   2.616   0.412
    1LIG     C3    6   2.739   2.650   0.444
    1LIG     O2    7   2.770   2.613   0.578
    1LIG     C4    8   2.707   2.700   0.671
    1LIG     C5    9   2.581   2.630   0.729
    1LIG     O3   10   2.538   2.702   0.843
    1LIG     C6   11   2.589   2.650   0.966
    1LIG     C7   12   2.740   2.685   0.990
    1LIG     O4   13   2.788   2.630   1.113
    1LIG     C8   14   2.724   2.683   1.228
    1LIG     C9   15   2.605   2.588   1.266
    1LIG     O5   16   2.519   2.649   1.363
    1LIG    C10   17   2.575   2.629   1.492
    1LIG    C11   18   2.678   2.740   1.524
    1LIG     O6   19   2.638   2.797   1.647
    1LIG    C12   20   2.683   2.726   1.761
    1LIG    C13   21   2.607   2.593   1.792
    1LIG     O7   22   2.669   2.530   1.906
    1LIG    C14   23   2.628   2.588   2.030
    1LIG    C15   24   2.722   2.704   2.075
    1LIG     O8   25   2.648   2.795   2.158
    1LIG    C16   26   2.654   2.753   2.294
    1LIG    C17   27   2.539   2.653   2.328
    1LIG     O9   28   2.590   2.550   2.414
    1LIG    C18   29   2.590   2.592   2.550
    1LIG    C19   30   2.710   2.688   2.580
    1LIG    O10   31   2.785   2.642   2.691
    1LIG    C20   32   2.739   2.695   2.814
    1LIG    C21   33   2.597   2.643   2.849
    1LIG    O11   34   2.554   2.702   2.970
    1LIG    C22   35   2.603   2.631   3.082
    1LIG    C23   36   2.733   2.694   3.140
    1LIG    O12   37   2.777   2.611   3.248
    1LIG    C24   38   2.737   2.661   3.375
    1LIG    C25   39   2.588   2.631   3.408
    1LIG    O13   40   2.546   2.703   3.523
    1LIG    C26   41   2.586   2.646   3.646
    1LIG    C27   42   2.722   2.708   3.689
    1LIG    O14   43   2.789   2.619   3.780
    1LIG    C28   44   2.749   2.644   3.914
    1LIG    C29   45   2.620   2.564   3.949
    1LIG    O15   46   2.538   2.642   4.037
    1LIG    C30   47   2.572   2.623   4.173
    1LIG    C31   48   2.694   2.712   4.212
    1LIG    O16   49   2.660   2.786   4.328
    1LIG    C32   50   2.687   2.715   4.448
    1LIG    C33   51   2.586   2.598   4.472
    1LIG    O17   52   2.621   2.523   4.586
    1LIG    C34   53   2.593   2.586   4.709
    1LIG    C35   54   2.711   2.680   4.746
    1LIG    O18   55   2.772   2.640   4.867
    1LIG    C36   56   2.708   2.697   4.981
    1LIG    C37   57   2.573   2.623   5.007
    1LIG    O19   58   2.505   2.667   5.123
    1LIG    C38   59   2.575   2.624   5.239
    1LIG    C39   60   2.682   2.729   5.276
    1LIG    O20   61   2.642   2.789   5.395
    1LIG    C40   62   2.691   2.720   5.508
    1LIG    C41   63   2.612   2.590   5.541
    1LIG    O21   64   2.669   2.529   5.657
    1LIG    C42   65   2.623   2.591   5.777
    1LIG    C43   66   2.717   2.707   5.822
    1LIG    O22   67   2.644   2.792   5.910
    1LIG    C44   68   2.664   2.751   6.044
    1LIG    C45   69   2.554   2.649   6.087
    1LIG    O23   70   2.612   2.552   6.174
    1LIG    C46   71   2.597   2.590   6.312
    1LIG    C47   72   2.690   2.709   6.346
    1LIG    O24   73   2.661   2.761   6.474
    1LIG    C48   74   2.723   2.688   6.578
    1LIG    C49   75   2.617   2.593   6.638
    1LIG    O25   76   2.668   2.531   6.754
    1LIG    C50   77   2.629   2.597   6.874
    1LIG    C51   78   2.704   2.733   6.899
    1LIG    O26   79   2.648   2.804   7.009
    1LIG    C52   80   2.677   2.746   7.136
    1LIG    C53   81   2.576   2.631   7.163
    1LIG    O27   82   2.516   2.646   7.290
    1LIG    C54   83   2.591   2.578   7.391
    1LIG    C55   84   2.715   2.664   7.435
    1LIG    O28   85   2.780   2.604   7.548
    1LIG    C56   86   2.737   2.658   7.675
    1LIG    C57   87   2.593   2.607   7.707
    1LIG    O29   88   2.539   2.671   7.822
    1LIG    C58   89   2.573   2.606   7.943
    1LIG    C59   90   2.693   2.686   8.001
    1LIG      H   91   2.757   2.728   0.157
    1LIG     H1   92   2.845   2.578   0.189
    1LIG     H2   93   2.645   2.459   0.233
    1LIG     H3   94   2.556   2.537   0.103
    1LIG     H4   95   2.568   2.511   0.434
    1LIG     H5   96   2.524   2.680   0.472
    1LIG     H6   97   2.758   2.757   0.430
    1LIG     H7   98   2.807   2.594   0.381
    1LIG     H8   99   2.679   2.796   0.626
    1LIG     H9  100   2.781   2.724   0.747
    1LIG    H10  101   2.602   2.525   0.753
    1LIG    H11  102   2.498   2.631   0.657
    1LIG    H12  103   2.575   2.541   0.970
    1LIG    H13  104   2.528   2.696   1.044
    1LIG    H14  105   2.756   2.793   0.988
    1LIG    H15  106   2.803   2.638   0.913
    1LIG    H16  107   2.691   2.786   1.211
    1LIG    H17  108   2.798   2.683   1.309
    1LIG    H18  109   2.647   2.496   1.305
    1LIG    H19  110   2.542   2.560   1.182
    1LIG    H20  111   2.621   2.530   1.501
    1LIG    H21  112   2.494   2.634   1.564
    1LIG    H22  113   2.679   2.818   1.448
    1LIG    H23  114   2.780   2.699   1.533
    1LIG    H24  115   2.664   2.795   1.842
    1LIG    H25  116   2.791   2.705   1.754
    1LIG    H26  117   2.613   2.522   1.710
    1LIG    H27  118   2.501   2.613   1.812
    1LIG    H28  119   2.630   2.510   2.106
    1LIG    H29  120   2.524   2.622   2.023
    1LIG    H30  121   2.763   2.761   1.993
    1LIG    H31  122   2.810   2.663   2.125
    1LIG    H32  123   2.651   2.839   2.361
    1LIG    H33  124   2.751   2.703   2.310
    1LIG    H34  125   2.499   2.605   2.238
    1LIG    H35  126   2.456   2.707   2.375
    1LIG    H36  127   2.597   2.505   2.616
    1LIG    H37  128   2.496   2.643   2.573
    1LIG    H38  129   2.675   2.791   2.596
    1LIG    H39  130   2.782   2.690   2.498
    1LIG    H40  131   2.740   2.804   2.811
    1LIG    H41  132   2.812   2.660   2.888
    1LIG    H42  133   2.596   2.533   2.857
    1LIG    H43  134   2.523   2.672   2.774
    1LIG    H44  135   2.617   2.525   3.061
    1LIG    H45  136   2.523   2.638   3.154
    1LIG    H46  137   2.718   2.798   3.172
    1LIG    H47  138   2.816   2.695   3.069
    1LIG    H48  139   2.756   2.769   3.380
    1LIG    H49  140   2.800   2.612   3.449
    1LIG    H50  141   2.572   2.524   3.420
    1LIG    H51  142   2.522   2.667   3.332
    1LIG    H52  143   2.594   2.536   3.636
    1LIG    H53  144   2.508   2.667   3.719
    1LIG    H54  145   2.708   2.807   3.732
    1LIG    H55  146   2.789   2.724   3.605
    1LIG    H56  147   2.736   2.752   3.929
    1LIG    H57  148   2.830   2.613   3.981
    1LIG    H58  149   2.647   2.468   3.995
    1LIG    H59  150   2.560   2.539   3.862
    1LIG    H60  151   2.595   2.518   4.191
    1LIG    H61  152   2.485   2.650   4.234
    1LIG    H62  153   2.719   2.783   4.133
    1LIG    H63  154   2.783   2.651   4.231
    1LIG    H64  155   2.679   2.787   4.529
    1LIG    H65  156   2.790   2.676   4.447
    1LIG    H66  157   2.590   2.525   4.390
    1LIG    H67  158   2.483   2.636   4.480
    1LIG    H68  159   2.580   2.508   4.784
    1LIG    H69  160   2.499   2.643   4.703
    1LIG    H70  161   2.672   2.783   4.754
    1LIG    H71  162   2.789   2.678   4.670
    1LIG    H72  163   2.692   2.805   4.968
    1LIG    H73  164   2.779   2.682   5.063
    1LIG    H74  165   2.594   2.516   5.014
    1LIG    H75  166   2.503   2.641   4.925
    1LIG    H76  167   2.619   2.525   5.226
    1LIG    H77  168   2.501   2.617   5.320
    1LIG    H78  169   2.688   2.809   5.201
    1LIG    H79  170   2.781   2.684   5.286
    1LIG    H80  171   2.674   2.794   5.585
    1LIG    H81  172   2.798   2.698   5.499
    1LIG    H82  173   2.620   2.516   5.460
    1LIG    H83  174   2.505   2.612   5.556
    1LIG    H84  175   2.622   2.515   5.855
    1LIG    H85  176   2.519   2.625   5.766
    1LIG    H86  177   2.751   2.771   5.744
    1LIG    H87  178   2.809   2.667   5.867
    1LIG    H88  179   2.661   2.842   6.103
    1LIG    H89  180   2.764   2.706   6.057
    1LIG    H90  181   2.512   2.596   6.001
    1LIG    H91  182   2.471   2.702   6.135
    1LIG    H92  183   2.623   2.503   6.373
    1LIG    H93  184   2.492   2.615   6.332
    1LIG    H94  185   2.673   2.794   6.282
    1LIG    H95  186   2.796   2.681   6.338
    1LIG    H96  187   2.761   2.762   6.648
    1LIG    H97  188   2.810   2.632   6.542
    1LIG    H98  189   2.594   2.513   6.567
    1LIG    H99  190   2.522   2.645   6.658
    1LIG   H100  191   2.651   2.527   6.955
    1LIG   H101  192   2.520   2.614   6.872
    1LIG   H102  193   2.690   2.800   6.815
    1LIG   H103  194   2.812   2.715   6.913
    1LIG   H104  195   2.666   2.823   7.213
    1LIG   H105  196   2.781   2.709   7.138
    1LIG   H106  197   2.627   2.534   7.156
    1LIG   H107  198   2.496   2.633   7.089
    1LIG   H108  199   2.624   2.480   7.355
    1LIG   H109  200   2.520   2.556   7.469
    1LIG   H110  201   2.688   2.768   7.457
    1LIG   H111  202   2.789   2.666   7.353
    1LIG   H112  203   2.739   2.768   7.672
    1LIG   H113  204   2.808   2.624   7.752
    1LIG   H114  205   2.591   2.498   7.715
    1LIG   H115  206   2.525   2.640   7.630
    1LIG   H116  207   2.600   2.500   7.927
    1LIG   H117  208   2.487   2.609   8.011
    1LIG   H118  209   2.752   2.730   7.920
    1LIG   H119  210   2.655   2.769   8.060
    2MOL     C1  211   2.092   2.647   3.555
    2MOL     H1  212   2.000   2.707   3.543
    2MOL     O1  213   2.120   2.569   3.436
    2MOL     C2  214   2.241   2.487   3.442
    2MOL     H2  215   2.327   2.551   3.464
    2MOL     C3  216   2.264   2.421   3.304
    2MOL     H3  217   2.169   2.395   3.257
    2MOL     H4  218   2.319   2.328   3.315
    2MOL     O2  219   2.337   2.507   3.217
    2MOL     H5  220   2.420   2.457   3.199
    2MOL     C4  221   2.074   2.552   3.676
    2MOL     H6  222   1.983   2.492   3.659
    2MOL     O3  223   2.060   2.626   3.798
    2MOL     H7  224   2.091   2.717   3.779
    2MOL     C5  225   2.195   2.456   3.690
    2MOL     H8  226   2.282   2.518   3.716
    2MOL     O4  227   2.171   2.361   3.795
    2MOL     H9  228   2.127   2.415   3.864
    2MOL     C6  229   2.226   2.384   3.557
    2MOL    H10  230   2.147   2.312   3.533
    2MOL     O5  231   2.353   2.318   3.577
    2MOL     C7  232   2.367   2.178   3.541
    2MOL    H11  233   2.268   2.133   3.523
    2MOL     O6  234   2.450   2.166   3.424
    2MOL     C8  235   2.578   2.234   3.433
    2MOL    H12  236   2.562   2.337   3.464
    2MOL     C9  237   2.642   2.238   3.293
    2MOL    H13  238   2.650   2.136   3.255
    2MOL    H14  239   2.743   2.279   3.302
    2MOL     O7  240   2.565   2.317   3.202
    2MOL    H15  241   2.552   2.259   3.124
    2MOL    C10  242   2.438   2.107   3.658
    2MOL    H16  243   2.446   2.000   3.634
    2MOL     O8  244   2.357   2.125   3.776
    2MOL    H17  245   2.308   2.209   3.760
    2MOL    C11  246   2.582   2.165   3.678
    2MOL    H18  247   2.572   2.269   3.711
    2MOL     O9  248   2.654   2.092   3.778
    2MOL    H19  249   2.598   2.087   3.859
    2MOL    C12  250   2.663   2.166   3.544
    2MOL    H20  251   2.689   2.064   3.514
    2MOL    O10  252   2.781   2.248   3.565
    2MOL    C13  253   2.912   2.185   3.552
    2MOL    H21  254   2.902   2.076   3.542
    2MOL    O11  255   2.980   2.239   3.436
    2MOL    C14  256   3.004   2.384   3.437
    2MOL    H22  257   2.907   2.434   3.437
    2MOL    C15  258   3.078   2.428   3.306
    2MOL    H23  259   3.077   2.537   3.302
    2MOL    H24  260   3.021   2.392   3.219
    2MOL    O12  261   3.213   2.382   3.300
    2MOL    H25  262   3.264   2.458   3.262
    2MOL    C16  263   2.996   2.216   3.679
    2MOL    H26  264   3.094   2.166   3.668
    2MOL    O13  265   2.931   2.168   3.796
    2MOL    H27  266   2.839   2.144   3.770
    2MOL    C17  267   3.019   2.368   3.694
    2MOL    H28  268   2.920   2.414   3.705
    2MOL    O14  269   3.097   2.397   3.811
    2MOL    H29  270   3.075   2.325   3.874
    2MOL    C18  271   3.082   2.427   3.565
    2MOL    H30  272   3.187   2.395   3.558
    2MOL    O15  273   3.070   2.570   3.581
    2MOL    C19  274   3.188   2.652   3.572
    2MOL    H31  275   3.279   2.591   3.564
    2MOL    O16  276   3.175   2.738   3.457
    2MOL    C20  277   3.054   2.819   3.454
    2MOL    H32  278   2.968   2.752   3.462
    2MOL    C21  279   3.042   2.891   3.318
    2MOL    H33  280   2.938   2.923   3.303
    2MOL    H34  281   3.063   2.819   3.238
    2MOL    O17  282   3.128   3.004   3.305
    2MOL    H35  283   3.184   2.986   3.226
    2MOL    C22  284   3.197   2.741   3.699
    2MOL    H36  285   3.285   2.805   3.690
    2MOL    O18  286   3.206   2.661   3.817
    2MOL    H37  287   3.161   2.576   3.794
    2MOL    C23  288   3.071   2.831   3.710
    2MOL    H38  289   2.986   2.763   3.717
    2MOL    O19  290   3.075   2.916   3.827
    2MOL    H39  291   3.112   2.860   3.899
    2MOL    C24  292   3.053   2.912   3.579
    2MOL    H40  293   3.132   2.987   3.571
    2MOL    O20  294   2.923   2.973   3.592
    2MOL    C25  295   2.908   3.109   3.547
    2MOL    H41  296   3.006   3.154   3.527
    2MOL    O21  297   2.827   3.109   3.428
    2MOL    C26  298   2.698   3.045   3.442
    2MOL    H42  299   2.712   2.942   3.477
    2MOL    C27  300   2.628   3.039   3.304
    2MOL    H43  301   2.557   2.956   3.305
    2MOL    H44  302   2.703   3.017   3.227
    2MOL    O22  303   2.561   3.160   3.274
    2MOL    H45  304   2.466   3.135   3.281
    2MOL    C28  305   2.836   3.190   3.658
    2MOL    H46  306   2.828   3.295   3.626
    2MOL    O23  307   2.915   3.182   3.777
    2MOL    H47  308   2.944   3.089   3.781
    2MOL    C29  309   2.693   3.135   3.683
    2MOL    H48  310   2.703   3.034   3.725
    2MOL    O24  311   2.616   3.219   3.770
    2MOL    H49  312   2.656   3.216   3.862
    2MOL    C30  313   2.617   3.121   3.549
    2MOL    H50  314   2.595   3.222   3.512
    2MOL    O25  315   2.497   3.047   3.577
    2MOL    C31  316   2.372   3.112   3.544
    2MOL    H51  317   2.386   3.219   3.527
    2MOL    O26  318   2.317   3.049   3.427
    2MOL    C32  319   2.295   2.905   3.437
    2MOL    H52  320   2.390   2.857   3.459
    2MOL    C33  321   2.247   2.854   3.299
    2MOL    H53  322   2.194   2.937   3.250
    2MOL    H54  323   2.177   2.771   3.312
    2MOL    O27  324   2.356   2.814   3.217
    2MOL    H55  325   2.355   2.716   3.214
    2MOL    C34  326   2.276   3.093   3.663
    2MOL    H56  327   2.184   3.149   3.643
    2MOL    O28  328   2.340   3.143   3.780
    2MOL    H57  329   2.433   3.161   3.755
    2MOL    C35  330   2.241   2.943   3.684
    2MOL    H58  331   2.334   2.892   3.710
    2MOL    O29  332   2.148   2.927   3.792
    2MOL    H59  333   2.169   3.001   3.855
    2MOL    C36  334   2.196   2.874   3.554
    2MOL    H60  335   2.093   2.904   3.530
    2MOL    O30  336   2.205   2.732   3.582
    3MOL     C1  337   3.203   2.650   4.530
    3MOL     H1  338   3.291   2.713   4.546
    3MOL     O1  339   3.174   2.575   4.650
    3MOL     C2  340   3.059   2.486   4.644
    3MOL     H2  341   2.967   2.543   4.627
    3MOL     C3  342   3.051   2.417   4.782
    3MOL     H3  343   3.152   2.384   4.808
    3MOL     H4  344   2.988   2.328   4.776
    3MOL     O2  345   3.002   2.504   4.883
    3MOL     H5  346   2.904   2.510   4.873
    3MOL     C4  347   3.231   2.555   4.413
    3MOL     H6  348   3.324   2.501   4.435
    3MOL     O3  349   3.245   2.630   4.291
    3MOL     H7  350   3.208   2.720   4.309
    3MOL     C5  351   3.117   2.451   4.397
    3MOL     H8  352   3.028   2.507   4.366
    3MOL     O4  353   3.150   2.351   4.300
    3MOL     H9  354   3.137   2.391   4.212
    3MOL     C6  355   3.079   2.383   4.530
    3MOL    H10  356   3.156   2.310   4.557
    3MOL     O5  357   2.952   2.320   4.503
    3MOL     C7  358   2.936   2.180   4.533
    3MOL    H11  359   3.033   2.130   4.545
    3MOL     O6  360   2.857   2.168   4.654
    3MOL     C8  361   2.730   2.238   4.651
    3MOL    H12  362   2.749   2.342   4.628
    3MOL     C9  363   2.665   2.232   4.791
    3MOL    H13  364   2.665   2.128   4.826
    3MOL    H14  365   2.562   2.267   4.782
    3MOL     O7  366   2.734   2.315   4.885
    3MOL    H15  367   2.708   2.281   4.973
    3MOL    C10  368   2.856   2.115   4.417
    3MOL    H16  369   2.841   2.009   4.442
    3MOL     O8  370   2.927   2.127   4.294
    3MOL    H17  371   2.989   2.203   4.303
    3MOL    C11  372   2.717   2.182   4.404
    3MOL    H18  373   2.733   2.288   4.379
    3MOL     O9  374   2.643   2.120   4.298
    3MOL    H19  375   2.704   2.125   4.221
    3MOL    C12  376   2.640   2.177   4.538
    3MOL    H20  377   2.615   2.073   4.563
    3MOL    O10  378   2.521   2.259   4.522
    3MOL    C13  379   2.392   2.196   4.537
    3MOL    H21  380   2.402   2.088   4.551
    3MOL    O11  381   2.325   2.253   4.653
    3MOL    C14  382   2.293   2.395   4.649
    3MOL    H22  383   2.387   2.451   4.649
    3MOL    C15  384   2.213   2.434   4.776
    3MOL    H23  385   2.209   2.544   4.782
    3MOL    H24  386   2.267   2.399   4.864
    3MOL    O12  387   2.080   2.381   4.777
    3MOL    H25  388   2.034   2.418   4.854
    3MOL    C16  389   2.305   2.224   4.411
    3MOL    H26  390   2.208   2.175   4.425
    3MOL    O13  391   2.369   2.176   4.293
    3MOL    H27  392   2.464   2.164   4.319
    3MOL    C17  393   2.282   2.374   4.393
    3MOL    H28  394   2.381   2.421   4.382
    3MOL    O14  395   2.203   2.401   4.275
    3MOL    H29  396   2.216   2.322   4.218
    3MOL    C18  397   2.217   2.432   4.519
    3MOL    H30  398   2.112   2.399   4.525
    3MOL    O15  399   2.227   2.575   4.501
    3MOL    C19  400   2.107   2.653   4.510
    3MOL    H31  401   2.017   2.590   4.516
    3MOL    O16  402   2.116   2.734   4.629
    3MOL    C20  403   2.234   2.818   4.636
    3MOL    H32  404   2.324   2.755   4.635
    3MOL    C21  405   2.234   2.897   4.768
    3MOL    H33  406   2.329   2.949   4.780
    3MOL    H34  407   2.225   2.826   4.851
    3MOL    O17  408   2.126   2.990   4.772
    3MOL    H35  409   2.127   3.033   4.860
    3MOL    C22  410   2.098   2.744   4.386
    3MOL    H36  411   2.005   2.803   4.390
    3MOL    O18  412   2.100   2.664   4.268
    3MOL    H37  413   2.165   2.592   4.287
    3MOL    C23  414   2.219   2.839   4.379
    3MOL    H38  415   2.308   2.777   4.363
    3MOL    O19  416   2.205   2.933   4.270
    3MOL    H39  417   2.174   2.882   4.191
    3MOL    C24  418   2.239   2.913   4.513
    3MOL    H40  419   2.164   2.991   4.523
    3MOL    O20  420   2.372   2.966   4.506
    3MOL    C25  421   2.389   3.107   4.535
    3MOL    H41  422   2.292   3.156   4.549
    3MOL    O21  423   2.471   3.119   4.654
    3MOL    C26  424   2.599   3.050   4.647
    3MOL    H42  425   2.581   2.945   4.624
    3MOL    C27  426   2.677   3.055   4.782
    3MOL    H43  427   2.747   2.972   4.783
    3MOL    H44  428   2.608   3.041   4.866
    3MOL    O22  429   2.753   3.175   4.796
    3MOL    H45  430   2.844   3.144   4.777
    3MOL    C28  431   2.463   3.171   4.415
    3MOL    H46  432   2.471   3.279   4.433
    3MOL    O23  433   2.392   3.147   4.294
    3MOL    H47  434   2.326   3.077   4.311
    3MOL    C29  435   2.604   3.111   4.400
    3MOL    H48  436   2.592   3.007   4.371
    3MOL    O24  437   2.678   3.182   4.300
    3MOL    H49  438   2.616   3.204   4.229
    3MOL    C30  439   2.680   3.113   4.533
    3MOL    H50  440   2.703   3.218   4.557
    3MOL    O25  441   2.799   3.036   4.512
    3MOL    C31  442   2.925   3.104   4.534
    3MOL    H51  443   2.910   3.212   4.545
    3MOL    O26  444   2.985   3.048   4.652
    3MOL    C32  445   3.009   2.904   4.648
    3MOL    H52  446   2.914   2.851   4.637
    3MOL    C33  447   3.075   2.863   4.782
    3MOL    H53  448   3.141   2.943   4.815
    3MOL    H54  449   3.137   2.774   4.770
    3MOL    O27  450   2.977   2.838   4.883
    3MOL    H55  451   2.953   2.743   4.880
    3MOL    C34  452   3.015   3.081   4.411
    3MOL    H56  453   3.109   3.136   4.424
    3MOL    O28  454   2.949   3.124   4.294
    3MOL    H57  455   2.852   3.128   4.317
    3MOL    C35  456   3.046   2.931   4.393
    3MOL    H58  457   2.951   2.882   4.367
    3MOL    O29  458   3.140   2.910   4.286
    3MOL    H59  459   3.132   2.988   4.226
    3MOL    C36  460   3.097   2.869   4.524
    3MOL    H60  461   3.201   2.901   4.540
    3MOL    O30  462   3.087   2.729   4.500
    4SOL     OW  463   0.220   0.615   0.112
    4SOL    HW1  464   0.171   0.565   0.178
    4SOL    HW2  465   0.248   0.550   0.048
    5SOL     OW  466   0.233   0.282   0.990
    5SOL    HW1  467   0.252   0.242   1.075
    5SOL    HW2  468   0.152   0.239   0.961
    6SOL     OW  469   0.001   0.408   0.662
    6SOL    HW1  470   5.208   0.431   0.668
    6SOL    HW2  471   0.001   0.317   0.632
    7SOL     OW  472   0.577   1.289   1.187
    7SOL    HW1  473   0.495   1.296   1.139
    7SOL    HW2  474   0.592   1.378   1.221
    8SOL     OW  475   1.565   1.513   0.709
    8SOL    HW1  476   1.522   1.491   0.791
    8SOL    HW2  477   1.494   1.516   0.645
    9SOL     OW  478   1.133   0.698   0.699
    9SOL    HW1  479   1.180   0.780   0.686
    9SOL    HW2  480   1.085   0.711   0.781
   10SOL     OW  481   1.773   0.598   0.230
   10SOL    HW1  482   1.726   0.606   0.147
   10SOL    HW2  483   1.732   0.523   0.274
   11SOL     OW  484   0.752   1.139   1.042
   11SOL    HW1  485   0.687   1.174   1.103
   11SOL    HW2  486   0.788   1.216   0.998
   12SOL     OW  487   0.869   0.773   1.823
   12SOL    HW1  488   0.862   0.844   1.886
   12SOL    HW2  489   0.893   0.816   1.741
   13SOL     OW  490   0.683   0.998   0.649
   13SOL    HW1  491   0.750   0.989   0.717
   13SOL    HW2  492   0.617   1.054   0.689
   14SOL     OW  493   0.711   1.150   1.816
   14SOL    HW1  494   0.760   1.227   1.844
   14SOL    HW2  495   0.631   1.185   1.778
   15SOL     OW  496   0.358   1.403   1.061
   15SOL    HW1  497   0.271   1.399   1.023
   15SOL    HW2  498   0.406   1.465   1.005
   16SOL     OW  499   1.460   1.501   1.358
   16SOL    HW1  500   1.513   1.580   1.367
   16SOL    HW2  501   1.394   1.508   1.427
   17SOL     OW  502   0.453   0.398   1.483
   17SOL    HW1  503   0.532   0.345   1.482
   17SOL    HW2  504   0.382   0.335   1.494
   18SOL     OW  505   1.608   0.451   0.739
   18SOL    HW1  506   1.529   0.469   0.688
   18SOL    HW2  507   1.622   0.530   0.791
   19SOL     OW  508   0.218   1.733   0.462
   19SOL    HW1  509   0.257   1.788   0.530
   19SOL    HW2  510   0.291   1.709   0.405
   20SOL     OW  511   1.137   1.342   1.694
   20SOL    HW1  512   1.178   1.336   1.780
   20SOL    HW2  513   1.085   1.262   1.686
   21SOL     OW  514   0.220   1.451   0.530
   21SOL    HW1  515   0.198   1.544   0.539
   21SOL    HW2  516   0.162   1.407   0.592
   22SOL     OW  517   0.258   1.077   0.878
   22SOL    HW1  518   0.263   0.989   0.915
   22SOL    HW2  519   0.201   1.125   0.938
   23SOL     OW  520   0.610   1.790   1.432
   23SOL    HW1  521   0.526   1.773   1.475
   23SOL    HW2  522   0.632   1.881   1.455
   24SOL     OW  523   0.615   0.958   0.143
   24SOL    HW1  524   0.572   1.037   0.112
   24SOL    HW2  525   0.675   0.988   0.212
   25SOL     OW  526   1.587   0.137   1.455
   25SOL    HW1  527   1.614   0.221   1.416
   25SOL    HW2  528   1.580   0.156   1.548
   26SOL     OW  529   0.128   0.640   0.584
   26SOL    HW1  530   0.093   0.555   0.611
   26SOL    HW2  531   0.098   0.701   0.651
   27SOL     OW  532   1.847   1.756   0.328
   27SOL    HW1  533   1.914   1.727   0.390
   27SOL    HW2  534   1.870   1.848   0.310
   28SOL     OW  535   0.032   1.580   0.104
   28SOL    HW1  536   0.022   1.496   0.148
   28SOL    HW2  537   0.008   1.645   0.171
   29SOL     OW  538   1.689   0.919   0.647
   29SOL    HW1  539   1.769   0.874   0.622
   29SOL    HW2  540   1.666   0.971   0.569
   30SOL     OW  541   1.647   1.103   0.435
   30SOL    HW1  542   1.729   1.114   0.386
   30SOL    HW2  543   1.653   1.166   0.506
   31SOL     OW  544   0.132   0.750   1.584
   31SOL    HW1  545   0.227   0.764   1.582
   31SOL    HW2  546   0.096   0.837   1.601
   32SOL     OW  547   0.617   1.389   0.733
   32SOL    HW1  548   0.570   1.306   0.744
   32SOL    HW2  549   0.600   1.414   0.643
   33SOL     OW  550   1.287   1.237   1.422
   33SOL    HW1  551   1.318   1.169   1.362
   33SOL    HW2  552   1.346   1.232   1.498
   34SOL     OW  553   0.819   0.033   0.531
   34SOL    HW1  554   0.847   0.118   0.500
   34SOL    HW2  555   0.724   0.034   0.523
   35SOL     OW  556   0.172   0.941   1.280
   35SOL    HW1  557   0.262   0.911   1.272
   35SOL    HW2  558   0.134   0.926   1.194
   36SOL     OW  559   1.506   1.010   0.214
   36SOL    HW1  560   1.443   0.946   0.249
   36SOL    HW2  561   1.560   1.034   0.290
   37SOL     OW  562   1.185   1.809   1.624
   37SOL    HW1  563   1.192   1.869   1.550
   37SOL    HW2  564   1.202   1.723   1.587
   38SOL     OW  565   0.332   0.282   1.797
   38SOL    HW1  566   0.390   0.339   1.848
   38SOL    HW2  567   0.251   0.280   1.847
   39SOL     OW  568   1.468   1.419   0.950
   39SOL    HW1  569   1.400   1.435   1.015
   39SOL    HW2  570   1.454   1.328   0.923
   40SOL     OW  571   1.657   1.747   0.582
   40SOL    HW1  572   1.637   1.717   0.493
   40SOL    HW2  573   1.635   1.673   0.638
   41SOL     OW  574   0.596   0.712   0.281
   41SOL    HW1  575   0.615   0.794   0.237
   41SOL    HW2  576   0.535   0.736   0.351
   42SOL     OW  577   1.276   0.351   0.933
   42SOL    HW1  578   1.186   0.321   0.944
   42SOL    HW2  579   1.327   0.300   0.995
   43SOL     OW  580   1.587   1.672   0.321
   43SOL    HW1  581   1.679   1.699   0.313
   43SOL    HW2  582   1.559   1.655   0.231
   44SOL     OW  583   0.794   0.619   1.449
   44SOL    HW1  584   0.765   0.597   1.538
   44SOL    HW2  585   0.754   0.552   1.394
   45SOL     OW  586   1.394   0.476   1.678
   45SOL    HW1  587   1.398   0.520   1.763
   45SOL    HW2  588   1.457   0.404   1.687
   46SOL     OW  589   0.952   0.887   1.584
   46SOL    HW1  590   1.007   0.817   1.547
   46SOL    HW2  591   0.904   0.922   1.509
   47SOL     OW  592   0.993   0.417   1.233
   47SOL    HW1  593   0.906   0.436   1.267
   47SOL    HW2  594   0.978   0.369   1.151
   48SOL     OW  595   1.054   0.699   0.428
   48SOL    HW1  596   1.071   0.692   0.522
   48SOL    HW2  597   0.971   0.654   0.415
   49SOL     OW  598   0.065   0.792   0.814
   49SOL    HW1  599   0.146   0.795   0.865
   49SOL    HW2  600   0.071   0.868   0.756
   50SOL     OW  601   0.127   1.887   1.586
   50SOL    HW1  602   0.132   1.861   1.678
   50SOL    HW2  603   0.061   1.829   1.548
   51SOL     OW  604   0.887   0.360   0.203
   51SOL    HW1  605   0.932   0.408   0.133
   51SOL    HW2  606   0.869   0.274   0.166
   52SOL     OW  607   1.705   0.571   1.828
   52SOL    HW1  608   1.669   0.645   1.779
   52SOL    HW2  609   1.737   0.511   1.761
   53SOL     OW  610   1.378   1.142   0.541
   53SOL    HW1  611   1.457   1.130   0.487
   53SOL    HW2  612   1.325   1.204   0.492
   54SOL     OW  613   0.534   0.203   0.883
   54SOL    HW1  614   0.551   0.222   0.975
   54SOL    HW2  615   0.548   0.287   0.838
   55SOL     OW  616   1.001   1.443   0.471
   55SOL    HW1  617   0.966   1.517   0.421
   55SOL    HW2  618   0.980   1.463   0.562
   56SOL     OW  619   0.358   1.804   0.870
   56SOL    HW1  620   0.398   1.718   0.883
   56SOL    HW2  621   0.423   1.866   0.904
   57SOL     OW  622   1.800   1.055   0.870
   57SOL    HW1  623   1.747   1.034   0.793
   57SOL    HW2  624   1.737   1.061   0.942
   58SOL     OW  625   1.228   1.539   1.513
   58SOL    HW1  626   1.215   1.466   1.574
   58SOL    HW2  627   1.162   1.526   1.445
   59SOL     OW  628   0.327   0.949   0.255
   59SOL    HW1  629   0.407   0.965   0.205
   59SOL    HW2  630   0.318   0.854   0.256
   60SOL     OW  631   1.480   0.747   0.725
   60SOL    HW1  632   1.474   0.705   0.811
   60SOL    HW2  633   1.558   0.802   0.731
   61SOL     OW  634   0.466   1.265   1.738
   61SOL    HW1  635   0.440   1.271   1.646
   61SOL    HW2  636   0.384   1.266   1.787
   62SOL     OW  637   1.107   1.781   0.222
   62SOL    HW1  638   1.050   1.741   0.287
   62SOL    HW2  639   1.129   1.710   0.162
   63SOL     OW  640   0.198   0.281   1.496
   63SOL    HW1  641   0.161   0.369   1.486
   63SOL    HW2  642   0.209   0.270   1.590
   64SOL     OW  643   1.635   1.372   0.083
   64SOL    HW1  644   1.593   1.458   0.084
   64SOL    HW2  645   1.563   1.311   0.064
   65SOL     OW  646   0.470   1.732   0.326
   65SOL    HW1  647   0.514   1.793   0.385
   65SOL    HW2  648   0.539   1.705   0.264
   66SOL     OW  649   1.418   0.101   0.447
   66SOL    HW1  650   1.413   0.080   0.353
   66SOL    HW2  651   1.509   0.127   0.461
   67SOL     OW  652   0.278   1.801   1.208
   67SOL    HW1  653   0.306   1.722   1.253
   67SOL    HW2  654   0.223   1.769   1.136
   68SOL     OW  655   0.939   1.699   0.897
   68SOL    HW1  656   1.017   1.648   0.919
   68SOL    HW2  657   0.896   1.649   0.828
   69SOL     OW  658   0.379   0.698   0.473
   69SOL    HW1  659   0.411   0.609   0.485
   69SOL    HW2  660   0.288   0.695   0.503
   70SOL     OW  661   1.536   0.228   1.722
   70SOL    HW1  662   1.544   0.244   1.816
   70SOL    HW2  663   1.459   0.171   1.714
   71SOL     OW  664   0.625   0.139   0.122
   71SOL    HW1  665   0.716   0.112   0.132
   71SOL    HW2  666   0.597   0.098   0.040
   72SOL     OW  667   0.778   0.312   1.768
   72SOL    HW1  668   0.839   0.239   1.767
   72SOL    HW2  669   0.734   0.306   1.852
   73SOL     OW  670   0.877   1.523   1.193
   73SOL    HW1  671   0.860   1.485   1.107
   73SOL    HW2  672   0.947   1.468   1.230
   74SOL     OW  673   1.340   0.589   1.432
   74SOL    HW1  674   1.371   0.558   1.518
   74SOL    HW2  675   1.376   0.677   1.424
   75SOL     OW  676   0.817   1.391   0.943
   75SOL    HW1  677   0.902   1.380   0.899
   75SOL    HW2  678   0.754   1.396   0.871
   76SOL     OW  679   0.928   0.511   0.901
   76SOL    HW1  680   0.904   0.502   0.809
   76SOL    HW2  681   0.957   0.423   0.927
   77SOL     OW  682   0.550   0.057   0.508
   77SOL    HW1  683   0.470   0.057   0.561
   77SOL    HW2  684   0.535   0.126   0.444
   78SOL     OW  685   1.432   1.200   0.035
   78SOL    HW1  686   1.456   1.127   0.092
   78SOL    HW2  687   1.345   1.226   0.064
   79SOL     OW  688   0.322   0.078   0.197
   79SOL    HW1  689   0.387   0.146   0.180
   79SOL    HW2  690   0.369   5.296   0.185
   80SOL     OW  691   0.947   0.263   0.453
   80SOL    HW1  692   0.921   0.306   0.372
   80SOL    HW2  693   1.039   0.285   0.464
   81SOL     OW  694   1.081   0.683   1.459
   81SOL    HW1  695   1.014   0.615   1.462
   81SOL    HW2  696   1.163   0.635   1.452
   82SOL     OW  697   1.222   1.570   0.795
   82SOL    HW1  698   1.236   1.637   0.727
   82SOL    HW2  699   1.290   1.587   0.859
   83SOL     OW  700   0.470   1.153   0.729
   83SOL    HW1  701   0.401   1.132   0.792
   83SOL    HW2  702   0.429   1.138   0.643
   84SOL     OW  703   1.266   1.793   0.610
   84SOL    HW1  704   1.317   1.857   0.559
   84SOL    HW2  705   1.197   1.845   0.652
   85SOL     OW  706   1.029   0.524   0.034
   85SOL    HW1  707   0.994   0.609   0.005
   85SOL    HW2  708   1.094   0.547   0.101
   86SOL     OW  709   0.103   0.528   1.415
   86SOL    HW1  710   0.182   0.548   1.365
   86SOL    HW2  711   0.080   0.610   1.459
   87SOL     OW  712   0.559   0.240   1.159
   87SOL    HW1  713   0.592   0.154   1.186
   87SOL    HW2  714   0.467   0.239   1.184
   88SOL     OW  715   0.867   0.462   0.640
   88SOL    HW1  716   0.824   0.516   0.573
   88SOL    HW2  717   0.889   0.380   0.594
   89SOL     OW  718   0.978   0.062   0.764
   89SOL    HW1  719   0.915   0.059   0.692
   89SOL    HW2  720   0.987   5.270   0.791
   90SOL     OW  721   1.438   1.162   0.856
   90SOL    HW1  722   1.367   1.097   0.856
   90SOL    HW2  723   1.462   1.171   0.764
   91SOL     OW  724   1.466   0.609   0.974
   91SOL    HW1  725   1.414   0.528   0.977
   91SOL    HW2  726   1.525   0.602   1.048
   92SOL     OW  727   1.847   0.813   0.388
   92SOL    HW1  728   1.900   0.761   0.448
   92SOL    HW2  729   1.818   0.750   0.322
   93SOL     OW  730   0.484   1.441   0.173
   93SOL    HW1  731   0.410   1.404   0.222
   93SOL    HW2  732   0.491   1.386   0.096
   94SOL     OW  733   1.674   1.265   0.645
   94SOL    HW1  734   1.768   1.267   0.659
   94SOL    HW2  735   1.645   1.354   0.666
   95SOL     OW  736   1.399   0.574   0.088
   95SOL    HW1  737   1.335   0.558   0.158
   95SOL    HW2  738   1.450   0.494   0.083
   96SOL     OW  739   0.522   0.269   0.328
   96SOL    HW1  740   0.568   0.214   0.263
   96SOL    HW2  741   0.505   0.351   0.282
   97SOL     OW  742   1.751   1.241   1.569
   97SOL    HW1  743   1.838   1.202   1.564
   97SOL    HW2  744   1.766   1.331   1.597
   98SOL     OW  745   1.057   1.353   1.333
   98SOL    HW1  746   0.982   1.322   1.383
   98SOL    HW2  747   1.132   1.312   1.374
   99SOL     OW  748   1.609   1.627   1.656
   99SOL    HW1  749   1.601   1.660   1.567
   99SOL    HW2  750   1.691   1.578   1.657
  100SOL     OW  751   1.132   1.206   1.104
  100SOL    HW1  752   1.072   1.244   1.168
  100SOL    HW2  753   1.101   1.240   1.020
  101SOL     OW  754   1.626   1.097   1.076
  101SOL    HW1  755   1.620   1.159   1.149
  101SOL    HW2  756   1.548   1.115   1.023
  102SOL     OW  757   0.905   0.108   1.385
  102SOL    HW1  758   0.935   0.074   1.302
  102SOL    HW2  759   0.981   0.150   1.424
  103SOL     OW  760   0.984   1.115   1.723
  103SOL    HW1  761   0.893   1.132   1.745
  103SOL    HW2  762   0.982   1.037   1.667
  104SOL     OW  763   0.717   1.064   0.382
  104SOL    HW1  764   0.699   1.045   0.474
  104SOL    HW2  765   0.795   1.012   0.362
  105SOL     OW  766   0.421   0.823   1.254
  105SOL    HW1  767   0.490   0.829   1.319
  105SOL    HW2  768   0.387   0.734   1.262
  106SOL     OW  769   1.265   0.378   1.275
  106SOL    HW1  770   1.299   0.455   1.321
  106SOL    HW2  771   1.175   0.400   1.252
  107SOL     OW  772   0.103   1.623   1.365
  107SOL    HW1  773   0.081   1.626   1.272
  107SOL    HW2  774   0.190   1.582   1.368
  108SOL     OW  775   0.343   1.112   0.485
  108SOL    HW1  776   0.338   1.191   0.432
  108SOL    HW2  777   0.355   1.041   0.422
  109SOL     OW  778   0.554   0.534   0.859
  109SOL    HW1  779   0.568   0.593   0.785
  109SOL    HW2  780   0.620   0.560   0.923
  110SOL     OW  781   1.247   1.347   0.395
  110SOL    HW1  782   1.302   1.420   0.423
  110SOL    HW2  783   1.159   1.370   0.426
  111SOL     OW  784   1.285   1.459   1.147
  111SOL    HW1  785   1.340   1.462   1.225
  111SOL    HW2  786   1.229   1.382   1.161
  112SOL     OW  787   1.579   0.624   0.484
  112SOL    HW1  788   1.529   0.671   0.551
  112SOL    HW2  789   1.612   0.693   0.426
  113SOL     OW  790   0.352   1.520   1.309
  113SOL    HW1  791   0.341   1.476   1.225
  113SOL    HW2  792   0.446   1.537   1.315
  114SOL     OW  793   0.417   0.740   1.603
  114SOL    HW1  794   0.476   0.788   1.545
  114SOL    HW2  795   0.462   0.657   1.619
  115SOL     OW  796   1.605   0.779   1.684
  115SOL    HW1  797   1.519   0.821   1.678
  115SOL    HW2  798   1.657   0.822   1.616
  116SOL     OW  799   1.053   0.119   1.786
  116SOL    HW1  800   1.080   0.199   1.740
  116SOL    HW2  801   1.055   0.050   1.720
  117SOL     OW  802   0.483   0.060   1.737
  117SOL    HW1  803   0.422   5.293   1.706
  117SOL    HW2  804   0.428   0.137   1.752
  118SOL     OW  805   0.586   0.874   1.033
  118SOL    HW1  806   0.619   0.964   1.033
  118SOL    HW2  807   0.529   0.870   1.110
  119SOL     OW  808   1.354   0.859   1.026
  119SOL    HW1  809   1.269   0.847   0.983
  119SOL    HW2  810   1.397   0.774   1.018
  120SOL     OW  811   1.199   0.526   0.269
  120SOL    HW1  812   1.210   0.448   0.322
  120SOL    HW2  813   1.158   0.590   0.327
  121SOL     OW  814   0.303   0.204   1.246
  121SOL    HW1  815   0.261   0.236   1.326
  121SOL    HW2  816   0.293   0.109   1.251
  122SOL     OW  817   0.063   1.316   1.279
  122SOL    HW1  818   0.090   1.258   1.350
  122SOL    HW2  819   5.291   1.367   1.315
  123SOL     OW  820   0.725   0.632   1.058
  123SOL    HW1  821   0.800   0.616   1.000
  123SOL    HW2  822   0.696   0.720   1.037
  124SOL     OW  823   1.736   0.959   1.855
  124SOL    HW1  824   1.692   0.895   1.800
  124SOL    HW2  825   1.676   0.975   1.928
  125SOL     OW  826   0.319   0.066   0.658
  125SOL    HW1  827   0.300   0.160   0.662
  125SOL    HW2  828   0.329   0.039   0.750
  126SOL     OW  829   1.627   0.382   0.365
  126SOL    HW1  830   1.651   0.314   0.427
  126SOL    HW2  831   1.599   0.456   0.419
  127SOL     OW  832   1.029   0.759   0.959
  127SOL    HW1  833   1.023   0.776   1.053
  127SOL    HW2  834   1.002   0.668   0.950
  128SOL     OW  835   0.981   1.566   1.719
  128SOL    HW1  836   0.966   1.610   1.636
  128SOL    HW2  837   1.026   1.484   1.695
  129SOL     OW  838   1.853   1.503   1.605
  129SOL    HW1  839   1.873   1.530   1.515
  129SOL    HW2  840   1.933   1.519   1.654
  130SOL     OW  841   0.355   0.917   1.807
  130SOL    HW1  842   0.435   0.938   1.854
  130SOL    HW2  843   0.381   0.852   1.742
  131SOL     OW  844   1.516   0.311   0.126
  131SOL    HW1  845   1.485   0.221   0.137
  131SOL    HW2  846   1.558   0.332   0.209
  132SOL     OW  847   1.296   0.821   0.020
  132SOL    HW1  848   1.334   0.735   0.037
  132SOL    HW2  849   1.359   0.865   8.043
  133SOL     OW  850   1.068   1.337   0.855
  133SOL    HW1  851   1.071   1.265   0.792
  133SOL    HW2  852   1.127   1.403   0.820
  134SOL     OW  853   0.312   0.808   0.949
  134SOL    HW1  854   0.406   0.827   0.945
  134SOL    HW2  855   0.307   0.717   0.980
  135SOL     OW  856   0.335   0.528   1.015
  135SOL    HW1  857   0.298   0.441   1.001
  135SOL    HW2  858   0.411   0.532   0.957
  136SOL     OW  859   1.135   0.377   1.690
  136SOL    HW1  860   1.087   0.431   1.753
  136SOL    HW2  861   1.222   0.417   1.686
  137SOL     OW  862   1.131   0.222   1.467
  137SOL    HW1  863   1.135   0.282   1.542
  137SOL    HW2  864   1.188   0.263   1.401
  138SOL     OW  865   0.013   1.323   0.200
  138SOL    HW1  866   5.244   1.303   0.137
  138SOL    HW2  867   0.016   1.246   0.258
  139SOL     OW  868   0.095   1.783   0.951
  139SOL    HW1  869   0.060   1.713   0.895
  139SOL    HW2  870   0.183   1.799   0.916
  140SOL     OW  871   0.504   1.573   0.908
  140SOL    HW1  872   0.571   1.639   0.928
  140SOL    HW2  873   0.547   1.513   0.847
  141SOL     OW  874   0.979   0.790   1.225
  141SOL    HW1  875   1.037   0.769   1.298
  141SOL    HW2  876   0.895   0.751   1.249
  142SOL     OW  877   0.036   0.574   1.123
  142SOL    HW1  878   0.114   0.540   1.080
  142SOL    HW2  879   0.036   0.532   1.209
  143SOL     OW  880   0.165   0.519   1.720
  143SOL    HW1  881   0.250   0.496   1.682
  143SOL    HW2  882   0.138   0.597   1.672
  144SOL     OW  883   1.379   0.936   1.658
  144SOL    HW1  884   1.400   1.030   1.655
  144SOL    HW2  885   1.375   0.910   1.566
  145SOL     OW  886   0.819   0.571   0.370
  145SOL    HW1  887   0.830   0.499   0.308
  145SOL    HW2  888   0.742   0.619   0.339
  146SOL     OW  889   1.641   0.601   1.183
  146SOL    HW1  890   1.631   0.542   1.258
  146SOL    HW2  891   1.729   0.582   1.149
  147SOL     OW  892   0.255   1.555   1.734
  147SOL    HW1  893   0.234   1.619   1.802
  147SOL    HW2  894   0.251   1.470   1.778
  148SOL     OW  895   0.705   0.451   1.258
  148SOL    HW1  896   0.652   0.377   1.227
  148SOL    HW2  897   0.701   0.515   1.187
  149SOL     OW  898   0.926   1.679   1.469
  149SOL    HW1  899   0.900   1.642   1.385
  149SOL    HW2  900   0.919   1.773   1.457
  150SOL     OW  901   0.470   0.491   0.175
  150SOL    HW1  902   0.539   0.555   0.195
  150SOL    HW2  903   0.389   0.537   0.194
  151SOL     OW  904   0.147   1.137   1.470
  151SOL    HW1  905   0.143   1.090   1.554
  151SOL    HW2  906   0.157   1.068   1.405
  152SOL     OW  907   1.323   1.045   1.221
  152SOL    HW1  908   1.346   0.982   1.154
  152SOL    HW2  909   1.255   1.100   1.182
  153SOL     OW  910   1.305   0.848   0.309
  153SOL    HW1  911   1.229   0.816   0.357
  153SOL    HW2  912   1.282   0.834   0.217
  154SOL     OW  913   1.775   1.741   1.153
  154SOL    HW1  914   1.835   1.767   1.083
  154SOL    HW2  915   1.750   1.652   1.131
  155SOL     OW  916   1.241   1.733   1.110
  155SOL    HW1  917   1.323   1.755   1.066
  155SOL    HW2  918   1.248   1.640   1.129
  156SOL     OW  919   0.082   1.211   1.027
  156SOL    HW1  920   0.068   1.239   1.118
  156SOL    HW2  921   5.294   1.202   0.991
  157SOL     OW  922   0.678   1.668   1.734
  157SOL    HW1  923   0.620   1.744   1.726
  157SOL    HW2  924   0.744   1.682   1.666
  158SOL     OW  925   0.893   0.085   0.139
  158SOL    HW1  926   0.945   0.073   0.059
  158SOL    HW2  927   0.904   0.004   0.188
  159SOL     OW  928   1.711   0.152   0.502
  159SOL    HW1  929   1.785   0.130   0.445
  159SOL    HW2  930   1.705   0.078   0.562
  160SOL     OW  931   1.390   1.568   0.489
  160SOL    HW1  932   1.453   1.602   0.425
  160SOL    HW2  933   1.342   1.645   0.518
  161SOL     OW  934   0.148   1.798   1.842
  161SOL    HW1  935   0.093   1.735   1.890
  161SOL    HW2  936   0.196   1.844   1.911
  162SOL     OW  937   1.277   0.927   0.672
  162SOL    HW1  938   1.351   0.867   0.680
  162SOL    HW2  939   1.311   0.999   0.618
  163SOL     OW  940   0.810   1.274   1.428
  163SOL    HW1  941   0.781   1.315   1.509
  163SOL    HW2  942   0.740   1.294   1.365
  164SOL     OW  943   0.678   1.622   0.156
  164SOL    HW1  944   0.683   1.631   0.061
  164SOL    HW2  945   0.616   1.550   0.169
  165SOL     OW  946   1.622   1.727   1.391
  165SOL    HW1  947   1.674   1.733   1.311
  165SOL    HW2  948   1.608   1.818   1.417
  166SOL     OW  949   1.847   0.153   0.956
  166SOL    HW1  950   1.840   0.057   0.955
  166SOL    HW2  951   1.761   0.183   0.925
  167SOL     OW  952   0.271   0.330   0.718
  167SOL    HW1  953   0.183   0.365   0.704
  167SOL    HW2  954   0.276   0.315   0.812
  168SOL     OW  955   1.159   1.579   0.051
  168SOL    HW1  956   1.171   1.487   0.073
  168SOL    HW2  957   1.171   1.583   8.036
  169SOL     OW  958   0.824   1.006   1.374
  169SOL    HW1  959   0.868   1.000   1.289
  169SOL    HW2  960   0.822   1.100   1.393
  170SOL     OW  961   0.919   0.913   0.298
  170SOL    HW1  962   0.972   0.937   0.222
  170SOL    HW2  963   0.968   0.843   0.341
  171SOL     OW  964   1.509   1.622   0.062
  171SOL    HW1  965   1.414   1.623   0.049
  171SOL    HW2  966   1.545   1.627   8.053
  172SOL     OW  967   0.367   1.304   1.493
  172SOL    HW1  968   0.359   1.378   1.433
  172SOL    HW2  969   0.291   1.249   1.474
  173SOL     OW  970   1.610   1.283   1.280
  173SOL    HW1  971   1.669   1.270   1.354
  173SOL    HW2  972   1.549   1.351   1.310
  174SOL     OW  973   1.056   1.109   0.708
  174SOL    HW1  974   0.984   1.057   0.747
  174SOL    HW2  975   1.119   1.043   0.679
  175SOL     OW  976   1.018   0.244   0.970
  175SOL    HW1  977   0.998   0.199   0.888
  175SOL    HW2  978   1.012   0.176   1.037
  176SOL     OW  979   0.604   1.486   0.477
  176SOL    HW1  980   0.648   1.437   0.408
  176SOL    HW2  981   0.535   1.534   0.432
  177SOL     OW  982   1.727   0.386   1.377
  177SOL    HW1  983   1.798   0.450   1.377
  177SOL    HW2  984   1.758   0.316   1.319
  178SOL     OW  985   0.271   1.324   0.300
  178SOL    HW1  986   0.186   1.331   0.257
  178SOL    HW2  987   0.261   1.372   0.382
  179SOL     OW  988   0.118   1.016   1.716
  179SOL    HW1  989   0.047   0.983   1.771
  179SOL    HW2  990   0.198   0.986   1.759
  180SOL     OW  991   0.677   0.219   1.493
  180SOL    HW1  992   0.759   0.203   1.447
  180SOL    HW2  993   0.702   0.264   1.573
  181SOL     OW  994   0.083   0.356   8.073
  181SOL    HW1  995   0.008   0.319   0.039
  181SOL    HW2  996   0.056   0.445   8.052
  182SOL     OW  997   1.428   0.858   1.399
  182SOL    HW1  998   1.379   0.919   1.344
  182SOL    HW2  999   1.517   0.860   1.364
  183SOL     OW 1000   0.081   0.144   0.284
  183SOL    HW1 1001   0.080   0.240   0.281
  183SOL    HW2 1002   0.171   0.120   0.261
  184SOL     OW 1003   1.184   1.314   0.121
  184SOL    HW1 1004   1.088   1.306   0.119
  184SOL    HW2 1005   1.205   1.316   0.215
  185SOL     OW 1006   0.620   0.831   1.436
  185SOL    HW1 1007   0.676   0.907   1.420
  185SOL    HW2 1008   0.681   0.757   1.443
  186SOL     OW 1009   1.483   1.780   0.981
  186SOL    HW1 1010   1.506   1.842   0.912
  186SOL    HW2 1011   1.567   1.757   1.021
  187SOL     OW 1012   0.713   0.574   1.702
  187SOL    HW1 1013   0.758   0.636   1.759
  187SOL    HW2 1014   0.741   0.487   1.733
  188SOL     OW 1015   1.473   1.197   1.630
  188SOL    HW1 1016   1.461   1.212   1.724
  188SOL    HW2 1017   1.566   1.214   1.615
  189SOL     OW 1018   0.374   1.744   1.565
  189SOL    HW1 1019   0.292   1.790   1.548
  189SOL    HW2 1020   0.348   1.663   1.610
  190SOL     OW 1021   1.667   0.880   1.255
  190SOL    HW1 1022   1.662   0.795   1.212
  190SOL    HW2 1023   1.657   0.944   1.184
  191SOL     OW 1024   1.216   0.328   0.473
  191SOL    HW1 1025   1.274   0.253   0.459
  191SOL    HW2 1026   1.255   0.374   0.547
  192SOL     OW 1027   0.587   0.735   0.670
  192SOL    HW1 1028   0.626   0.821   0.657
  192SOL    HW2 1029   0.517   0.731   0.605
  193SOL     OW 1030   1.765   0.362   1.649
  193SOL    HW1 1031   1.746   0.378   1.557
  193SOL    HW2 1032   1.692   0.307   1.679
  194SOL     OW 1033   1.746   0.934   1.512
  194SOL    HW1 1034   1.740   1.028   1.524
  194SOL    HW2 1035   1.730   0.921   1.418
  195SOL     OW 1036   0.899   1.370   0.043
  195SOL    HW1 1037   0.837   1.359   0.115
  195SOL    HW2 1038   0.877   1.455   0.005
  196SOL     OW 1039   0.665   1.792   0.940
  196SOL    HW1 1040   0.645   1.883   0.919
  196SOL    HW2 1041   0.760   1.786   0.934
  197SOL     OW 1042   0.869   0.968   0.854
  197SOL    HW1 1043   0.919   0.896   0.893
  197SOL    HW2 1044   0.832   1.015   0.929
  198SOL     OW 1045   1.076   0.973   0.084
  198SOL    HW1 1046   1.068   1.040   0.017
  198SOL    HW2 1047   1.154   0.922   0.059
  199SOL     OW 1048   1.851   1.553   0.843
  199SOL    HW1 1049   1.772   1.542   0.791
  199SOL    HW2 1050   1.843   1.488   0.913
  200SOL     OW 1051   0.227   1.303   1.861
  200SOL    HW1 1052   0.159   1.242   1.835
  200SOL    HW2 1053   0.216   1.314   1.956
  201SOL     OW 1054   0.100   1.235   0.662
  201SOL    HW1 1055   0.101   1.189   0.746
  201SOL    HW2 1056   0.175   1.199   0.614
  202SOL     OW 1057   0.683   1.404   1.630
  202SOL    HW1 1058   0.602   1.363   1.660
  202SOL    HW2 1059   0.679   1.493   1.666
  203SOL     OW 1060   1.810   0.174   1.230
  203SOL    HW1 1061   1.773   0.086   1.231
  203SOL    HW2 1062   1.833   0.190   1.139
  204SOL     OW 1063   0.431   0.441   0.521
  204SOL    HW1 1064   0.467   0.368   0.472
  204SOL    HW2 1065   0.386   0.401   0.596
  205SOL     OW 1066   1.699   1.488   1.094
  205SOL    HW1 1067   1.619   1.466   1.046
  205SOL    HW2 1068   1.707   1.418   1.159
  206SOL     OW 1069   0.339   0.564   1.289
  206SOL    HW1 1070   0.396   0.505   1.339
  206SOL    HW2 1071   0.351   0.536   1.198
  207SOL     OW 1072   0.830   1.577   0.677
  207SOL    HW1 1073   0.813   1.637   0.604
  207SOL    HW2 1074   0.755   1.519   0.678
  208SOL     OW 1075   1.427   0.219   1.116
  208SOL    HW1 1076   1.462   0.144   1.163
  208SOL    HW2 1077   1.378   0.268   1.183
  209SOL     OW 1078   1.001   0.019   1.138
  209SOL    HW1 1079   0.951   5.252   1.091
  209SOL    HW2 1080   1.087   5.279   1.152
  210SOL     OW 1081   0.773   1.326   0.308
  210SOL    HW1 1082   0.744   1.237   0.326
  210SOL    HW2 1083   0.853   1.336   0.360
  211SOL     OW 1084   0.623   1.555   1.288
  211SOL    HW1 1085   0.624   1.637   1.337
  211SOL    HW2 1086   0.711   1.550   1.249
  212SOL     OW 1087   1.398   0.051   0.167
  212SOL    HW1 1088   1.383   0.028   0.075
  212SOL    HW2 1089   1.313   0.082   0.197
  213SOL     OW 1090   1.309   0.469   0.689
  213SOL    HW1 1091   1.252   0.546   0.691
  213SOL    HW2 1092   1.297   0.427   0.774
  214SOL     OW 1093   1.595   0.215   0.884
  214SOL    HW1 1094   1.530   0.227   0.953
  214SOL    HW2 1095   1.588   0.294   0.830
  215SOL     OW 1096   0.049   1.072   0.323
  215SOL    HW1 1097   0.136   1.046   0.293
  215SOL    HW2 1098   5.297   0.991   0.319
  216SOL     OW 1099   0.885   1.656   0.346
  216SOL    HW1 1100   0.815   1.641   0.282
  216SOL    HW2 1101   0.855   1.731   0.397
  217SOL     OW 1102   0.232   0.632   1.981
  217SOL    HW1 1103   0.160   0.600   2.035
  217SOL    HW2 1104   0.209   0.603   1.892
  218SOL     OW 1105   0.234   0.281   2.852
  218SOL    HW1 1106   0.252   0.242   2.937
  218SOL    HW2 1107   0.153   0.239   2.823
  219SOL     OW 1108   5.299   0.407   2.529
  219SOL    HW1 1109   5.206   0.430   2.531
  219SOL    HW2 1110   0.000   0.317   2.496
  220SOL     OW 1111   0.577   1.289   3.049
  220SOL    HW1 1112   0.495   1.296   3.001
  220SOL    HW2 1113   0.592   1.377   3.083
  221SOL     OW 1114   1.565   1.513   2.570
  221SOL    HW1 1115   1.522   1.491   2.652
  221SOL    HW2 1116   1.494   1.516   2.506
  222SOL     OW 1117   1.132   0.698   2.561
  222SOL    HW1 1118   1.180   0.780   2.547
  222SOL    HW2 1119   1.085   0.711   2.643
  223SOL     OW 1120   1.770   0.604   2.089
  223SOL    HW1 1121   1.747   0.597   1.996
  223SOL    HW2 1122   1.733   0.524   2.128
  224SOL     OW 1123   0.751   1.138   2.904
  224SOL    HW1 1124   0.687   1.174   2.965
  224SOL    HW2 1125   0.788   1.215   2.860
  225SOL     OW 1126   0.869   0.773   3.685
  225SOL    HW1 1127   0.862   0.844   3.748
  225SOL    HW2 1128   0.893   0.816   3.603
  226SOL     OW 1129   0.685   1.000   2.508
  226SOL    HW1 1130   0.752   0.989   2.575
  226SOL    HW2 1131   0.618   1.054   2.548
  227SOL     OW 1132   0.711   1.150   3.678
  227SOL    HW1 1133   0.760   1.227   3.706
  227SOL    HW2 1134   0.631   1.185   3.640
  228SOL     OW 1135   0.359   1.403   2.922
  228SOL    HW1 1136   0.269   1.405   2.888
  228SOL    HW2 1137   0.407   1.465   2.867
  229SOL     OW 1138   1.460   1.501   3.220
  229SOL    HW1 1139   1.513   1.580   3.229
  229SOL    HW2 1140   1.394   1.508   3.289
  230SOL     OW 1141   0.453   0.399   3.345
  230SOL    HW1 1142   0.532   0.345   3.343
  230SOL    HW2 1143   0.382   0.335   3.356
  231SOL     OW 1144   1.608   0.451   2.601
  231SOL    HW1 1145   1.533   0.471   2.545
  231SOL    HW2 1146   1.623   0.530   2.652
  232SOL     OW 1147   0.235   1.713   2.339
  232SOL    HW1 1148   0.264   1.784   2.397
  232SOL    HW2 1149   0.298   1.712   2.268
  233SOL     OW 1150   1.137   1.342   3.555
  233SOL    HW1 1151   1.178   1.336   3.642
  233SOL    HW2 1152   1.085   1.262   3.548
  234SOL     OW 1153   0.221   1.447   2.403
  234SOL    HW1 1154   0.220   1.542   2.394
  234SOL    HW2 1155   0.150   1.427   2.464
  235SOL     OW 1156   0.252   1.076   2.735
  235SOL    HW1 1157   0.264   0.989   2.775
  235SOL    HW2 1158   0.199   1.125   2.798
  236SOL     OW 1159   0.610   1.790   3.294
  236SOL    HW1 1160   0.526   1.773   3.337
  236SOL    HW2 1161   0.632   1.880   3.317
  237SOL     OW 1162   0.579   0.985   1.999
  237SOL    HW1 1163   0.628   1.031   1.930
  237SOL    HW2 1164   0.620   1.015   2.081
  238SOL     OW 1165   1.586   0.138   3.316
  238SOL    HW1 1166   1.614   0.221   3.278
  238SOL    HW2 1167   1.580   0.155   3.410
  239SOL     OW 1168   0.124   0.635   2.440
  239SOL    HW1 1169   0.090   0.553   2.475
  239SOL    HW2 1170   0.098   0.701   2.504
  240SOL     OW 1171   1.843   1.757   2.196
  240SOL    HW1 1172   1.911   1.729   2.258
  240SOL    HW2 1173   1.864   1.848   2.176
  241SOL     OW 1174   0.039   1.599   1.996
  241SOL    HW1 1175   0.026   1.508   2.021
  241SOL    HW2 1176   5.280   1.649   2.053
  242SOL     OW 1177   1.689   0.919   2.505
  242SOL    HW1 1178   1.771   0.874   2.483
  242SOL    HW2 1179   1.667   0.969   2.427
  243SOL     OW 1180   1.647   1.105   2.291
  243SOL    HW1 1181   1.734   1.108   2.250
  243SOL    HW2 1182   1.653   1.167   2.364
  244SOL     OW 1183   0.133   0.750   3.446
  244SOL    HW1 1184   0.227   0.764   3.443
  244SOL    HW2 1185   0.096   0.837   3.464
  245SOL     OW 1186   0.617   1.388   2.596
  245SOL    HW1 1187   0.570   1.305   2.607
  245SOL    HW2 1188   0.599   1.415   2.506
  246SOL     OW 1189   1.287   1.237   3.284
  246SOL    HW1 1190   1.318   1.169   3.224
  246SOL    HW2 1191   1.346   1.232   3.360
  247SOL     OW 1192   0.818   0.032   2.393
  247SOL    HW1 1193   0.845   0.120   2.366
  247SOL    HW2 1194   0.722   0.033   2.385
  248SOL     OW 1195   0.172   0.941   3.142
  248SOL    HW1 1196   0.263   0.911   3.135
  248SOL    HW2 1197   0.134   0.926   3.056
  249SOL     OW 1198   1.531   0.996   2.062
  249SOL    HW1 1199   1.461   0.939   2.094
  249SOL    HW2 1200   1.573   1.030   2.140
  250SOL     OW 1201   1.185   1.809   3.486
  250SOL    HW1 1202   1.192   1.869   3.412
  250SOL    HW2 1203   1.202   1.723   3.449
  251SOL     OW 1204   0.332   0.283   3.658
  251SOL    HW1 1205   0.390   0.339   3.710
  251SOL    HW2 1206   0.251   0.280   3.709
  252SOL     OW 1207   1.467   1.419   2.812
  252SOL    HW1 1208   1.400   1.435   2.877
  252SOL    HW2 1209   1.454   1.328   2.785
  253SOL     OW 1210   1.655   1.746   2.440
  253SOL    HW1 1211   1.638   1.715   2.351
  253SOL    HW2 1212   1.633   1.672   2.496
  254SOL     OW 1213   0.593   0.719   2.129
  254SOL    HW1 1214   0.600   0.801   2.081
  254SOL    HW2 1215   0.528   0.737   2.198
  255SOL     OW 1216   1.277   0.351   2.793
  255SOL    HW1 1217   1.187   0.322   2.806
  255SOL    HW2 1218   1.328   0.300   2.856
  256SOL     OW 1219   1.580   1.672   2.172
  256SOL    HW1 1220   1.671   1.700   2.164
  256SOL    HW2 1221   1.552   1.655   2.082
  257SOL     OW 1222   0.794   0.619   3.311
  257SOL    HW1 1223   0.765   0.597   3.399
  257SOL    HW2 1224   0.754   0.552   3.255
  258SOL     OW 1225   1.394   0.476   3.540
  258SOL    HW1 1226   1.398   0.520   3.625
  258SOL    HW2 1227   1.457   0.404   3.549
  259SOL     OW 1228   0.952   0.887   3.446
  259SOL    HW1 1229   1.007   0.817   3.409
  259SOL    HW2 1230   0.904   0.922   3.371
  260SOL     OW 1231   0.993   0.417   3.095
  260SOL    HW1 1232   0.906   0.436   3.129
  260SOL    HW2 1233   0.977   0.370   3.013
  261SOL     OW 1234   1.052   0.698   2.288
  261SOL    HW1 1235   1.069   0.691   2.382
  261SOL    HW2 1236   0.969   0.653   2.275
  262SOL     OW 1237   0.069   0.790   2.672
  262SOL    HW1 1238   0.149   0.794   2.724
  262SOL    HW2 1239   0.069   0.871   2.622
  263SOL     OW 1240   0.127   1.887   3.448
  263SOL    HW1 1241   0.132   1.861   3.540
  263SOL    HW2 1242   0.060   1.829   3.411
  264SOL     OW 1243   0.878   0.369   2.051
  264SOL    HW1 1244   0.915   0.427   1.985
  264SOL    HW2 1245   0.935   0.292   2.051
  265SOL     OW 1246   1.705   0.571   3.690
  265SOL    HW1 1247   1.669   0.645   3.641
  265SOL    HW2 1248   1.737   0.511   3.623
  266SOL     OW 1249   1.378   1.142   2.402
  266SOL    HW1 1250   1.458   1.130   2.350
  266SOL    HW2 1251   1.326   1.204   2.352
  267SOL     OW 1252   0.534   0.204   2.743
  267SOL    HW1 1253   0.551   0.221   2.836
  267SOL    HW2 1254   0.548   0.289   2.701
  268SOL     OW 1255   1.002   1.443   2.332
  268SOL    HW1 1256   0.969   1.517   2.282
  268SOL    HW2 1257   0.982   1.464   2.423
  269SOL     OW 1258   0.358   1.805   2.733
  269SOL    HW1 1259   0.398   1.719   2.746
  269SOL    HW2 1260   0.423   1.867   2.765
  270SOL     OW 1261   1.800   1.054   2.732
  270SOL    HW1 1262   1.747   1.035   2.654
  270SOL    HW2 1263   1.737   1.060   2.803
  271SOL     OW 1264   1.228   1.539   3.375
  271SOL    HW1 1265   1.215   1.466   3.436
  271SOL    HW2 1266   1.162   1.526   3.307
  272SOL     OW 1267   0.314   0.952   2.112
  272SOL    HW1 1268   0.396   0.976   2.067
  272SOL    HW2 1269   0.293   0.865   2.077
  273SOL     OW 1270   1.480   0.746   2.587
  273SOL    HW1 1271   1.474   0.705   2.674
  273SOL    HW2 1272   1.558   0.802   2.592
  274SOL     OW 1273   0.466   1.265   3.600
  274SOL    HW1 1274   0.440   1.271   3.508
  274SOL    HW2 1275   0.384   1.266   3.649
  275SOL     OW 1276   1.123   1.778   2.092
  275SOL    HW1 1277   1.049   1.737   2.136
  275SOL    HW2 1278   1.147   1.715   2.023
  276SOL     OW 1279   0.198   0.281   3.358
  276SOL    HW1 1280   0.161   0.369   3.349
  276SOL    HW2 1281   0.209   0.270   3.452
  277SOL     OW 1282   1.628   1.381   1.951
  277SOL    HW1 1283   1.587   1.466   1.936
  277SOL    HW2 1284   1.560   1.317   1.931
  278SOL     OW 1285   0.471   1.735   2.180
  278SOL    HW1 1286   0.515   1.792   2.243
  278SOL    HW2 1287   0.541   1.702   2.124
  279SOL     OW 1288   1.408   0.102   2.293
  279SOL    HW1 1289   1.401   0.081   2.200
  279SOL    HW2 1290   1.501   0.121   2.307
  280SOL     OW 1291   0.278   1.801   3.070
  280SOL    HW1 1292   0.306   1.721   3.114
  280SOL    HW2 1293   0.223   1.770   2.997
  281SOL     OW 1294   0.939   1.699   2.760
  281SOL    HW1 1295   1.018   1.648   2.781
  281SOL    HW2 1296   0.896   1.649   2.691
  282SOL     OW 1297   0.385   0.696   2.340
  282SOL    HW1 1298   0.414   0.605   2.349
  282SOL    HW2 1299   0.292   0.693   2.361
  283SOL     OW 1300   1.536   0.228   3.584
  283SOL    HW1 1301   1.544   0.244   3.678
  283SOL    HW2 1302   1.459   0.171   3.576
  284SOL     OW 1303   0.621   0.132   1.969
  284SOL    HW1 1304   0.682   0.063   1.997
  284SOL    HW2 1305   0.573   0.093   1.896
  285SOL     OW 1306   0.778   0.312   3.630
  285SOL    HW1 1307   0.840   0.239   3.629
  285SOL    HW2 1308   0.734   0.306   3.714
  286SOL     OW 1309   0.877   1.523   3.055
  286SOL    HW1 1310   0.860   1.485   2.969
  286SOL    HW2 1311   0.947   1.468   3.092
  287SOL     OW 1312   1.340   0.589   3.294
  287SOL    HW1 1313   1.371   0.558   3.380
  287SOL    HW2 1314   1.376   0.677   3.286
  288SOL     OW 1315   0.817   1.391   2.805
  288SOL    HW1 1316   0.902   1.380   2.761
  288SOL    HW2 1317   0.754   1.396   2.733
  289SOL     OW 1318   0.928   0.511   2.765
  289SOL    HW1 1319   0.903   0.503   2.673
  289SOL    HW2 1320   0.957   0.423   2.789
  290SOL     OW 1321   0.549   0.058   2.366
  290SOL    HW1 1322   0.470   0.059   2.421
  290SOL    HW2 1323   0.534   0.128   2.302
  291SOL     OW 1324   1.428   1.199   1.902
  291SOL    HW1 1325   1.458   1.124   1.953
  291SOL    HW2 1326   1.343   1.221   1.940
  292SOL     OW 1327   0.319   0.068   2.047
  292SOL    HW1 1328   0.386   0.135   2.035
  292SOL    HW2 1329   0.366   5.285   2.047
  293SOL     OW 1330   0.941   0.268   2.324
  293SOL    HW1 1331   0.914   0.301   2.239
  293SOL    HW2 1332   1.036   0.278   2.325
  294SOL     OW 1333   1.081   0.683   3.321
  294SOL    HW1 1334   1.014   0.615   3.325
  294SOL    HW2 1335   1.164   0.635   3.314
  295SOL     OW 1336   1.222   1.571   2.656
  295SOL    HW1 1337   1.236   1.637   2.589
  295SOL    HW2 1338   1.291   1.587   2.721
  296SOL     OW 1339   0.469   1.152   2.590
  296SOL    HW1 1340   0.401   1.131   2.654
  296SOL    HW2 1341   0.429   1.135   2.505
  297SOL     OW 1342   1.267   1.793   2.472
  297SOL    HW1 1343   1.314   1.854   2.416
  297SOL    HW2 1344   1.199   1.846   2.514
  298SOL     OW 1345   1.024   0.544   1.886
  298SOL    HW1 1346   0.982   0.628   1.868
  298SOL    HW2 1347   1.088   0.563   1.955
  299SOL     OW 1348   0.103   0.528   3.277
  299SOL    HW1 1349   0.182   0.548   3.227
  299SOL    HW2 1350   0.080   0.610   3.321
  300SOL     OW 1351   0.559   0.239   3.020
  300SOL    HW1 1352   0.592   0.154   3.048
  300SOL    HW2 1353   0.467   0.239   3.046
  301SOL     OW 1354   0.866   0.465   2.504
  301SOL    HW1 1355   0.819   0.518   2.439
  301SOL    HW2 1356   0.890   0.386   2.456
  302SOL     OW 1357   0.979   0.061   2.627
  302SOL    HW1 1358   0.915   0.059   2.556
  302SOL    HW2 1359   0.987   5.269   2.654
  303SOL     OW 1360   1.439   1.162   2.719
  303SOL    HW1 1361   1.368   1.097   2.718
  303SOL    HW2 1362   1.464   1.171   2.627
  304SOL     OW 1363   1.466   0.609   2.836
  304SOL    HW1 1364   1.414   0.528   2.839
  304SOL    HW2 1365   1.525   0.602   2.910
  305SOL     OW 1366   1.843   0.814   2.246
  305SOL    HW1 1367   1.900   0.764   2.304
  305SOL    HW2 1368   1.816   0.752   2.178
  306SOL     OW 1369   0.491   1.420   2.017
  306SOL    HW1 1370   0.416   1.393   2.069
  306SOL    HW2 1371   0.479   1.377   1.933
  307SOL     OW 1372   1.672   1.264   2.506
  307SOL    HW1 1373   1.767   1.265   2.520
  307SOL    HW2 1374   1.644   1.353   2.527
  308SOL     OW 1375   1.394   0.573   1.933
  308SOL    HW1 1376   1.332   0.552   2.004
  308SOL    HW2 1377   1.479   0.543   1.966
  309SOL     OW 1378   0.521   0.265   2.181
  309SOL    HW1 1379   0.571   0.219   2.114
  309SOL    HW2 1380   0.499   0.349   2.141
  310SOL     OW 1381   1.751   1.241   3.431
  310SOL    HW1 1382   1.838   1.202   3.426
  310SOL    HW2 1383   1.766   1.331   3.460
  311SOL     OW 1384   1.057   1.353   3.194
  311SOL    HW1 1385   0.982   1.322   3.245
  311SOL    HW2 1386   1.132   1.312   3.236
  312SOL     OW 1387   1.609   1.626   3.518
  312SOL    HW1 1388   1.601   1.660   3.429
  312SOL    HW2 1389   1.691   1.578   3.518
  313SOL     OW 1390   1.132   1.206   2.966
  313SOL    HW1 1391   1.072   1.244   3.030
  313SOL    HW2 1392   1.101   1.240   2.882
  314SOL     OW 1393   1.626   1.097   2.938
  314SOL    HW1 1394   1.620   1.159   3.011
  314SOL    HW2 1395   1.548   1.115   2.885
  315SOL     OW 1396   0.905   0.108   3.247
  315SOL    HW1 1397   0.936   0.074   3.163
  315SOL    HW2 1398   0.981   0.150   3.286
  316SOL     OW 1399   0.984   1.115   3.585
  316SOL    HW1 1400   0.893   1.132   3.607
  316SOL    HW2 1401   0.982   1.037   3.529
  317SOL     OW 1402   0.708   1.061   2.234
  317SOL    HW1 1403   0.696   1.043   2.327
  317SOL    HW2 1404   0.784   1.008   2.209
  318SOL     OW 1405   0.421   0.823   3.116
  318SOL    HW1 1406   0.490   0.829   3.181
  318SOL    HW2 1407   0.387   0.734   3.124
  319SOL     OW 1408   1.265   0.378   3.137
  319SOL    HW1 1409   1.299   0.455   3.183
  319SOL    HW2 1410   1.175   0.400   3.114
  320SOL     OW 1411   0.103   1.622   3.227
  320SOL    HW1 1412   0.082   1.629   3.134
  320SOL    HW2 1413   0.190   1.582   3.230
  321SOL     OW 1414   0.341   1.110   2.347
  321SOL    HW1 1415   0.347   1.189   2.293
  321SOL    HW2 1416   0.346   1.038   2.284
  322SOL     OW 1417   0.554   0.534   2.721
  322SOL    HW1 1418   0.568   0.593   2.647
  322SOL    HW2 1419   0.620   0.560   2.785
  323SOL     OW 1420   1.248   1.349   2.252
  323SOL    HW1 1421   1.303   1.420   2.283
  323SOL    HW2 1422   1.161   1.370   2.285
  324SOL     OW 1423   1.285   1.459   3.010
  324SOL    HW1 1424   1.341   1.463   3.087
  324SOL    HW2 1425   1.229   1.382   3.023
  325SOL     OW 1426   1.580   0.621   2.343
  325SOL    HW1 1427   1.532   0.673   2.407
  325SOL    HW2 1428   1.625   0.686   2.289
  326SOL     OW 1429   0.352   1.520   3.171
  326SOL    HW1 1430   0.341   1.476   3.086
  326SOL    HW2 1431   0.446   1.537   3.177
  327SOL     OW 1432   0.417   0.740   3.465
  327SOL    HW1 1433   0.476   0.788   3.407
  327SOL    HW2 1434   0.462   0.657   3.482
  328SOL     OW 1435   1.605   0.779   3.546
  328SOL    HW1 1436   1.519   0.821   3.540
  328SOL    HW2 1437   1.657   0.822   3.478
  329SOL     OW 1438   1.052   0.120   3.648
  329SOL    HW1 1439   1.080   0.199   3.601
  329SOL    HW2 1440   1.055   0.051   3.582
  330SOL     OW 1441   0.483   0.060   3.598
  330SOL    HW1 1442   0.422   5.293   3.568
  330SOL    HW2 1443   0.428   0.137   3.614
  331SOL     OW 1444   0.586   0.875   2.895
  331SOL    HW1 1445   0.620   0.964   2.895
  331SOL    HW2 1446   0.529   0.870   2.972
  332SOL     OW 1447   1.354   0.859   2.888
  332SOL    HW1 1448   1.269   0.847   2.845
  332SOL    HW2 1449   1.397   0.774   2.881
  333SOL     OW 1450   1.203   0.527   2.127
  333SOL    HW1 1451   1.209   0.447   2.179
  333SOL    HW2 1452   1.160   0.591   2.185
  334SOL     OW 1453   0.303   0.204   3.108
  334SOL    HW1 1454   0.262   0.237   3.188
  334SOL    HW2 1455   0.290   0.110   3.112
  335SOL     OW 1456   0.062   1.315   3.141
  335SOL    HW1 1457   0.090   1.258   3.212
  335SOL    HW2 1458   5.291   1.367   3.178
  336SOL     OW 1459   0.725   0.632   2.920
  336SOL    HW1 1460   0.799   0.616   2.862
  336SOL    HW2 1461   0.696   0.720   2.898
  337SOL     OW 1462   1.736   0.959   3.717
  337SOL    HW1 1463   1.692   0.895   3.662
  337SOL    HW2 1464   1.676   0.975   3.790
  338SOL     OW 1465   0.320   0.068   2.520
  338SOL    HW1 1466   0.299   0.161   2.525
  338SOL    HW2 1467   0.332   0.041   2.612
  339SOL     OW 1468   1.616   0.378   2.222
  339SOL    HW1 1469   1.647   0.312   2.285
  339SOL    HW2 1470   1.594   0.454   2.276
  340SOL     OW 1471   1.029   0.759   2.821
  340SOL    HW1 1472   1.023   0.776   2.915
  340SOL    HW2 1473   1.002   0.668   2.812
  341SOL     OW 1474   0.981   1.566   3.581
  341SOL    HW1 1475   0.966   1.610   3.498
  341SOL    HW2 1476   1.026   1.484   3.557
  342SOL     OW 1477   1.853   1.504   3.467
  342SOL    HW1 1478   1.874   1.530   3.377
  342SOL    HW2 1479   1.935   1.519   3.515
  343SOL     OW 1480   0.355   0.917   3.669
  343SOL    HW1 1481   0.435   0.938   3.717
  343SOL    HW2 1482   0.382   0.852   3.604
  344SOL     OW 1483   1.524   0.270   1.987
  344SOL    HW1 1484   1.459   0.208   2.020
  344SOL    HW2 1485   1.561   0.309   2.066
  345SOL     OW 1486   1.289   0.826   1.892
  345SOL    HW1 1487   1.332   0.740   1.896
  345SOL    HW2 1488   1.321   0.865   1.810
  346SOL     OW 1489   1.068   1.337   2.717
  346SOL    HW1 1490   1.071   1.265   2.654
  346SOL    HW2 1491   1.127   1.403   2.682
  347SOL     OW 1492   0.313   0.809   2.811
  347SOL    HW1 1493   0.407   0.827   2.808
  347SOL    HW2 1494   0.307   0.719   2.842
  348SOL     OW 1495   0.335   0.528   2.877
  348SOL    HW1 1496   0.298   0.441   2.863
  348SOL    HW2 1497   0.411   0.532   2.818
  349SOL     OW 1498   1.135   0.377   3.552
  349SOL    HW1 1499   1.087   0.431   3.615
  349SOL    HW2 1500   1.222   0.417   3.548
  350SOL     OW 1501   1.131   0.222   3.329
  350SOL    HW1 1502   1.135   0.282   3.404
  350SOL    HW2 1503   1.188   0.263   3.263
  351SOL     OW 1504   0.004   1.327   2.071
  351SOL    HW1 1505   5.232   1.314   2.009
  351SOL    HW2 1506   0.013   1.242   2.115
  352SOL     OW 1507   0.096   1.781   2.816
  352SOL    HW1 1508   0.061   1.714   2.758
  352SOL    HW2 1509   0.183   1.801   2.780
  353SOL     OW 1510   0.504   1.574   2.770
  353SOL    HW1 1511   0.571   1.639   2.790
  353SOL    HW2 1512   0.547   1.514   2.709
  354SOL     OW 1513   0.979   0.790   3.087
  354SOL    HW1 1514   1.037   0.769   3.160
  354SOL    HW2 1515   0.895   0.752   3.111
  355SOL     OW 1516   0.036   0.574   2.985
  355SOL    HW1 1517   0.115   0.541   2.943
  355SOL    HW2 1518   0.036   0.533   3.071
  356SOL     OW 1519   0.164   0.519   3.582
  356SOL    HW1 1520   0.249   0.496   3.545
  356SOL    HW2 1521   0.137   0.597   3.534
  357SOL     OW 1522   1.379   0.936   3.520
  357SOL    HW1 1523   1.400   1.030   3.517
  357SOL    HW2 1524   1.375   0.910   3.428
  358SOL     OW 1525   0.814   0.574   2.228
  358SOL    HW1 1526   0.820   0.500   2.167
  358SOL    HW2 1527   0.740   0.625   2.196
  359SOL     OW 1528   1.641   0.601   3.045
  359SOL    HW1 1529   1.631   0.542   3.120
  359SOL    HW2 1530   1.729   0.582   3.011
  360SOL     OW 1531   0.255   1.555   3.595
  360SOL    HW1 1532   0.235   1.619   3.664
  360SOL    HW2 1533   0.251   1.470   3.640
  361SOL     OW 1534   0.704   0.451   3.120
  361SOL    HW1 1535   0.652   0.377   3.088
  361SOL    HW2 1536   0.701   0.515   3.049
  362SOL     OW 1537   0.926   1.679   3.331
  362SOL    HW1 1538   0.900   1.642   3.247
  362SOL    HW2 1539   0.920   1.773   3.319
  363SOL     OW 1540   0.462   0.492   2.038
  363SOL    HW1 1541   0.525   0.559   2.064
  363SOL    HW2 1542   0.380   0.539   2.028
  364SOL     OW 1543   0.147   1.137   3.332
  364SOL    HW1 1544   0.143   1.090   3.416
  364SOL    HW2 1545   0.157   1.068   3.267
  365SOL     OW 1546   1.323   1.045   3.084
  365SOL    HW1 1547   1.346   0.982   3.016
  365SOL    HW2 1548   1.255   1.099   3.044
  366SOL     OW 1549   1.313   0.857   2.167
  366SOL    HW1 1550   1.239   0.825   2.218
  366SOL    HW2 1551   1.288   0.843   2.076
  367SOL     OW 1552   1.776   1.741   3.015
  367SOL    HW1 1553   1.835   1.767   2.945
  367SOL    HW2 1554   1.750   1.651   2.993
  368SOL     OW 1555   1.241   1.733   2.972
  368SOL    HW1 1556   1.323   1.755   2.928
  368SOL    HW2 1557   1.248   1.639   2.991
  369SOL     OW 1558   0.082   1.210   2.889
  369SOL    HW1 1559   0.069   1.238   2.980
  369SOL    HW2 1560   5.293   1.202   2.854
  370SOL     OW 1561   0.678   1.668   3.596
  370SOL    HW1 1562   0.620   1.744   3.588
  370SOL    HW2 1563   0.744   1.682   3.528
  371SOL     OW 1564   1.710   0.151   2.361
  371SOL    HW1 1565   1.786   0.131   2.306
  371SOL    HW2 1566   1.705   0.078   2.422
  372SOL     OW 1567   1.391   1.568   2.349
  372SOL    HW1 1568   1.451   1.601   2.282
  372SOL    HW2 1569   1.342   1.645   2.378
  373SOL     OW 1570   0.148   1.798   3.704
  373SOL    HW1 1571   0.093   1.735   3.752
  373SOL    HW2 1572   0.196   1.844   3.773
  374SOL     OW 1573   1.277   0.927   2.533
  374SOL    HW1 1574   1.351   0.867   2.542
  374SOL    HW2 1575   1.311   0.999   2.480
  375SOL     OW 1576   0.810   1.274   3.290
  375SOL    HW1 1577   0.781   1.315   3.372
  375SOL    HW2 1578   0.741   1.295   3.227
  376SOL     OW 1579   0.672   1.622   2.017
  376SOL    HW1 1580   0.683   1.636   1.922
  376SOL    HW2 1581   0.616   1.544   2.023
  377SOL     OW 1582   1.622   1.727   3.253
  377SOL    HW1 1583   1.674   1.733   3.173
  377SOL    HW2 1584   1.609   1.818   3.280
  378SOL     OW 1585   1.847   0.153   2.818
  378SOL    HW1 1586   1.840   0.057   2.818
  378SOL    HW2 1587   1.761   0.183   2.787
  379SOL     OW 1588   0.270   0.330   2.579
  379SOL    HW1 1589   0.182   0.366   2.567
  379SOL    HW2 1590   0.276   0.315   2.674
  380SOL     OW 1591   1.208   1.604   1.894
  380SOL    HW1 1592   1.197   1.512   1.920
  380SOL    HW2 1593   1.143   1.617   1.826
  381SOL     OW 1594   0.824   1.006   3.235
  381SOL    HW1 1595   0.868   1.000   3.151
  381SOL    HW2 1596   0.822   1.100   3.255
  382SOL     OW 1597   0.915   0.910   2.153
  382SOL    HW1 1598   0.976   0.943   2.086
  382SOL    HW2 1599   0.964   0.842   2.198
  383SOL     OW 1600   1.490   1.626   1.905
  383SOL    HW1 1601   1.396   1.619   1.891
  383SOL    HW2 1602   1.528   1.632   1.818
  384SOL     OW 1603   0.367   1.304   3.355
  384SOL    HW1 1604   0.359   1.378   3.295
  384SOL    HW2 1605   0.291   1.249   3.336
  385SOL     OW 1606   1.609   1.283   3.142
  385SOL    HW1 1607   1.669   1.270   3.216
  385SOL    HW2 1608   1.549   1.351   3.172
  386SOL     OW 1609   1.056   1.108   2.570
  386SOL    HW1 1610   0.985   1.058   2.608
  386SOL    HW2 1611   1.120   1.043   2.541
  387SOL     OW 1612   1.018   0.244   2.832
  387SOL    HW1 1613   0.998   0.199   2.750
  387SOL    HW2 1614   1.012   0.176   2.899
  388SOL     OW 1615   0.602   1.487   2.342
  388SOL    HW1 1616   0.650   1.438   2.275
  388SOL    HW2 1617   0.534   1.534   2.294
  389SOL     OW 1618   1.727   0.385   3.239
  389SOL    HW1 1619   1.798   0.450   3.239
  389SOL    HW2 1620   1.758   0.316   3.181
  390SOL     OW 1621   0.262   1.348   2.157
  390SOL    HW1 1622   0.169   1.349   2.133
  390SOL    HW2 1623   0.265   1.386   2.245
  391SOL     OW 1624   0.118   1.016   3.578
  391SOL    HW1 1625   0.047   0.983   3.633
  391SOL    HW2 1626   0.198   0.985   3.620
  392SOL     OW 1627   0.677   0.219   3.355
  392SOL    HW1 1628   0.759   0.203   3.309
  392SOL    HW2 1629   0.702   0.264   3.435
  393SOL     OW 1630   0.080   0.332   1.898
  393SOL    HW1 1631   5.286   0.312   1.893
  393SOL    HW2 1632   0.093   0.403   1.836
  394SOL     OW 1633   1.428   0.858   3.261
  394SOL    HW1 1634   1.379   0.919   3.206
  394SOL    HW2 1635   1.517   0.860   3.226
  395SOL     OW 1636   0.085   0.143   2.153
  395SOL    HW1 1637   0.079   0.237   2.134
  395SOL    HW2 1638   0.172   0.118   2.123
  396SOL     OW 1639   1.179   1.337   1.979
  396SOL    HW1 1640   1.088   1.307   1.981
  396SOL    HW2 1641   1.206   1.338   2.071
  397SOL     OW 1642   0.620   0.831   3.298
  397SOL    HW1 1643   0.676   0.907   3.282
  397SOL    HW2 1644   0.681   0.758   3.305
  398SOL     OW 1645   1.483   1.780   2.843
  398SOL    HW1 1646   1.505   1.841   2.773
  398SOL    HW2 1647   1.567   1.757   2.883
  399SOL     OW 1648   0.713   0.574   3.564
  399SOL    HW1 1649   0.758   0.636   3.621
  399SOL    HW2 1650   0.741   0.488   3.595
  400SOL     OW 1651   1.473   1.197   3.492
  400SOL    HW1 1652   1.461   1.212   3.586
  400SOL    HW2 1653   1.566   1.214   3.477
  401SOL     OW 1654   0.374   1.744   3.427
  401SOL    HW1 1655   0.292   1.790   3.409
  401SOL    HW2 1656   0.348   1.664   3.472
  402SOL     OW 1657   1.667   0.881   3.117
  402SOL    HW1 1658   1.662   0.795   3.074
  402SOL    HW2 1659   1.657   0.944   3.046
  403SOL     OW 1660   1.220   0.318   2.326
  403SOL    HW1 1661   1.283   0.246   2.320
  403SOL    HW2 1662   1.250   0.370   2.401
  404SOL     OW 1663   0.588   0.736   2.533
  404SOL    HW1 1664   0.627   0.822   2.517
  404SOL    HW2 1665   0.520   0.728   2.466
  405SOL     OW 1666   1.765   0.362   3.511
  405SOL    HW1 1667   1.746   0.378   3.419
  405SOL    HW2 1668   1.692   0.307   3.541
  406SOL     OW 1669   1.746   0.934   3.374
  406SOL    HW1 1670   1.740   1.028   3.386
  406SOL    HW2 1671   1.730   0.921   3.280
  407SOL     OW 1672   0.863   1.366   1.900
  407SOL    HW1 1673   0.825   1.395   1.983
  407SOL    HW2 1674   0.880   1.447   1.851
  408SOL     OW 1675   0.665   1.791   2.802
  408SOL    HW1 1676   0.645   1.882   2.781
  408SOL    HW2 1677   0.760   1.786   2.797
  409SOL     OW 1678   0.868   0.968   2.715
  409SOL    HW1 1679   0.919   0.896   2.754
  409SOL    HW2 1680   0.832   1.015   2.790
  410SOL     OW 1681   1.076   0.987   1.950
  410SOL    HW1 1682   1.057   1.039   1.872
  410SOL    HW2 1683   1.152   0.934   1.925
  411SOL     OW 1684   1.851   1.554   2.705
  411SOL    HW1 1685   1.773   1.542   2.652
  411SOL    HW2 1686   1.844   1.487   2.774
  412SOL     OW 1687   0.227   1.304   3.724
  412SOL    HW1 1688   0.158   1.242   3.698
  412SOL    HW2 1689   0.216   1.314   3.818
  413SOL     OW 1690   0.090   1.214   2.515
  413SOL    HW1 1691   0.105   1.185   2.605
  413SOL    HW2 1692   0.177   1.223   2.477
  414SOL     OW 1693   0.683   1.404   3.492
  414SOL    HW1 1694   0.602   1.363   3.523
  414SOL    HW2 1695   0.679   1.493   3.528
  415SOL     OW 1696   1.810   0.174   3.092
  415SOL    HW1 1697   1.773   0.086   3.093
  415SOL    HW2 1698   1.833   0.190   3.001
  416SOL     OW 1699   0.434   0.437   2.384
  416SOL    HW1 1700   0.467   0.363   2.333
  416SOL    HW2 1701   0.387   0.397   2.457
  417SOL     OW 1702   1.698   1.488   2.956
  417SOL    HW1 1703   1.619   1.467   2.908
  417SOL    HW2 1704   1.707   1.418   3.021
  418SOL     OW 1705   0.339   0.564   3.151
  418SOL    HW1 1706   0.396   0.505   3.202
  418SOL    HW2 1707   0.352   0.536   3.060
  419SOL     OW 1708   0.831   1.578   2.538
  419SOL    HW1 1709   0.813   1.639   2.467
  419SOL    HW2 1710   0.755   1.519   2.539
  420SOL     OW 1711   1.427   0.220   2.978
  420SOL    HW1 1712   1.463   0.145   3.026
  420SOL    HW2 1713   1.378   0.269   3.044
  421SOL     OW 1714   1.001   0.019   3.000
  421SOL    HW1 1715   0.951   5.252   2.954
  421SOL    HW2 1716   1.087   5.279   3.015
  422SOL     OW 1717   0.772   1.333   2.181
  422SOL    HW1 1718   0.745   1.242   2.187
  422SOL    HW2 1719   0.855   1.337   2.230
  423SOL     OW 1720   0.623   1.555   3.151
  423SOL    HW1 1721   0.624   1.637   3.199
  423SOL    HW2 1722   0.711   1.550   3.111
  424SOL     OW 1723   1.354   0.035   2.026
  424SOL    HW1 1724   1.394   5.296   1.949
  424SOL    HW2 1725   1.277   5.280   2.043
  425SOL     OW 1726   1.300   0.464   2.545
  425SOL    HW1 1727   1.246   0.544   2.550
  425SOL    HW2 1728   1.293   0.425   2.632
  426SOL     OW 1729   1.595   0.215   2.745
  426SOL    HW1 1730   1.530   0.227   2.815
  426SOL    HW2 1731   1.588   0.294   2.692
  427SOL     OW 1732   0.049   1.067   2.152
  427SOL    HW1 1733   0.138   1.033   2.141
  427SOL    HW2 1734   5.299   0.994   2.189
  428SOL     OW 1735   0.888   1.655   2.201
  428SOL    HW1 1736   0.814   1.640   2.143
  428SOL    HW2 1737   0.861   1.729   2.256
  429SOL     OW 1738   0.232   0.632   3.843
  429SOL    HW1 1739   0.160   0.600   3.898
  429SOL    HW2 1740   0.209   0.603   3.754
  430SOL     OW 1741   0.234   0.281   4.714
  430SOL    HW1 1742   0.252   0.242   4.799
  430SOL    HW2 1743   0.153   0.239   4.685
  431SOL     OW 1744   5.299   0.407   4.391
  431SOL    HW1 1745   5.206   0.430   4.393
  431SOL    HW2 1746   0.000   0.317   4.358
  432SOL     OW 1747   0.577   1.289   4.911
  432SOL    HW1 1748   0.495   1.296   4.863
  432SOL    HW2 1749   0.592   1.377   4.945
  433SOL     OW 1750   1.565   1.513   4.432
  433SOL    HW1 1751   1.522   1.491   4.515
  433SOL    HW2 1752   1.494   1.516   4.368
  434SOL     OW 1753   1.132   0.698   4.423
  434SOL    HW1 1754   1.180   0.780   4.409
  434SOL    HW2 1755   1.085   0.711   4.505
  435SOL     OW 1756   1.770   0.604   3.951
  435SOL    HW1 1757   1.747   0.597   3.858
  435SOL    HW2 1758   1.733   0.524   3.990
  436SOL     OW 1759   0.751   1.138   4.766
  436SOL    HW1 1760   0.687   1.174   4.827
  436SOL    HW2 1761   0.788   1.215   4.722
  437SOL     OW 1762   0.869   0.773   5.547
  437SOL    HW1 1763   0.862   0.844   5.610
  437SOL    HW2 1764   0.893   0.816   5.465
  438SOL     OW 1765   0.685   1.000   4.370
  438SOL    HW1 1766   0.752   0.989   4.437
  438SOL    HW2 1767   0.618   1.054   4.410
  439SOL     OW 1768   0.711   1.150   5.540
  439SOL    HW1 1769   0.760   1.227   5.568
  439SOL    HW2 1770   0.631   1.185   5.502
  440SOL     OW 1771   0.359   1.403   4.784
  440SOL    HW1 1772   0.269   1.405   4.750
  440SOL    HW2 1773   0.407   1.465   4.729
  441SOL     OW 1774   1.460   1.501   5.081
  441SOL    HW1 1775   1.513   1.580   5.091
  441SOL    HW2 1776   1.394   1.508   5.151
  442SOL     OW 1777   0.453   0.399   5.207
  442SOL    HW1 1778   0.532   0.345   5.205
  442SOL    HW2 1779   0.382   0.335   5.218
  443SOL     OW 1780   1.608   0.451   4.463
  443SOL    HW1 1781   1.533   0.471   4.407
  443SOL    HW2 1782   1.623   0.530   4.514
  444SOL     OW 1783   0.235   1.713   4.201
  444SOL    HW1 1784   0.264   1.784   4.259
  444SOL    HW2 1785   0.298   1.712   4.130
  445SOL     OW 1786   1.137   1.342   5.418
  445SOL    HW1 1787   1.179   1.336   5.504
  445SOL    HW2 1788   1.085   1.262   5.410
  446SOL     OW 1789   0.221   1.447   4.265
  446SOL    HW1 1790   0.220   1.542   4.256
  446SOL    HW2 1791   0.149   1.428   4.326
  447SOL     OW 1792   0.252   1.076   4.597
  447SOL    HW1 1793   0.264   0.989   4.637
  447SOL    HW2 1794   0.199   1.125   4.660
  448SOL     OW 1795   0.610   1.790   5.156
  448SOL    HW1 1796   0.526   1.773   5.199
  448SOL    HW2 1797   0.632   1.880   5.179
  449SOL     OW 1798   0.579   0.985   3.861
  449SOL    HW1 1799   0.628   1.031   3.792
  449SOL    HW2 1800   0.620   1.015   3.943
  450SOL     OW 1801   1.586   0.138   5.178
  450SOL    HW1 1802   1.614   0.221   5.140
  450SOL    HW2 1803   1.580   0.156   5.272
  451SOL     OW 1804   0.124   0.635   4.302
  451SOL    HW1 1805   0.090   0.553   4.337
  451SOL    HW2 1806   0.098   0.701   4.366
  452SOL     OW 1807   1.842   1.758   4.056
  452SOL    HW1 1808   1.910   1.730   4.119
  452SOL    HW2 1809   1.864   1.849   4.037
  453SOL     OW 1810   0.039   1.599   3.858
  453SOL    HW1 1811   0.026   1.508   3.884
  453SOL    HW2 1812   5.280   1.649   3.914
  454SOL     OW 1813   1.689   0.918   4.367
  454SOL    HW1 1814   1.771   0.875   4.345
  454SOL    HW2 1815   1.667   0.969   4.289
  455SOL     OW 1816   1.648   1.105   4.153
  455SOL    HW1 1817   1.734   1.108   4.112
  455SOL    HW2 1818   1.653   1.167   4.226
  456SOL     OW 1819   0.133   0.750   5.308
  456SOL    HW1 1820   0.227   0.764   5.305
  456SOL    HW2 1821   0.096   0.837   5.326
  457SOL     OW 1822   0.617   1.388   4.458
  457SOL    HW1 1823   0.570   1.305   4.469
  457SOL    HW2 1824   0.599   1.415   4.368
  458SOL     OW 1825   1.287   1.237   5.147
  458SOL    HW1 1826   1.318   1.169   5.086
  458SOL    HW2 1827   1.346   1.232   5.222
  459SOL     OW 1828   0.818   0.032   4.255
  459SOL    HW1 1829   0.845   0.120   4.228
  459SOL    HW2 1830   0.722   0.033   4.247
  460SOL     OW 1831   0.172   0.941   5.004
  460SOL    HW1 1832   0.262   0.911   4.997
  460SOL    HW2 1833   0.134   0.926   4.918
  461SOL     OW 1834   1.531   0.996   3.924
  461SOL    HW1 1835   1.461   0.939   3.956
  461SOL    HW2 1836   1.573   1.030   4.003
  462SOL     OW 1837   1.185   1.809   5.348
  462SOL    HW1 1838   1.192   1.869   5.274
  462SOL    HW2 1839   1.202   1.723   5.311
  463SOL     OW 1840   0.332   0.283   5.521
  463SOL    HW1 1841   0.390   0.339   5.572
  463SOL    HW2 1842   0.251   0.280   5.571
  464SOL     OW 1843   1.467   1.419   4.674
  464SOL    HW1 1844   1.400   1.435   4.739
  464SOL    HW2 1845   1.454   1.328   4.647
  465SOL     OW 1846   1.657   1.745   4.301
  465SOL    HW1 1847   1.637   1.713   4.213
  465SOL    HW2 1848   1.634   1.671   4.358
  466SOL     OW 1849   0.593   0.719   3.991
  466SOL    HW1 1850   0.600   0.801   3.943
  466SOL    HW2 1851   0.529   0.737   4.060
  467SOL     OW 1852   1.277   0.351   4.655
  467SOL    HW1 1853   1.187   0.322   4.668
  467SOL    HW2 1854   1.328   0.300   4.718
  468SOL     OW 1855   1.579   1.671   4.034
  468SOL    HW1 1856   1.670   1.701   4.026
  468SOL    HW2 1857   1.552   1.655   3.944
  469SOL     OW 1858   0.794   0.619   5.173
  469SOL    HW1 1859   0.765   0.597   5.262
  469SOL    HW2 1860   0.754   0.552   5.117
  470SOL     OW 1861   1.394   0.476   5.402
  470SOL    HW1 1862   1.398   0.520   5.487
  470SOL    HW2 1863   1.457   0.404   5.410
  471SOL     OW 1864   0.952   0.887   5.308
  471SOL    HW1 1865   1.007   0.817   5.271
  471SOL    HW2 1866   0.904   0.922   5.233
  472SOL     OW 1867   0.993   0.417   4.957
  472SOL    HW1 1868   0.906   0.436   4.991
  472SOL    HW2 1869   0.977   0.370   4.875
  473SOL     OW 1870   1.052   0.698   4.150
  473SOL    HW1 1871   1.069   0.691   4.244
  473SOL    HW2 1872   0.969   0.653   4.137
  474SOL     OW 1873   0.069   0.790   4.534
  474SOL    HW1 1874   0.149   0.794   4.586
  474SOL    HW2 1875   0.069   0.871   4.484
  475SOL     OW 1876   0.127   1.887   5.310
  475SOL    HW1 1877   0.132   1.861   5.402
  475SOL    HW2 1878   0.060   1.829   5.272
  476SOL     OW 1879   0.877   0.369   3.913
  476SOL    HW1 1880   0.915   0.427   3.847
  476SOL    HW2 1881   0.935   0.292   3.913
  477SOL     OW 1882   1.705   0.571   5.552
  477SOL    HW1 1883   1.669   0.645   5.503
  477SOL    HW2 1884   1.737   0.511   5.485
  478SOL     OW 1885   1.378   1.142   4.264
  478SOL    HW1 1886   1.458   1.130   4.212
  478SOL    HW2 1887   1.326   1.204   4.214
  479SOL     OW 1888   0.534   0.204   4.605
  479SOL    HW1 1889   0.551   0.221   4.698
  479SOL    HW2 1890   0.548   0.289   4.562
  480SOL     OW 1891   1.002   1.443   4.194
  480SOL    HW1 1892   0.969   1.517   4.144
  480SOL    HW2 1893   0.982   1.464   4.285
  481SOL     OW 1894   0.358   1.805   4.595
  481SOL    HW1 1895   0.398   1.719   4.608
  481SOL    HW2 1896   0.424   1.867   4.627
  482SOL     OW 1897   1.800   1.054   4.594
  482SOL    HW1 1898   1.747   1.035   4.516
  482SOL    HW2 1899   1.737   1.060   4.665
  483SOL     OW 1900   1.228   1.539   5.237
  483SOL    HW1 1901   1.215   1.466   5.298
  483SOL    HW2 1902   1.162   1.526   5.169
  484SOL     OW 1903   0.314   0.952   3.974
  484SOL    HW1 1904   0.396   0.976   3.929
  484SOL    HW2 1905   0.293   0.865   3.939
  485SOL     OW 1906   1.480   0.746   4.449
  485SOL    HW1 1907   1.474   0.706   4.536
  485SOL    HW2 1908   1.558   0.802   4.454
  486SOL     OW 1909   0.466   1.265   5.462
  486SOL    HW1 1910   0.440   1.271   5.370
  486SOL    HW2 1911   0.384   1.266   5.511
  487SOL     OW 1912   1.123   1.777   3.954
  487SOL    HW1 1913   1.049   1.737   3.998
  487SOL    HW2 1914   1.147   1.715   3.885
  488SOL     OW 1915   0.198   0.281   5.220
  488SOL    HW1 1916   0.161   0.369   5.211
  488SOL    HW2 1917   0.209   0.270   5.314
  489SOL     OW 1918   1.628   1.381   3.813
  489SOL    HW1 1919   1.587   1.466   3.798
  489SOL    HW2 1920   1.560   1.317   3.793
  490SOL     OW 1921   0.471   1.734   4.042
  490SOL    HW1 1922   0.515   1.792   4.105
  490SOL    HW2 1923   0.541   1.702   3.986
  491SOL     OW 1924   1.408   0.102   4.155
  491SOL    HW1 1925   1.401   0.080   4.062
  491SOL    HW2 1926   1.501   0.121   4.169
  492SOL     OW 1927   0.278   1.801   4.932
  492SOL    HW1 1928   0.306   1.721   4.976
  492SOL    HW2 1929   0.223   1.770   4.859
  493SOL     OW 1930   0.939   1.699   4.622
  493SOL    HW1 1931   1.018   1.649   4.643
  493SOL    HW2 1932   0.896   1.649   4.553
  494SOL     OW 1933   0.385   0.696   4.202
  494SOL    HW1 1934   0.414   0.605   4.211
  494SOL    HW2 1935   0.292   0.693   4.223
  495SOL     OW 1936   1.536   0.228   5.446
  495SOL    HW1 1937   1.544   0.244   5.540
  495SOL    HW2 1938   1.459   0.171   5.438
  496SOL     OW 1939   0.621   0.132   3.831
  496SOL    HW1 1940   0.682   0.064   3.859
  496SOL    HW2 1941   0.573   0.093   3.758
  497SOL     OW 1942   0.778   0.312   5.491
  497SOL    HW1 1943   0.840   0.239   5.491
  497SOL    HW2 1944   0.734   0.306   5.576
  498SOL     OW 1945   0.877   1.522   4.918
  498SOL    HW1 1946   0.860   1.486   4.831
  498SOL    HW2 1947   0.947   1.468   4.954
  499SOL     OW 1948   1.340   0.589   5.156
  499SOL    HW1 1949   1.371   0.558   5.242
  499SOL    HW2 1950   1.376   0.677   5.148
  500SOL     OW 1951   0.817   1.391   4.667
  500SOL    HW1 1952   0.902   1.380   4.623
  500SOL    HW2 1953   0.754   1.396   4.595
  501SOL     OW 1954   0.928   0.511   4.627
  501SOL    HW1 1955   0.903   0.503   4.535
  501SOL    HW2 1956   0.957   0.423   4.651
  502SOL     OW 1957   0.549   0.058   4.228
  502SOL    HW1 1958   0.470   0.059   4.283
  502SOL    HW2 1959   0.534   0.128   4.164
  503SOL     OW 1960   1.428   1.199   3.764
  503SOL    HW1 1961   1.458   1.124   3.815
  503SOL    HW2 1962   1.343   1.221   3.802
  504SOL     OW 1963   0.319   0.068   3.909
  504SOL    HW1 1964   0.386   0.135   3.898
  504SOL    HW2 1965   0.366   5.285   3.908
  505SOL     OW 1966   0.941   0.268   4.187
  505SOL    HW1 1967   0.914   0.301   4.101
  505SOL    HW2 1968   1.036   0.278   4.187
  506SOL     OW 1969   1.081   0.683   5.183
  506SOL    HW1 1970   1.014   0.615   5.186
  506SOL    HW2 1971   1.164   0.635   5.176
  507SOL     OW 1972   1.222   1.571   4.518
  507SOL    HW1 1973   1.236   1.637   4.451
  507SOL    HW2 1974   1.291   1.587   4.583
  508SOL     OW 1975   0.469   1.152   4.452
  508SOL    HW1 1976   0.401   1.131   4.516
  508SOL    HW2 1977   0.429   1.135   4.367
  509SOL     OW 1978   1.267   1.793   4.334
  509SOL    HW1 1979   1.314   1.854   4.278
  509SOL    HW2 1980   1.199   1.846   4.376
  510SOL     OW 1981   1.024   0.544   3.748
  510SOL    HW1 1982   0.982   0.628   3.730
  510SOL    HW2 1983   1.088   0.563   3.817
  511SOL     OW 1984   0.103   0.528   5.139
  511SOL    HW1 1985   0.182   0.548   5.089
  511SOL    HW2 1986   0.080   0.610   5.183
  512SOL     OW 1987   0.559   0.239   4.882
  512SOL    HW1 1988   0.592   0.154   4.910
  512SOL    HW2 1989   0.467   0.239   4.908
  513SOL     OW 1990   0.866   0.465   4.366
  513SOL    HW1 1991   0.819   0.519   4.301
  513SOL    HW2 1992   0.890   0.386   4.318
  514SOL     OW 1993   0.979   0.061   4.489
  514SOL    HW1 1994   0.915   0.059   4.418
  514SOL    HW2 1995   0.987   5.269   4.516
  515SOL     OW 1996   1.439   1.162   4.581
  515SOL    HW1 1997   1.368   1.097   4.580
  515SOL    HW2 1998   1.464   1.171   4.489
  516SOL     OW 1999   1.466   0.609   4.698
  516SOL    HW1 2000   1.414   0.528   4.701
  516SOL    HW2 2001   1.525   0.602   4.772
  517SOL     OW 2002   1.843   0.814   4.108
  517SOL    HW1 2003   1.900   0.764   4.166
  517SOL    HW2 2004   1.816   0.752   4.040
  518SOL     OW 2005   0.491   1.420   3.879
  518SOL    HW1 2006   0.416   1.393   3.931
  518SOL    HW2 2007   0.479   1.377   3.795
  519SOL     OW 2008   1.673   1.264   4.368
  519SOL    HW1 2009   1.767   1.265   4.382
  519SOL    HW2 2010   1.644   1.353   4.389
  520SOL     OW 2011   1.394   0.573   3.795
  520SOL    HW1 2012   1.332   0.552   3.866
  520SOL    HW2 2013   1.479   0.543   3.828
  521SOL     OW 2014   0.520   0.265   4.043
  521SOL    HW1 2015   0.571   0.219   3.976
  521SOL    HW2 2016   0.499   0.349   4.003
  522SOL     OW 2017   1.751   1.241   5.293
  522SOL    HW1 2018   1.838   1.202   5.288
  522SOL    HW2 2019   1.767   1.331   5.321
  523SOL     OW 2020   1.057   1.353   5.056
  523SOL    HW1 2021   0.982   1.322   5.107
  523SOL    HW2 2022   1.132   1.312   5.098
  524SOL     OW 2023   1.609   1.626   5.380
  524SOL    HW1 2024   1.601   1.660   5.291
  524SOL    HW2 2025   1.691   1.578   5.380
  525SOL     OW 2026   1.132   1.206   4.828
  525SOL    HW1 2027   1.072   1.244   4.892
  525SOL    HW2 2028   1.101   1.240   4.744
  526SOL     OW 2029   1.626   1.097   4.800
  526SOL    HW1 2030   1.620   1.159   4.873
  526SOL    HW2 2031   1.548   1.115   4.747
  527SOL     OW 2032   0.905   0.108   5.109
  527SOL    HW1 2033   0.936   0.074   5.025
  527SOL    HW2 2034   0.981   0.150   5.148
  528SOL     OW 2035   0.984   1.115   5.447
  528SOL    HW1 2036   0.893   1.132   5.469
  528SOL    HW2 2037   0.982   1.037   5.391
  529SOL     OW 2038   0.708   1.061   4.096
  529SOL    HW1 2039   0.696   1.043   4.189
  529SOL    HW2 2040   0.784   1.008   4.071
  530SOL     OW 2041   0.421   0.823   4.978
  530SOL    HW1 2042   0.490   0.829   5.043
  530SOL    HW2 2043   0.387   0.734   4.986
  531SOL     OW 2044   1.265   0.378   4.999
  531SOL    HW1 2045   1.299   0.455   5.045
  531SOL    HW2 2046   1.175   0.400   4.976
  532SOL     OW 2047   0.103   1.622   5.089
  532SOL    HW1 2048   0.082   1.629   4.996
  532SOL    HW2 2049   0.190   1.582   5.092
  533SOL     OW 2050   0.341   1.110   4.209
  533SOL    HW1 2051   0.347   1.189   4.155
  533SOL    HW2 2052   0.346   1.038   4.146
  534SOL     OW 2053   0.554   0.534   4.583
  534SOL    HW1 2054   0.568   0.593   4.509
  534SOL    HW2 2055   0.620   0.560   4.647
  535SOL     OW 2056   1.248   1.349   4.114
  535SOL    HW1 2057   1.303   1.420   4.145
  535SOL    HW2 2058   1.161   1.370   4.147
  536SOL     OW 2059   1.285   1.459   4.872
  536SOL    HW1 2060   1.341   1.463   4.949
  536SOL    HW2 2061   1.229   1.382   4.886
  537SOL     OW 2062   1.580   0.621   4.205
  537SOL    HW1 2063   1.532   0.673   4.269
  537SOL    HW2 2064   1.625   0.686   4.151
  538SOL     OW 2065   0.352   1.520   5.033
  538SOL    HW1 2066   0.341   1.476   4.949
  538SOL    HW2 2067   0.446   1.537   5.039
  539SOL     OW 2068   0.417   0.740   5.327
  539SOL    HW1 2069   0.476   0.788   5.269
  539SOL    HW2 2070   0.463   0.657   5.344
  540SOL     OW 2071   1.604   0.779   5.408
  540SOL    HW1 2072   1.519   0.821   5.402
  540SOL    HW2 2073   1.657   0.822   5.340
  541SOL     OW 2074   1.052   0.120   5.510
  541SOL    HW1 2075   1.080   0.199   5.463
  541SOL    HW2 2076   1.055   0.051   5.444
  542SOL     OW 2077   0.483   0.060   5.460
  542SOL    HW1 2078   0.422   5.293   5.430
  542SOL    HW2 2079   0.428   0.137   5.476
  543SOL     OW 2080   0.586   0.875   4.757
  543SOL    HW1 2081   0.620   0.964   4.757
  543SOL    HW2 2082   0.529   0.870   4.834
  544SOL     OW 2083   1.354   0.859   4.750
  544SOL    HW1 2084   1.269   0.847   4.707
  544SOL    HW2 2085   1.397   0.774   4.743
  545SOL     OW 2086   1.203   0.527   3.989
  545SOL    HW1 2087   1.209   0.447   4.042
  545SOL    HW2 2088   1.160   0.591   4.047
  546SOL     OW 2089   0.303   0.204   4.970
  546SOL    HW1 2090   0.262   0.237   5.050
  546SOL    HW2 2091   0.291   0.109   4.974
  547SOL     OW 2092   0.062   1.315   5.003
  547SOL    HW1 2093   0.090   1.258   5.074
  547SOL    HW2 2094   5.291   1.367   5.040
  548SOL     OW 2095   0.725   0.632   4.782
  548SOL    HW1 2096   0.799   0.616   4.724
  548SOL    HW2 2097   0.696   0.720   4.760
  549SOL     OW 2098   1.737   0.959   5.579
  549SOL    HW1 2099   1.692   0.895   5.524
  549SOL    HW2 2100   1.676   0.975   5.652
  550SOL     OW 2101   0.320   0.068   4.382
  550SOL    HW1 2102   0.299   0.161   4.387
  550SOL    HW2 2103   0.332   0.041   4.474
  551SOL     OW 2104   1.615   0.378   4.084
  551SOL    HW1 2105   1.647   0.312   4.147
  551SOL    HW2 2106   1.594   0.454   4.138
  552SOL     OW 2107   1.029   0.759   4.683
  552SOL    HW1 2108   1.023   0.776   4.777
  552SOL    HW2 2109   1.002   0.668   4.674
  553SOL     OW 2110   0.981   1.566   5.443
  553SOL    HW1 2111   0.966   1.610   5.360
  553SOL    HW2 2112   1.026   1.484   5.419
  554SOL     OW 2113   1.853   1.503   5.329
  554SOL    HW1 2114   1.873   1.530   5.239
  554SOL    HW2 2115   1.934   1.519   5.377
  555SOL     OW 2116   0.355   0.917   5.531
  555SOL    HW1 2117   0.435   0.938   5.579
  555SOL    HW2 2118   0.382   0.852   5.466
  556SOL     OW 2119   1.524   0.270   3.849
  556SOL    HW1 2120   1.458   0.208   3.882
  556SOL    HW2 2121   1.561   0.309   3.928
  557SOL     OW 2122   1.289   0.826   3.754
  557SOL    HW1 2123   1.332   0.740   3.758
  557SOL    HW2 2124   1.321   0.865   3.672
  558SOL     OW 2125   1.068   1.337   4.579
  558SOL    HW1 2126   1.072   1.265   4.516
  558SOL    HW2 2127   1.127   1.403   4.544
  559SOL     OW 2128   0.313   0.809   4.673
  559SOL    HW1 2129   0.407   0.827   4.670
  559SOL    HW2 2130   0.307   0.719   4.704
  560SOL     OW 2131   0.335   0.528   4.739
  560SOL    HW1 2132   0.298   0.441   4.725
  560SOL    HW2 2133   0.411   0.532   4.680
  561SOL     OW 2134   1.135   0.377   5.415
  561SOL    HW1 2135   1.087   0.431   5.477
  561SOL    HW2 2136   1.222   0.417   5.410
  562SOL     OW 2137   1.131   0.222   5.191
  562SOL    HW1 2138   1.135   0.282   5.266
  562SOL    HW2 2139   1.188   0.263   5.125
  563SOL     OW 2140   0.004   1.327   3.933
  563SOL    HW1 2141   5.232   1.314   3.871
  563SOL    HW2 2142   0.013   1.242   3.977
  564SOL     OW 2143   0.096   1.781   4.678
  564SOL    HW1 2144   0.061   1.714   4.619
  564SOL    HW2 2145   0.183   1.801   4.642
  565SOL     OW 2146   0.504   1.574   4.632
  565SOL    HW1 2147   0.571   1.639   4.652
  565SOL    HW2 2148   0.547   1.514   4.571
  566SOL     OW 2149   0.979   0.790   4.949
  566SOL    HW1 2150   1.037   0.769   5.022
  566SOL    HW2 2151   0.895   0.752   4.973
  567SOL     OW 2152   0.036   0.574   4.847
  567SOL    HW1 2153   0.115   0.541   4.804
  567SOL    HW2 2154   0.036   0.533   4.933
  568SOL     OW 2155   0.164   0.519   5.444
  568SOL    HW1 2156   0.249   0.496   5.407
  568SOL    HW2 2157   0.137   0.597   5.396
  569SOL     OW 2158   1.379   0.936   5.382
  569SOL    HW1 2159   1.400   1.030   5.379
  569SOL    HW2 2160   1.375   0.910   5.290
  570SOL     OW 2161   0.814   0.573   4.090
  570SOL    HW1 2162   0.820   0.500   4.029
  570SOL    HW2 2163   0.740   0.625   4.058
  571SOL     OW 2164   1.641   0.601   4.907
  571SOL    HW1 2165   1.631   0.542   4.982
  571SOL    HW2 2166   1.729   0.582   4.873
  572SOL     OW 2167   0.255   1.555   5.457
  572SOL    HW1 2168   0.235   1.619   5.526
  572SOL    HW2 2169   0.251   1.470   5.502
  573SOL     OW 2170   0.704   0.451   4.982
  573SOL    HW1 2171   0.652   0.377   4.950
  573SOL    HW2 2172   0.701   0.515   4.911
  574SOL     OW 2173   0.926   1.679   5.193
  574SOL    HW1 2174   0.900   1.642   5.109
  574SOL    HW2 2175   0.919   1.773   5.181
  575SOL     OW 2176   0.462   0.492   3.900
  575SOL    HW1 2177   0.525   0.559   3.926
  575SOL    HW2 2178   0.380   0.539   3.890
  576SOL     OW 2179   0.147   1.137   5.194
  576SOL    HW1 2180   0.143   1.090   5.278
  576SOL    HW2 2181   0.157   1.068   5.129
  577SOL     OW 2182   1.323   1.045   4.946
  577SOL    HW1 2183   1.346   0.982   4.878
  577SOL    HW2 2184   1.255   1.099   4.906
  578SOL     OW 2185   1.313   0.857   4.029
  578SOL    HW1 2186   1.239   0.825   4.080
  578SOL    HW2 2187   1.288   0.843   3.938
  579SOL     OW 2188   1.774   1.740   4.878
  579SOL    HW1 2189   1.832   1.768   4.808
  579SOL    HW2 2190   1.749   1.651   4.855
  580SOL     OW 2191   1.241   1.733   4.834
  580SOL    HW1 2192   1.323   1.755   4.790
  580SOL    HW2 2193   1.248   1.640   4.853
  581SOL     OW 2194   0.082   1.210   4.751
  581SOL    HW1 2195   0.069   1.238   4.842
  581SOL    HW2 2196   5.293   1.202   4.716
  582SOL     OW 2197   0.678   1.668   5.458
  582SOL    HW1 2198   0.620   1.744   5.450
  582SOL    HW2 2199   0.744   1.682   5.390
  583SOL     OW 2200   1.710   0.151   4.223
  583SOL    HW1 2201   1.786   0.131   4.168
  583SOL    HW2 2202   1.705   0.078   4.284
  584SOL     OW 2203   1.391   1.568   4.211
  584SOL    HW1 2204   1.451   1.601   4.144
  584SOL    HW2 2205   1.342   1.644   4.240
  585SOL     OW 2206   0.148   1.798   5.566
  585SOL    HW1 2207   0.093   1.735   5.614
  585SOL    HW2 2208   0.196   1.844   5.635
  586SOL     OW 2209   1.277   0.927   4.395
  586SOL    HW1 2210   1.351   0.867   4.404
  586SOL    HW2 2211   1.311   0.999   4.342
  587SOL     OW 2212   0.810   1.274   5.152
  587SOL    HW1 2213   0.781   1.315   5.234
  587SOL    HW2 2214   0.741   1.295   5.089
  588SOL     OW 2215   0.672   1.622   3.878
  588SOL    HW1 2216   0.683   1.636   3.784
  588SOL    HW2 2217   0.617   1.544   3.885
  589SOL     OW 2218   1.622   1.726   5.115
  589SOL    HW1 2219   1.674   1.732   5.035
  589SOL    HW2 2220   1.608   1.817   5.142
  590SOL     OW 2221   1.847   0.153   4.680
  590SOL    HW1 2222   1.840   0.058   4.679
  590SOL    HW2 2223   1.761   0.183   4.649
  591SOL     OW 2224   0.270   0.330   4.441
  591SOL    HW1 2225   0.182   0.366   4.429
  591SOL    HW2 2226   0.276   0.315   4.536
  592SOL     OW 2227   1.208   1.604   3.756
  592SOL    HW1 2228   1.197   1.512   3.782
  592SOL    HW2 2229   1.143   1.617   3.687
  593SOL     OW 2230   0.824   1.006   5.097
  593SOL    HW1 2231   0.868   1.000   5.013
  593SOL    HW2 2232   0.822   1.100   5.117
  594SOL     OW 2233   0.915   0.910   4.015
  594SOL    HW1 2234   0.976   0.943   3.948
  594SOL    HW2 2235   0.964   0.842   4.060
  595SOL     OW 2236   1.490   1.626   3.767
  595SOL    HW1 2237   1.396   1.619   3.753
  595SOL    HW2 2238   1.528   1.632   3.680
  596SOL     OW 2239   0.367   1.304   5.217
  596SOL    HW1 2240   0.359   1.378   5.157
  596SOL    HW2 2241   0.291   1.249   5.198
  597SOL     OW 2242   1.609   1.283   5.004
  597SOL    HW1 2243   1.670   1.270   5.077
  597SOL    HW2 2244   1.549   1.351   5.034
  598SOL     OW 2245   1.056   1.108   4.432
  598SOL    HW1 2246   0.985   1.058   4.470
  598SOL    HW2 2247   1.120   1.043   4.403
  599SOL     OW 2248   1.018   0.244   4.694
  599SOL    HW1 2249   0.998   0.199   4.612
  599SOL    HW2 2250   1.012   0.176   4.761
  600SOL     OW 2251   0.602   1.487   4.204
  600SOL    HW1 2252   0.650   1.438   4.137
  600SOL    HW2 2253   0.534   1.534   4.156
  601SOL     OW 2254   1.727   0.385   5.102
  601SOL    HW1 2255   1.798   0.450   5.101
  601SOL    HW2 2256   1.758   0.316   5.043
  602SOL     OW 2257   0.262   1.348   4.019
  602SOL    HW1 2258   0.169   1.349   3.995
  602SOL    HW2 2259   0.265   1.386   4.107
  603SOL     OW 2260   0.118   1.016   5.440
  603SOL    HW1 2261   0.047   0.983   5.496
  603SOL    HW2 2262   0.198   0.986   5.482
  604SOL     OW 2263   0.677   0.219   5.217
  604SOL    HW1 2264   0.759   0.203   5.171
  604SOL    HW2 2265   0.702   0.264   5.297
  605SOL     OW 2266   0.080   0.331   3.760
  605SOL    HW1 2267   5.286   0.313   3.756
  605SOL    HW2 2268   0.092   0.403   3.698
  606SOL     OW 2269   1.428   0.858   5.123
  606SOL    HW1 2270   1.379   0.919   5.068
  606SOL    HW2 2271   1.517   0.860   5.088
  607SOL     OW 2272   0.085   0.143   4.015
  607SOL    HW1 2273   0.079   0.237   3.996
  607SOL    HW2 2274   0.172   0.118   3.985
  608SOL     OW 2275   1.179   1.337   3.841
  608SOL    HW1 2276   1.088   1.307   3.843
  608SOL    HW2 2277   1.206   1.338   3.933
  609SOL     OW 2278   0.620   0.831   5.160
  609SOL    HW1 2279   0.676   0.907   5.144
  609SOL    HW2 2280   0.681   0.758   5.167
  610SOL     OW 2281   1.483   1.781   4.705
  610SOL    HW1 2282   1.505   1.843   4.636
  610SOL    HW2 2283   1.567   1.758   4.745
  611SOL     OW 2284   0.712   0.574   5.426
  611SOL    HW1 2285   0.758   0.636   5.483
  611SOL    HW2 2286   0.741   0.488   5.457
  612SOL     OW 2287   1.473   1.197   5.354
  612SOL    HW1 2288   1.461   1.212   5.448
  612SOL    HW2 2289   1.566   1.214   5.339
  613SOL     OW 2290   0.374   1.744   5.289
  613SOL    HW1 2291   0.292   1.790   5.271
  613SOL    HW2 2292   0.348   1.664   5.334
  614SOL     OW 2293   1.667   0.881   4.979
  614SOL    HW1 2294   1.662   0.795   4.936
  614SOL    HW2 2295   1.657   0.944   4.908
  615SOL     OW 2296   1.220   0.318   4.188
  615SOL    HW1 2297   1.283   0.246   4.182
  615SOL    HW2 2298   1.250   0.370   4.262
  616SOL     OW 2299   0.588   0.736   4.395
  616SOL    HW1 2300   0.627   0.822   4.379
  616SOL    HW2 2301   0.520   0.729   4.328
  617SOL     OW 2302   1.765   0.362   5.373
  617SOL    HW1 2303   1.747   0.378   5.281
  617SOL    HW2 2304   1.692   0.307   5.403
  618SOL     OW 2305   1.746   0.934   5.236
  618SOL    HW1 2306   1.740   1.028   5.249
  618SOL    HW2 2307   1.730   0.921   5.142
  619SOL     OW 2308   0.863   1.366   3.762
  619SOL    HW1 2309   0.825   1.396   3.845
  619SOL    HW2 2310   0.880   1.447   3.713
  620SOL     OW 2311   0.665   1.791   4.664
  620SOL    HW1 2312   0.645   1.882   4.643
  620SOL    HW2 2313   0.760   1.786   4.658
  621SOL     OW 2314   0.868   0.968   4.577
  621SOL    HW1 2315   0.919   0.896   4.616
  621SOL    HW2 2316   0.832   1.015   4.652
  622SOL     OW 2317   1.076   0.987   3.812
  622SOL    HW1 2318   1.056   1.039   3.734
  622SOL    HW2 2319   1.152   0.934   3.786
  623SOL     OW 2320   1.851   1.552   4.566
  623SOL    HW1 2321   1.772   1.541   4.514
  623SOL    HW2 2322   1.844   1.488   4.636
  624SOL     OW 2323   0.227   1.304   5.586
  624SOL    HW1 2324   0.159   1.242   5.560
  624SOL    HW2 2325   0.216   1.314   5.680
  625SOL     OW 2326   0.090   1.213   4.377
  625SOL    HW1 2327   0.106   1.185   4.467
  625SOL    HW2 2328   0.177   1.223   4.339
  626SOL     OW 2329   0.683   1.404   5.354
  626SOL    HW1 2330   0.602   1.363   5.385
  626SOL    HW2 2331   0.679   1.493   5.390
  627SOL     OW 2332   1.810   0.174   4.954
  627SOL    HW1 2333   1.773   0.086   4.955
  627SOL    HW2 2334   1.833   0.190   4.863
  628SOL     OW 2335   0.434   0.437   4.246
  628SOL    HW1 2336   0.467   0.363   4.195
  628SOL    HW2 2337   0.387   0.397   4.319
  629SOL     OW 2338   1.699   1.487   4.817
  629SOL    HW1 2339   1.619   1.466   4.770
  629SOL    HW2 2340   1.708   1.418   4.882
  630SOL     OW 2341   0.339   0.564   5.013
  630SOL    HW1 2342   0.396   0.505   5.064
  630SOL    HW2 2343   0.352   0.536   4.922
  631SOL     OW 2344   0.831   1.578   4.400
  631SOL    HW1 2345   0.813   1.639   4.329
  631SOL    HW2 2346   0.755   1.519   4.401
  632SOL     OW 2347   1.427   0.220   4.840
  632SOL    HW1 2348   1.463   0.145   4.888
  632SOL    HW2 2349   1.378   0.269   4.906
  633SOL     OW 2350   1.001   0.019   4.862
  633SOL    HW1 2351   0.951   5.252   4.816
  633SOL    HW2 2352   1.087   5.279   4.877
  634SOL     OW 2353   0.772   1.333   4.043
  634SOL    HW1 2354   0.745   1.242   4.049
  634SOL    HW2 2355   0.855   1.337   4.092
  635SOL     OW 2356   0.623   1.555   5.013
  635SOL    HW1 2357   0.624   1.637   5.061
  635SOL    HW2 2358   0.711   1.550   4.973
  636SOL     OW 2359   1.353   0.035   3.888
  636SOL    HW1 2360   1.395   5.296   3.811
  636SOL    HW2 2361   1.277   5.279   3.904
  637SOL     OW 2362   1.300   0.464   4.407
  637SOL    HW1 2363   1.246   0.544   4.412
  637SOL    HW2 2364   1.293   0.425   4.494
  638SOL     OW 2365   1.595   0.215   4.607
  638SOL    HW1 2366   1.530   0.227   4.677
  638SOL    HW2 2367   1.588   0.294   4.554
  639SOL     OW 2368   0.049   1.067   4.014
  639SOL    HW1 2369   0.138   1.033   4.003
  639SOL    HW2 2370   5.299   0.994   4.051
  640SOL     OW 2371   0.888   1.655   4.063
  640SOL    HW1 2372   0.814   1.640   4.005
  640SOL    HW2 2373   0.861   1.729   4.118
  641SOL     OW 2374   0.232   0.632   5.705
  641SOL    HW1 2375   0.160   0.600   5.760
  641SOL    HW2 2376   0.209   0.603   5.616
  642SOL     OW 2377   0.234   0.282   6.576
  642SOL    HW1 2378   0.252   0.242   6.661
  642SOL    HW2 2379   0.153   0.239   6.547
  643SOL     OW 2380   5.298   0.407   6.253
  643SOL    HW1 2381   5.206   0.430   6.255
  643SOL    HW2 2382   0.000   0.317   6.220
  644SOL     OW 2383   0.577   1.289   6.773
  644SOL    HW1 2384   0.495   1.297   6.724
  644SOL    HW2 2385   0.592   1.377   6.807
  645SOL     OW 2386   1.565   1.512   6.294
  645SOL    HW1 2387   1.522   1.491   6.377
  645SOL    HW2 2388   1.494   1.516   6.230
  646SOL     OW 2389   1.132   0.698   6.285
  646SOL    HW1 2390   1.180   0.780   6.271
  646SOL    HW2 2391   1.085   0.711   6.367
  647SOL     OW 2392   1.770   0.604   5.813
  647SOL    HW1 2393   1.747   0.597   5.720
  647SOL    HW2 2394   1.733   0.524   5.852
  648SOL     OW 2395   0.751   1.138   6.628
  648SOL    HW1 2396   0.686   1.174   6.689
  648SOL    HW2 2397   0.788   1.215   6.584
  649SOL     OW 2398   0.867   0.775   7.406
  649SOL    HW1 2399   0.862   0.849   7.466
  649SOL    HW2 2400   0.893   0.814   7.323
  650SOL     OW 2401   0.685   1.000   6.232
  650SOL    HW1 2402   0.752   0.989   6.299
  650SOL    HW2 2403   0.618   1.054   6.272
  651SOL     OW 2404   0.711   1.151   7.402
  651SOL    HW1 2405   0.760   1.228   7.430
  651SOL    HW2 2406   0.631   1.186   7.363
  652SOL     OW 2407   0.359   1.403   6.646
  652SOL    HW1 2408   0.269   1.405   6.612
  652SOL    HW2 2409   0.407   1.465   6.591
  653SOL     OW 2410   1.460   1.501   6.943
  653SOL    HW1 2411   1.513   1.580   6.953
  653SOL    HW2 2412   1.394   1.508   7.013
  654SOL     OW 2413   0.452   0.399   7.071
  654SOL    HW1 2414   0.532   0.346   7.070
  654SOL    HW2 2415   0.382   0.335   7.079
  655SOL     OW 2416   1.608   0.451   6.325
  655SOL    HW1 2417   1.533   0.472   6.269
  655SOL    HW2 2418   1.623   0.530   6.376
  656SOL     OW 2419   0.235   1.713   6.063
  656SOL    HW1 2420   0.264   1.784   6.121
  656SOL    HW2 2421   0.298   1.712   5.992
  657SOL     OW 2422   1.137   1.341   7.276
  657SOL    HW1 2423   1.177   1.338   7.363
  657SOL    HW2 2424   1.086   1.261   7.270
  658SOL     OW 2425   0.220   1.446   6.127
  658SOL    HW1 2426   0.220   1.542   6.118
  658SOL    HW2 2427   0.149   1.428   6.188
  659SOL     OW 2428   0.252   1.076   6.459
  659SOL    HW1 2429   0.264   0.990   6.499
  659SOL    HW2 2430   0.199   1.125   6.522
  660SOL     OW 2431   0.610   1.790   7.017
  660SOL    HW1 2432   0.526   1.774   7.061
  660SOL    HW2 2433   0.632   1.880   7.040
  661SOL     OW 2434   0.579   0.985   5.723
  661SOL    HW1 2435   0.628   1.031   5.654
  661SOL    HW2 2436   0.620   1.015   5.805
  662SOL     OW 2437   1.587   0.138   7.041
  662SOL    HW1 2438   1.614   0.221   7.003
  662SOL    HW2 2439   1.580   0.155   7.135
  663SOL     OW 2440   0.123   0.635   6.163
  663SOL    HW1 2441   0.090   0.553   6.199
  663SOL    HW2 2442   0.098   0.701   6.228
  664SOL     OW 2443   1.843   1.757   5.920
  664SOL    HW1 2444   1.911   1.729   5.982
  664SOL    HW2 2445   1.864   1.848   5.900
  665SOL     OW 2446   0.039   1.599   5.720
  665SOL    HW1 2447   0.026   1.508   5.746
  665SOL    HW2 2448   5.280   1.649   5.777
  666SOL     OW 2449   1.689   0.918   6.229
  666SOL    HW1 2450   1.771   0.875   6.206
  666SOL    HW2 2451   1.667   0.969   6.151
  667SOL     OW 2452   1.648   1.105   6.015
  667SOL    HW1 2453   1.734   1.108   5.974
  667SOL    HW2 2454   1.653   1.167   6.088
  668SOL     OW 2455   0.132   0.750   7.170
  668SOL    HW1 2456   0.227   0.764   7.167
  668SOL    HW2 2457   0.096   0.837   7.190
  669SOL     OW 2458   0.617   1.388   6.320
  669SOL    HW1 2459   0.570   1.305   6.331
  669SOL    HW2 2460   0.599   1.415   6.230
  670SOL     OW 2461   1.287   1.237   7.008
  670SOL    HW1 2462   1.319   1.169   6.948
  670SOL    HW2 2463   1.346   1.232   7.084
  671SOL     OW 2464   0.818   0.032   6.117
  671SOL    HW1 2465   0.845   0.120   6.090
  671SOL    HW2 2466   0.722   0.033   6.109
  672SOL     OW 2467   0.172   0.941   6.866
  672SOL    HW1 2468   0.262   0.911   6.858
  672SOL    HW2 2469   0.134   0.926   6.780
  673SOL     OW 2470   1.531   0.996   5.786
  673SOL    HW1 2471   1.461   0.939   5.819
  673SOL    HW2 2472   1.573   1.030   5.864
  674SOL     OW 2473   1.184   1.809   7.210
  674SOL    HW1 2474   1.192   1.869   7.135
  674SOL    HW2 2475   1.203   1.723   7.173
  675SOL     OW 2476   0.332   0.278   7.390
  675SOL    HW1 2477   0.390   0.339   7.436
  675SOL    HW2 2478   0.249   0.284   7.438
  676SOL     OW 2479   1.467   1.419   6.536
  676SOL    HW1 2480   1.400   1.435   6.602
  676SOL    HW2 2481   1.454   1.328   6.509
  677SOL     OW 2482   1.655   1.746   6.164
  677SOL    HW1 2483   1.638   1.715   6.075
  677SOL    HW2 2484   1.633   1.672   6.220
  678SOL     OW 2485   0.593   0.719   5.853
  678SOL    HW1 2486   0.600   0.801   5.805
  678SOL    HW2 2487   0.529   0.737   5.922
  679SOL     OW 2488   1.277   0.351   6.517
  679SOL    HW1 2489   1.187   0.322   6.530
  679SOL    HW2 2490   1.328   0.300   6.580
  680SOL     OW 2491   1.580   1.672   5.896
  680SOL    HW1 2492   1.671   1.700   5.888
  680SOL    HW2 2493   1.552   1.655   5.806
  681SOL     OW 2494   0.793   0.619   7.035
  681SOL    HW1 2495   0.765   0.597   7.124
  681SOL    HW2 2496   0.753   0.552   6.980
  682SOL     OW 2497   1.394   0.475   7.264
  682SOL    HW1 2498   1.397   0.520   7.349
  682SOL    HW2 2499   1.457   0.403   7.273
  683SOL     OW 2500   0.953   0.887   7.169
  683SOL    HW1 2501   1.008   0.818   7.132
  683SOL    HW2 2502   0.905   0.922   7.094
  684SOL     OW 2503   0.993   0.417   6.819
  684SOL    HW1 2504   0.906   0.436   6.853
  684SOL    HW2 2505   0.977   0.370   6.737
  685SOL     OW 2506   1.052   0.698   6.012
  685SOL    HW1 2507   1.069   0.691   6.106
  685SOL    HW2 2508   0.969   0.653   5.999
  686SOL     OW 2509   0.069   0.790   6.396
  686SOL    HW1 2510   0.149   0.794   6.448
  686SOL    HW2 2511   0.069   0.871   6.346
  687SOL     OW 2512   0.126   1.887   7.171
  687SOL    HW1 2513   0.130   1.861   7.264
  687SOL    HW2 2514   0.060   1.828   7.134
  688SOL     OW 2515   0.877   0.369   5.775
  688SOL    HW1 2516   0.915   0.427   5.709
  688SOL    HW2 2517   0.935   0.292   5.775
  689SOL     OW 2518   1.707   0.572   7.416
  689SOL    HW1 2519   1.670   0.646   7.367
  689SOL    HW2 2520   1.737   0.512   7.348
  690SOL     OW 2521   1.378   1.142   6.126
  690SOL    HW1 2522   1.458   1.130   6.074
  690SOL    HW2 2523   1.326   1.204   6.076
  691SOL     OW 2524   0.534   0.204   6.467
  691SOL    HW1 2525   0.551   0.222   6.560
  691SOL    HW2 2526   0.548   0.288   6.424
  692SOL     OW 2527   1.002   1.443   6.056
  692SOL    HW1 2528   0.969   1.517   6.006
  692SOL    HW2 2529   0.982   1.464   6.147
  693SOL     OW 2530   0.358   1.805   6.457
  693SOL    HW1 2531   0.398   1.719   6.470
  693SOL    HW2 2532   0.424   1.867   6.489
  694SOL     OW 2533   1.800   1.054   6.456
  694SOL    HW1 2534   1.747   1.035   6.378
  694SOL    HW2 2535   1.737   1.060   6.527
  695SOL     OW 2536   1.228   1.539   7.099
  695SOL    HW1 2537   1.215   1.467   7.159
  695SOL    HW2 2538   1.161   1.526   7.031
  696SOL     OW 2539   0.314   0.952   5.836
  696SOL    HW1 2540   0.396   0.976   5.791
  696SOL    HW2 2541   0.293   0.865   5.801
  697SOL     OW 2542   1.480   0.746   6.311
  697SOL    HW1 2543   1.474   0.706   6.398
  697SOL    HW2 2544   1.558   0.802   6.316
  698SOL     OW 2545   0.466   1.264   7.324
  698SOL    HW1 2546   0.439   1.271   7.232
  698SOL    HW2 2547   0.383   1.265   7.372
  699SOL     OW 2548   1.123   1.778   5.816
  699SOL    HW1 2549   1.049   1.737   5.860
  699SOL    HW2 2550   1.147   1.716   5.747
  700SOL     OW 2551   0.198   0.281   7.081
  700SOL    HW1 2552   0.161   0.369   7.071
  700SOL    HW2 2553   0.208   0.270   7.176
  701SOL     OW 2554   1.628   1.381   5.675
  701SOL    HW1 2555   1.587   1.466   5.660
  701SOL    HW2 2556   1.560   1.317   5.655
  702SOL     OW 2557   0.471   1.734   5.904
  702SOL    HW1 2558   0.515   1.792   5.967
  702SOL    HW2 2559   0.541   1.702   5.848
  703SOL     OW 2560   1.408   0.102   6.017
  703SOL    HW1 2561   1.401   0.080   5.925
  703SOL    HW2 2562   1.501   0.121   6.031
  704SOL     OW 2563   0.278   1.801   6.794
  704SOL    HW1 2564   0.307   1.721   6.838
  704SOL    HW2 2565   0.223   1.770   6.722
  705SOL     OW 2566   0.939   1.699   6.484
  705SOL    HW1 2567   1.018   1.649   6.505
  705SOL    HW2 2568   0.896   1.649   6.415
  706SOL     OW 2569   0.385   0.696   6.064
  706SOL    HW1 2570   0.414   0.605   6.073
  706SOL    HW2 2571   0.292   0.693   6.085
  707SOL     OW 2572   1.536   0.228   7.309
  707SOL    HW1 2573   1.544   0.245   7.403
  707SOL    HW2 2574   1.459   0.171   7.302
  708SOL     OW 2575   0.621   0.132   5.693
  708SOL    HW1 2576   0.682   0.064   5.721
  708SOL    HW2 2577   0.573   0.093   5.620
  709SOL     OW 2578   0.778   0.313   7.351
  709SOL    HW1 2579   0.842   0.241   7.351
  709SOL    HW2 2580   0.743   0.314   7.440
  710SOL     OW 2581   0.877   1.522   6.779
  710SOL    HW1 2582   0.860   1.485   6.693
  710SOL    HW2 2583   0.947   1.468   6.815
  711SOL     OW 2584   1.340   0.589   7.018
  711SOL    HW1 2585   1.371   0.559   7.104
  711SOL    HW2 2586   1.376   0.677   7.010
  712SOL     OW 2587   0.817   1.391   6.529
  712SOL    HW1 2588   0.902   1.380   6.485
  712SOL    HW2 2589   0.754   1.396   6.457
  713SOL     OW 2590   0.928   0.511   6.489
  713SOL    HW1 2591   0.903   0.503   6.397
  713SOL    HW2 2592   0.957   0.423   6.513
  714SOL     OW 2593   0.549   0.058   6.090
  714SOL    HW1 2594   0.470   0.059   6.145
  714SOL    HW2 2595   0.534   0.128   6.026
  715SOL     OW 2596   1.428   1.199   5.626
  715SOL    HW1 2597   1.458   1.124   5.677
  715SOL    HW2 2598   1.343   1.221   5.664
  716SOL     OW 2599   0.319   0.068   5.771
  716SOL    HW1 2600   0.386   0.135   5.760
  716SOL    HW2 2601   0.366   5.285   5.770
  717SOL     OW 2602   0.941   0.268   6.049
  717SOL    HW1 2603   0.914   0.301   5.963
  717SOL    HW2 2604   1.036   0.278   6.049
  718SOL     OW 2605   1.081   0.683   7.044
  718SOL    HW1 2606   1.014   0.615   7.049
  718SOL    HW2 2607   1.164   0.635   7.038
  719SOL     OW 2608   1.222   1.571   6.380
  719SOL    HW1 2609   1.236   1.637   6.313
  719SOL    HW2 2610   1.290   1.587   6.445
  720SOL     OW 2611   0.469   1.152   6.314
  720SOL    HW1 2612   0.401   1.131   6.378
  720SOL    HW2 2613   0.429   1.135   6.229
  721SOL     OW 2614   1.267   1.793   6.196
  721SOL    HW1 2615   1.314   1.854   6.140
  721SOL    HW2 2616   1.199   1.846   6.238
  722SOL     OW 2617   1.024   0.544   5.610
  722SOL    HW1 2618   0.982   0.628   5.592
  722SOL    HW2 2619   1.088   0.563   5.679
  723SOL     OW 2620   0.103   0.528   7.000
  723SOL    HW1 2621   0.182   0.548   6.951
  723SOL    HW2 2622   0.080   0.610   7.044
  724SOL     OW 2623   0.559   0.239   6.744
  724SOL    HW1 2624   0.593   0.154   6.772
  724SOL    HW2 2625   0.467   0.238   6.769
  725SOL     OW 2626   0.866   0.465   6.228
  725SOL    HW1 2627   0.819   0.519   6.163
  725SOL    HW2 2628   0.890   0.386   6.180
  726SOL     OW 2629   0.979   0.061   6.351
  726SOL    HW1 2630   0.915   0.059   6.280
  726SOL    HW2 2631   0.988   5.269   6.378
  727SOL     OW 2632   1.439   1.162   6.443
  727SOL    HW1 2633   1.368   1.097   6.442
  727SOL    HW2 2634   1.464   1.171   6.351
  728SOL     OW 2635   1.466   0.609   6.560
  728SOL    HW1 2636   1.414   0.528   6.563
  728SOL    HW2 2637   1.525   0.602   6.634
  729SOL     OW 2638   1.843   0.814   5.970
  729SOL    HW1 2639   1.900   0.764   6.028
  729SOL    HW2 2640   1.816   0.752   5.902
  730SOL     OW 2641   0.491   1.420   5.741
  730SOL    HW1 2642   0.416   1.393   5.793
  730SOL    HW2 2643   0.479   1.377   5.657
  731SOL     OW 2644   1.672   1.264   6.230
  731SOL    HW1 2645   1.767   1.265   6.244
  731SOL    HW2 2646   1.644   1.353   6.251
  732SOL     OW 2647   1.394   0.573   5.657
  732SOL    HW1 2648   1.332   0.552   5.728
  732SOL    HW2 2649   1.479   0.544   5.690
  733SOL     OW 2650   0.520   0.265   5.905
  733SOL    HW1 2651   0.571   0.219   5.838
  733SOL    HW2 2652   0.499   0.349   5.865
  734SOL     OW 2653   1.751   1.241   7.154
  734SOL    HW1 2654   1.838   1.202   7.149
  734SOL    HW2 2655   1.766   1.331   7.184
  735SOL     OW 2656   1.057   1.352   6.918
  735SOL    HW1 2657   0.982   1.322   6.969
  735SOL    HW2 2658   1.133   1.312   6.960
  736SOL     OW 2659   1.609   1.626   7.240
  736SOL    HW1 2660   1.602   1.660   7.151
  736SOL    HW2 2661   1.691   1.577   7.241
  737SOL     OW 2662   1.131   1.205   6.690
  737SOL    HW1 2663   1.072   1.244   6.754
  737SOL    HW2 2664   1.101   1.240   6.606
  738SOL     OW 2665   1.626   1.097   6.662
  738SOL    HW1 2666   1.620   1.159   6.735
  738SOL    HW2 2667   1.548   1.115   6.609
  739SOL     OW 2668   0.904   0.108   6.971
  739SOL    HW1 2669   0.935   0.074   6.887
  739SOL    HW2 2670   0.981   0.150   7.010
  740SOL     OW 2671   0.985   1.114   7.311
  740SOL    HW1 2672   0.892   1.132   7.331
  740SOL    HW2 2673   0.983   1.037   7.255
  741SOL     OW 2674   0.708   1.061   5.958
  741SOL    HW1 2675   0.696   1.043   6.051
  741SOL    HW2 2676   0.784   1.008   5.933
  742SOL     OW 2677   0.421   0.823   6.840
  742SOL    HW1 2678   0.490   0.829   6.905
  742SOL    HW2 2679   0.387   0.734   6.849
  743SOL     OW 2680   1.265   0.378   6.861
  743SOL    HW1 2681   1.299   0.455   6.907
  743SOL    HW2 2682   1.175   0.400   6.838
  744SOL     OW 2683   0.104   1.623   6.951
  744SOL    HW1 2684   0.082   1.628   6.858
  744SOL    HW2 2685   0.190   1.582   6.953
  745SOL     OW 2686   0.342   1.110   6.071
  745SOL    HW1 2687   0.347   1.189   6.018
  745SOL    HW2 2688   0.346   1.038   6.008
  746SOL     OW 2689   0.554   0.534   6.445
  746SOL    HW1 2690   0.567   0.593   6.371
  746SOL    HW2 2691   0.620   0.560   6.509
  747SOL     OW 2692   1.248   1.349   5.976
  747SOL    HW1 2693   1.303   1.420   6.007
  747SOL    HW2 2694   1.161   1.370   6.009
  748SOL     OW 2695   1.285   1.459   6.734
  748SOL    HW1 2696   1.341   1.463   6.811
  748SOL    HW2 2697   1.229   1.383   6.749
  749SOL     OW 2698   1.580   0.621   6.067
  749SOL    HW1 2699   1.532   0.673   6.131
  749SOL    HW2 2700   1.625   0.686   6.013
  750SOL     OW 2701   0.352   1.520   6.895
  750SOL    HW1 2702   0.342   1.476   6.810
  750SOL    HW2 2703   0.446   1.537   6.901
  751SOL     OW 2704   0.418   0.740   7.189
  751SOL    HW1 2705   0.476   0.788   7.131
  751SOL    HW2 2706   0.464   0.657   7.206
  752SOL     OW 2707   1.604   0.779   7.270
  752SOL    HW1 2708   1.518   0.821   7.264
  752SOL    HW2 2709   1.657   0.822   7.202
  753SOL     OW 2710   1.048   0.118   7.373
  753SOL    HW1 2711   1.079   0.198   7.329
  753SOL    HW2 2712   1.056   0.050   7.306
  754SOL     OW 2713   0.482   0.060   7.323
  754SOL    HW1 2714   0.421   5.293   7.291
  754SOL    HW2 2715   0.427   0.137   7.339
  755SOL     OW 2716   0.586   0.875   6.619
  755SOL    HW1 2717   0.620   0.964   6.619
  755SOL    HW2 2718   0.529   0.871   6.696
  756SOL     OW 2719   1.354   0.859   6.612
  756SOL    HW1 2720   1.269   0.847   6.569
  756SOL    HW2 2721   1.397   0.774   6.604
  757SOL     OW 2722   1.203   0.527   5.851
  757SOL    HW1 2723   1.209   0.447   5.904
  757SOL    HW2 2724   1.160   0.591   5.909
  758SOL     OW 2725   0.303   0.204   6.832
  758SOL    HW1 2726   0.261   0.237   6.912
  758SOL    HW2 2727   0.290   0.109   6.835
  759SOL     OW 2728   0.062   1.315   6.865
  759SOL    HW1 2729   0.090   1.258   6.936
  759SOL    HW2 2730   5.291   1.367   6.902
  760SOL     OW 2731   0.725   0.632   6.644
  760SOL    HW1 2732   0.799   0.616   6.586
  760SOL    HW2 2733   0.696   0.720   6.622
  761SOL     OW 2734   1.737   0.960   7.440
  761SOL    HW1 2735   1.690   0.895   7.387
  761SOL    HW2 2736   1.679   0.976   7.515
  762SOL     OW 2737   0.320   0.068   6.244
  762SOL    HW1 2738   0.299   0.161   6.249
  762SOL    HW2 2739   0.332   0.041   6.336
  763SOL     OW 2740   1.615   0.378   5.946
  763SOL    HW1 2741   1.647   0.312   6.009
  763SOL    HW2 2742   1.594   0.454   6.000
  764SOL     OW 2743   1.029   0.759   6.545
  764SOL    HW1 2744   1.023   0.776   6.639
  764SOL    HW2 2745   1.002   0.668   6.536
  765SOL     OW 2746   0.981   1.565   7.305
  765SOL    HW1 2747   0.966   1.610   7.221
  765SOL    HW2 2748   1.026   1.484   7.280
  766SOL     OW 2749   1.853   1.503   7.190
  766SOL    HW1 2750   1.873   1.530   7.101
  766SOL    HW2 2751   1.934   1.519   7.239
  767SOL     OW 2752   0.354   0.914   7.395
  767SOL    HW1 2753   0.436   0.938   7.439
  767SOL    HW2 2754   0.381   0.851   7.328
  768SOL     OW 2755   1.524   0.270   5.711
  768SOL    HW1 2756   1.458   0.208   5.744
  768SOL    HW2 2757   1.561   0.309   5.790
  769SOL     OW 2758   1.289   0.826   5.616
  769SOL    HW1 2759   1.332   0.740   5.620
  769SOL    HW2 2760   1.321   0.865   5.534
  770SOL     OW 2761   1.068   1.337   6.441
  770SOL    HW1 2762   1.072   1.265   6.378
  770SOL    HW2 2763   1.127   1.403   6.406
  771SOL     OW 2764   0.313   0.809   6.535
  771SOL    HW1 2765   0.407   0.827   6.532
  771SOL    HW2 2766   0.307   0.719   6.566
  772SOL     OW 2767   0.335   0.528   6.602
  772SOL    HW1 2768   0.298   0.441   6.587
  772SOL    HW2 2769   0.411   0.532   6.543
  773SOL     OW 2770   1.135   0.376   7.277
  773SOL    HW1 2771   1.088   0.431   7.339
  773SOL    HW2 2772   1.222   0.416   7.272
  774SOL     OW 2773   1.131   0.222   7.053
  774SOL    HW1 2774   1.135   0.281   7.128
  774SOL    HW2 2775   1.187   0.263   6.987
  775SOL     OW 2776   0.003   1.327   5.796
  775SOL    HW1 2777   5.232   1.314   5.733
  775SOL    HW2 2778   0.013   1.242   5.839
  776SOL     OW 2779   0.096   1.781   6.540
  776SOL    HW1 2780   0.061   1.714   6.482
  776SOL    HW2 2781   0.183   1.801   6.504
  777SOL     OW 2782   0.504   1.574   6.494
  777SOL    HW1 2783   0.571   1.639   6.514
  777SOL    HW2 2784   0.547   1.514   6.433
  778SOL     OW 2785   0.979   0.790   6.811
  778SOL    HW1 2786   1.037   0.769   6.884
  778SOL    HW2 2787   0.895   0.752   6.836
  779SOL     OW 2788   0.036   0.573   6.708
  779SOL    HW1 2789   0.115   0.541   6.666
  779SOL    HW2 2790   0.036   0.532   6.795
  780SOL     OW 2791   0.169   0.518   7.302
  780SOL    HW1 2792   0.253   0.497   7.262
  780SOL    HW2 2793   0.139   0.596   7.256
  781SOL     OW 2794   1.378   0.936   7.244
  781SOL    HW1 2795   1.400   1.029   7.242
  781SOL    HW2 2796   1.375   0.910   7.152
  782SOL     OW 2797   0.814   0.573   5.952
  782SOL    HW1 2798   0.820   0.500   5.891
  782SOL    HW2 2799   0.740   0.625   5.920
  783SOL     OW 2800   1.641   0.601   6.769
  783SOL    HW1 2801   1.631   0.542   6.844
  783SOL    HW2 2802   1.729   0.582   6.735
  784SOL     OW 2803   0.254   1.555   7.320
  784SOL    HW1 2804   0.234   1.618   7.389
  784SOL    HW2 2805   0.251   1.470   7.363
  785SOL     OW 2806   0.703   0.451   6.844
  785SOL    HW1 2807   0.652   0.377   6.812
  785SOL    HW2 2808   0.701   0.515   6.774
  786SOL     OW 2809   0.926   1.678   7.055
  786SOL    HW1 2810   0.900   1.642   6.970
  786SOL    HW2 2811   0.920   1.773   7.043
  787SOL     OW 2812   0.462   0.492   5.762
  787SOL    HW1 2813   0.526   0.559   5.788
  787SOL    HW2 2814   0.380   0.539   5.752
  788SOL     OW 2815   0.147   1.137   7.056
  788SOL    HW1 2816   0.143   1.090   7.139
  788SOL    HW2 2817   0.157   1.068   6.990
  789SOL     OW 2818   1.323   1.045   6.808
  789SOL    HW1 2819   1.346   0.982   6.739
  789SOL    HW2 2820   1.255   1.099   6.768
  790SOL     OW 2821   1.313   0.857   5.891
  790SOL    HW1 2822   1.239   0.825   5.942
  790SOL    HW2 2823   1.288   0.843   5.800
  791SOL     OW 2824   1.775   1.741   6.739
  791SOL    HW1 2825   1.835   1.767   6.669
  791SOL    HW2 2826   1.750   1.652   6.716
  792SOL     OW 2827   1.240   1.733   6.695
  792SOL    HW1 2828   1.323   1.755   6.652
  792SOL    HW2 2829   1.248   1.639   6.715
  793SOL     OW 2830   0.082   1.210   6.613
  793SOL    HW1 2831   0.069   1.238   6.704
  793SOL    HW2 2832   5.293   1.202   6.578
  794SOL     OW 2833   0.677   1.667   7.318
  794SOL    HW1 2834   0.621   1.744   7.313
  794SOL    HW2 2835   0.745   1.682   7.252
  795SOL     OW 2836   1.710   0.151   6.085
  795SOL    HW1 2837   1.786   0.131   6.030
  795SOL    HW2 2838   1.706   0.078   6.146
  796SOL     OW 2839   1.391   1.568   6.073
  796SOL    HW1 2840   1.451   1.601   6.006
  796SOL    HW2 2841   1.342   1.645   6.102
  797SOL     OW 2842   0.143   1.799   7.429
  797SOL    HW1 2843   0.090   1.736   7.478
  797SOL    HW2 2844   0.198   1.841   7.495
  798SOL     OW 2845   1.277   0.927   6.257
  798SOL    HW1 2846   1.351   0.867   6.266
  798SOL    HW2 2847   1.311   0.999   6.204
  799SOL     OW 2848   0.810   1.274   7.014
  799SOL    HW1 2849   0.781   1.315   7.096
  799SOL    HW2 2850   0.741   1.295   6.951
  800SOL     OW 2851   0.672   1.622   5.740
  800SOL    HW1 2852   0.683   1.636   5.646
  800SOL    HW2 2853   0.617   1.544   5.747
  801SOL     OW 2854   1.622   1.727   6.976
  801SOL    HW1 2855   1.674   1.733   6.896
  801SOL    HW2 2856   1.608   1.818   7.003
  802SOL     OW 2857   1.847   0.153   6.542
  802SOL    HW1 2858   1.840   0.058   6.541
  802SOL    HW2 2859   1.761   0.183   6.511
  803SOL     OW 2860   0.270   0.329   6.303
  803SOL    HW1 2861   0.182   0.366   6.291
  803SOL    HW2 2862   0.276   0.315   6.398
  804SOL     OW 2863   1.208   1.604   5.618
  804SOL    HW1 2864   1.197   1.513   5.644
  804SOL    HW2 2865   1.143   1.617   5.549
  805SOL     OW 2866   0.824   1.006   6.959
  805SOL    HW1 2867   0.868   1.001   6.875
  805SOL    HW2 2868   0.822   1.100   6.979
  806SOL     OW 2869   0.915   0.910   5.877
  806SOL    HW1 2870   0.976   0.943   5.810
  806SOL    HW2 2871   0.964   0.842   5.922
  807SOL     OW 2872   1.490   1.627   5.629
  807SOL    HW1 2873   1.396   1.619   5.614
  807SOL    HW2 2874   1.528   1.632   5.542
  808SOL     OW 2875   0.367   1.304   7.079
  808SOL    HW1 2876   0.359   1.378   7.019
  808SOL    HW2 2877   0.291   1.249   7.059
  809SOL     OW 2878   1.609   1.283   6.866
  809SOL    HW1 2879   1.669   1.270   6.940
  809SOL    HW2 2880   1.549   1.351   6.896
  810SOL     OW 2881   1.056   1.108   6.294
  810SOL    HW1 2882   0.985   1.058   6.332
  810SOL    HW2 2883   1.120   1.043   6.265
  811SOL     OW 2884   1.018   0.244   6.556
  811SOL    HW1 2885   0.998   0.199   6.474
  811SOL    HW2 2886   1.012   0.176   6.623
  812SOL     OW 2887   0.602   1.487   6.066
  812SOL    HW1 2888   0.650   1.438   5.999
  812SOL    HW2 2889   0.534   1.534   6.018
  813SOL     OW 2890   1.727   0.385   6.964
  813SOL    HW1 2891   1.798   0.450   6.963
  813SOL    HW2 2892   1.758   0.316   6.906
  814SOL     OW 2893   0.262   1.348   5.881
  814SOL    HW1 2894   0.169   1.349   5.857
  814SOL    HW2 2895   0.264   1.386   5.969
  815SOL     OW 2896   0.118   1.014   7.301
  815SOL    HW1 2897   0.047   0.986   7.358
  815SOL    HW2 2898   0.197   0.984   7.345
  816SOL     OW 2899   0.677   0.219   7.080
  816SOL    HW1 2900   0.760   0.203   7.035
  816SOL    HW2 2901   0.703   0.264   7.161
  817SOL     OW 2902   0.080   0.331   5.622
  817SOL    HW1 2903   5.286   0.313   5.618
  817SOL    HW2 2904   0.092   0.403   5.560
  818SOL     OW 2905   1.428   0.858   6.985
  818SOL    HW1 2906   1.379   0.919   6.930
  818SOL    HW2 2907   1.517   0.860   6.950
  819SOL     OW 2908   0.085   0.143   5.877
  819SOL    HW1 2909   0.079   0.237   5.858
  819SOL    HW2 2910   0.172   0.118   5.847
  820SOL     OW 2911   1.179   1.337   5.703
  820SOL    HW1 2912   1.088   1.307   5.705
  820SOL    HW2 2913   1.206   1.338   5.795
  821SOL     OW 2914   0.620   0.831   7.022
  821SOL    HW1 2915   0.676   0.907   7.006
  821SOL    HW2 2916   0.681   0.758   7.029
  822SOL     OW 2917   1.483   1.779   6.567
  822SOL    HW1 2918   1.505   1.841   6.497
  822SOL    HW2 2919   1.567   1.758   6.607
  823SOL     OW 2920   0.711   0.574   7.288
  823SOL    HW1 2921   0.756   0.636   7.345
  823SOL    HW2 2922   0.739   0.488   7.318
  824SOL     OW 2923   1.473   1.197   7.217
  824SOL    HW1 2924   1.460   1.211   7.311
  824SOL    HW2 2925   1.566   1.214   7.202
  825SOL     OW 2926   0.374   1.744   7.151
  825SOL    HW1 2927   0.292   1.790   7.134
  825SOL    HW2 2928   0.348   1.664   7.196
  826SOL     OW 2929   1.667   0.881   6.841
  826SOL    HW1 2930   1.662   0.795   6.798
  826SOL    HW2 2931   1.657   0.944   6.770
  827SOL     OW 2932   1.220   0.318   6.050
  827SOL    HW1 2933   1.283   0.246   6.044
  827SOL    HW2 2934   1.250   0.370   6.124
  828SOL     OW 2935   0.588   0.736   6.257
  828SOL    HW1 2936   0.627   0.822   6.241
  828SOL    HW2 2937   0.520   0.729   6.190
  829SOL     OW 2938   1.764   0.361   7.237
  829SOL    HW1 2939   1.747   0.378   7.144
  829SOL    HW2 2940   1.691   0.307   7.266
  830SOL     OW 2941   1.746   0.933   7.098
  830SOL    HW1 2942   1.740   1.028   7.111
  830SOL    HW2 2943   1.730   0.921   7.004
  831SOL     OW 2944   0.863   1.366   5.624
  831SOL    HW1 2945   0.825   1.396   5.707
  831SOL    HW2 2946   0.880   1.447   5.575
  832SOL     OW 2947   0.665   1.791   6.526
  832SOL    HW1 2948   0.645   1.882   6.505
  832SOL    HW2 2949   0.760   1.786   6.521
  833SOL     OW 2950   0.868   0.968   6.439
  833SOL    HW1 2951   0.919   0.896   6.478
  833SOL    HW2 2952   0.832   1.015   6.514
  834SOL     OW 2953   1.076   0.987   5.674
  834SOL    HW1 2954   1.056   1.039   5.597
  834SOL    HW2 2955   1.152   0.934   5.648
  835SOL     OW 2956   1.851   1.554   6.429
  835SOL    HW1 2957   1.772   1.542   6.376
  835SOL    HW2 2958   1.843   1.488   6.499
  836SOL     OW 2959   0.227   1.303   7.448
  836SOL    HW1 2960   0.156   1.245   7.421
  836SOL    HW2 2961   0.215   1.315   7.542
  837SOL     OW 2962   0.090   1.213   6.238
  837SOL    HW1 2963   0.106   1.185   6.329
  837SOL    HW2 2964   0.177   1.224   6.201
  838SOL     OW 2965   0.682   1.404   7.216
  838SOL    HW1 2966   0.601   1.363   7.247
  838SOL    HW2 2967   0.679   1.493   7.251
  839SOL     OW 2968   1.810   0.174   6.817
  839SOL    HW1 2969   1.773   0.086   6.817
  839SOL    HW2 2970   1.834   0.190   6.725
  840SOL     OW 2971   0.434   0.437   6.108
  840SOL    HW1 2972   0.467   0.363   6.057
  840SOL    HW2 2973   0.387   0.397   6.181
  841SOL     OW 2974   1.699   1.488   6.680
  841SOL    HW1 2975   1.619   1.466   6.632
  841SOL    HW2 2976   1.707   1.418   6.745
  842SOL     OW 2977   0.339   0.564   6.875
  842SOL    HW1 2978   0.396   0.505   6.925
  842SOL    HW2 2979   0.352   0.536   6.784
  843SOL     OW 2980   0.831   1.578   6.262
  843SOL    HW1 2981   0.813   1.639   6.191
  843SOL    HW2 2982   0.755   1.519   6.263
  844SOL     OW 2983   1.427   0.220   6.702
  844SOL    HW1 2984   1.463   0.145   6.750
  844SOL    HW2 2985   1.378   0.269   6.768
  845SOL     OW 2986   1.001   0.019   6.724
  845SOL    HW1 2987   0.951   5.252   6.677
  845SOL    HW2 2988   1.087   5.279   6.739
  846SOL     OW 2989   0.772   1.333   5.905
  846SOL    HW1 2990   0.745   1.242   5.911
  846SOL    HW2 2991   0.855   1.337   5.954
  847SOL     OW 2992   0.623   1.555   6.874
  847SOL    HW1 2993   0.623   1.637   6.923
  847SOL    HW2 2994   0.711   1.550   6.835
  848SOL     OW 2995   1.353   0.034   5.750
  848SOL    HW1 2996   1.395   5.296   5.673
  848SOL    HW2 2997   1.277   5.279   5.766
  849SOL     OW 2998   1.300   0.464   6.269
  849SOL    HW1 2999   1.246   0.544   6.274
  849SOL    HW2 3000   1.293   0.425   6.356
  850SOL     OW 3001   1.595   0.215   6.469
  850SOL    HW1 3002   1.530   0.227   6.539
  850SOL    HW2 3003   1.588   0.294   6.416
  851SOL     OW 3004   0.049   1.067   5.875
  851SOL    HW1 3005   0.138   1.033   5.865
  851SOL    HW2 3006   5.300   0.994   5.913
  852SOL     OW 3007   0.888   1.655   5.925
  852SOL    HW1 3008   0.814   1.640   5.867
  852SOL    HW2 3009   0.861   1.729   5.980
  853SOL     OW 3010   0.225   0.630   7.568
  853SOL    HW1 3011   0.153   0.584   7.612
  853SOL    HW2 3012   0.214   0.607   7.476
  854SOL     OW 3013   1.770   0.595   7.678
  854SOL    HW1 3014   1.748   0.591   7.585
  854SOL    HW2 3015   1.728   0.517   7.716
  855SOL     OW 3016   0.235   1.699   7.923
  855SOL    HW1 3017   0.264   1.750   7.998
  855SOL    HW2 3018   0.303   1.713   7.857
  856SOL     OW 3019   0.214   1.435   7.993
  856SOL    HW1 3020   0.214   1.530   7.978
  856SOL    HW2 3021   0.152   1.422   8.065
  857SOL     OW 3022   0.580   0.986   7.583
  857SOL    HW1 3023   0.626   1.032   7.513
  857SOL    HW2 3024   0.621   1.017   7.663
  858SOL     OW 3025   1.838   1.758   7.797
  858SOL    HW1 3026   1.910   1.728   7.852
  858SOL    HW2 3027   1.862   1.846   7.770
  859SOL     OW 3028   0.035   1.603   7.585
  859SOL    HW1 3029   0.029   1.510   7.607
  859SOL    HW2 3030   5.273   1.646   7.644
  860SOL     OW 3031   1.682   0.861   8.029
  860SOL    HW1 3032   1.759   0.873   0.005
  860SOL    HW2 3033   1.668   0.946   7.989
  861SOL     OW 3034   1.656   1.097   7.879
  861SOL    HW1 3035   1.744   1.124   7.851
  861SOL    HW2 3036   1.625   1.170   7.932
  862SOL     OW 3037   0.811   5.284   7.940
  862SOL    HW1 3038   0.855   0.068   7.929
  862SOL    HW2 3039   0.718   0.005   7.941
  863SOL     OW 3040   1.534   0.997   7.651
  863SOL    HW1 3041   1.466   0.939   7.685
  863SOL    HW2 3042   1.579   1.030   7.729
  864SOL     OW 3043   0.586   0.722   7.707
  864SOL    HW1 3044   0.594   0.805   7.661
  864SOL    HW2 3045   0.535   0.743   7.785
  865SOL     OW 3046   1.574   1.673   7.757
  865SOL    HW1 3047   1.665   1.699   7.766
  865SOL    HW2 3048   1.561   1.660   7.663
  866SOL     OW 3049   0.048   0.817   0.192
  866SOL    HW1 3050   0.118   0.759   0.163
  866SOL    HW2 3051   0.032   0.874   0.116
  867SOL     OW 3052   0.872   0.364   7.629
  867SOL    HW1 3053   0.914   0.425   7.568
  867SOL    HW2 3054   0.938   0.296   7.642
  868SOL     OW 3055   0.316   0.948   7.694
  868SOL    HW1 3056   0.397   0.975   7.650
  868SOL    HW2 3057   0.295   0.863   7.654
  869SOL     OW 3058   1.126   1.776   7.681
  869SOL    HW1 3059   1.048   1.737   7.721
  869SOL    HW2 3060   1.151   1.714   7.612
  870SOL     OW 3061   1.628   1.381   7.535
  870SOL    HW1 3062   1.586   1.466   7.521
  870SOL    HW2 3063   1.560   1.317   7.516
  871SOL     OW 3064   0.470   1.738   7.769
  871SOL    HW1 3065   0.517   1.791   7.834
  871SOL    HW2 3066   0.539   1.702   7.713
  872SOL     OW 3067   1.414   0.107   7.885
  872SOL    HW1 3068   1.410   0.083   7.792
  872SOL    HW2 3069   1.507   0.113   7.904
  873SOL     OW 3070   0.378   0.697   7.924
  873SOL    HW1 3071   0.397   0.603   7.928
  873SOL    HW2 3072   0.287   0.704   7.954
  874SOL     OW 3073   0.613   0.132   7.560
  874SOL    HW1 3074   0.686   0.073   7.582
  874SOL    HW2 3075   0.571   0.091   7.485
  875SOL     OW 3076   0.549   0.063   7.949
  875SOL    HW1 3077   0.458   0.046   7.973
  875SOL    HW2 3078   0.545   0.137   7.889
  876SOL     OW 3079   1.428   1.199   7.489
  876SOL    HW1 3080   1.458   1.125   7.542
  876SOL    HW2 3081   1.344   1.223   7.527
  877SOL     OW 3082   0.317   0.074   7.655
  877SOL    HW1 3083   0.376   0.132   7.607
  877SOL    HW2 3084   0.361   5.289   7.653
  878SOL     OW 3085   0.949   0.226   7.910
  878SOL    HW1 3086   0.900   0.298   7.871
  878SOL    HW2 3087   1.038   0.259   7.919
  879SOL     OW 3088   0.445   1.159   0.088
  879SOL    HW1 3089   0.374   1.189   0.145
  879SOL    HW2 3090   0.403   1.143   0.004
  880SOL     OW 3091   1.293   1.813   8.014
  880SOL    HW1 3092   1.330   1.882   7.958
  880SOL    HW2 3093   1.204   1.844   8.034
  881SOL     OW 3094   1.024   0.544   7.470
  881SOL    HW1 3095   0.981   0.628   7.455
  881SOL    HW2 3096   1.084   0.559   7.544
  882SOL     OW 3097   1.876   0.813   7.802
  882SOL    HW1 3098   1.853   0.797   7.893
  882SOL    HW2 3099   1.837   0.741   7.754
  883SOL     OW 3100   0.489   1.418   7.602
  883SOL    HW1 3101   0.414   1.390   7.655
  883SOL    HW2 3102   0.475   1.375   7.517
  884SOL     OW 3103   1.393   0.572   7.519
  884SOL    HW1 3104   1.331   0.551   7.588
  884SOL    HW2 3105   1.477   0.541   7.553
  885SOL     OW 3106   0.524   0.274   7.774
  885SOL    HW1 3107   0.566   0.222   7.706
  885SOL    HW2 3108   0.501   0.356   7.730
  886SOL     OW 3109   0.711   1.062   7.813
  886SOL    HW1 3110   0.691   1.048   7.905
  886SOL    HW2 3111   0.789   1.009   7.796
  887SOL     OW 3112   0.341   1.098   7.925
  887SOL    HW1 3113   0.338   1.182   7.880
  887SOL    HW2 3114   0.343   1.033   7.854
  888SOL     OW 3115   1.220   1.357   7.821
  888SOL    HW1 3116   1.279   1.429   7.843
  888SOL    HW2 3117   1.193   1.321   7.906
  889SOL     OW 3118   1.589   0.622   7.920
  889SOL    HW1 3119   1.578   0.680   7.996
  889SOL    HW2 3120   1.623   0.679   7.851
  890SOL     OW 3121   1.201   0.523   7.712
  890SOL    HW1 3122   1.201   0.436   7.752
  890SOL    HW2 3123   1.183   0.583   7.785
  891SOL     OW 3124   1.619   0.376   7.811
  891SOL    HW1 3125   1.639   0.309   7.876
  891SOL    HW2 3126   1.595   0.453   7.863
  892SOL     OW 3127   1.527   0.271   7.575
  892SOL    HW1 3128   1.464   0.206   7.605
  892SOL    HW2 3129   1.563   0.309   7.655
  893SOL     OW 3130   1.291   0.827   7.479
  893SOL    HW1 3131   1.333   0.740   7.482
  893SOL    HW2 3132   1.323   0.866   7.398
  894SOL     OW 3133   0.005   1.332   7.655
  894SOL    HW1 3134   5.225   1.329   7.603
  894SOL    HW2 3135   0.014   1.244   7.691
  895SOL     OW 3136   0.843   0.612   7.758
  895SOL    HW1 3137   0.837   0.520   7.731
  895SOL    HW2 3138   0.752   0.642   7.762
  896SOL     OW 3139   0.457   0.494   7.628
  896SOL    HW1 3140   0.521   0.562   7.649
  896SOL    HW2 3141   0.375   0.541   7.617
  897SOL     OW 3142   1.314   0.854   7.753
  897SOL    HW1 3143   1.228   0.861   7.794
  897SOL    HW2 3144   1.295   0.841   7.660
  898SOL     OW 3145   1.710   0.134   7.943
  898SOL    HW1 3146   1.783   0.133   7.881
  898SOL    HW2 3147   1.743   0.088   8.020
  899SOL     OW 3148   1.361   1.578   7.894
  899SOL    HW1 3149   1.437   1.598   7.839
  899SOL    HW2 3150   1.331   1.664   7.925
  900SOL     OW 3151   0.668   1.621   7.603
  900SOL    HW1 3152   0.680   1.634   7.509
  900SOL    HW2 3153   0.613   1.542   7.609
  901SOL     OW 3154   1.210   1.605   7.479
  901SOL    HW1 3155   1.198   1.514   7.505
  901SOL    HW2 3156   1.143   1.620   7.412
  902SOL     OW 3157   0.922   0.906   7.755
  902SOL    HW1 3158   0.977   0.929   7.680
  902SOL    HW2 3159   0.917   0.810   7.752
  903SOL     OW 3160   1.492   1.628   7.489
  903SOL    HW1 3161   1.398   1.619   7.476
  903SOL    HW2 3162   1.528   1.633   7.400
  904SOL     OW 3163   0.610   1.508   7.935
  904SOL    HW1 3164   0.656   1.449   7.875
  904SOL    HW2 3165   0.534   1.539   7.885
  905SOL     OW 3166   0.261   1.345   7.745
  905SOL    HW1 3167   0.169   1.350   7.719
  905SOL    HW2 3168   0.263   1.381   7.833
  906SOL     OW 3169   0.080   0.338   7.485
  906SOL    HW1 3170   5.289   0.311   7.475
  906SOL    HW2 3171   0.092   0.406   7.419
  907SOL     OW 3172   0.068   0.144   7.733
  907SOL    HW1 3173   0.067   0.238   7.720
  907SOL    HW2 3174   0.158   0.118   7.712
  908SOL     OW 3175   1.174   1.337   7.556
  908SOL    HW1 3176   1.081   1.313   7.554
  908SOL    HW2 3177   1.195   1.343   7.649
  909SOL     OW 3178   1.221   0.316   7.916
  909SOL    HW1 3179   1.288   0.248   7.911
  909SOL    HW2 3180   1.243   0.365   7.995
  910SOL     OW 3181   0.627   0.749   8.037
  910SOL    HW1 3182   0.629   0.819   0.023
  910SOL    HW2 3183   0.535   0.738   8.016
  911SOL     OW 3184   0.864   1.367   7.487
  911SOL    HW1 3185   0.825   1.398   7.569
  911SOL    HW2 3186   0.881   1.446   7.437
  912SOL     OW 3187   1.069   0.974   7.537
  912SOL    HW1 3188   1.052   1.034   7.464
  912SOL    HW2 3189   1.148   0.927   7.511
  913SOL     OW 3190   0.402   0.432   7.983
  913SOL    HW1 3191   0.447   0.368   7.928
  913SOL    HW2 3192   0.445   0.423   8.069
  914SOL     OW 3193   0.764   1.337   7.767
  914SOL    HW1 3194   0.737   1.245   7.767
  914SOL    HW2 3195   0.848   1.337   7.814
  915SOL     OW 3196   1.365   0.035   7.614
  915SOL    HW1 3197   1.378   5.288   7.532
  915SOL    HW2 3198   1.284   5.298   7.650
  916SOL     OW 3199   0.049   1.069   7.720
  916SOL    HW1 3200   0.138   1.033   7.717
  916SOL    HW2 3201   0.002   1.010   7.778
  917SOL     OW 3202   0.894   1.655   7.778
  917SOL    HW1 3203   0.818   1.630   7.725
  917SOL    HW2 3204   0.860   1.716   7.843
  918SOL     OW 3205   0.219   2.479   0.121
  918SOL    HW1 3206   0.154   2.424   0.165
  918SOL    HW2 3207   0.230   2.439   0.035
  919SOL     OW 3208   0.243   2.137   0.987
  919SOL    HW1 3209   0.257   2.102   1.075
  919SOL    HW2 3210   0.158   2.102   0.961
  920SOL     OW 3211   5.295   2.262   0.646
  920SOL    HW1 3212   5.204   2.290   0.656
  920SOL    HW2 3213   5.290   2.168   0.628
  921SOL     OW 3214   0.577   3.151   1.187
  921SOL    HW1 3215   0.495   3.158   1.139
  921SOL    HW2 3216   0.592   3.240   1.221
  922SOL     OW 3217   1.565   3.375   0.709
  922SOL    HW1 3218   1.522   3.353   0.791
  922SOL    HW2 3219   1.493   3.378   0.645
  923SOL     OW 3220   1.132   2.560   0.699
  923SOL    HW1 3221   1.180   2.642   0.685
  923SOL    HW2 3222   1.085   2.573   0.781
  924SOL     OW 3223   1.773   2.461   0.232
  924SOL    HW1 3224   1.728   2.470   0.148
  924SOL    HW2 3225   1.732   2.384   0.273
  925SOL     OW 3226   0.752   3.001   1.042
  925SOL    HW1 3227   0.687   3.036   1.103
  925SOL    HW2 3228   0.789   3.078   0.998
  926SOL     OW 3229   0.871   2.631   1.823
  926SOL    HW1 3230   0.860   2.702   1.886
  926SOL    HW2 3231   0.893   2.675   1.741
  927SOL     OW 3232   0.683   2.859   0.649
  927SOL    HW1 3233   0.750   2.851   0.717
  927SOL    HW2 3234   0.616   2.915   0.688
  928SOL     OW 3235   0.711   3.012   1.816
  928SOL    HW1 3236   0.760   3.090   1.844
  928SOL    HW2 3237   0.631   3.046   1.778
  929SOL     OW 3238   0.359   3.265   1.061
  929SOL    HW1 3239   0.271   3.262   1.024
  929SOL    HW2 3240   0.406   3.327   1.005
  930SOL     OW 3241   1.460   3.363   1.358
  930SOL    HW1 3242   1.513   3.442   1.367
  930SOL    HW2 3243   1.394   3.370   1.427
  931SOL     OW 3244   0.452   2.261   1.489
  931SOL    HW1 3245   0.526   2.201   1.492
  931SOL    HW2 3246   0.375   2.205   1.501
  932SOL     OW 3247   1.610   2.308   0.742
  932SOL    HW1 3248   1.535   2.328   0.685
  932SOL    HW2 3249   1.618   2.385   0.799
  933SOL     OW 3250   0.218   3.594   0.462
  933SOL    HW1 3251   0.256   3.650   0.530
  933SOL    HW2 3252   0.291   3.571   0.405
  934SOL     OW 3253   1.137   3.204   1.693
  934SOL    HW1 3254   1.178   3.198   1.780
  934SOL    HW2 3255   1.085   3.124   1.686
  935SOL     OW 3256   0.220   3.313   0.530
  935SOL    HW1 3257   0.198   3.406   0.538
  935SOL    HW2 3258   0.162   3.269   0.593
  936SOL     OW 3259   0.258   2.939   0.878
  936SOL    HW1 3260   0.262   2.851   0.915
  936SOL    HW2 3261   0.201   2.988   0.938
  937SOL     OW 3262   0.611   3.652   1.432
  937SOL    HW1 3263   0.527   3.635   1.475
  937SOL    HW2 3264   0.632   3.742   1.455
  938SOL     OW 3265   0.615   2.820   0.143
  938SOL    HW1 3266   0.572   2.900   0.111
  938SOL    HW2 3267   0.674   2.850   0.212
  939SOL     OW 3268   1.596   1.987   1.466
  939SOL    HW1 3269   1.609   2.069   1.418
  939SOL    HW2 3270   1.579   2.016   1.556
  940SOL     OW 3271   0.130   2.496   0.584
  940SOL    HW1 3272   0.087   2.414   0.607
  940SOL    HW2 3273   0.100   2.557   0.652
  941SOL     OW 3274   1.848   3.618   0.328
  941SOL    HW1 3275   1.914   3.589   0.391
  941SOL    HW2 3276   1.870   3.709   0.310
  942SOL     OW 3277   0.031   3.442   0.104
  942SOL    HW1 3278   0.022   3.358   0.148
  942SOL    HW2 3279   0.008   3.507   0.171
  943SOL     OW 3280   1.687   2.780   0.645
  943SOL    HW1 3281   1.769   2.737   0.620
  943SOL    HW2 3282   1.664   2.833   0.569
  944SOL     OW 3283   1.647   2.965   0.435
  944SOL    HW1 3284   1.728   2.977   0.385
  944SOL    HW2 3285   1.653   3.028   0.506
  945SOL     OW 3286   0.134   2.611   1.583
  945SOL    HW1 3287   0.229   2.625   1.582
  945SOL    HW2 3288   0.098   2.698   1.602
  946SOL     OW 3289   0.617   3.250   0.733
  946SOL    HW1 3290   0.570   3.168   0.744
  946SOL    HW2 3291   0.600   3.276   0.643
  947SOL     OW 3292   1.287   3.099   1.422
  947SOL    HW1 3293   1.319   3.031   1.362
  947SOL    HW2 3294   1.346   3.094   1.498
  948SOL     OW 3295   0.826   1.866   0.515
  948SOL    HW1 3296   0.865   1.950   0.490
  948SOL    HW2 3297   0.732   1.883   0.519
  949SOL     OW 3298   0.173   2.803   1.280
  949SOL    HW1 3299   0.263   2.773   1.272
  949SOL    HW2 3300   0.135   2.789   1.193
  950SOL     OW 3301   1.505   2.873   0.215
  950SOL    HW1 3302   1.443   2.808   0.249
  950SOL    HW2 3303   1.559   2.896   0.290
  951SOL     OW 3304   1.185   3.671   1.624
  951SOL    HW1 3305   1.192   3.731   1.550
  951SOL    HW2 3306   1.202   3.585   1.587
  952SOL     OW 3307   0.342   2.116   1.823
  952SOL    HW1 3308   0.387   2.199   1.838
  952SOL    HW2 3309   0.253   2.132   1.855
  953SOL     OW 3310   1.468   3.281   0.950
  953SOL    HW1 3311   1.400   3.297   1.016
  953SOL    HW2 3312   1.454   3.190   0.923
  954SOL     OW 3313   1.657   3.608   0.582
  954SOL    HW1 3314   1.637   3.579   0.493
  954SOL    HW2 3315   1.634   3.534   0.638
  955SOL     OW 3316   0.597   2.573   0.283
  955SOL    HW1 3317   0.615   2.654   0.236
  955SOL    HW2 3318   0.533   2.598   0.350
  956SOL     OW 3319   1.279   2.220   0.933
  956SOL    HW1 3320   1.189   2.186   0.942
  956SOL    HW2 3321   1.330   2.166   0.993
  957SOL     OW 3322   1.587   3.534   0.321
  957SOL    HW1 3323   1.679   3.561   0.313
  957SOL    HW2 3324   1.559   3.517   0.231
  958SOL     OW 3325   0.792   2.479   1.450
  958SOL    HW1 3326   0.765   2.455   1.538
  958SOL    HW2 3327   0.754   2.412   1.393
  959SOL     OW 3328   1.393   2.336   1.678
  959SOL    HW1 3329   1.396   2.381   1.762
  959SOL    HW2 3330   1.452   2.261   1.688
  960SOL     OW 3331   0.952   2.748   1.584
  960SOL    HW1 3332   1.007   2.679   1.547
  960SOL    HW2 3333   0.904   2.784   1.509
  961SOL     OW 3334   0.993   2.273   1.237
  961SOL    HW1 3335   0.905   2.293   1.270
  961SOL    HW2 3336   0.977   2.229   1.154
  962SOL     OW 3337   1.054   2.561   0.427
  962SOL    HW1 3338   1.071   2.555   0.521
  962SOL    HW2 3339   0.971   2.515   0.414
  963SOL     OW 3340   0.065   2.652   0.814
  963SOL    HW1 3341   0.146   2.656   0.864
  963SOL    HW2 3342   0.071   2.727   0.754
  964SOL     OW 3343   0.127   3.749   1.586
  964SOL    HW1 3344   0.132   3.723   1.678
  964SOL    HW2 3345   0.060   3.691   1.548
  965SOL     OW 3346   0.886   2.219   0.204
  965SOL    HW1 3347   0.931   2.270   0.136
  965SOL    HW2 3348   0.886   2.130   0.170
  966SOL     OW 3349   1.707   2.435   1.828
  966SOL    HW1 3350   1.670   2.508   1.780
  966SOL    HW2 3351   1.735   2.373   1.761
  967SOL     OW 3352   1.378   3.003   0.541
  967SOL    HW1 3353   1.456   2.992   0.487
  967SOL    HW2 3354   1.324   3.066   0.492
  968SOL     OW 3355   0.557   2.045   0.895
  968SOL    HW1 3356   0.554   2.073   0.986
  968SOL    HW2 3357   0.554   2.126   0.845
  969SOL     OW 3358   1.001   3.305   0.471
  969SOL    HW1 3359   0.966   3.379   0.421
  969SOL    HW2 3360   0.980   3.325   0.562
  970SOL     OW 3361   0.358   3.666   0.870
  970SOL    HW1 3362   0.398   3.580   0.883
  970SOL    HW2 3363   0.423   3.728   0.904
  971SOL     OW 3364   1.799   2.914   0.871
  971SOL    HW1 3365   1.745   2.897   0.794
  971SOL    HW2 3366   1.736   2.922   0.943
  972SOL     OW 3367   1.228   3.401   1.513
  972SOL    HW1 3368   1.215   3.328   1.574
  972SOL    HW2 3369   1.161   3.388   1.445
  973SOL     OW 3370   0.332   2.814   0.258
  973SOL    HW1 3371   0.412   2.822   0.206
  973SOL    HW2 3372   0.310   2.721   0.254
  974SOL     OW 3373   1.480   2.606   0.724
  974SOL    HW1 3374   1.474   2.566   0.811
  974SOL    HW2 3375   1.557   2.663   0.730
  975SOL     OW 3376   0.467   3.128   1.738
  975SOL    HW1 3377   0.440   3.133   1.646
  975SOL    HW2 3378   0.384   3.127   1.787
  976SOL     OW 3379   1.107   3.643   0.222
  976SOL    HW1 3380   1.050   3.603   0.287
  976SOL    HW2 3381   1.129   3.572   0.162
  977SOL     OW 3382   0.206   2.139   1.497
  977SOL    HW1 3383   0.128   2.191   1.480
  977SOL    HW2 3384   0.172   2.058   1.536
  978SOL     OW 3385   1.634   3.234   0.083
  978SOL    HW1 3386   1.593   3.320   0.084
  978SOL    HW2 3387   1.563   3.173   0.064
  979SOL     OW 3388   0.470   3.594   0.325
  979SOL    HW1 3389   0.514   3.655   0.385
  979SOL    HW2 3390   0.539   3.567   0.264
  980SOL     OW 3391   1.408   1.973   0.448
  980SOL    HW1 3392   1.400   1.951   0.355
  980SOL    HW2 3393   1.502   1.980   0.463
  981SOL     OW 3394   0.278   3.663   1.208
  981SOL    HW1 3395   0.306   3.583   1.253
  981SOL    HW2 3396   0.223   3.631   1.136
  982SOL     OW 3397   0.939   3.561   0.898
  982SOL    HW1 3398   1.017   3.510   0.919
  982SOL    HW2 3399   0.896   3.511   0.828
  983SOL     OW 3400   0.381   2.560   0.475
  983SOL    HW1 3401   0.412   2.470   0.485
  983SOL    HW2 3402   0.289   2.557   0.503
  984SOL     OW 3403   1.532   2.087   1.725
  984SOL    HW1 3404   1.543   2.107   1.818
  984SOL    HW2 3405   1.463   2.021   1.722
  985SOL     OW 3406   0.629   1.970   0.139
  985SOL    HW1 3407   0.724   1.959   0.143
  985SOL    HW2 3408   0.606   1.953   0.048
  986SOL     OW 3409   0.765   2.141   1.755
  986SOL    HW1 3410   0.843   2.085   1.754
  986SOL    HW2 3411   0.718   2.113   1.834
  987SOL     OW 3412   0.877   3.385   1.193
  987SOL    HW1 3413   0.860   3.347   1.107
  987SOL    HW2 3414   0.947   3.330   1.229
  988SOL     OW 3415   1.340   2.451   1.432
  988SOL    HW1 3416   1.370   2.420   1.517
  988SOL    HW2 3417   1.376   2.539   1.424
  989SOL     OW 3418   0.817   3.253   0.943
  989SOL    HW1 3419   0.902   3.242   0.899
  989SOL    HW2 3420   0.754   3.258   0.871
  990SOL     OW 3421   0.929   2.371   0.901
  990SOL    HW1 3422   0.904   2.363   0.809
  990SOL    HW2 3423   0.958   2.284   0.926
  991SOL     OW 3424   0.562   1.923   0.499
  991SOL    HW1 3425   0.487   1.923   0.558
  991SOL    HW2 3426   0.550   2.002   0.446
  992SOL     OW 3427   1.432   3.062   0.035
  992SOL    HW1 3428   1.456   2.989   0.092
  992SOL    HW2 3429   1.345   3.088   0.064
  993SOL     OW 3430   0.315   1.912   0.179
  993SOL    HW1 3431   0.382   1.980   0.184
  993SOL    HW2 3432   0.356   1.836   0.220
  994SOL     OW 3433   0.943   2.111   0.457
  994SOL    HW1 3434   0.916   2.152   0.375
  994SOL    HW2 3435   1.037   2.128   0.462
  995SOL     OW 3436   1.080   2.544   1.459
  995SOL    HW1 3437   1.012   2.476   1.463
  995SOL    HW2 3438   1.162   2.496   1.452
  996SOL     OW 3439   1.222   3.432   0.794
  996SOL    HW1 3440   1.236   3.498   0.727
  996SOL    HW2 3441   1.290   3.449   0.859
  997SOL     OW 3442   0.470   3.015   0.729
  997SOL    HW1 3443   0.401   2.994   0.792
  997SOL    HW2 3444   0.429   3.000   0.643
  998SOL     OW 3445   1.266   3.655   0.610
  998SOL    HW1 3446   1.317   3.719   0.559
  998SOL    HW2 3447   1.197   3.707   0.652
  999SOL     OW 3448   1.030   2.386   0.035
  999SOL    HW1 3449   0.993   2.468   0.003
  999SOL    HW2 3450   1.094   2.412   0.101
 1000SOL     OW 3451   0.090   2.404   1.399
 1000SOL    HW1 3452   0.178   2.413   1.362
 1000SOL    HW2 3453   0.081   2.481   1.455
 1001SOL     OW 3454   0.560   2.090   1.168
 1001SOL    HW1 3455   0.598   2.011   1.207
 1001SOL    HW2 3456   0.468   2.089   1.195
 1002SOL     OW 3457   0.867   2.320   0.639
 1002SOL    HW1 3458   0.826   2.376   0.573
 1002SOL    HW2 3459   0.889   2.240   0.591
 1003SOL     OW 3460   1.017   1.915   0.748
 1003SOL    HW1 3461   0.957   1.909   0.674
 1003SOL    HW2 3462   0.994   1.840   0.804
 1004SOL     OW 3463   1.439   3.023   0.857
 1004SOL    HW1 3464   1.367   2.960   0.856
 1004SOL    HW2 3465   1.463   3.033   0.765
 1005SOL     OW 3466   1.466   2.469   0.972
 1005SOL    HW1 3467   1.411   2.390   0.976
 1005SOL    HW2 3468   1.524   2.462   1.048
 1006SOL     OW 3469   1.851   2.674   0.389
 1006SOL    HW1 3470   1.903   2.621   0.449
 1006SOL    HW2 3471   1.820   2.613   0.323
 1007SOL     OW 3472   0.483   3.303   0.173
 1007SOL    HW1 3473   0.410   3.266   0.223
 1007SOL    HW2 3474   0.492   3.247   0.097
 1008SOL     OW 3475   1.673   3.127   0.646
 1008SOL    HW1 3476   1.767   3.128   0.660
 1008SOL    HW2 3477   1.644   3.216   0.667
 1009SOL     OW 3478   1.398   2.437   0.088
 1009SOL    HW1 3479   1.336   2.420   0.158
 1009SOL    HW2 3480   1.450   2.356   0.082
 1010SOL     OW 3481   0.513   2.126   0.322
 1010SOL    HW1 3482   0.565   2.074   0.261
 1010SOL    HW2 3483   0.498   2.209   0.277
 1011SOL     OW 3484   1.751   3.103   1.569
 1011SOL    HW1 3485   1.838   3.065   1.562
 1011SOL    HW2 3486   1.766   3.193   1.598
 1012SOL     OW 3487   1.057   3.215   1.332
 1012SOL    HW1 3488   0.981   3.184   1.383
 1012SOL    HW2 3489   1.132   3.174   1.374
 1013SOL     OW 3490   1.609   3.488   1.656
 1013SOL    HW1 3491   1.601   3.522   1.567
 1013SOL    HW2 3492   1.691   3.440   1.656
 1014SOL     OW 3493   1.132   3.068   1.104
 1014SOL    HW1 3494   1.072   3.106   1.168
 1014SOL    HW2 3495   1.101   3.102   1.020
 1015SOL     OW 3496   1.625   2.959   1.077
 1015SOL    HW1 3497   1.620   3.021   1.149
 1015SOL    HW2 3498   1.548   2.977   1.023
 1016SOL     OW 3499   0.919   1.957   1.395
 1016SOL    HW1 3500   0.941   1.939   1.303
 1016SOL    HW2 3501   0.998   1.997   1.431
 1017SOL     OW 3502   0.984   2.977   1.723
 1017SOL    HW1 3503   0.893   2.994   1.745
 1017SOL    HW2 3504   0.982   2.899   1.668
 1018SOL     OW 3505   0.717   2.926   0.382
 1018SOL    HW1 3506   0.699   2.906   0.474
 1018SOL    HW2 3507   0.795   2.874   0.361
 1019SOL     OW 3508   0.421   2.683   1.254
 1019SOL    HW1 3509   0.490   2.691   1.320
 1019SOL    HW2 3510   0.387   2.594   1.264
 1020SOL     OW 3511   1.264   2.238   1.277
 1020SOL    HW1 3512   1.297   2.315   1.323
 1020SOL    HW2 3513   1.173   2.259   1.256
 1021SOL     OW 3514   0.103   3.485   1.365
 1021SOL    HW1 3515   0.081   3.489   1.272
 1021SOL    HW2 3516   0.190   3.444   1.368
 1022SOL     OW 3517   0.345   2.974   0.486
 1022SOL    HW1 3518   0.339   3.054   0.433
 1022SOL    HW2 3519   0.355   2.903   0.422
 1023SOL     OW 3520   0.552   2.395   0.858
 1023SOL    HW1 3521   0.566   2.454   0.784
 1023SOL    HW2 3522   0.617   2.421   0.923
 1024SOL     OW 3523   1.247   3.209   0.395
 1024SOL    HW1 3524   1.302   3.282   0.423
 1024SOL    HW2 3525   1.159   3.232   0.426
 1025SOL     OW 3526   1.285   3.321   1.148
 1025SOL    HW1 3527   1.341   3.325   1.226
 1025SOL    HW2 3528   1.229   3.245   1.162
 1026SOL     OW 3529   1.581   2.484   0.485
 1026SOL    HW1 3530   1.530   2.531   0.551
 1026SOL    HW2 3531   1.611   2.552   0.425
 1027SOL     OW 3532   0.352   3.382   1.309
 1027SOL    HW1 3533   0.341   3.338   1.225
 1027SOL    HW2 3534   0.446   3.399   1.315
 1028SOL     OW 3535   0.416   2.604   1.602
 1028SOL    HW1 3536   0.478   2.649   1.545
 1028SOL    HW2 3537   0.454   2.517   1.615
 1029SOL     OW 3538   1.604   2.641   1.684
 1029SOL    HW1 3539   1.518   2.683   1.678
 1029SOL    HW2 3540   1.656   2.684   1.616
 1030SOL     OW 3541   0.996   1.990   1.755
 1030SOL    HW1 3542   1.054   2.062   1.730
 1030SOL    HW2 3543   1.044   1.911   1.729
 1031SOL     OW 3544   0.496   1.902   1.749
 1031SOL    HW1 3545   0.452   1.849   1.683
 1031SOL    HW2 3546   0.439   1.977   1.763
 1032SOL     OW 3547   0.586   2.736   1.033
 1032SOL    HW1 3548   0.618   2.826   1.033
 1032SOL    HW2 3549   0.529   2.731   1.110
 1033SOL     OW 3550   1.354   2.720   1.026
 1033SOL    HW1 3551   1.269   2.709   0.983
 1033SOL    HW2 3552   1.397   2.635   1.018
 1034SOL     OW 3553   1.201   2.389   0.270
 1034SOL    HW1 3554   1.209   2.310   0.324
 1034SOL    HW2 3555   1.159   2.453   0.327
 1035SOL     OW 3556   0.301   2.065   1.247
 1035SOL    HW1 3557   0.267   2.088   1.333
 1035SOL    HW2 3558   0.290   1.970   1.241
 1036SOL     OW 3559   0.063   3.177   1.279
 1036SOL    HW1 3560   0.090   3.120   1.350
 1036SOL    HW2 3561   5.291   3.229   1.316
 1037SOL     OW 3562   0.722   2.492   1.055
 1037SOL    HW1 3563   0.798   2.478   0.999
 1037SOL    HW2 3564   0.694   2.581   1.036
 1038SOL     OW 3565   1.736   2.821   1.855
 1038SOL    HW1 3566   1.691   2.757   1.801
 1038SOL    HW2 3567   1.676   2.837   1.928
 1039SOL     OW 3568   0.325   1.925   0.635
 1039SOL    HW1 3569   0.310   2.015   0.663
 1039SOL    HW2 3570   0.333   1.875   0.716
 1040SOL     OW 3571   1.625   2.240   0.367
 1040SOL    HW1 3572   1.648   2.174   0.433
 1040SOL    HW2 3573   1.599   2.316   0.419
 1041SOL     OW 3574   1.029   2.620   0.959
 1041SOL    HW1 3575   1.022   2.638   1.053
 1041SOL    HW2 3576   1.002   2.529   0.950
 1042SOL     OW 3577   0.981   3.428   1.719
 1042SOL    HW1 3578   0.966   3.472   1.636
 1042SOL    HW2 3579   1.026   3.346   1.695
 1043SOL     OW 3580   1.853   3.365   1.604
 1043SOL    HW1 3581   1.873   3.392   1.515
 1043SOL    HW2 3582   1.934   3.382   1.653
 1044SOL     OW 3583   0.355   2.780   1.806
 1044SOL    HW1 3584   0.436   2.800   1.854
 1044SOL    HW2 3585   0.381   2.715   1.741
 1045SOL     OW 3586   1.512   2.168   0.127
 1045SOL    HW1 3587   1.465   2.086   0.144
 1045SOL    HW2 3588   1.555   2.188   0.211
 1046SOL     OW 3589   1.297   2.684   0.021
 1046SOL    HW1 3590   1.334   2.597   0.037
 1046SOL    HW2 3591   1.359   2.727   8.043
 1047SOL     OW 3592   1.068   3.199   0.856
 1047SOL    HW1 3593   1.071   3.127   0.792
 1047SOL    HW2 3594   1.127   3.265   0.820
 1048SOL     OW 3595   0.312   2.670   0.950
 1048SOL    HW1 3596   0.405   2.689   0.946
 1048SOL    HW2 3597   0.308   2.579   0.981
 1049SOL     OW 3598   0.333   2.388   1.016
 1049SOL    HW1 3599   0.299   2.300   1.002
 1049SOL    HW2 3600   0.409   2.394   0.957
 1050SOL     OW 3601   1.134   2.236   1.684
 1050SOL    HW1 3602   1.085   2.291   1.746
 1050SOL    HW2 3603   1.221   2.275   1.680
 1051SOL     OW 3604   1.161   2.062   1.471
 1051SOL    HW1 3605   1.150   2.125   1.542
 1051SOL    HW2 3606   1.202   2.113   1.401
 1052SOL     OW 3607   0.013   3.185   0.201
 1052SOL    HW1 3608   5.245   3.163   0.137
 1052SOL    HW2 3609   0.015   3.110   0.260
 1053SOL     OW 3610   0.096   3.644   0.951
 1053SOL    HW1 3611   0.060   3.575   0.895
 1053SOL    HW2 3612   0.183   3.661   0.916
 1054SOL     OW 3613   0.504   3.435   0.908
 1054SOL    HW1 3614   0.571   3.501   0.928
 1054SOL    HW2 3615   0.547   3.375   0.847
 1055SOL     OW 3616   0.979   2.651   1.225
 1055SOL    HW1 3617   1.036   2.631   1.298
 1055SOL    HW2 3618   0.894   2.614   1.250
 1056SOL     OW 3619   0.031   2.423   1.117
 1056SOL    HW1 3620   0.120   2.405   1.085
 1056SOL    HW2 3621   0.036   2.406   1.211
 1057SOL     OW 3622   0.172   2.376   1.712
 1057SOL    HW1 3623   0.235   2.335   1.652
 1057SOL    HW2 3624   0.147   2.458   1.669
 1058SOL     OW 3625   1.379   2.798   1.658
 1058SOL    HW1 3626   1.400   2.892   1.655
 1058SOL    HW2 3627   1.375   2.772   1.566
 1059SOL     OW 3628   0.820   2.431   0.371
 1059SOL    HW1 3629   0.830   2.360   0.308
 1059SOL    HW2 3630   0.743   2.480   0.340
 1060SOL     OW 3631   1.640   2.463   1.183
 1060SOL    HW1 3632   1.630   2.405   1.258
 1060SOL    HW2 3633   1.728   2.443   1.149
 1061SOL     OW 3634   0.255   3.417   1.733
 1061SOL    HW1 3635   0.234   3.481   1.802
 1061SOL    HW2 3636   0.251   3.332   1.778
 1062SOL     OW 3637   0.707   2.310   1.257
 1062SOL    HW1 3638   0.652   2.236   1.229
 1062SOL    HW2 3639   0.700   2.373   1.185
 1063SOL     OW 3640   0.926   3.541   1.469
 1063SOL    HW1 3641   0.900   3.504   1.385
 1063SOL    HW2 3642   0.920   3.635   1.457
 1064SOL     OW 3643   0.467   2.352   0.177
 1064SOL    HW1 3644   0.532   2.418   0.201
 1064SOL    HW2 3645   0.383   2.398   0.179
 1065SOL     OW 3646   0.147   2.999   1.470
 1065SOL    HW1 3647   0.143   2.952   1.554
 1065SOL    HW2 3648   0.157   2.930   1.405
 1066SOL     OW 3649   1.323   2.907   1.222
 1066SOL    HW1 3650   1.346   2.844   1.153
 1066SOL    HW2 3651   1.255   2.961   1.182
 1067SOL     OW 3652   1.306   2.709   0.309
 1067SOL    HW1 3653   1.229   2.679   0.357
 1067SOL    HW2 3654   1.283   2.697   0.217
 1068SOL     OW 3655   1.775   3.603   1.152
 1068SOL    HW1 3656   1.835   3.629   1.083
 1068SOL    HW2 3657   1.750   3.513   1.130
 1069SOL     OW 3658   1.241   3.595   1.109
 1069SOL    HW1 3659   1.323   3.617   1.066
 1069SOL    HW2 3660   1.248   3.501   1.129
 1070SOL     OW 3661   0.082   3.072   1.028
 1070SOL    HW1 3662   0.068   3.101   1.118
 1070SOL    HW2 3663   5.293   3.065   0.991
 1071SOL     OW 3664   0.678   3.530   1.734
 1071SOL    HW1 3665   0.620   3.606   1.726
 1071SOL    HW2 3666   0.744   3.544   1.665
 1072SOL     OW 3667   0.905   1.954   0.130
 1072SOL    HW1 3668   0.919   1.936   0.037
 1072SOL    HW2 3669   0.972   1.901   0.174
 1073SOL     OW 3670   1.722   2.011   0.508
 1073SOL    HW1 3671   1.792   1.993   0.446
 1073SOL    HW2 3672   1.705   1.926   0.550
 1074SOL     OW 3673   1.390   3.430   0.489
 1074SOL    HW1 3674   1.453   3.464   0.424
 1074SOL    HW2 3675   1.342   3.507   0.518
 1075SOL     OW 3676   0.148   3.660   1.842
 1075SOL    HW1 3677   0.093   3.597   1.890
 1075SOL    HW2 3678   0.196   3.706   1.911
 1076SOL     OW 3679   1.277   2.788   0.671
 1076SOL    HW1 3680   1.351   2.728   0.679
 1076SOL    HW2 3681   1.311   2.861   0.618
 1077SOL     OW 3682   0.810   3.136   1.428
 1077SOL    HW1 3683   0.781   3.177   1.509
 1077SOL    HW2 3684   0.740   3.156   1.365
 1078SOL     OW 3685   0.678   3.484   0.156
 1078SOL    HW1 3686   0.683   3.493   0.060
 1078SOL    HW2 3687   0.616   3.412   0.169
 1079SOL     OW 3688   1.622   3.589   1.391
 1079SOL    HW1 3689   1.674   3.595   1.310
 1079SOL    HW2 3690   1.608   3.680   1.417
 1080SOL     OW 3691   1.841   2.034   0.965
 1080SOL    HW1 3692   1.869   1.946   0.940
 1080SOL    HW2 3693   1.754   2.043   0.926
 1081SOL     OW 3694   0.271   2.178   0.716
 1081SOL    HW1 3695   0.187   2.222   0.699
 1081SOL    HW2 3696   0.273   2.168   0.811
 1082SOL     OW 3697   1.159   3.441   0.051
 1082SOL    HW1 3698   1.171   3.348   0.073
 1082SOL    HW2 3699   1.172   3.445   8.036
 1083SOL     OW 3700   0.824   2.868   1.373
 1083SOL    HW1 3701   0.867   2.863   1.288
 1083SOL    HW2 3702   0.822   2.961   1.394
 1084SOL     OW 3703   0.919   2.775   0.298
 1084SOL    HW1 3704   0.973   2.799   0.222
 1084SOL    HW2 3705   0.968   2.704   0.341
 1085SOL     OW 3706   1.509   3.484   0.062
 1085SOL    HW1 3707   1.414   3.485   0.049
 1085SOL    HW2 3708   1.546   3.489   8.054
 1086SOL     OW 3709   0.367   3.166   1.493
 1086SOL    HW1 3710   0.359   3.240   1.433
 1086SOL    HW2 3711   0.291   3.111   1.474
 1087SOL     OW 3712   1.609   3.145   1.280
 1087SOL    HW1 3713   1.670   3.133   1.353
 1087SOL    HW2 3714   1.549   3.213   1.310
 1088SOL     OW 3715   1.056   2.971   0.709
 1088SOL    HW1 3716   0.984   2.920   0.747
 1088SOL    HW2 3717   1.119   2.905   0.678
 1089SOL     OW 3718   1.023   2.103   0.966
 1089SOL    HW1 3719   1.018   2.056   0.883
 1089SOL    HW2 3720   1.017   2.035   1.033
 1090SOL     OW 3721   0.604   3.348   0.477
 1090SOL    HW1 3722   0.648   3.299   0.408
 1090SOL    HW2 3723   0.534   3.396   0.432
 1091SOL     OW 3724   1.724   2.254   1.380
 1091SOL    HW1 3725   1.796   2.318   1.379
 1091SOL    HW2 3726   1.754   2.183   1.323
 1092SOL     OW 3727   0.271   3.186   0.301
 1092SOL    HW1 3728   0.186   3.194   0.257
 1092SOL    HW2 3729   0.261   3.234   0.383
 1093SOL     OW 3730   0.118   2.878   1.716
 1093SOL    HW1 3731   0.048   2.844   1.772
 1093SOL    HW2 3732   0.198   2.848   1.758
 1094SOL     OW 3733   0.675   2.058   1.500
 1094SOL    HW1 3734   0.759   2.037   1.459
 1094SOL    HW2 3735   0.698   2.090   1.587
 1095SOL     OW 3736   0.044   2.249   0.026
 1095SOL    HW1 3737   0.018   2.167   0.070
 1095SOL    HW2 3738   0.126   2.228   8.063
 1096SOL     OW 3739   1.428   2.720   1.399
 1096SOL    HW1 3740   1.379   2.781   1.344
 1096SOL    HW2 3741   1.517   2.722   1.364
 1097SOL     OW 3742   0.055   1.998   0.209
 1097SOL    HW1 3743   0.057   2.081   0.256
 1097SOL    HW2 3744   0.147   1.973   0.201
 1098SOL     OW 3745   1.183   3.176   0.122
 1098SOL    HW1 3746   1.088   3.169   0.119
 1098SOL    HW2 3747   1.205   3.178   0.215
 1099SOL     OW 3748   0.620   2.693   1.436
 1099SOL    HW1 3749   0.677   2.768   1.421
 1099SOL    HW2 3750   0.680   2.619   1.444
 1100SOL     OW 3751   1.483   3.641   0.981
 1100SOL    HW1 3752   1.506   3.704   0.912
 1100SOL    HW2 3753   1.567   3.620   1.022
 1101SOL     OW 3754   0.717   2.424   1.703
 1101SOL    HW1 3755   0.761   2.485   1.762
 1101SOL    HW2 3756   0.741   2.338   1.736
 1102SOL     OW 3757   1.473   3.059   1.630
 1102SOL    HW1 3758   1.461   3.074   1.724
 1102SOL    HW2 3759   1.566   3.077   1.615
 1103SOL     OW 3760   0.374   3.606   1.565
 1103SOL    HW1 3761   0.292   3.652   1.547
 1103SOL    HW2 3762   0.348   3.525   1.610
 1104SOL     OW 3763   1.668   2.743   1.255
 1104SOL    HW1 3764   1.661   2.658   1.211
 1104SOL    HW2 3765   1.657   2.806   1.184
 1105SOL     OW 3766   1.217   2.180   0.460
 1105SOL    HW1 3767   1.281   2.109   0.454
 1105SOL    HW2 3768   1.244   2.231   0.536
 1106SOL     OW 3769   0.587   2.597   0.670
 1106SOL    HW1 3770   0.627   2.683   0.658
 1106SOL    HW2 3771   0.517   2.592   0.605
 1107SOL     OW 3772   1.760   2.225   1.651
 1107SOL    HW1 3773   1.743   2.241   1.558
 1107SOL    HW2 3774   1.688   2.168   1.679
 1108SOL     OW 3775   1.747   2.795   1.512
 1108SOL    HW1 3776   1.740   2.889   1.525
 1108SOL    HW2 3777   1.730   2.783   1.418
 1109SOL     OW 3778   0.899   3.232   0.043
 1109SOL    HW1 3779   0.837   3.221   0.115
 1109SOL    HW2 3780   0.877   3.317   0.005
 1110SOL     OW 3781   0.665   3.654   0.940
 1110SOL    HW1 3782   0.645   3.745   0.919
 1110SOL    HW2 3783   0.760   3.648   0.934
 1111SOL     OW 3784   0.869   2.830   0.854
 1111SOL    HW1 3785   0.919   2.758   0.893
 1111SOL    HW2 3786   0.832   2.877   0.929
 1112SOL     OW 3787   1.076   2.834   0.085
 1112SOL    HW1 3788   1.068   2.903   0.018
 1112SOL    HW2 3789   1.154   2.784   0.059
 1113SOL     OW 3790   1.851   3.415   0.843
 1113SOL    HW1 3791   1.772   3.404   0.791
 1113SOL    HW2 3792   1.843   3.351   0.914
 1114SOL     OW 3793   0.227   3.165   1.861
 1114SOL    HW1 3794   0.159   3.103   1.835
 1114SOL    HW2 3795   0.215   3.175   1.956
 1115SOL     OW 3796   0.100   3.097   0.663
 1115SOL    HW1 3797   0.103   3.050   0.746
 1115SOL    HW2 3798   0.172   3.061   0.612
 1116SOL     OW 3799   0.683   3.266   1.630
 1116SOL    HW1 3800   0.602   3.225   1.661
 1116SOL    HW2 3801   0.679   3.355   1.666
 1117SOL     OW 3802   1.814   2.046   1.237
 1117SOL    HW1 3803   1.820   1.951   1.251
 1117SOL    HW2 3804   1.823   2.057   1.142
 1118SOL     OW 3805   0.433   2.302   0.523
 1118SOL    HW1 3806   0.463   2.229   0.469
 1118SOL    HW2 3807   0.387   2.260   0.596
 1119SOL     OW 3808   1.699   3.349   1.093
 1119SOL    HW1 3809   1.619   3.328   1.046
 1119SOL    HW2 3810   1.708   3.280   1.158
 1120SOL     OW 3811   0.339   2.424   1.292
 1120SOL    HW1 3812   0.392   2.365   1.346
 1120SOL    HW2 3813   0.352   2.393   1.203
 1121SOL     OW 3814   0.830   3.439   0.677
 1121SOL    HW1 3815   0.813   3.499   0.604
 1121SOL    HW2 3816   0.755   3.381   0.678
 1122SOL     OW 3817   1.431   2.089   1.118
 1122SOL    HW1 3818   1.451   2.007   1.162
 1122SOL    HW2 3819   1.380   2.138   1.181
 1123SOL     OW 3820   1.009   1.880   1.139
 1123SOL    HW1 3821   0.954   1.813   1.098
 1123SOL    HW2 3822   1.097   1.841   1.141
 1124SOL     OW 3823   0.773   3.188   0.308
 1124SOL    HW1 3824   0.743   3.099   0.326
 1124SOL    HW2 3825   0.853   3.198   0.361
 1125SOL     OW 3826   0.623   3.417   1.289
 1125SOL    HW1 3827   0.624   3.499   1.337
 1125SOL    HW2 3828   0.711   3.412   1.249
 1126SOL     OW 3829   1.356   1.916   0.187
 1126SOL    HW1 3830   1.375   1.871   0.105
 1126SOL    HW2 3831   1.270   1.885   0.212
 1127SOL     OW 3832   1.297   2.325   0.680
 1127SOL    HW1 3833   1.244   2.404   0.685
 1127SOL    HW2 3834   1.291   2.286   0.767
 1128SOL     OW 3835   1.586   2.061   0.880
 1128SOL    HW1 3836   1.527   2.083   0.953
 1128SOL    HW2 3837   1.585   2.139   0.824
 1129SOL     OW 3838   0.049   2.936   0.330
 1129SOL    HW1 3839   0.136   2.915   0.296
 1129SOL    HW2 3840   5.298   2.856   0.317
 1130SOL     OW 3841   0.885   3.518   0.346
 1130SOL    HW1 3842   0.815   3.503   0.282
 1130SOL    HW2 3843   0.855   3.593   0.397
 1131SOL     OW 3844   0.232   2.491   1.979
 1131SOL    HW1 3845   0.162   2.453   2.032
 1131SOL    HW2 3846   0.215   2.461   1.890
 1132SOL     OW 3847   0.244   2.137   2.850
 1132SOL    HW1 3848   0.257   2.102   2.938
 1132SOL    HW2 3849   0.159   2.103   2.823
 1133SOL     OW 3850   5.297   2.262   2.516
 1133SOL    HW1 3851   5.204   2.284   2.520
 1133SOL    HW2 3852   5.300   2.173   2.482
 1134SOL     OW 3853   0.577   3.151   3.049
 1134SOL    HW1 3854   0.495   3.158   3.001
 1134SOL    HW2 3855   0.592   3.239   3.083
 1135SOL     OW 3856   1.565   3.374   2.570
 1135SOL    HW1 3857   1.522   3.353   2.653
 1135SOL    HW2 3858   1.494   3.378   2.506
 1136SOL     OW 3859   1.131   2.560   2.560
 1136SOL    HW1 3860   1.180   2.642   2.547
 1136SOL    HW2 3861   1.084   2.573   2.642
 1137SOL     OW 3862   1.772   2.465   2.089
 1137SOL    HW1 3863   1.749   2.458   1.996
 1137SOL    HW2 3864   1.733   2.386   2.129
 1138SOL     OW 3865   0.751   3.000   2.904
 1138SOL    HW1 3866   0.687   3.036   2.965
 1138SOL    HW2 3867   0.788   3.077   2.860
 1139SOL     OW 3868   0.871   2.631   3.685
 1139SOL    HW1 3869   0.862   2.702   3.748
 1139SOL    HW2 3870   0.893   2.675   3.603
 1140SOL     OW 3871   0.685   2.861   2.508
 1140SOL    HW1 3872   0.752   2.851   2.576
 1140SOL    HW2 3873   0.618   2.916   2.548
 1141SOL     OW 3874   0.711   3.012   3.678
 1141SOL    HW1 3875   0.759   3.089   3.706
 1141SOL    HW2 3876   0.630   3.046   3.640
 1142SOL     OW 3877   0.359   3.265   2.922
 1142SOL    HW1 3878   0.269   3.267   2.888
 1142SOL    HW2 3879   0.407   3.327   2.867
 1143SOL     OW 3880   1.459   3.363   3.218
 1143SOL    HW1 3881   1.513   3.442   3.228
 1143SOL    HW2 3882   1.395   3.370   3.289
 1144SOL     OW 3883   0.452   2.261   3.351
 1144SOL    HW1 3884   0.526   2.201   3.354
 1144SOL    HW2 3885   0.375   2.205   3.363
 1145SOL     OW 3886   1.610   2.308   2.604
 1145SOL    HW1 3887   1.535   2.328   2.547
 1145SOL    HW2 3888   1.620   2.386   2.658
 1146SOL     OW 3889   0.235   3.575   2.339
 1146SOL    HW1 3890   0.264   3.646   2.397
 1146SOL    HW2 3891   0.298   3.574   2.268
 1147SOL     OW 3892   1.137   3.204   3.555
 1147SOL    HW1 3893   1.180   3.198   3.641
 1147SOL    HW2 3894   1.085   3.124   3.548
 1148SOL     OW 3895   0.221   3.309   2.403
 1148SOL    HW1 3896   0.220   3.404   2.394
 1148SOL    HW2 3897   0.149   3.290   2.464
 1149SOL     OW 3898   0.252   2.938   2.735
 1149SOL    HW1 3899   0.263   2.851   2.775
 1149SOL    HW2 3900   0.199   2.987   2.798
 1150SOL     OW 3901   0.610   3.652   3.294
 1150SOL    HW1 3902   0.526   3.635   3.337
 1150SOL    HW2 3903   0.632   3.742   3.317
 1151SOL     OW 3904   0.580   2.847   1.999
 1151SOL    HW1 3905   0.628   2.893   1.930
 1151SOL    HW2 3906   0.620   2.877   2.081
 1152SOL     OW 3907   1.596   1.987   3.329
 1152SOL    HW1 3908   1.608   2.068   3.280
 1152SOL    HW2 3909   1.580   2.015   3.419
 1153SOL     OW 3910   0.127   2.494   2.443
 1153SOL    HW1 3911   0.089   2.411   2.473
 1153SOL    HW2 3912   0.099   2.558   2.508
 1154SOL     OW 3913   1.843   3.619   2.195
 1154SOL    HW1 3914   1.910   3.592   2.258
 1154SOL    HW2 3915   1.864   3.710   2.176
 1155SOL     OW 3916   0.039   3.461   1.996
 1155SOL    HW1 3917   0.026   3.370   2.022
 1155SOL    HW2 3918   5.280   3.511   2.053
 1156SOL     OW 3919   1.688   2.780   2.504
 1156SOL    HW1 3920   1.771   2.737   2.480
 1156SOL    HW2 3921   1.665   2.832   2.427
 1157SOL     OW 3922   1.648   2.967   2.291
 1157SOL    HW1 3923   1.734   2.971   2.250
 1157SOL    HW2 3924   1.653   3.029   2.364
 1158SOL     OW 3925   0.134   2.611   3.445
 1158SOL    HW1 3926   0.229   2.625   3.444
 1158SOL    HW2 3927   0.098   2.698   3.464
 1159SOL     OW 3928   0.617   3.250   2.596
 1159SOL    HW1 3929   0.570   3.167   2.607
 1159SOL    HW2 3930   0.599   3.277   2.506
 1160SOL     OW 3931   1.287   3.099   3.284
 1160SOL    HW1 3932   1.319   3.031   3.224
 1160SOL    HW2 3933   1.345   3.094   3.360
 1161SOL     OW 3934   0.826   1.863   2.374
 1161SOL    HW1 3935   0.866   1.947   2.352
 1161SOL    HW2 3936   0.732   1.882   2.379
 1162SOL     OW 3937   0.173   2.803   3.142
 1162SOL    HW1 3938   0.264   2.773   3.135
 1162SOL    HW2 3939   0.135   2.787   3.056
 1163SOL     OW 3940   1.531   2.858   2.062
 1163SOL    HW1 3941   1.462   2.801   2.095
 1163SOL    HW2 3942   1.573   2.892   2.141
 1164SOL     OW 3943   1.184   3.671   3.486
 1164SOL    HW1 3944   1.192   3.731   3.412
 1164SOL    HW2 3945   1.202   3.585   3.449
 1165SOL     OW 3946   0.342   2.116   3.686
 1165SOL    HW1 3947   0.388   2.199   3.700
 1165SOL    HW2 3948   0.253   2.132   3.717
 1166SOL     OW 3949   1.467   3.281   2.812
 1166SOL    HW1 3950   1.400   3.297   2.878
 1166SOL    HW2 3951   1.454   3.190   2.786
 1167SOL     OW 3952   1.655   3.608   2.440
 1167SOL    HW1 3953   1.638   3.576   2.351
 1167SOL    HW2 3954   1.634   3.534   2.496
 1168SOL     OW 3955   0.595   2.581   2.130
 1168SOL    HW1 3956   0.601   2.663   2.081
 1168SOL    HW2 3957   0.530   2.599   2.198
 1169SOL     OW 3958   1.279   2.220   2.795
 1169SOL    HW1 3959   1.190   2.186   2.804
 1169SOL    HW2 3960   1.331   2.166   2.855
 1170SOL     OW 3961   1.580   3.533   2.172
 1170SOL    HW1 3962   1.671   3.562   2.164
 1170SOL    HW2 3963   1.552   3.517   2.082
 1171SOL     OW 3964   0.791   2.479   3.312
 1171SOL    HW1 3965   0.765   2.455   3.400
 1171SOL    HW2 3966   0.754   2.412   3.255
 1172SOL     OW 3967   1.393   2.335   3.541
 1172SOL    HW1 3968   1.396   2.380   3.625
 1172SOL    HW2 3969   1.452   2.260   3.551
 1173SOL     OW 3970   0.952   2.748   3.446
 1173SOL    HW1 3971   1.007   2.679   3.409
 1173SOL    HW2 3972   0.904   2.783   3.371
 1174SOL     OW 3973   0.993   2.273   3.099
 1174SOL    HW1 3974   0.905   2.293   3.132
 1174SOL    HW2 3975   0.977   2.229   3.015
 1175SOL     OW 3976   1.052   2.560   2.287
 1175SOL    HW1 3977   1.069   2.554   2.381
 1175SOL    HW2 3978   0.969   2.514   2.275
 1176SOL     OW 3979   0.069   2.651   2.672
 1176SOL    HW1 3980   0.149   2.655   2.723
 1176SOL    HW2 3981   0.068   2.732   2.622
 1177SOL     OW 3982   0.127   3.749   3.448
 1177SOL    HW1 3983   0.132   3.723   3.540
 1177SOL    HW2 3984   0.060   3.691   3.411
 1178SOL     OW 3985   0.897   2.212   2.057
 1178SOL    HW1 3986   0.936   2.275   1.996
 1178SOL    HW2 3987   0.910   2.127   2.015
 1179SOL     OW 3988   1.715   2.437   3.689
 1179SOL    HW1 3989   1.673   2.509   3.643
 1179SOL    HW2 3990   1.732   2.372   3.620
 1180SOL     OW 3991   1.378   3.003   2.402
 1180SOL    HW1 3992   1.458   2.993   2.350
 1180SOL    HW2 3993   1.325   3.066   2.353
 1181SOL     OW 3994   0.558   2.044   2.757
 1181SOL    HW1 3995   0.555   2.073   2.848
 1181SOL    HW2 3996   0.552   2.125   2.706
 1182SOL     OW 3997   1.002   3.305   2.332
 1182SOL    HW1 3998   0.969   3.379   2.282
 1182SOL    HW2 3999   0.982   3.326   2.423
 1183SOL     OW 4000   0.358   3.667   2.733
 1183SOL    HW1 4001   0.398   3.581   2.746
 1183SOL    HW2 4002   0.423   3.729   2.765
 1184SOL     OW 4003   1.798   2.913   2.733
 1184SOL    HW1 4004   1.744   2.898   2.655
 1184SOL    HW2 4005   1.735   2.921   2.804
 1185SOL     OW 4006   1.228   3.401   3.375
 1185SOL    HW1 4007   1.215   3.328   3.436
 1185SOL    HW2 4008   1.162   3.388   3.307
 1186SOL     OW 4009   0.314   2.814   2.112
 1186SOL    HW1 4010   0.395   2.837   2.067
 1186SOL    HW2 4011   0.292   2.727   2.077
 1187SOL     OW 4012   1.480   2.607   2.586
 1187SOL    HW1 4013   1.474   2.567   2.673
 1187SOL    HW2 4014   1.558   2.663   2.591
 1188SOL     OW 4015   0.467   3.128   3.600
 1188SOL    HW1 4016   0.440   3.133   3.508
 1188SOL    HW2 4017   0.384   3.128   3.649
 1189SOL     OW 4018   1.123   3.640   2.092
 1189SOL    HW1 4019   1.049   3.599   2.136
 1189SOL    HW2 4020   1.147   3.577   2.023
 1190SOL     OW 4021   0.206   2.139   3.359
 1190SOL    HW1 4022   0.128   2.191   3.342
 1190SOL    HW2 4023   0.172   2.058   3.398
 1191SOL     OW 4024   1.628   3.242   1.951
 1191SOL    HW1 4025   1.587   3.328   1.936
 1191SOL    HW2 4026   1.560   3.179   1.931
 1192SOL     OW 4027   0.471   3.596   2.180
 1192SOL    HW1 4028   0.515   3.654   2.243
 1192SOL    HW2 4029   0.541   3.564   2.124
 1193SOL     OW 4030   1.401   1.969   2.298
 1193SOL    HW1 4031   1.391   1.944   2.206
 1193SOL    HW2 4032   1.495   1.975   2.312
 1194SOL     OW 4033   0.278   3.663   3.070
 1194SOL    HW1 4034   0.307   3.583   3.114
 1194SOL    HW2 4035   0.223   3.632   2.998
 1195SOL     OW 4036   0.939   3.561   2.760
 1195SOL    HW1 4037   1.018   3.511   2.781
 1195SOL    HW2 4038   0.897   3.511   2.691
 1196SOL     OW 4039   0.386   2.557   2.340
 1196SOL    HW1 4040   0.415   2.466   2.350
 1196SOL    HW2 4041   0.293   2.555   2.361
 1197SOL     OW 4042   1.535   2.088   3.587
 1197SOL    HW1 4043   1.544   2.107   3.680
 1197SOL    HW2 4044   1.465   2.022   3.583
 1198SOL     OW 4045   0.638   1.983   1.965
 1198SOL    HW1 4046   0.704   1.914   1.980
 1198SOL    HW2 4047   0.588   1.952   1.890
 1199SOL     OW 4048   0.765   2.141   3.617
 1199SOL    HW1 4049   0.843   2.085   3.616
 1199SOL    HW2 4050   0.718   2.114   3.696
 1200SOL     OW 4051   0.877   3.384   3.055
 1200SOL    HW1 4052   0.860   3.347   2.969
 1200SOL    HW2 4053   0.947   3.330   3.092
 1201SOL     OW 4054   1.340   2.451   3.294
 1201SOL    HW1 4055   1.371   2.421   3.380
 1201SOL    HW2 4056   1.376   2.539   3.286
 1202SOL     OW 4057   0.817   3.253   2.805
 1202SOL    HW1 4058   0.902   3.242   2.761
 1202SOL    HW2 4059   0.754   3.258   2.733
 1203SOL     OW 4060   0.929   2.371   2.764
 1203SOL    HW1 4061   0.904   2.363   2.672
 1203SOL    HW2 4062   0.958   2.284   2.789
 1204SOL     OW 4063   0.562   1.923   2.356
 1204SOL    HW1 4064   0.487   1.923   2.415
 1204SOL    HW2 4065   0.551   2.002   2.303
 1205SOL     OW 4066   1.428   3.061   1.902
 1205SOL    HW1 4067   1.457   2.986   1.953
 1205SOL    HW2 4068   1.342   3.083   1.940
 1206SOL     OW 4069   0.306   1.909   2.039
 1206SOL    HW1 4070   0.368   1.973   2.005
 1206SOL    HW2 4071   0.361   1.845   2.086
 1207SOL     OW 4072   0.942   2.111   2.319
 1207SOL    HW1 4073   0.916   2.151   2.236
 1207SOL    HW2 4074   1.036   2.126   2.325
 1208SOL     OW 4075   1.080   2.544   3.321
 1208SOL    HW1 4076   1.013   2.476   3.325
 1208SOL    HW2 4077   1.162   2.496   3.314
 1209SOL     OW 4078   1.222   3.432   2.656
 1209SOL    HW1 4079   1.237   3.499   2.589
 1209SOL    HW2 4080   1.290   3.449   2.721
 1210SOL     OW 4081   0.469   3.014   2.590
 1210SOL    HW1 4082   0.401   2.992   2.653
 1210SOL    HW2 4083   0.428   2.997   2.505
 1211SOL     OW 4084   1.267   3.655   2.472
 1211SOL    HW1 4085   1.314   3.716   2.416
 1211SOL    HW2 4086   1.199   3.708   2.514
 1212SOL     OW 4087   1.023   2.400   1.887
 1212SOL    HW1 4088   0.980   2.484   1.867
 1212SOL    HW2 4089   1.088   2.423   1.953
 1213SOL     OW 4090   0.091   2.404   3.262
 1213SOL    HW1 4091   0.178   2.412   3.224
 1213SOL    HW2 4092   0.081   2.481   3.317
 1214SOL     OW 4093   0.560   2.090   3.030
 1214SOL    HW1 4094   0.598   2.011   3.069
 1214SOL    HW2 4095   0.468   2.089   3.057
 1215SOL     OW 4096   0.867   2.320   2.501
 1215SOL    HW1 4097   0.822   2.375   2.437
 1215SOL    HW2 4098   0.889   2.241   2.453
 1216SOL     OW 4099   1.017   1.915   2.611
 1216SOL    HW1 4100   0.958   1.909   2.536
 1216SOL    HW2 4101   0.994   1.841   2.666
 1217SOL     OW 4102   1.439   3.023   2.719
 1217SOL    HW1 4103   1.368   2.959   2.718
 1217SOL    HW2 4104   1.463   3.033   2.627
 1218SOL     OW 4105   1.465   2.470   2.834
 1218SOL    HW1 4106   1.411   2.390   2.837
 1218SOL    HW2 4107   1.523   2.462   2.909
 1219SOL     OW 4108   1.844   2.675   2.246
 1219SOL    HW1 4109   1.902   2.625   2.304
 1219SOL    HW2 4110   1.817   2.613   2.179
 1220SOL     OW 4111   0.491   3.282   2.017
 1220SOL    HW1 4112   0.416   3.255   2.069
 1220SOL    HW2 4113   0.479   3.239   1.933
 1221SOL     OW 4114   1.672   3.125   2.507
 1221SOL    HW1 4115   1.767   3.127   2.521
 1221SOL    HW2 4116   1.644   3.214   2.527
 1222SOL     OW 4117   1.394   2.434   1.933
 1222SOL    HW1 4118   1.332   2.414   2.004
 1222SOL    HW2 4119   1.478   2.403   1.966
 1223SOL     OW 4120   0.524   2.125   2.176
 1223SOL    HW1 4121   0.572   2.079   2.107
 1223SOL    HW2 4122   0.500   2.209   2.137
 1224SOL     OW 4123   1.739   3.110   3.426
 1224SOL    HW1 4124   1.822   3.070   3.401
 1224SOL    HW2 4125   1.763   3.194   3.465
 1225SOL     OW 4126   1.057   3.214   3.194
 1225SOL    HW1 4127   0.982   3.184   3.245
 1225SOL    HW2 4128   1.132   3.174   3.236
 1226SOL     OW 4129   1.609   3.489   3.518
 1226SOL    HW1 4130   1.601   3.522   3.428
 1226SOL    HW2 4131   1.691   3.440   3.519
 1227SOL     OW 4132   1.131   3.067   2.965
 1227SOL    HW1 4133   1.072   3.106   3.030
 1227SOL    HW2 4134   1.100   3.102   2.882
 1228SOL     OW 4135   1.625   2.959   2.939
 1228SOL    HW1 4136   1.620   3.021   3.012
 1228SOL    HW2 4137   1.548   2.977   2.886
 1229SOL     OW 4138   0.919   1.957   3.257
 1229SOL    HW1 4139   0.941   1.939   3.165
 1229SOL    HW2 4140   0.998   1.997   3.293
 1230SOL     OW 4141   0.984   2.977   3.585
 1230SOL    HW1 4142   0.893   2.994   3.607
 1230SOL    HW2 4143   0.982   2.899   3.530
 1231SOL     OW 4144   0.708   2.923   2.234
 1231SOL    HW1 4145   0.696   2.905   2.327
 1231SOL    HW2 4146   0.784   2.870   2.209
 1232SOL     OW 4147   0.421   2.683   3.116
 1232SOL    HW1 4148   0.490   2.690   3.182
 1232SOL    HW2 4149   0.387   2.594   3.125
 1233SOL     OW 4150   1.264   2.238   3.140
 1233SOL    HW1 4151   1.297   2.315   3.185
 1233SOL    HW2 4152   1.173   2.259   3.118
 1234SOL     OW 4153   0.103   3.484   3.227
 1234SOL    HW1 4154   0.082   3.491   3.134
 1234SOL    HW2 4155   0.190   3.444   3.230
 1235SOL     OW 4156   0.341   2.972   2.347
 1235SOL    HW1 4157   0.347   3.051   2.293
 1235SOL    HW2 4158   0.346   2.900   2.284
 1236SOL     OW 4159   0.552   2.396   2.720
 1236SOL    HW1 4160   0.566   2.455   2.646
 1236SOL    HW2 4161   0.618   2.422   2.785
 1237SOL     OW 4162   1.248   3.211   2.252
 1237SOL    HW1 4163   1.303   3.282   2.283
 1237SOL    HW2 4164   1.161   3.232   2.285
 1238SOL     OW 4165   1.285   3.321   3.010
 1238SOL    HW1 4166   1.341   3.326   3.087
 1238SOL    HW2 4167   1.229   3.245   3.025
 1239SOL     OW 4168   1.581   2.483   2.343
 1239SOL    HW1 4169   1.531   2.533   2.409
 1239SOL    HW2 4170   1.624   2.550   2.290
 1240SOL     OW 4171   0.352   3.382   3.171
 1240SOL    HW1 4172   0.341   3.338   3.086
 1240SOL    HW2 4173   0.446   3.399   3.177
 1241SOL     OW 4174   0.416   2.604   3.464
 1241SOL    HW1 4175   0.478   2.649   3.407
 1241SOL    HW2 4176   0.454   2.517   3.477
 1242SOL     OW 4177   1.602   2.637   3.545
 1242SOL    HW1 4178   1.517   2.680   3.541
 1242SOL    HW2 4179   1.655   2.682   3.479
 1243SOL     OW 4180   0.996   1.990   3.617
 1243SOL    HW1 4181   1.054   2.062   3.592
 1243SOL    HW2 4182   1.044   1.911   3.591
 1244SOL     OW 4183   0.496   1.901   3.611
 1244SOL    HW1 4184   0.452   1.849   3.545
 1244SOL    HW2 4185   0.439   1.977   3.625
 1245SOL     OW 4186   0.585   2.737   2.895
 1245SOL    HW1 4187   0.619   2.826   2.896
 1245SOL    HW2 4188   0.529   2.731   2.972
 1246SOL     OW 4189   1.354   2.720   2.888
 1246SOL    HW1 4190   1.269   2.709   2.845
 1246SOL    HW2 4191   1.396   2.635   2.880
 1247SOL     OW 4192   1.202   2.390   2.126
 1247SOL    HW1 4193   1.210   2.312   2.181
 1247SOL    HW2 4194   1.160   2.455   2.183
 1248SOL     OW 4195   0.301   2.065   3.109
 1248SOL    HW1 4196   0.268   2.088   3.196
 1248SOL    HW2 4197   0.290   1.970   3.104
 1249SOL     OW 4198   0.063   3.177   3.141
 1249SOL    HW1 4199   0.090   3.120   3.212
 1249SOL    HW2 4200   5.291   3.229   3.178
 1250SOL     OW 4201   0.722   2.492   2.917
 1250SOL    HW1 4202   0.798   2.478   2.861
 1250SOL    HW2 4203   0.694   2.582   2.898
 1251SOL     OW 4204   1.727   2.825   3.719
 1251SOL    HW1 4205   1.687   2.759   3.662
 1251SOL    HW2 4206   1.665   2.835   3.791
 1252SOL     OW 4207   0.328   1.924   2.495
 1252SOL    HW1 4208   0.308   2.014   2.522
 1252SOL    HW2 4209   0.334   1.875   2.578
 1253SOL     OW 4210   1.619   2.238   2.226
 1253SOL    HW1 4211   1.647   2.174   2.291
 1253SOL    HW2 4212   1.596   2.316   2.277
 1254SOL     OW 4213   1.029   2.620   2.821
 1254SOL    HW1 4214   1.022   2.638   2.915
 1254SOL    HW2 4215   1.002   2.529   2.812
 1255SOL     OW 4216   0.981   3.427   3.581
 1255SOL    HW1 4217   0.966   3.472   3.498
 1255SOL    HW2 4218   1.026   3.346   3.558
 1256SOL     OW 4219   1.854   3.366   3.468
 1256SOL    HW1 4220   1.876   3.394   3.379
 1256SOL    HW2 4221   1.935   3.379   3.518
 1257SOL     OW 4222   0.355   2.780   3.668
 1257SOL    HW1 4223   0.436   2.800   3.716
 1257SOL    HW2 4224   0.381   2.715   3.603
 1258SOL     OW 4225   1.528   2.134   1.989
 1258SOL    HW1 4226   1.463   2.069   2.016
 1258SOL    HW2 4227   1.561   2.170   2.071
 1259SOL     OW 4228   1.289   2.687   1.891
 1259SOL    HW1 4229   1.332   2.602   1.895
 1259SOL    HW2 4230   1.321   2.727   1.810
 1260SOL     OW 4231   1.068   3.199   2.717
 1260SOL    HW1 4232   1.072   3.127   2.654
 1260SOL    HW2 4233   1.127   3.265   2.682
 1261SOL     OW 4234   0.312   2.671   2.812
 1261SOL    HW1 4235   0.406   2.689   2.809
 1261SOL    HW2 4236   0.307   2.580   2.843
 1262SOL     OW 4237   0.334   2.389   2.878
 1262SOL    HW1 4238   0.299   2.301   2.864
 1262SOL    HW2 4239   0.409   2.394   2.819
 1263SOL     OW 4240   1.134   2.236   3.546
 1263SOL    HW1 4241   1.085   2.291   3.608
 1263SOL    HW2 4242   1.221   2.275   3.542
 1264SOL     OW 4243   1.161   2.062   3.333
 1264SOL    HW1 4244   1.150   2.125   3.404
 1264SOL    HW2 4245   1.202   2.113   3.263
 1265SOL     OW 4246   0.004   3.189   2.072
 1265SOL    HW1 4247   5.232   3.176   2.009
 1265SOL    HW2 4248   0.014   3.104   2.115
 1266SOL     OW 4249   0.096   3.643   2.816
 1266SOL    HW1 4250   0.061   3.576   2.758
 1266SOL    HW2 4251   0.183   3.663   2.780
 1267SOL     OW 4252   0.504   3.436   2.770
 1267SOL    HW1 4253   0.571   3.501   2.790
 1267SOL    HW2 4254   0.547   3.376   2.709
 1268SOL     OW 4255   0.979   2.651   3.087
 1268SOL    HW1 4256   1.037   2.631   3.160
 1268SOL    HW2 4257   0.894   2.614   3.112
 1269SOL     OW 4258   0.031   2.429   2.980
 1269SOL    HW1 4259   0.117   2.404   2.945
 1269SOL    HW2 4260   0.036   2.407   3.073
 1270SOL     OW 4261   0.172   2.376   3.574
 1270SOL    HW1 4262   0.235   2.335   3.515
 1270SOL    HW2 4263   0.147   2.458   3.531
 1271SOL     OW 4264   1.379   2.798   3.520
 1271SOL    HW1 4265   1.401   2.891   3.518
 1271SOL    HW2 4266   1.376   2.772   3.428
 1272SOL     OW 4267   0.817   2.431   2.226
 1272SOL    HW1 4268   0.822   2.357   2.165
 1272SOL    HW2 4269   0.743   2.483   2.194
 1273SOL     OW 4270   1.640   2.463   3.043
 1273SOL    HW1 4271   1.629   2.404   3.118
 1273SOL    HW2 4272   1.727   2.442   3.009
 1274SOL     OW 4273   0.255   3.417   3.595
 1274SOL    HW1 4274   0.235   3.481   3.664
 1274SOL    HW2 4275   0.251   3.332   3.639
 1275SOL     OW 4276   0.707   2.310   3.119
 1275SOL    HW1 4277   0.652   2.236   3.091
 1275SOL    HW2 4278   0.700   2.373   3.047
 1276SOL     OW 4279   0.926   3.541   3.331
 1276SOL    HW1 4280   0.900   3.504   3.247
 1276SOL    HW2 4281   0.920   3.635   3.319
 1277SOL     OW 4282   0.464   2.355   2.044
 1277SOL    HW1 4283   0.524   2.425   2.069
 1277SOL    HW2 4284   0.380   2.399   2.030
 1278SOL     OW 4285   0.147   2.999   3.332
 1278SOL    HW1 4286   0.143   2.952   3.416
 1278SOL    HW2 4287   0.157   2.930   3.267
 1279SOL     OW 4288   1.323   2.907   3.083
 1279SOL    HW1 4289   1.346   2.844   3.015
 1279SOL    HW2 4290   1.255   2.961   3.044
 1280SOL     OW 4291   1.314   2.718   2.167
 1280SOL    HW1 4292   1.239   2.689   2.218
 1280SOL    HW2 4293   1.288   2.705   2.076
 1281SOL     OW 4294   1.774   3.604   3.014
 1281SOL    HW1 4295   1.835   3.630   2.945
 1281SOL    HW2 4296   1.750   3.514   2.992
 1282SOL     OW 4297   1.240   3.595   2.971
 1282SOL    HW1 4298   1.323   3.617   2.928
 1282SOL    HW2 4299   1.248   3.502   2.991
 1283SOL     OW 4300   0.082   3.073   2.889
 1283SOL    HW1 4301   0.070   3.100   2.980
 1283SOL    HW2 4302   5.293   3.064   2.854
 1284SOL     OW 4303   0.678   3.530   3.596
 1284SOL    HW1 4304   0.620   3.606   3.588
 1284SOL    HW2 4305   0.744   3.543   3.528
 1285SOL     OW 4306   1.721   2.012   2.369
 1285SOL    HW1 4307   1.792   1.997   2.308
 1285SOL    HW2 4308   1.705   1.927   2.410
 1286SOL     OW 4309   1.391   3.430   2.349
 1286SOL    HW1 4310   1.451   3.463   2.282
 1286SOL    HW2 4311   1.342   3.506   2.378
 1287SOL     OW 4312   0.148   3.660   3.704
 1287SOL    HW1 4313   0.093   3.597   3.752
 1287SOL    HW2 4314   0.196   3.706   3.773
 1288SOL     OW 4315   1.277   2.788   2.533
 1288SOL    HW1 4316   1.351   2.728   2.541
 1288SOL    HW2 4317   1.311   2.861   2.480
 1289SOL     OW 4318   0.810   3.136   3.290
 1289SOL    HW1 4319   0.782   3.177   3.372
 1289SOL    HW2 4320   0.741   3.157   3.227
 1290SOL     OW 4321   0.672   3.484   2.016
 1290SOL    HW1 4322   0.683   3.498   1.922
 1290SOL    HW2 4323   0.616   3.406   2.023
 1291SOL     OW 4324   1.622   3.589   3.252
 1291SOL    HW1 4325   1.674   3.595   3.173
 1291SOL    HW2 4326   1.608   3.680   3.279
 1292SOL     OW 4327   1.843   2.035   2.829
 1292SOL    HW1 4328   1.872   1.947   2.803
 1292SOL    HW2 4329   1.757   2.045   2.789
 1293SOL     OW 4330   0.273   2.178   2.579
 1293SOL    HW1 4331   0.188   2.217   2.560
 1293SOL    HW2 4332   0.275   2.168   2.674
 1294SOL     OW 4333   1.208   3.466   1.894
 1294SOL    HW1 4334   1.197   3.375   1.920
 1294SOL    HW2 4335   1.143   3.479   1.826
 1295SOL     OW 4336   0.824   2.868   3.235
 1295SOL    HW1 4337   0.868   2.863   3.150
 1295SOL    HW2 4338   0.822   2.961   3.256
 1296SOL     OW 4339   0.915   2.772   2.152
 1296SOL    HW1 4340   0.976   2.805   2.086
 1296SOL    HW2 4341   0.965   2.704   2.198
 1297SOL     OW 4342   1.490   3.488   1.905
 1297SOL    HW1 4343   1.396   3.480   1.891
 1297SOL    HW2 4344   1.528   3.494   1.818
 1298SOL     OW 4345   0.367   3.166   3.355
 1298SOL    HW1 4346   0.359   3.240   3.295
 1298SOL    HW2 4347   0.291   3.111   3.336
 1299SOL     OW 4348   1.608   3.145   3.143
 1299SOL    HW1 4349   1.665   3.131   3.220
 1299SOL    HW2 4350   1.548   3.214   3.170
 1300SOL     OW 4351   1.056   2.970   2.570
 1300SOL    HW1 4352   0.985   2.920   2.608
 1300SOL    HW2 4353   1.120   2.905   2.541
 1301SOL     OW 4354   1.023   2.103   2.828
 1301SOL    HW1 4355   1.018   2.056   2.745
 1301SOL    HW2 4356   1.017   2.035   2.895
 1302SOL     OW 4357   0.602   3.349   2.342
 1302SOL    HW1 4358   0.650   3.301   2.275
 1302SOL    HW2 4359   0.534   3.396   2.295
 1303SOL     OW 4360   1.721   2.251   3.243
 1303SOL    HW1 4361   1.789   2.318   3.238
 1303SOL    HW2 4362   1.752   2.180   3.186
 1304SOL     OW 4363   0.262   3.210   2.157
 1304SOL    HW1 4364   0.169   3.211   2.133
 1304SOL    HW2 4365   0.264   3.248   2.245
 1305SOL     OW 4366   0.118   2.878   3.578
 1305SOL    HW1 4367   0.048   2.844   3.634
 1305SOL    HW2 4368   0.198   2.848   3.620
 1306SOL     OW 4369   0.675   2.057   3.362
 1306SOL    HW1 4370   0.759   2.037   3.321
 1306SOL    HW2 4371   0.698   2.090   3.449
 1307SOL     OW 4372   0.086   2.206   1.902
 1307SOL    HW1 4373   0.004   2.161   1.880
 1307SOL    HW2 4374   0.100   2.267   1.830
 1308SOL     OW 4375   1.428   2.719   3.260
 1308SOL    HW1 4376   1.379   2.781   3.205
 1308SOL    HW2 4377   1.517   2.723   3.228
 1309SOL     OW 4378   0.058   1.995   2.108
 1309SOL    HW1 4379   0.056   2.089   2.090
 1309SOL    HW2 4380   0.145   1.967   2.082
 1310SOL     OW 4381   1.179   3.199   1.979
 1310SOL    HW1 4382   1.088   3.170   1.981
 1310SOL    HW2 4383   1.205   3.200   2.071
 1311SOL     OW 4384   0.620   2.693   3.298
 1311SOL    HW1 4385   0.677   2.768   3.283
 1311SOL    HW2 4386   0.680   2.619   3.306
 1312SOL     OW 4387   1.483   3.642   2.843
 1312SOL    HW1 4388   1.506   3.704   2.774
 1312SOL    HW2 4389   1.567   3.620   2.884
 1313SOL     OW 4390   0.717   2.425   3.565
 1313SOL    HW1 4391   0.761   2.486   3.624
 1313SOL    HW2 4392   0.741   2.338   3.598
 1314SOL     OW 4393   1.470   3.059   3.492
 1314SOL    HW1 4394   1.460   3.073   3.587
 1314SOL    HW2 4395   1.563   3.077   3.475
 1315SOL     OW 4396   0.374   3.606   3.427
 1315SOL    HW1 4397   0.292   3.652   3.409
 1315SOL    HW2 4398   0.348   3.526   3.472
 1316SOL     OW 4399   1.670   2.742   3.115
 1316SOL    HW1 4400   1.659   2.657   3.071
 1316SOL    HW2 4401   1.657   2.807   3.045
 1317SOL     OW 4402   1.216   2.181   2.319
 1317SOL    HW1 4403   1.279   2.109   2.312
 1317SOL    HW2 4404   1.245   2.230   2.396
 1318SOL     OW 4405   0.589   2.597   2.532
 1318SOL    HW1 4406   0.628   2.684   2.518
 1318SOL    HW2 4407   0.520   2.590   2.466
 1319SOL     OW 4408   1.764   2.225   3.514
 1319SOL    HW1 4409   1.745   2.240   3.421
 1319SOL    HW2 4410   1.693   2.168   3.544
 1320SOL     OW 4411   1.742   2.788   3.373
 1320SOL    HW1 4412   1.748   2.881   3.391
 1320SOL    HW2 4413   1.729   2.782   3.279
 1321SOL     OW 4414   0.863   3.228   1.900
 1321SOL    HW1 4415   0.825   3.257   1.983
 1321SOL    HW2 4416   0.880   3.309   1.851
 1322SOL     OW 4417   0.665   3.653   2.802
 1322SOL    HW1 4418   0.645   3.744   2.781
 1322SOL    HW2 4419   0.760   3.648   2.797
 1323SOL     OW 4420   0.869   2.830   2.715
 1323SOL    HW1 4421   0.919   2.758   2.754
 1323SOL    HW2 4422   0.832   2.877   2.790
 1324SOL     OW 4423   1.077   2.849   1.951
 1324SOL    HW1 4424   1.056   2.901   1.873
 1324SOL    HW2 4425   1.152   2.796   1.924
 1325SOL     OW 4426   1.851   3.415   2.705
 1325SOL    HW1 4427   1.772   3.404   2.652
 1325SOL    HW2 4428   1.843   3.351   2.775
 1326SOL     OW 4429   0.227   3.165   3.723
 1326SOL    HW1 4430   0.159   3.103   3.697
 1326SOL    HW2 4431   0.215   3.175   3.818
 1327SOL     OW 4432   0.089   3.076   2.516
 1327SOL    HW1 4433   0.106   3.047   2.605
 1327SOL    HW2 4434   0.176   3.085   2.477
 1328SOL     OW 4435   0.682   3.266   3.492
 1328SOL    HW1 4436   0.602   3.225   3.523
 1328SOL    HW2 4437   0.679   3.355   3.528
 1329SOL     OW 4438   1.814   2.045   3.099
 1329SOL    HW1 4439   1.820   1.951   3.112
 1329SOL    HW2 4440   1.824   2.057   3.005
 1330SOL     OW 4441   0.436   2.298   2.386
 1330SOL    HW1 4442   0.464   2.225   2.330
 1330SOL    HW2 4443   0.388   2.256   2.457
 1331SOL     OW 4444   1.700   3.350   2.955
 1331SOL    HW1 4445   1.619   3.327   2.909
 1331SOL    HW2 4446   1.711   3.281   3.020
 1332SOL     OW 4447   0.339   2.424   3.154
 1332SOL    HW1 4448   0.392   2.365   3.208
 1332SOL    HW2 4449   0.352   2.393   3.064
 1333SOL     OW 4450   0.831   3.439   2.538
 1333SOL    HW1 4451   0.813   3.501   2.467
 1333SOL    HW2 4452   0.755   3.381   2.539
 1334SOL     OW 4453   1.431   2.089   2.980
 1334SOL    HW1 4454   1.451   2.006   3.023
 1334SOL    HW2 4455   1.380   2.138   3.044
 1335SOL     OW 4456   1.009   1.879   3.001
 1335SOL    HW1 4457   0.955   1.813   2.960
 1335SOL    HW2 4458   1.097   1.841   3.003
 1336SOL     OW 4459   0.773   3.195   2.180
 1336SOL    HW1 4460   0.745   3.104   2.187
 1336SOL    HW2 4461   0.854   3.199   2.230
 1337SOL     OW 4462   0.623   3.417   3.150
 1337SOL    HW1 4463   0.624   3.499   3.199
 1337SOL    HW2 4464   0.711   3.412   3.111
 1338SOL     OW 4465   1.354   1.915   2.030
 1338SOL    HW1 4466   1.384   1.848   1.968
 1338SOL    HW2 4467   1.266   1.887   2.054
 1339SOL     OW 4468   1.296   2.324   2.541
 1339SOL    HW1 4469   1.244   2.404   2.547
 1339SOL    HW2 4470   1.291   2.286   2.629
 1340SOL     OW 4471   1.587   2.062   2.742
 1340SOL    HW1 4472   1.528   2.084   2.814
 1340SOL    HW2 4473   1.586   2.139   2.686
 1341SOL     OW 4474   0.049   2.929   2.152
 1341SOL    HW1 4475   0.138   2.895   2.141
 1341SOL    HW2 4476   5.299   2.856   2.189
 1342SOL     OW 4477   0.888   3.517   2.201
 1342SOL    HW1 4478   0.814   3.502   2.143
 1342SOL    HW2 4479   0.861   3.591   2.256
 1343SOL     OW 4480   0.232   2.491   3.841
 1343SOL    HW1 4481   0.162   2.453   3.894
 1343SOL    HW2 4482   0.215   2.461   3.752
 1344SOL     OW 4483   0.244   2.137   4.712
 1344SOL    HW1 4484   0.257   2.102   4.800
 1344SOL    HW2 4485   0.159   2.103   4.685
 1345SOL     OW 4486   5.297   2.262   4.378
 1345SOL    HW1 4487   5.204   2.284   4.382
 1345SOL    HW2 4488   5.300   2.173   4.344
 1346SOL     OW 4489   0.577   3.151   4.911
 1346SOL    HW1 4490   0.495   3.158   4.863
 1346SOL    HW2 4491   0.592   3.239   4.945
 1347SOL     OW 4492   1.563   3.376   4.431
 1347SOL    HW1 4493   1.521   3.354   4.514
 1347SOL    HW2 4494   1.491   3.380   4.368
 1348SOL     OW 4495   1.131   2.560   4.422
 1348SOL    HW1 4496   1.180   2.642   4.409
 1348SOL    HW2 4497   1.085   2.573   4.505
 1349SOL     OW 4498   1.749   2.467   3.958
 1349SOL    HW1 4499   1.744   2.463   3.863
 1349SOL    HW2 4500   1.724   2.380   3.987
 1350SOL     OW 4501   0.752   3.000   4.766
 1350SOL    HW1 4502   0.687   3.036   4.827
 1350SOL    HW2 4503   0.789   3.077   4.722
 1351SOL     OW 4504   0.871   2.631   5.547
 1351SOL    HW1 4505   0.861   2.702   5.610
 1351SOL    HW2 4506   0.893   2.675   5.465
 1352SOL     OW 4507   0.685   2.861   4.370
 1352SOL    HW1 4508   0.752   2.851   4.438
 1352SOL    HW2 4509   0.618   2.916   4.410
 1353SOL     OW 4510   0.711   3.012   5.540
 1353SOL    HW1 4511   0.760   3.089   5.568
 1353SOL    HW2 4512   0.631   3.047   5.502
 1354SOL     OW 4513   0.359   3.265   4.784
 1354SOL    HW1 4514   0.270   3.266   4.750
 1354SOL    HW2 4515   0.407   3.327   4.729
 1355SOL     OW 4516   1.460   3.360   5.082
 1355SOL    HW1 4517   1.514   3.439   5.088
 1355SOL    HW2 4518   1.395   3.369   5.151
 1356SOL     OW 4519   0.452   2.261   5.213
 1356SOL    HW1 4520   0.526   2.201   5.216
 1356SOL    HW2 4521   0.375   2.205   5.225
 1357SOL     OW 4522   1.608   2.305   4.464
 1357SOL    HW1 4523   1.536   2.323   4.404
 1357SOL    HW2 4524   1.633   2.391   4.498
 1358SOL     OW 4525   0.235   3.575   4.201
 1358SOL    HW1 4526   0.264   3.646   4.259
 1358SOL    HW2 4527   0.298   3.574   4.130
 1359SOL     OW 4528   1.137   3.204   5.418
 1359SOL    HW1 4529   1.178   3.198   5.504
 1359SOL    HW2 4530   1.085   3.124   5.410
 1360SOL     OW 4531   0.221   3.309   4.265
 1360SOL    HW1 4532   0.220   3.404   4.256
 1360SOL    HW2 4533   0.150   3.290   4.327
 1361SOL     OW 4534   0.252   2.938   4.597
 1361SOL    HW1 4535   0.263   2.851   4.637
 1361SOL    HW2 4536   0.199   2.987   4.660
 1362SOL     OW 4537   0.610   3.652   5.156
 1362SOL    HW1 4538   0.526   3.635   5.199
 1362SOL    HW2 4539   0.632   3.742   5.179
 1363SOL     OW 4540   0.580   2.847   3.861
 1363SOL    HW1 4541   0.628   2.892   3.792
 1363SOL    HW2 4542   0.620   2.877   3.943
 1364SOL     OW 4543   1.596   1.986   5.191
 1364SOL    HW1 4544   1.607   2.067   5.141
 1364SOL    HW2 4545   1.580   2.016   5.281
 1365SOL     OW 4546   0.127   2.494   4.305
 1365SOL    HW1 4547   0.089   2.411   4.335
 1365SOL    HW2 4548   0.099   2.558   4.371
 1366SOL     OW 4549   1.842   3.620   4.058
 1366SOL    HW1 4550   1.909   3.592   4.120
 1366SOL    HW2 4551   1.864   3.711   4.038
 1367SOL     OW 4552   0.039   3.461   3.858
 1367SOL    HW1 4553   0.026   3.370   3.883
 1367SOL    HW2 4554   5.280   3.511   3.915
 1368SOL     OW 4555   1.701   2.781   4.366
 1368SOL    HW1 4556   1.758   2.720   4.319
 1368SOL    HW2 4557   1.667   2.839   4.298
 1369SOL     OW 4558   1.642   2.968   4.156
 1369SOL    HW1 4559   1.727   2.970   4.112
 1369SOL    HW2 4560   1.649   3.034   4.225
 1370SOL     OW 4561   0.134   2.611   5.307
 1370SOL    HW1 4562   0.229   2.625   5.306
 1370SOL    HW2 4563   0.098   2.698   5.326
 1371SOL     OW 4564   0.617   3.250   4.458
 1371SOL    HW1 4565   0.570   3.167   4.468
 1371SOL    HW2 4566   0.599   3.277   4.368
 1372SOL     OW 4567   1.286   3.098   5.147
 1372SOL    HW1 4568   1.318   3.031   5.087
 1372SOL    HW2 4569   1.346   3.093   5.222
 1373SOL     OW 4570   0.826   1.863   4.236
 1373SOL    HW1 4571   0.866   1.947   4.214
 1373SOL    HW2 4572   0.732   1.882   4.241
 1374SOL     OW 4573   0.173   2.803   5.004
 1374SOL    HW1 4574   0.263   2.773   4.997
 1374SOL    HW2 4575   0.135   2.787   4.918
 1375SOL     OW 4576   1.527   2.858   3.924
 1375SOL    HW1 4577   1.459   2.801   3.959
 1375SOL    HW2 4578   1.571   2.892   4.002
 1376SOL     OW 4579   1.185   3.671   5.348
 1376SOL    HW1 4580   1.192   3.731   5.274
 1376SOL    HW2 4581   1.202   3.585   5.311
 1377SOL     OW 4582   0.342   2.116   5.548
 1377SOL    HW1 4583   0.387   2.199   5.562
 1377SOL    HW2 4584   0.253   2.132   5.579
 1378SOL     OW 4585   1.464   3.283   4.671
 1378SOL    HW1 4586   1.398   3.297   4.738
 1378SOL    HW2 4587   1.454   3.191   4.647
 1379SOL     OW 4588   1.655   3.609   4.302
 1379SOL    HW1 4589   1.639   3.577   4.214
 1379SOL    HW2 4590   1.634   3.534   4.359
 1380SOL     OW 4591   0.595   2.581   3.992
 1380SOL    HW1 4592   0.602   2.663   3.943
 1380SOL    HW2 4593   0.530   2.600   4.060
 1381SOL     OW 4594   1.279   2.221   4.658
 1381SOL    HW1 4595   1.190   2.187   4.666
 1381SOL    HW2 4596   1.330   2.167   4.718
 1382SOL     OW 4597   1.579   3.534   4.034
 1382SOL    HW1 4598   1.670   3.562   4.026
 1382SOL    HW2 4599   1.552   3.516   3.944
 1383SOL     OW 4600   0.792   2.479   5.174
 1383SOL    HW1 4601   0.765   2.455   5.262
 1383SOL    HW2 4602   0.754   2.412   5.117
 1384SOL     OW 4603   1.393   2.336   5.402
 1384SOL    HW1 4604   1.396   2.381   5.486
 1384SOL    HW2 4605   1.452   2.261   5.412
 1385SOL     OW 4606   0.952   2.748   5.308
 1385SOL    HW1 4607   1.007   2.679   5.271
 1385SOL    HW2 4608   0.904   2.784   5.233
 1386SOL     OW 4609   0.993   2.273   4.961
 1386SOL    HW1 4610   0.905   2.292   4.994
 1386SOL    HW2 4611   0.978   2.229   4.877
 1387SOL     OW 4612   1.052   2.560   4.149
 1387SOL    HW1 4613   1.069   2.554   4.243
 1387SOL    HW2 4614   0.969   2.514   4.137
 1388SOL     OW 4615   0.069   2.651   4.534
 1388SOL    HW1 4616   0.149   2.655   4.586
 1388SOL    HW2 4617   0.069   2.732   4.483
 1389SOL     OW 4618   0.127   3.749   5.310
 1389SOL    HW1 4619   0.132   3.723   5.402
 1389SOL    HW2 4620   0.060   3.691   5.272
 1390SOL     OW 4621   0.897   2.212   3.919
 1390SOL    HW1 4622   0.936   2.275   3.858
 1390SOL    HW2 4623   0.911   2.127   3.877
 1391SOL     OW 4624   1.707   2.435   5.552
 1391SOL    HW1 4625   1.670   2.508   5.504
 1391SOL    HW2 4626   1.735   2.373   5.485
 1392SOL     OW 4627   1.377   3.003   4.263
 1392SOL    HW1 4628   1.457   2.992   4.212
 1392SOL    HW2 4629   1.325   3.066   4.214
 1393SOL     OW 4630   0.558   2.044   4.619
 1393SOL    HW1 4631   0.555   2.073   4.710
 1393SOL    HW2 4632   0.552   2.125   4.568
 1394SOL     OW 4633   1.002   3.305   4.194
 1394SOL    HW1 4634   0.969   3.379   4.145
 1394SOL    HW2 4635   0.982   3.326   4.286
 1395SOL     OW 4636   0.358   3.667   4.595
 1395SOL    HW1 4637   0.398   3.581   4.608
 1395SOL    HW2 4638   0.424   3.729   4.627
 1396SOL     OW 4639   1.808   2.942   4.582
 1396SOL    HW1 4640   1.761   2.894   4.515
 1396SOL    HW2 4641   1.751   2.939   4.659
 1397SOL     OW 4642   1.228   3.401   5.237
 1397SOL    HW1 4643   1.214   3.328   5.298
 1397SOL    HW2 4644   1.163   3.388   5.169
 1398SOL     OW 4645   0.314   2.814   3.973
 1398SOL    HW1 4646   0.395   2.838   3.929
 1398SOL    HW2 4647   0.292   2.727   3.939
 1399SOL     OW 4648   1.482   2.611   4.451
 1399SOL    HW1 4649   1.473   2.566   4.535
 1399SOL    HW2 4650   1.561   2.664   4.460
 1400SOL     OW 4651   0.467   3.128   5.462
 1400SOL    HW1 4652   0.440   3.133   5.370
 1400SOL    HW2 4653   0.384   3.128   5.511
 1401SOL     OW 4654   1.123   3.640   3.954
 1401SOL    HW1 4655   1.049   3.599   3.998
 1401SOL    HW2 4656   1.147   3.578   3.885
 1402SOL     OW 4657   0.206   2.139   5.221
 1402SOL    HW1 4658   0.128   2.191   5.204
 1402SOL    HW2 4659   0.172   2.058   5.260
 1403SOL     OW 4660   1.625   3.244   3.810
 1403SOL    HW1 4661   1.582   3.328   3.795
 1403SOL    HW2 4662   1.557   3.179   3.790
 1404SOL     OW 4663   0.471   3.597   4.042
 1404SOL    HW1 4664   0.515   3.654   4.105
 1404SOL    HW2 4665   0.541   3.564   3.986
 1405SOL     OW 4666   1.400   1.968   4.160
 1405SOL    HW1 4667   1.391   1.944   4.068
 1405SOL    HW2 4668   1.495   1.977   4.173
 1406SOL     OW 4669   0.277   3.663   4.932
 1406SOL    HW1 4670   0.307   3.583   4.976
 1406SOL    HW2 4671   0.223   3.632   4.859
 1407SOL     OW 4672   0.940   3.561   4.622
 1407SOL    HW1 4673   1.019   3.511   4.642
 1407SOL    HW2 4674   0.897   3.511   4.553
 1408SOL     OW 4675   0.386   2.557   4.202
 1408SOL    HW1 4676   0.415   2.467   4.212
 1408SOL    HW2 4677   0.293   2.554   4.223
 1409SOL     OW 4678   1.532   2.087   5.449
 1409SOL    HW1 4679   1.542   2.108   5.542
 1409SOL    HW2 4680   1.464   2.021   5.446
 1410SOL     OW 4681   0.638   1.982   3.828
 1410SOL    HW1 4682   0.704   1.914   3.842
 1410SOL    HW2 4683   0.588   1.952   3.752
 1411SOL     OW 4684   0.765   2.141   5.479
 1411SOL    HW1 4685   0.843   2.085   5.478
 1411SOL    HW2 4686   0.718   2.113   5.558
 1412SOL     OW 4687   0.877   3.384   4.918
 1412SOL    HW1 4688   0.860   3.348   4.831
 1412SOL    HW2 4689   0.947   3.330   4.953
 1413SOL     OW 4690   1.342   2.451   5.155
 1413SOL    HW1 4691   1.371   2.421   5.241
 1413SOL    HW2 4692   1.375   2.540   5.148
 1414SOL     OW 4693   0.817   3.253   4.667
 1414SOL    HW1 4694   0.902   3.242   4.624
 1414SOL    HW2 4695   0.754   3.258   4.595
 1415SOL     OW 4696   0.929   2.371   4.626
 1415SOL    HW1 4697   0.904   2.363   4.533
 1415SOL    HW2 4698   0.959   2.284   4.650
 1416SOL     OW 4699   0.562   1.923   4.218
 1416SOL    HW1 4700   0.487   1.923   4.277
 1416SOL    HW2 4701   0.551   2.002   4.165
 1417SOL     OW 4702   1.426   3.061   3.764
 1417SOL    HW1 4703   1.457   2.986   3.815
 1417SOL    HW2 4704   1.341   3.083   3.803
 1418SOL     OW 4705   0.306   1.909   3.901
 1418SOL    HW1 4706   0.368   1.973   3.867
 1418SOL    HW2 4707   0.361   1.845   3.948
 1419SOL     OW 4708   0.942   2.111   4.181
 1419SOL    HW1 4709   0.916   2.151   4.098
 1419SOL    HW2 4710   1.036   2.126   4.187
 1420SOL     OW 4711   1.080   2.544   5.183
 1420SOL    HW1 4712   1.012   2.477   5.186
 1420SOL    HW2 4713   1.162   2.494   5.176
 1421SOL     OW 4714   1.221   3.433   4.518
 1421SOL    HW1 4715   1.236   3.499   4.451
 1421SOL    HW2 4716   1.291   3.447   4.582
 1422SOL     OW 4717   0.469   3.014   4.452
 1422SOL    HW1 4718   0.401   2.992   4.515
 1422SOL    HW2 4719   0.428   2.997   4.367
 1423SOL     OW 4720   1.267   3.655   4.334
 1423SOL    HW1 4721   1.314   3.716   4.278
 1423SOL    HW2 4722   1.199   3.708   4.376
 1424SOL     OW 4723   1.023   2.400   3.749
 1424SOL    HW1 4724   0.980   2.484   3.729
 1424SOL    HW2 4725   1.088   2.422   3.815
 1425SOL     OW 4726   0.091   2.404   5.124
 1425SOL    HW1 4727   0.178   2.412   5.086
 1425SOL    HW2 4728   0.081   2.481   5.179
 1426SOL     OW 4729   0.560   2.090   4.892
 1426SOL    HW1 4730   0.598   2.011   4.931
 1426SOL    HW2 4731   0.468   2.089   4.919
 1427SOL     OW 4732   0.867   2.320   4.363
 1427SOL    HW1 4733   0.822   2.375   4.299
 1427SOL    HW2 4734   0.889   2.241   4.315
 1428SOL     OW 4735   1.016   1.916   4.474
 1428SOL    HW1 4736   0.958   1.909   4.398
 1428SOL    HW2 4737   0.994   1.841   4.528
 1429SOL     OW 4738   1.440   3.023   4.582
 1429SOL    HW1 4739   1.368   2.960   4.578
 1429SOL    HW2 4740   1.467   3.034   4.491
 1430SOL     OW 4741   1.464   2.471   4.700
 1430SOL    HW1 4742   1.413   2.390   4.698
 1430SOL    HW2 4743   1.525   2.460   4.773
 1431SOL     OW 4744   1.834   2.681   4.106
 1431SOL    HW1 4745   1.881   2.626   4.168
 1431SOL    HW2 4746   1.808   2.622   4.036
 1432SOL     OW 4747   0.491   3.282   3.879
 1432SOL    HW1 4748   0.416   3.255   3.931
 1432SOL    HW2 4749   0.479   3.238   3.795
 1433SOL     OW 4750   1.667   3.131   4.366
 1433SOL    HW1 4751   1.761   3.135   4.383
 1433SOL    HW2 4752   1.635   3.219   4.388
 1434SOL     OW 4753   1.395   2.434   3.796
 1434SOL    HW1 4754   1.332   2.414   3.865
 1434SOL    HW2 4755   1.480   2.409   3.832
 1435SOL     OW 4756   0.524   2.125   4.038
 1435SOL    HW1 4757   0.572   2.079   3.969
 1435SOL    HW2 4758   0.500   2.209   3.999
 1436SOL     OW 4759   1.749   3.105   5.291
 1436SOL    HW1 4760   1.837   3.066   5.285
 1436SOL    HW2 4761   1.765   3.195   5.321
 1437SOL     OW 4762   1.057   3.215   5.056
 1437SOL    HW1 4763   0.981   3.184   5.107
 1437SOL    HW2 4764   1.132   3.173   5.098
 1438SOL     OW 4765   1.609   3.488   5.380
 1438SOL    HW1 4766   1.601   3.522   5.291
 1438SOL    HW2 4767   1.692   3.440   5.380
 1439SOL     OW 4768   1.131   3.067   4.828
 1439SOL    HW1 4769   1.072   3.106   4.892
 1439SOL    HW2 4770   1.101   3.102   4.744
 1440SOL     OW 4771   1.628   2.955   4.799
 1440SOL    HW1 4772   1.624   3.020   4.870
 1440SOL    HW2 4773   1.553   2.975   4.743
 1441SOL     OW 4774   0.919   1.957   5.119
 1441SOL    HW1 4775   0.941   1.939   5.027
 1441SOL    HW2 4776   0.998   1.997   5.155
 1442SOL     OW 4777   0.984   2.977   5.447
 1442SOL    HW1 4778   0.893   2.994   5.469
 1442SOL    HW2 4779   0.982   2.899   5.392
 1443SOL     OW 4780   0.708   2.923   4.096
 1443SOL    HW1 4781   0.696   2.905   4.189
 1443SOL    HW2 4782   0.784   2.870   4.071
 1444SOL     OW 4783   0.421   2.684   4.978
 1444SOL    HW1 4784   0.490   2.690   5.044
 1444SOL    HW2 4785   0.387   2.594   4.987
 1445SOL     OW 4786   1.264   2.237   5.002
 1445SOL    HW1 4787   1.297   2.315   5.047
 1445SOL    HW2 4788   1.174   2.259   4.980
 1446SOL     OW 4789   0.103   3.484   5.089
 1446SOL    HW1 4790   0.082   3.491   4.996
 1446SOL    HW2 4791   0.190   3.444   5.092
 1447SOL     OW 4792   0.341   2.972   4.209
 1447SOL    HW1 4793   0.347   3.051   4.155
 1447SOL    HW2 4794   0.346   2.900   4.146
 1448SOL     OW 4795   0.552   2.396   4.583
 1448SOL    HW1 4796   0.566   2.455   4.509
 1448SOL    HW2 4797   0.618   2.422   4.647
 1449SOL     OW 4798   1.247   3.211   4.114
 1449SOL    HW1 4799   1.303   3.282   4.144
 1449SOL    HW2 4800   1.160   3.232   4.148
 1450SOL     OW 4801   1.285   3.321   4.872
 1450SOL    HW1 4802   1.342   3.325   4.949
 1450SOL    HW2 4803   1.229   3.245   4.887
 1451SOL     OW 4804   1.571   2.475   4.206
 1451SOL    HW1 4805   1.528   2.536   4.266
 1451SOL    HW2 4806   1.625   2.531   4.149
 1452SOL     OW 4807   0.352   3.382   5.033
 1452SOL    HW1 4808   0.341   3.338   4.949
 1452SOL    HW2 4809   0.446   3.399   5.039
 1453SOL     OW 4810   0.416   2.604   5.326
 1453SOL    HW1 4811   0.478   2.649   5.269
 1453SOL    HW2 4812   0.454   2.517   5.339
 1454SOL     OW 4813   1.604   2.641   5.408
 1454SOL    HW1 4814   1.518   2.683   5.402
 1454SOL    HW2 4815   1.656   2.684   5.340
 1455SOL     OW 4816   0.996   1.990   5.479
 1455SOL    HW1 4817   1.054   2.062   5.454
 1455SOL    HW2 4818   1.044   1.911   5.453
 1456SOL     OW 4819   0.496   1.901   5.473
 1456SOL    HW1 4820   0.452   1.849   5.407
 1456SOL    HW2 4821   0.439   1.977   5.487
 1457SOL     OW 4822   0.585   2.737   4.757
 1457SOL    HW1 4823   0.619   2.826   4.757
 1457SOL    HW2 4824   0.529   2.732   4.834
 1458SOL     OW 4825   1.353   2.720   4.751
 1458SOL    HW1 4826   1.269   2.710   4.707
 1458SOL    HW2 4827   1.395   2.634   4.742
 1459SOL     OW 4828   1.202   2.390   3.988
 1459SOL    HW1 4829   1.211   2.312   4.043
 1459SOL    HW2 4830   1.160   2.454   4.044
 1460SOL     OW 4831   0.301   2.064   4.971
 1460SOL    HW1 4832   0.268   2.088   5.058
 1460SOL    HW2 4833   0.290   1.970   4.966
 1461SOL     OW 4834   0.063   3.177   5.003
 1461SOL    HW1 4835   0.090   3.119   5.074
 1461SOL    HW2 4836   5.291   3.229   5.040
 1462SOL     OW 4837   0.722   2.492   4.780
 1462SOL    HW1 4838   0.798   2.478   4.723
 1462SOL    HW2 4839   0.694   2.582   4.760
 1463SOL     OW 4840   1.736   2.820   5.580
 1463SOL    HW1 4841   1.690   2.756   5.525
 1463SOL    HW2 4842   1.676   2.837   5.652
 1464SOL     OW 4843   0.328   1.924   4.357
 1464SOL    HW1 4844   0.308   2.014   4.384
 1464SOL    HW2 4845   0.334   1.875   4.440
 1465SOL     OW 4846   1.617   2.234   4.089
 1465SOL    HW1 4847   1.648   2.173   4.155
 1465SOL    HW2 4848   1.592   2.312   4.138
 1466SOL     OW 4849   1.028   2.621   4.683
 1466SOL    HW1 4850   1.022   2.638   4.777
 1466SOL    HW2 4851   1.002   2.529   4.674
 1467SOL     OW 4852   0.981   3.428   5.443
 1467SOL    HW1 4853   0.966   3.472   5.360
 1467SOL    HW2 4854   1.026   3.346   5.419
 1468SOL     OW 4855   1.853   3.365   5.329
 1468SOL    HW1 4856   1.873   3.391   5.239
 1468SOL    HW2 4857   1.935   3.382   5.376
 1469SOL     OW 4858   0.355   2.780   5.530
 1469SOL    HW1 4859   0.436   2.800   5.578
 1469SOL    HW2 4860   0.381   2.715   5.465
 1470SOL     OW 4861   1.528   2.133   3.850
 1470SOL    HW1 4862   1.462   2.068   3.878
 1470SOL    HW2 4863   1.562   2.169   3.932
 1471SOL     OW 4864   1.288   2.687   3.754
 1471SOL    HW1 4865   1.332   2.602   3.758
 1471SOL    HW2 4866   1.321   2.727   3.673
 1472SOL     OW 4867   1.068   3.199   4.580
 1472SOL    HW1 4868   1.072   3.127   4.517
 1472SOL    HW2 4869   1.127   3.265   4.544
 1473SOL     OW 4870   0.312   2.671   4.674
 1473SOL    HW1 4871   0.406   2.689   4.670
 1473SOL    HW2 4872   0.307   2.580   4.705
 1474SOL     OW 4873   0.334   2.389   4.740
 1474SOL    HW1 4874   0.299   2.301   4.726
 1474SOL    HW2 4875   0.409   2.395   4.681
 1475SOL     OW 4876   1.134   2.236   5.408
 1475SOL    HW1 4877   1.085   2.291   5.470
 1475SOL    HW2 4878   1.221   2.276   5.404
 1476SOL     OW 4879   1.161   2.062   5.195
 1476SOL    HW1 4880   1.150   2.125   5.266
 1476SOL    HW2 4881   1.201   2.113   5.125
 1477SOL     OW 4882   0.004   3.189   3.934
 1477SOL    HW1 4883   5.232   3.175   3.871
 1477SOL    HW2 4884   0.013   3.104   3.977
 1478SOL     OW 4885   0.096   3.643   4.678
 1478SOL    HW1 4886   0.061   3.576   4.619
 1478SOL    HW2 4887   0.183   3.663   4.642
 1479SOL     OW 4888   0.504   3.436   4.632
 1479SOL    HW1 4889   0.571   3.501   4.652
 1479SOL    HW2 4890   0.547   3.376   4.571
 1480SOL     OW 4891   0.979   2.651   4.949
 1480SOL    HW1 4892   1.037   2.631   5.022
 1480SOL    HW2 4893   0.894   2.614   4.974
 1481SOL     OW 4894   0.031   2.429   4.842
 1481SOL    HW1 4895   0.117   2.404   4.807
 1481SOL    HW2 4896   0.036   2.407   4.935
 1482SOL     OW 4897   0.172   2.376   5.436
 1482SOL    HW1 4898   0.235   2.335   5.376
 1482SOL    HW2 4899   0.148   2.458   5.393
 1483SOL     OW 4900   1.379   2.798   5.382
 1483SOL    HW1 4901   1.400   2.891   5.379
 1483SOL    HW2 4902   1.375   2.772   5.290
 1484SOL     OW 4903   0.817   2.431   4.088
 1484SOL    HW1 4904   0.822   2.357   4.027
 1484SOL    HW2 4905   0.743   2.483   4.056
 1485SOL     OW 4906   1.647   2.460   4.910
 1485SOL    HW1 4907   1.621   2.410   4.987
 1485SOL    HW2 4908   1.737   2.433   4.893
 1486SOL     OW 4909   0.255   3.417   5.457
 1486SOL    HW1 4910   0.234   3.481   5.526
 1486SOL    HW2 4911   0.251   3.332   5.501
 1487SOL     OW 4912   0.707   2.310   4.981
 1487SOL    HW1 4913   0.653   2.236   4.953
 1487SOL    HW2 4914   0.701   2.373   4.909
 1488SOL     OW 4915   0.926   3.541   5.193
 1488SOL    HW1 4916   0.900   3.504   5.109
 1488SOL    HW2 4917   0.919   3.635   5.181
 1489SOL     OW 4918   0.464   2.355   3.906
 1489SOL    HW1 4919   0.524   2.425   3.931
 1489SOL    HW2 4920   0.380   2.399   3.893
 1490SOL     OW 4921   0.147   2.999   5.194
 1490SOL    HW1 4922   0.144   2.952   5.278
 1490SOL    HW2 4923   0.157   2.930   5.129
 1491SOL     OW 4924   1.323   2.907   4.946
 1491SOL    HW1 4925   1.346   2.844   4.878
 1491SOL    HW2 4926   1.255   2.961   4.907
 1492SOL     OW 4927   1.312   2.718   4.030
 1492SOL    HW1 4928   1.236   2.687   4.080
 1492SOL    HW2 4929   1.287   2.705   3.938
 1493SOL     OW 4930   1.781   3.608   4.883
 1493SOL    HW1 4931   1.838   3.631   4.810
 1493SOL    HW2 4932   1.747   3.522   4.861
 1494SOL     OW 4933   1.240   3.595   4.834
 1494SOL    HW1 4934   1.322   3.618   4.791
 1494SOL    HW2 4935   1.248   3.501   4.853
 1495SOL     OW 4936   0.082   3.073   4.751
 1495SOL    HW1 4937   0.069   3.100   4.842
 1495SOL    HW2 4938   5.293   3.064   4.716
 1496SOL     OW 4939   0.678   3.530   5.458
 1496SOL    HW1 4940   0.620   3.606   5.450
 1496SOL    HW2 4941   0.744   3.544   5.389
 1497SOL     OW 4942   1.723   2.008   4.233
 1497SOL    HW1 4943   1.790   1.993   4.167
 1497SOL    HW2 4944   1.705   1.922   4.270
 1498SOL     OW 4945   1.390   3.430   4.211
 1498SOL    HW1 4946   1.451   3.463   4.144
 1498SOL    HW2 4947   1.342   3.507   4.239
 1499SOL     OW 4948   0.148   3.660   5.566
 1499SOL    HW1 4949   0.093   3.597   5.614
 1499SOL    HW2 4950   0.196   3.706   5.635
 1500SOL     OW 4951   1.277   2.789   4.395
 1500SOL    HW1 4952   1.351   2.729   4.404
 1500SOL    HW2 4953   1.310   2.861   4.341
 1501SOL     OW 4954   0.810   3.136   5.152
 1501SOL    HW1 4955   0.781   3.177   5.234
 1501SOL    HW2 4956   0.741   3.157   5.089
 1502SOL     OW 4957   0.672   3.484   3.878
 1502SOL    HW1 4958   0.683   3.498   3.784
 1502SOL    HW2 4959   0.616   3.406   3.885
 1503SOL     OW 4960   1.622   3.588   5.116
 1503SOL    HW1 4961   1.675   3.594   5.037
 1503SOL    HW2 4962   1.608   3.679   5.142
 1504SOL     OW 4963   1.832   2.036   4.694
 1504SOL    HW1 4964   1.864   1.950   4.668
 1504SOL    HW2 4965   1.747   2.044   4.651
 1505SOL     OW 4966   0.273   2.178   4.441
 1505SOL    HW1 4967   0.188   2.217   4.422
 1505SOL    HW2 4968   0.275   2.168   4.536
 1506SOL     OW 4969   1.207   3.466   3.756
 1506SOL    HW1 4970   1.197   3.375   3.782
 1506SOL    HW2 4971   1.142   3.479   3.687
 1507SOL     OW 4972   0.824   2.868   5.097
 1507SOL    HW1 4973   0.867   2.863   5.012
 1507SOL    HW2 4974   0.822   2.961   5.118
 1508SOL     OW 4975   0.915   2.772   4.014
 1508SOL    HW1 4976   0.975   2.805   3.948
 1508SOL    HW2 4977   0.965   2.704   4.060
 1509SOL     OW 4978   1.489   3.490   3.767
 1509SOL    HW1 4979   1.395   3.481   3.752
 1509SOL    HW2 4980   1.527   3.495   3.679
 1510SOL     OW 4981   0.367   3.166   5.217
 1510SOL    HW1 4982   0.359   3.240   5.157
 1510SOL    HW2 4983   0.291   3.111   5.198
 1511SOL     OW 4984   1.615   3.143   5.006
 1511SOL    HW1 4985   1.667   3.129   5.086
 1511SOL    HW2 4986   1.553   3.212   5.030
 1512SOL     OW 4987   1.056   2.971   4.432
 1512SOL    HW1 4988   0.984   2.920   4.470
 1512SOL    HW2 4989   1.119   2.905   4.403
 1513SOL     OW 4990   1.023   2.103   4.690
 1513SOL    HW1 4991   1.019   2.056   4.607
 1513SOL    HW2 4992   1.017   2.035   4.757
 1514SOL     OW 4993   0.602   3.349   4.204
 1514SOL    HW1 4994   0.650   3.300   4.137
 1514SOL    HW2 4995   0.534   3.396   4.156
 1515SOL     OW 4996   1.726   2.255   5.106
 1515SOL    HW1 4997   1.797   2.318   5.099
 1515SOL    HW2 4998   1.755   2.181   5.051
 1516SOL     OW 4999   0.262   3.210   4.019
 1516SOL    HW1 5000   0.169   3.211   3.995
 1516SOL    HW2 5001   0.265   3.248   4.107
 1517SOL     OW 5002   0.118   2.878   5.440
 1517SOL    HW1 5003   0.048   2.844   5.496
 1517SOL    HW2 5004   0.198   2.848   5.482
 1518SOL     OW 5005   0.675   2.058   5.224
 1518SOL    HW1 5006   0.759   2.037   5.183
 1518SOL    HW2 5007   0.698   2.090   5.311
 1519SOL     OW 5008   0.086   2.205   3.763
 1519SOL    HW1 5009   0.004   2.162   3.742
 1519SOL    HW2 5010   0.100   2.267   3.692
 1520SOL     OW 5011   1.428   2.720   5.123
 1520SOL    HW1 5012   1.378   2.780   5.068
 1520SOL    HW2 5013   1.517   2.724   5.088
 1521SOL     OW 5014   0.058   1.995   3.971
 1521SOL    HW1 5015   0.057   2.089   3.951
 1521SOL    HW2 5016   0.146   1.967   3.944
 1522SOL     OW 5017   1.178   3.200   3.842
 1522SOL    HW1 5018   1.087   3.169   3.844
 1522SOL    HW2 5019   1.206   3.200   3.933
 1523SOL     OW 5020   0.620   2.693   5.160
 1523SOL    HW1 5021   0.677   2.768   5.145
 1523SOL    HW2 5022   0.681   2.619   5.168
 1524SOL     OW 5023   1.481   3.642   4.705
 1524SOL    HW1 5024   1.506   3.704   4.636
 1524SOL    HW2 5025   1.564   3.612   4.742
 1525SOL     OW 5026   0.717   2.424   5.427
 1525SOL    HW1 5027   0.761   2.485   5.486
 1525SOL    HW2 5028   0.741   2.338   5.460
 1526SOL     OW 5029   1.473   3.059   5.355
 1526SOL    HW1 5030   1.461   3.074   5.448
 1526SOL    HW2 5031   1.566   3.077   5.339
 1527SOL     OW 5032   0.374   3.606   5.289
 1527SOL    HW1 5033   0.292   3.652   5.271
 1527SOL    HW2 5034   0.348   3.526   5.334
 1528SOL     OW 5035   1.667   2.743   4.978
 1528SOL    HW1 5036   1.660   2.660   4.932
 1528SOL    HW2 5037   1.657   2.809   4.909
 1529SOL     OW 5038   1.216   2.181   4.181
 1529SOL    HW1 5039   1.279   2.109   4.174
 1529SOL    HW2 5040   1.245   2.230   4.258
 1530SOL     OW 5041   0.588   2.598   4.395
 1530SOL    HW1 5042   0.628   2.684   4.380
 1530SOL    HW2 5043   0.520   2.591   4.328
 1531SOL     OW 5044   1.760   2.225   5.375
 1531SOL    HW1 5045   1.742   2.241   5.282
 1531SOL    HW2 5046   1.689   2.168   5.404
 1532SOL     OW 5047   1.747   2.794   5.236
 1532SOL    HW1 5048   1.741   2.888   5.250
 1532SOL    HW2 5049   1.732   2.782   5.142
 1533SOL     OW 5050   0.862   3.228   3.762
 1533SOL    HW1 5051   0.825   3.258   3.845
 1533SOL    HW2 5052   0.880   3.308   3.713
 1534SOL     OW 5053   0.665   3.653   4.664
 1534SOL    HW1 5054   0.645   3.744   4.643
 1534SOL    HW2 5055   0.760   3.648   4.658
 1535SOL     OW 5056   0.868   2.830   4.577
 1535SOL    HW1 5057   0.919   2.758   4.616
 1535SOL    HW2 5058   0.832   2.877   4.652
 1536SOL     OW 5059   1.076   2.849   3.812
 1536SOL    HW1 5060   1.056   2.901   3.735
 1536SOL    HW2 5061   1.151   2.796   3.786
 1537SOL     OW 5062   1.856   3.413   4.573
 1537SOL    HW1 5063   1.776   3.397   4.523
 1537SOL    HW2 5064   1.867   3.334   4.625
 1538SOL     OW 5065   0.227   3.165   5.585
 1538SOL    HW1 5066   0.159   3.103   5.559
 1538SOL    HW2 5067   0.215   3.175   5.680
 1539SOL     OW 5068   0.089   3.077   4.378
 1539SOL    HW1 5069   0.107   3.046   4.467
 1539SOL    HW2 5070   0.176   3.085   4.338
 1540SOL     OW 5071   0.683   3.266   5.354
 1540SOL    HW1 5072   0.602   3.225   5.385
 1540SOL    HW2 5073   0.679   3.355   5.390
 1541SOL     OW 5074   1.813   2.047   4.963
 1541SOL    HW1 5075   1.825   1.953   4.979
 1541SOL    HW2 5076   1.822   2.056   4.869
 1542SOL     OW 5077   0.436   2.298   4.248
 1542SOL    HW1 5078   0.464   2.225   4.192
 1542SOL    HW2 5079   0.388   2.256   4.319
 1543SOL     OW 5080   1.679   3.367   4.832
 1543SOL    HW1 5081   1.610   3.339   4.771
 1543SOL    HW2 5082   1.701   3.289   4.881
 1544SOL     OW 5083   0.339   2.424   5.016
 1544SOL    HW1 5084   0.392   2.365   5.069
 1544SOL    HW2 5085   0.352   2.394   4.926
 1545SOL     OW 5086   0.831   3.440   4.401
 1545SOL    HW1 5087   0.813   3.501   4.329
 1545SOL    HW2 5088   0.755   3.381   4.401
 1546SOL     OW 5089   1.431   2.090   4.842
 1546SOL    HW1 5090   1.451   2.006   4.884
 1546SOL    HW2 5091   1.379   2.138   4.906
 1547SOL     OW 5092   1.009   1.879   4.863
 1547SOL    HW1 5093   0.955   1.813   4.822
 1547SOL    HW2 5094   1.097   1.841   4.865
 1548SOL     OW 5095   0.772   3.195   4.043
 1548SOL    HW1 5096   0.745   3.104   4.049
 1548SOL    HW2 5097   0.855   3.199   4.092
 1549SOL     OW 5098   0.623   3.417   5.013
 1549SOL    HW1 5099   0.624   3.499   5.061
 1549SOL    HW2 5100   0.710   3.412   4.973
 1550SOL     OW 5101   1.353   1.915   3.892
 1550SOL    HW1 5102   1.384   1.849   3.830
 1550SOL    HW2 5103   1.265   1.887   3.916
 1551SOL     OW 5104   1.294   2.323   4.403
 1551SOL    HW1 5105   1.242   2.403   4.409
 1551SOL    HW2 5106   1.291   2.286   4.491
 1552SOL     OW 5107   1.579   2.060   4.600
 1552SOL    HW1 5108   1.523   2.083   4.674
 1552SOL    HW2 5109   1.580   2.139   4.545
 1553SOL     OW 5110   0.049   2.929   4.014
 1553SOL    HW1 5111   0.138   2.895   4.003
 1553SOL    HW2 5112   5.299   2.856   4.050
 1554SOL     OW 5113   0.888   3.517   4.064
 1554SOL    HW1 5114   0.814   3.502   4.005
 1554SOL    HW2 5115   0.861   3.591   4.118
 1555SOL     OW 5116   0.232   2.491   5.703
 1555SOL    HW1 5117   0.162   2.452   5.756
 1555SOL    HW2 5118   0.215   2.461   5.614
 1556SOL     OW 5119   0.244   2.137   6.574
 1556SOL    HW1 5120   0.257   2.102   6.662
 1556SOL    HW2 5121   0.159   2.103   6.547
 1557SOL     OW 5122   5.297   2.262   6.240
 1557SOL    HW1 5123   5.204   2.284   6.244
 1557SOL    HW2 5124   5.300   2.173   6.206
 1558SOL     OW 5125   0.577   3.151   6.773
 1558SOL    HW1 5126   0.495   3.159   6.725
 1558SOL    HW2 5127   0.592   3.239   6.807
 1559SOL     OW 5128   1.565   3.374   6.294
 1559SOL    HW1 5129   1.523   3.353   6.377
 1559SOL    HW2 5130   1.494   3.378   6.230
 1560SOL     OW 5131   1.131   2.560   6.284
 1560SOL    HW1 5132   1.180   2.642   6.271
 1560SOL    HW2 5133   1.084   2.573   6.366
 1561SOL     OW 5134   1.772   2.465   5.813
 1561SOL    HW1 5135   1.749   2.458   5.721
 1561SOL    HW2 5136   1.733   2.386   5.853
 1562SOL     OW 5137   0.751   3.000   6.628
 1562SOL    HW1 5138   0.687   3.036   6.689
 1562SOL    HW2 5139   0.788   3.077   6.584
 1563SOL     OW 5140   0.869   2.633   7.406
 1563SOL    HW1 5141   0.860   2.707   7.466
 1563SOL    HW2 5142   0.894   2.672   7.322
 1564SOL     OW 5143   0.685   2.861   6.232
 1564SOL    HW1 5144   0.752   2.851   6.300
 1564SOL    HW2 5145   0.618   2.916   6.272
 1565SOL     OW 5146   0.711   3.013   7.402
 1565SOL    HW1 5147   0.760   3.090   7.430
 1565SOL    HW2 5148   0.631   3.048   7.363
 1566SOL     OW 5149   0.359   3.265   6.646
 1566SOL    HW1 5150   0.269   3.266   6.612
 1566SOL    HW2 5151   0.407   3.327   6.591
 1567SOL     OW 5152   1.460   3.363   6.943
 1567SOL    HW1 5153   1.514   3.442   6.953
 1567SOL    HW2 5154   1.395   3.370   7.013
 1568SOL     OW 5155   0.452   2.262   7.075
 1568SOL    HW1 5156   0.526   2.202   7.079
 1568SOL    HW2 5157   0.375   2.205   7.088
 1569SOL     OW 5158   1.610   2.308   6.328
 1569SOL    HW1 5159   1.536   2.328   6.271
 1569SOL    HW2 5160   1.619   2.385   6.384
 1570SOL     OW 5161   0.235   3.575   6.063
 1570SOL    HW1 5162   0.264   3.646   6.121
 1570SOL    HW2 5163   0.298   3.574   5.992
 1571SOL     OW 5164   1.137   3.203   7.276
 1571SOL    HW1 5165   1.178   3.200   7.363
 1571SOL    HW2 5166   1.086   3.123   7.270
 1572SOL     OW 5167   0.221   3.309   6.127
 1572SOL    HW1 5168   0.220   3.404   6.118
 1572SOL    HW2 5169   0.150   3.290   6.188
 1573SOL     OW 5170   0.252   2.938   6.459
 1573SOL    HW1 5171   0.263   2.851   6.499
 1573SOL    HW2 5172   0.199   2.987   6.522
 1574SOL     OW 5173   0.610   3.652   7.017
 1574SOL    HW1 5174   0.526   3.635   7.061
 1574SOL    HW2 5175   0.631   3.743   7.041
 1575SOL     OW 5176   0.580   2.847   5.723
 1575SOL    HW1 5177   0.628   2.893   5.654
 1575SOL    HW2 5178   0.620   2.877   5.805
 1576SOL     OW 5179   1.596   1.987   7.052
 1576SOL    HW1 5180   1.610   2.068   7.004
 1576SOL    HW2 5181   1.579   2.016   7.142
 1577SOL     OW 5182   0.127   2.494   6.167
 1577SOL    HW1 5183   0.089   2.411   6.197
 1577SOL    HW2 5184   0.099   2.558   6.233
 1578SOL     OW 5185   1.843   3.619   5.919
 1578SOL    HW1 5186   1.910   3.592   5.982
 1578SOL    HW2 5187   1.864   3.710   5.900
 1579SOL     OW 5188   0.039   3.461   5.720
 1579SOL    HW1 5189   0.026   3.370   5.745
 1579SOL    HW2 5190   5.280   3.511   5.777
 1580SOL     OW 5191   1.688   2.780   6.228
 1580SOL    HW1 5192   1.771   2.738   6.206
 1580SOL    HW2 5193   1.666   2.831   6.151
 1581SOL     OW 5194   1.648   2.967   6.015
 1581SOL    HW1 5195   1.734   2.971   5.974
 1581SOL    HW2 5196   1.653   3.029   6.088
 1582SOL     OW 5197   0.134   2.610   7.171
 1582SOL    HW1 5198   0.229   2.623   7.168
 1582SOL    HW2 5199   0.098   2.696   7.190
 1583SOL     OW 5200   0.617   3.250   6.320
 1583SOL    HW1 5201   0.570   3.167   6.331
 1583SOL    HW2 5202   0.599   3.277   6.230
 1584SOL     OW 5203   1.287   3.099   7.008
 1584SOL    HW1 5204   1.319   3.031   6.948
 1584SOL    HW2 5205   1.346   3.094   7.084
 1585SOL     OW 5206   0.826   1.863   6.098
 1585SOL    HW1 5207   0.866   1.947   6.076
 1585SOL    HW2 5208   0.732   1.882   6.103
 1586SOL     OW 5209   0.173   2.803   6.866
 1586SOL    HW1 5210   0.263   2.773   6.859
 1586SOL    HW2 5211   0.135   2.787   6.780
 1587SOL     OW 5212   1.531   2.858   5.786
 1587SOL    HW1 5213   1.462   2.801   5.819
 1587SOL    HW2 5214   1.573   2.892   5.865
 1588SOL     OW 5215   1.184   3.671   7.210
 1588SOL    HW1 5216   1.193   3.731   7.135
 1588SOL    HW2 5217   1.203   3.585   7.173
 1589SOL     OW 5218   0.343   2.115   7.408
 1589SOL    HW1 5219   0.387   2.198   7.423
 1589SOL    HW2 5220   0.254   2.129   7.439
 1590SOL     OW 5221   1.467   3.281   6.536
 1590SOL    HW1 5222   1.400   3.297   6.602
 1590SOL    HW2 5223   1.454   3.190   6.509
 1591SOL     OW 5224   1.655   3.608   6.164
 1591SOL    HW1 5225   1.638   3.576   6.075
 1591SOL    HW2 5226   1.634   3.534   6.220
 1592SOL     OW 5227   0.595   2.581   5.854
 1592SOL    HW1 5228   0.601   2.663   5.805
 1592SOL    HW2 5229   0.530   2.599   5.922
 1593SOL     OW 5230   1.279   2.220   6.519
 1593SOL    HW1 5231   1.189   2.186   6.528
 1593SOL    HW2 5232   1.330   2.166   6.579
 1594SOL     OW 5233   1.580   3.533   5.896
 1594SOL    HW1 5234   1.671   3.562   5.888
 1594SOL    HW2 5235   1.552   3.517   5.806
 1595SOL     OW 5236   0.790   2.480   7.036
 1595SOL    HW1 5237   0.764   2.454   7.125
 1595SOL    HW2 5238   0.753   2.412   6.980
 1596SOL     OW 5239   1.393   2.336   7.263
 1596SOL    HW1 5240   1.396   2.381   7.347
 1596SOL    HW2 5241   1.453   2.261   7.273
 1597SOL     OW 5242   0.953   2.748   7.169
 1597SOL    HW1 5243   1.007   2.679   7.132
 1597SOL    HW2 5244   0.905   2.784   7.094
 1598SOL     OW 5245   0.992   2.274   6.823
 1598SOL    HW1 5246   0.905   2.293   6.856
 1598SOL    HW2 5247   0.977   2.229   6.740
 1599SOL     OW 5248   1.052   2.560   6.011
 1599SOL    HW1 5249   1.069   2.554   6.105
 1599SOL    HW2 5250   0.969   2.514   5.999
 1600SOL     OW 5251   0.069   2.651   6.396
 1600SOL    HW1 5252   0.149   2.655   6.448
 1600SOL    HW2 5253   0.068   2.732   6.345
 1601SOL     OW 5254   0.126   3.749   7.171
 1601SOL    HW1 5255   0.130   3.724   7.264
 1601SOL    HW2 5256   0.061   3.690   7.134
 1602SOL     OW 5257   0.897   2.212   5.781
 1602SOL    HW1 5258   0.936   2.275   5.720
 1602SOL    HW2 5259   0.910   2.127   5.739
 1603SOL     OW 5260   1.707   2.435   7.416
 1603SOL    HW1 5261   1.670   2.509   7.368
 1603SOL    HW2 5262   1.736   2.374   7.348
 1604SOL     OW 5263   1.378   3.003   6.126
 1604SOL    HW1 5264   1.458   2.992   6.074
 1604SOL    HW2 5265   1.325   3.066   6.077
 1605SOL     OW 5266   0.558   2.044   6.481
 1605SOL    HW1 5267   0.555   2.073   6.572
 1605SOL    HW2 5268   0.552   2.125   6.430
 1606SOL     OW 5269   1.002   3.305   6.056
 1606SOL    HW1 5270   0.969   3.379   6.006
 1606SOL    HW2 5271   0.982   3.326   6.147
 1607SOL     OW 5272   0.358   3.667   6.457
 1607SOL    HW1 5273   0.398   3.581   6.470
 1607SOL    HW2 5274   0.424   3.729   6.489
 1608SOL     OW 5275   1.799   2.915   6.456
 1608SOL    HW1 5276   1.745   2.898   6.379
 1608SOL    HW2 5277   1.736   2.922   6.528
 1609SOL     OW 5278   1.228   3.401   7.099
 1609SOL    HW1 5279   1.215   3.329   7.160
 1609SOL    HW2 5280   1.162   3.388   7.031
 1610SOL     OW 5281   0.314   2.814   5.835
 1610SOL    HW1 5282   0.395   2.837   5.791
 1610SOL    HW2 5283   0.292   2.727   5.801
 1611SOL     OW 5284   1.480   2.607   6.311
 1611SOL    HW1 5285   1.474   2.567   6.397
 1611SOL    HW2 5286   1.558   2.663   6.316
 1612SOL     OW 5287   0.466   3.126   7.324
 1612SOL    HW1 5288   0.440   3.133   7.232
 1612SOL    HW2 5289   0.383   3.126   7.372
 1613SOL     OW 5290   1.123   3.640   5.816
 1613SOL    HW1 5291   1.049   3.599   5.860
 1613SOL    HW2 5292   1.147   3.578   5.747
 1614SOL     OW 5293   0.206   2.139   7.084
 1614SOL    HW1 5294   0.127   2.191   7.065
 1614SOL    HW2 5295   0.172   2.058   7.122
 1615SOL     OW 5296   1.628   3.242   5.675
 1615SOL    HW1 5297   1.587   3.328   5.660
 1615SOL    HW2 5298   1.560   3.179   5.655
 1616SOL     OW 5299   0.471   3.597   5.904
 1616SOL    HW1 5300   0.515   3.654   5.967
 1616SOL    HW2 5301   0.541   3.564   5.848
 1617SOL     OW 5302   1.401   1.969   6.022
 1617SOL    HW1 5303   1.391   1.944   5.930
 1617SOL    HW2 5304   1.495   1.975   6.036
 1618SOL     OW 5305   0.278   3.663   6.794
 1618SOL    HW1 5306   0.307   3.583   6.838
 1618SOL    HW2 5307   0.223   3.632   6.722
 1619SOL     OW 5308   0.939   3.561   6.484
 1619SOL    HW1 5309   1.018   3.511   6.505
 1619SOL    HW2 5310   0.897   3.511   6.415
 1620SOL     OW 5311   0.386   2.557   6.064
 1620SOL    HW1 5312   0.415   2.466   6.074
 1620SOL    HW2 5313   0.293   2.554   6.085
 1621SOL     OW 5314   1.532   2.086   7.311
 1621SOL    HW1 5315   1.543   2.107   7.403
 1621SOL    HW2 5316   1.463   2.020   7.309
 1622SOL     OW 5317   0.638   1.982   5.689
 1622SOL    HW1 5318   0.704   1.914   5.704
 1622SOL    HW2 5319   0.588   1.952   5.614
 1623SOL     OW 5320   0.765   2.140   7.341
 1623SOL    HW1 5321   0.843   2.085   7.340
 1623SOL    HW2 5322   0.723   2.121   7.425
 1624SOL     OW 5323   0.877   3.384   6.779
 1624SOL    HW1 5324   0.860   3.347   6.693
 1624SOL    HW2 5325   0.947   3.330   6.816
 1625SOL     OW 5326   1.339   2.451   7.018
 1625SOL    HW1 5327   1.371   2.420   7.103
 1625SOL    HW2 5328   1.376   2.539   7.010
 1626SOL     OW 5329   0.817   3.253   6.529
 1626SOL    HW1 5330   0.902   3.242   6.485
 1626SOL    HW2 5331   0.754   3.258   6.457
 1627SOL     OW 5332   0.929   2.371   6.488
 1627SOL    HW1 5333   0.904   2.363   6.396
 1627SOL    HW2 5334   0.958   2.284   6.513
 1628SOL     OW 5335   0.562   1.923   6.080
 1628SOL    HW1 5336   0.487   1.923   6.139
 1628SOL    HW2 5337   0.551   2.002   6.027
 1629SOL     OW 5338   1.428   3.061   5.626
 1629SOL    HW1 5339   1.457   2.986   5.677
 1629SOL    HW2 5340   1.343   3.084   5.664
 1630SOL     OW 5341   0.306   1.909   5.763
 1630SOL    HW1 5342   0.368   1.973   5.729
 1630SOL    HW2 5343   0.361   1.845   5.810
 1631SOL     OW 5344   0.942   2.111   6.043
 1631SOL    HW1 5345   0.916   2.151   5.960
 1631SOL    HW2 5346   1.036   2.126   6.049
 1632SOL     OW 5347   1.080   2.544   7.044
 1632SOL    HW1 5348   1.013   2.475   7.049
 1632SOL    HW2 5349   1.163   2.497   7.038
 1633SOL     OW 5350   1.222   3.433   6.380
 1633SOL    HW1 5351   1.237   3.499   6.313
 1633SOL    HW2 5352   1.290   3.449   6.445
 1634SOL     OW 5353   0.469   3.014   6.314
 1634SOL    HW1 5354   0.401   2.992   6.377
 1634SOL    HW2 5355   0.428   2.997   6.229
 1635SOL     OW 5356   1.267   3.655   6.196
 1635SOL    HW1 5357   1.314   3.716   6.140
 1635SOL    HW2 5358   1.199   3.708   6.238
 1636SOL     OW 5359   1.023   2.401   5.611
 1636SOL    HW1 5360   0.980   2.484   5.591
 1636SOL    HW2 5361   1.088   2.422   5.677
 1637SOL     OW 5362   0.091   2.403   6.987
 1637SOL    HW1 5363   0.178   2.412   6.948
 1637SOL    HW2 5364   0.081   2.481   7.042
 1638SOL     OW 5365   0.560   2.090   6.754
 1638SOL    HW1 5366   0.598   2.012   6.794
 1638SOL    HW2 5367   0.468   2.089   6.781
 1639SOL     OW 5368   0.867   2.320   6.225
 1639SOL    HW1 5369   0.822   2.375   6.161
 1639SOL    HW2 5370   0.889   2.241   6.177
 1640SOL     OW 5371   1.017   1.916   6.335
 1640SOL    HW1 5372   0.958   1.908   6.260
 1640SOL    HW2 5373   0.994   1.841   6.391
 1641SOL     OW 5374   1.439   3.024   6.443
 1641SOL    HW1 5375   1.368   2.959   6.442
 1641SOL    HW2 5376   1.463   3.033   6.351
 1642SOL     OW 5377   1.466   2.469   6.558
 1642SOL    HW1 5378   1.412   2.390   6.562
 1642SOL    HW2 5379   1.524   2.462   6.634
 1643SOL     OW 5380   1.844   2.675   5.970
 1643SOL    HW1 5381   1.902   2.625   6.028
 1643SOL    HW2 5382   1.817   2.613   5.903
 1644SOL     OW 5383   0.491   3.282   5.741
 1644SOL    HW1 5384   0.416   3.255   5.793
 1644SOL    HW2 5385   0.479   3.239   5.657
 1645SOL     OW 5386   1.672   3.125   6.230
 1645SOL    HW1 5387   1.767   3.127   6.245
 1645SOL    HW2 5388   1.644   3.214   6.251
 1646SOL     OW 5389   1.394   2.434   5.657
 1646SOL    HW1 5390   1.332   2.414   5.728
 1646SOL    HW2 5391   1.478   2.403   5.690
 1647SOL     OW 5392   0.524   2.125   5.900
 1647SOL    HW1 5393   0.572   2.079   5.831
 1647SOL    HW2 5394   0.500   2.209   5.861
 1648SOL     OW 5395   1.750   3.103   7.155
 1648SOL    HW1 5396   1.838   3.065   7.148
 1648SOL    HW2 5397   1.766   3.193   7.184
 1649SOL     OW 5398   1.057   3.214   6.918
 1649SOL    HW1 5399   0.982   3.184   6.969
 1649SOL    HW2 5400   1.133   3.174   6.960
 1650SOL     OW 5401   1.609   3.488   7.240
 1650SOL    HW1 5402   1.602   3.522   7.151
 1650SOL    HW2 5403   1.691   3.440   7.241
 1651SOL     OW 5404   1.131   3.067   6.689
 1651SOL    HW1 5405   1.073   3.106   6.754
 1651SOL    HW2 5406   1.100   3.102   6.606
 1652SOL     OW 5407   1.625   2.959   6.663
 1652SOL    HW1 5408   1.620   3.021   6.735
 1652SOL    HW2 5409   1.548   2.977   6.609
 1653SOL     OW 5410   0.919   1.957   6.981
 1653SOL    HW1 5411   0.941   1.939   6.889
 1653SOL    HW2 5412   0.998   1.997   7.017
 1654SOL     OW 5413   0.984   2.976   7.312
 1654SOL    HW1 5414   0.892   2.993   7.331
 1654SOL    HW2 5415   0.983   2.898   7.255
 1655SOL     OW 5416   0.708   2.923   5.958
 1655SOL    HW1 5417   0.696   2.905   6.051
 1655SOL    HW2 5418   0.784   2.870   5.933
 1656SOL     OW 5419   0.421   2.683   6.840
 1656SOL    HW1 5420   0.490   2.690   6.906
 1656SOL    HW2 5421   0.387   2.594   6.849
 1657SOL     OW 5422   1.264   2.238   6.863
 1657SOL    HW1 5423   1.297   2.316   6.909
 1657SOL    HW2 5424   1.173   2.260   6.842
 1658SOL     OW 5425   0.104   3.485   6.951
 1658SOL    HW1 5426   0.082   3.490   6.858
 1658SOL    HW2 5427   0.190   3.444   6.954
 1659SOL     OW 5428   0.341   2.972   6.071
 1659SOL    HW1 5429   0.347   3.051   6.017
 1659SOL    HW2 5430   0.346   2.900   6.008
 1660SOL     OW 5431   0.552   2.396   6.444
 1660SOL    HW1 5432   0.566   2.455   6.370
 1660SOL    HW2 5433   0.618   2.422   6.509
 1661SOL     OW 5434   1.248   3.211   5.976
 1661SOL    HW1 5435   1.303   3.282   6.007
 1661SOL    HW2 5436   1.161   3.232   6.009
 1662SOL     OW 5437   1.285   3.321   6.734
 1662SOL    HW1 5438   1.341   3.325   6.811
 1662SOL    HW2 5439   1.229   3.245   6.749
 1663SOL     OW 5440   1.580   2.483   6.067
 1663SOL    HW1 5441   1.531   2.533   6.133
 1663SOL    HW2 5442   1.624   2.550   6.014
 1664SOL     OW 5443   0.352   3.382   6.895
 1664SOL    HW1 5444   0.341   3.338   6.810
 1664SOL    HW2 5445   0.446   3.399   6.901
 1665SOL     OW 5446   0.416   2.604   7.188
 1665SOL    HW1 5447   0.478   2.650   7.131
 1665SOL    HW2 5448   0.454   2.517   7.200
 1666SOL     OW 5449   1.603   2.641   7.271
 1666SOL    HW1 5450   1.518   2.683   7.264
 1666SOL    HW2 5451   1.656   2.683   7.203
 1667SOL     OW 5452   0.996   1.990   7.340
 1667SOL    HW1 5453   1.054   2.063   7.315
 1667SOL    HW2 5454   1.045   1.911   7.314
 1668SOL     OW 5455   0.498   1.900   7.335
 1668SOL    HW1 5456   0.453   1.848   7.268
 1668SOL    HW2 5457   0.442   1.977   7.347
 1669SOL     OW 5458   0.585   2.737   6.619
 1669SOL    HW1 5459   0.619   2.826   6.620
 1669SOL    HW2 5460   0.529   2.732   6.696
 1670SOL     OW 5461   1.354   2.721   6.612
 1670SOL    HW1 5462   1.269   2.708   6.569
 1670SOL    HW2 5463   1.397   2.635   6.604
 1671SOL     OW 5464   1.202   2.390   5.850
 1671SOL    HW1 5465   1.210   2.312   5.905
 1671SOL    HW2 5466   1.160   2.455   5.907
 1672SOL     OW 5467   0.301   2.065   6.833
 1672SOL    HW1 5468   0.268   2.088   6.920
 1672SOL    HW2 5469   0.290   1.970   6.828
 1673SOL     OW 5470   0.063   3.177   6.865
 1673SOL    HW1 5471   0.090   3.119   6.936
 1673SOL    HW2 5472   5.291   3.229   6.902
 1674SOL     OW 5473   0.722   2.492   6.641
 1674SOL    HW1 5474   0.798   2.478   6.585
 1674SOL    HW2 5475   0.694   2.582   6.622
 1675SOL     OW 5476   1.736   2.822   7.441
 1675SOL    HW1 5477   1.690   2.757   7.387
 1675SOL    HW2 5478   1.679   2.838   7.515
 1676SOL     OW 5479   0.328   1.924   6.219
 1676SOL    HW1 5480   0.308   2.014   6.246
 1676SOL    HW2 5481   0.334   1.875   6.302
 1677SOL     OW 5482   1.619   2.238   5.950
 1677SOL    HW1 5483   1.646   2.174   6.015
 1677SOL    HW2 5484   1.596   2.316   6.001
 1678SOL     OW 5485   1.029   2.620   6.545
 1678SOL    HW1 5486   1.022   2.638   6.639
 1678SOL    HW2 5487   1.002   2.529   6.536
 1679SOL     OW 5488   0.981   3.427   7.305
 1679SOL    HW1 5489   0.966   3.472   7.221
 1679SOL    HW2 5490   1.026   3.346   7.280
 1680SOL     OW 5491   1.853   3.366   7.190
 1680SOL    HW1 5492   1.874   3.392   7.101
 1680SOL    HW2 5493   1.934   3.381   7.239
 1681SOL     OW 5494   0.355   2.778   7.394
 1681SOL    HW1 5495   0.436   2.800   7.438
 1681SOL    HW2 5496   0.380   2.714   7.327
 1682SOL     OW 5497   1.528   2.134   5.713
 1682SOL    HW1 5498   1.463   2.069   5.740
 1682SOL    HW2 5499   1.561   2.170   5.795
 1683SOL     OW 5500   1.289   2.687   5.615
 1683SOL    HW1 5501   1.332   2.602   5.619
 1683SOL    HW2 5502   1.321   2.727   5.534
 1684SOL     OW 5503   1.068   3.199   6.441
 1684SOL    HW1 5504   1.072   3.127   6.378
 1684SOL    HW2 5505   1.127   3.265   6.406
 1685SOL     OW 5506   0.312   2.671   6.536
 1685SOL    HW1 5507   0.406   2.689   6.532
 1685SOL    HW2 5508   0.307   2.580   6.567
 1686SOL     OW 5509   0.334   2.389   6.602
 1686SOL    HW1 5510   0.299   2.301   6.588
 1686SOL    HW2 5511   0.409   2.395   6.543
 1687SOL     OW 5512   1.134   2.236   7.269
 1687SOL    HW1 5513   1.086   2.291   7.331
 1687SOL    HW2 5514   1.221   2.275   7.265
 1688SOL     OW 5515   1.161   2.062   7.056
 1688SOL    HW1 5516   1.150   2.125   7.128
 1688SOL    HW2 5517   1.202   2.113   6.986
 1689SOL     OW 5518   0.004   3.189   5.796
 1689SOL    HW1 5519   5.232   3.175   5.733
 1689SOL    HW2 5520   0.013   3.104   5.839
 1690SOL     OW 5521   0.096   3.643   6.540
 1690SOL    HW1 5522   0.061   3.576   6.482
 1690SOL    HW2 5523   0.183   3.663   6.504
 1691SOL     OW 5524   0.504   3.436   6.494
 1691SOL    HW1 5525   0.571   3.501   6.514
 1691SOL    HW2 5526   0.547   3.376   6.433
 1692SOL     OW 5527   0.978   2.651   6.811
 1692SOL    HW1 5528   1.037   2.631   6.884
 1692SOL    HW2 5529   0.894   2.614   6.836
 1693SOL     OW 5530   0.031   2.429   6.704
 1693SOL    HW1 5531   0.117   2.405   6.669
 1693SOL    HW2 5532   0.036   2.407   6.797
 1694SOL     OW 5533   0.172   2.375   7.303
 1694SOL    HW1 5534   0.233   2.332   7.243
 1694SOL    HW2 5535   0.147   2.456   7.259
 1695SOL     OW 5536   1.378   2.798   7.244
 1695SOL    HW1 5537   1.400   2.892   7.241
 1695SOL    HW2 5538   1.375   2.772   7.152
 1696SOL     OW 5539   0.817   2.431   5.950
 1696SOL    HW1 5540   0.822   2.357   5.889
 1696SOL    HW2 5541   0.743   2.483   5.918
 1697SOL     OW 5542   1.640   2.463   6.769
 1697SOL    HW1 5543   1.630   2.405   6.844
 1697SOL    HW2 5544   1.728   2.443   6.735
 1698SOL     OW 5545   0.254   3.417   7.320
 1698SOL    HW1 5546   0.234   3.479   7.390
 1698SOL    HW2 5547   0.251   3.331   7.363
 1699SOL     OW 5548   0.707   2.310   6.843
 1699SOL    HW1 5549   0.652   2.236   6.815
 1699SOL    HW2 5550   0.700   2.373   6.771
 1700SOL     OW 5551   0.926   3.541   7.055
 1700SOL    HW1 5552   0.900   3.504   6.970
 1700SOL    HW2 5553   0.920   3.635   7.043
 1701SOL     OW 5554   0.464   2.355   5.768
 1701SOL    HW1 5555   0.524   2.425   5.793
 1701SOL    HW2 5556   0.380   2.399   5.755
 1702SOL     OW 5557   0.147   2.999   7.056
 1702SOL    HW1 5558   0.143   2.952   7.139
 1702SOL    HW2 5559   0.157   2.930   6.990
 1703SOL     OW 5560   1.323   2.907   6.807
 1703SOL    HW1 5561   1.346   2.844   6.739
 1703SOL    HW2 5562   1.255   2.961   6.768
 1704SOL     OW 5563   1.314   2.718   5.891
 1704SOL    HW1 5564   1.239   2.689   5.942
 1704SOL    HW2 5565   1.288   2.705   5.800
 1705SOL     OW 5566   1.775   3.603   6.738
 1705SOL    HW1 5567   1.835   3.629   6.669
 1705SOL    HW2 5568   1.750   3.514   6.716
 1706SOL     OW 5569   1.240   3.595   6.695
 1706SOL    HW1 5570   1.323   3.617   6.652
 1706SOL    HW2 5571   1.248   3.502   6.715
 1707SOL     OW 5572   0.082   3.073   6.613
 1707SOL    HW1 5573   0.070   3.100   6.704
 1707SOL    HW2 5574   5.293   3.064   6.578
 1708SOL     OW 5575   0.677   3.529   7.318
 1708SOL    HW1 5576   0.621   3.606   7.313
 1708SOL    HW2 5577   0.745   3.543   7.252
 1709SOL     OW 5578   1.721   2.013   6.094
 1709SOL    HW1 5579   1.792   1.997   6.032
 1709SOL    HW2 5580   1.705   1.927   6.134
 1710SOL     OW 5581   1.391   3.430   6.073
 1710SOL    HW1 5582   1.451   3.463   6.006
 1710SOL    HW2 5583   1.342   3.506   6.102
 1711SOL     OW 5584   0.143   3.661   7.429
 1711SOL    HW1 5585   0.090   3.598   7.478
 1711SOL    HW2 5586   0.198   3.703   7.495
 1712SOL     OW 5587   1.277   2.788   6.257
 1712SOL    HW1 5588   1.351   2.728   6.265
 1712SOL    HW2 5589   1.311   2.861   6.204
 1713SOL     OW 5590   0.810   3.136   7.014
 1713SOL    HW1 5591   0.781   3.177   7.096
 1713SOL    HW2 5592   0.741   3.157   6.951
 1714SOL     OW 5593   0.672   3.484   5.740
 1714SOL    HW1 5594   0.683   3.498   5.646
 1714SOL    HW2 5595   0.616   3.406   5.747
 1715SOL     OW 5596   1.622   3.589   6.976
 1715SOL    HW1 5597   1.674   3.595   6.896
 1715SOL    HW2 5598   1.608   3.680   7.003
 1716SOL     OW 5599   1.842   2.034   6.552
 1716SOL    HW1 5600   1.870   1.946   6.526
 1716SOL    HW2 5601   1.755   2.044   6.512
 1717SOL     OW 5602   0.273   2.178   6.303
 1717SOL    HW1 5603   0.188   2.217   6.284
 1717SOL    HW2 5604   0.275   2.168   6.398
 1718SOL     OW 5605   1.208   3.466   5.618
 1718SOL    HW1 5606   1.197   3.375   5.644
 1718SOL    HW2 5607   1.143   3.479   5.549
 1719SOL     OW 5608   0.824   2.868   6.959
 1719SOL    HW1 5609   0.868   2.863   6.875
 1719SOL    HW2 5610   0.822   2.961   6.980
 1720SOL     OW 5611   0.915   2.772   5.876
 1720SOL    HW1 5612   0.976   2.805   5.810
 1720SOL    HW2 5613   0.965   2.704   5.922
 1721SOL     OW 5614   1.490   3.488   5.629
 1721SOL    HW1 5615   1.396   3.480   5.615
 1721SOL    HW2 5616   1.528   3.494   5.542
 1722SOL     OW 5617   0.367   3.167   7.079
 1722SOL    HW1 5618   0.359   3.240   7.019
 1722SOL    HW2 5619   0.291   3.111   7.060
 1723SOL     OW 5620   1.609   3.145   6.866
 1723SOL    HW1 5621   1.670   3.132   6.939
 1723SOL    HW2 5622   1.549   3.213   6.896
 1724SOL     OW 5623   1.056   2.970   6.294
 1724SOL    HW1 5624   0.985   2.920   6.332
 1724SOL    HW2 5625   1.120   2.905   6.265
 1725SOL     OW 5626   1.023   2.103   6.552
 1725SOL    HW1 5627   1.018   2.056   6.469
 1725SOL    HW2 5628   1.017   2.035   6.619
 1726SOL     OW 5629   0.602   3.349   6.066
 1726SOL    HW1 5630   0.650   3.300   5.999
 1726SOL    HW2 5631   0.534   3.396   6.018
 1727SOL     OW 5632   1.725   2.254   6.967
 1727SOL    HW1 5633   1.796   2.317   6.965
 1727SOL    HW2 5634   1.754   2.183   6.910
 1728SOL     OW 5635   0.262   3.210   5.881
 1728SOL    HW1 5636   0.169   3.211   5.857
 1728SOL    HW2 5637   0.265   3.248   5.969
 1729SOL     OW 5638   0.118   2.876   7.301
 1729SOL    HW1 5639   0.047   2.846   7.358
 1729SOL    HW2 5640   0.198   2.846   7.345
 1730SOL     OW 5641   0.675   2.057   7.086
 1730SOL    HW1 5642   0.759   2.037   7.045
 1730SOL    HW2 5643   0.697   2.089   7.173
 1731SOL     OW 5644   0.086   2.206   5.626
 1731SOL    HW1 5645   0.004   2.161   5.604
 1731SOL    HW2 5646   0.100   2.267   5.553
 1732SOL     OW 5647   1.428   2.720   6.985
 1732SOL    HW1 5648   1.379   2.781   6.930
 1732SOL    HW2 5649   1.517   2.723   6.951
 1733SOL     OW 5650   0.058   1.995   5.832
 1733SOL    HW1 5651   0.056   2.089   5.813
 1733SOL    HW2 5652   0.145   1.967   5.806
 1734SOL     OW 5653   1.179   3.199   5.703
 1734SOL    HW1 5654   1.088   3.170   5.705
 1734SOL    HW2 5655   1.206   3.200   5.795
 1735SOL     OW 5656   0.620   2.693   7.023
 1735SOL    HW1 5657   0.677   2.768   7.006
 1735SOL    HW2 5658   0.680   2.619   7.030
 1736SOL     OW 5659   1.483   3.642   6.567
 1736SOL    HW1 5660   1.506   3.704   6.498
 1736SOL    HW2 5661   1.567   3.619   6.608
 1737SOL     OW 5662   0.716   2.424   7.289
 1737SOL    HW1 5663   0.760   2.485   7.349
 1737SOL    HW2 5664   0.741   2.337   7.322
 1738SOL     OW 5665   1.473   3.059   7.217
 1738SOL    HW1 5666   1.461   3.073   7.311
 1738SOL    HW2 5667   1.566   3.076   7.202
 1739SOL     OW 5668   0.374   3.606   7.151
 1739SOL    HW1 5669   0.292   3.652   7.134
 1739SOL    HW2 5670   0.348   3.526   7.196
 1740SOL     OW 5671   1.668   2.743   6.841
 1740SOL    HW1 5672   1.661   2.657   6.797
 1740SOL    HW2 5673   1.657   2.806   6.770
 1741SOL     OW 5674   1.216   2.181   6.043
 1741SOL    HW1 5675   1.279   2.109   6.036
 1741SOL    HW2 5676   1.245   2.230   6.120
 1742SOL     OW 5677   0.588   2.597   6.256
 1742SOL    HW1 5678   0.628   2.684   6.242
 1742SOL    HW2 5679   0.520   2.591   6.190
 1743SOL     OW 5680   1.759   2.225   7.238
 1743SOL    HW1 5681   1.744   2.241   7.145
 1743SOL    HW2 5682   1.687   2.168   7.265
 1744SOL     OW 5683   1.744   2.795   7.098
 1744SOL    HW1 5684   1.740   2.890   7.112
 1744SOL    HW2 5685   1.729   2.784   7.004
 1745SOL     OW 5686   0.863   3.228   5.624
 1745SOL    HW1 5687   0.825   3.258   5.707
 1745SOL    HW2 5688   0.880   3.308   5.575
 1746SOL     OW 5689   0.665   3.653   6.526
 1746SOL    HW1 5690   0.645   3.744   6.505
 1746SOL    HW2 5691   0.760   3.648   6.521
 1747SOL     OW 5692   0.869   2.830   6.439
 1747SOL    HW1 5693   0.919   2.758   6.478
 1747SOL    HW2 5694   0.832   2.877   6.514
 1748SOL     OW 5695   1.077   2.849   5.675
 1748SOL    HW1 5696   1.056   2.901   5.597
 1748SOL    HW2 5697   1.152   2.796   5.648
 1749SOL     OW 5698   1.851   3.415   6.429
 1749SOL    HW1 5699   1.772   3.403   6.377
 1749SOL    HW2 5700   1.845   3.350   6.498
 1750SOL     OW 5701   0.227   3.165   7.447
 1750SOL    HW1 5702   0.157   3.105   7.420
 1750SOL    HW2 5703   0.213   3.176   7.541
 1751SOL     OW 5704   0.089   3.077   6.240
 1751SOL    HW1 5705   0.106   3.047   6.329
 1751SOL    HW2 5706   0.176   3.085   6.200
 1752SOL     OW 5707   0.682   3.266   7.216
 1752SOL    HW1 5708   0.601   3.225   7.247
 1752SOL    HW2 5709   0.679   3.355   7.252
 1753SOL     OW 5710   1.813   2.045   6.823
 1753SOL    HW1 5711   1.820   1.951   6.836
 1753SOL    HW2 5712   1.822   2.057   6.728
 1754SOL     OW 5713   0.436   2.298   6.110
 1754SOL    HW1 5714   0.464   2.225   6.054
 1754SOL    HW2 5715   0.388   2.256   6.181
 1755SOL     OW 5716   1.699   3.350   6.680
 1755SOL    HW1 5717   1.619   3.328   6.633
 1755SOL    HW2 5718   1.708   3.280   6.745
 1756SOL     OW 5719   0.339   2.424   6.878
 1756SOL    HW1 5720   0.392   2.365   6.932
 1756SOL    HW2 5721   0.352   2.394   6.789
 1757SOL     OW 5722   0.831   3.439   6.262
 1757SOL    HW1 5723   0.813   3.501   6.191
 1757SOL    HW2 5724   0.755   3.381   6.263
 1758SOL     OW 5725   1.431   2.089   6.704
 1758SOL    HW1 5726   1.453   2.007   6.748
 1758SOL    HW2 5727   1.380   2.138   6.767
 1759SOL     OW 5728   1.009   1.880   6.725
 1759SOL    HW1 5729   0.955   1.813   6.684
 1759SOL    HW2 5730   1.097   1.841   6.727
 1760SOL     OW 5731   0.772   3.195   5.905
 1760SOL    HW1 5732   0.745   3.104   5.911
 1760SOL    HW2 5733   0.854   3.199   5.954
 1761SOL     OW 5734   0.623   3.417   6.874
 1761SOL    HW1 5735   0.624   3.499   6.923
 1761SOL    HW2 5736   0.711   3.412   6.835
 1762SOL     OW 5737   1.354   1.915   5.754
 1762SOL    HW1 5738   1.384   1.848   5.693
 1762SOL    HW2 5739   1.266   1.887   5.778
 1763SOL     OW 5740   1.296   2.324   6.265
 1763SOL    HW1 5741   1.244   2.404   6.271
 1763SOL    HW2 5742   1.291   2.286   6.353
 1764SOL     OW 5743   1.586   2.061   6.466
 1764SOL    HW1 5744   1.527   2.084   6.538
 1764SOL    HW2 5745   1.585   2.139   6.410
 1765SOL     OW 5746   0.049   2.929   5.876
 1765SOL    HW1 5747   0.138   2.895   5.865
 1765SOL    HW2 5748   5.299   2.856   5.913
 1766SOL     OW 5749   0.888   3.517   5.925
 1766SOL    HW1 5750   0.814   3.502   5.867
 1766SOL    HW2 5751   0.861   3.591   5.980
 1767SOL     OW 5752   0.228   2.490   7.568
 1767SOL    HW1 5753   0.158   2.444   7.614
 1767SOL    HW2 5754   0.217   2.465   7.476
 1768SOL     OW 5755   1.769   2.457   7.678
 1768SOL    HW1 5756   1.748   2.454   7.585
 1768SOL    HW2 5757   1.728   2.379   7.715
 1769SOL     OW 5758   0.235   3.562   7.923
 1769SOL    HW1 5759   0.264   3.612   7.999
 1769SOL    HW2 5760   0.303   3.575   7.857
 1770SOL     OW 5761   0.214   3.297   7.993
 1770SOL    HW1 5762   0.213   3.392   7.978
 1770SOL    HW2 5763   0.153   3.284   8.065
 1771SOL     OW 5764   0.580   2.848   7.583
 1771SOL    HW1 5765   0.627   2.894   7.513
 1771SOL    HW2 5766   0.621   2.878   7.663
 1772SOL     OW 5767   1.838   3.620   7.797
 1772SOL    HW1 5768   1.910   3.590   7.852
 1772SOL    HW2 5769   1.862   3.708   7.770
 1773SOL     OW 5770   0.035   3.465   7.585
 1773SOL    HW1 5771   0.029   3.372   7.606
 1773SOL    HW2 5772   5.273   3.508   7.644
 1774SOL     OW 5773   1.679   2.723   8.034
 1774SOL    HW1 5774   1.759   2.734   0.006
 1774SOL    HW2 5775   1.668   2.807   7.989
 1775SOL     OW 5776   1.657   2.958   7.879
 1775SOL    HW1 5777   1.745   2.984   7.851
 1775SOL    HW2 5778   1.626   3.032   7.932
 1776SOL     OW 5779   0.798   1.858   7.937
 1776SOL    HW1 5780   0.849   1.938   7.919
 1776SOL    HW2 5781   0.708   1.889   7.947
 1777SOL     OW 5782   1.533   2.858   7.651
 1777SOL    HW1 5783   1.466   2.799   7.686
 1777SOL    HW2 5784   1.578   2.891   7.729
 1778SOL     OW 5785   0.588   2.585   7.708
 1778SOL    HW1 5786   0.594   2.668   7.660
 1778SOL    HW2 5787   0.535   2.606   7.785
 1779SOL     OW 5788   1.574   3.535   7.757
 1779SOL    HW1 5789   1.665   3.561   7.766
 1779SOL    HW2 5790   1.562   3.522   7.663
 1780SOL     OW 5791   0.057   2.690   0.195
 1780SOL    HW1 5792   0.118   2.619   0.173
 1780SOL    HW2 5793   0.036   2.730   0.111
 1781SOL     OW 5794   0.887   2.212   7.638
 1781SOL    HW1 5795   0.928   2.272   7.575
 1781SOL    HW2 5796   0.920   2.125   7.614
 1782SOL     OW 5797   0.315   2.808   7.694
 1782SOL    HW1 5798   0.396   2.836   7.650
 1782SOL    HW2 5799   0.294   2.725   7.653
 1783SOL     OW 5800   1.126   3.638   7.681
 1783SOL    HW1 5801   1.048   3.599   7.721
 1783SOL    HW2 5802   1.151   3.576   7.612
 1784SOL     OW 5803   1.628   3.243   7.535
 1784SOL    HW1 5804   1.586   3.328   7.521
 1784SOL    HW2 5805   1.559   3.179   7.516
 1785SOL     OW 5806   0.470   3.601   7.769
 1785SOL    HW1 5807   0.517   3.653   7.834
 1785SOL    HW2 5808   0.539   3.564   7.713
 1786SOL     OW 5809   1.418   1.996   7.864
 1786SOL    HW1 5810   1.407   1.961   7.776
 1786SOL    HW2 5811   1.513   1.996   7.878
 1787SOL     OW 5812   0.377   2.562   7.924
 1787SOL    HW1 5813   0.394   2.468   7.931
 1787SOL    HW2 5814   0.282   2.570   7.928
 1788SOL     OW 5815   0.631   1.979   7.559
 1788SOL    HW1 5816   0.704   1.918   7.569
 1788SOL    HW2 5817   0.586   1.949   7.479
 1789SOL     OW 5818   0.525   1.940   7.961
 1789SOL    HW1 5819   0.437   1.946   7.998
 1789SOL    HW2 5820   0.527   2.010   7.895
 1790SOL     OW 5821   1.428   3.061   7.489
 1790SOL    HW1 5822   1.458   2.987   7.542
 1790SOL    HW2 5823   1.343   3.085   7.527
 1791SOL     OW 5824   0.307   1.904   7.619
 1791SOL    HW1 5825   0.368   1.968   7.582
 1791SOL    HW2 5826   0.363   1.843   7.667
 1792SOL     OW 5827   0.944   2.087   7.908
 1792SOL    HW1 5828   0.902   2.152   7.852
 1792SOL    HW2 5829   1.035   2.116   7.914
 1793SOL     OW 5830   0.447   3.024   0.086
 1793SOL    HW1 5831   0.376   3.048   0.146
 1793SOL    HW2 5832   0.403   3.005   0.003
 1794SOL     OW 5833   1.293   3.675   8.013
 1794SOL    HW1 5834   1.329   3.744   7.958
 1794SOL    HW2 5835   1.204   3.706   8.035
 1795SOL     OW 5836   1.024   2.400   7.470
 1795SOL    HW1 5837   0.979   2.483   7.453
 1795SOL    HW2 5838   1.084   2.419   7.541
 1796SOL     OW 5839   1.870   2.678   7.799
 1796SOL    HW1 5840   1.862   2.654   7.892
 1796SOL    HW2 5841   1.834   2.604   7.752
 1797SOL     OW 5842   0.488   3.280   7.602
 1797SOL    HW1 5843   0.414   3.252   7.655
 1797SOL    HW2 5844   0.475   3.237   7.517
 1798SOL     OW 5845   1.394   2.434   7.518
 1798SOL    HW1 5846   1.332   2.413   7.588
 1798SOL    HW2 5847   1.478   2.403   7.550
 1799SOL     OW 5848   0.526   2.128   7.768
 1799SOL    HW1 5849   0.572   2.079   7.699
 1799SOL    HW2 5850   0.501   2.210   7.726
 1800SOL     OW 5851   0.711   2.924   7.812
 1800SOL    HW1 5852   0.691   2.911   7.905
 1800SOL    HW2 5853   0.789   2.871   7.797
 1801SOL     OW 5854   0.341   2.960   7.924
 1801SOL    HW1 5855   0.338   3.044   7.879
 1801SOL    HW2 5856   0.343   2.894   7.854
 1802SOL     OW 5857   1.220   3.219   7.821
 1802SOL    HW1 5858   1.279   3.290   7.843
 1802SOL    HW2 5859   1.193   3.184   7.906
 1803SOL     OW 5860   1.589   2.487   7.920
 1803SOL    HW1 5861   1.579   2.547   7.994
 1803SOL    HW2 5862   1.624   2.541   7.850
 1804SOL     OW 5863   1.202   2.387   7.711
 1804SOL    HW1 5864   1.201   2.305   7.762
 1804SOL    HW2 5865   1.185   2.455   7.776
 1805SOL     OW 5866   1.620   2.242   7.811
 1805SOL    HW1 5867   1.642   2.176   7.876
 1805SOL    HW2 5868   1.596   2.319   7.862
 1806SOL     OW 5869   1.529   2.136   7.574
 1806SOL    HW1 5870   1.463   2.071   7.600
 1806SOL    HW2 5871   1.561   2.172   7.657
 1807SOL     OW 5872   1.292   2.689   7.479
 1807SOL    HW1 5873   1.333   2.603   7.481
 1807SOL    HW2 5874   1.323   2.729   7.398
 1808SOL     OW 5875   0.005   3.194   7.655
 1808SOL    HW1 5876   5.225   3.190   7.602
 1808SOL    HW2 5877   0.014   3.106   7.692
 1809SOL     OW 5878   0.844   2.471   7.755
 1809SOL    HW1 5879   0.839   2.379   7.731
 1809SOL    HW2 5880   0.753   2.500   7.759
 1810SOL     OW 5881   0.460   2.355   7.637
 1810SOL    HW1 5882   0.521   2.426   7.654
 1810SOL    HW2 5883   0.376   2.399   7.620
 1811SOL     OW 5884   1.311   2.712   7.753
 1811SOL    HW1 5885   1.225   2.730   7.791
 1811SOL    HW2 5886   1.295   2.702   7.659
 1812SOL     OW 5887   1.713   2.012   7.944
 1812SOL    HW1 5888   1.788   2.006   7.886
 1812SOL    HW2 5889   1.717   1.933   7.998
 1813SOL     OW 5890   1.361   3.440   7.894
 1813SOL    HW1 5891   1.436   3.460   7.839
 1813SOL    HW2 5892   1.331   3.525   7.925
 1814SOL     OW 5893   0.668   3.483   7.603
 1814SOL    HW1 5894   0.680   3.496   7.509
 1814SOL    HW2 5895   0.613   3.404   7.609
 1815SOL     OW 5896   1.210   3.467   7.479
 1815SOL    HW1 5897   1.198   3.376   7.505
 1815SOL    HW2 5898   1.143   3.482   7.412
 1816SOL     OW 5899   0.923   2.767   7.756
 1816SOL    HW1 5900   0.977   2.791   7.680
 1816SOL    HW2 5901   0.917   2.672   7.751
 1817SOL     OW 5902   1.492   3.490   7.489
 1817SOL    HW1 5903   1.397   3.481   7.475
 1817SOL    HW2 5904   1.528   3.495   7.400
 1818SOL     OW 5905   0.611   3.371   7.935
 1818SOL    HW1 5906   0.656   3.311   7.875
 1818SOL    HW2 5907   0.534   3.400   7.886
 1819SOL     OW 5908   0.261   3.207   7.745
 1819SOL    HW1 5909   0.169   3.212   7.719
 1819SOL    HW2 5910   0.263   3.243   7.834
 1820SOL     OW 5911   0.085   2.196   7.487
 1820SOL    HW1 5912   5.299   2.161   7.466
 1820SOL    HW2 5913   0.101   2.263   7.420
 1821SOL     OW 5914   0.084   2.002   7.740
 1821SOL    HW1 5915   0.070   2.087   7.698
 1821SOL    HW2 5916   0.155   1.962   7.690
 1822SOL     OW 5917   1.174   3.199   7.556
 1822SOL    HW1 5918   1.081   3.175   7.554
 1822SOL    HW2 5919   1.195   3.205   7.649
 1823SOL     OW 5920   1.213   2.180   7.904
 1823SOL    HW1 5921   1.288   2.121   7.892
 1823SOL    HW2 5922   1.234   2.228   7.985
 1824SOL     OW 5923   0.626   2.607   8.042
 1824SOL    HW1 5924   0.628   2.680   0.024
 1824SOL    HW2 5925   0.534   2.599   8.017
 1825SOL     OW 5926   0.864   3.229   7.487
 1825SOL    HW1 5927   0.825   3.260   7.569
 1825SOL    HW2 5928   0.882   3.308   7.437
 1826SOL     OW 5929   1.070   2.837   7.538
 1826SOL    HW1 5930   1.052   2.896   7.465
 1826SOL    HW2 5931   1.148   2.789   7.511
 1827SOL     OW 5932   0.391   2.296   7.982
 1827SOL    HW1 5933   0.433   2.234   7.922
 1827SOL    HW2 5934   0.439   2.286   8.064
 1828SOL     OW 5935   0.764   3.199   7.767
 1828SOL    HW1 5936   0.737   3.107   7.767
 1828SOL    HW2 5937   0.848   3.199   7.814
 1829SOL     OW 5938   1.354   1.914   7.611
 1829SOL    HW1 5939   1.386   1.844   7.553
 1829SOL    HW2 5940   1.267   1.886   7.638
 1830SOL     OW 5941   0.049   2.931   7.720
 1830SOL    HW1 5942   0.138   2.895   7.717
 1830SOL    HW2 5943   0.002   2.872   7.779
 1831SOL     OW 5944   0.894   3.517   7.778
 1831SOL    HW1 5945   0.818   3.492   7.725
 1831SOL    HW2 5946   0.860   3.578   7.843
 1832SOL     OW 5947   0.223   4.341   0.118
 1832SOL    HW1 5948   0.155   4.293   0.166
 1832SOL    HW2 5949   0.229   4.297   0.034
 1833SOL     OW 5950   0.243   3.998   0.987
 1833SOL    HW1 5951   0.257   3.964   1.075
 1833SOL    HW2 5952   0.158   3.964   0.960
 1834SOL     OW 5953   5.294   4.123   0.648
 1834SOL    HW1 5954   5.203   4.151   0.656
 1834SOL    HW2 5955   5.288   4.029   0.629
 1835SOL     OW 5956   0.578   5.004   1.189
 1835SOL    HW1 5957   0.498   5.008   1.135
 1835SOL    HW2 5958   0.596   5.095   1.211
 1836SOL     OW 5959   1.558   5.234   0.688
 1836SOL    HW1 5960   1.538   5.230   0.781
 1836SOL    HW2 5961   1.479   5.269   0.647
 1837SOL     OW 5962   1.132   4.422   0.699
 1837SOL    HW1 5963   1.180   4.504   0.686
 1837SOL    HW2 5964   1.084   4.435   0.781
 1838SOL     OW 5965   1.771   4.323   0.232
 1838SOL    HW1 5966   1.730   4.327   0.146
 1838SOL    HW2 5967   1.732   4.247   0.274
 1839SOL     OW 5968   0.756   4.864   1.039
 1839SOL    HW1 5969   0.691   4.895   1.102
 1839SOL    HW2 5970   0.785   4.944   0.994
 1840SOL     OW 5971   0.871   4.493   1.823
 1840SOL    HW1 5972   0.859   4.565   1.886
 1840SOL    HW2 5973   0.894   4.537   1.741
 1841SOL     OW 5974   0.683   4.721   0.650
 1841SOL    HW1 5975   0.750   4.713   0.719
 1841SOL    HW2 5976   0.617   4.778   0.688
 1842SOL     OW 5977   0.708   4.870   1.815
 1842SOL    HW1 5978   0.757   4.949   1.839
 1842SOL    HW2 5979   0.627   4.902   1.777
 1843SOL     OW 5980   0.379   5.147   1.053
 1843SOL    HW1 5981   0.285   5.160   1.041
 1843SOL    HW2 5982   0.419   5.192   0.979
 1844SOL     OW 5983   1.454   5.222   1.349
 1844SOL    HW1 5984   1.509   5.294   1.379
 1844SOL    HW2 5985   1.386   5.213   1.416
 1845SOL     OW 5986   0.452   4.123   1.489
 1845SOL    HW1 5987   0.526   4.063   1.492
 1845SOL    HW2 5988   0.375   4.067   1.501
 1846SOL     OW 5989   1.610   4.169   0.742
 1846SOL    HW1 5990   1.535   4.190   0.686
 1846SOL    HW2 5991   1.619   4.246   0.798
 1847SOL     OW 5992   1.133   5.074   1.704
 1847SOL    HW1 5993   1.162   5.075   1.795
 1847SOL    HW2 5994   1.080   4.995   1.696
 1848SOL     OW 5995   0.208   5.151   0.533
 1848SOL    HW1 5996   0.254   5.227   0.567
 1848SOL    HW2 5997   0.125   5.150   0.580
 1849SOL     OW 5998   0.256   4.799   0.876
 1849SOL    HW1 5999   0.265   4.710   0.909
 1849SOL    HW2 6000   0.197   4.842   0.938
 1850SOL     OW 6001   0.615   4.682   0.142
 1850SOL    HW1 6002   0.572   4.761   0.110
 1850SOL    HW2 6003   0.671   4.712   0.213
 1851SOL     OW 6004   1.596   3.849   1.466
 1851SOL    HW1 6005   1.611   3.930   1.417
 1851SOL    HW2 6006   1.579   3.878   1.556
 1852SOL     OW 6007   0.133   4.352   0.582
 1852SOL    HW1 6008   0.086   4.274   0.611
 1852SOL    HW2 6009   0.101   4.422   0.639
 1853SOL     OW 6010   0.013   5.290   0.070
 1853SOL    HW1 6011   0.020   5.207   0.116
 1853SOL    HW2 6012   0.043   0.055   0.133
 1854SOL     OW 6013   1.687   4.642   0.645
 1854SOL    HW1 6014   1.769   4.598   0.622
 1854SOL    HW2 6015   1.665   4.694   0.568
 1855SOL     OW 6016   1.647   4.828   0.434
 1855SOL    HW1 6017   1.730   4.836   0.387
 1855SOL    HW2 6018   1.654   4.890   0.506
 1856SOL     OW 6019   0.134   4.473   1.584
 1856SOL    HW1 6020   0.228   4.488   1.582
 1856SOL    HW2 6021   0.096   4.559   1.598
 1857SOL     OW 6022   0.627   5.099   0.740
 1857SOL    HW1 6023   0.571   5.022   0.735
 1857SOL    HW2 6024   0.605   5.149   0.661
 1858SOL     OW 6025   1.288   4.952   1.426
 1858SOL    HW1 6026   1.321   4.886   1.364
 1858SOL    HW2 6027   1.349   4.949   1.499
 1859SOL     OW 6028   0.826   3.728   0.515
 1859SOL    HW1 6029   0.865   3.812   0.490
 1859SOL    HW2 6030   0.732   3.745   0.519
 1860SOL     OW 6031   0.171   4.663   1.284
 1860SOL    HW1 6032   0.261   4.631   1.272
 1860SOL    HW2 6033   0.135   4.666   1.196
 1861SOL     OW 6034   1.505   4.738   0.212
 1861SOL    HW1 6035   1.444   4.672   0.246
 1861SOL    HW2 6036   1.560   4.761   0.287
 1862SOL     OW 6037   0.342   3.978   1.824
 1862SOL    HW1 6038   0.387   4.061   1.838
 1862SOL    HW2 6039   0.253   3.993   1.855
 1863SOL     OW 6040   1.480   5.148   0.962
 1863SOL    HW1 6041   1.406   5.160   1.022
 1863SOL    HW2 6042   1.467   5.059   0.927
 1864SOL     OW 6043   0.597   4.435   0.282
 1864SOL    HW1 6044   0.616   4.517   0.237
 1864SOL    HW2 6045   0.534   4.458   0.350
 1865SOL     OW 6046   1.279   4.082   0.933
 1865SOL    HW1 6047   1.189   4.048   0.942
 1865SOL    HW2 6048   1.330   4.028   0.993
 1866SOL     OW 6049   0.791   4.341   1.450
 1866SOL    HW1 6050   0.765   4.317   1.538
 1866SOL    HW2 6051   0.754   4.274   1.393
 1867SOL     OW 6052   1.393   4.198   1.678
 1867SOL    HW1 6053   1.396   4.243   1.762
 1867SOL    HW2 6054   1.452   4.124   1.688
 1868SOL     OW 6055   0.953   4.611   1.585
 1868SOL    HW1 6056   1.008   4.541   1.548
 1868SOL    HW2 6057   0.904   4.645   1.509
 1869SOL     OW 6058   0.992   4.136   1.237
 1869SOL    HW1 6059   0.905   4.155   1.270
 1869SOL    HW2 6060   0.977   4.091   1.154
 1870SOL     OW 6061   1.054   4.423   0.427
 1870SOL    HW1 6062   1.070   4.417   0.522
 1870SOL    HW2 6063   0.971   4.378   0.414
 1871SOL     OW 6064   0.063   4.514   0.817
 1871SOL    HW1 6065   0.147   4.516   0.864
 1871SOL    HW2 6066   0.069   4.585   0.754
 1872SOL     OW 6067   0.886   4.081   0.203
 1872SOL    HW1 6068   0.931   4.132   0.135
 1872SOL    HW2 6069   0.886   3.991   0.170
 1873SOL     OW 6070   1.706   4.296   1.829
 1873SOL    HW1 6071   1.669   4.370   1.779
 1873SOL    HW2 6072   1.735   4.235   1.761
 1874SOL     OW 6073   1.378   4.863   0.538
 1874SOL    HW1 6074   1.459   4.851   0.489
 1874SOL    HW2 6075   1.327   4.926   0.486
 1875SOL     OW 6076   0.557   3.907   0.895
 1875SOL    HW1 6077   0.554   3.935   0.986
 1875SOL    HW2 6078   0.553   3.988   0.844
 1876SOL     OW 6079   1.016   5.159   0.472
 1876SOL    HW1 6080   0.944   5.223   0.476
 1876SOL    HW2 6081   1.038   5.143   0.564
 1877SOL     OW 6082   1.801   4.779   0.867
 1877SOL    HW1 6083   1.745   4.759   0.793
 1877SOL    HW2 6084   1.741   4.786   0.941
 1878SOL     OW 6085   1.251   5.240   1.527
 1878SOL    HW1 6086   1.216   5.173   1.585
 1878SOL    HW2 6087   1.178   5.264   1.470
 1879SOL     OW 6088   0.330   4.673   0.253
 1879SOL    HW1 6089   0.412   4.681   0.205
 1879SOL    HW2 6090   0.312   4.580   0.256
 1880SOL     OW 6091   1.480   4.468   0.725
 1880SOL    HW1 6092   1.474   4.428   0.811
 1880SOL    HW2 6093   1.557   4.525   0.730
 1881SOL     OW 6094   0.463   4.990   1.745
 1881SOL    HW1 6095   0.438   4.993   1.653
 1881SOL    HW2 6096   0.380   4.990   1.792
 1882SOL     OW 6097   1.161   0.156   0.235
 1882SOL    HW1 6098   1.080   0.177   0.280
 1882SOL    HW2 6099   1.133   0.131   0.147
 1883SOL     OW 6100   0.206   4.001   1.497
 1883SOL    HW1 6101   0.128   4.054   1.479
 1883SOL    HW2 6102   0.172   3.921   1.536
 1884SOL     OW 6103   1.630   5.094   0.077
 1884SOL    HW1 6104   1.591   5.179   0.096
 1884SOL    HW2 6105   1.556   5.036   0.061
 1885SOL     OW 6106   1.408   3.835   0.448
 1885SOL    HW1 6107   1.400   3.813   0.355
 1885SOL    HW2 6108   1.502   3.842   0.463
 1886SOL     OW 6109   0.382   4.422   0.474
 1886SOL    HW1 6110   0.413   4.332   0.485
 1886SOL    HW2 6111   0.290   4.420   0.501
 1887SOL     OW 6112   1.532   3.949   1.725
 1887SOL    HW1 6113   1.542   3.969   1.818
 1887SOL    HW2 6114   1.463   3.883   1.722
 1888SOL     OW 6115   0.629   3.833   0.139
 1888SOL    HW1 6116   0.724   3.821   0.143
 1888SOL    HW2 6117   0.606   3.814   0.048
 1889SOL     OW 6118   0.765   4.003   1.755
 1889SOL    HW1 6119   0.843   3.947   1.754
 1889SOL    HW2 6120   0.718   3.975   1.834
 1890SOL     OW 6121   1.339   4.313   1.432
 1890SOL    HW1 6122   1.370   4.282   1.517
 1890SOL    HW2 6123   1.376   4.401   1.424
 1891SOL     OW 6124   0.816   5.116   0.939
 1891SOL    HW1 6125   0.896   5.104   0.888
 1891SOL    HW2 6126   0.747   5.124   0.874
 1892SOL     OW 6127   0.929   4.234   0.901
 1892SOL    HW1 6128   0.904   4.225   0.809
 1892SOL    HW2 6129   0.958   4.146   0.926
 1893SOL     OW 6130   0.562   3.785   0.499
 1893SOL    HW1 6131   0.487   3.785   0.558
 1893SOL    HW2 6132   0.550   3.864   0.446
 1894SOL     OW 6133   1.424   4.926   0.033
 1894SOL    HW1 6134   1.451   4.853   0.089
 1894SOL    HW2 6135   1.338   4.952   0.067
 1895SOL     OW 6136   0.315   3.774   0.178
 1895SOL    HW1 6137   0.382   3.842   0.185
 1895SOL    HW2 6138   0.356   3.697   0.220
 1896SOL     OW 6139   0.943   3.973   0.457
 1896SOL    HW1 6140   0.916   4.014   0.375
 1896SOL    HW2 6141   1.037   3.990   0.462
 1897SOL     OW 6142   1.080   4.406   1.459
 1897SOL    HW1 6143   1.012   4.339   1.463
 1897SOL    HW2 6144   1.162   4.358   1.452
 1898SOL     OW 6145   1.263   5.264   0.779
 1898SOL    HW1 6146   1.217   0.043   0.750
 1898SOL    HW2 6147   1.309   5.291   0.859
 1899SOL     OW 6148   0.467   4.876   0.725
 1899SOL    HW1 6149   0.399   4.854   0.789
 1899SOL    HW2 6150   0.426   4.858   0.640
 1900SOL     OW 6151   1.031   4.248   0.034
 1900SOL    HW1 6152   0.992   4.330   0.005
 1900SOL    HW2 6153   1.094   4.273   0.101
 1901SOL     OW 6154   0.091   4.266   1.399
 1901SOL    HW1 6155   0.178   4.275   1.362
 1901SOL    HW2 6156   0.080   4.343   1.455
 1902SOL     OW 6157   0.560   3.952   1.168
 1902SOL    HW1 6158   0.598   3.873   1.207
 1902SOL    HW2 6159   0.468   3.951   1.195
 1903SOL     OW 6160   0.867   4.182   0.639
 1903SOL    HW1 6161   0.825   4.238   0.574
 1903SOL    HW2 6162   0.889   4.102   0.591
 1904SOL     OW 6163   1.017   3.777   0.748
 1904SOL    HW1 6164   0.957   3.771   0.674
 1904SOL    HW2 6165   0.994   3.702   0.804
 1905SOL     OW 6166   1.440   4.890   0.859
 1905SOL    HW1 6167   1.371   4.824   0.856
 1905SOL    HW2 6168   1.464   4.902   0.767
 1906SOL     OW 6169   1.466   4.331   0.972
 1906SOL    HW1 6170   1.412   4.252   0.976
 1906SOL    HW2 6171   1.524   4.324   1.048
 1907SOL     OW 6172   1.848   4.537   0.388
 1907SOL    HW1 6173   1.901   4.485   0.448
 1907SOL    HW2 6174   1.818   4.474   0.323
 1908SOL     OW 6175   0.472   5.158   0.155
 1908SOL    HW1 6176   0.420   5.112   0.220
 1908SOL    HW2 6177   0.506   5.089   0.098
 1909SOL     OW 6178   1.672   4.988   0.646
 1909SOL    HW1 6179   1.765   4.995   0.665
 1909SOL    HW2 6180   1.638   5.076   0.661
 1910SOL     OW 6181   1.398   4.299   0.088
 1910SOL    HW1 6182   1.336   4.282   0.159
 1910SOL    HW2 6183   1.450   4.219   0.082
 1911SOL     OW 6184   0.513   3.988   0.322
 1911SOL    HW1 6185   0.565   3.936   0.261
 1911SOL    HW2 6186   0.498   4.071   0.277
 1912SOL     OW 6187   1.750   4.960   1.571
 1912SOL    HW1 6188   1.835   4.917   1.572
 1912SOL    HW2 6189   1.770   5.053   1.582
 1913SOL     OW 6190   1.064   5.074   1.330
 1913SOL    HW1 6191   0.985   5.048   1.377
 1913SOL    HW2 6192   1.135   5.034   1.380
 1914SOL     OW 6193   1.129   4.927   1.107
 1914SOL    HW1 6194   1.079   4.969   1.177
 1914SOL    HW2 6195   1.082   4.951   1.027
 1915SOL     OW 6196   1.627   4.821   1.076
 1915SOL    HW1 6197   1.622   4.883   1.148
 1915SOL    HW2 6198   1.551   4.841   1.022
 1916SOL     OW 6199   0.919   3.819   1.395
 1916SOL    HW1 6200   0.941   3.801   1.303
 1916SOL    HW2 6201   0.998   3.859   1.431
 1917SOL     OW 6202   0.984   4.839   1.726
 1917SOL    HW1 6203   0.892   4.855   1.745
 1917SOL    HW2 6204   0.984   4.763   1.669
 1918SOL     OW 6205   0.712   4.784   0.382
 1918SOL    HW1 6206   0.695   4.766   0.474
 1918SOL    HW2 6207   0.792   4.735   0.362
 1919SOL     OW 6208   0.421   4.545   1.253
 1919SOL    HW1 6209   0.490   4.552   1.319
 1919SOL    HW2 6210   0.387   4.456   1.263
 1920SOL     OW 6211   1.264   4.100   1.277
 1920SOL    HW1 6212   1.297   4.177   1.323
 1920SOL    HW2 6213   1.173   4.121   1.256
 1921SOL     OW 6214   0.111   5.289   1.318
 1921SOL    HW1 6215   0.050   0.040   1.371
 1921SOL    HW2 6216   0.189   5.280   1.374
 1922SOL     OW 6217   0.346   4.830   0.484
 1922SOL    HW1 6218   0.335   4.909   0.431
 1922SOL    HW2 6219   0.354   4.759   0.420
 1923SOL     OW 6220   0.552   4.257   0.858
 1923SOL    HW1 6221   0.566   4.316   0.784
 1923SOL    HW2 6222   0.617   4.283   0.923
 1924SOL     OW 6223   1.258   5.074   0.383
 1924SOL    HW1 6224   1.312   5.149   0.408
 1924SOL    HW2 6225   1.169   5.098   0.411
 1925SOL     OW 6226   1.272   5.183   1.141
 1925SOL    HW1 6227   1.331   5.197   1.216
 1925SOL    HW2 6228   1.228   5.100   1.160
 1926SOL     OW 6229   1.580   4.345   0.485
 1926SOL    HW1 6230   1.530   4.393   0.551
 1926SOL    HW2 6231   1.613   4.413   0.426
 1927SOL     OW 6232   0.383   5.229   1.314
 1927SOL    HW1 6233   0.368   5.192   1.227
 1927SOL    HW2 6234   0.474   5.256   1.314
 1928SOL     OW 6235   0.416   4.466   1.602
 1928SOL    HW1 6236   0.478   4.511   1.545
 1928SOL    HW2 6237   0.454   4.379   1.615
 1929SOL     OW 6238   1.605   4.504   1.684
 1929SOL    HW1 6239   1.519   4.545   1.678
 1929SOL    HW2 6240   1.657   4.546   1.616
 1930SOL     OW 6241   0.996   3.852   1.755
 1930SOL    HW1 6242   1.054   3.924   1.730
 1930SOL    HW2 6243   1.044   3.773   1.729
 1931SOL     OW 6244   0.496   3.763   1.749
 1931SOL    HW1 6245   0.452   3.711   1.683
 1931SOL    HW2 6246   0.439   3.839   1.763
 1932SOL     OW 6247   0.586   4.597   1.033
 1932SOL    HW1 6248   0.616   4.688   1.031
 1932SOL    HW2 6249   0.529   4.592   1.109
 1933SOL     OW 6250   1.353   4.582   1.024
 1933SOL    HW1 6251   1.268   4.569   0.982
 1933SOL    HW2 6252   1.397   4.497   1.017
 1934SOL     OW 6253   1.201   4.251   0.270
 1934SOL    HW1 6254   1.209   4.173   0.324
 1934SOL    HW2 6255   1.158   4.315   0.327
 1935SOL     OW 6256   0.301   3.927   1.247
 1935SOL    HW1 6257   0.267   3.950   1.333
 1935SOL    HW2 6258   0.290   3.832   1.241
 1936SOL     OW 6259   0.041   5.021   1.275
 1936SOL    HW1 6260   0.072   4.972   1.352
 1936SOL    HW2 6261   0.044   5.113   1.302
 1937SOL     OW 6262   0.722   4.354   1.056
 1937SOL    HW1 6263   0.798   4.340   0.999
 1937SOL    HW2 6264   0.694   4.443   1.036
 1938SOL     OW 6265   1.736   4.684   1.855
 1938SOL    HW1 6266   1.692   4.619   1.800
 1938SOL    HW2 6267   1.676   4.699   1.927
 1939SOL     OW 6268   0.325   3.787   0.635
 1939SOL    HW1 6269   0.310   3.877   0.663
 1939SOL    HW2 6270   0.333   3.737   0.716
 1940SOL     OW 6271   1.625   4.102   0.367
 1940SOL    HW1 6272   1.649   4.035   0.432
 1940SOL    HW2 6273   1.599   4.178   0.419
 1941SOL     OW 6274   1.029   4.482   0.960
 1941SOL    HW1 6275   1.022   4.499   1.054
 1941SOL    HW2 6276   1.002   4.391   0.950
 1942SOL     OW 6277   1.854   5.213   1.581
 1942SOL    HW1 6278   1.842   5.292   1.529
 1942SOL    HW2 6279   1.924   5.235   1.642
 1943SOL     OW 6280   0.355   4.643   1.806
 1943SOL    HW1 6281   0.436   4.660   1.855
 1943SOL    HW2 6282   0.381   4.577   1.741
 1944SOL     OW 6283   1.511   4.031   0.127
 1944SOL    HW1 6284   1.465   3.949   0.143
 1944SOL    HW2 6285   1.555   4.050   0.210
 1945SOL     OW 6286   1.296   4.545   0.018
 1945SOL    HW1 6287   1.333   4.459   0.036
 1945SOL    HW2 6288   1.360   4.587   8.040
 1946SOL     OW 6289   1.057   5.082   0.822
 1946SOL    HW1 6290   1.064   4.996   0.781
 1946SOL    HW2 6291   1.144   5.121   0.810
 1947SOL     OW 6292   0.314   4.531   0.947
 1947SOL    HW1 6293   0.408   4.549   0.945
 1947SOL    HW2 6294   0.307   4.441   0.980
 1948SOL     OW 6295   0.333   4.250   1.016
 1948SOL    HW1 6296   0.298   4.162   1.002
 1948SOL    HW2 6297   0.408   4.256   0.957
 1949SOL     OW 6298   1.134   4.098   1.684
 1949SOL    HW1 6299   1.085   4.153   1.746
 1949SOL    HW2 6300   1.221   4.137   1.680
 1950SOL     OW 6301   1.161   3.924   1.471
 1950SOL    HW1 6302   1.150   3.987   1.542
 1950SOL    HW2 6303   1.202   3.975   1.401
 1951SOL     OW 6304   0.013   5.049   0.197
 1951SOL    HW1 6305   5.223   5.050   0.163
 1951SOL    HW2 6306   0.019   4.965   0.244
 1952SOL     OW 6307   0.978   4.513   1.225
 1952SOL    HW1 6308   1.036   4.493   1.298
 1952SOL    HW2 6309   0.894   4.475   1.250
 1953SOL     OW 6310   0.030   4.279   1.116
 1953SOL    HW1 6311   0.120   4.268   1.085
 1953SOL    HW2 6312   0.036   4.267   1.211
 1954SOL     OW 6313   0.172   4.238   1.712
 1954SOL    HW1 6314   0.235   4.197   1.652
 1954SOL    HW2 6315   0.147   4.320   1.670
 1955SOL     OW 6316   1.378   4.660   1.657
 1955SOL    HW1 6317   1.399   4.753   1.654
 1955SOL    HW2 6318   1.374   4.632   1.566
 1956SOL     OW 6319   0.820   4.293   0.370
 1956SOL    HW1 6320   0.830   4.221   0.308
 1956SOL    HW2 6321   0.743   4.342   0.340
 1957SOL     OW 6322   1.641   4.325   1.183
 1957SOL    HW1 6323   1.631   4.267   1.258
 1957SOL    HW2 6324   1.729   4.306   1.149
 1958SOL     OW 6325   0.208   5.277   1.731
 1958SOL    HW1 6326   0.165   0.018   1.807
 1958SOL    HW2 6327   0.212   5.184   1.754
 1959SOL     OW 6328   0.707   4.172   1.257
 1959SOL    HW1 6329   0.652   4.098   1.229
 1959SOL    HW2 6330   0.701   4.235   1.185
 1960SOL     OW 6331   0.468   4.214   0.177
 1960SOL    HW1 6332   0.532   4.280   0.202
 1960SOL    HW2 6333   0.384   4.260   0.178
 1961SOL     OW 6334   0.149   4.861   1.472
 1961SOL    HW1 6335   0.145   4.813   1.555
 1961SOL    HW2 6336   0.158   4.792   1.406
 1962SOL     OW 6337   1.325   4.767   1.221
 1962SOL    HW1 6338   1.347   4.705   1.151
 1962SOL    HW2 6339   1.255   4.822   1.183
 1963SOL     OW 6340   1.307   4.572   0.307
 1963SOL    HW1 6341   1.231   4.542   0.358
 1963SOL    HW2 6342   1.282   4.559   0.216
 1964SOL     OW 6343   0.073   4.910   1.032
 1964SOL    HW1 6344   0.061   4.953   1.116
 1964SOL    HW2 6345   5.288   4.917   0.989
 1965SOL     OW 6346   0.754   0.035   1.708
 1965SOL    HW1 6347   0.662   0.057   1.717
 1965SOL    HW2 6348   0.776   0.059   1.618
 1966SOL     OW 6349   0.905   3.816   0.130
 1966SOL    HW1 6350   0.918   3.798   0.037
 1966SOL    HW2 6351   0.972   3.763   0.175
 1967SOL     OW 6352   1.720   3.872   0.508
 1967SOL    HW1 6353   1.791   3.855   0.446
 1967SOL    HW2 6354   1.704   3.788   0.550
 1968SOL     OW 6355   1.277   4.650   0.672
 1968SOL    HW1 6356   1.351   4.590   0.680
 1968SOL    HW2 6357   1.311   4.722   0.618
 1969SOL     OW 6358   0.814   4.993   1.413
 1969SOL    HW1 6359   0.781   5.028   1.496
 1969SOL    HW2 6360   0.740   4.998   1.353
 1970SOL     OW 6361   1.842   3.896   0.966
 1970SOL    HW1 6362   1.870   3.808   0.940
 1970SOL    HW2 6363   1.755   3.905   0.926
 1971SOL     OW 6364   0.271   4.041   0.715
 1971SOL    HW1 6365   0.188   4.085   0.698
 1971SOL    HW2 6366   0.273   4.030   0.810
 1972SOL     OW 6367   1.137   0.017   0.000
 1972SOL    HW1 6368   1.152   5.227   0.031
 1972SOL    HW2 6369   1.146   0.011   7.985
 1973SOL     OW 6370   0.826   4.726   1.371
 1973SOL    HW1 6371   0.871   4.717   1.288
 1973SOL    HW2 6372   0.828   4.820   1.390
 1974SOL     OW 6373   0.919   4.638   0.299
 1974SOL    HW1 6374   0.974   4.664   0.225
 1974SOL    HW2 6375   0.968   4.567   0.342
 1975SOL     OW 6376   0.365   5.028   1.502
 1975SOL    HW1 6377   0.368   5.096   1.434
 1975SOL    HW2 6378   0.291   4.974   1.477
 1976SOL     OW 6379   1.613   5.004   1.282
 1976SOL    HW1 6380   1.668   4.995   1.360
 1976SOL    HW2 6381   1.549   5.072   1.305
 1977SOL     OW 6382   1.059   4.835   0.715
 1977SOL    HW1 6383   0.986   4.784   0.750
 1977SOL    HW2 6384   1.121   4.769   0.683
 1978SOL     OW 6385   1.023   3.965   0.966
 1978SOL    HW1 6386   1.018   3.918   0.883
 1978SOL    HW2 6387   1.017   3.897   1.033
 1979SOL     OW 6388   1.724   4.116   1.380
 1979SOL    HW1 6389   1.796   4.179   1.380
 1979SOL    HW2 6390   1.754   4.045   1.324
 1980SOL     OW 6391   0.272   5.034   0.298
 1980SOL    HW1 6392   0.190   5.045   0.249
 1980SOL    HW2 6393   0.258   5.082   0.380
 1981SOL     OW 6394   0.118   4.743   1.720
 1981SOL    HW1 6395   0.047   4.704   1.771
 1981SOL    HW2 6396   0.198   4.710   1.760
 1982SOL     OW 6397   0.675   3.920   1.500
 1982SOL    HW1 6398   0.759   3.899   1.459
 1982SOL    HW2 6399   0.698   3.952   1.587
 1983SOL     OW 6400   0.044   4.110   0.026
 1983SOL    HW1 6401   0.018   4.030   0.071
 1983SOL    HW2 6402   0.127   4.088   8.063
 1984SOL     OW 6403   1.428   4.581   1.399
 1984SOL    HW1 6404   1.379   4.642   1.343
 1984SOL    HW2 6405   1.517   4.584   1.364
 1985SOL     OW 6406   0.054   3.860   0.209
 1985SOL    HW1 6407   0.056   3.943   0.257
 1985SOL    HW2 6408   0.146   3.835   0.202
 1986SOL     OW 6409   1.183   5.062   0.109
 1986SOL    HW1 6410   1.088   5.050   0.105
 1986SOL    HW2 6411   1.203   5.058   0.203
 1987SOL     OW 6412   0.620   4.555   1.437
 1987SOL    HW1 6413   0.677   4.630   1.420
 1987SOL    HW2 6414   0.680   4.480   1.444
 1988SOL     OW 6415   0.718   4.286   1.703
 1988SOL    HW1 6416   0.761   4.347   1.763
 1988SOL    HW2 6417   0.741   4.199   1.736
 1989SOL     OW 6418   1.476   4.919   1.629
 1989SOL    HW1 6419   1.462   4.933   1.723
 1989SOL    HW2 6420   1.569   4.935   1.616
 1990SOL     OW 6421   1.667   4.605   1.255
 1990SOL    HW1 6422   1.662   4.519   1.211
 1990SOL    HW2 6423   1.657   4.668   1.184
 1991SOL     OW 6424   1.217   4.042   0.460
 1991SOL    HW1 6425   1.281   3.971   0.454
 1991SOL    HW2 6426   1.244   4.093   0.536
 1992SOL     OW 6427   0.587   4.458   0.670
 1992SOL    HW1 6428   0.626   4.545   0.658
 1992SOL    HW2 6429   0.517   4.454   0.605
 1993SOL     OW 6430   1.760   4.087   1.652
 1993SOL    HW1 6431   1.744   4.103   1.559
 1993SOL    HW2 6432   1.687   4.030   1.679
 1994SOL     OW 6433   1.746   4.657   1.511
 1994SOL    HW1 6434   1.737   4.752   1.524
 1994SOL    HW2 6435   1.730   4.644   1.418
 1995SOL     OW 6436   0.914   5.094   0.038
 1995SOL    HW1 6437   0.855   5.074   0.111
 1995SOL    HW2 6438   0.865   5.155   8.063
 1996SOL     OW 6439   0.870   4.693   0.854
 1996SOL    HW1 6440   0.919   4.620   0.894
 1996SOL    HW2 6441   0.833   4.740   0.928
 1997SOL     OW 6442   1.079   4.699   0.087
 1997SOL    HW1 6443   1.061   4.757   0.014
 1997SOL    HW2 6444   1.156   4.648   0.059
 1998SOL     OW 6445   0.218   5.022   1.855
 1998SOL    HW1 6446   0.156   4.951   1.837
 1998SOL    HW2 6447   0.216   5.032   1.950
 1999SOL     OW 6448   0.084   4.921   0.655
 1999SOL    HW1 6449   0.112   4.899   0.744
 1999SOL    HW2 6450   0.164   4.955   0.613
 2000SOL     OW 6451   0.675   5.100   1.610
 2000SOL    HW1 6452   0.596   5.072   1.656
 2000SOL    HW2 6453   0.708   5.173   1.662
 2001SOL     OW 6454   1.812   3.907   1.237
 2001SOL    HW1 6455   1.821   3.813   1.251
 2001SOL    HW2 6456   1.822   3.919   1.143
 2002SOL     OW 6457   0.434   4.164   0.524
 2002SOL    HW1 6458   0.463   4.091   0.469
 2002SOL    HW2 6459   0.387   4.123   0.596
 2003SOL     OW 6460   1.706   5.225   1.118
 2003SOL    HW1 6461   1.633   5.209   1.059
 2003SOL    HW2 6462   1.712   5.146   1.172
 2004SOL     OW 6463   0.339   4.286   1.292
 2004SOL    HW1 6464   0.392   4.227   1.346
 2004SOL    HW2 6465   0.352   4.255   1.203
 2005SOL     OW 6466   1.431   3.951   1.118
 2005SOL    HW1 6467   1.453   3.870   1.163
 2005SOL    HW2 6468   1.379   4.000   1.181
 2006SOL     OW 6469   1.009   3.742   1.139
 2006SOL    HW1 6470   0.954   3.675   1.098
 2006SOL    HW2 6471   1.097   3.703   1.141
 2007SOL     OW 6472   0.799   5.037   0.281
 2007SOL    HW1 6473   0.747   4.962   0.309
 2007SOL    HW2 6474   0.855   5.057   0.356
 2008SOL     OW 6475   0.642   0.004   1.290
 2008SOL    HW1 6476   0.645   0.058   1.369
 2008SOL    HW2 6477   0.734   5.287   1.270
 2009SOL     OW 6478   1.356   3.779   0.187
 2009SOL    HW1 6479   1.376   3.732   0.105
 2009SOL    HW2 6480   1.270   3.747   0.212
 2010SOL     OW 6481   1.296   4.187   0.680
 2010SOL    HW1 6482   1.244   4.266   0.686
 2010SOL    HW2 6483   1.291   4.148   0.767
 2011SOL     OW 6484   1.586   3.923   0.880
 2011SOL    HW1 6485   1.527   3.945   0.953
 2011SOL    HW2 6486   1.585   4.000   0.824
 2012SOL     OW 6487   0.043   4.802   0.310
 2012SOL    HW1 6488   0.133   4.774   0.296
 2012SOL    HW2 6489   5.294   4.720   0.320
 2013SOL     OW 6490   0.233   4.353   1.979
 2013SOL    HW1 6491   0.163   4.316   2.032
 2013SOL    HW2 6492   0.215   4.323   1.890
 2014SOL     OW 6493   0.244   3.999   2.850
 2014SOL    HW1 6494   0.257   3.964   2.938
 2014SOL    HW2 6495   0.159   3.965   2.823
 2015SOL     OW 6496   5.297   4.124   2.517
 2015SOL    HW1 6497   5.204   4.146   2.520
 2015SOL    HW2 6498   5.299   4.034   2.482
 2016SOL     OW 6499   0.578   5.004   3.050
 2016SOL    HW1 6500   0.498   5.008   2.998
 2016SOL    HW2 6501   0.596   5.095   3.074
 2017SOL     OW 6502   1.557   5.233   2.551
 2017SOL    HW1 6503   1.542   5.229   2.645
 2017SOL    HW2 6504   1.476   5.268   2.515
 2018SOL     OW 6505   1.131   4.422   2.560
 2018SOL    HW1 6506   1.179   4.504   2.547
 2018SOL    HW2 6507   1.084   4.435   2.642
 2019SOL     OW 6508   1.770   4.327   2.089
 2019SOL    HW1 6509   1.747   4.320   1.996
 2019SOL    HW2 6510   1.733   4.248   2.129
 2020SOL     OW 6511   0.756   4.864   2.900
 2020SOL    HW1 6512   0.691   4.895   2.964
 2020SOL    HW2 6513   0.785   4.944   2.856
 2021SOL     OW 6514   0.872   4.493   3.685
 2021SOL    HW1 6515   0.859   4.565   3.748
 2021SOL    HW2 6516   0.894   4.537   3.603
 2022SOL     OW 6517   0.685   4.723   2.508
 2022SOL    HW1 6518   0.751   4.714   2.577
 2022SOL    HW2 6519   0.618   4.779   2.547
 2023SOL     OW 6520   0.708   4.870   3.677
 2023SOL    HW1 6521   0.757   4.949   3.701
 2023SOL    HW2 6522   0.627   4.902   3.639
 2024SOL     OW 6523   0.379   5.147   2.915
 2024SOL    HW1 6524   0.285   5.160   2.903
 2024SOL    HW2 6525   0.419   5.193   2.842
 2025SOL     OW 6526   1.454   5.222   3.210
 2025SOL    HW1 6527   1.509   5.294   3.241
 2025SOL    HW2 6528   1.386   5.213   3.278
 2026SOL     OW 6529   0.452   4.123   3.351
 2026SOL    HW1 6530   0.526   4.063   3.354
 2026SOL    HW2 6531   0.375   4.067   3.363
 2027SOL     OW 6532   1.610   4.169   2.604
 2027SOL    HW1 6533   1.536   4.190   2.547
 2027SOL    HW2 6534   1.620   4.247   2.659
 2028SOL     OW 6535   1.133   5.074   3.566
 2028SOL    HW1 6536   1.162   5.075   3.657
 2028SOL    HW2 6537   1.080   4.995   3.558
 2029SOL     OW 6538   0.211   5.151   2.399
 2029SOL    HW1 6539   0.255   5.229   2.434
 2029SOL    HW2 6540   0.127   5.148   2.445
 2030SOL     OW 6541   0.254   4.797   2.736
 2030SOL    HW1 6542   0.267   4.709   2.772
 2030SOL    HW2 6543   0.197   4.841   2.799
 2031SOL     OW 6544   0.579   4.707   1.999
 2031SOL    HW1 6545   0.628   4.753   1.931
 2031SOL    HW2 6546   0.619   4.737   2.081
 2032SOL     OW 6547   1.595   3.849   3.328
 2032SOL    HW1 6548   1.611   3.930   3.279
 2032SOL    HW2 6549   1.579   3.878   3.418
 2033SOL     OW 6550   0.127   4.353   2.442
 2033SOL    HW1 6551   0.088   4.272   2.474
 2033SOL    HW2 6552   0.100   4.420   2.504
 2034SOL     OW 6553   5.299   5.297   1.944
 2034SOL    HW1 6554   0.012   5.209   1.979
 2034SOL    HW2 6555   0.028   0.055   2.014
 2035SOL     OW 6556   1.689   4.642   2.505
 2035SOL    HW1 6557   1.771   4.598   2.483
 2035SOL    HW2 6558   1.667   4.693   2.427
 2036SOL     OW 6559   1.647   4.829   2.291
 2036SOL    HW1 6560   1.733   4.831   2.249
 2036SOL    HW2 6561   1.654   4.891   2.364
 2037SOL     OW 6562   0.134   4.473   3.446
 2037SOL    HW1 6563   0.228   4.487   3.444
 2037SOL    HW2 6564   0.096   4.559   3.460
 2038SOL     OW 6565   0.627   5.098   2.601
 2038SOL    HW1 6566   0.571   5.021   2.598
 2038SOL    HW2 6567   0.604   5.148   2.523
 2039SOL     OW 6568   1.288   4.952   3.287
 2039SOL    HW1 6569   1.321   4.886   3.226
 2039SOL    HW2 6570   1.349   4.949   3.361
 2040SOL     OW 6571   0.826   3.725   2.374
 2040SOL    HW1 6572   0.866   3.809   2.352
 2040SOL    HW2 6573   0.732   3.744   2.379
 2041SOL     OW 6574   0.172   4.663   3.146
 2041SOL    HW1 6575   0.261   4.631   3.134
 2041SOL    HW2 6576   0.135   4.664   3.058
 2042SOL     OW 6577   1.530   4.722   2.060
 2042SOL    HW1 6578   1.461   4.664   2.093
 2042SOL    HW2 6579   1.573   4.755   2.139
 2043SOL     OW 6580   0.342   3.978   3.686
 2043SOL    HW1 6581   0.387   4.061   3.700
 2043SOL    HW2 6582   0.253   3.994   3.717
 2044SOL     OW 6583   1.479   5.148   2.823
 2044SOL    HW1 6584   1.406   5.160   2.884
 2044SOL    HW2 6585   1.467   5.059   2.789
 2045SOL     OW 6586   0.595   4.443   2.131
 2045SOL    HW1 6587   0.601   4.525   2.082
 2045SOL    HW2 6588   0.530   4.461   2.199
 2046SOL     OW 6589   1.279   4.082   2.795
 2046SOL    HW1 6590   1.189   4.048   2.804
 2046SOL    HW2 6591   1.330   4.028   2.855
 2047SOL     OW 6592   0.791   4.342   3.312
 2047SOL    HW1 6593   0.765   4.317   3.400
 2047SOL    HW2 6594   0.754   4.274   3.255
 2048SOL     OW 6595   1.393   4.198   3.540
 2048SOL    HW1 6596   1.397   4.243   3.624
 2048SOL    HW2 6597   1.452   4.123   3.549
 2049SOL     OW 6598   0.953   4.611   3.447
 2049SOL    HW1 6599   1.008   4.541   3.410
 2049SOL    HW2 6600   0.904   4.645   3.372
 2050SOL     OW 6601   0.992   4.136   3.099
 2050SOL    HW1 6602   0.905   4.154   3.132
 2050SOL    HW2 6603   0.978   4.091   3.016
 2051SOL     OW 6604   1.052   4.422   2.287
 2051SOL    HW1 6605   1.069   4.416   2.381
 2051SOL    HW2 6606   0.969   4.376   2.274
 2052SOL     OW 6607   0.071   4.511   2.670
 2052SOL    HW1 6608   0.150   4.515   2.723
 2052SOL    HW2 6609   0.065   4.597   2.628
 2053SOL     OW 6610   0.897   4.074   2.057
 2053SOL    HW1 6611   0.936   4.137   1.996
 2053SOL    HW2 6612   0.910   3.989   2.015
 2054SOL     OW 6613   1.706   4.297   3.691
 2054SOL    HW1 6614   1.670   4.370   3.641
 2054SOL    HW2 6615   1.735   4.235   3.623
 2055SOL     OW 6616   1.379   4.863   2.400
 2055SOL    HW1 6617   1.461   4.850   2.352
 2055SOL    HW2 6618   1.329   4.924   2.346
 2056SOL     OW 6619   0.558   3.906   2.757
 2056SOL    HW1 6620   0.555   3.935   2.848
 2056SOL    HW2 6621   0.552   3.987   2.706
 2057SOL     OW 6622   1.022   5.166   2.336
 2057SOL    HW1 6623   0.947   5.226   2.336
 2057SOL    HW2 6624   1.037   5.148   2.429
 2058SOL     OW 6625   1.802   4.779   2.729
 2058SOL    HW1 6626   1.746   4.759   2.654
 2058SOL    HW2 6627   1.741   4.786   2.803
 2059SOL     OW 6628   1.251   5.240   3.389
 2059SOL    HW1 6629   1.216   5.173   3.447
 2059SOL    HW2 6630   1.178   5.264   3.332
 2060SOL     OW 6631   0.315   4.676   2.111
 2060SOL    HW1 6632   0.396   4.698   2.066
 2060SOL    HW2 6633   0.291   4.589   2.077
 2061SOL     OW 6634   1.480   4.470   2.587
 2061SOL    HW1 6635   1.474   4.428   2.673
 2061SOL    HW2 6636   1.558   4.525   2.592
 2062SOL     OW 6637   0.463   4.990   3.607
 2062SOL    HW1 6638   0.438   4.992   3.515
 2062SOL    HW2 6639   0.380   4.990   3.655
 2063SOL     OW 6640   1.060   0.175   2.064
 2063SOL    HW1 6641   1.085   0.103   2.122
 2063SOL    HW2 6642   1.086   0.146   1.977
 2064SOL     OW 6643   0.206   4.001   3.359
 2064SOL    HW1 6644   0.128   4.054   3.341
 2064SOL    HW2 6645   0.172   3.920   3.398
 2065SOL     OW 6646   1.621   5.103   1.973
 2065SOL    HW1 6647   1.627   5.172   1.907
 2065SOL    HW2 6648   1.554   5.043   1.938
 2066SOL     OW 6649   1.401   3.831   2.298
 2066SOL    HW1 6650   1.392   3.806   2.206
 2066SOL    HW2 6651   1.495   3.837   2.312
 2067SOL     OW 6652   0.387   4.419   2.340
 2067SOL    HW1 6653   0.415   4.328   2.350
 2067SOL    HW2 6654   0.293   4.417   2.360
 2068SOL     OW 6655   1.532   3.949   3.587
 2068SOL    HW1 6656   1.542   3.969   3.680
 2068SOL    HW2 6657   1.464   3.882   3.584
 2069SOL     OW 6658   0.638   3.845   1.965
 2069SOL    HW1 6659   0.704   3.776   1.980
 2069SOL    HW2 6660   0.588   3.814   1.890
 2070SOL     OW 6661   0.765   4.003   3.618
 2070SOL    HW1 6662   0.843   3.948   3.616
 2070SOL    HW2 6663   0.718   3.975   3.696
 2071SOL     OW 6664   1.339   4.313   3.294
 2071SOL    HW1 6665   1.370   4.282   3.379
 2071SOL    HW2 6666   1.376   4.401   3.286
 2072SOL     OW 6667   0.816   5.116   2.801
 2072SOL    HW1 6668   0.896   5.104   2.749
 2072SOL    HW2 6669   0.747   5.124   2.735
 2073SOL     OW 6670   0.929   4.234   2.763
 2073SOL    HW1 6671   0.904   4.225   2.671
 2073SOL    HW2 6672   0.958   4.146   2.789
 2074SOL     OW 6673   0.562   3.785   2.356
 2074SOL    HW1 6674   0.487   3.785   2.415
 2074SOL    HW2 6675   0.551   3.864   2.303
 2075SOL     OW 6676   1.428   4.925   1.899
 2075SOL    HW1 6677   1.457   4.849   1.950
 2075SOL    HW2 6678   1.340   4.943   1.931
 2076SOL     OW 6679   0.306   3.771   2.039
 2076SOL    HW1 6680   0.367   3.835   2.005
 2076SOL    HW2 6681   0.361   3.707   2.086
 2077SOL     OW 6682   0.942   3.973   2.319
 2077SOL    HW1 6683   0.916   4.013   2.236
 2077SOL    HW2 6684   1.036   3.988   2.325
 2078SOL     OW 6685   1.080   4.406   3.321
 2078SOL    HW1 6686   1.013   4.338   3.325
 2078SOL    HW2 6687   1.162   4.358   3.314
 2079SOL     OW 6688   1.265   5.266   2.638
 2079SOL    HW1 6689   1.214   0.045   2.617
 2079SOL    HW2 6690   1.310   5.288   2.719
 2080SOL     OW 6691   0.466   4.875   2.586
 2080SOL    HW1 6692   0.399   4.853   2.651
 2080SOL    HW2 6693   0.426   4.856   2.502
 2081SOL     OW 6694   1.023   4.263   1.887
 2081SOL    HW1 6695   0.980   4.346   1.867
 2081SOL    HW2 6696   1.088   4.285   1.953
 2082SOL     OW 6697   0.091   4.266   3.262
 2082SOL    HW1 6698   0.178   4.275   3.224
 2082SOL    HW2 6699   0.080   4.343   3.317
 2083SOL     OW 6700   0.560   3.952   3.030
 2083SOL    HW1 6701   0.598   3.873   3.069
 2083SOL    HW2 6702   0.468   3.951   3.057
 2084SOL     OW 6703   0.867   4.183   2.501
 2084SOL    HW1 6704   0.822   4.237   2.437
 2084SOL    HW2 6705   0.889   4.103   2.453
 2085SOL     OW 6706   1.016   3.778   2.611
 2085SOL    HW1 6707   0.958   3.771   2.536
 2085SOL    HW2 6708   0.994   3.703   2.667
 2086SOL     OW 6709   1.440   4.890   2.721
 2086SOL    HW1 6710   1.372   4.823   2.718
 2086SOL    HW2 6711   1.466   4.902   2.630
 2087SOL     OW 6712   1.466   4.331   2.835
 2087SOL    HW1 6713   1.412   4.252   2.838
 2087SOL    HW2 6714   1.524   4.324   2.910
 2088SOL     OW 6715   1.843   4.537   2.246
 2088SOL    HW1 6716   1.900   4.487   2.304
 2088SOL    HW2 6717   1.816   4.475   2.179
 2089SOL     OW 6718   0.480   5.147   2.009
 2089SOL    HW1 6719   0.421   5.095   2.065
 2089SOL    HW2 6720   0.488   5.095   1.929
 2090SOL     OW 6721   1.671   4.987   2.506
 2090SOL    HW1 6722   1.765   4.993   2.525
 2090SOL    HW2 6723   1.638   5.075   2.522
 2091SOL     OW 6724   1.394   4.296   1.933
 2091SOL    HW1 6725   1.333   4.276   2.004
 2091SOL    HW2 6726   1.478   4.264   1.965
 2092SOL     OW 6727   0.524   3.987   2.176
 2092SOL    HW1 6728   0.572   3.941   2.107
 2092SOL    HW2 6729   0.500   4.071   2.137
 2093SOL     OW 6730   1.750   4.961   3.433
 2093SOL    HW1 6731   1.835   4.917   3.435
 2093SOL    HW2 6732   1.770   5.054   3.444
 2094SOL     OW 6733   1.064   5.074   3.191
 2094SOL    HW1 6734   0.985   5.048   3.239
 2094SOL    HW2 6735   1.135   5.034   3.242
 2095SOL     OW 6736   1.129   4.927   2.969
 2095SOL    HW1 6737   1.080   4.969   3.040
 2095SOL    HW2 6738   1.080   4.950   2.890
 2096SOL     OW 6739   1.627   4.821   2.937
 2096SOL    HW1 6740   1.622   4.883   3.011
 2096SOL    HW2 6741   1.550   4.841   2.884
 2097SOL     OW 6742   0.919   3.819   3.257
 2097SOL    HW1 6743   0.941   3.801   3.165
 2097SOL    HW2 6744   0.998   3.859   3.293
 2098SOL     OW 6745   0.984   4.839   3.588
 2098SOL    HW1 6746   0.892   4.855   3.607
 2098SOL    HW2 6747   0.984   4.762   3.531
 2099SOL     OW 6748   0.704   4.783   2.233
 2099SOL    HW1 6749   0.692   4.766   2.327
 2099SOL    HW2 6750   0.782   4.732   2.209
 2100SOL     OW 6751   0.421   4.545   3.115
 2100SOL    HW1 6752   0.490   4.552   3.181
 2100SOL    HW2 6753   0.387   4.456   3.125
 2101SOL     OW 6754   1.264   4.100   3.140
 2101SOL    HW1 6755   1.297   4.177   3.185
 2101SOL    HW2 6756   1.173   4.121   3.118
 2102SOL     OW 6757   0.112   5.291   3.179
 2102SOL    HW1 6758   0.050   0.040   3.232
 2102SOL    HW2 6759   0.189   5.280   3.235
 2103SOL     OW 6760   0.344   4.831   2.345
 2103SOL    HW1 6761   0.343   4.909   2.290
 2103SOL    HW2 6762   0.344   4.758   2.283
 2104SOL     OW 6763   0.552   4.258   2.721
 2104SOL    HW1 6764   0.566   4.316   2.647
 2104SOL    HW2 6765   0.618   4.284   2.785
 2105SOL     OW 6766   1.261   5.079   2.247
 2105SOL    HW1 6767   1.318   5.145   2.287
 2105SOL    HW2 6768   1.173   5.102   2.277
 2106SOL     OW 6769   1.272   5.183   3.003
 2106SOL    HW1 6770   1.330   5.198   3.078
 2106SOL    HW2 6771   1.228   5.100   3.023
 2107SOL     OW 6772   1.580   4.345   2.343
 2107SOL    HW1 6773   1.531   4.396   2.408
 2107SOL    HW2 6774   1.625   4.410   2.290
 2108SOL     OW 6775   0.383   5.228   3.176
 2108SOL    HW1 6776   0.368   5.191   3.089
 2108SOL    HW2 6777   0.474   5.256   3.176
 2109SOL     OW 6778   0.416   4.466   3.464
 2109SOL    HW1 6779   0.478   4.511   3.407
 2109SOL    HW2 6780   0.454   4.379   3.477
 2110SOL     OW 6781   1.605   4.504   3.546
 2110SOL    HW1 6782   1.519   4.545   3.540
 2110SOL    HW2 6783   1.657   4.546   3.478
 2111SOL     OW 6784   0.996   3.852   3.616
 2111SOL    HW1 6785   1.054   3.924   3.592
 2111SOL    HW2 6786   1.044   3.773   3.591
 2112SOL     OW 6787   0.496   3.764   3.611
 2112SOL    HW1 6788   0.452   3.711   3.545
 2112SOL    HW2 6789   0.439   3.839   3.625
 2113SOL     OW 6790   0.586   4.597   2.895
 2113SOL    HW1 6791   0.616   4.688   2.894
 2113SOL    HW2 6792   0.529   4.592   2.972
 2114SOL     OW 6793   1.353   4.582   2.886
 2114SOL    HW1 6794   1.268   4.569   2.844
 2114SOL    HW2 6795   1.397   4.497   2.879
 2115SOL     OW 6796   1.202   4.252   2.127
 2115SOL    HW1 6797   1.211   4.174   2.181
 2115SOL    HW2 6798   1.159   4.316   2.183
 2116SOL     OW 6799   0.301   3.926   3.109
 2116SOL    HW1 6800   0.268   3.950   3.196
 2116SOL    HW2 6801   0.290   3.832   3.104
 2117SOL     OW 6802   0.043   5.021   3.136
 2117SOL    HW1 6803   0.072   4.973   3.214
 2117SOL    HW2 6804   0.042   5.113   3.163
 2118SOL     OW 6805   0.723   4.354   2.918
 2118SOL    HW1 6806   0.798   4.340   2.861
 2118SOL    HW2 6807   0.694   4.443   2.898
 2119SOL     OW 6808   1.736   4.684   3.717
 2119SOL    HW1 6809   1.692   4.619   3.662
 2119SOL    HW2 6810   1.676   4.699   3.789
 2120SOL     OW 6811   0.328   3.786   2.495
 2120SOL    HW1 6812   0.307   3.876   2.522
 2120SOL    HW2 6813   0.334   3.737   2.578
 2121SOL     OW 6814   1.619   4.100   2.226
 2121SOL    HW1 6815   1.647   4.035   2.291
 2121SOL    HW2 6816   1.596   4.177   2.277
 2122SOL     OW 6817   1.029   4.483   2.822
 2122SOL    HW1 6818   1.022   4.500   2.916
 2122SOL    HW2 6819   1.002   4.391   2.812
 2123SOL     OW 6820   1.853   5.213   3.443
 2123SOL    HW1 6821   1.842   5.292   3.391
 2123SOL    HW2 6822   1.924   5.235   3.505
 2124SOL     OW 6823   0.355   4.643   3.668
 2124SOL    HW1 6824   0.436   4.660   3.717
 2124SOL    HW2 6825   0.381   4.577   3.603
 2125SOL     OW 6826   1.528   3.996   1.989
 2125SOL    HW1 6827   1.463   3.931   2.016
 2125SOL    HW2 6828   1.561   4.032   2.071
 2126SOL     OW 6829   1.289   4.549   1.892
 2126SOL    HW1 6830   1.332   4.464   1.896
 2126SOL    HW2 6831   1.321   4.588   1.810
 2127SOL     OW 6832   1.057   5.083   2.681
 2127SOL    HW1 6833   1.063   4.996   2.641
 2127SOL    HW2 6834   1.144   5.120   2.671
 2128SOL     OW 6835   0.314   4.532   2.810
 2128SOL    HW1 6836   0.408   4.549   2.807
 2128SOL    HW2 6837   0.307   4.442   2.842
 2129SOL     OW 6838   0.334   4.251   2.878
 2129SOL    HW1 6839   0.299   4.163   2.864
 2129SOL    HW2 6840   0.409   4.256   2.819
 2130SOL     OW 6841   1.134   4.098   3.546
 2130SOL    HW1 6842   1.086   4.153   3.608
 2130SOL    HW2 6843   1.221   4.137   3.542
 2131SOL     OW 6844   1.161   3.924   3.333
 2131SOL    HW1 6845   1.150   3.987   3.404
 2131SOL    HW2 6846   1.202   3.975   3.263
 2132SOL     OW 6847   0.002   5.044   2.068
 2132SOL    HW1 6848   5.230   5.027   2.008
 2132SOL    HW2 6849   0.015   4.961   2.114
 2133SOL     OW 6850   0.978   4.514   3.087
 2133SOL    HW1 6851   1.036   4.493   3.160
 2133SOL    HW2 6852   0.894   4.474   3.111
 2134SOL     OW 6853   0.031   4.287   2.979
 2134SOL    HW1 6854   0.118   4.266   2.946
 2134SOL    HW2 6855   0.036   4.268   3.073
 2135SOL     OW 6856   0.172   4.238   3.574
 2135SOL    HW1 6857   0.235   4.197   3.514
 2135SOL    HW2 6858   0.148   4.320   3.531
 2136SOL     OW 6859   1.378   4.660   3.519
 2136SOL    HW1 6860   1.399   4.753   3.516
 2136SOL    HW2 6861   1.374   4.632   3.428
 2137SOL     OW 6862   0.817   4.293   2.225
 2137SOL    HW1 6863   0.822   4.219   2.165
 2137SOL    HW2 6864   0.743   4.345   2.194
 2138SOL     OW 6865   1.641   4.325   3.045
 2138SOL    HW1 6866   1.631   4.267   3.120
 2138SOL    HW2 6867   1.729   4.306   3.011
 2139SOL     OW 6868   0.208   5.277   3.593
 2139SOL    HW1 6869   0.165   0.018   3.669
 2139SOL    HW2 6870   0.212   5.184   3.616
 2140SOL     OW 6871   0.707   4.172   3.119
 2140SOL    HW1 6872   0.652   4.098   3.092
 2140SOL    HW2 6873   0.700   4.235   3.047
 2141SOL     OW 6874   0.464   4.217   2.044
 2141SOL    HW1 6875   0.524   4.287   2.069
 2141SOL    HW2 6876   0.380   4.261   2.030
 2142SOL     OW 6877   0.149   4.861   3.334
 2142SOL    HW1 6878   0.145   4.813   3.417
 2142SOL    HW2 6879   0.158   4.792   3.268
 2143SOL     OW 6880   1.325   4.767   3.082
 2143SOL    HW1 6881   1.347   4.705   3.013
 2143SOL    HW2 6882   1.256   4.821   3.045
 2144SOL     OW 6883   1.313   4.582   2.167
 2144SOL    HW1 6884   1.239   4.549   2.218
 2144SOL    HW2 6885   1.287   4.568   2.076
 2145SOL     OW 6886   0.073   4.910   2.893
 2145SOL    HW1 6887   0.063   4.953   2.977
 2145SOL    HW2 6888   5.287   4.917   2.852
 2146SOL     OW 6889   0.754   0.034   3.571
 2146SOL    HW1 6890   0.661   0.057   3.580
 2146SOL    HW2 6891   0.776   0.059   3.481
 2147SOL     OW 6892   1.720   3.874   2.369
 2147SOL    HW1 6893   1.792   3.859   2.308
 2147SOL    HW2 6894   1.704   3.789   2.409
 2148SOL     OW 6895   1.277   4.651   2.534
 2148SOL    HW1 6896   1.351   4.590   2.543
 2148SOL    HW2 6897   1.312   4.722   2.480
 2149SOL     OW 6898   0.814   4.993   3.275
 2149SOL    HW1 6899   0.782   5.028   3.358
 2149SOL    HW2 6900   0.739   4.997   3.215
 2150SOL     OW 6901   1.842   3.896   2.828
 2150SOL    HW1 6902   1.871   3.808   2.802
 2150SOL    HW2 6903   1.755   3.905   2.788
 2151SOL     OW 6904   0.273   4.040   2.578
 2151SOL    HW1 6905   0.188   4.079   2.560
 2151SOL    HW2 6906   0.275   4.030   2.674
 2152SOL     OW 6907   0.825   4.726   3.233
 2152SOL    HW1 6908   0.872   4.716   3.150
 2152SOL    HW2 6909   0.828   4.820   3.252
 2153SOL     OW 6910   0.916   4.636   2.153
 2153SOL    HW1 6911   0.976   4.669   2.087
 2153SOL    HW2 6912   0.964   4.567   2.198
 2154SOL     OW 6913   0.366   5.027   3.364
 2154SOL    HW1 6914   0.368   5.096   3.297
 2154SOL    HW2 6915   0.291   4.973   3.340
 2155SOL     OW 6916   1.612   5.004   3.144
 2155SOL    HW1 6917   1.668   4.995   3.221
 2155SOL    HW2 6918   1.549   5.072   3.168
 2156SOL     OW 6919   1.059   4.835   2.576
 2156SOL    HW1 6920   0.986   4.784   2.611
 2156SOL    HW2 6921   1.122   4.769   2.546
 2157SOL     OW 6922   1.023   3.965   2.828
 2157SOL    HW1 6923   1.018   3.918   2.745
 2157SOL    HW2 6924   1.017   3.897   2.895
 2158SOL     OW 6925   1.724   4.116   3.243
 2158SOL    HW1 6926   1.796   4.179   3.242
 2158SOL    HW2 6927   1.754   4.045   3.186
 2159SOL     OW 6928   0.260   5.058   2.151
 2159SOL    HW1 6929   0.168   5.061   2.126
 2159SOL    HW2 6930   0.262   5.098   2.238
 2160SOL     OW 6931   0.118   4.743   3.581
 2160SOL    HW1 6932   0.047   4.704   3.633
 2160SOL    HW2 6933   0.198   4.710   3.622
 2161SOL     OW 6934   0.675   3.920   3.362
 2161SOL    HW1 6935   0.759   3.899   3.321
 2161SOL    HW2 6936   0.698   3.952   3.449
 2162SOL     OW 6937   0.086   4.067   1.901
 2162SOL    HW1 6938   0.003   4.024   1.880
 2162SOL    HW2 6939   0.100   4.129   1.830
 2163SOL     OW 6940   1.428   4.581   3.261
 2163SOL    HW1 6941   1.379   4.642   3.205
 2163SOL    HW2 6942   1.517   4.584   3.226
 2164SOL     OW 6943   0.058   3.857   2.109
 2164SOL    HW1 6944   0.056   3.951   2.090
 2164SOL    HW2 6945   0.145   3.829   2.082
 2165SOL     OW 6946   1.182   5.061   1.984
 2165SOL    HW1 6947   1.091   5.032   1.985
 2165SOL    HW2 6948   1.211   5.054   2.075
 2166SOL     OW 6949   0.620   4.555   3.299
 2166SOL    HW1 6950   0.677   4.630   3.282
 2166SOL    HW2 6951   0.679   4.480   3.306
 2167SOL     OW 6952   0.718   4.286   3.565
 2167SOL    HW1 6953   0.761   4.347   3.625
 2167SOL    HW2 6954   0.741   4.199   3.598
 2168SOL     OW 6955   1.475   4.920   3.491
 2168SOL    HW1 6956   1.462   4.933   3.585
 2168SOL    HW2 6957   1.569   4.935   3.478
 2169SOL     OW 6958   1.667   4.604   3.117
 2169SOL    HW1 6959   1.662   4.519   3.074
 2169SOL    HW2 6960   1.657   4.668   3.046
 2170SOL     OW 6961   1.216   4.043   2.319
 2170SOL    HW1 6962   1.279   3.971   2.312
 2170SOL    HW2 6963   1.245   4.092   2.396
 2171SOL     OW 6964   0.589   4.460   2.533
 2171SOL    HW1 6965   0.627   4.546   2.518
 2171SOL    HW2 6966   0.520   4.452   2.466
 2172SOL     OW 6967   1.759   4.087   3.514
 2172SOL    HW1 6968   1.744   4.103   3.421
 2172SOL    HW2 6969   1.687   4.030   3.541
 2173SOL     OW 6970   1.746   4.657   3.373
 2173SOL    HW1 6971   1.737   4.752   3.385
 2173SOL    HW2 6972   1.730   4.644   3.280
 2174SOL     OW 6973   0.847   5.094   1.883
 2174SOL    HW1 6974   0.831   5.093   1.977
 2174SOL    HW2 6975   0.859   5.186   1.861
 2175SOL     OW 6976   0.870   4.693   2.715
 2175SOL    HW1 6977   0.918   4.620   2.755
 2175SOL    HW2 6978   0.832   4.740   2.789
 2176SOL     OW 6979   1.079   4.714   1.952
 2176SOL    HW1 6980   1.057   4.764   1.874
 2176SOL    HW2 6981   1.153   4.659   1.925
 2177SOL     OW 6982   0.218   5.022   3.717
 2177SOL    HW1 6983   0.156   4.951   3.699
 2177SOL    HW2 6984   0.216   5.032   3.812
 2178SOL     OW 6985   0.086   4.920   2.515
 2178SOL    HW1 6986   0.107   4.903   2.607
 2178SOL    HW2 6987   0.168   4.953   2.477
 2179SOL     OW 6988   0.674   5.100   3.471
 2179SOL    HW1 6989   0.596   5.072   3.518
 2179SOL    HW2 6990   0.708   5.173   3.524
 2180SOL     OW 6991   1.812   3.907   3.099
 2180SOL    HW1 6992   1.821   3.813   3.113
 2180SOL    HW2 6993   1.822   3.919   3.005
 2181SOL     OW 6994   0.437   4.160   2.386
 2181SOL    HW1 6995   0.464   4.087   2.330
 2181SOL    HW2 6996   0.388   4.118   2.457
 2182SOL     OW 6997   1.706   5.225   2.980
 2182SOL    HW1 6998   1.633   5.208   2.921
 2182SOL    HW2 6999   1.713   5.147   3.034
 2183SOL     OW 7000   0.339   4.286   3.154
 2183SOL    HW1 7001   0.392   4.227   3.208
 2183SOL    HW2 7002   0.352   4.255   3.065
 2184SOL     OW 7003   1.431   3.951   2.979
 2184SOL    HW1 7004   1.454   3.870   3.024
 2184SOL    HW2 7005   1.379   4.000   3.043
 2185SOL     OW 7006   1.009   3.742   3.001
 2185SOL    HW1 7007   0.954   3.675   2.960
 2185SOL    HW2 7008   1.097   3.703   3.003
 2186SOL     OW 7009   0.807   5.046   2.147
 2186SOL    HW1 7010   0.750   4.971   2.168
 2186SOL    HW2 7011   0.861   5.058   2.225
 2187SOL     OW 7012   0.642   0.004   3.153
 2187SOL    HW1 7013   0.644   0.059   3.231
 2187SOL    HW2 7014   0.734   5.287   3.133
 2188SOL     OW 7015   1.354   3.777   2.030
 2188SOL    HW1 7016   1.384   3.710   1.968
 2188SOL    HW2 7017   1.266   3.749   2.054
 2189SOL     OW 7018   1.296   4.186   2.541
 2189SOL    HW1 7019   1.243   4.265   2.547
 2189SOL    HW2 7020   1.291   4.148   2.629
 2190SOL     OW 7021   1.586   3.923   2.742
 2190SOL    HW1 7022   1.527   3.945   2.814
 2190SOL    HW2 7023   1.585   4.000   2.686
 2191SOL     OW 7024   0.049   4.788   2.151
 2191SOL    HW1 7025   0.138   4.755   2.143
 2191SOL    HW2 7026   0.001   4.717   2.193
 2192SOL     OW 7027   0.233   4.353   3.841
 2192SOL    HW1 7028   0.163   4.316   3.894
 2192SOL    HW2 7029   0.215   4.323   3.752
 2193SOL     OW 7030   0.244   3.999   4.712
 2193SOL    HW1 7031   0.257   3.964   4.800
 2193SOL    HW2 7032   0.159   3.965   4.685
 2194SOL     OW 7033   5.297   4.124   4.379
 2194SOL    HW1 7034   5.204   4.146   4.382
 2194SOL    HW2 7035   5.299   4.034   4.344
 2195SOL     OW 7036   0.578   5.004   4.913
 2195SOL    HW1 7037   0.498   5.008   4.860
 2195SOL    HW2 7038   0.596   5.095   4.936
 2196SOL     OW 7039   1.557   5.233   4.413
 2196SOL    HW1 7040   1.542   5.229   4.507
 2196SOL    HW2 7041   1.476   5.268   4.377
 2197SOL     OW 7042   1.131   4.422   4.422
 2197SOL    HW1 7043   1.179   4.504   4.409
 2197SOL    HW2 7044   1.084   4.435   4.504
 2198SOL     OW 7045   1.770   4.327   3.951
 2198SOL    HW1 7046   1.747   4.320   3.859
 2198SOL    HW2 7047   1.733   4.248   3.991
 2199SOL     OW 7048   0.755   4.864   4.762
 2199SOL    HW1 7049   0.691   4.895   4.826
 2199SOL    HW2 7050   0.785   4.944   4.718
 2200SOL     OW 7051   0.871   4.493   5.547
 2200SOL    HW1 7052   0.859   4.565   5.610
 2200SOL    HW2 7053   0.894   4.537   5.465
 2201SOL     OW 7054   0.685   4.724   4.370
 2201SOL    HW1 7055   0.751   4.714   4.439
 2201SOL    HW2 7056   0.618   4.779   4.409
 2202SOL     OW 7057   0.708   4.870   5.539
 2202SOL    HW1 7058   0.757   4.949   5.563
 2202SOL    HW2 7059   0.627   4.902   5.501
 2203SOL     OW 7060   0.379   5.147   4.777
 2203SOL    HW1 7061   0.285   5.160   4.765
 2203SOL    HW2 7062   0.419   5.193   4.704
 2204SOL     OW 7063   1.454   5.222   5.072
 2204SOL    HW1 7064   1.509   5.294   5.103
 2204SOL    HW2 7065   1.386   5.213   5.140
 2205SOL     OW 7066   0.452   4.123   5.213
 2205SOL    HW1 7067   0.526   4.063   5.216
 2205SOL    HW2 7068   0.375   4.067   5.225
 2206SOL     OW 7069   1.610   4.170   4.466
 2206SOL    HW1 7070   1.536   4.190   4.408
 2206SOL    HW2 7071   1.620   4.248   4.520
 2207SOL     OW 7072   1.133   5.074   5.428
 2207SOL    HW1 7073   1.162   5.075   5.519
 2207SOL    HW2 7074   1.080   4.995   5.420
 2208SOL     OW 7075   0.211   5.151   4.261
 2208SOL    HW1 7076   0.255   5.229   4.295
 2208SOL    HW2 7077   0.127   5.148   4.307
 2209SOL     OW 7078   0.254   4.797   4.598
 2209SOL    HW1 7079   0.267   4.709   4.634
 2209SOL    HW2 7080   0.197   4.841   4.661
 2210SOL     OW 7081   0.579   4.707   3.861
 2210SOL    HW1 7082   0.628   4.753   3.793
 2210SOL    HW2 7083   0.619   4.737   3.943
 2211SOL     OW 7084   1.595   3.849   5.191
 2211SOL    HW1 7085   1.611   3.930   5.141
 2211SOL    HW2 7086   1.579   3.879   5.280
 2212SOL     OW 7087   0.127   4.353   4.304
 2212SOL    HW1 7088   0.088   4.272   4.336
 2212SOL    HW2 7089   0.100   4.420   4.367
 2213SOL     OW 7090   5.299   5.297   3.806
 2213SOL    HW1 7091   0.012   5.209   3.841
 2213SOL    HW2 7092   0.028   0.055   3.876
 2214SOL     OW 7093   1.689   4.642   4.367
 2214SOL    HW1 7094   1.771   4.598   4.344
 2214SOL    HW2 7095   1.667   4.693   4.289
 2215SOL     OW 7096   1.647   4.829   4.153
 2215SOL    HW1 7097   1.733   4.831   4.111
 2215SOL    HW2 7098   1.654   4.891   4.226
 2216SOL     OW 7099   0.134   4.473   5.308
 2216SOL    HW1 7100   0.228   4.487   5.306
 2216SOL    HW2 7101   0.096   4.559   5.322
 2217SOL     OW 7102   0.627   5.098   4.463
 2217SOL    HW1 7103   0.571   5.021   4.460
 2217SOL    HW2 7104   0.604   5.148   4.385
 2218SOL     OW 7105   1.288   4.952   5.149
 2218SOL    HW1 7106   1.321   4.886   5.088
 2218SOL    HW2 7107   1.349   4.949   5.223
 2219SOL     OW 7108   0.826   3.725   4.236
 2219SOL    HW1 7109   0.866   3.809   4.214
 2219SOL    HW2 7110   0.732   3.744   4.241
 2220SOL     OW 7111   0.172   4.663   5.008
 2220SOL    HW1 7112   0.261   4.631   4.996
 2220SOL    HW2 7113   0.135   4.664   4.920
 2221SOL     OW 7114   1.530   4.722   3.922
 2221SOL    HW1 7115   1.461   4.664   3.955
 2221SOL    HW2 7116   1.573   4.755   4.001
 2222SOL     OW 7117   0.342   3.978   5.548
 2222SOL    HW1 7118   0.387   4.061   5.562
 2222SOL    HW2 7119   0.253   3.994   5.579
 2223SOL     OW 7120   1.479   5.148   4.685
 2223SOL    HW1 7121   1.406   5.160   4.746
 2223SOL    HW2 7122   1.467   5.059   4.651
 2224SOL     OW 7123   0.595   4.443   3.993
 2224SOL    HW1 7124   0.601   4.525   3.944
 2224SOL    HW2 7125   0.530   4.461   4.061
 2225SOL     OW 7126   1.279   4.082   4.657
 2225SOL    HW1 7127   1.189   4.048   4.666
 2225SOL    HW2 7128   1.331   4.028   4.717
 2226SOL     OW 7129   0.791   4.342   5.174
 2226SOL    HW1 7130   0.765   4.317   5.262
 2226SOL    HW2 7131   0.754   4.274   5.117
 2227SOL     OW 7132   1.393   4.198   5.402
 2227SOL    HW1 7133   1.397   4.243   5.487
 2227SOL    HW2 7134   1.452   4.124   5.411
 2228SOL     OW 7135   0.953   4.611   5.309
 2228SOL    HW1 7136   1.007   4.541   5.272
 2228SOL    HW2 7137   0.904   4.645   5.234
 2229SOL     OW 7138   0.992   4.136   4.961
 2229SOL    HW1 7139   0.904   4.154   4.994
 2229SOL    HW2 7140   0.978   4.091   4.878
 2230SOL     OW 7141   1.052   4.423   4.149
 2230SOL    HW1 7142   1.069   4.416   4.243
 2230SOL    HW2 7143   0.969   4.376   4.136
 2231SOL     OW 7144   0.070   4.511   4.532
 2231SOL    HW1 7145   0.150   4.515   4.585
 2231SOL    HW2 7146   0.065   4.596   4.489
 2232SOL     OW 7147   0.897   4.074   3.919
 2232SOL    HW1 7148   0.936   4.137   3.858
 2232SOL    HW2 7149   0.910   3.989   3.877
 2233SOL     OW 7150   1.706   4.296   5.553
 2233SOL    HW1 7151   1.670   4.370   5.503
 2233SOL    HW2 7152   1.735   4.235   5.485
 2234SOL     OW 7153   1.379   4.863   4.262
 2234SOL    HW1 7154   1.461   4.850   4.214
 2234SOL    HW2 7155   1.329   4.924   4.207
 2235SOL     OW 7156   0.558   3.906   4.619
 2235SOL    HW1 7157   0.555   3.935   4.710
 2235SOL    HW2 7158   0.552   3.986   4.568
 2236SOL     OW 7159   1.022   5.166   4.198
 2236SOL    HW1 7160   0.947   5.226   4.197
 2236SOL    HW2 7161   1.037   5.148   4.291
 2237SOL     OW 7162   1.802   4.779   4.591
 2237SOL    HW1 7163   1.746   4.759   4.516
 2237SOL    HW2 7164   1.741   4.786   4.665
 2238SOL     OW 7165   1.251   5.240   5.251
 2238SOL    HW1 7166   1.216   5.173   5.309
 2238SOL    HW2 7167   1.178   5.264   5.194
 2239SOL     OW 7168   0.314   4.675   3.973
 2239SOL    HW1 7169   0.396   4.698   3.928
 2239SOL    HW2 7170   0.291   4.589   3.939
 2240SOL     OW 7171   1.480   4.470   4.449
 2240SOL    HW1 7172   1.474   4.428   4.535
 2240SOL    HW2 7173   1.558   4.525   4.455
 2241SOL     OW 7174   0.463   4.990   5.469
 2241SOL    HW1 7175   0.438   4.992   5.377
 2241SOL    HW2 7176   0.380   4.990   5.517
 2242SOL     OW 7177   1.060   0.175   3.927
 2242SOL    HW1 7178   1.087   0.104   3.985
 2242SOL    HW2 7179   1.087   0.146   3.840
 2243SOL     OW 7180   0.206   4.001   5.221
 2243SOL    HW1 7181   0.128   4.054   5.203
 2243SOL    HW2 7182   0.172   3.920   5.260
 2244SOL     OW 7183   1.621   5.103   3.835
 2244SOL    HW1 7184   1.628   5.172   3.769
 2244SOL    HW2 7185   1.554   5.044   3.801
 2245SOL     OW 7186   1.401   3.831   4.160
 2245SOL    HW1 7187   1.391   3.806   4.068
 2245SOL    HW2 7188   1.495   3.836   4.174
 2246SOL     OW 7189   0.387   4.419   4.202
 2246SOL    HW1 7190   0.415   4.328   4.212
 2246SOL    HW2 7191   0.293   4.417   4.222
 2247SOL     OW 7192   1.532   3.949   5.449
 2247SOL    HW1 7193   1.542   3.969   5.542
 2247SOL    HW2 7194   1.463   3.883   5.446
 2248SOL     OW 7195   0.638   3.845   3.827
 2248SOL    HW1 7196   0.704   3.776   3.842
 2248SOL    HW2 7197   0.588   3.814   3.752
 2249SOL     OW 7198   0.765   4.003   5.480
 2249SOL    HW1 7199   0.843   3.948   5.478
 2249SOL    HW2 7200   0.718   3.975   5.558
 2250SOL     OW 7201   1.339   4.313   5.156
 2250SOL    HW1 7202   1.370   4.282   5.241
 2250SOL    HW2 7203   1.376   4.401   5.148
 2251SOL     OW 7204   0.816   5.116   4.663
 2251SOL    HW1 7205   0.896   5.104   4.612
 2251SOL    HW2 7206   0.747   5.124   4.597
 2252SOL     OW 7207   0.929   4.234   4.625
 2252SOL    HW1 7208   0.904   4.225   4.533
 2252SOL    HW2 7209   0.958   4.146   4.651
 2253SOL     OW 7210   0.562   3.785   4.218
 2253SOL    HW1 7211   0.487   3.785   4.277
 2253SOL    HW2 7212   0.551   3.864   4.165
 2254SOL     OW 7213   1.428   4.925   3.761
 2254SOL    HW1 7214   1.458   4.849   3.812
 2254SOL    HW2 7215   1.340   4.943   3.793
 2255SOL     OW 7216   0.306   3.771   3.901
 2255SOL    HW1 7217   0.367   3.835   3.867
 2255SOL    HW2 7218   0.361   3.707   3.948
 2256SOL     OW 7219   0.942   3.973   4.181
 2256SOL    HW1 7220   0.916   4.013   4.098
 2256SOL    HW2 7221   1.036   3.988   4.187
 2257SOL     OW 7222   1.080   4.406   5.183
 2257SOL    HW1 7223   1.012   4.338   5.186
 2257SOL    HW2 7224   1.162   4.358   5.176
 2258SOL     OW 7225   1.265   5.266   4.500
 2258SOL    HW1 7226   1.215   0.045   4.479
 2258SOL    HW2 7227   1.310   5.288   4.581
 2259SOL     OW 7228   0.466   4.875   4.448
 2259SOL    HW1 7229   0.399   4.853   4.513
 2259SOL    HW2 7230   0.426   4.856   4.364
 2260SOL     OW 7231   1.023   4.263   3.749
 2260SOL    HW1 7232   0.980   4.346   3.729
 2260SOL    HW2 7233   1.088   4.284   3.815
 2261SOL     OW 7234   0.091   4.266   5.124
 2261SOL    HW1 7235   0.178   4.275   5.086
 2261SOL    HW2 7236   0.080   4.343   5.179
 2262SOL     OW 7237   0.560   3.952   4.892
 2262SOL    HW1 7238   0.598   3.873   4.931
 2262SOL    HW2 7239   0.468   3.951   4.919
 2263SOL     OW 7240   0.867   4.183   4.363
 2263SOL    HW1 7241   0.822   4.237   4.299
 2263SOL    HW2 7242   0.889   4.103   4.315
 2264SOL     OW 7243   1.016   3.778   4.474
 2264SOL    HW1 7244   0.958   3.770   4.398
 2264SOL    HW2 7245   0.994   3.703   4.529
 2265SOL     OW 7246   1.440   4.890   4.583
 2265SOL    HW1 7247   1.372   4.823   4.580
 2265SOL    HW2 7248   1.466   4.902   4.492
 2266SOL     OW 7249   1.466   4.331   4.697
 2266SOL    HW1 7250   1.412   4.252   4.699
 2266SOL    HW2 7251   1.524   4.324   4.772
 2267SOL     OW 7252   1.843   4.537   4.108
 2267SOL    HW1 7253   1.901   4.487   4.166
 2267SOL    HW2 7254   1.816   4.475   4.041
 2268SOL     OW 7255   0.480   5.147   3.871
 2268SOL    HW1 7256   0.421   5.095   3.926
 2268SOL    HW2 7257   0.489   5.095   3.791
 2269SOL     OW 7258   1.671   4.987   4.368
 2269SOL    HW1 7259   1.765   4.993   4.387
 2269SOL    HW2 7260   1.638   5.075   4.384
 2270SOL     OW 7261   1.394   4.296   3.795
 2270SOL    HW1 7262   1.333   4.276   3.866
 2270SOL    HW2 7263   1.478   4.264   3.827
 2271SOL     OW 7264   0.524   3.987   4.038
 2271SOL    HW1 7265   0.572   3.941   3.969
 2271SOL    HW2 7266   0.500   4.071   3.999
 2272SOL     OW 7267   1.750   4.961   5.295
 2272SOL    HW1 7268   1.835   4.917   5.297
 2272SOL    HW2 7269   1.770   5.053   5.306
 2273SOL     OW 7270   1.064   5.074   5.054
 2273SOL    HW1 7271   0.985   5.048   5.101
 2273SOL    HW2 7272   1.135   5.034   5.104
 2274SOL     OW 7273   1.129   4.927   4.831
 2274SOL    HW1 7274   1.080   4.969   4.902
 2274SOL    HW2 7275   1.080   4.950   4.752
 2275SOL     OW 7276   1.627   4.821   4.799
 2275SOL    HW1 7277   1.622   4.883   4.873
 2275SOL    HW2 7278   1.550   4.841   4.746
 2276SOL     OW 7279   0.919   3.819   5.119
 2276SOL    HW1 7280   0.941   3.801   5.027
 2276SOL    HW2 7281   0.998   3.859   5.155
 2277SOL     OW 7282   0.984   4.839   5.450
 2277SOL    HW1 7283   0.892   4.855   5.469
 2277SOL    HW2 7284   0.984   4.762   5.393
 2278SOL     OW 7285   0.704   4.783   4.095
 2278SOL    HW1 7286   0.692   4.766   4.189
 2278SOL    HW2 7287   0.782   4.732   4.071
 2279SOL     OW 7288   0.421   4.545   4.977
 2279SOL    HW1 7289   0.490   4.552   5.043
 2279SOL    HW2 7290   0.387   4.456   4.987
 2280SOL     OW 7291   1.264   4.099   5.002
 2280SOL    HW1 7292   1.297   4.177   5.047
 2280SOL    HW2 7293   1.173   4.121   4.980
 2281SOL     OW 7294   0.112   5.291   5.041
 2281SOL    HW1 7295   0.050   0.040   5.094
 2281SOL    HW2 7296   0.189   5.280   5.097
 2282SOL     OW 7297   0.344   4.831   4.207
 2282SOL    HW1 7298   0.343   4.909   4.153
 2282SOL    HW2 7299   0.345   4.758   4.145
 2283SOL     OW 7300   0.552   4.258   4.583
 2283SOL    HW1 7301   0.566   4.317   4.509
 2283SOL    HW2 7302   0.618   4.284   4.647
 2284SOL     OW 7303   1.261   5.079   4.109
 2284SOL    HW1 7304   1.318   5.145   4.149
 2284SOL    HW2 7305   1.173   5.102   4.139
 2285SOL     OW 7306   1.272   5.183   4.865
 2285SOL    HW1 7307   1.330   5.198   4.940
 2285SOL    HW2 7308   1.228   5.100   4.884
 2286SOL     OW 7309   1.580   4.345   4.206
 2286SOL    HW1 7310   1.531   4.396   4.270
 2286SOL    HW2 7311   1.624   4.410   4.151
 2287SOL     OW 7312   0.383   5.228   5.038
 2287SOL    HW1 7313   0.368   5.192   4.951
 2287SOL    HW2 7314   0.474   5.256   5.038
 2288SOL     OW 7315   0.416   4.466   5.326
 2288SOL    HW1 7316   0.478   4.511   5.269
 2288SOL    HW2 7317   0.454   4.379   5.339
 2289SOL     OW 7318   1.605   4.504   5.408
 2289SOL    HW1 7319   1.519   4.545   5.402
 2289SOL    HW2 7320   1.657   4.546   5.340
 2290SOL     OW 7321   0.996   3.852   5.479
 2290SOL    HW1 7322   1.054   3.924   5.454
 2290SOL    HW2 7323   1.044   3.773   5.453
 2291SOL     OW 7324   0.496   3.763   5.473
 2291SOL    HW1 7325   0.452   3.711   5.407
 2291SOL    HW2 7326   0.439   3.839   5.487
 2292SOL     OW 7327   0.586   4.597   4.757
 2292SOL    HW1 7328   0.616   4.688   4.756
 2292SOL    HW2 7329   0.529   4.592   4.834
 2293SOL     OW 7330   1.353   4.582   4.748
 2293SOL    HW1 7331   1.268   4.569   4.706
 2293SOL    HW2 7332   1.397   4.497   4.741
 2294SOL     OW 7333   1.202   4.252   3.989
 2294SOL    HW1 7334   1.211   4.174   4.043
 2294SOL    HW2 7335   1.159   4.316   4.045
 2295SOL     OW 7336   0.301   3.926   4.971
 2295SOL    HW1 7337   0.268   3.950   5.058
 2295SOL    HW2 7338   0.290   3.831   4.966
 2296SOL     OW 7339   0.043   5.021   4.998
 2296SOL    HW1 7340   0.072   4.973   5.076
 2296SOL    HW2 7341   0.042   5.113   5.025
 2297SOL     OW 7342   0.723   4.354   4.780
 2297SOL    HW1 7343   0.799   4.340   4.723
 2297SOL    HW2 7344   0.694   4.443   4.760
 2298SOL     OW 7345   1.736   4.684   5.579
 2298SOL    HW1 7346   1.692   4.619   5.524
 2298SOL    HW2 7347   1.676   4.699   5.651
 2299SOL     OW 7348   0.328   3.786   4.357
 2299SOL    HW1 7349   0.307   3.876   4.384
 2299SOL    HW2 7350   0.334   3.737   4.440
 2300SOL     OW 7351   1.619   4.100   4.088
 2300SOL    HW1 7352   1.647   4.035   4.153
 2300SOL    HW2 7353   1.596   4.177   4.140
 2301SOL     OW 7354   1.028   4.483   4.684
 2301SOL    HW1 7355   1.022   4.500   4.777
 2301SOL    HW2 7356   1.002   4.391   4.674
 2302SOL     OW 7357   1.853   5.213   5.305
 2302SOL    HW1 7358   1.842   5.292   5.253
 2302SOL    HW2 7359   1.924   5.235   5.366
 2303SOL     OW 7360   0.355   4.643   5.530
 2303SOL    HW1 7361   0.436   4.660   5.579
 2303SOL    HW2 7362   0.381   4.577   5.465
 2304SOL     OW 7363   1.527   3.997   3.851
 2304SOL    HW1 7364   1.463   3.931   3.878
 2304SOL    HW2 7365   1.561   4.032   3.933
 2305SOL     OW 7366   1.289   4.549   3.754
 2305SOL    HW1 7367   1.332   4.464   3.758
 2305SOL    HW2 7368   1.321   4.588   3.672
 2306SOL     OW 7369   1.057   5.083   4.543
 2306SOL    HW1 7370   1.063   4.996   4.503
 2306SOL    HW2 7371   1.144   5.120   4.533
 2307SOL     OW 7372   0.314   4.532   4.672
 2307SOL    HW1 7373   0.408   4.549   4.669
 2307SOL    HW2 7374   0.307   4.442   4.704
 2308SOL     OW 7375   0.334   4.251   4.740
 2308SOL    HW1 7376   0.299   4.163   4.726
 2308SOL    HW2 7377   0.409   4.256   4.681
 2309SOL     OW 7378   1.134   4.098   5.408
 2309SOL    HW1 7379   1.085   4.153   5.470
 2309SOL    HW2 7380   1.221   4.137   5.404
 2310SOL     OW 7381   1.161   3.924   5.195
 2310SOL    HW1 7382   1.150   3.987   5.266
 2310SOL    HW2 7383   1.202   3.975   5.125
 2311SOL     OW 7384   0.002   5.044   3.930
 2311SOL    HW1 7385   5.229   5.027   3.870
 2311SOL    HW2 7386   0.015   4.960   3.976
 2312SOL     OW 7387   0.978   4.514   4.949
 2312SOL    HW1 7388   1.036   4.493   5.022
 2312SOL    HW2 7389   0.894   4.474   4.973
 2313SOL     OW 7390   0.030   4.287   4.841
 2313SOL    HW1 7391   0.118   4.266   4.808
 2313SOL    HW2 7392   0.036   4.268   4.935
 2314SOL     OW 7393   0.172   4.237   5.436
 2314SOL    HW1 7394   0.235   4.197   5.376
 2314SOL    HW2 7395   0.148   4.320   5.393
 2315SOL     OW 7396   1.378   4.660   5.381
 2315SOL    HW1 7397   1.399   4.753   5.378
 2315SOL    HW2 7398   1.374   4.632   5.290
 2316SOL     OW 7399   0.817   4.293   4.087
 2316SOL    HW1 7400   0.822   4.219   4.027
 2316SOL    HW2 7401   0.743   4.345   4.056
 2317SOL     OW 7402   1.641   4.325   4.907
 2317SOL    HW1 7403   1.631   4.266   4.982
 2317SOL    HW2 7404   1.729   4.306   4.873
 2318SOL     OW 7405   0.208   5.277   5.455
 2318SOL    HW1 7406   0.165   0.018   5.530
 2318SOL    HW2 7407   0.212   5.184   5.478
 2319SOL     OW 7408   0.707   4.172   4.981
 2319SOL    HW1 7409   0.653   4.098   4.954
 2319SOL    HW2 7410   0.701   4.235   4.909
 2320SOL     OW 7411   0.464   4.217   3.906
 2320SOL    HW1 7412   0.524   4.287   3.931
 2320SOL    HW2 7413   0.380   4.261   3.892
 2321SOL     OW 7414   0.149   4.861   5.196
 2321SOL    HW1 7415   0.145   4.813   5.279
 2321SOL    HW2 7416   0.158   4.792   5.130
 2322SOL     OW 7417   1.325   4.767   4.945
 2322SOL    HW1 7418   1.346   4.705   4.875
 2322SOL    HW2 7419   1.256   4.821   4.907
 2323SOL     OW 7420   1.313   4.582   4.029
 2323SOL    HW1 7421   1.239   4.549   4.080
 2323SOL    HW2 7422   1.287   4.567   3.938
 2324SOL     OW 7423   0.073   4.910   4.755
 2324SOL    HW1 7424   0.063   4.953   4.839
 2324SOL    HW2 7425   5.287   4.917   4.713
 2325SOL     OW 7426   0.754   0.034   5.433
 2325SOL    HW1 7427   0.661   0.057   5.442
 2325SOL    HW2 7428   0.776   0.059   5.343
 2326SOL     OW 7429   1.720   3.875   4.231
 2326SOL    HW1 7430   1.792   3.859   4.170
 2326SOL    HW2 7431   1.704   3.789   4.272
 2327SOL     OW 7432   1.277   4.651   4.396
 2327SOL    HW1 7433   1.350   4.590   4.405
 2327SOL    HW2 7434   1.312   4.722   4.342
 2328SOL     OW 7435   0.814   4.993   5.137
 2328SOL    HW1 7436   0.782   5.028   5.220
 2328SOL    HW2 7437   0.739   4.997   5.077
 2329SOL     OW 7438   1.842   3.896   4.690
 2329SOL    HW1 7439   1.870   3.808   4.665
 2329SOL    HW2 7440   1.755   3.906   4.650
 2330SOL     OW 7441   0.274   4.040   4.441
 2330SOL    HW1 7442   0.188   4.079   4.422
 2330SOL    HW2 7443   0.275   4.030   4.536
 2331SOL     OW 7444   0.825   4.726   5.095
 2331SOL    HW1 7445   0.872   4.716   5.012
 2331SOL    HW2 7446   0.828   4.820   5.114
 2332SOL     OW 7447   0.916   4.636   4.015
 2332SOL    HW1 7448   0.976   4.669   3.949
 2332SOL    HW2 7449   0.964   4.567   4.060
 2333SOL     OW 7450   0.365   5.028   5.226
 2333SOL    HW1 7451   0.368   5.096   5.159
 2333SOL    HW2 7452   0.291   4.973   5.202
 2334SOL     OW 7453   1.612   5.004   5.006
 2334SOL    HW1 7454   1.668   4.995   5.083
 2334SOL    HW2 7455   1.549   5.072   5.030
 2335SOL     OW 7456   1.059   4.835   4.438
 2335SOL    HW1 7457   0.986   4.784   4.473
 2335SOL    HW2 7458   1.122   4.769   4.408
 2336SOL     OW 7459   1.023   3.965   4.691
 2336SOL    HW1 7460   1.018   3.918   4.607
 2336SOL    HW2 7461   1.017   3.897   4.757
 2337SOL     OW 7462   1.724   4.116   5.104
 2337SOL    HW1 7463   1.796   4.179   5.103
 2337SOL    HW2 7464   1.754   4.045   5.048
 2338SOL     OW 7465   0.260   5.058   4.013
 2338SOL    HW1 7466   0.167   5.061   3.988
 2338SOL    HW2 7467   0.262   5.098   4.100
 2339SOL     OW 7468   0.118   4.743   5.444
 2339SOL    HW1 7469   0.047   4.704   5.495
 2339SOL    HW2 7470   0.198   4.710   5.484
 2340SOL     OW 7471   0.675   3.920   5.224
 2340SOL    HW1 7472   0.759   3.899   5.183
 2340SOL    HW2 7473   0.699   3.953   5.311
 2341SOL     OW 7474   0.086   4.067   3.764
 2341SOL    HW1 7475   0.004   4.024   3.742
 2341SOL    HW2 7476   0.100   4.129   3.692
 2342SOL     OW 7477   1.428   4.581   5.123
 2342SOL    HW1 7478   1.379   4.642   5.067
 2342SOL    HW2 7479   1.517   4.584   5.088
 2343SOL     OW 7480   0.058   3.857   3.971
 2343SOL    HW1 7481   0.056   3.951   3.951
 2343SOL    HW2 7482   0.145   3.829   3.944
 2344SOL     OW 7483   1.182   5.061   3.846
 2344SOL    HW1 7484   1.091   5.032   3.847
 2344SOL    HW2 7485   1.211   5.054   3.937
 2345SOL     OW 7486   0.620   4.555   5.161
 2345SOL    HW1 7487   0.677   4.630   5.144
 2345SOL    HW2 7488   0.679   4.480   5.168
 2346SOL     OW 7489   0.718   4.286   5.427
 2346SOL    HW1 7490   0.761   4.347   5.487
 2346SOL    HW2 7491   0.741   4.199   5.460
 2347SOL     OW 7492   1.476   4.920   5.353
 2347SOL    HW1 7493   1.462   4.933   5.447
 2347SOL    HW2 7494   1.569   4.935   5.340
 2348SOL     OW 7495   1.667   4.604   4.979
 2348SOL    HW1 7496   1.662   4.519   4.936
 2348SOL    HW2 7497   1.657   4.668   4.908
 2349SOL     OW 7498   1.216   4.043   4.181
 2349SOL    HW1 7499   1.279   3.971   4.174
 2349SOL    HW2 7500   1.246   4.092   4.258
 2350SOL     OW 7501   0.589   4.460   4.395
 2350SOL    HW1 7502   0.627   4.546   4.380
 2350SOL    HW2 7503   0.520   4.452   4.328
 2351SOL     OW 7504   1.759   4.087   5.376
 2351SOL    HW1 7505   1.744   4.102   5.283
 2351SOL    HW2 7506   1.687   4.030   5.403
 2352SOL     OW 7507   1.746   4.657   5.235
 2352SOL    HW1 7508   1.738   4.752   5.247
 2352SOL    HW2 7509   1.730   4.644   5.142
 2353SOL     OW 7510   0.847   5.094   3.744
 2353SOL    HW1 7511   0.831   5.093   3.839
 2353SOL    HW2 7512   0.859   5.186   3.723
 2354SOL     OW 7513   0.870   4.693   4.577
 2354SOL    HW1 7514   0.918   4.620   4.617
 2354SOL    HW2 7515   0.832   4.740   4.651
 2355SOL     OW 7516   1.079   4.714   3.814
 2355SOL    HW1 7517   1.057   4.764   3.736
 2355SOL    HW2 7518   1.153   4.659   3.787
 2356SOL     OW 7519   0.218   5.022   5.579
 2356SOL    HW1 7520   0.156   4.951   5.561
 2356SOL    HW2 7521   0.216   5.032   5.674
 2357SOL     OW 7522   0.086   4.920   4.377
 2357SOL    HW1 7523   0.107   4.903   4.469
 2357SOL    HW2 7524   0.168   4.952   4.339
 2358SOL     OW 7525   0.674   5.100   5.334
 2358SOL    HW1 7526   0.596   5.072   5.380
 2358SOL    HW2 7527   0.708   5.173   5.386
 2359SOL     OW 7528   1.812   3.906   4.961
 2359SOL    HW1 7529   1.817   3.811   4.973
 2359SOL    HW2 7530   1.823   3.919   4.867
 2360SOL     OW 7531   0.437   4.160   4.248
 2360SOL    HW1 7532   0.464   4.087   4.192
 2360SOL    HW2 7533   0.388   4.118   4.319
 2361SOL     OW 7534   1.706   5.225   4.842
 2361SOL    HW1 7535   1.633   5.209   4.783
 2361SOL    HW2 7536   1.713   5.146   4.896
 2362SOL     OW 7537   0.339   4.286   5.016
 2362SOL    HW1 7538   0.392   4.226   5.070
 2362SOL    HW2 7539   0.352   4.255   4.926
 2363SOL     OW 7540   1.431   3.951   4.841
 2363SOL    HW1 7541   1.452   3.869   4.884
 2363SOL    HW2 7542   1.380   4.000   4.906
 2364SOL     OW 7543   1.009   3.741   4.863
 2364SOL    HW1 7544   0.955   3.675   4.821
 2364SOL    HW2 7545   1.097   3.703   4.866
 2365SOL     OW 7546   0.807   5.045   4.009
 2365SOL    HW1 7547   0.750   4.971   4.030
 2365SOL    HW2 7548   0.861   5.058   4.087
 2366SOL     OW 7549   0.642   0.004   5.015
 2366SOL    HW1 7550   0.644   0.059   5.093
 2366SOL    HW2 7551   0.734   5.287   4.995
 2367SOL     OW 7552   1.354   3.777   3.891
 2367SOL    HW1 7553   1.386   3.709   3.832
 2367SOL    HW2 7554   1.266   3.749   3.915
 2368SOL     OW 7555   1.296   4.186   4.403
 2368SOL    HW1 7556   1.243   4.265   4.409
 2368SOL    HW2 7557   1.291   4.148   4.491
 2369SOL     OW 7558   1.586   3.923   4.604
 2369SOL    HW1 7559   1.528   3.945   4.676
 2369SOL    HW2 7560   1.585   4.001   4.548
 2370SOL     OW 7561   0.049   4.788   4.013
 2370SOL    HW1 7562   0.138   4.755   4.005
 2370SOL    HW2 7563   0.001   4.717   4.055
 2371SOL     OW 7564   0.233   4.353   5.703
 2371SOL    HW1 7565   0.163   4.316   5.756
 2371SOL    HW2 7566   0.215   4.323   5.614
 2372SOL     OW 7567   0.244   3.999   6.574
 2372SOL    HW1 7568   0.257   3.964   6.662
 2372SOL    HW2 7569   0.159   3.965   6.547
 2373SOL     OW 7570   5.297   4.124   6.241
 2373SOL    HW1 7571   5.204   4.146   6.244
 2373SOL    HW2 7572   5.299   4.034   6.206
 2374SOL     OW 7573   0.578   5.004   6.775
 2374SOL    HW1 7574   0.498   5.008   6.722
 2374SOL    HW2 7575   0.596   5.095   6.798
 2375SOL     OW 7576   1.557   5.233   6.275
 2375SOL    HW1 7577   1.542   5.229   6.369
 2375SOL    HW2 7578   1.476   5.268   6.239
 2376SOL     OW 7579   1.131   4.422   6.284
 2376SOL    HW1 7580   1.179   4.504   6.271
 2376SOL    HW2 7581   1.084   4.435   6.366
 2377SOL     OW 7582   1.770   4.327   5.813
 2377SOL    HW1 7583   1.747   4.320   5.720
 2377SOL    HW2 7584   1.733   4.248   5.853
 2378SOL     OW 7585   0.755   4.864   6.625
 2378SOL    HW1 7586   0.691   4.895   6.688
 2378SOL    HW2 7587   0.785   4.944   6.580
 2379SOL     OW 7588   0.870   4.495   7.406
 2379SOL    HW1 7589   0.857   4.569   7.465
 2379SOL    HW2 7590   0.895   4.534   7.322
 2380SOL     OW 7591   0.685   4.724   6.232
 2380SOL    HW1 7592   0.751   4.714   6.301
 2380SOL    HW2 7593   0.618   4.779   6.271
 2381SOL     OW 7594   0.708   4.870   7.401
 2381SOL    HW1 7595   0.757   4.949   7.424
 2381SOL    HW2 7596   0.627   4.903   7.362
 2382SOL     OW 7597   0.379   5.147   6.639
 2382SOL    HW1 7598   0.285   5.160   6.627
 2382SOL    HW2 7599   0.419   5.193   6.566
 2383SOL     OW 7600   1.454   5.222   6.934
 2383SOL    HW1 7601   1.509   5.294   6.965
 2383SOL    HW2 7602   1.386   5.213   7.002
 2384SOL     OW 7603   0.452   4.124   7.076
 2384SOL    HW1 7604   0.526   4.063   7.079
 2384SOL    HW2 7605   0.375   4.068   7.088
 2385SOL     OW 7606   1.610   4.169   6.328
 2385SOL    HW1 7607   1.536   4.190   6.271
 2385SOL    HW2 7608   1.620   4.247   6.383
 2386SOL     OW 7609   1.133   5.073   7.288
 2386SOL    HW1 7610   1.164   5.073   7.379
 2386SOL    HW2 7611   1.079   4.994   7.281
 2387SOL     OW 7612   0.211   5.151   6.123
 2387SOL    HW1 7613   0.255   5.229   6.157
 2387SOL    HW2 7614   0.127   5.148   6.169
 2388SOL     OW 7615   0.254   4.797   6.460
 2388SOL    HW1 7616   0.267   4.709   6.496
 2388SOL    HW2 7617   0.197   4.841   6.523
 2389SOL     OW 7618   0.579   4.707   5.723
 2389SOL    HW1 7619   0.628   4.753   5.655
 2389SOL    HW2 7620   0.619   4.737   5.805
 2390SOL     OW 7621   1.595   3.849   7.052
 2390SOL    HW1 7622   1.611   3.930   7.004
 2390SOL    HW2 7623   1.578   3.878   7.142
 2391SOL     OW 7624   0.127   4.353   6.166
 2391SOL    HW1 7625   0.088   4.272   6.198
 2391SOL    HW2 7626   0.100   4.420   6.229
 2392SOL     OW 7627   5.299   5.297   5.668
 2392SOL    HW1 7628   0.012   5.209   5.703
 2392SOL    HW2 7629   0.028   0.055   5.738
 2393SOL     OW 7630   1.689   4.642   6.229
 2393SOL    HW1 7631   1.771   4.598   6.207
 2393SOL    HW2 7632   1.667   4.693   6.151
 2394SOL     OW 7633   1.647   4.829   6.016
 2394SOL    HW1 7634   1.733   4.831   5.974
 2394SOL    HW2 7635   1.654   4.891   6.088
 2395SOL     OW 7636   0.134   4.471   7.172
 2395SOL    HW1 7637   0.228   4.486   7.168
 2395SOL    HW2 7638   0.096   4.558   7.184
 2396SOL     OW 7639   0.627   5.099   6.325
 2396SOL    HW1 7640   0.571   5.021   6.322
 2396SOL    HW2 7641   0.604   5.148   6.247
 2397SOL     OW 7642   1.288   4.952   7.012
 2397SOL    HW1 7643   1.321   4.886   6.951
 2397SOL    HW2 7644   1.349   4.949   7.085
 2398SOL     OW 7645   0.826   3.725   6.098
 2398SOL    HW1 7646   0.866   3.809   6.076
 2398SOL    HW2 7647   0.732   3.744   6.103
 2399SOL     OW 7648   0.172   4.663   6.870
 2399SOL    HW1 7649   0.261   4.631   6.858
 2399SOL    HW2 7650   0.135   4.664   6.782
 2400SOL     OW 7651   1.530   4.722   5.784
 2400SOL    HW1 7652   1.461   4.664   5.817
 2400SOL    HW2 7653   1.573   4.755   5.863
 2401SOL     OW 7654   0.343   3.977   7.408
 2401SOL    HW1 7655   0.387   4.061   7.423
 2401SOL    HW2 7656   0.254   3.991   7.439
 2402SOL     OW 7657   1.479   5.148   6.547
 2402SOL    HW1 7658   1.406   5.160   6.608
 2402SOL    HW2 7659   1.467   5.059   6.513
 2403SOL     OW 7660   0.595   4.443   5.855
 2403SOL    HW1 7661   0.601   4.525   5.806
 2403SOL    HW2 7662   0.530   4.461   5.923
 2404SOL     OW 7663   1.279   4.082   6.519
 2404SOL    HW1 7664   1.189   4.048   6.528
 2404SOL    HW2 7665   1.330   4.028   6.579
 2405SOL     OW 7666   0.790   4.342   7.036
 2405SOL    HW1 7667   0.765   4.316   7.125
 2405SOL    HW2 7668   0.754   4.274   6.980
 2406SOL     OW 7669   1.393   4.198   7.263
 2406SOL    HW1 7670   1.397   4.243   7.348
 2406SOL    HW2 7671   1.452   4.123   7.273
 2407SOL     OW 7672   0.954   4.611   7.170
 2407SOL    HW1 7673   1.008   4.541   7.133
 2407SOL    HW2 7674   0.905   4.645   7.095
 2408SOL     OW 7675   0.992   4.136   6.823
 2408SOL    HW1 7676   0.904   4.154   6.856
 2408SOL    HW2 7677   0.978   4.091   6.740
 2409SOL     OW 7678   1.052   4.423   6.011
 2409SOL    HW1 7679   1.069   4.416   6.105
 2409SOL    HW2 7680   0.969   4.376   5.998
 2410SOL     OW 7681   0.070   4.511   6.394
 2410SOL    HW1 7682   0.150   4.515   6.447
 2410SOL    HW2 7683   0.066   4.596   6.351
 2411SOL     OW 7684   0.897   4.074   5.781
 2411SOL    HW1 7685   0.936   4.137   5.720
 2411SOL    HW2 7686   0.910   3.989   5.739
 2412SOL     OW 7687   1.707   4.297   7.416
 2412SOL    HW1 7688   1.670   4.371   7.367
 2412SOL    HW2 7689   1.735   4.235   7.349
 2413SOL     OW 7690   1.379   4.863   6.124
 2413SOL    HW1 7691   1.461   4.850   6.076
 2413SOL    HW2 7692   1.329   4.924   6.069
 2414SOL     OW 7693   0.558   3.906   6.481
 2414SOL    HW1 7694   0.555   3.935   6.572
 2414SOL    HW2 7695   0.552   3.987   6.430
 2415SOL     OW 7696   1.022   5.166   6.060
 2415SOL    HW1 7697   0.947   5.226   6.059
 2415SOL    HW2 7698   1.037   5.148   6.153
 2416SOL     OW 7699   1.802   4.779   6.453
 2416SOL    HW1 7700   1.746   4.759   6.378
 2416SOL    HW2 7701   1.741   4.786   6.527
 2417SOL     OW 7702   1.251   5.240   7.113
 2417SOL    HW1 7703   1.215   5.173   7.170
 2417SOL    HW2 7704   1.178   5.265   7.056
 2418SOL     OW 7705   0.314   4.675   5.835
 2418SOL    HW1 7706   0.396   4.698   5.790
 2418SOL    HW2 7707   0.291   4.589   5.801
 2419SOL     OW 7708   1.480   4.470   6.311
 2419SOL    HW1 7709   1.474   4.428   6.397
 2419SOL    HW2 7710   1.558   4.525   6.316
 2420SOL     OW 7711   0.462   4.989   7.332
 2420SOL    HW1 7712   0.437   4.992   7.240
 2420SOL    HW2 7713   0.379   4.990   7.380
 2421SOL     OW 7714   1.060   0.175   5.789
 2421SOL    HW1 7715   1.087   0.104   5.847
 2421SOL    HW2 7716   1.087   0.146   5.702
 2422SOL     OW 7717   0.206   4.001   7.084
 2422SOL    HW1 7718   0.127   4.052   7.064
 2422SOL    HW2 7719   0.172   3.920   7.122
 2423SOL     OW 7720   1.621   5.103   5.697
 2423SOL    HW1 7721   1.628   5.172   5.631
 2423SOL    HW2 7722   1.554   5.044   5.662
 2424SOL     OW 7723   1.401   3.831   6.022
 2424SOL    HW1 7724   1.392   3.806   5.930
 2424SOL    HW2 7725   1.495   3.837   6.036
 2425SOL     OW 7726   0.387   4.419   6.064
 2425SOL    HW1 7727   0.415   4.328   6.074
 2425SOL    HW2 7728   0.293   4.417   6.084
 2426SOL     OW 7729   1.532   3.949   7.311
 2426SOL    HW1 7730   1.542   3.970   7.404
 2426SOL    HW2 7731   1.464   3.881   7.309
 2427SOL     OW 7732   0.639   3.845   5.689
 2427SOL    HW1 7733   0.704   3.776   5.704
 2427SOL    HW2 7734   0.588   3.814   5.614
 2428SOL     OW 7735   0.765   4.002   7.341
 2428SOL    HW1 7736   0.843   3.947   7.340
 2428SOL    HW2 7737   0.722   3.981   7.424
 2429SOL     OW 7738   1.339   4.313   7.018
 2429SOL    HW1 7739   1.370   4.282   7.103
 2429SOL    HW2 7740   1.376   4.401   7.010
 2430SOL     OW 7741   0.816   5.116   6.525
 2430SOL    HW1 7742   0.896   5.104   6.474
 2430SOL    HW2 7743   0.747   5.124   6.459
 2431SOL     OW 7744   0.929   4.234   6.487
 2431SOL    HW1 7745   0.904   4.225   6.395
 2431SOL    HW2 7746   0.958   4.146   6.513
 2432SOL     OW 7747   0.562   3.785   6.080
 2432SOL    HW1 7748   0.487   3.785   6.139
 2432SOL    HW2 7749   0.551   3.864   6.027
 2433SOL     OW 7750   1.428   4.925   5.623
 2433SOL    HW1 7751   1.458   4.849   5.674
 2433SOL    HW2 7752   1.340   4.943   5.655
 2434SOL     OW 7753   0.306   3.771   5.763
 2434SOL    HW1 7754   0.367   3.835   5.729
 2434SOL    HW2 7755   0.361   3.707   5.810
 2435SOL     OW 7756   0.942   3.973   6.043
 2435SOL    HW1 7757   0.916   4.013   5.960
 2435SOL    HW2 7758   1.036   3.988   6.049
 2436SOL     OW 7759   1.080   4.406   7.044
 2436SOL    HW1 7760   1.013   4.338   7.049
 2436SOL    HW2 7761   1.163   4.358   7.038
 2437SOL     OW 7762   1.264   5.266   6.362
 2437SOL    HW1 7763   1.215   0.045   6.340
 2437SOL    HW2 7764   1.311   5.288   6.443
 2438SOL     OW 7765   0.466   4.875   6.310
 2438SOL    HW1 7766   0.399   4.853   6.375
 2438SOL    HW2 7767   0.426   4.856   6.226
 2439SOL     OW 7768   1.023   4.263   5.611
 2439SOL    HW1 7769   0.980   4.346   5.591
 2439SOL    HW2 7770   1.088   4.285   5.677
 2440SOL     OW 7771   0.091   4.265   6.986
 2440SOL    HW1 7772   0.178   4.274   6.948
 2440SOL    HW2 7773   0.081   4.342   7.042
 2441SOL     OW 7774   0.560   3.952   6.754
 2441SOL    HW1 7775   0.598   3.873   6.793
 2441SOL    HW2 7776   0.468   3.951   6.781
 2442SOL     OW 7777   0.867   4.183   6.225
 2442SOL    HW1 7778   0.822   4.237   6.161
 2442SOL    HW2 7779   0.889   4.103   6.177
 2443SOL     OW 7780   1.016   3.778   6.335
 2443SOL    HW1 7781   0.958   3.770   6.260
 2443SOL    HW2 7782   0.994   3.703   6.391
 2444SOL     OW 7783   1.440   4.890   6.445
 2444SOL    HW1 7784   1.372   4.823   6.442
 2444SOL    HW2 7785   1.466   4.902   6.354
 2445SOL     OW 7786   1.466   4.331   6.559
 2445SOL    HW1 7787   1.412   4.252   6.562
 2445SOL    HW2 7788   1.524   4.324   6.634
 2446SOL     OW 7789   1.843   4.537   5.970
 2446SOL    HW1 7790   1.900   4.487   6.028
 2446SOL    HW2 7791   1.816   4.475   5.903
 2447SOL     OW 7792   0.480   5.147   5.733
 2447SOL    HW1 7793   0.421   5.095   5.788
 2447SOL    HW2 7794   0.489   5.095   5.653
 2448SOL     OW 7795   1.671   4.987   6.231
 2448SOL    HW1 7796   1.765   4.993   6.249
 2448SOL    HW2 7797   1.638   5.075   6.246
 2449SOL     OW 7798   1.394   4.296   5.657
 2449SOL    HW1 7799   1.333   4.276   5.728
 2449SOL    HW2 7800   1.478   4.264   5.689
 2450SOL     OW 7801   0.524   3.987   5.900
 2450SOL    HW1 7802   0.572   3.941   5.831
 2450SOL    HW2 7803   0.500   4.071   5.861
 2451SOL     OW 7804   1.749   4.960   7.156
 2451SOL    HW1 7805   1.835   4.917   7.158
 2451SOL    HW2 7806   1.769   5.053   7.167
 2452SOL     OW 7807   1.064   5.074   6.915
 2452SOL    HW1 7808   0.985   5.048   6.963
 2452SOL    HW2 7809   1.136   5.034   6.966
 2453SOL     OW 7810   1.129   4.927   6.693
 2453SOL    HW1 7811   1.080   4.969   6.764
 2453SOL    HW2 7812   1.080   4.950   6.614
 2454SOL     OW 7813   1.627   4.821   6.661
 2454SOL    HW1 7814   1.622   4.883   6.735
 2454SOL    HW2 7815   1.550   4.841   6.608
 2455SOL     OW 7816   0.918   3.819   6.981
 2455SOL    HW1 7817   0.941   3.801   6.889
 2455SOL    HW2 7818   0.998   3.859   7.017
 2456SOL     OW 7819   0.985   4.838   7.314
 2456SOL    HW1 7820   0.892   4.855   7.331
 2456SOL    HW2 7821   0.985   4.762   7.256
 2457SOL     OW 7822   0.704   4.783   5.957
 2457SOL    HW1 7823   0.692   4.766   6.051
 2457SOL    HW2 7824   0.782   4.732   5.933
 2458SOL     OW 7825   0.421   4.545   6.839
 2458SOL    HW1 7826   0.490   4.552   6.905
 2458SOL    HW2 7827   0.387   4.456   6.849
 2459SOL     OW 7828   1.264   4.100   6.863
 2459SOL    HW1 7829   1.297   4.177   6.909
 2459SOL    HW2 7830   1.173   4.122   6.842
 2460SOL     OW 7831   0.112   5.291   6.903
 2460SOL    HW1 7832   0.050   0.040   6.956
 2460SOL    HW2 7833   0.189   5.280   6.959
 2461SOL     OW 7834   0.344   4.831   6.069
 2461SOL    HW1 7835   0.343   4.909   6.015
 2461SOL    HW2 7836   0.345   4.758   6.007
 2462SOL     OW 7837   0.552   4.258   6.445
 2462SOL    HW1 7838   0.566   4.317   6.371
 2462SOL    HW2 7839   0.618   4.284   6.509
 2463SOL     OW 7840   1.261   5.079   5.971
 2463SOL    HW1 7841   1.318   5.145   6.011
 2463SOL    HW2 7842   1.173   5.102   6.001
 2464SOL     OW 7843   1.272   5.183   6.727
 2464SOL    HW1 7844   1.330   5.198   6.801
 2464SOL    HW2 7845   1.228   5.100   6.747
 2465SOL     OW 7846   1.580   4.345   6.068
 2465SOL    HW1 7847   1.531   4.396   6.132
 2465SOL    HW2 7848   1.625   4.410   6.014
 2466SOL     OW 7849   0.383   5.227   6.901
 2466SOL    HW1 7850   0.368   5.191   6.813
 2466SOL    HW2 7851   0.474   5.256   6.900
 2467SOL     OW 7852   0.416   4.466   7.188
 2467SOL    HW1 7853   0.478   4.511   7.131
 2467SOL    HW2 7854   0.453   4.378   7.200
 2468SOL     OW 7855   1.604   4.504   7.271
 2468SOL    HW1 7856   1.518   4.545   7.264
 2468SOL    HW2 7857   1.657   4.546   7.202
 2469SOL     OW 7858   0.996   3.852   7.339
 2469SOL    HW1 7859   1.054   3.924   7.315
 2469SOL    HW2 7860   1.044   3.773   7.315
 2470SOL     OW 7861   0.498   3.763   7.335
 2470SOL    HW1 7862   0.453   3.710   7.268
 2470SOL    HW2 7863   0.441   3.839   7.347
 2471SOL     OW 7864   0.586   4.597   6.619
 2471SOL    HW1 7865   0.617   4.688   6.618
 2471SOL    HW2 7866   0.529   4.592   6.696
 2472SOL     OW 7867   1.353   4.582   6.610
 2472SOL    HW1 7868   1.268   4.569   6.568
 2472SOL    HW2 7869   1.397   4.497   6.604
 2473SOL     OW 7870   1.202   4.252   5.851
 2473SOL    HW1 7871   1.211   4.174   5.905
 2473SOL    HW2 7872   1.159   4.316   5.907
 2474SOL     OW 7873   0.301   3.927   6.834
 2474SOL    HW1 7874   0.268   3.950   6.920
 2474SOL    HW2 7875   0.290   3.832   6.828
 2475SOL     OW 7876   0.043   5.021   6.860
 2475SOL    HW1 7877   0.072   4.973   6.938
 2475SOL    HW2 7878   0.042   5.112   6.887
 2476SOL     OW 7879   0.723   4.354   6.642
 2476SOL    HW1 7880   0.799   4.340   6.585
 2476SOL    HW2 7881   0.695   4.443   6.622
 2477SOL     OW 7882   1.737   4.685   7.440
 2477SOL    HW1 7883   1.691   4.619   7.387
 2477SOL    HW2 7884   1.679   4.700   7.514
 2478SOL     OW 7885   0.328   3.786   6.219
 2478SOL    HW1 7886   0.308   3.876   6.246
 2478SOL    HW2 7887   0.334   3.737   6.302
 2479SOL     OW 7888   1.619   4.100   5.950
 2479SOL    HW1 7889   1.647   4.035   6.015
 2479SOL    HW2 7890   1.596   4.177   6.002
 2480SOL     OW 7891   1.028   4.483   6.546
 2480SOL    HW1 7892   1.022   4.500   6.640
 2480SOL    HW2 7893   1.002   4.391   6.536
 2481SOL     OW 7894   1.853   5.212   7.166
 2481SOL    HW1 7895   1.841   5.292   7.113
 2481SOL    HW2 7896   1.924   5.234   7.226
 2482SOL     OW 7897   0.355   4.641   7.393
 2482SOL    HW1 7898   0.436   4.660   7.439
 2482SOL    HW2 7899   0.380   4.576   7.327
 2483SOL     OW 7900   1.527   3.996   5.713
 2483SOL    HW1 7901   1.463   3.931   5.740
 2483SOL    HW2 7902   1.561   4.032   5.795
 2484SOL     OW 7903   1.289   4.549   5.616
 2484SOL    HW1 7904   1.332   4.464   5.620
 2484SOL    HW2 7905   1.321   4.588   5.534
 2485SOL     OW 7906   1.057   5.083   6.405
 2485SOL    HW1 7907   1.063   4.996   6.365
 2485SOL    HW2 7908   1.144   5.120   6.395
 2486SOL     OW 7909   0.314   4.532   6.534
 2486SOL    HW1 7910   0.408   4.549   6.531
 2486SOL    HW2 7911   0.307   4.442   6.566
 2487SOL     OW 7912   0.334   4.251   6.602
 2487SOL    HW1 7913   0.299   4.163   6.588
 2487SOL    HW2 7914   0.409   4.256   6.543
 2488SOL     OW 7915   1.134   4.098   7.269
 2488SOL    HW1 7916   1.086   4.153   7.331
 2488SOL    HW2 7917   1.222   4.137   7.265
 2489SOL     OW 7918   1.161   3.924   7.056
 2489SOL    HW1 7919   1.150   3.987   7.128
 2489SOL    HW2 7920   1.202   3.975   6.986
 2490SOL     OW 7921   0.002   5.044   5.792
 2490SOL    HW1 7922   5.229   5.027   5.732
 2490SOL    HW2 7923   0.015   4.961   5.838
 2491SOL     OW 7924   0.978   4.514   6.811
 2491SOL    HW1 7925   1.036   4.493   6.884
 2491SOL    HW2 7926   0.894   4.474   6.835
 2492SOL     OW 7927   0.031   4.288   6.704
 2492SOL    HW1 7928   0.117   4.266   6.669
 2492SOL    HW2 7929   0.036   4.268   6.797
 2493SOL     OW 7930   0.173   4.237   7.303
 2493SOL    HW1 7931   0.232   4.194   7.242
 2493SOL    HW2 7932   0.148   4.318   7.259
 2494SOL     OW 7933   1.378   4.660   7.244
 2494SOL    HW1 7934   1.399   4.753   7.240
 2494SOL    HW2 7935   1.374   4.633   7.152
 2495SOL     OW 7936   0.817   4.293   5.949
 2495SOL    HW1 7937   0.822   4.219   5.889
 2495SOL    HW2 7938   0.743   4.345   5.918
 2496SOL     OW 7939   1.641   4.325   6.769
 2496SOL    HW1 7940   1.631   4.267   6.844
 2496SOL    HW2 7941   1.729   4.306   6.735
 2497SOL     OW 7942   0.206   5.276   7.318
 2497SOL    HW1 7943   0.150   0.011   7.388
 2497SOL    HW2 7944   0.215   5.183   7.340
 2498SOL     OW 7945   0.707   4.172   6.843
 2498SOL    HW1 7946   0.653   4.098   6.816
 2498SOL    HW2 7947   0.700   4.235   6.771
 2499SOL     OW 7948   0.464   4.217   5.768
 2499SOL    HW1 7949   0.524   4.287   5.793
 2499SOL    HW2 7950   0.380   4.261   5.754
 2500SOL     OW 7951   0.149   4.861   7.058
 2500SOL    HW1 7952   0.145   4.813   7.141
 2500SOL    HW2 7953   0.158   4.792   6.992
 2501SOL     OW 7954   1.325   4.767   6.807
 2501SOL    HW1 7955   1.347   4.705   6.738
 2501SOL    HW2 7956   1.256   4.821   6.769
 2502SOL     OW 7957   1.313   4.582   5.891
 2502SOL    HW1 7958   1.239   4.549   5.942
 2502SOL    HW2 7959   1.287   4.567   5.800
 2503SOL     OW 7960   0.073   4.910   6.617
 2503SOL    HW1 7961   0.063   4.953   6.701
 2503SOL    HW2 7962   5.287   4.917   6.575
 2504SOL     OW 7963   0.753   0.032   7.297
 2504SOL    HW1 7964   0.660   0.056   7.305
 2504SOL    HW2 7965   0.778   0.060   7.209
 2505SOL     OW 7966   1.720   3.874   6.093
 2505SOL    HW1 7967   1.792   3.859   6.032
 2505SOL    HW2 7968   1.704   3.789   6.133
 2506SOL     OW 7969   1.277   4.651   6.258
 2506SOL    HW1 7970   1.350   4.590   6.267
 2506SOL    HW2 7971   1.312   4.722   6.204
 2507SOL     OW 7972   0.814   4.993   6.999
 2507SOL    HW1 7973   0.781   5.028   7.081
 2507SOL    HW2 7974   0.740   4.998   6.939
 2508SOL     OW 7975   1.842   3.896   6.552
 2508SOL    HW1 7976   1.871   3.808   6.527
 2508SOL    HW2 7977   1.755   3.905   6.512
 2509SOL     OW 7978   0.273   4.040   6.303
 2509SOL    HW1 7979   0.188   4.079   6.284
 2509SOL    HW2 7980   0.275   4.030   6.398
 2510SOL     OW 7981   0.825   4.726   6.957
 2510SOL    HW1 7982   0.872   4.716   6.874
 2510SOL    HW2 7983   0.828   4.820   6.975
 2511SOL     OW 7984   0.916   4.636   5.877
 2511SOL    HW1 7985   0.976   4.669   5.811
 2511SOL    HW2 7986   0.964   4.567   5.922
 2512SOL     OW 7987   0.365   5.028   7.089
 2512SOL    HW1 7988   0.369   5.096   7.021
 2512SOL    HW2 7989   0.290   4.973   7.064
 2513SOL     OW 7990   1.612   5.004   6.868
 2513SOL    HW1 7991   1.668   4.995   6.945
 2513SOL    HW2 7992   1.549   5.072   6.892
 2514SOL     OW 7993   1.059   4.835   6.300
 2514SOL    HW1 7994   0.986   4.784   6.335
 2514SOL    HW2 7995   1.122   4.769   6.270
 2515SOL     OW 7996   1.023   3.965   6.552
 2515SOL    HW1 7997   1.018   3.918   6.469
 2515SOL    HW2 7998   1.017   3.897   6.619
 2516SOL     OW 7999   1.724   4.116   6.967
 2516SOL    HW1 8000   1.796   4.179   6.966
 2516SOL    HW2 8001   1.754   4.045   6.910
 2517SOL     OW 8002   0.260   5.058   5.875
 2517SOL    HW1 8003   0.167   5.061   5.850
 2517SOL    HW2 8004   0.262   5.098   5.962
 2518SOL     OW 8005   0.118   4.744   7.306
 2518SOL    HW1 8006   0.047   4.705   7.357
 2518SOL    HW2 8007   0.198   4.709   7.346
 2519SOL     OW 8008   0.675   3.920   7.086
 2519SOL    HW1 8009   0.759   3.899   7.045
 2519SOL    HW2 8010   0.698   3.951   7.173
 2520SOL     OW 8011   0.086   4.068   5.626
 2520SOL    HW1 8012   0.004   4.023   5.604
 2520SOL    HW2 8013   0.100   4.129   5.554
 2521SOL     OW 8014   1.428   4.582   6.985
 2521SOL    HW1 8015   1.379   4.642   6.930
 2521SOL    HW2 8016   1.517   4.584   6.950
 2522SOL     OW 8017   0.058   3.857   5.833
 2522SOL    HW1 8018   0.056   3.951   5.813
 2522SOL    HW2 8019   0.145   3.829   5.806
 2523SOL     OW 8020   1.182   5.061   5.708
 2523SOL    HW1 8021   1.091   5.032   5.709
 2523SOL    HW2 8022   1.211   5.054   5.799
 2524SOL     OW 8023   0.620   4.555   7.023
 2524SOL    HW1 8024   0.677   4.630   7.006
 2524SOL    HW2 8025   0.679   4.480   7.030
 2525SOL     OW 8026   0.717   4.286   7.289
 2525SOL    HW1 8027   0.761   4.346   7.350
 2525SOL    HW2 8028   0.741   4.199   7.322
 2526SOL     OW 8029   1.475   4.920   7.216
 2526SOL    HW1 8030   1.462   4.933   7.310
 2526SOL    HW2 8031   1.569   4.935   7.203
 2527SOL     OW 8032   1.667   4.604   6.841
 2527SOL    HW1 8033   1.662   4.519   6.798
 2527SOL    HW2 8034   1.657   4.668   6.770
 2528SOL     OW 8035   1.216   4.043   6.043
 2528SOL    HW1 8036   1.279   3.971   6.036
 2528SOL    HW2 8037   1.245   4.092   6.120
 2529SOL     OW 8038   0.589   4.460   6.257
 2529SOL    HW1 8039   0.627   4.546   6.242
 2529SOL    HW2 8040   0.520   4.452   6.190
 2530SOL     OW 8041   1.759   4.088   7.239
 2530SOL    HW1 8042   1.744   4.103   7.146
 2530SOL    HW2 8043   1.687   4.030   7.265
 2531SOL     OW 8044   1.747   4.657   7.097
 2531SOL    HW1 8045   1.737   4.752   7.110
 2531SOL    HW2 8046   1.730   4.644   7.004
 2532SOL     OW 8047   0.847   5.094   5.606
 2532SOL    HW1 8048   0.831   5.093   5.701
 2532SOL    HW2 8049   0.859   5.186   5.585
 2533SOL     OW 8050   0.870   4.693   6.439
 2533SOL    HW1 8051   0.918   4.620   6.479
 2533SOL    HW2 8052   0.832   4.740   6.514
 2534SOL     OW 8053   1.079   4.714   5.676
 2534SOL    HW1 8054   1.057   4.764   5.598
 2534SOL    HW2 8055   1.153   4.659   5.649
 2535SOL     OW 8056   0.217   5.020   7.442
 2535SOL    HW1 8057   0.156   4.950   7.420
 2535SOL    HW2 8058   0.207   5.032   7.537
 2536SOL     OW 8059   0.086   4.920   6.239
 2536SOL    HW1 8060   0.108   4.903   6.331
 2536SOL    HW2 8061   0.168   4.953   6.201
 2537SOL     OW 8062   0.674   5.099   7.196
 2537SOL    HW1 8063   0.595   5.072   7.242
 2537SOL    HW2 8064   0.707   5.173   7.247
 2538SOL     OW 8065   1.812   3.908   6.823
 2538SOL    HW1 8066   1.821   3.813   6.837
 2538SOL    HW2 8067   1.822   3.919   6.729
 2539SOL     OW 8068   0.437   4.160   6.110
 2539SOL    HW1 8069   0.464   4.087   6.054
 2539SOL    HW2 8070   0.388   4.118   6.181
 2540SOL     OW 8071   1.706   5.226   6.704
 2540SOL    HW1 8072   1.633   5.209   6.645
 2540SOL    HW2 8073   1.713   5.146   6.758
 2541SOL     OW 8074   0.339   4.286   6.878
 2541SOL    HW1 8075   0.392   4.226   6.932
 2541SOL    HW2 8076   0.352   4.255   6.789
 2542SOL     OW 8077   1.431   3.951   6.703
 2542SOL    HW1 8078   1.453   3.869   6.748
 2542SOL    HW2 8079   1.379   4.000   6.767
 2543SOL     OW 8080   1.009   3.742   6.725
 2543SOL    HW1 8081   0.955   3.675   6.684
 2543SOL    HW2 8082   1.097   3.703   6.727
 2544SOL     OW 8083   0.807   5.046   5.871
 2544SOL    HW1 8084   0.750   4.971   5.892
 2544SOL    HW2 8085   0.861   5.058   5.949
 2545SOL     OW 8086   0.642   0.004   6.877
 2545SOL    HW1 8087   0.645   0.058   6.956
 2545SOL    HW2 8088   0.734   5.287   6.856
 2546SOL     OW 8089   1.354   3.777   5.754
 2546SOL    HW1 8090   1.384   3.711   5.692
 2546SOL    HW2 8091   1.266   3.749   5.778
 2547SOL     OW 8092   1.296   4.186   6.265
 2547SOL    HW1 8093   1.243   4.265   6.271
 2547SOL    HW2 8094   1.291   4.148   6.353
 2548SOL     OW 8095   1.586   3.923   6.466
 2548SOL    HW1 8096   1.528   3.945   6.538
 2548SOL    HW2 8097   1.585   4.000   6.410
 2549SOL     OW 8098   0.049   4.788   5.875
 2549SOL    HW1 8099   0.138   4.755   5.867
 2549SOL    HW2 8100   0.001   4.717   5.917
 2550SOL     OW 8101   0.228   4.352   7.568
 2550SOL    HW1 8102   0.158   4.306   7.615
 2550SOL    HW2 8103   0.217   4.326   7.476
 2551SOL     OW 8104   1.768   4.320   7.678
 2551SOL    HW1 8105   1.747   4.316   7.585
 2551SOL    HW2 8106   1.728   4.241   7.716
 2552SOL     OW 8107   0.280   0.133   7.961
 2552SOL    HW1 8108   0.236   0.207   8.003
 2552SOL    HW2 8109   0.286   0.157   7.868
 2553SOL     OW 8110   0.227   5.160   7.991
 2553SOL    HW1 8111   0.240   5.255   7.993
 2553SOL    HW2 8112   0.155   5.145   8.052
 2554SOL     OW 8113   0.579   4.709   7.583
 2554SOL    HW1 8114   0.626   4.754   7.514
 2554SOL    HW2 8115   0.620   4.739   7.664
 2555SOL     OW 8116   0.001   5.296   7.522
 2555SOL    HW1 8117   0.013   5.209   7.560
 2555SOL    HW2 8118   0.021   0.056   7.594
 2556SOL     OW 8119   1.681   4.586   8.030
 2556SOL    HW1 8120   1.758   4.597   0.006
 2556SOL    HW2 8121   1.668   4.671   7.989
 2557SOL     OW 8122   1.658   4.823   7.878
 2557SOL    HW1 8123   1.747   4.842   7.848
 2557SOL    HW2 8124   1.637   4.896   7.936
 2558SOL     OW 8125   0.799   3.720   7.937
 2558SOL    HW1 8126   0.849   3.800   7.919
 2558SOL    HW2 8127   0.708   3.751   7.947
 2559SOL     OW 8128   1.533   4.724   7.650
 2559SOL    HW1 8129   1.466   4.664   7.684
 2559SOL    HW2 8130   1.578   4.756   7.728
 2560SOL     OW 8131   0.588   4.447   7.709
 2560SOL    HW1 8132   0.593   4.530   7.661
 2560SOL    HW2 8133   0.536   4.467   7.787
 2561SOL     OW 8134   0.053   4.544   0.196
 2561SOL    HW1 8135   0.120   4.482   0.168
 2561SOL    HW2 8136   0.033   4.595   0.118
 2562SOL     OW 8137   0.888   4.074   7.639
 2562SOL    HW1 8138   0.928   4.133   7.575
 2562SOL    HW2 8139   0.919   3.987   7.614
 2563SOL     OW 8140   0.315   4.670   7.693
 2563SOL    HW1 8141   0.396   4.697   7.650
 2563SOL    HW2 8142   0.293   4.585   7.654
 2564SOL     OW 8143   1.081   0.190   7.642
 2564SOL    HW1 8144   1.066   0.121   7.706
 2564SOL    HW2 8145   1.082   0.146   7.557
 2565SOL     OW 8146   1.626   5.101   7.553
 2565SOL    HW1 8147   1.617   5.177   7.495
 2565SOL    HW2 8148   1.557   5.041   7.525
 2566SOL     OW 8149   1.418   3.858   7.864
 2566SOL    HW1 8150   1.407   3.822   7.776
 2566SOL    HW2 8151   1.513   3.857   7.878
 2567SOL     OW 8152   0.378   4.424   7.923
 2567SOL    HW1 8153   0.394   4.330   7.930
 2567SOL    HW2 8154   0.283   4.433   7.931
 2568SOL     OW 8155   0.632   3.842   7.558
 2568SOL    HW1 8156   0.703   3.779   7.570
 2568SOL    HW2 8157   0.587   3.812   7.479
 2569SOL     OW 8158   0.525   3.802   7.961
 2569SOL    HW1 8159   0.437   3.808   7.999
 2569SOL    HW2 8160   0.527   3.872   7.895
 2570SOL     OW 8161   1.428   4.926   7.487
 2570SOL    HW1 8162   1.457   4.851   7.539
 2570SOL    HW2 8163   1.340   4.945   7.519
 2571SOL     OW 8164   0.307   3.766   7.619
 2571SOL    HW1 8165   0.368   3.830   7.582
 2571SOL    HW2 8166   0.363   3.705   7.667
 2572SOL     OW 8167   0.944   3.949   7.908
 2572SOL    HW1 8168   0.902   4.014   7.851
 2572SOL    HW2 8169   1.035   3.978   7.914
 2573SOL     OW 8170   0.448   4.884   0.086
 2573SOL    HW1 8171   0.377   4.906   0.146
 2573SOL    HW2 8172   0.404   4.866   0.002
 2574SOL     OW 8173   1.024   4.262   7.469
 2574SOL    HW1 8174   0.979   4.345   7.453
 2574SOL    HW2 8175   1.084   4.282   7.541
 2575SOL     OW 8176   1.875   4.537   7.802
 2575SOL    HW1 8177   1.856   4.518   7.894
 2575SOL    HW2 8178   1.836   4.464   7.753
 2576SOL     OW 8179   0.473   5.149   7.597
 2576SOL    HW1 8180   0.416   5.096   7.654
 2576SOL    HW2 8181   0.485   5.096   7.519
 2577SOL     OW 8182   1.394   4.296   7.519
 2577SOL    HW1 8183   1.332   4.275   7.589
 2577SOL    HW2 8184   1.478   4.262   7.550
 2578SOL     OW 8185   0.526   3.990   7.768
 2578SOL    HW1 8186   0.572   3.942   7.699
 2578SOL    HW2 8187   0.501   4.072   7.726
 2579SOL     OW 8188   0.709   4.785   7.814
 2579SOL    HW1 8189   0.687   4.769   7.906
 2579SOL    HW2 8190   0.788   4.733   7.798
 2580SOL     OW 8191   0.342   4.821   7.924
 2580SOL    HW1 8192   0.334   4.905   7.878
 2580SOL    HW2 8193   0.343   4.756   7.855
 2581SOL     OW 8194   1.225   5.117   7.833
 2581SOL    HW1 8195   1.312   5.122   7.872
 2581SOL    HW2 8196   1.175   5.063   7.894
 2582SOL     OW 8197   1.587   4.349   7.920
 2582SOL    HW1 8198   1.579   4.408   7.995
 2582SOL    HW2 8199   1.624   4.403   7.850
 2583SOL     OW 8200   1.202   4.249   7.713
 2583SOL    HW1 8201   1.203   4.166   7.760
 2583SOL    HW2 8202   1.177   4.314   7.778
 2584SOL     OW 8203   1.621   4.104   7.811
 2584SOL    HW1 8204   1.643   4.038   7.876
 2584SOL    HW2 8205   1.596   4.181   7.862
 2585SOL     OW 8206   1.528   3.999   7.574
 2585SOL    HW1 8207   1.463   3.934   7.600
 2585SOL    HW2 8208   1.561   4.034   7.657
 2586SOL     OW 8209   1.292   4.551   7.480
 2586SOL    HW1 8210   1.333   4.464   7.482
 2586SOL    HW2 8211   1.322   4.590   7.398
 2587SOL     OW 8212   0.004   5.048   7.653
 2587SOL    HW1 8213   5.229   5.034   7.596
 2587SOL    HW2 8214   0.019   4.963   7.694
 2588SOL     OW 8215   0.845   4.335   7.754
 2588SOL    HW1 8216   0.840   4.242   7.732
 2588SOL    HW2 8217   0.754   4.363   7.759
 2589SOL     OW 8218   0.460   4.217   7.636
 2589SOL    HW1 8219   0.521   4.288   7.655
 2589SOL    HW2 8220   0.376   4.261   7.620
 2590SOL     OW 8221   1.312   4.581   7.753
 2590SOL    HW1 8222   1.225   4.584   7.793
 2590SOL    HW2 8223   1.295   4.567   7.659
 2591SOL     OW 8224   1.712   3.874   7.943
 2591SOL    HW1 8225   1.788   3.867   7.885
 2591SOL    HW2 8226   1.717   3.795   7.998
 2592SOL     OW 8227   0.924   4.631   7.757
 2592SOL    HW1 8228   0.978   4.655   7.682
 2592SOL    HW2 8229   0.916   4.535   7.751
 2593SOL     OW 8230   0.260   5.057   7.748
 2593SOL    HW1 8231   0.169   5.066   7.722
 2593SOL    HW2 8232   0.265   5.098   7.835
 2594SOL     OW 8233   0.085   4.058   7.487
 2594SOL    HW1 8234   5.299   4.022   7.465
 2594SOL    HW2 8235   0.101   4.125   7.420
 2595SOL     OW 8236   0.084   3.864   7.740
 2595SOL    HW1 8237   0.070   3.949   7.699
 2595SOL    HW2 8238   0.155   3.824   7.690
 2596SOL     OW 8239   1.180   5.056   7.567
 2596SOL    HW1 8240   1.088   5.030   7.563
 2596SOL    HW2 8241   1.197   5.073   7.659
 2597SOL     OW 8242   1.214   4.042   7.904
 2597SOL    HW1 8243   1.288   3.982   7.892
 2597SOL    HW2 8244   1.233   4.089   7.985
 2598SOL     OW 8245   0.628   4.472   8.038
 2598SOL    HW1 8246   0.629   4.542   0.023
 2598SOL    HW2 8247   0.535   4.461   8.016
 2599SOL     OW 8248   0.850   5.092   7.467
 2599SOL    HW1 8249   0.835   5.093   7.562
 2599SOL    HW2 8250   0.857   5.185   7.444
 2600SOL     OW 8251   1.072   4.701   7.539
 2600SOL    HW1 8252   1.052   4.758   7.465
 2600SOL    HW2 8253   1.149   4.652   7.512
 2601SOL     OW 8254   0.392   4.158   7.982
 2601SOL    HW1 8255   0.433   4.096   7.923
 2601SOL    HW2 8256   0.439   4.147   8.065
 2602SOL     OW 8257   0.809   5.050   7.732
 2602SOL    HW1 8258   0.760   4.971   7.755
 2602SOL    HW2 8259   0.816   5.098   7.815
 2603SOL     OW 8260   1.355   3.776   7.610
 2603SOL    HW1 8261   1.386   3.706   7.554
 2603SOL    HW2 8262   1.267   3.748   7.637
 2604SOL     OW 8263   0.051   4.790   7.724
 2604SOL    HW1 8264   0.139   4.753   7.719
 2604SOL    HW2 8265   0.003   4.730   7.781
 2605SOL     OW 8266   2.074   0.623   0.122
 2605SOL    HW1 8267   1.995   0.588   0.163
 2605SOL    HW2 8268   2.100   0.555   0.060
 2606SOL     OW 8269   2.078   0.286   0.994
 2606SOL    HW1 8270   2.107   0.249   1.077
 2606SOL    HW2 8271   1.995   0.242   0.976
 2607SOL     OW 8272   1.863   0.389   0.637
 2607SOL    HW1 8273   1.779   0.411   0.678
 2607SOL    HW2 8274   1.845   0.311   0.585
 2608SOL     OW 8275   2.430   1.292   1.178
 2608SOL    HW1 8276   2.342   1.296   1.139
 2608SOL    HW2 8277   2.445   1.381   1.211
 2609SOL     OW 8278   3.427   1.513   0.709
 2609SOL    HW1 8279   3.385   1.491   0.791
 2609SOL    HW2 8280   3.356   1.516   0.645
 2610SOL     OW 8281   2.995   0.697   0.700
 2610SOL    HW1 8282   3.042   0.780   0.686
 2610SOL    HW2 8283   2.947   0.711   0.781
 2611SOL     OW 8284   3.635   0.598   0.230
 2611SOL    HW1 8285   3.587   0.606   0.147
 2611SOL    HW2 8286   3.594   0.524   0.274
 2612SOL     OW 8287   2.613   1.140   1.044
 2612SOL    HW1 8288   2.546   1.177   1.101
 2612SOL    HW2 8289   2.651   1.216   0.999
 2613SOL     OW 8290   2.732   0.772   1.824
 2613SOL    HW1 8291   2.721   0.843   1.887
 2613SOL    HW2 8292   2.756   0.816   1.742
 2614SOL     OW 8293   2.546   0.998   0.649
 2614SOL    HW1 8294   2.612   0.989   0.717
 2614SOL    HW2 8295   2.478   1.053   0.689
 2615SOL     OW 8296   2.574   1.150   1.815
 2615SOL    HW1 8297   2.622   1.228   1.844
 2615SOL    HW2 8298   2.493   1.184   1.778
 2616SOL     OW 8299   2.192   1.422   1.067
 2616SOL    HW1 8300   2.119   1.383   1.019
 2616SOL    HW2 8301   2.240   1.473   1.002
 2617SOL     OW 8302   3.322   1.501   1.357
 2617SOL    HW1 8303   3.375   1.580   1.367
 2617SOL    HW2 8304   3.256   1.508   1.427
 2618SOL     OW 8305   2.308   0.397   1.480
 2618SOL    HW1 8306   2.382   0.337   1.482
 2618SOL    HW2 8307   2.232   0.341   1.499
 2619SOL     OW 8308   3.470   0.451   0.739
 2619SOL    HW1 8309   3.391   0.469   0.688
 2619SOL    HW2 8310   3.484   0.530   0.791
 2620SOL     OW 8311   2.083   1.715   0.470
 2620SOL    HW1 8312   2.103   1.791   0.525
 2620SOL    HW2 8313   2.159   1.707   0.412
 2621SOL     OW 8314   2.999   1.342   1.694
 2621SOL    HW1 8315   3.040   1.336   1.780
 2621SOL    HW2 8316   2.947   1.262   1.686
 2622SOL     OW 8317   2.088   1.441   0.527
 2622SOL    HW1 8318   2.074   1.535   0.531
 2622SOL    HW2 8319   2.032   1.405   0.596
 2623SOL     OW 8320   2.123   1.090   0.892
 2623SOL    HW1 8321   2.120   1.003   0.931
 2623SOL    HW2 8322   2.065   1.143   0.946
 2624SOL     OW 8323   2.467   1.792   1.424
 2624SOL    HW1 8324   2.388   1.773   1.474
 2624SOL    HW2 8325   2.492   1.880   1.452
 2625SOL     OW 8326   2.485   0.958   0.139
 2625SOL    HW1 8327   2.434   1.034   0.113
 2625SOL    HW2 8328   2.540   0.990   0.210
 2626SOL     OW 8329   3.449   0.138   1.454
 2626SOL    HW1 8330   3.476   0.221   1.416
 2626SOL    HW2 8331   3.442   0.155   1.548
 2627SOL     OW 8332   1.978   0.652   0.563
 2627SOL    HW1 8333   1.948   0.564   0.584
 2627SOL    HW2 8334   1.969   0.700   0.646
 2628SOL     OW 8335   3.710   1.756   0.328
 2628SOL    HW1 8336   3.776   1.727   0.390
 2628SOL    HW2 8337   3.732   1.847   0.310
 2629SOL     OW 8338   1.897   1.594   0.109
 2629SOL    HW1 8339   1.881   1.506   0.144
 2629SOL    HW2 8340   1.878   1.653   0.183
 2630SOL     OW 8341   3.551   0.919   0.647
 2630SOL    HW1 8342   3.631   0.874   0.622
 2630SOL    HW2 8343   3.528   0.971   0.569
 2631SOL     OW 8344   3.509   1.103   0.435
 2631SOL    HW1 8345   3.590   1.114   0.386
 2631SOL    HW2 8346   3.515   1.166   0.506
 2632SOL     OW 8347   1.986   0.745   1.583
 2632SOL    HW1 8348   2.077   0.773   1.588
 2632SOL    HW2 8349   1.935   0.826   1.591
 2633SOL     OW 8350   2.476   1.389   0.734
 2633SOL    HW1 8351   2.431   1.305   0.744
 2633SOL    HW2 8352   2.461   1.414   0.643
 2634SOL     OW 8353   3.149   1.237   1.422
 2634SOL    HW1 8354   3.181   1.170   1.362
 2634SOL    HW2 8355   3.208   1.232   1.498
 2635SOL     OW 8356   2.676   0.033   0.533
 2635SOL    HW1 8357   2.706   0.118   0.500
 2635SOL    HW2 8358   2.581   0.036   0.525
 2636SOL     OW 8359   2.051   0.964   1.274
 2636SOL    HW1 8360   2.136   0.924   1.259
 2636SOL    HW2 8361   1.990   0.911   1.222
 2637SOL     OW 8362   3.368   1.009   0.214
 2637SOL    HW1 8363   3.306   0.946   0.249
 2637SOL    HW2 8364   3.422   1.034   0.290
 2638SOL     OW 8365   3.047   1.809   1.624
 2638SOL    HW1 8366   3.054   1.869   1.549
 2638SOL    HW2 8367   3.064   1.723   1.587
 2639SOL     OW 8368   2.194   0.269   1.815
 2639SOL    HW1 8369   2.244   0.344   1.849
 2639SOL    HW2 8370   2.106   0.280   1.853
 2640SOL     OW 8371   3.329   1.419   0.949
 2640SOL    HW1 8372   3.261   1.435   1.015
 2640SOL    HW2 8373   3.316   1.328   0.923
 2641SOL     OW 8374   3.518   1.747   0.582
 2641SOL    HW1 8375   3.499   1.717   0.493
 2641SOL    HW2 8376   3.497   1.673   0.638
 2642SOL     OW 8377   2.461   0.712   0.284
 2642SOL    HW1 8378   2.477   0.792   0.234
 2642SOL    HW2 8379   2.395   0.737   0.349
 2643SOL     OW 8380   3.138   0.351   0.932
 2643SOL    HW1 8381   3.048   0.321   0.945
 2643SOL    HW2 8382   3.189   0.299   0.995
 2644SOL     OW 8383   3.449   1.672   0.321
 2644SOL    HW1 8384   3.541   1.699   0.313
 2644SOL    HW2 8385   3.421   1.655   0.231
 2645SOL     OW 8386   2.656   0.619   1.448
 2645SOL    HW1 8387   2.628   0.597   1.537
 2645SOL    HW2 8388   2.616   0.551   1.393
 2646SOL     OW 8389   3.256   0.476   1.678
 2646SOL    HW1 8390   3.259   0.520   1.763
 2646SOL    HW2 8391   3.319   0.404   1.687
 2647SOL     OW 8392   2.814   0.887   1.584
 2647SOL    HW1 8393   2.869   0.817   1.547
 2647SOL    HW2 8394   2.766   0.921   1.509
 2648SOL     OW 8395   2.856   0.417   1.233
 2648SOL    HW1 8396   2.769   0.436   1.267
 2648SOL    HW2 8397   2.840   0.369   1.151
 2649SOL     OW 8398   2.916   0.699   0.428
 2649SOL    HW1 8399   2.933   0.691   0.522
 2649SOL    HW2 8400   2.833   0.654   0.414
 2650SOL     OW 8401   1.950   0.822   0.777
 2650SOL    HW1 8402   2.031   0.815   0.828
 2650SOL    HW2 8403   1.907   0.900   0.812
 2651SOL     OW 8404   1.987   1.860   1.580
 2651SOL    HW1 8405   1.991   1.838   1.673
 2651SOL    HW2 8406   1.899   1.836   1.553
 2652SOL     OW 8407   2.750   0.360   0.204
 2652SOL    HW1 8408   2.793   0.408   0.134
 2652SOL    HW2 8409   2.731   0.274   0.166
 2653SOL     OW 8410   3.567   0.572   1.828
 2653SOL    HW1 8411   3.531   0.645   1.779
 2653SOL    HW2 8412   3.599   0.511   1.761
 2654SOL     OW 8413   3.240   1.142   0.541
 2654SOL    HW1 8414   3.319   1.129   0.487
 2654SOL    HW2 8415   3.187   1.203   0.492
 2655SOL     OW 8416   2.382   0.202   0.881
 2655SOL    HW1 8417   2.405   0.218   0.973
 2655SOL    HW2 8418   2.406   0.283   0.836
 2656SOL     OW 8419   2.864   1.444   0.471
 2656SOL    HW1 8420   2.828   1.518   0.422
 2656SOL    HW2 8421   2.843   1.463   0.562
 2657SOL     OW 8422   2.216   1.811   0.865
 2657SOL    HW1 8423   2.259   1.725   0.872
 2657SOL    HW2 8424   2.286   1.874   0.883
 2658SOL     OW 8425   3.662   1.055   0.870
 2658SOL    HW1 8426   3.609   1.034   0.793
 2658SOL    HW2 8427   3.599   1.061   0.942
 2659SOL     OW 8428   3.090   1.539   1.513
 2659SOL    HW1 8429   3.077   1.467   1.574
 2659SOL    HW2 8430   3.024   1.524   1.445
 2660SOL     OW 8431   2.183   0.944   0.259
 2660SOL    HW1 8432   2.250   0.985   0.204
 2660SOL    HW2 8433   2.188   0.851   0.237
 2661SOL     OW 8434   3.342   0.747   0.725
 2661SOL    HW1 8435   3.336   0.705   0.811
 2661SOL    HW2 8436   3.420   0.802   0.731
 2662SOL     OW 8437   2.330   1.266   1.738
 2662SOL    HW1 8438   2.303   1.271   1.646
 2662SOL    HW2 8439   2.248   1.263   1.786
 2663SOL     OW 8440   2.968   1.782   0.222
 2663SOL    HW1 8441   2.911   1.741   0.287
 2663SOL    HW2 8442   2.991   1.711   0.162
 2664SOL     OW 8443   2.059   0.277   1.505
 2664SOL    HW1 8444   1.980   0.331   1.505
 2664SOL    HW2 8445   2.053   0.227   1.586
 2665SOL     OW 8446   3.497   1.372   0.083
 2665SOL    HW1 8447   3.455   1.458   0.084
 2665SOL    HW2 8448   3.425   1.311   0.064
 2666SOL     OW 8449   2.326   1.736   0.323
 2666SOL    HW1 8450   2.370   1.795   0.384
 2666SOL    HW2 8451   2.395   1.707   0.264
 2667SOL     OW 8452   3.280   0.100   0.447
 2667SOL    HW1 8453   3.275   0.080   0.354
 2667SOL    HW2 8454   3.371   0.127   0.461
 2668SOL     OW 8455   2.119   1.791   1.230
 2668SOL    HW1 8456   2.169   1.724   1.276
 2668SOL    HW2 8457   2.110   1.758   1.141
 2669SOL     OW 8458   2.800   1.699   0.898
 2669SOL    HW1 8459   2.878   1.649   0.919
 2669SOL    HW2 8460   2.757   1.649   0.828
 2670SOL     OW 8461   2.249   0.699   0.475
 2670SOL    HW1 8462   2.271   0.606   0.487
 2670SOL    HW2 8463   2.156   0.704   0.498
 2671SOL     OW 8464   3.398   0.228   1.722
 2671SOL    HW1 8465   3.407   0.244   1.816
 2671SOL    HW2 8466   3.321   0.171   1.714
 2672SOL     OW 8467   2.488   0.138   0.124
 2672SOL    HW1 8468   2.579   0.112   0.132
 2672SOL    HW2 8469   2.459   0.100   0.041
 2673SOL     OW 8470   2.639   0.312   1.769
 2673SOL    HW1 8471   2.699   0.238   1.768
 2673SOL    HW2 8472   2.594   0.305   1.853
 2674SOL     OW 8473   2.737   1.522   1.194
 2674SOL    HW1 8474   2.721   1.485   1.107
 2674SOL    HW2 8475   2.808   1.468   1.231
 2675SOL     OW 8476   3.202   0.589   1.432
 2675SOL    HW1 8477   3.233   0.558   1.518
 2675SOL    HW2 8478   3.238   0.677   1.424
 2676SOL     OW 8479   2.678   1.393   0.943
 2676SOL    HW1 8480   2.763   1.381   0.900
 2676SOL    HW2 8481   2.615   1.396   0.871
 2677SOL     OW 8482   2.790   0.511   0.901
 2677SOL    HW1 8483   2.765   0.502   0.809
 2677SOL    HW2 8484   2.819   0.423   0.927
 2678SOL     OW 8485   2.406   0.061   0.510
 2678SOL    HW1 8486   2.320   0.057   0.552
 2678SOL    HW2 8487   2.397   0.129   0.444
 2679SOL     OW 8488   3.295   1.200   0.035
 2679SOL    HW1 8489   3.318   1.126   0.092
 2679SOL    HW2 8490   3.207   1.226   0.063
 2680SOL     OW 8491   2.163   0.073   0.207
 2680SOL    HW1 8492   2.222   0.145   0.183
 2680SOL    HW2 8493   2.215   5.294   0.192
 2681SOL     OW 8494   2.808   0.261   0.454
 2681SOL    HW1 8495   2.782   0.305   0.373
 2681SOL    HW2 8496   2.900   0.284   0.465
 2682SOL     OW 8497   2.943   0.683   1.458
 2682SOL    HW1 8498   2.876   0.615   1.463
 2682SOL    HW2 8499   3.025   0.635   1.452
 2683SOL     OW 8500   3.083   1.571   0.795
 2683SOL    HW1 8501   3.099   1.637   0.727
 2683SOL    HW2 8502   3.152   1.586   0.859
 2684SOL     OW 8503   2.331   1.153   0.731
 2684SOL    HW1 8504   2.264   1.132   0.795
 2684SOL    HW2 8505   2.289   1.137   0.646
 2685SOL     OW 8506   3.128   1.793   0.609
 2685SOL    HW1 8507   3.179   1.857   0.559
 2685SOL    HW2 8508   3.061   1.846   0.652
 2686SOL     OW 8509   2.891   0.524   0.034
 2686SOL    HW1 8510   2.853   0.607   0.004
 2686SOL    HW2 8511   2.955   0.549   0.100
 2687SOL     OW 8512   1.943   0.552   1.393
 2687SOL    HW1 8513   2.034   0.553   1.366
 2687SOL    HW2 8514   1.937   0.623   1.458
 2688SOL     OW 8515   2.415   0.238   1.159
 2688SOL    HW1 8516   2.448   0.154   1.188
 2688SOL    HW2 8517   2.323   0.239   1.186
 2689SOL     OW 8518   2.728   0.461   0.640
 2689SOL    HW1 8519   2.687   0.516   0.573
 2689SOL    HW2 8520   2.751   0.380   0.593
 2690SOL     OW 8521   2.838   0.062   0.765
 2690SOL    HW1 8522   2.775   0.059   0.693
 2690SOL    HW2 8523   2.851   5.271   0.790
 2691SOL     OW 8524   3.300   1.162   0.856
 2691SOL    HW1 8525   3.230   1.097   0.856
 2691SOL    HW2 8526   3.324   1.171   0.764
 2692SOL     OW 8527   3.328   0.609   0.974
 2692SOL    HW1 8528   3.276   0.529   0.977
 2692SOL    HW2 8529   3.387   0.602   1.048
 2693SOL     OW 8530   3.709   0.813   0.387
 2693SOL    HW1 8531   3.762   0.761   0.448
 2693SOL    HW2 8532   3.680   0.750   0.322
 2694SOL     OW 8533   2.345   1.440   0.173
 2694SOL    HW1 8534   2.271   1.400   0.220
 2694SOL    HW2 8535   2.354   1.387   0.094
 2695SOL     OW 8536   3.536   1.265   0.645
 2695SOL    HW1 8537   3.630   1.267   0.660
 2695SOL    HW2 8538   3.507   1.354   0.666
 2696SOL     OW 8539   3.261   0.574   0.088
 2696SOL    HW1 8540   3.198   0.558   0.158
 2696SOL    HW2 8541   3.312   0.493   0.083
 2697SOL     OW 8542   2.383   0.269   0.328
 2697SOL    HW1 8543   2.426   0.215   0.262
 2697SOL    HW2 8544   2.366   0.352   0.283
 2698SOL     OW 8545   3.613   1.241   1.569
 2698SOL    HW1 8546   3.700   1.202   1.564
 2698SOL    HW2 8547   3.628   1.331   1.597
 2699SOL     OW 8548   2.919   1.354   1.333
 2699SOL    HW1 8549   2.844   1.323   1.384
 2699SOL    HW2 8550   2.994   1.312   1.374
 2700SOL     OW 8551   3.471   1.626   1.656
 2700SOL    HW1 8552   3.463   1.660   1.567
 2700SOL    HW2 8553   3.553   1.578   1.656
 2701SOL     OW 8554   2.994   1.207   1.104
 2701SOL    HW1 8555   2.934   1.244   1.168
 2701SOL    HW2 8556   2.963   1.240   1.020
 2702SOL     OW 8557   3.488   1.097   1.076
 2702SOL    HW1 8558   3.482   1.159   1.149
 2702SOL    HW2 8559   3.410   1.115   1.023
 2703SOL     OW 8560   2.764   0.108   1.385
 2703SOL    HW1 8561   2.795   0.073   1.301
 2703SOL    HW2 8562   2.841   0.150   1.423
 2704SOL     OW 8563   2.846   1.115   1.723
 2704SOL    HW1 8564   2.755   1.131   1.746
 2704SOL    HW2 8565   2.844   1.037   1.668
 2705SOL     OW 8566   2.580   1.065   0.382
 2705SOL    HW1 8567   2.561   1.044   0.473
 2705SOL    HW2 8568   2.657   1.013   0.361
 2706SOL     OW 8569   2.282   0.817   1.252
 2706SOL    HW1 8570   2.350   0.826   1.318
 2706SOL    HW2 8571   2.247   0.729   1.265
 2707SOL     OW 8572   3.127   0.378   1.275
 2707SOL    HW1 8573   3.161   0.454   1.321
 2707SOL    HW2 8574   3.037   0.400   1.252
 2708SOL     OW 8575   1.935   1.574   1.355
 2708SOL    HW1 8576   1.907   1.646   1.299
 2708SOL    HW2 8577   2.030   1.574   1.348
 2709SOL     OW 8578   2.202   1.112   0.491
 2709SOL    HW1 8579   2.208   1.184   0.428
 2709SOL    HW2 8580   2.210   1.033   0.438
 2710SOL     OW 8581   2.413   0.535   0.860
 2710SOL    HW1 8582   2.427   0.594   0.786
 2710SOL    HW2 8583   2.480   0.561   0.924
 2711SOL     OW 8584   3.109   1.347   0.395
 2711SOL    HW1 8585   3.164   1.419   0.423
 2711SOL    HW2 8586   3.021   1.370   0.426
 2712SOL     OW 8587   3.147   1.459   1.148
 2712SOL    HW1 8588   3.203   1.462   1.225
 2712SOL    HW2 8589   3.092   1.382   1.161
 2713SOL     OW 8590   3.442   0.624   0.484
 2713SOL    HW1 8591   3.391   0.671   0.551
 2713SOL    HW2 8592   3.473   0.693   0.426
 2714SOL     OW 8593   2.207   1.529   1.312
 2714SOL    HW1 8594   2.196   1.485   1.228
 2714SOL    HW2 8595   2.302   1.540   1.321
 2715SOL     OW 8596   2.278   0.744   1.603
 2715SOL    HW1 8597   2.340   0.789   1.545
 2715SOL    HW2 8598   2.319   0.660   1.622
 2716SOL     OW 8599   3.467   0.779   1.684
 2716SOL    HW1 8600   3.381   0.821   1.678
 2716SOL    HW2 8601   3.519   0.822   1.616
 2717SOL     OW 8602   2.916   0.119   1.788
 2717SOL    HW1 8603   2.941   0.198   1.742
 2717SOL    HW2 8604   2.916   0.051   1.721
 2718SOL     OW 8605   2.345   0.059   1.737
 2718SOL    HW1 8606   2.283   5.294   1.704
 2718SOL    HW2 8607   2.291   0.135   1.759
 2719SOL     OW 8608   2.446   0.873   1.032
 2719SOL    HW1 8609   2.478   0.963   1.033
 2719SOL    HW2 8610   2.389   0.867   1.109
 2720SOL     OW 8611   3.216   0.859   1.026
 2720SOL    HW1 8612   3.131   0.847   0.982
 2720SOL    HW2 8613   3.259   0.774   1.019
 2721SOL     OW 8614   3.062   0.526   0.269
 2721SOL    HW1 8615   3.072   0.448   0.323
 2721SOL    HW2 8616   3.020   0.590   0.327
 2722SOL     OW 8617   2.156   0.202   1.249
 2722SOL    HW1 8618   2.116   0.241   1.327
 2722SOL    HW2 8619   2.159   0.108   1.269
 2723SOL     OW 8620   1.909   1.311   1.275
 2723SOL    HW1 8621   1.941   1.256   1.346
 2723SOL    HW2 8622   1.914   1.400   1.310
 2724SOL     OW 8623   2.586   0.631   1.057
 2724SOL    HW1 8624   2.661   0.616   1.000
 2724SOL    HW2 8625   2.557   0.720   1.036
 2725SOL     OW 8626   3.598   0.959   1.855
 2725SOL    HW1 8627   3.554   0.894   1.800
 2725SOL    HW2 8628   3.538   0.975   1.928
 2726SOL     OW 8629   2.170   0.069   0.658
 2726SOL    HW1 8630   2.145   0.161   0.660
 2726SOL    HW2 8631   2.221   0.056   0.738
 2727SOL     OW 8632   3.488   0.382   0.365
 2727SOL    HW1 8633   3.513   0.314   0.427
 2727SOL    HW2 8634   3.462   0.456   0.420
 2728SOL     OW 8635   2.890   0.759   0.960
 2728SOL    HW1 8636   2.884   0.776   1.054
 2728SOL    HW2 8637   2.863   0.668   0.950
 2729SOL     OW 8638   2.843   1.566   1.719
 2729SOL    HW1 8639   2.828   1.610   1.635
 2729SOL    HW2 8640   2.887   1.484   1.696
 2730SOL     OW 8641   3.715   1.503   1.605
 2730SOL    HW1 8642   3.735   1.530   1.515
 2730SOL    HW2 8643   3.796   1.519   1.653
 2731SOL     OW 8644   2.215   0.917   1.809
 2731SOL    HW1 8645   2.296   0.936   1.856
 2731SOL    HW2 8646   2.240   0.854   1.741
 2732SOL     OW 8647   3.378   0.310   0.125
 2732SOL    HW1 8648   3.347   0.221   0.137
 2732SOL    HW2 8649   3.420   0.332   0.209
 2733SOL     OW 8650   3.158   0.821   0.021
 2733SOL    HW1 8651   3.196   0.735   0.037
 2733SOL    HW2 8652   3.220   0.864   8.042
 2734SOL     OW 8653   2.928   1.337   0.856
 2734SOL    HW1 8654   2.932   1.265   0.793
 2734SOL    HW2 8655   2.989   1.403   0.820
 2735SOL     OW 8656   2.170   0.808   0.946
 2735SOL    HW1 8657   2.264   0.829   0.940
 2735SOL    HW2 8658   2.168   0.718   0.977
 2736SOL     OW 8659   2.192   0.528   1.013
 2736SOL    HW1 8660   2.156   0.441   0.999
 2736SOL    HW2 8661   2.269   0.532   0.956
 2737SOL     OW 8662   2.997   0.377   1.690
 2737SOL    HW1 8663   2.949   0.431   1.753
 2737SOL    HW2 8664   3.084   0.417   1.686
 2738SOL     OW 8665   2.993   0.222   1.467
 2738SOL    HW1 8666   2.997   0.281   1.542
 2738SOL    HW2 8667   3.049   0.262   1.401
 2739SOL     OW 8668   1.876   1.321   0.187
 2739SOL    HW1 8669   1.789   1.336   0.150
 2739SOL    HW2 8670   1.873   1.232   0.222
 2740SOL     OW 8671   1.952   1.785   0.939
 2740SOL    HW1 8672   1.922   1.706   0.894
 2740SOL    HW2 8673   2.042   1.797   0.908
 2741SOL     OW 8674   2.356   1.574   0.904
 2741SOL    HW1 8675   2.425   1.636   0.930
 2741SOL    HW2 8676   2.400   1.511   0.847
 2742SOL     OW 8677   2.840   0.790   1.225
 2742SOL    HW1 8678   2.899   0.769   1.298
 2742SOL    HW2 8679   2.756   0.752   1.250
 2743SOL     OW 8680   1.897   0.546   1.117
 2743SOL    HW1 8681   1.977   0.532   1.065
 2743SOL    HW2 8682   1.928   0.548   1.207
 2744SOL     OW 8683   2.047   0.525   1.729
 2744SOL    HW1 8684   2.112   0.487   1.669
 2744SOL    HW2 8685   2.011   0.600   1.682
 2745SOL     OW 8686   3.241   0.936   1.658
 2745SOL    HW1 8687   3.262   1.030   1.655
 2745SOL    HW2 8688   3.237   0.910   1.566
 2746SOL     OW 8689   2.682   0.571   0.372
 2746SOL    HW1 8690   2.691   0.500   0.308
 2746SOL    HW2 8691   2.605   0.620   0.342
 2747SOL     OW 8692   3.503   0.601   1.183
 2747SOL    HW1 8693   3.493   0.542   1.258
 2747SOL    HW2 8694   3.591   0.582   1.149
 2748SOL     OW 8695   2.102   1.550   1.725
 2748SOL    HW1 8696   2.081   1.614   1.793
 2748SOL    HW2 8697   2.108   1.467   1.772
 2749SOL     OW 8698   2.567   0.449   1.257
 2749SOL    HW1 8699   2.513   0.377   1.226
 2749SOL    HW2 8700   2.564   0.514   1.187
 2750SOL     OW 8701   2.786   1.679   1.469
 2750SOL    HW1 8702   2.762   1.642   1.385
 2750SOL    HW2 8703   2.781   1.774   1.456
 2751SOL     OW 8704   2.328   0.493   0.175
 2751SOL    HW1 8705   2.398   0.556   0.194
 2751SOL    HW2 8706   2.247   0.540   0.194
 2752SOL     OW 8707   2.006   1.142   1.473
 2752SOL    HW1 8708   2.008   1.092   1.555
 2752SOL    HW2 8709   2.023   1.076   1.405
 2753SOL     OW 8710   3.185   1.045   1.221
 2753SOL    HW1 8711   3.208   0.982   1.154
 2753SOL    HW2 8712   3.117   1.100   1.182
 2754SOL     OW 8713   3.168   0.848   0.309
 2754SOL    HW1 8714   3.091   0.817   0.357
 2754SOL    HW2 8715   3.144   0.835   0.217
 2755SOL     OW 8716   3.637   1.741   1.152
 2755SOL    HW1 8717   3.697   1.767   1.083
 2755SOL    HW2 8718   3.612   1.651   1.130
 2756SOL     OW 8719   3.102   1.733   1.109
 2756SOL    HW1 8720   3.185   1.755   1.066
 2756SOL    HW2 8721   3.110   1.639   1.129
 2757SOL     OW 8722   1.947   1.267   1.011
 2757SOL    HW1 8723   1.931   1.281   1.104
 2757SOL    HW2 8724   1.875   1.211   0.982
 2758SOL     OW 8725   2.538   1.668   1.733
 2758SOL    HW1 8726   2.485   1.747   1.731
 2758SOL    HW2 8727   2.607   1.683   1.668
 2759SOL     OW 8728   2.755   0.085   0.138
 2759SOL    HW1 8729   2.806   0.074   0.058
 2759SOL    HW2 8730   2.768   0.004   0.186
 2760SOL     OW 8731   3.573   0.152   0.502
 2760SOL    HW1 8732   3.647   0.131   0.445
 2760SOL    HW2 8733   3.568   0.078   0.562
 2761SOL     OW 8734   3.253   1.568   0.489
 2761SOL    HW1 8735   3.315   1.601   0.425
 2761SOL    HW2 8736   3.204   1.645   0.517
 2762SOL     OW 8737   2.000   1.797   1.843
 2762SOL    HW1 8738   1.950   1.731   1.891
 2762SOL    HW2 8739   2.048   1.844   1.911
 2763SOL     OW 8740   3.139   0.927   0.672
 2763SOL    HW1 8741   3.213   0.866   0.680
 2763SOL    HW2 8742   3.173   0.999   0.618
 2764SOL     OW 8743   2.672   1.275   1.427
 2764SOL    HW1 8744   2.644   1.314   1.510
 2764SOL    HW2 8745   2.602   1.296   1.365
 2765SOL     OW 8746   2.537   1.624   0.157
 2765SOL    HW1 8747   2.545   1.631   0.061
 2765SOL    HW2 8748   2.477   1.551   0.170
 2766SOL     OW 8749   3.484   1.727   1.391
 2766SOL    HW1 8750   3.536   1.733   1.311
 2766SOL    HW2 8751   3.470   1.818   1.417
 2767SOL     OW 8752   3.709   0.153   0.956
 2767SOL    HW1 8753   3.702   0.057   0.955
 2767SOL    HW2 8754   3.623   0.183   0.925
 2768SOL     OW 8755   2.121   0.329   0.718
 2768SOL    HW1 8756   2.033   0.360   0.698
 2768SOL    HW2 8757   2.121   0.318   0.813
 2769SOL     OW 8758   3.022   1.580   0.052
 2769SOL    HW1 8759   3.032   1.487   0.074
 2769SOL    HW2 8760   3.033   1.583   8.036
 2770SOL     OW 8761   2.685   1.006   1.373
 2770SOL    HW1 8762   2.730   1.000   1.289
 2770SOL    HW2 8763   2.684   1.100   1.394
 2771SOL     OW 8764   2.783   0.915   0.300
 2771SOL    HW1 8765   2.836   0.938   0.224
 2771SOL    HW2 8766   2.831   0.843   0.341
 2772SOL     OW 8767   3.371   1.622   0.062
 2772SOL    HW1 8768   3.276   1.622   0.049
 2772SOL    HW2 8769   3.407   1.627   8.053
 2773SOL     OW 8770   2.230   1.304   1.492
 2773SOL    HW1 8771   2.217   1.381   1.436
 2773SOL    HW2 8772   2.153   1.249   1.476
 2774SOL     OW 8773   3.471   1.283   1.280
 2774SOL    HW1 8774   3.531   1.270   1.354
 2774SOL    HW2 8775   3.411   1.351   1.310
 2775SOL     OW 8776   2.918   1.109   0.709
 2775SOL    HW1 8777   2.846   1.058   0.747
 2775SOL    HW2 8778   2.981   1.044   0.678
 2776SOL     OW 8779   2.880   0.244   0.970
 2776SOL    HW1 8780   2.860   0.198   0.888
 2776SOL    HW2 8781   2.874   0.176   1.037
 2777SOL     OW 8782   2.467   1.486   0.478
 2777SOL    HW1 8783   2.513   1.436   0.411
 2777SOL    HW2 8784   2.395   1.528   0.431
 2778SOL     OW 8785   3.589   0.386   1.377
 2778SOL    HW1 8786   3.660   0.450   1.377
 2778SOL    HW2 8787   3.620   0.316   1.319
 2779SOL     OW 8788   2.130   1.317   0.293
 2779SOL    HW1 8789   2.044   1.327   0.252
 2779SOL    HW2 8790   2.122   1.363   0.377
 2780SOL     OW 8791   1.975   1.026   1.721
 2780SOL    HW1 8792   1.899   1.001   1.773
 2780SOL    HW2 8793   2.050   0.987   1.766
 2781SOL     OW 8794   2.535   0.215   1.491
 2781SOL    HW1 8795   2.618   0.198   1.445
 2781SOL    HW2 8796   2.560   0.264   1.569
 2782SOL     OW 8797   1.931   0.362   0.032
 2782SOL    HW1 8798   1.860   0.298   0.027
 2782SOL    HW2 8799   1.942   0.393   8.023
 2783SOL     OW 8800   3.290   0.858   1.399
 2783SOL    HW1 8801   3.241   0.919   1.344
 2783SOL    HW2 8802   3.379   0.860   1.364
 2784SOL     OW 8803   1.929   0.165   0.313
 2784SOL    HW1 8804   1.938   0.254   0.279
 2784SOL    HW2 8805   2.013   0.123   0.296
 2785SOL     OW 8806   3.046   1.315   0.121
 2785SOL    HW1 8807   2.951   1.305   0.118
 2785SOL    HW2 8808   3.067   1.315   0.214
 2786SOL     OW 8809   2.482   0.831   1.434
 2786SOL    HW1 8810   2.538   0.907   1.419
 2786SOL    HW2 8811   2.543   0.757   1.442
 2787SOL     OW 8812   3.345   1.780   0.981
 2787SOL    HW1 8813   3.368   1.842   0.912
 2787SOL    HW2 8814   3.429   1.757   1.022
 2788SOL     OW 8815   2.577   0.573   1.700
 2788SOL    HW1 8816   2.620   0.635   1.759
 2788SOL    HW2 8817   2.603   0.487   1.733
 2789SOL     OW 8818   3.335   1.197   1.630
 2789SOL    HW1 8819   3.323   1.212   1.724
 2789SOL    HW2 8820   3.428   1.214   1.615
 2790SOL     OW 8821   2.236   1.739   1.562
 2790SOL    HW1 8822   2.152   1.782   1.550
 2790SOL    HW2 8823   2.214   1.656   1.605
 2791SOL     OW 8824   3.529   0.881   1.255
 2791SOL    HW1 8825   3.524   0.795   1.212
 2791SOL    HW2 8826   3.519   0.944   1.184
 2792SOL     OW 8827   3.077   0.327   0.473
 2792SOL    HW1 8828   3.135   0.253   0.459
 2792SOL    HW2 8829   3.116   0.374   0.547
 2793SOL     OW 8830   2.448   0.736   0.672
 2793SOL    HW1 8831   2.488   0.821   0.657
 2793SOL    HW2 8832   2.381   0.729   0.603
 2794SOL     OW 8833   3.627   0.363   1.649
 2794SOL    HW1 8834   3.608   0.378   1.557
 2794SOL    HW2 8835   3.555   0.307   1.679
 2795SOL     OW 8836   3.608   0.934   1.512
 2795SOL    HW1 8837   3.602   1.028   1.524
 2795SOL    HW2 8838   3.592   0.921   1.418
 2796SOL     OW 8839   2.762   1.371   0.044
 2796SOL    HW1 8840   2.699   1.359   0.114
 2796SOL    HW2 8841   2.738   1.454   0.003
 2797SOL     OW 8842   2.524   1.787   0.943
 2797SOL    HW1 8843   2.506   1.877   0.918
 2797SOL    HW2 8844   2.620   1.778   0.936
 2798SOL     OW 8845   2.730   0.968   0.855
 2798SOL    HW1 8846   2.781   0.896   0.893
 2798SOL    HW2 8847   2.694   1.015   0.930
 2799SOL     OW 8848   2.940   0.974   0.086
 2799SOL    HW1 8849   2.927   1.036   0.014
 2799SOL    HW2 8850   3.016   0.923   0.059
 2800SOL     OW 8851   3.713   1.553   0.843
 2800SOL    HW1 8852   3.634   1.542   0.791
 2800SOL    HW2 8853   3.705   1.488   0.913
 2801SOL     OW 8854   2.088   1.302   1.855
 2801SOL    HW1 8855   2.022   1.239   1.825
 2801SOL    HW2 8856   2.069   1.314   1.948
 2802SOL     OW 8857   1.949   1.231   0.666
 2802SOL    HW1 8858   1.954   1.183   0.749
 2802SOL    HW2 8859   2.020   1.194   0.613
 2803SOL     OW 8860   2.544   1.406   1.628
 2803SOL    HW1 8861   2.465   1.362   1.662
 2803SOL    HW2 8862   2.541   1.494   1.666
 2804SOL     OW 8863   3.671   0.174   1.230
 2804SOL    HW1 8864   3.635   0.086   1.231
 2804SOL    HW2 8865   3.695   0.190   1.139
 2805SOL     OW 8866   2.287   0.439   0.524
 2805SOL    HW1 8867   2.325   0.367   0.473
 2805SOL    HW2 8868   2.241   0.397   0.596
 2806SOL     OW 8869   3.561   1.488   1.093
 2806SOL    HW1 8870   3.481   1.466   1.046
 2806SOL    HW2 8871   3.570   1.418   1.159
 2807SOL     OW 8872   2.192   0.559   1.291
 2807SOL    HW1 8873   2.248   0.503   1.346
 2807SOL    HW2 8874   2.212   0.531   1.201
 2808SOL     OW 8875   2.691   1.578   0.676
 2808SOL    HW1 8876   2.674   1.634   0.601
 2808SOL    HW2 8877   2.615   1.519   0.679
 2809SOL     OW 8878   3.289   0.219   1.116
 2809SOL    HW1 8879   3.325   0.144   1.164
 2809SOL    HW2 8880   3.240   0.269   1.183
 2810SOL     OW 8881   2.865   0.020   1.138
 2810SOL    HW1 8882   2.814   5.252   1.092
 2810SOL    HW2 8883   2.950   5.280   1.152
 2811SOL     OW 8884   2.634   1.328   0.310
 2811SOL    HW1 8885   2.604   1.238   0.326
 2811SOL    HW2 8886   2.715   1.335   0.359
 2812SOL     OW 8887   2.481   1.555   1.285
 2812SOL    HW1 8888   2.483   1.637   1.334
 2812SOL    HW2 8889   2.569   1.548   1.248
 2813SOL     OW 8890   3.260   0.051   0.167
 2813SOL    HW1 8891   3.246   0.028   0.075
 2813SOL    HW2 8892   3.174   0.082   0.197
 2814SOL     OW 8893   3.171   0.469   0.688
 2814SOL    HW1 8894   3.114   0.546   0.691
 2814SOL    HW2 8895   3.159   0.427   0.774
 2815SOL     OW 8896   3.457   0.215   0.884
 2815SOL    HW1 8897   3.392   0.227   0.953
 2815SOL    HW2 8898   3.450   0.294   0.830
 2816SOL     OW 8899   1.906   1.065   0.307
 2816SOL    HW1 8900   2.002   1.063   0.310
 2816SOL    HW2 8901   1.880   0.981   0.344
 2817SOL     OW 8902   2.745   1.657   0.348
 2817SOL    HW1 8903   2.677   1.641   0.283
 2817SOL    HW2 8904   2.714   1.733   0.398
 2818SOL     OW 8905   2.088   0.626   1.987
 2818SOL    HW1 8906   1.999   0.621   2.024
 2818SOL    HW2 8907   2.077   0.600   1.896
 2819SOL     OW 8908   2.079   0.286   2.856
 2819SOL    HW1 8909   2.107   0.249   2.939
 2819SOL    HW2 8910   1.995   0.242   2.837
 2820SOL     OW 8911   1.864   0.389   2.499
 2820SOL    HW1 8912   1.779   0.410   2.540
 2820SOL    HW2 8913   1.846   0.312   2.445
 2821SOL     OW 8914   2.429   1.292   3.041
 2821SOL    HW1 8915   2.343   1.296   3.001
 2821SOL    HW2 8916   2.445   1.381   3.073
 2822SOL     OW 8917   3.427   1.513   2.570
 2822SOL    HW1 8918   3.384   1.490   2.652
 2822SOL    HW2 8919   3.356   1.516   2.506
 2823SOL     OW 8920   2.995   0.698   2.561
 2823SOL    HW1 8921   3.042   0.780   2.547
 2823SOL    HW2 8922   2.947   0.711   2.643
 2824SOL     OW 8923   3.632   0.604   2.089
 2824SOL    HW1 8924   3.610   0.597   1.996
 2824SOL    HW2 8925   3.595   0.524   2.128
 2825SOL     OW 8926   2.613   1.140   2.906
 2825SOL    HW1 8927   2.546   1.176   2.963
 2825SOL    HW2 8928   2.650   1.216   2.861
 2826SOL     OW 8929   2.732   0.772   3.686
 2826SOL    HW1 8930   2.721   0.843   3.749
 2826SOL    HW2 8931   2.756   0.816   3.604
 2827SOL     OW 8932   2.548   1.000   2.507
 2827SOL    HW1 8933   2.613   0.990   2.576
 2827SOL    HW2 8934   2.479   1.053   2.547
 2828SOL     OW 8935   2.574   1.149   3.677
 2828SOL    HW1 8936   2.621   1.227   3.706
 2828SOL    HW2 8937   2.492   1.183   3.640
 2829SOL     OW 8938   2.192   1.422   2.929
 2829SOL    HW1 8939   2.119   1.383   2.881
 2829SOL    HW2 8940   2.240   1.473   2.864
 2830SOL     OW 8941   3.322   1.501   3.219
 2830SOL    HW1 8942   3.376   1.580   3.229
 2830SOL    HW2 8943   3.258   1.507   3.290
 2831SOL     OW 8944   2.308   0.397   3.343
 2831SOL    HW1 8945   2.382   0.337   3.344
 2831SOL    HW2 8946   2.232   0.341   3.361
 2832SOL     OW 8947   3.470   0.451   2.601
 2832SOL    HW1 8948   3.395   0.471   2.546
 2832SOL    HW2 8949   3.484   0.530   2.653
 2833SOL     OW 8950   2.081   1.715   2.332
 2833SOL    HW1 8951   2.103   1.791   2.387
 2833SOL    HW2 8952   2.157   1.706   2.274
 2834SOL     OW 8953   2.999   1.341   3.556
 2834SOL    HW1 8954   3.041   1.335   3.642
 2834SOL    HW2 8955   2.947   1.261   3.550
 2835SOL     OW 8956   2.093   1.443   2.397
 2835SOL    HW1 8957   2.075   1.537   2.400
 2835SOL    HW2 8958   2.034   1.405   2.463
 2836SOL     OW 8959   2.123   1.090   2.754
 2836SOL    HW1 8960   2.120   1.003   2.793
 2836SOL    HW2 8961   2.065   1.143   2.808
 2837SOL     OW 8962   2.471   1.791   3.286
 2837SOL    HW1 8963   2.391   1.780   3.337
 2837SOL    HW2 8964   2.507   1.874   3.317
 2838SOL     OW 8965   2.444   0.984   1.999
 2838SOL    HW1 8966   2.492   1.030   1.930
 2838SOL    HW2 8967   2.483   1.014   2.080
 2839SOL     OW 8968   3.449   0.138   3.316
 2839SOL    HW1 8969   3.476   0.221   3.278
 2839SOL    HW2 8970   3.442   0.155   3.410
 2840SOL     OW 8971   1.978   0.655   2.422
 2840SOL    HW1 8972   1.950   0.566   2.443
 2840SOL    HW2 8973   1.970   0.703   2.504
 2841SOL     OW 8974   3.705   1.757   2.195
 2841SOL    HW1 8975   3.772   1.730   2.258
 2841SOL    HW2 8976   3.726   1.848   2.176
 2842SOL     OW 8977   1.897   1.593   1.984
 2842SOL    HW1 8978   1.879   1.501   2.004
 2842SOL    HW2 8979   1.872   1.640   2.064
 2843SOL     OW 8980   3.552   0.919   2.506
 2843SOL    HW1 8981   3.633   0.874   2.482
 2843SOL    HW2 8982   3.529   0.969   2.427
 2844SOL     OW 8983   3.509   1.105   2.291
 2844SOL    HW1 8984   3.596   1.108   2.250
 2844SOL    HW2 8985   3.515   1.167   2.364
 2845SOL     OW 8986   1.986   0.745   3.445
 2845SOL    HW1 8987   2.077   0.773   3.450
 2845SOL    HW2 8988   1.935   0.826   3.452
 2846SOL     OW 8989   2.476   1.388   2.597
 2846SOL    HW1 8990   2.431   1.304   2.606
 2846SOL    HW2 8991   2.460   1.415   2.507
 2847SOL     OW 8992   3.149   1.237   3.284
 2847SOL    HW1 8993   3.181   1.169   3.224
 2847SOL    HW2 8994   3.208   1.231   3.360
 2848SOL     OW 8995   2.676   0.032   2.394
 2848SOL    HW1 8996   2.704   0.119   2.366
 2848SOL    HW2 8997   2.580   0.035   2.386
 2849SOL     OW 8998   2.051   0.964   3.136
 2849SOL    HW1 8999   2.136   0.924   3.122
 2849SOL    HW2 9000   1.990   0.912   3.083
 2850SOL     OW 9001   3.393   0.996   2.062
 2850SOL    HW1 9002   3.323   0.939   2.094
 2850SOL    HW2 9003   3.435   1.030   2.141
 2851SOL     OW 9004   3.068   1.803   3.471
 2851SOL    HW1 9005   3.082   1.845   3.387
 2851SOL    HW2 9006   3.071   1.709   3.452
 2852SOL     OW 9007   2.194   0.269   3.677
 2852SOL    HW1 9008   2.244   0.344   3.711
 2852SOL    HW2 9009   2.106   0.280   3.715
 2853SOL     OW 9010   3.329   1.420   2.811
 2853SOL    HW1 9011   3.261   1.435   2.877
 2853SOL    HW2 9012   3.316   1.329   2.785
 2854SOL     OW 9013   3.517   1.746   2.440
 2854SOL    HW1 9014   3.500   1.715   2.351
 2854SOL    HW2 9015   3.495   1.672   2.496
 2855SOL     OW 9016   2.456   0.719   2.130
 2855SOL    HW1 9017   2.460   0.802   2.082
 2855SOL    HW2 9018   2.390   0.735   2.198
 2856SOL     OW 9019   3.139   0.351   2.793
 2856SOL    HW1 9020   3.048   0.322   2.806
 2856SOL    HW2 9021   3.189   0.300   2.857
 2857SOL     OW 9022   3.441   1.672   2.172
 2857SOL    HW1 9023   3.533   1.700   2.164
 2857SOL    HW2 9024   3.414   1.655   2.082
 2858SOL     OW 9025   2.656   0.619   3.310
 2858SOL    HW1 9026   2.628   0.597   3.399
 2858SOL    HW2 9027   2.616   0.551   3.255
 2859SOL     OW 9028   3.256   0.476   3.540
 2859SOL    HW1 9029   3.259   0.520   3.625
 2859SOL    HW2 9030   3.319   0.404   3.549
 2860SOL     OW 9031   2.814   0.887   3.446
 2860SOL    HW1 9032   2.869   0.817   3.409
 2860SOL    HW2 9033   2.766   0.921   3.371
 2861SOL     OW 9034   2.856   0.417   3.095
 2861SOL    HW1 9035   2.769   0.436   3.129
 2861SOL    HW2 9036   2.839   0.370   3.013
 2862SOL     OW 9037   2.914   0.697   2.288
 2862SOL    HW1 9038   2.931   0.691   2.382
 2862SOL    HW2 9039   2.831   0.653   2.275
 2863SOL     OW 9040   1.950   0.821   2.639
 2863SOL    HW1 9041   2.031   0.814   2.690
 2863SOL    HW2 9042   1.907   0.900   2.674
 2864SOL     OW 9043   1.994   1.870   3.444
 2864SOL    HW1 9044   1.995   1.844   3.536
 2864SOL    HW2 9045   1.911   1.836   3.411
 2865SOL     OW 9046   2.741   0.369   2.052
 2865SOL    HW1 9047   2.777   0.427   1.986
 2865SOL    HW2 9048   2.799   0.293   2.051
 2866SOL     OW 9049   3.567   0.572   3.690
 2866SOL    HW1 9050   3.531   0.645   3.641
 2866SOL    HW2 9051   3.599   0.511   3.623
 2867SOL     OW 9052   3.241   1.142   2.402
 2867SOL    HW1 9053   3.320   1.130   2.350
 2867SOL    HW2 9054   3.187   1.204   2.353
 2868SOL     OW 9055   2.383   0.203   2.742
 2868SOL    HW1 9056   2.406   0.218   2.834
 2868SOL    HW2 9057   2.406   0.285   2.699
 2869SOL     OW 9058   2.865   1.444   2.332
 2869SOL    HW1 9059   2.831   1.518   2.282
 2869SOL    HW2 9060   2.844   1.465   2.423
 2870SOL     OW 9061   2.216   1.811   2.728
 2870SOL    HW1 9062   2.260   1.726   2.734
 2870SOL    HW2 9063   2.285   1.875   2.746
 2871SOL     OW 9064   3.662   1.055   2.732
 2871SOL    HW1 9065   3.609   1.035   2.654
 2871SOL    HW2 9066   3.599   1.061   2.803
 2872SOL     OW 9067   3.088   1.535   3.375
 2872SOL    HW1 9068   3.076   1.463   3.437
 2872SOL    HW2 9069   3.025   1.518   3.305
 2873SOL     OW 9070   2.179   0.959   2.114
 2873SOL    HW1 9071   2.262   0.978   2.069
 2873SOL    HW2 9072   2.150   0.876   2.076
 2874SOL     OW 9073   3.343   0.746   2.587
 2874SOL    HW1 9074   3.336   0.705   2.673
 2874SOL    HW2 9075   3.420   0.802   2.593
 2875SOL     OW 9076   2.329   1.266   3.600
 2875SOL    HW1 9077   2.303   1.271   3.508
 2875SOL    HW2 9078   2.247   1.263   3.649
 2876SOL     OW 9079   2.985   1.778   2.092
 2876SOL    HW1 9080   2.910   1.738   2.136
 2876SOL    HW2 9081   3.009   1.715   2.024
 2877SOL     OW 9082   2.059   0.277   3.367
 2877SOL    HW1 9083   1.980   0.331   3.367
 2877SOL    HW2 9084   2.053   0.227   3.448
 2878SOL     OW 9085   3.490   1.381   1.951
 2878SOL    HW1 9086   3.449   1.466   1.936
 2878SOL    HW2 9087   3.422   1.317   1.931
 2879SOL     OW 9088   2.327   1.734   2.185
 2879SOL    HW1 9089   2.371   1.794   2.245
 2879SOL    HW2 9090   2.396   1.706   2.125
 2880SOL     OW 9091   3.270   0.102   2.294
 2880SOL    HW1 9092   3.264   0.081   2.201
 2880SOL    HW2 9093   3.363   0.121   2.307
 2881SOL     OW 9094   2.119   1.793   3.094
 2881SOL    HW1 9095   2.168   1.723   3.137
 2881SOL    HW2 9096   2.109   1.763   3.004
 2882SOL     OW 9097   2.799   1.698   2.760
 2882SOL    HW1 9098   2.879   1.649   2.780
 2882SOL    HW2 9099   2.757   1.648   2.690
 2883SOL     OW 9100   2.256   0.696   2.336
 2883SOL    HW1 9101   2.276   0.603   2.348
 2883SOL    HW2 9102   2.162   0.704   2.354
 2884SOL     OW 9103   3.398   0.228   3.584
 2884SOL    HW1 9104   3.407   0.244   3.678
 2884SOL    HW2 9105   3.321   0.171   3.576
 2885SOL     OW 9106   2.486   0.131   1.970
 2885SOL    HW1 9107   2.544   0.060   1.998
 2885SOL    HW2 9108   2.434   0.093   1.899
 2886SOL     OW 9109   2.639   0.312   3.631
 2886SOL    HW1 9110   2.699   0.238   3.630
 2886SOL    HW2 9111   2.594   0.305   3.715
 2887SOL     OW 9112   2.737   1.521   3.057
 2887SOL    HW1 9113   2.722   1.485   2.969
 2887SOL    HW2 9114   2.808   1.468   3.092
 2888SOL     OW 9115   3.202   0.589   3.294
 2888SOL    HW1 9116   3.233   0.558   3.380
 2888SOL    HW2 9117   3.238   0.677   3.286
 2889SOL     OW 9118   2.678   1.392   2.804
 2889SOL    HW1 9119   2.763   1.381   2.761
 2889SOL    HW2 9120   2.615   1.396   2.733
 2890SOL     OW 9121   2.790   0.511   2.764
 2890SOL    HW1 9122   2.765   0.503   2.672
 2890SOL    HW2 9123   2.820   0.423   2.789
 2891SOL     OW 9124   2.405   0.062   2.368
 2891SOL    HW1 9125   2.321   0.059   2.413
 2891SOL    HW2 9126   2.396   0.131   2.303
 2892SOL     OW 9127   3.290   1.199   1.902
 2892SOL    HW1 9128   3.320   1.124   1.953
 2892SOL    HW2 9129   3.204   1.221   1.939
 2893SOL     OW 9130   2.163   0.065   2.055
 2893SOL    HW1 9131   2.221   0.136   2.029
 2893SOL    HW2 9132   2.219   5.288   2.056
 2894SOL     OW 9133   2.802   0.266   2.324
 2894SOL    HW1 9134   2.774   0.301   2.239
 2894SOL    HW2 9135   2.897   0.277   2.324
 2895SOL     OW 9136   2.943   0.683   3.320
 2895SOL    HW1 9137   2.876   0.615   3.325
 2895SOL    HW2 9138   3.025   0.635   3.314
 2896SOL     OW 9139   3.082   1.572   2.657
 2896SOL    HW1 9140   3.098   1.637   2.589
 2896SOL    HW2 9141   3.153   1.586   2.720
 2897SOL     OW 9142   2.332   1.151   2.593
 2897SOL    HW1 9143   2.264   1.131   2.657
 2897SOL    HW2 9144   2.291   1.136   2.508
 2898SOL     OW 9145   3.129   1.793   2.473
 2898SOL    HW1 9146   3.176   1.854   2.416
 2898SOL    HW2 9147   3.060   1.845   2.514
 2899SOL     OW 9148   2.887   0.544   1.885
 2899SOL    HW1 9149   2.843   0.628   1.868
 2899SOL    HW2 9150   2.949   0.563   1.955
 2900SOL     OW 9151   1.943   0.552   3.256
 2900SOL    HW1 9152   2.034   0.553   3.228
 2900SOL    HW2 9153   1.937   0.623   3.320
 2901SOL     OW 9154   2.415   0.238   3.020
 2901SOL    HW1 9155   2.448   0.153   3.050
 2901SOL    HW2 9156   2.323   0.239   3.047
 2902SOL     OW 9157   2.727   0.464   2.503
 2902SOL    HW1 9158   2.681   0.518   2.439
 2902SOL    HW2 9159   2.752   0.385   2.455
 2903SOL     OW 9160   2.840   0.061   2.627
 2903SOL    HW1 9161   2.775   0.059   2.556
 2903SOL    HW2 9162   2.850   5.270   2.653
 2904SOL     OW 9163   3.300   1.162   2.719
 2904SOL    HW1 9164   3.230   1.097   2.718
 2904SOL    HW2 9165   3.325   1.171   2.627
 2905SOL     OW 9166   3.328   0.609   2.836
 2905SOL    HW1 9167   3.276   0.528   2.839
 2905SOL    HW2 9168   3.387   0.602   2.910
 2906SOL     OW 9169   3.705   0.814   2.246
 2906SOL    HW1 9170   3.762   0.764   2.304
 2906SOL    HW2 9171   3.678   0.752   2.178
 2907SOL     OW 9172   2.351   1.420   2.015
 2907SOL    HW1 9173   2.276   1.391   2.067
 2907SOL    HW2 9174   2.342   1.373   1.932
 2908SOL     OW 9175   3.535   1.264   2.506
 2908SOL    HW1 9176   3.629   1.265   2.520
 2908SOL    HW2 9177   3.506   1.353   2.527
 2909SOL     OW 9178   3.256   0.573   1.933
 2909SOL    HW1 9179   3.194   0.552   2.004
 2909SOL    HW2 9180   3.340   0.543   1.966
 2910SOL     OW 9181   2.384   0.266   2.182
 2910SOL    HW1 9182   2.431   0.218   2.113
 2910SOL    HW2 9183   2.361   0.349   2.142
 2911SOL     OW 9184   3.613   1.241   3.430
 2911SOL    HW1 9185   3.700   1.202   3.426
 2911SOL    HW2 9186   3.628   1.331   3.459
 2912SOL     OW 9187   2.919   1.354   3.196
 2912SOL    HW1 9188   2.844   1.323   3.245
 2912SOL    HW2 9189   2.995   1.311   3.236
 2913SOL     OW 9190   3.470   1.624   3.517
 2913SOL    HW1 9191   3.464   1.660   3.428
 2913SOL    HW2 9192   3.553   1.577   3.517
 2914SOL     OW 9193   2.994   1.207   2.966
 2914SOL    HW1 9194   2.933   1.244   3.030
 2914SOL    HW2 9195   2.963   1.240   2.882
 2915SOL     OW 9196   3.488   1.097   2.938
 2915SOL    HW1 9197   3.482   1.159   3.011
 2915SOL    HW2 9198   3.410   1.115   2.885
 2916SOL     OW 9199   2.764   0.108   3.247
 2916SOL    HW1 9200   2.795   0.073   3.163
 2916SOL    HW2 9201   2.841   0.150   3.285
 2917SOL     OW 9202   2.846   1.115   3.585
 2917SOL    HW1 9203   2.754   1.131   3.607
 2917SOL    HW2 9204   2.844   1.037   3.530
 2918SOL     OW 9205   2.571   1.062   2.233
 2918SOL    HW1 9206   2.557   1.044   2.326
 2918SOL    HW2 9207   2.647   1.008   2.209
 2919SOL     OW 9208   2.282   0.817   3.114
 2919SOL    HW1 9209   2.350   0.826   3.180
 2919SOL    HW2 9210   2.247   0.729   3.127
 2920SOL     OW 9211   3.127   0.378   3.137
 2920SOL    HW1 9212   3.161   0.454   3.183
 2920SOL    HW2 9213   3.037   0.400   3.114
 2921SOL     OW 9214   1.935   1.575   3.218
 2921SOL    HW1 9215   1.906   1.645   3.159
 2921SOL    HW2 9216   2.030   1.574   3.210
 2922SOL     OW 9217   2.205   1.113   2.352
 2922SOL    HW1 9218   2.212   1.186   2.290
 2922SOL    HW2 9219   2.203   1.035   2.296
 2923SOL     OW 9220   2.413   0.535   2.722
 2923SOL    HW1 9221   2.427   0.594   2.648
 2923SOL    HW2 9222   2.480   0.561   2.786
 2924SOL     OW 9223   3.110   1.349   2.252
 2924SOL    HW1 9224   3.166   1.420   2.283
 2924SOL    HW2 9225   3.023   1.370   2.285
 2925SOL     OW 9226   3.147   1.459   3.010
 2925SOL    HW1 9227   3.203   1.463   3.087
 2925SOL    HW2 9228   3.092   1.382   3.023
 2926SOL     OW 9229   3.442   0.621   2.343
 2926SOL    HW1 9230   3.394   0.673   2.407
 2926SOL    HW2 9231   3.487   0.686   2.289
 2927SOL     OW 9232   2.207   1.530   3.174
 2927SOL    HW1 9233   2.195   1.486   3.090
 2927SOL    HW2 9234   2.302   1.540   3.183
 2928SOL     OW 9235   2.278   0.744   3.465
 2928SOL    HW1 9236   2.340   0.789   3.407
 2928SOL    HW2 9237   2.319   0.660   3.484
 2929SOL     OW 9238   3.467   0.779   3.546
 2929SOL    HW1 9239   3.381   0.821   3.540
 2929SOL    HW2 9240   3.519   0.822   3.478
 2930SOL     OW 9241   2.916   0.119   3.650
 2930SOL    HW1 9242   2.941   0.198   3.604
 2930SOL    HW2 9243   2.916   0.051   3.583
 2931SOL     OW 9244   2.345   0.059   3.599
 2931SOL    HW1 9245   2.283   5.294   3.566
 2931SOL    HW2 9246   2.291   0.135   3.621
 2932SOL     OW 9247   2.446   0.873   2.894
 2932SOL    HW1 9248   2.478   0.963   2.894
 2932SOL    HW2 9249   2.389   0.867   2.971
 2933SOL     OW 9250   3.215   0.859   2.888
 2933SOL    HW1 9251   3.131   0.847   2.845
 2933SOL    HW2 9252   3.259   0.774   2.881
 2934SOL     OW 9253   3.065   0.527   2.127
 2934SOL    HW1 9254   3.071   0.447   2.179
 2934SOL    HW2 9255   3.022   0.590   2.185
 2935SOL     OW 9256   2.156   0.202   3.111
 2935SOL    HW1 9257   2.116   0.241   3.189
 2935SOL    HW2 9258   2.159   0.108   3.131
 2936SOL     OW 9259   1.908   1.312   3.137
 2936SOL    HW1 9260   1.940   1.256   3.208
 2936SOL    HW2 9261   1.914   1.401   3.173
 2937SOL     OW 9262   2.586   0.631   2.919
 2937SOL    HW1 9263   2.661   0.616   2.862
 2937SOL    HW2 9264   2.557   0.720   2.898
 2938SOL     OW 9265   3.599   0.959   3.717
 2938SOL    HW1 9266   3.554   0.894   3.662
 2938SOL    HW2 9267   3.539   0.975   3.790
 2939SOL     OW 9268   2.172   0.070   2.522
 2939SOL    HW1 9269   2.147   0.163   2.523
 2939SOL    HW2 9270   2.223   0.058   2.602
 2940SOL     OW 9271   3.478   0.378   2.222
 2940SOL    HW1 9272   3.509   0.312   2.285
 2940SOL    HW2 9273   3.456   0.454   2.276
 2941SOL     OW 9274   2.891   0.759   2.821
 2941SOL    HW1 9275   2.884   0.776   2.915
 2941SOL    HW2 9276   2.864   0.668   2.812
 2942SOL     OW 9277   2.842   1.564   3.581
 2942SOL    HW1 9278   2.828   1.608   3.497
 2942SOL    HW2 9279   2.888   1.483   3.559
 2943SOL     OW 9280   3.715   1.503   3.466
 2943SOL    HW1 9281   3.736   1.530   3.377
 2943SOL    HW2 9282   3.796   1.520   3.515
 2944SOL     OW 9283   2.215   0.917   3.670
 2944SOL    HW1 9284   2.296   0.935   3.718
 2944SOL    HW2 9285   2.240   0.854   3.603
 2945SOL     OW 9286   3.386   0.270   1.987
 2945SOL    HW1 9287   3.321   0.208   2.019
 2945SOL    HW2 9288   3.423   0.310   2.066
 2946SOL     OW 9289   3.151   0.826   1.892
 2946SOL    HW1 9290   3.194   0.740   1.896
 2946SOL    HW2 9291   3.183   0.864   1.810
 2947SOL     OW 9292   2.929   1.337   2.718
 2947SOL    HW1 9293   2.933   1.265   2.655
 2947SOL    HW2 9294   2.988   1.403   2.682
 2948SOL     OW 9295   2.170   0.809   2.809
 2948SOL    HW1 9296   2.263   0.829   2.801
 2948SOL    HW2 9297   2.168   0.718   2.840
 2949SOL     OW 9298   2.192   0.528   2.875
 2949SOL    HW1 9299   2.156   0.441   2.860
 2949SOL    HW2 9300   2.269   0.532   2.818
 2950SOL     OW 9301   2.997   0.377   3.552
 2950SOL    HW1 9302   2.949   0.431   3.615
 2950SOL    HW2 9303   3.084   0.417   3.548
 2951SOL     OW 9304   2.993   0.222   3.329
 2951SOL    HW1 9305   2.997   0.281   3.404
 2951SOL    HW2 9306   3.049   0.263   3.263
 2952SOL     OW 9307   1.867   1.320   2.057
 2952SOL    HW1 9308   1.781   1.335   2.020
 2952SOL    HW2 9309   1.864   1.230   2.091
 2953SOL     OW 9310   1.952   1.785   2.802
 2953SOL    HW1 9311   1.922   1.706   2.757
 2953SOL    HW2 9312   2.042   1.798   2.770
 2954SOL     OW 9313   2.356   1.574   2.767
 2954SOL    HW1 9314   2.425   1.636   2.792
 2954SOL    HW2 9315   2.400   1.511   2.710
 2955SOL     OW 9316   2.841   0.790   3.087
 2955SOL    HW1 9317   2.899   0.769   3.160
 2955SOL    HW2 9318   2.756   0.752   3.112
 2956SOL     OW 9319   1.897   0.545   2.979
 2956SOL    HW1 9320   1.977   0.533   2.927
 2956SOL    HW2 9321   1.928   0.548   3.069
 2957SOL     OW 9322   2.047   0.525   3.591
 2957SOL    HW1 9323   2.112   0.487   3.531
 2957SOL    HW2 9324   2.011   0.600   3.544
 2958SOL     OW 9325   3.241   0.936   3.520
 2958SOL    HW1 9326   3.262   1.030   3.517
 2958SOL    HW2 9327   3.237   0.910   3.428
 2959SOL     OW 9328   2.676   0.574   2.228
 2959SOL    HW1 9329   2.681   0.500   2.167
 2959SOL    HW2 9330   2.602   0.626   2.197
 2960SOL     OW 9331   3.503   0.601   3.045
 2960SOL    HW1 9332   3.493   0.542   3.120
 2960SOL    HW2 9333   3.591   0.582   3.011
 2961SOL     OW 9334   2.104   1.551   3.587
 2961SOL    HW1 9335   2.080   1.615   3.655
 2961SOL    HW2 9336   2.108   1.467   3.633
 2962SOL     OW 9337   2.567   0.449   3.119
 2962SOL    HW1 9338   2.513   0.377   3.088
 2962SOL    HW2 9339   2.564   0.514   3.049
 2963SOL     OW 9340   2.783   1.674   3.335
 2963SOL    HW1 9341   2.762   1.640   3.248
 2963SOL    HW2 9342   2.795   1.768   3.321
 2964SOL     OW 9343   2.322   0.492   2.041
 2964SOL    HW1 9344   2.383   0.562   2.066
 2964SOL    HW2 9345   2.238   0.536   2.033
 2965SOL     OW 9346   2.006   1.142   3.335
 2965SOL    HW1 9347   2.007   1.092   3.417
 2965SOL    HW2 9348   2.023   1.076   3.267
 2966SOL     OW 9349   3.185   1.045   3.083
 2966SOL    HW1 9350   3.208   0.982   3.015
 2966SOL    HW2 9351   3.117   1.100   3.044
 2967SOL     OW 9352   3.175   0.857   2.167
 2967SOL    HW1 9353   3.101   0.825   2.218
 2967SOL    HW2 9354   3.150   0.843   2.076
 2968SOL     OW 9355   3.636   1.741   3.014
 2968SOL    HW1 9356   3.697   1.767   2.945
 2968SOL    HW2 9357   3.612   1.651   2.992
 2969SOL     OW 9358   3.103   1.733   2.973
 2969SOL    HW1 9359   3.186   1.756   2.930
 2969SOL    HW2 9360   3.111   1.639   2.991
 2970SOL     OW 9361   1.947   1.267   2.873
 2970SOL    HW1 9362   1.931   1.280   2.966
 2970SOL    HW2 9363   1.875   1.211   2.844
 2971SOL     OW 9364   2.540   1.660   3.593
 2971SOL    HW1 9365   2.472   1.712   3.549
 2971SOL    HW2 9366   2.617   1.671   3.538
 2972SOL     OW 9367   3.573   0.152   2.361
 2972SOL    HW1 9368   3.648   0.131   2.306
 2972SOL    HW2 9369   3.568   0.078   2.422
 2973SOL     OW 9370   3.254   1.568   2.350
 2973SOL    HW1 9371   3.313   1.601   2.282
 2973SOL    HW2 9372   3.204   1.644   2.378
 2974SOL     OW 9373   2.000   1.796   3.705
 2974SOL    HW1 9374   1.949   1.729   3.751
 2974SOL    HW2 9375   2.043   1.846   3.775
 2975SOL     OW 9376   3.139   0.927   2.533
 2975SOL    HW1 9377   3.213   0.866   2.542
 2975SOL    HW2 9378   3.173   0.999   2.480
 2976SOL     OW 9379   2.673   1.274   3.288
 2976SOL    HW1 9380   2.644   1.313   3.370
 2976SOL    HW2 9381   2.603   1.295   3.225
 2977SOL     OW 9382   2.534   1.620   2.019
 2977SOL    HW1 9383   2.543   1.636   1.925
 2977SOL    HW2 9384   2.477   1.543   2.023
 2978SOL     OW 9385   3.483   1.728   3.253
 2978SOL    HW1 9386   3.536   1.734   3.172
 2978SOL    HW2 9387   3.469   1.819   3.279
 2979SOL     OW 9388   3.708   0.153   2.818
 2979SOL    HW1 9389   3.702   0.058   2.817
 2979SOL    HW2 9390   3.623   0.183   2.787
 2980SOL     OW 9391   2.121   0.329   2.580
 2980SOL    HW1 9392   2.033   0.361   2.559
 2980SOL    HW2 9393   2.121   0.319   2.675
 2981SOL     OW 9394   3.070   1.604   1.894
 2981SOL    HW1 9395   3.059   1.513   1.921
 2981SOL    HW2 9396   3.004   1.617   1.826
 2982SOL     OW 9397   2.686   1.006   3.235
 2982SOL    HW1 9398   2.730   1.000   3.151
 2982SOL    HW2 9399   2.684   1.099   3.255
 2983SOL     OW 9400   2.779   0.911   2.153
 2983SOL    HW1 9401   2.839   0.943   2.086
 2983SOL    HW2 9402   2.827   0.842   2.198
 2984SOL     OW 9403   3.352   1.627   1.905
 2984SOL    HW1 9404   3.258   1.618   1.891
 2984SOL    HW2 9405   3.390   1.633   1.818
 2985SOL     OW 9406   2.229   1.304   3.354
 2985SOL    HW1 9407   2.217   1.380   3.298
 2985SOL    HW2 9408   2.153   1.249   3.338
 2986SOL     OW 9409   3.471   1.283   3.142
 2986SOL    HW1 9410   3.531   1.270   3.215
 2986SOL    HW2 9411   3.411   1.351   3.172
 2987SOL     OW 9412   2.918   1.109   2.571
 2987SOL    HW1 9413   2.846   1.058   2.608
 2987SOL    HW2 9414   2.981   1.043   2.541
 2988SOL     OW 9415   2.880   0.244   2.832
 2988SOL    HW1 9416   2.860   0.199   2.750
 2988SOL    HW2 9417   2.874   0.177   2.899
 2989SOL     OW 9418   2.466   1.488   2.343
 2989SOL    HW1 9419   2.513   1.438   2.276
 2989SOL    HW2 9420   2.397   1.533   2.295
 2990SOL     OW 9421   3.589   0.386   3.239
 2990SOL    HW1 9422   3.660   0.450   3.239
 2990SOL    HW2 9423   3.620   0.316   3.181
 2991SOL     OW 9424   2.122   1.344   2.151
 2991SOL    HW1 9425   2.029   1.341   2.129
 2991SOL    HW2 9426   2.124   1.381   2.239
 2992SOL     OW 9427   1.975   1.027   3.583
 2992SOL    HW1 9428   1.899   1.002   3.635
 2992SOL    HW2 9429   2.050   0.987   3.628
 2993SOL     OW 9430   2.535   0.215   3.353
 2993SOL    HW1 9431   2.618   0.198   3.307
 2993SOL    HW2 9432   2.560   0.264   3.431
 2994SOL     OW 9433   1.941   0.337   1.903
 2994SOL    HW1 9434   1.857   0.303   1.872
 2994SOL    HW2 9435   1.960   0.411   1.847
 2995SOL     OW 9436   3.290   0.858   3.261
 2995SOL    HW1 9437   3.241   0.919   3.206
 2995SOL    HW2 9438   3.379   0.860   3.226
 2996SOL     OW 9439   1.933   0.167   2.175
 2996SOL    HW1 9440   1.936   0.250   2.127
 2996SOL    HW2 9441   2.017   0.125   2.157
 2997SOL     OW 9442   3.040   1.337   1.979
 2997SOL    HW1 9443   2.950   1.306   1.981
 2997SOL    HW2 9444   3.068   1.338   2.071
 2998SOL     OW 9445   2.482   0.830   3.296
 2998SOL    HW1 9446   2.538   0.906   3.281
 2998SOL    HW2 9447   2.543   0.757   3.304
 2999SOL     OW 9448   3.346   1.782   2.846
 2999SOL    HW1 9449   3.369   1.841   2.774
 2999SOL    HW2 9450   3.430   1.756   2.884
 3000SOL     OW 9451   2.577   0.573   3.562
 3000SOL    HW1 9452   2.620   0.635   3.621
 3000SOL    HW2 9453   2.603   0.487   3.595
 3001SOL     OW 9454   3.335   1.197   3.492
 3001SOL    HW1 9455   3.322   1.212   3.586
 3001SOL    HW2 9456   3.428   1.215   3.477
 3002SOL     OW 9457   2.250   1.744   3.436
 3002SOL    HW1 9458   2.169   1.794   3.423
 3002SOL    HW2 9459   2.221   1.662   3.476
 3003SOL     OW 9460   3.529   0.881   3.117
 3003SOL    HW1 9461   3.524   0.795   3.074
 3003SOL    HW2 9462   3.519   0.944   3.046
 3004SOL     OW 9463   3.082   0.318   2.326
 3004SOL    HW1 9464   3.144   0.246   2.321
 3004SOL    HW2 9465   3.112   0.370   2.401
 3005SOL     OW 9466   2.450   0.737   2.534
 3005SOL    HW1 9467   2.490   0.822   2.518
 3005SOL    HW2 9468   2.384   0.728   2.465
 3006SOL     OW 9469   3.627   0.362   3.511
 3006SOL    HW1 9470   3.608   0.378   3.419
 3006SOL    HW2 9471   3.555   0.307   3.541
 3007SOL     OW 9472   3.608   0.934   3.374
 3007SOL    HW1 9473   3.602   1.028   3.387
 3007SOL    HW2 9474   3.592   0.921   3.280
 3008SOL     OW 9475   2.724   1.367   1.900
 3008SOL    HW1 9476   2.686   1.395   1.983
 3008SOL    HW2 9477   2.741   1.448   1.852
 3009SOL     OW 9478   2.524   1.787   2.807
 3009SOL    HW1 9479   2.505   1.877   2.782
 3009SOL    HW2 9480   2.620   1.779   2.798
 3010SOL     OW 9481   2.730   0.969   2.716
 3010SOL    HW1 9482   2.780   0.897   2.755
 3010SOL    HW2 9483   2.694   1.015   2.792
 3011SOL     OW 9484   2.940   0.989   1.951
 3011SOL    HW1 9485   2.919   1.040   1.872
 3011SOL    HW2 9486   3.014   0.934   1.925
 3012SOL     OW 9487   3.713   1.553   2.705
 3012SOL    HW1 9488   3.634   1.541   2.652
 3012SOL    HW2 9489   3.706   1.488   2.774
 3013SOL     OW 9490   2.087   1.302   3.716
 3013SOL    HW1 9491   2.022   1.238   3.686
 3013SOL    HW2 9492   2.067   1.314   3.809
 3014SOL     OW 9493   1.948   1.232   2.527
 3014SOL    HW1 9494   1.956   1.184   2.610
 3014SOL    HW2 9495   2.015   1.193   2.471
 3015SOL     OW 9496   2.543   1.401   3.488
 3015SOL    HW1 9497   2.465   1.358   3.522
 3015SOL    HW2 9498   2.543   1.487   3.530
 3016SOL     OW 9499   3.672   0.174   3.092
 3016SOL    HW1 9500   3.635   0.086   3.093
 3016SOL    HW2 9501   3.695   0.190   3.001
 3017SOL     OW 9502   2.292   0.436   2.387
 3017SOL    HW1 9503   2.325   0.364   2.334
 3017SOL    HW2 9504   2.243   0.394   2.458
 3018SOL     OW 9505   3.561   1.488   2.955
 3018SOL    HW1 9506   3.481   1.466   2.908
 3018SOL    HW2 9507   3.570   1.418   3.021
 3019SOL     OW 9508   2.192   0.559   3.153
 3019SOL    HW1 9509   2.248   0.503   3.208
 3019SOL    HW2 9510   2.212   0.531   3.063
 3020SOL     OW 9511   2.691   1.579   2.538
 3020SOL    HW1 9512   2.674   1.640   2.466
 3020SOL    HW2 9513   2.616   1.520   2.537
 3021SOL     OW 9514   3.289   0.220   2.978
 3021SOL    HW1 9515   3.325   0.145   3.026
 3021SOL    HW2 9516   3.240   0.269   3.044
 3022SOL     OW 9517   2.865   0.020   3.000
 3022SOL    HW1 9518   2.814   5.252   2.955
 3022SOL    HW2 9519   2.950   5.280   3.015
 3023SOL     OW 9520   2.635   1.333   2.180
 3023SOL    HW1 9521   2.606   1.242   2.187
 3023SOL    HW2 9522   2.717   1.336   2.229
 3024SOL     OW 9523   2.481   1.554   3.147
 3024SOL    HW1 9524   2.483   1.637   3.196
 3024SOL    HW2 9525   2.569   1.547   3.110
 3025SOL     OW 9526   3.218   0.035   2.026
 3025SOL    HW1 9527   3.256   5.294   1.949
 3025SOL    HW2 9528   3.139   5.285   2.043
 3026SOL     OW 9529   3.163   0.465   2.545
 3026SOL    HW1 9530   3.109   0.544   2.550
 3026SOL    HW2 9531   3.155   0.425   2.632
 3027SOL     OW 9532   3.457   0.215   2.745
 3027SOL    HW1 9533   3.392   0.227   2.815
 3027SOL    HW2 9534   3.450   0.294   2.692
 3028SOL     OW 9535   1.905   1.069   2.169
 3028SOL    HW1 9536   1.999   1.061   2.151
 3028SOL    HW2 9537   1.877   0.980   2.191
 3029SOL     OW 9538   2.749   1.656   2.201
 3029SOL    HW1 9539   2.676   1.639   2.141
 3029SOL    HW2 9540   2.719   1.728   2.256
 3030SOL     OW 9541   2.088   0.626   3.849
 3030SOL    HW1 9542   1.999   0.621   3.886
 3030SOL    HW2 9543   2.077   0.600   3.758
 3031SOL     OW 9544   2.079   0.286   4.718
 3031SOL    HW1 9545   2.107   0.249   4.801
 3031SOL    HW2 9546   1.995   0.242   4.699
 3032SOL     OW 9547   1.864   0.389   4.361
 3032SOL    HW1 9548   1.779   0.410   4.402
 3032SOL    HW2 9549   1.846   0.312   4.307
 3033SOL     OW 9550   2.429   1.292   4.903
 3033SOL    HW1 9551   2.342   1.296   4.863
 3033SOL    HW2 9552   2.446   1.381   4.934
 3034SOL     OW 9553   3.427   1.512   4.431
 3034SOL    HW1 9554   3.383   1.491   4.514
 3034SOL    HW2 9555   3.357   1.516   4.367
 3035SOL     OW 9556   2.995   0.698   4.423
 3035SOL    HW1 9557   3.042   0.779   4.409
 3035SOL    HW2 9558   2.947   0.711   4.505
 3036SOL     OW 9559   3.632   0.604   3.951
 3036SOL    HW1 9560   3.610   0.597   3.858
 3036SOL    HW2 9561   3.595   0.524   3.990
 3037SOL     OW 9562   2.613   1.140   4.768
 3037SOL    HW1 9563   2.546   1.176   4.825
 3037SOL    HW2 9564   2.650   1.216   4.723
 3038SOL     OW 9565   2.732   0.772   5.547
 3038SOL    HW1 9566   2.720   0.843   5.610
 3038SOL    HW2 9567   2.756   0.816   5.466
 3039SOL     OW 9568   2.548   1.000   4.369
 3039SOL    HW1 9569   2.613   0.990   4.438
 3039SOL    HW2 9570   2.479   1.053   4.409
 3040SOL     OW 9571   2.574   1.150   5.539
 3040SOL    HW1 9572   2.622   1.228   5.568
 3040SOL    HW2 9573   2.493   1.184   5.502
 3041SOL     OW 9574   2.192   1.422   4.791
 3041SOL    HW1 9575   2.119   1.383   4.743
 3041SOL    HW2 9576   2.241   1.471   4.726
 3042SOL     OW 9577   3.322   1.500   5.082
 3042SOL    HW1 9578   3.375   1.579   5.091
 3042SOL    HW2 9579   3.256   1.508   5.151
 3043SOL     OW 9580   2.308   0.397   5.205
 3043SOL    HW1 9581   2.382   0.337   5.206
 3043SOL    HW2 9582   2.232   0.341   5.223
 3044SOL     OW 9583   3.470   0.451   4.463
 3044SOL    HW1 9584   3.395   0.471   4.408
 3044SOL    HW2 9585   3.485   0.530   4.514
 3045SOL     OW 9586   2.081   1.714   4.191
 3045SOL    HW1 9587   2.105   1.788   4.248
 3045SOL    HW2 9588   2.155   1.705   4.131
 3046SOL     OW 9589   2.999   1.342   5.418
 3046SOL    HW1 9590   3.040   1.336   5.504
 3046SOL    HW2 9591   2.947   1.262   5.410
 3047SOL     OW 9592   2.093   1.442   4.260
 3047SOL    HW1 9593   2.074   1.536   4.262
 3047SOL    HW2 9594   2.034   1.404   4.325
 3048SOL     OW 9595   2.123   1.090   4.615
 3048SOL    HW1 9596   2.120   1.003   4.655
 3048SOL    HW2 9597   2.065   1.143   4.670
 3049SOL     OW 9598   2.465   1.795   5.146
 3049SOL    HW1 9599   2.387   1.775   5.197
 3049SOL    HW2 9600   2.491   1.883   5.176
 3050SOL     OW 9601   2.444   0.984   3.861
 3050SOL    HW1 9602   2.492   1.029   3.792
 3050SOL    HW2 9603   2.483   1.014   3.942
 3051SOL     OW 9604   3.449   0.138   5.178
 3051SOL    HW1 9605   3.476   0.221   5.140
 3051SOL    HW2 9606   3.442   0.155   5.272
 3052SOL     OW 9607   1.977   0.655   4.284
 3052SOL    HW1 9608   1.950   0.566   4.305
 3052SOL    HW2 9609   1.970   0.703   4.366
 3053SOL     OW 9610   3.705   1.757   4.056
 3053SOL    HW1 9611   3.771   1.730   4.120
 3053SOL    HW2 9612   3.726   1.848   4.037
 3054SOL     OW 9613   1.896   1.593   3.846
 3054SOL    HW1 9614   1.879   1.501   3.866
 3054SOL    HW2 9615   1.871   1.640   3.926
 3055SOL     OW 9616   3.551   0.919   4.367
 3055SOL    HW1 9617   3.633   0.874   4.344
 3055SOL    HW2 9618   3.528   0.969   4.289
 3056SOL     OW 9619   3.509   1.105   4.153
 3056SOL    HW1 9620   3.596   1.109   4.112
 3056SOL    HW2 9621   3.515   1.167   4.226
 3057SOL     OW 9622   1.986   0.745   5.307
 3057SOL    HW1 9623   2.077   0.773   5.312
 3057SOL    HW2 9624   1.935   0.826   5.315
 3058SOL     OW 9625   2.476   1.387   4.459
 3058SOL    HW1 9626   2.431   1.303   4.467
 3058SOL    HW2 9627   2.462   1.413   4.368
 3059SOL     OW 9628   3.149   1.237   5.147
 3059SOL    HW1 9629   3.180   1.169   5.086
 3059SOL    HW2 9630   3.209   1.231   5.222
 3060SOL     OW 9631   2.676   0.032   4.256
 3060SOL    HW1 9632   2.704   0.119   4.228
 3060SOL    HW2 9633   2.580   0.035   4.249
 3061SOL     OW 9634   2.051   0.964   4.998
 3061SOL    HW1 9635   2.136   0.924   4.984
 3061SOL    HW2 9636   1.990   0.912   4.945
 3062SOL     OW 9637   3.393   0.996   3.924
 3062SOL    HW1 9638   3.324   0.939   3.956
 3062SOL    HW2 9639   3.435   1.030   4.003
 3063SOL     OW 9640   3.047   1.808   5.348
 3063SOL    HW1 9641   3.054   1.867   5.273
 3063SOL    HW2 9642   3.064   1.721   5.312
 3064SOL     OW 9643   2.194   0.269   5.540
 3064SOL    HW1 9644   2.244   0.344   5.573
 3064SOL    HW2 9645   2.106   0.280   5.577
 3065SOL     OW 9646   3.329   1.420   4.674
 3065SOL    HW1 9647   3.261   1.435   4.739
 3065SOL    HW2 9648   3.316   1.329   4.647
 3066SOL     OW 9649   3.522   1.744   4.302
 3066SOL    HW1 9650   3.499   1.717   4.213
 3066SOL    HW2 9651   3.497   1.670   4.357
 3067SOL     OW 9652   2.456   0.719   3.992
 3067SOL    HW1 9653   2.460   0.802   3.944
 3067SOL    HW2 9654   2.391   0.735   4.060
 3068SOL     OW 9655   3.139   0.351   4.655
 3068SOL    HW1 9656   3.049   0.322   4.668
 3068SOL    HW2 9657   3.189   0.300   4.719
 3069SOL     OW 9658   3.444   1.667   4.034
 3069SOL    HW1 9659   3.534   1.699   4.026
 3069SOL    HW2 9660   3.415   1.653   3.943
 3070SOL     OW 9661   2.656   0.618   5.172
 3070SOL    HW1 9662   2.628   0.597   5.261
 3070SOL    HW2 9663   2.616   0.551   5.117
 3071SOL     OW 9664   3.256   0.476   5.402
 3071SOL    HW1 9665   3.259   0.520   5.487
 3071SOL    HW2 9666   3.319   0.404   5.411
 3072SOL     OW 9667   2.814   0.887   5.308
 3072SOL    HW1 9668   2.869   0.818   5.271
 3072SOL    HW2 9669   2.766   0.922   5.233
 3073SOL     OW 9670   2.856   0.417   4.957
 3073SOL    HW1 9671   2.769   0.436   4.991
 3073SOL    HW2 9672   2.839   0.370   4.875
 3074SOL     OW 9673   2.914   0.697   4.150
 3074SOL    HW1 9674   2.931   0.691   4.244
 3074SOL    HW2 9675   2.830   0.653   4.137
 3075SOL     OW 9676   1.950   0.822   4.502
 3075SOL    HW1 9677   2.031   0.814   4.552
 3075SOL    HW2 9678   1.907   0.900   4.536
 3076SOL     OW 9679   1.988   1.861   5.305
 3076SOL    HW1 9680   1.991   1.839   5.398
 3076SOL    HW2 9681   1.901   1.835   5.276
 3077SOL     OW 9682   2.741   0.369   3.914
 3077SOL    HW1 9683   2.777   0.428   3.848
 3077SOL    HW2 9684   2.799   0.293   3.913
 3078SOL     OW 9685   3.567   0.572   5.552
 3078SOL    HW1 9686   3.531   0.645   5.503
 3078SOL    HW2 9687   3.599   0.511   5.485
 3079SOL     OW 9688   3.240   1.142   4.264
 3079SOL    HW1 9689   3.319   1.130   4.212
 3079SOL    HW2 9690   3.187   1.204   4.215
 3080SOL     OW 9691   2.384   0.203   4.605
 3080SOL    HW1 9692   2.406   0.218   4.696
 3080SOL    HW2 9693   2.406   0.285   4.560
 3081SOL     OW 9694   2.865   1.441   4.195
 3081SOL    HW1 9695   2.832   1.513   4.142
 3081SOL    HW2 9696   2.844   1.466   4.285
 3082SOL     OW 9697   2.208   1.792   4.584
 3082SOL    HW1 9698   2.254   1.708   4.589
 3082SOL    HW2 9699   2.266   1.854   4.628
 3083SOL     OW 9700   3.662   1.054   4.594
 3083SOL    HW1 9701   3.609   1.035   4.516
 3083SOL    HW2 9702   3.599   1.060   4.665
 3084SOL     OW 9703   3.089   1.539   5.237
 3084SOL    HW1 9704   3.076   1.466   5.298
 3084SOL    HW2 9705   3.025   1.524   5.168
 3085SOL     OW 9706   2.179   0.959   3.976
 3085SOL    HW1 9707   2.262   0.977   3.931
 3085SOL    HW2 9708   2.150   0.876   3.938
 3086SOL     OW 9709   3.343   0.746   4.449
 3086SOL    HW1 9710   3.336   0.706   4.536
 3086SOL    HW2 9711   3.420   0.802   4.454
 3087SOL     OW 9712   2.330   1.266   5.462
 3087SOL    HW1 9713   2.303   1.271   5.370
 3087SOL    HW2 9714   2.248   1.264   5.511
 3088SOL     OW 9715   2.987   1.773   3.956
 3088SOL    HW1 9716   2.909   1.733   3.994
 3088SOL    HW2 9717   3.013   1.714   3.886
 3089SOL     OW 9718   2.059   0.277   5.229
 3089SOL    HW1 9719   1.980   0.332   5.229
 3089SOL    HW2 9720   2.053   0.227   5.310
 3090SOL     OW 9721   3.491   1.380   3.812
 3090SOL    HW1 9722   3.450   1.465   3.798
 3090SOL    HW2 9723   3.422   1.316   3.792
 3091SOL     OW 9724   2.323   1.733   4.031
 3091SOL    HW1 9725   2.365   1.784   4.100
 3091SOL    HW2 9726   2.395   1.697   3.979
 3092SOL     OW 9727   3.270   0.101   4.156
 3092SOL    HW1 9728   3.263   0.081   4.063
 3092SOL    HW2 9729   3.363   0.121   4.169
 3093SOL     OW 9730   2.117   1.794   4.956
 3093SOL    HW1 9731   2.168   1.725   4.998
 3093SOL    HW2 9732   2.105   1.764   4.866
 3094SOL     OW 9733   2.787   1.708   4.628
 3094SOL    HW1 9734   2.875   1.671   4.642
 3094SOL    HW2 9735   2.755   1.663   4.550
 3095SOL     OW 9736   2.256   0.696   4.198
 3095SOL    HW1 9737   2.276   0.604   4.210
 3095SOL    HW2 9738   2.162   0.704   4.216
 3096SOL     OW 9739   3.398   0.228   5.446
 3096SOL    HW1 9740   3.407   0.244   5.540
 3096SOL    HW2 9741   3.321   0.172   5.438
 3097SOL     OW 9742   2.486   0.131   3.832
 3097SOL    HW1 9743   2.544   0.060   3.860
 3097SOL    HW2 9744   2.434   0.093   3.761
 3098SOL     OW 9745   2.639   0.312   5.493
 3098SOL    HW1 9746   2.699   0.238   5.492
 3098SOL    HW2 9747   2.594   0.305   5.577
 3099SOL     OW 9748   2.734   1.517   4.921
 3099SOL    HW1 9749   2.722   1.485   4.831
 3099SOL    HW2 9750   2.808   1.466   4.955
 3100SOL     OW 9751   3.202   0.589   5.156
 3100SOL    HW1 9752   3.233   0.558   5.242
 3100SOL    HW2 9753   3.238   0.677   5.148
 3101SOL     OW 9754   2.678   1.392   4.666
 3101SOL    HW1 9755   2.764   1.382   4.624
 3101SOL    HW2 9756   2.616   1.396   4.593
 3102SOL     OW 9757   2.790   0.511   4.626
 3102SOL    HW1 9758   2.765   0.503   4.534
 3102SOL    HW2 9759   2.820   0.423   4.651
 3103SOL     OW 9760   2.406   0.062   4.230
 3103SOL    HW1 9761   2.321   0.059   4.275
 3103SOL    HW2 9762   2.396   0.131   4.165
 3104SOL     OW 9763   3.289   1.199   3.764
 3104SOL    HW1 9764   3.319   1.123   3.815
 3104SOL    HW2 9765   3.205   1.221   3.802
 3105SOL     OW 9766   2.163   0.065   3.917
 3105SOL    HW1 9767   2.221   0.137   3.891
 3105SOL    HW2 9768   2.219   5.288   3.918
 3106SOL     OW 9769   2.802   0.266   4.186
 3106SOL    HW1 9770   2.774   0.301   4.101
 3106SOL    HW2 9771   2.897   0.277   4.186
 3107SOL     OW 9772   2.943   0.683   5.183
 3107SOL    HW1 9773   2.876   0.616   5.187
 3107SOL    HW2 9774   3.025   0.635   5.176
 3108SOL     OW 9775   3.084   1.570   4.517
 3108SOL    HW1 9776   3.101   1.635   4.448
 3108SOL    HW2 9777   3.152   1.586   4.582
 3109SOL     OW 9778   2.332   1.151   4.454
 3109SOL    HW1 9779   2.264   1.131   4.519
 3109SOL    HW2 9780   2.290   1.136   4.370
 3110SOL     OW 9781   3.136   1.788   4.334
 3110SOL    HW1 9782   3.190   1.841   4.275
 3110SOL    HW2 9783   3.066   1.847   4.362
 3111SOL     OW 9784   2.887   0.544   3.747
 3111SOL    HW1 9785   2.843   0.628   3.730
 3111SOL    HW2 9786   2.949   0.563   3.817
 3112SOL     OW 9787   1.943   0.552   5.118
 3112SOL    HW1 9788   2.034   0.553   5.090
 3112SOL    HW2 9789   1.937   0.623   5.182
 3113SOL     OW 9790   2.415   0.238   4.883
 3113SOL    HW1 9791   2.448   0.153   4.912
 3113SOL    HW2 9792   2.323   0.239   4.909
 3114SOL     OW 9793   2.727   0.464   4.365
 3114SOL    HW1 9794   2.681   0.518   4.301
 3114SOL    HW2 9795   2.752   0.385   4.317
 3115SOL     OW 9796   2.840   0.061   4.489
 3115SOL    HW1 9797   2.775   0.059   4.418
 3115SOL    HW2 9798   2.850   5.270   4.515
 3116SOL     OW 9799   3.301   1.162   4.581
 3116SOL    HW1 9800   3.229   1.098   4.580
 3116SOL    HW2 9801   3.326   1.171   4.489
 3117SOL     OW 9802   3.328   0.609   4.698
 3117SOL    HW1 9803   3.276   0.528   4.701
 3117SOL    HW2 9804   3.387   0.602   4.772
 3118SOL     OW 9805   3.705   0.814   4.108
 3118SOL    HW1 9806   3.762   0.764   4.166
 3118SOL    HW2 9807   3.678   0.752   4.040
 3119SOL     OW 9808   2.350   1.418   3.875
 3119SOL    HW1 9809   2.275   1.390   3.928
 3119SOL    HW2 9810   2.341   1.369   3.793
 3120SOL     OW 9811   3.534   1.263   4.369
 3120SOL    HW1 9812   3.629   1.265   4.382
 3120SOL    HW2 9813   3.505   1.352   4.389
 3121SOL     OW 9814   3.256   0.573   3.795
 3121SOL    HW1 9815   3.194   0.552   3.866
 3121SOL    HW2 9816   3.341   0.543   3.828
 3122SOL     OW 9817   2.384   0.266   4.044
 3122SOL    HW1 9818   2.431   0.218   3.975
 3122SOL    HW2 9819   2.361   0.349   4.004
 3123SOL     OW 9820   3.613   1.241   5.293
 3123SOL    HW1 9821   3.700   1.202   5.288
 3123SOL    HW2 9822   3.629   1.331   5.321
 3124SOL     OW 9823   2.920   1.354   5.057
 3124SOL    HW1 9824   2.844   1.323   5.108
 3124SOL    HW2 9825   2.995   1.312   5.098
 3125SOL     OW 9826   3.471   1.627   5.380
 3125SOL    HW1 9827   3.463   1.660   5.291
 3125SOL    HW2 9828   3.553   1.578   5.380
 3126SOL     OW 9829   2.994   1.206   4.828
 3126SOL    HW1 9830   2.933   1.244   4.892
 3126SOL    HW2 9831   2.964   1.240   4.743
 3127SOL     OW 9832   3.488   1.097   4.800
 3127SOL    HW1 9833   3.482   1.159   4.873
 3127SOL    HW2 9834   3.410   1.115   4.747
 3128SOL     OW 9835   2.764   0.108   5.109
 3128SOL    HW1 9836   2.795   0.073   5.025
 3128SOL    HW2 9837   2.841   0.150   5.147
 3129SOL     OW 9838   2.846   1.115   5.447
 3129SOL    HW1 9839   2.755   1.131   5.469
 3129SOL    HW2 9840   2.844   1.037   5.392
 3130SOL     OW 9841   2.571   1.062   4.095
 3130SOL    HW1 9842   2.557   1.044   4.188
 3130SOL    HW2 9843   2.647   1.008   4.071
 3131SOL     OW 9844   2.282   0.817   4.976
 3131SOL    HW1 9845   2.350   0.826   5.042
 3131SOL    HW2 9846   2.247   0.729   4.989
 3132SOL     OW 9847   3.127   0.377   4.999
 3132SOL    HW1 9848   3.161   0.454   5.045
 3132SOL    HW2 9849   3.037   0.400   4.976
 3133SOL     OW 9850   1.935   1.574   5.079
 3133SOL    HW1 9851   1.906   1.646   5.022
 3133SOL    HW2 9852   2.030   1.575   5.072
 3134SOL     OW 9853   2.205   1.113   4.214
 3134SOL    HW1 9854   2.212   1.186   4.152
 3134SOL    HW2 9855   2.203   1.035   4.158
 3135SOL     OW 9856   2.413   0.535   4.584
 3135SOL    HW1 9857   2.427   0.594   4.510
 3135SOL    HW2 9858   2.480   0.561   4.648
 3136SOL     OW 9859   3.110   1.348   4.113
 3136SOL    HW1 9860   3.166   1.420   4.144
 3136SOL    HW2 9861   3.023   1.369   4.148
 3137SOL     OW 9862   3.147   1.459   4.872
 3137SOL    HW1 9863   3.203   1.462   4.950
 3137SOL    HW2 9864   3.091   1.383   4.885
 3138SOL     OW 9865   3.442   0.621   4.205
 3138SOL    HW1 9866   3.394   0.673   4.270
 3138SOL    HW2 9867   3.486   0.686   4.151
 3139SOL     OW 9868   2.207   1.530   5.036
 3139SOL    HW1 9869   2.196   1.486   4.952
 3139SOL    HW2 9870   2.301   1.541   5.045
 3140SOL     OW 9871   2.278   0.744   5.327
 3140SOL    HW1 9872   2.340   0.789   5.269
 3140SOL    HW2 9873   2.320   0.660   5.346
 3141SOL     OW 9874   3.467   0.779   5.408
 3141SOL    HW1 9875   3.381   0.821   5.402
 3141SOL    HW2 9876   3.519   0.822   5.339
 3142SOL     OW 9877   2.916   0.119   5.513
 3142SOL    HW1 9878   2.941   0.199   5.466
 3142SOL    HW2 9879   2.916   0.051   5.445
 3143SOL     OW 9880   2.345   0.059   5.461
 3143SOL    HW1 9881   2.283   5.294   5.428
 3143SOL    HW2 9882   2.291   0.135   5.483
 3144SOL     OW 9883   2.446   0.873   4.756
 3144SOL    HW1 9884   2.478   0.963   4.756
 3144SOL    HW2 9885   2.389   0.868   4.833
 3145SOL     OW 9886   3.216   0.859   4.751
 3145SOL    HW1 9887   3.131   0.847   4.707
 3145SOL    HW2 9888   3.259   0.774   4.743
 3146SOL     OW 9889   3.065   0.527   3.989
 3146SOL    HW1 9890   3.071   0.447   4.041
 3146SOL    HW2 9891   3.022   0.590   4.047
 3147SOL     OW 9892   2.156   0.202   4.973
 3147SOL    HW1 9893   2.116   0.241   5.051
 3147SOL    HW2 9894   2.159   0.108   4.993
 3148SOL     OW 9895   1.907   1.312   5.000
 3148SOL    HW1 9896   1.940   1.256   5.070
 3148SOL    HW2 9897   1.914   1.401   5.034
 3149SOL     OW 9898   2.586   0.631   4.781
 3149SOL    HW1 9899   2.661   0.616   4.724
 3149SOL    HW2 9900   2.557   0.720   4.760
 3150SOL     OW 9901   3.599   0.959   5.579
 3150SOL    HW1 9902   3.554   0.895   5.524
 3150SOL    HW2 9903   3.538   0.975   5.652
 3151SOL     OW 9904   2.172   0.070   4.384
 3151SOL    HW1 9905   2.147   0.163   4.385
 3151SOL    HW2 9906   2.223   0.058   4.464
 3152SOL     OW 9907   3.477   0.378   4.084
 3152SOL    HW1 9908   3.509   0.312   4.147
 3152SOL    HW2 9909   3.456   0.454   4.138
 3153SOL     OW 9910   2.891   0.759   4.683
 3153SOL    HW1 9911   2.885   0.776   4.777
 3153SOL    HW2 9912   2.863   0.668   4.674
 3154SOL     OW 9913   2.843   1.567   5.442
 3154SOL    HW1 9914   2.828   1.610   5.359
 3154SOL    HW2 9915   2.887   1.485   5.419
 3155SOL     OW 9916   3.715   1.503   5.329
 3155SOL    HW1 9917   3.735   1.530   5.239
 3155SOL    HW2 9918   3.796   1.519   5.377
 3156SOL     OW 9919   2.215   0.917   5.533
 3156SOL    HW1 9920   2.296   0.936   5.580
 3156SOL    HW2 9921   2.240   0.854   5.465
 3157SOL     OW 9922   3.386   0.270   3.849
 3157SOL    HW1 9923   3.321   0.208   3.882
 3157SOL    HW2 9924   3.423   0.310   3.928
 3158SOL     OW 9925   3.151   0.826   3.754
 3158SOL    HW1 9926   3.194   0.740   3.758
 3158SOL    HW2 9927   3.183   0.865   3.672
 3159SOL     OW 9928   2.930   1.336   4.581
 3159SOL    HW1 9929   2.933   1.265   4.517
 3159SOL    HW2 9930   2.988   1.404   4.545
 3160SOL     OW 9931   2.170   0.809   4.671
 3160SOL    HW1 9932   2.263   0.830   4.663
 3160SOL    HW2 9933   2.168   0.718   4.702
 3161SOL     OW 9934   2.192   0.528   4.737
 3161SOL    HW1 9935   2.156   0.441   4.722
 3161SOL    HW2 9936   2.269   0.532   4.680
 3162SOL     OW 9937   2.997   0.376   5.415
 3162SOL    HW1 9938   2.949   0.431   5.477
 3162SOL    HW2 9939   3.084   0.417   5.410
 3163SOL     OW 9940   2.993   0.221   5.191
 3163SOL    HW1 9941   2.997   0.281   5.266
 3163SOL    HW2 9942   3.049   0.263   5.125
 3164SOL     OW 9943   1.867   1.320   3.919
 3164SOL    HW1 9944   1.780   1.334   3.882
 3164SOL    HW2 9945   1.864   1.230   3.953
 3165SOL     OW 9946   1.944   1.787   4.664
 3165SOL    HW1 9947   1.917   1.707   4.618
 3165SOL    HW2 9948   2.034   1.803   4.634
 3166SOL     OW 9949   2.360   1.571   4.629
 3166SOL    HW1 9950   2.429   1.635   4.649
 3166SOL    HW2 9951   2.403   1.507   4.571
 3167SOL     OW 9952   2.841   0.790   4.949
 3167SOL    HW1 9953   2.899   0.769   5.022
 3167SOL    HW2 9954   2.756   0.752   4.974
 3168SOL     OW 9955   1.897   0.545   4.841
 3168SOL    HW1 9956   1.977   0.533   4.789
 3168SOL    HW2 9957   1.929   0.548   4.931
 3169SOL     OW 9958   2.047   0.525   5.453
 3169SOL    HW1 9959   2.112   0.488   5.393
 3169SOL    HW2 9960   2.011   0.600   5.406
 3170SOL     OW 9961   3.241   0.936   5.382
 3170SOL    HW1 9962   3.262   1.030   5.379
 3170SOL    HW2 9963   3.237   0.909   5.290
 3171SOL     OW 9964   2.676   0.574   4.090
 3171SOL    HW1 9965   2.681   0.500   4.029
 3171SOL    HW2 9966   2.602   0.626   4.059
 3172SOL     OW 9967   3.503   0.601   4.907
 3172SOL    HW1 9968   3.493   0.542   4.982
 3172SOL    HW2 9969   3.591   0.582   4.873
 3173SOL     OW 9970   2.102   1.550   5.449
 3173SOL    HW1 9971   2.081   1.614   5.517
 3173SOL    HW2 9972   2.107   1.467   5.496
 3174SOL     OW 9973   2.567   0.449   4.981
 3174SOL    HW1 9974   2.512   0.377   4.950
 3174SOL    HW2 9975   2.564   0.514   4.911
 3175SOL     OW 9976   2.785   1.680   5.192
 3175SOL    HW1 9977   2.765   1.643   5.107
 3175SOL    HW2 9978   2.781   1.774   5.179
 3176SOL     OW 9979   2.322   0.492   3.903
 3176SOL    HW1 9980   2.383   0.562   3.928
 3176SOL    HW2 9981   2.238   0.536   3.895
 3177SOL     OW 9982   2.005   1.142   5.197
 3177SOL    HW1 9983   2.007   1.092   5.279
 3177SOL    HW2 9984   2.023   1.076   5.129
 3178SOL     OW 9985   3.185   1.045   4.946
 3178SOL    HW1 9986   3.208   0.982   4.878
 3178SOL    HW2 9987   3.117   1.100   4.906
 3179SOL     OW 9988   3.176   0.856   4.029
 3179SOL    HW1 9989   3.101   0.825   4.080
 3179SOL    HW2 9990   3.150   0.843   3.938
 3180SOL     OW 9991   3.638   1.740   4.878
 3180SOL    HW1 9992   3.698   1.767   4.808
 3180SOL    HW2 9993   3.612   1.651   4.855
 3181SOL     OW 9994   3.104   1.734   4.832
 3181SOL    HW1 9995   3.187   1.756   4.790
 3181SOL    HW2 9996   3.111   1.640   4.851
 3182SOL     OW 9997   1.947   1.267   4.735
 3182SOL    HW1 9998   1.931   1.280   4.829
 3182SOL    HW2 9999   1.875   1.211   4.706
 3183SOL     OW10000   2.539   1.668   5.457
 3183SOL    HW110001   2.485   1.747   5.454
 3183SOL    HW210002   2.607   1.683   5.391
 3184SOL     OW10003   3.573   0.152   4.223
 3184SOL    HW110004   3.648   0.132   4.168
 3184SOL    HW210005   3.568   0.078   4.284
 3185SOL     OW10006   3.255   1.565   4.210
 3185SOL    HW110007   3.315   1.598   4.143
 3185SOL    HW210008   3.206   1.642   4.238
 3186SOL     OW10009   1.999   1.797   5.567
 3186SOL    HW110010   1.949   1.730   5.615
 3186SOL    HW210011   2.047   1.844   5.635
 3187SOL     OW10012   3.139   0.926   4.395
 3187SOL    HW110013   3.213   0.866   4.403
 3187SOL    HW210014   3.173   0.999   4.342
 3188SOL     OW10015   2.673   1.274   5.152
 3188SOL    HW110016   2.644   1.314   5.234
 3188SOL    HW210017   2.605   1.297   5.089
 3189SOL     OW10018   2.531   1.617   3.879
 3189SOL    HW110019   2.544   1.635   3.785
 3189SOL    HW210020   2.475   1.539   3.881
 3190SOL     OW10021   3.484   1.726   5.115
 3190SOL    HW110022   3.536   1.732   5.035
 3190SOL    HW210023   3.470   1.817   5.141
 3191SOL     OW10024   3.708   0.153   4.680
 3191SOL    HW110025   3.702   0.058   4.679
 3191SOL    HW210026   3.623   0.183   4.649
 3192SOL     OW10027   2.121   0.329   4.442
 3192SOL    HW110028   2.033   0.361   4.421
 3192SOL    HW210029   2.121   0.319   4.537
 3193SOL     OW10030   3.071   1.603   3.755
 3193SOL    HW110031   3.060   1.512   3.782
 3193SOL    HW210032   3.004   1.618   3.688
 3194SOL     OW10033   2.686   1.006   5.097
 3194SOL    HW110034   2.730   1.001   5.012
 3194SOL    HW210035   2.684   1.099   5.118
 3195SOL     OW10036   2.778   0.910   4.015
 3195SOL    HW110037   2.839   0.943   3.948
 3195SOL    HW210038   2.827   0.842   4.060
 3196SOL     OW10039   3.353   1.624   3.767
 3196SOL    HW110040   3.258   1.619   3.754
 3196SOL    HW210041   3.390   1.632   3.679
 3197SOL     OW10042   2.230   1.304   5.216
 3197SOL    HW110043   2.217   1.381   5.160
 3197SOL    HW210044   2.153   1.249   5.200
 3198SOL     OW10045   3.471   1.283   5.004
 3198SOL    HW110046   3.531   1.270   5.077
 3198SOL    HW210047   3.411   1.351   5.034
 3199SOL     OW10048   2.918   1.109   4.432
 3199SOL    HW110049   2.846   1.058   4.470
 3199SOL    HW210050   2.981   1.043   4.403
 3200SOL     OW10051   2.880   0.244   4.694
 3200SOL    HW110052   2.860   0.199   4.612
 3200SOL    HW210053   2.874   0.177   4.761
 3201SOL     OW10054   2.466   1.485   4.204
 3201SOL    HW110055   2.516   1.437   4.138
 3201SOL    HW210056   2.395   1.527   4.155
 3202SOL     OW10057   3.589   0.385   5.102
 3202SOL    HW110058   3.660   0.450   5.101
 3202SOL    HW210059   3.620   0.316   5.043
 3203SOL     OW10060   2.122   1.344   4.014
 3203SOL    HW110061   2.029   1.341   3.991
 3203SOL    HW210062   2.124   1.381   4.102
 3204SOL     OW10063   1.975   1.026   5.445
 3204SOL    HW110064   1.899   1.001   5.497
 3204SOL    HW210065   2.050   0.986   5.490
 3205SOL     OW10066   2.535   0.214   5.215
 3205SOL    HW110067   2.618   0.198   5.169
 3205SOL    HW210068   2.560   0.264   5.293
 3206SOL     OW10069   1.941   0.337   3.765
 3206SOL    HW110070   1.857   0.303   3.733
 3206SOL    HW210071   1.960   0.411   3.709
 3207SOL     OW10072   3.290   0.858   5.123
 3207SOL    HW110073   3.240   0.919   5.068
 3207SOL    HW210074   3.379   0.860   5.087
 3208SOL     OW10075   1.933   0.167   4.037
 3208SOL    HW110076   1.936   0.250   3.989
 3208SOL    HW210077   2.017   0.125   4.019
 3209SOL     OW10078   3.041   1.337   3.842
 3209SOL    HW110079   2.951   1.304   3.845
 3209SOL    HW210080   3.069   1.339   3.933
 3210SOL     OW10081   2.482   0.830   5.158
 3210SOL    HW110082   2.538   0.907   5.143
 3210SOL    HW210083   2.543   0.757   5.166
 3211SOL     OW10084   3.346   1.785   4.706
 3211SOL    HW110085   3.370   1.844   4.635
 3211SOL    HW210086   3.430   1.757   4.744
 3212SOL     OW10087   2.577   0.573   5.424
 3212SOL    HW110088   2.620   0.635   5.483
 3212SOL    HW210089   2.603   0.487   5.457
 3213SOL     OW10090   3.335   1.197   5.355
 3213SOL    HW110091   3.323   1.212   5.448
 3213SOL    HW210092   3.428   1.214   5.340
 3214SOL     OW10093   2.237   1.739   5.287
 3214SOL    HW110094   2.153   1.782   5.273
 3214SOL    HW210095   2.214   1.656   5.330
 3215SOL     OW10096   3.529   0.881   4.979
 3215SOL    HW110097   3.524   0.795   4.936
 3215SOL    HW210098   3.519   0.944   4.908
 3216SOL     OW10099   3.082   0.318   4.189
 3216SOL    HW110100   3.144   0.246   4.183
 3216SOL    HW210101   3.112   0.370   4.263
 3217SOL     OW10102   2.450   0.736   4.396
 3217SOL    HW110103   2.490   0.822   4.381
 3217SOL    HW210104   2.384   0.728   4.327
 3218SOL     OW10105   3.627   0.362   5.373
 3218SOL    HW110106   3.608   0.378   5.281
 3218SOL    HW210107   3.555   0.307   5.403
 3219SOL     OW10108   3.609   0.934   5.235
 3219SOL    HW110109   3.601   1.028   5.248
 3219SOL    HW210110   3.592   0.921   5.142
 3220SOL     OW10111   2.720   1.367   3.760
 3220SOL    HW110112   2.687   1.394   3.846
 3220SOL    HW210113   2.743   1.448   3.716
 3221SOL     OW10114   2.522   1.802   4.664
 3221SOL    HW110115   2.528   1.881   4.717
 3221SOL    HW210116   2.613   1.772   4.657
 3222SOL     OW10117   2.730   0.969   4.578
 3222SOL    HW110118   2.780   0.897   4.617
 3222SOL    HW210119   2.694   1.015   4.653
 3223SOL     OW10120   2.940   0.988   3.812
 3223SOL    HW110121   2.919   1.039   3.734
 3223SOL    HW210122   3.014   0.934   3.787
 3224SOL     OW10123   3.713   1.554   4.568
 3224SOL    HW110124   3.636   1.543   4.513
 3224SOL    HW210125   3.704   1.488   4.636
 3225SOL     OW10126   2.087   1.302   5.579
 3225SOL    HW110127   2.022   1.239   5.549
 3225SOL    HW210128   2.068   1.313   5.672
 3226SOL     OW10129   1.948   1.231   4.389
 3226SOL    HW110130   1.956   1.184   4.472
 3226SOL    HW210131   2.015   1.192   4.333
 3227SOL     OW10132   2.544   1.405   5.353
 3227SOL    HW110133   2.465   1.362   5.385
 3227SOL    HW210134   2.541   1.493   5.390
 3228SOL     OW10135   3.672   0.174   4.954
 3228SOL    HW110136   3.635   0.086   4.955
 3228SOL    HW210137   3.695   0.190   4.863
 3229SOL     OW10138   2.291   0.436   4.249
 3229SOL    HW110139   2.325   0.364   4.196
 3229SOL    HW210140   2.243   0.394   4.320
 3230SOL     OW10141   3.560   1.488   4.818
 3230SOL    HW110142   3.481   1.466   4.770
 3230SOL    HW210143   3.569   1.418   4.883
 3231SOL     OW10144   2.192   0.559   5.015
 3231SOL    HW110145   2.248   0.503   5.069
 3231SOL    HW210146   2.212   0.531   4.925
 3232SOL     OW10147   2.693   1.583   4.399
 3232SOL    HW110148   2.676   1.647   4.330
 3232SOL    HW210149   2.618   1.524   4.397
 3233SOL     OW10150   3.289   0.220   4.840
 3233SOL    HW110151   3.325   0.145   4.888
 3233SOL    HW210152   3.240   0.269   4.906
 3234SOL     OW10153   2.865   0.020   4.862
 3234SOL    HW110154   2.814   5.252   4.817
 3234SOL    HW210155   2.950   5.280   4.876
 3235SOL     OW10156   2.635   1.332   4.042
 3235SOL    HW110157   2.607   1.241   4.049
 3235SOL    HW210158   2.717   1.336   4.092
 3236SOL     OW10159   2.480   1.557   5.009
 3236SOL    HW110160   2.483   1.639   5.058
 3236SOL    HW210161   2.569   1.546   4.974
 3237SOL     OW10162   3.218   0.035   3.888
 3237SOL    HW110163   3.257   5.294   3.811
 3237SOL    HW210164   3.138   5.285   3.905
 3238SOL     OW10165   3.163   0.465   4.407
 3238SOL    HW110166   3.109   0.544   4.411
 3238SOL    HW210167   3.155   0.425   4.494
 3239SOL     OW10168   3.456   0.215   4.607
 3239SOL    HW110169   3.392   0.227   4.677
 3239SOL    HW210170   3.450   0.294   4.554
 3240SOL     OW10171   1.905   1.069   4.031
 3240SOL    HW110172   1.999   1.061   4.013
 3240SOL    HW210173   1.877   0.980   4.053
 3241SOL     OW10174   2.753   1.644   4.050
 3241SOL    HW110175   2.678   1.629   3.991
 3241SOL    HW210176   2.722   1.713   4.110
 3242SOL     OW10177   2.088   0.626   5.711
 3242SOL    HW110178   1.999   0.621   5.748
 3242SOL    HW210179   2.077   0.600   5.619
 3243SOL     OW10180   2.079   0.286   6.580
 3243SOL    HW110181   2.107   0.249   6.663
 3243SOL    HW210182   1.995   0.242   6.561
 3244SOL     OW10183   1.864   0.389   6.224
 3244SOL    HW110184   1.779   0.410   6.264
 3244SOL    HW210185   1.846   0.312   6.169
 3245SOL     OW10186   2.429   1.292   6.765
 3245SOL    HW110187   2.342   1.297   6.725
 3245SOL    HW210188   2.445   1.381   6.797
 3246SOL     OW10189   3.427   1.513   6.294
 3246SOL    HW110190   3.384   1.491   6.377
 3246SOL    HW210191   3.356   1.516   6.230
 3247SOL     OW10192   2.995   0.697   6.285
 3247SOL    HW110193   3.042   0.779   6.271
 3247SOL    HW210194   2.947   0.711   6.367
 3248SOL     OW10195   3.632   0.604   5.813
 3248SOL    HW110196   3.610   0.597   5.720
 3248SOL    HW210197   3.595   0.524   5.852
 3249SOL     OW10198   2.613   1.140   6.630
 3249SOL    HW110199   2.545   1.176   6.687
 3249SOL    HW210200   2.650   1.216   6.585
 3250SOL     OW10201   2.730   0.774   7.406
 3250SOL    HW110202   2.719   0.848   7.466
 3250SOL    HW210203   2.756   0.814   7.323
 3251SOL     OW10204   2.548   1.000   6.231
 3251SOL    HW110205   2.613   0.990   6.300
 3251SOL    HW210206   2.479   1.053   6.271
 3252SOL     OW10207   2.574   1.151   7.400
 3252SOL    HW110208   2.622   1.229   7.429
 3252SOL    HW210209   2.493   1.185   7.363
 3253SOL     OW10210   2.192   1.422   6.653
 3253SOL    HW110211   2.119   1.383   6.605
 3253SOL    HW210212   2.241   1.473   6.588
 3254SOL     OW10213   3.322   1.501   6.943
 3254SOL    HW110214   3.375   1.580   6.953
 3254SOL    HW210215   3.256   1.508   7.013
 3255SOL     OW10216   2.308   0.397   7.068
 3255SOL    HW110217   2.383   0.337   7.069
 3255SOL    HW210218   2.232   0.341   7.084
 3256SOL     OW10219   3.470   0.451   6.325
 3256SOL    HW110220   3.395   0.471   6.269
 3256SOL    HW210221   3.484   0.530   6.376
 3257SOL     OW10222   2.081   1.715   6.056
 3257SOL    HW110223   2.103   1.791   6.111
 3257SOL    HW210224   2.156   1.706   5.997
 3258SOL     OW10225   2.999   1.342   7.276
 3258SOL    HW110226   3.039   1.338   7.363
 3258SOL    HW210227   2.947   1.261   7.270
 3259SOL     OW10228   2.093   1.443   6.121
 3259SOL    HW110229   2.075   1.537   6.124
 3259SOL    HW210230   2.034   1.405   6.187
 3260SOL     OW10231   2.123   1.090   6.477
 3260SOL    HW110232   2.120   1.003   6.517
 3260SOL    HW210233   2.065   1.144   6.532
 3261SOL     OW10234   2.467   1.791   7.010
 3261SOL    HW110235   2.388   1.773   7.060
 3261SOL    HW210236   2.493   1.879   7.037
 3262SOL     OW10237   2.444   0.984   5.723
 3262SOL    HW110238   2.492   1.030   5.654
 3262SOL    HW210239   2.483   1.014   5.804
 3263SOL     OW10240   3.449   0.137   7.041
 3263SOL    HW110241   3.476   0.221   7.003
 3263SOL    HW210242   3.441   0.155   7.135
 3264SOL     OW10243   1.978   0.655   6.146
 3264SOL    HW110244   1.950   0.566   6.167
 3264SOL    HW210245   1.970   0.703   6.228
 3265SOL     OW10246   3.705   1.757   5.919
 3265SOL    HW110247   3.772   1.729   5.982
 3265SOL    HW210248   3.726   1.848   5.900
 3266SOL     OW10249   1.897   1.593   5.709
 3266SOL    HW110250   1.879   1.501   5.729
 3266SOL    HW210251   1.872   1.640   5.788
 3267SOL     OW10252   3.551   0.919   6.229
 3267SOL    HW110253   3.633   0.874   6.206
 3267SOL    HW210254   3.528   0.969   6.151
 3268SOL     OW10255   3.509   1.105   6.015
 3268SOL    HW110256   3.596   1.108   5.974
 3268SOL    HW210257   3.515   1.167   6.088
 3269SOL     OW10258   1.985   0.745   7.170
 3269SOL    HW110259   2.077   0.773   7.174
 3269SOL    HW210260   1.935   0.826   7.177
 3270SOL     OW10261   2.476   1.388   6.321
 3270SOL    HW110262   2.431   1.304   6.330
 3270SOL    HW210263   2.460   1.415   6.231
 3271SOL     OW10264   3.149   1.237   7.008
 3271SOL    HW110265   3.181   1.169   6.948
 3271SOL    HW210266   3.208   1.232   7.084
 3272SOL     OW10267   2.676   0.032   6.118
 3272SOL    HW110268   2.704   0.119   6.090
 3272SOL    HW210269   2.580   0.035   6.111
 3273SOL     OW10270   2.051   0.964   6.861
 3273SOL    HW110271   2.136   0.923   6.846
 3273SOL    HW210272   1.990   0.913   6.807
 3274SOL     OW10273   3.393   0.996   5.786
 3274SOL    HW110274   3.323   0.939   5.818
 3274SOL    HW210275   3.435   1.030   5.865
 3275SOL     OW10276   3.047   1.809   7.209
 3275SOL    HW110277   3.054   1.869   7.135
 3275SOL    HW210278   3.065   1.723   7.172
 3276SOL     OW10279   2.193   0.265   7.409
 3276SOL    HW110280   2.242   0.342   7.436
 3276SOL    HW210281   2.104   0.281   7.442
 3277SOL     OW10282   3.329   1.419   6.536
 3277SOL    HW110283   3.262   1.435   6.602
 3277SOL    HW210284   3.316   1.328   6.509
 3278SOL     OW10285   3.517   1.746   6.164
 3278SOL    HW110286   3.500   1.714   6.075
 3278SOL    HW210287   3.495   1.672   6.220
 3279SOL     OW10288   2.456   0.719   5.854
 3279SOL    HW110289   2.460   0.802   5.806
 3279SOL    HW210290   2.390   0.735   5.922
 3280SOL     OW10291   3.139   0.351   6.517
 3280SOL    HW110292   3.049   0.322   6.530
 3280SOL    HW210293   3.189   0.300   6.581
 3281SOL     OW10294   3.441   1.672   5.896
 3281SOL    HW110295   3.533   1.700   5.888
 3281SOL    HW210296   3.414   1.655   5.805
 3282SOL     OW10297   2.656   0.619   7.034
 3282SOL    HW110298   2.628   0.597   7.123
 3282SOL    HW210299   2.616   0.551   6.979
 3283SOL     OW10300   3.256   0.475   7.264
 3283SOL    HW110301   3.259   0.520   7.349
 3283SOL    HW210302   3.319   0.403   7.273
 3284SOL     OW10303   2.815   0.887   7.169
 3284SOL    HW110304   2.870   0.818   7.132
 3284SOL    HW210305   2.767   0.922   7.094
 3285SOL     OW10306   2.856   0.417   6.819
 3285SOL    HW110307   2.769   0.436   6.854
 3285SOL    HW210308   2.839   0.370   6.737
 3286SOL     OW10309   2.914   0.697   6.012
 3286SOL    HW110310   2.931   0.691   6.106
 3286SOL    HW210311   2.830   0.653   5.999
 3287SOL     OW10312   1.950   0.821   6.364
 3287SOL    HW110313   2.030   0.814   6.414
 3287SOL    HW210314   1.906   0.899   6.398
 3288SOL     OW10315   1.987   1.860   7.167
 3288SOL    HW110316   1.990   1.837   7.260
 3288SOL    HW210317   1.899   1.836   7.139
 3289SOL     OW10318   2.741   0.369   5.777
 3289SOL    HW110319   2.777   0.428   5.710
 3289SOL    HW210320   2.799   0.293   5.775
 3290SOL     OW10321   3.569   0.572   7.416
 3290SOL    HW110322   3.532   0.646   7.367
 3290SOL    HW210323   3.599   0.512   7.348
 3291SOL     OW10324   3.241   1.142   6.126
 3291SOL    HW110325   3.319   1.130   6.074
 3291SOL    HW210326   3.187   1.204   6.077
 3292SOL     OW10327   2.383   0.203   6.467
 3292SOL    HW110328   2.406   0.218   6.558
 3292SOL    HW210329   2.406   0.285   6.422
 3293SOL     OW10330   2.865   1.444   6.056
 3293SOL    HW110331   2.831   1.518   6.006
 3293SOL    HW210332   2.844   1.465   6.147
 3294SOL     OW10333   2.216   1.811   6.452
 3294SOL    HW110334   2.260   1.726   6.458
 3294SOL    HW210335   2.286   1.875   6.469
 3295SOL     OW10336   3.662   1.054   6.455
 3295SOL    HW110337   3.609   1.035   6.378
 3295SOL    HW210338   3.599   1.060   6.527
 3296SOL     OW10339   3.090   1.539   7.098
 3296SOL    HW110340   3.077   1.467   7.160
 3296SOL    HW210341   3.024   1.525   7.031
 3297SOL     OW10342   2.179   0.959   5.838
 3297SOL    HW110343   2.262   0.978   5.793
 3297SOL    HW210344   2.150   0.876   5.800
 3298SOL     OW10345   3.343   0.746   6.311
 3298SOL    HW110346   3.336   0.705   6.397
 3298SOL    HW210347   3.420   0.802   6.316
 3299SOL     OW10348   2.329   1.265   7.324
 3299SOL    HW110349   2.303   1.270   7.232
 3299SOL    HW210350   2.247   1.263   7.372
 3300SOL     OW10351   2.985   1.778   5.816
 3300SOL    HW110352   2.910   1.739   5.860
 3300SOL    HW210353   3.009   1.715   5.747
 3301SOL     OW10354   2.059   0.277   7.091
 3301SOL    HW110355   1.981   0.332   7.089
 3301SOL    HW210356   2.051   0.226   7.171
 3302SOL     OW10357   3.490   1.381   5.675
 3302SOL    HW110358   3.449   1.466   5.660
 3302SOL    HW210359   3.422   1.317   5.655
 3303SOL     OW10360   2.327   1.734   5.908
 3303SOL    HW110361   2.371   1.794   5.969
 3303SOL    HW210362   2.397   1.705   5.849
 3304SOL     OW10363   3.270   0.101   6.018
 3304SOL    HW110364   3.263   0.081   5.925
 3304SOL    HW210365   3.363   0.121   6.031
 3305SOL     OW10366   2.118   1.791   6.816
 3305SOL    HW110367   2.169   1.724   6.862
 3305SOL    HW210368   2.110   1.758   6.727
 3306SOL     OW10369   2.799   1.699   6.483
 3306SOL    HW110370   2.878   1.649   6.505
 3306SOL    HW210371   2.758   1.648   6.414
 3307SOL     OW10372   2.256   0.696   6.060
 3307SOL    HW110373   2.276   0.603   6.072
 3307SOL    HW210374   2.162   0.704   6.077
 3308SOL     OW10375   3.398   0.228   7.309
 3308SOL    HW110376   3.406   0.245   7.403
 3308SOL    HW210377   3.321   0.171   7.302
 3309SOL     OW10378   2.486   0.131   5.694
 3309SOL    HW110379   2.544   0.060   5.722
 3309SOL    HW210380   2.434   0.093   5.623
 3310SOL     OW10381   2.639   0.313   7.352
 3310SOL    HW110382   2.701   0.240   7.352
 3310SOL    HW210383   2.601   0.312   7.439
 3311SOL     OW10384   2.737   1.521   6.780
 3311SOL    HW110385   2.721   1.485   6.693
 3311SOL    HW210386   2.808   1.468   6.816
 3312SOL     OW10387   3.202   0.589   7.018
 3312SOL    HW110388   3.233   0.558   7.104
 3312SOL    HW210389   3.238   0.677   7.010
 3313SOL     OW10390   2.679   1.392   6.528
 3313SOL    HW110391   2.763   1.381   6.485
 3313SOL    HW210392   2.615   1.396   6.457
 3314SOL     OW10393   2.790   0.511   6.488
 3314SOL    HW110394   2.765   0.503   6.396
 3314SOL    HW210395   2.820   0.423   6.513
 3315SOL     OW10396   2.406   0.062   6.092
 3315SOL    HW110397   2.321   0.059   6.137
 3315SOL    HW210398   2.396   0.131   6.027
 3316SOL     OW10399   3.290   1.199   5.626
 3316SOL    HW110400   3.320   1.124   5.677
 3316SOL    HW210401   3.204   1.221   5.663
 3317SOL     OW10402   2.163   0.065   5.779
 3317SOL    HW110403   2.221   0.136   5.752
 3317SOL    HW210404   2.220   5.288   5.780
 3318SOL     OW10405   2.802   0.266   6.047
 3318SOL    HW110406   2.774   0.302   5.963
 3318SOL    HW210407   2.897   0.277   6.048
 3319SOL     OW10408   2.943   0.683   7.044
 3319SOL    HW110409   2.876   0.615   7.049
 3319SOL    HW210410   3.026   0.635   7.038
 3320SOL     OW10411   3.083   1.571   6.380
 3320SOL    HW110412   3.099   1.637   6.313
 3320SOL    HW210413   3.152   1.587   6.445
 3321SOL     OW10414   2.332   1.151   6.316
 3321SOL    HW110415   2.264   1.131   6.381
 3321SOL    HW210416   2.291   1.136   6.232
 3322SOL     OW10417   3.129   1.793   6.196
 3322SOL    HW110418   3.176   1.854   6.140
 3322SOL    HW210419   3.061   1.846   6.238
 3323SOL     OW10420   2.886   0.544   5.609
 3323SOL    HW110421   2.843   0.628   5.592
 3323SOL    HW210422   2.949   0.563   5.679
 3324SOL     OW10423   1.943   0.552   6.980
 3324SOL    HW110424   2.035   0.553   6.952
 3324SOL    HW210425   1.937   0.623   7.044
 3325SOL     OW10426   2.415   0.238   6.745
 3325SOL    HW110427   2.448   0.153   6.775
 3325SOL    HW210428   2.323   0.239   6.771
 3326SOL     OW10429   2.727   0.464   6.227
 3326SOL    HW110430   2.681   0.518   6.163
 3326SOL    HW210431   2.752   0.385   6.179
 3327SOL     OW10432   2.840   0.061   6.351
 3327SOL    HW110433   2.775   0.059   6.280
 3327SOL    HW210434   2.850   5.270   6.377
 3328SOL     OW10435   3.300   1.162   6.443
 3328SOL    HW110436   3.230   1.097   6.442
 3328SOL    HW210437   3.325   1.171   6.351
 3329SOL     OW10438   3.328   0.609   6.560
 3329SOL    HW110439   3.276   0.528   6.563
 3329SOL    HW210440   3.387   0.602   6.634
 3330SOL     OW10441   3.705   0.814   5.970
 3330SOL    HW110442   3.762   0.764   6.028
 3330SOL    HW210443   3.678   0.752   5.902
 3331SOL     OW10444   2.351   1.420   5.739
 3331SOL    HW110445   2.276   1.391   5.791
 3331SOL    HW210446   2.342   1.373   5.656
 3332SOL     OW10447   3.535   1.264   6.230
 3332SOL    HW110448   3.629   1.266   6.244
 3332SOL    HW210449   3.506   1.353   6.251
 3333SOL     OW10450   3.256   0.573   5.657
 3333SOL    HW110451   3.194   0.552   5.728
 3333SOL    HW210452   3.340   0.543   5.690
 3334SOL     OW10453   2.384   0.266   5.906
 3334SOL    HW110454   2.431   0.218   5.837
 3334SOL    HW210455   2.361   0.349   5.866
 3335SOL     OW10456   3.613   1.241   7.154
 3335SOL    HW110457   3.700   1.202   7.149
 3335SOL    HW210458   3.628   1.331   7.184
 3336SOL     OW10459   2.919   1.353   6.918
 3336SOL    HW110460   2.844   1.322   6.969
 3336SOL    HW210461   2.995   1.312   6.960
 3337SOL     OW10462   3.471   1.626   7.240
 3337SOL    HW110463   3.464   1.660   7.151
 3337SOL    HW210464   3.553   1.577   7.241
 3338SOL     OW10465   2.994   1.206   6.690
 3338SOL    HW110466   2.934   1.244   6.754
 3338SOL    HW210467   2.963   1.239   6.606
 3339SOL     OW10468   3.488   1.097   6.662
 3339SOL    HW110469   3.482   1.159   6.735
 3339SOL    HW210470   3.410   1.115   6.609
 3340SOL     OW10471   2.764   0.108   6.971
 3340SOL    HW110472   2.795   0.073   6.887
 3340SOL    HW210473   2.841   0.150   7.009
 3341SOL     OW10474   2.846   1.114   7.311
 3341SOL    HW110475   2.754   1.131   7.331
 3341SOL    HW210476   2.845   1.037   7.255
 3342SOL     OW10477   2.571   1.062   5.957
 3342SOL    HW110478   2.557   1.044   6.050
 3342SOL    HW210479   2.647   1.008   5.933
 3343SOL     OW10480   2.282   0.817   6.838
 3343SOL    HW110481   2.350   0.826   6.904
 3343SOL    HW210482   2.247   0.729   6.851
 3344SOL     OW10483   3.127   0.378   6.861
 3344SOL    HW110484   3.161   0.454   6.907
 3344SOL    HW210485   3.037   0.400   6.838
 3345SOL     OW10486   1.935   1.574   6.941
 3345SOL    HW110487   1.907   1.646   6.885
 3345SOL    HW210488   2.030   1.574   6.934
 3346SOL     OW10489   2.205   1.113   6.076
 3346SOL    HW110490   2.212   1.186   6.015
 3346SOL    HW210491   2.203   1.035   6.020
 3347SOL     OW10492   2.413   0.535   6.446
 3347SOL    HW110493   2.427   0.594   6.372
 3347SOL    HW210494   2.480   0.561   6.510
 3348SOL     OW10495   3.110   1.349   5.976
 3348SOL    HW110496   3.166   1.420   6.007
 3348SOL    HW210497   3.023   1.370   6.009
 3349SOL     OW10498   3.147   1.459   6.734
 3349SOL    HW110499   3.203   1.463   6.812
 3349SOL    HW210500   3.091   1.382   6.748
 3350SOL     OW10501   3.442   0.621   6.067
 3350SOL    HW110502   3.394   0.673   6.132
 3350SOL    HW210503   3.486   0.686   6.013
 3351SOL     OW10504   2.208   1.529   6.898
 3351SOL    HW110505   2.196   1.485   6.814
 3351SOL    HW210506   2.302   1.540   6.907
 3352SOL     OW10507   2.278   0.744   7.189
 3352SOL    HW110508   2.340   0.789   7.131
 3352SOL    HW210509   2.320   0.660   7.208
 3353SOL     OW10510   3.466   0.779   7.270
 3353SOL    HW110511   3.381   0.821   7.264
 3353SOL    HW210512   3.519   0.822   7.202
 3354SOL     OW10513   2.909   0.118   7.376
 3354SOL    HW110514   2.940   0.198   7.332
 3354SOL    HW210515   2.915   0.050   7.309
 3355SOL     OW10516   2.345   0.058   7.323
 3355SOL    HW110517   2.283   5.293   7.290
 3355SOL    HW210518   2.291   0.134   7.346
 3356SOL     OW10519   2.447   0.873   6.618
 3356SOL    HW110520   2.478   0.964   6.618
 3356SOL    HW210521   2.389   0.867   6.695
 3357SOL     OW10522   3.216   0.859   6.612
 3357SOL    HW110523   3.131   0.847   6.569
 3357SOL    HW210524   3.259   0.774   6.604
 3358SOL     OW10525   3.065   0.527   5.851
 3358SOL    HW110526   3.071   0.447   5.903
 3358SOL    HW210527   3.022   0.590   5.909
 3359SOL     OW10528   2.156   0.202   6.835
 3359SOL    HW110529   2.116   0.241   6.912
 3359SOL    HW210530   2.159   0.108   6.854
 3360SOL     OW10531   1.908   1.311   6.861
 3360SOL    HW110532   1.940   1.256   6.932
 3360SOL    HW210533   1.914   1.400   6.896
 3361SOL     OW10534   2.586   0.631   6.644
 3361SOL    HW110535   2.661   0.616   6.586
 3361SOL    HW210536   2.557   0.720   6.622
 3362SOL     OW10537   3.599   0.960   7.440
 3362SOL    HW110538   3.552   0.895   7.387
 3362SOL    HW210539   3.541   0.976   7.515
 3363SOL     OW10540   2.172   0.070   6.246
 3363SOL    HW110541   2.147   0.163   6.247
 3363SOL    HW210542   2.223   0.058   6.326
 3364SOL     OW10543   3.477   0.378   5.946
 3364SOL    HW110544   3.509   0.312   6.009
 3364SOL    HW210545   3.456   0.454   6.000
 3365SOL     OW10546   2.891   0.759   6.545
 3365SOL    HW110547   2.885   0.776   6.639
 3365SOL    HW210548   2.864   0.668   6.536
 3366SOL     OW10549   2.843   1.565   7.305
 3366SOL    HW110550   2.828   1.610   7.221
 3366SOL    HW210551   2.888   1.484   7.281
 3367SOL     OW10552   3.715   1.503   7.190
 3367SOL    HW110553   3.735   1.530   7.101
 3367SOL    HW210554   3.796   1.519   7.239
 3368SOL     OW10555   2.215   0.914   7.396
 3368SOL    HW110556   2.297   0.936   7.440
 3368SOL    HW210557   2.240   0.852   7.328
 3369SOL     OW10558   3.386   0.270   5.711
 3369SOL    HW110559   3.321   0.208   5.743
 3369SOL    HW210560   3.423   0.310   5.790
 3370SOL     OW10561   3.151   0.826   5.616
 3370SOL    HW110562   3.194   0.740   5.620
 3370SOL    HW210563   3.183   0.865   5.534
 3371SOL     OW10564   2.929   1.337   6.442
 3371SOL    HW110565   2.933   1.265   6.379
 3371SOL    HW210566   2.989   1.403   6.406
 3372SOL     OW10567   2.170   0.809   6.533
 3372SOL    HW110568   2.263   0.830   6.525
 3372SOL    HW210569   2.169   0.718   6.564
 3373SOL     OW10570   2.192   0.528   6.599
 3373SOL    HW110571   2.156   0.441   6.585
 3373SOL    HW210572   2.269   0.532   6.542
 3374SOL     OW10573   2.997   0.375   7.277
 3374SOL    HW110574   2.949   0.430   7.339
 3374SOL    HW210575   3.084   0.415   7.271
 3375SOL     OW10576   2.993   0.221   7.053
 3375SOL    HW110577   2.997   0.280   7.128
 3375SOL    HW210578   3.049   0.263   6.987
 3376SOL     OW10579   1.867   1.320   5.781
 3376SOL    HW110580   1.781   1.335   5.744
 3376SOL    HW210581   1.864   1.230   5.815
 3377SOL     OW10582   1.952   1.785   6.525
 3377SOL    HW110583   1.922   1.706   6.480
 3377SOL    HW210584   2.042   1.798   6.494
 3378SOL     OW10585   2.356   1.574   6.491
 3378SOL    HW110586   2.425   1.636   6.516
 3378SOL    HW210587   2.400   1.511   6.433
 3379SOL     OW10588   2.841   0.790   6.811
 3379SOL    HW110589   2.899   0.769   6.884
 3379SOL    HW210590   2.756   0.752   6.836
 3380SOL     OW10591   1.897   0.545   6.703
 3380SOL    HW110592   1.976   0.533   6.651
 3380SOL    HW210593   1.929   0.548   6.794
 3381SOL     OW10594   2.049   0.523   7.315
 3381SOL    HW110595   2.113   0.487   7.253
 3381SOL    HW210596   2.011   0.598   7.269
 3382SOL     OW10597   3.241   0.936   7.244
 3382SOL    HW110598   3.262   1.029   7.242
 3382SOL    HW210599   3.237   0.910   7.152
 3383SOL     OW10600   2.676   0.574   5.952
 3383SOL    HW110601   2.681   0.500   5.891
 3383SOL    HW210602   2.602   0.626   5.921
 3384SOL     OW10603   3.503   0.601   6.769
 3384SOL    HW110604   3.493   0.542   6.844
 3384SOL    HW210605   3.591   0.582   6.736
 3385SOL     OW10606   2.101   1.550   7.311
 3385SOL    HW110607   2.082   1.615   7.378
 3385SOL    HW210608   2.108   1.468   7.359
 3386SOL     OW10609   2.567   0.449   6.843
 3386SOL    HW110610   2.512   0.377   6.812
 3386SOL    HW210611   2.563   0.514   6.773
 3387SOL     OW10612   2.787   1.679   7.055
 3387SOL    HW110613   2.762   1.642   6.970
 3387SOL    HW210614   2.782   1.774   7.043
 3388SOL     OW10615   2.322   0.492   5.766
 3388SOL    HW110616   2.383   0.562   5.791
 3388SOL    HW210617   2.238   0.536   5.757
 3389SOL     OW10618   2.005   1.141   7.059
 3389SOL    HW110619   2.007   1.092   7.141
 3389SOL    HW210620   2.023   1.076   6.991
 3390SOL     OW10621   3.185   1.045   6.807
 3390SOL    HW110622   3.208   0.982   6.739
 3390SOL    HW210623   3.117   1.099   6.768
 3391SOL     OW10624   3.176   0.857   5.891
 3391SOL    HW110625   3.101   0.825   5.942
 3391SOL    HW210626   3.150   0.843   5.800
 3392SOL     OW10627   3.637   1.741   6.738
 3392SOL    HW110628   3.697   1.767   6.669
 3392SOL    HW210629   3.612   1.651   6.716
 3393SOL     OW10630   3.102   1.732   6.695
 3393SOL    HW110631   3.185   1.755   6.652
 3393SOL    HW210632   3.110   1.639   6.715
 3394SOL     OW10633   1.947   1.267   6.597
 3394SOL    HW110634   1.931   1.280   6.690
 3394SOL    HW210635   1.874   1.211   6.568
 3395SOL     OW10636   2.539   1.667   7.318
 3395SOL    HW110637   2.485   1.746   7.316
 3395SOL    HW210638   2.608   1.683   7.254
 3396SOL     OW10639   3.573   0.152   6.085
 3396SOL    HW110640   3.648   0.132   6.030
 3396SOL    HW210641   3.568   0.078   6.146
 3397SOL     OW10642   3.254   1.568   6.073
 3397SOL    HW110643   3.313   1.601   6.006
 3397SOL    HW210644   3.204   1.644   6.102
 3398SOL     OW10645   2.000   1.795   7.430
 3398SOL    HW110646   1.949   1.730   7.479
 3398SOL    HW210647   2.048   1.844   7.497
 3399SOL     OW10648   3.139   0.927   6.257
 3399SOL    HW110649   3.213   0.866   6.265
 3399SOL    HW210650   3.173   0.999   6.204
 3400SOL     OW10651   2.672   1.274   7.014
 3400SOL    HW110652   2.644   1.315   7.096
 3400SOL    HW210653   2.603   1.296   6.951
 3401SOL     OW10654   2.533   1.620   5.742
 3401SOL    HW110655   2.544   1.636   5.648
 3401SOL    HW210656   2.477   1.543   5.747
 3402SOL     OW10657   3.485   1.727   6.976
 3402SOL    HW110658   3.536   1.733   6.896
 3402SOL    HW210659   3.470   1.818   7.003
 3403SOL     OW10660   3.708   0.153   6.542
 3403SOL    HW110661   3.702   0.058   6.541
 3403SOL    HW210662   3.623   0.183   6.511
 3404SOL     OW10663   2.121   0.329   6.304
 3404SOL    HW110664   2.033   0.361   6.283
 3404SOL    HW210665   2.121   0.319   6.399
 3405SOL     OW10666   3.070   1.604   5.618
 3405SOL    HW110667   3.059   1.512   5.645
 3405SOL    HW210668   3.004   1.617   5.549
 3406SOL     OW10669   2.686   1.006   6.959
 3406SOL    HW110670   2.730   1.001   6.874
 3406SOL    HW210671   2.684   1.100   6.980
 3407SOL     OW10672   2.779   0.911   5.877
 3407SOL    HW110673   2.839   0.943   5.810
 3407SOL    HW210674   2.827   0.842   5.922
 3408SOL     OW10675   3.352   1.627   5.629
 3408SOL    HW110676   3.258   1.618   5.614
 3408SOL    HW210677   3.390   1.633   5.542
 3409SOL     OW10678   2.229   1.304   7.078
 3409SOL    HW110679   2.217   1.380   7.022
 3409SOL    HW210680   2.153   1.249   7.062
 3410SOL     OW10681   3.472   1.284   6.866
 3410SOL    HW110682   3.531   1.270   6.940
 3410SOL    HW210683   3.411   1.351   6.896
 3411SOL     OW10684   2.918   1.109   6.295
 3411SOL    HW110685   2.846   1.058   6.332
 3411SOL    HW210686   2.981   1.043   6.265
 3412SOL     OW10687   2.880   0.244   6.556
 3412SOL    HW110688   2.860   0.199   6.474
 3412SOL    HW210689   2.874   0.177   6.623
 3413SOL     OW10690   2.466   1.488   6.067
 3413SOL    HW110691   2.513   1.438   6.000
 3413SOL    HW210692   2.396   1.532   6.019
 3414SOL     OW10693   3.589   0.385   6.964
 3414SOL    HW110694   3.660   0.450   6.963
 3414SOL    HW210695   3.620   0.316   6.906
 3415SOL     OW10696   2.122   1.343   5.875
 3415SOL    HW110697   2.029   1.341   5.853
 3415SOL    HW210698   2.124   1.381   5.963
 3416SOL     OW10699   1.976   1.025   7.307
 3416SOL    HW110700   1.899   1.001   7.359
 3416SOL    HW210701   2.049   0.985   7.353
 3417SOL     OW10702   2.535   0.215   7.078
 3417SOL    HW110703   2.618   0.198   7.033
 3417SOL    HW210704   2.560   0.264   7.157
 3418SOL     OW10705   1.941   0.337   5.627
 3418SOL    HW110706   1.857   0.303   5.595
 3418SOL    HW210707   1.960   0.411   5.571
 3419SOL     OW10708   3.290   0.858   6.985
 3419SOL    HW110709   3.241   0.919   6.930
 3419SOL    HW210710   3.379   0.860   6.950
 3420SOL     OW10711   1.933   0.167   5.899
 3420SOL    HW110712   1.936   0.250   5.851
 3420SOL    HW210713   2.017   0.125   5.881
 3421SOL     OW10714   3.040   1.337   5.703
 3421SOL    HW110715   2.950   1.307   5.705
 3421SOL    HW210716   3.068   1.338   5.795
 3422SOL     OW10717   2.482   0.831   7.020
 3422SOL    HW110718   2.538   0.907   7.005
 3422SOL    HW210719   2.543   0.757   7.028
 3423SOL     OW10720   3.345   1.780   6.567
 3423SOL    HW110721   3.367   1.842   6.498
 3423SOL    HW210722   3.429   1.758   6.608
 3424SOL     OW10723   2.575   0.574   7.286
 3424SOL    HW110724   2.619   0.635   7.345
 3424SOL    HW210725   2.602   0.487   7.318
 3425SOL     OW10726   3.334   1.197   7.217
 3425SOL    HW110727   3.322   1.211   7.311
 3425SOL    HW210728   3.427   1.214   7.202
 3426SOL     OW10729   2.237   1.739   7.150
 3426SOL    HW110730   2.153   1.783   7.136
 3426SOL    HW210731   2.214   1.656   7.191
 3427SOL     OW10732   3.529   0.881   6.841
 3427SOL    HW110733   3.524   0.795   6.798
 3427SOL    HW210734   3.519   0.944   6.770
 3428SOL     OW10735   3.082   0.318   6.051
 3428SOL    HW110736   3.144   0.246   6.045
 3428SOL    HW210737   3.112   0.370   6.125
 3429SOL     OW10738   2.450   0.737   6.258
 3429SOL    HW110739   2.490   0.822   6.242
 3429SOL    HW210740   2.384   0.728   6.189
 3430SOL     OW10741   3.626   0.361   7.237
 3430SOL    HW110742   3.609   0.378   7.144
 3430SOL    HW210743   3.553   0.307   7.266
 3431SOL     OW10744   3.609   0.933   7.098
 3431SOL    HW110745   3.601   1.028   7.111
 3431SOL    HW210746   3.592   0.921   7.004
 3432SOL     OW10747   2.724   1.367   5.624
 3432SOL    HW110748   2.686   1.395   5.707
 3432SOL    HW210749   2.741   1.448   5.576
 3433SOL     OW10750   2.525   1.786   6.529
 3433SOL    HW110751   2.506   1.876   6.505
 3433SOL    HW210752   2.620   1.778   6.522
 3434SOL     OW10753   2.730   0.969   6.440
 3434SOL    HW110754   2.780   0.897   6.479
 3434SOL    HW210755   2.694   1.015   6.516
 3435SOL     OW10756   2.940   0.989   5.675
 3435SOL    HW110757   2.919   1.040   5.597
 3435SOL    HW210758   3.014   0.934   5.649
 3436SOL     OW10759   3.713   1.553   6.429
 3436SOL    HW110760   3.634   1.542   6.376
 3436SOL    HW210761   3.705   1.488   6.499
 3437SOL     OW10762   2.088   1.301   7.442
 3437SOL    HW110763   2.022   1.239   7.409
 3437SOL    HW210764   2.063   1.315   7.534
 3438SOL     OW10765   1.948   1.231   6.251
 3438SOL    HW110766   1.956   1.184   6.334
 3438SOL    HW210767   2.015   1.193   6.195
 3439SOL     OW10768   2.544   1.405   7.215
 3439SOL    HW110769   2.464   1.363   7.248
 3439SOL    HW210770   2.541   1.493   7.251
 3440SOL     OW10771   3.672   0.174   6.817
 3440SOL    HW110772   3.635   0.086   6.817
 3440SOL    HW210773   3.696   0.190   6.725
 3441SOL     OW10774   2.292   0.436   6.111
 3441SOL    HW110775   2.325   0.364   6.058
 3441SOL    HW210776   2.243   0.394   6.182
 3442SOL     OW10777   3.561   1.487   6.679
 3442SOL    HW110778   3.481   1.466   6.632
 3442SOL    HW210779   3.569   1.418   6.745
 3443SOL     OW10780   2.192   0.558   6.877
 3443SOL    HW110781   2.248   0.503   6.931
 3443SOL    HW210782   2.212   0.531   6.787
 3444SOL     OW10783   2.692   1.578   6.262
 3444SOL    HW110784   2.674   1.640   6.191
 3444SOL    HW210785   2.616   1.520   6.262
 3445SOL     OW10786   3.289   0.220   6.702
 3445SOL    HW110787   3.325   0.145   6.750
 3445SOL    HW210788   3.240   0.269   6.768
 3446SOL     OW10789   2.865   0.020   6.724
 3446SOL    HW110790   2.814   5.252   6.679
 3446SOL    HW210791   2.950   5.280   6.739
 3447SOL     OW10792   2.635   1.333   5.904
 3447SOL    HW110793   2.606   1.242   5.911
 3447SOL    HW210794   2.717   1.336   5.953
 3448SOL     OW10795   2.481   1.555   6.871
 3448SOL    HW110796   2.482   1.637   6.920
 3448SOL    HW210797   2.569   1.548   6.834
 3449SOL     OW10798   3.219   0.035   5.750
 3449SOL    HW110799   3.256   5.294   5.673
 3449SOL    HW210800   3.138   5.286   5.767
 3450SOL     OW10801   3.163   0.465   6.269
 3450SOL    HW110802   3.109   0.544   6.274
 3450SOL    HW210803   3.155   0.425   6.356
 3451SOL     OW10804   3.457   0.215   6.469
 3451SOL    HW110805   3.392   0.227   6.539
 3451SOL    HW210806   3.450   0.294   6.416
 3452SOL     OW10807   1.905   1.069   5.893
 3452SOL    HW110808   1.999   1.061   5.875
 3452SOL    HW210809   1.877   0.980   5.915
 3453SOL     OW10810   2.749   1.656   5.924
 3453SOL    HW110811   2.676   1.639   5.865
 3453SOL    HW210812   2.719   1.727   5.980
 3454SOL     OW10813   2.086   0.621   7.574
 3454SOL    HW110814   1.997   0.629   7.607
 3454SOL    HW210815   2.076   0.599   7.481
 3455SOL     OW10816   3.632   0.595   7.678
 3455SOL    HW110817   3.610   0.591   7.585
 3455SOL    HW210818   3.590   0.518   7.716
 3456SOL     OW10819   2.083   1.716   7.919
 3456SOL    HW110820   2.110   1.754   8.002
 3456SOL    HW210821   2.162   1.715   7.865
 3457SOL     OW10822   2.077   1.439   7.993
 3457SOL    HW110823   2.063   1.533   7.988
 3457SOL    HW210824   2.018   1.409   8.062
 3458SOL     OW10825   2.445   0.984   7.580
 3458SOL    HW110826   2.491   1.031   7.511
 3458SOL    HW210827   2.484   1.016   7.662
 3459SOL     OW10828   3.700   1.757   7.797
 3459SOL    HW110829   3.772   1.728   7.852
 3459SOL    HW210830   3.724   1.846   7.771
 3460SOL     OW10831   1.893   1.598   7.578
 3460SOL    HW110832   1.878   1.505   7.593
 3460SOL    HW210833   1.867   1.641   7.659
 3461SOL     OW10834   3.546   0.861   8.029
 3461SOL    HW110835   3.622   0.874   0.005
 3461SOL    HW210836   3.530   0.946   7.989
 3462SOL     OW10837   3.518   1.097   7.879
 3462SOL    HW110838   3.606   1.124   7.852
 3462SOL    HW210839   3.486   1.170   7.933
 3463SOL     OW10840   2.673   5.284   7.941
 3463SOL    HW110841   2.717   0.068   7.928
 3463SOL    HW210842   2.580   0.006   7.941
 3464SOL     OW10843   3.396   0.996   7.651
 3464SOL    HW110844   3.328   0.939   7.685
 3464SOL    HW210845   3.440   1.030   7.729
 3465SOL     OW10846   2.451   0.724   7.708
 3465SOL    HW110847   2.453   0.807   7.661
 3465SOL    HW210848   2.391   0.739   7.782
 3466SOL     OW10849   3.436   1.673   7.757
 3466SOL    HW110850   3.527   1.699   7.766
 3466SOL    HW210851   3.423   1.660   7.663
 3467SOL     OW10852   1.919   0.864   0.085
 3467SOL    HW110853   1.982   0.796   0.107
 3467SOL    HW210854   1.923   0.926   0.158
 3468SOL     OW10855   2.738   0.363   7.631
 3468SOL    HW110856   2.777   0.424   7.569
 3468SOL    HW210857   2.804   0.295   7.643
 3469SOL     OW10858   2.183   0.958   7.698
 3469SOL    HW110859   2.263   0.973   7.648
 3469SOL    HW210860   2.146   0.879   7.659
 3470SOL     OW10861   2.988   1.775   7.682
 3470SOL    HW110862   2.910   1.737   7.721
 3470SOL    HW210863   3.013   1.714   7.613
 3471SOL     OW10864   3.490   1.381   7.535
 3471SOL    HW110865   3.448   1.466   7.521
 3471SOL    HW210866   3.422   1.317   7.516
 3472SOL     OW10867   2.328   1.737   7.771
 3472SOL    HW110868   2.379   1.791   7.831
 3472SOL    HW210869   2.392   1.700   7.711
 3473SOL     OW10870   3.276   0.107   7.885
 3473SOL    HW110871   3.273   0.082   7.793
 3473SOL    HW210872   3.370   0.113   7.905
 3474SOL     OW10873   2.255   0.696   7.918
 3474SOL    HW110874   2.254   0.601   7.928
 3474SOL    HW210875   2.164   0.722   7.934
 3475SOL     OW10876   2.480   0.131   7.561
 3475SOL    HW110877   2.547   0.067   7.583
 3475SOL    HW210878   2.431   0.091   7.489
 3476SOL     OW10879   2.412   0.065   7.950
 3476SOL    HW110880   2.321   0.046   7.971
 3476SOL    HW210881   2.408   0.138   7.889
 3477SOL     OW10882   3.290   1.199   7.489
 3477SOL    HW110883   3.320   1.125   7.542
 3477SOL    HW210884   3.205   1.223   7.527
 3478SOL     OW10885   2.167   0.077   7.664
 3478SOL    HW110886   2.214   0.136   7.605
 3478SOL    HW210887   2.215   5.294   7.658
 3479SOL     OW10888   2.812   0.225   7.906
 3479SOL    HW110889   2.762   0.298   7.870
 3479SOL    HW210890   2.900   0.259   7.917
 3480SOL     OW10891   2.299   1.149   0.098
 3480SOL    HW110892   2.226   1.193   0.142
 3480SOL    HW210893   2.269   1.138   0.008
 3481SOL     OW10894   3.155   1.814   8.013
 3481SOL    HW110895   3.192   1.883   7.958
 3481SOL    HW210896   3.066   1.843   8.032
 3482SOL     OW10897   2.887   0.544   7.470
 3482SOL    HW110898   2.843   0.627   7.455
 3482SOL    HW210899   2.945   0.560   7.544
 3483SOL     OW10900   3.739   0.813   7.802
 3483SOL    HW110901   3.714   0.798   7.893
 3483SOL    HW210902   3.699   0.741   7.754
 3484SOL     OW10903   2.348   1.418   7.601
 3484SOL    HW110904   2.274   1.389   7.655
 3484SOL    HW210905   2.337   1.371   7.519
 3485SOL     OW10906   3.255   0.572   7.519
 3485SOL    HW110907   3.192   0.551   7.588
 3485SOL    HW210908   3.339   0.540   7.553
 3486SOL     OW10909   2.386   0.274   7.774
 3486SOL    HW110910   2.428   0.221   7.705
 3486SOL    HW210911   2.363   0.356   7.730
 3487SOL     OW10912   2.575   1.064   7.810
 3487SOL    HW110913   2.547   1.046   7.900
 3487SOL    HW210914   2.653   1.009   7.798
 3488SOL     OW10915   2.225   1.108   7.924
 3488SOL    HW110916   2.205   1.186   7.873
 3488SOL    HW210917   2.212   1.035   7.863
 3489SOL     OW10918   3.082   1.357   7.821
 3489SOL    HW110919   3.141   1.429   7.843
 3489SOL    HW210920   3.055   1.321   7.905
 3490SOL     OW10921   3.451   0.622   7.920
 3490SOL    HW110922   3.439   0.679   7.996
 3490SOL    HW210923   3.484   0.679   7.851
 3491SOL     OW10924   3.063   0.523   7.712
 3491SOL    HW110925   3.064   0.436   7.752
 3491SOL    HW210926   3.044   0.583   7.784
 3492SOL     OW10927   3.481   0.376   7.811
 3492SOL    HW110928   3.501   0.308   7.876
 3492SOL    HW210929   3.457   0.453   7.863
 3493SOL     OW10930   3.389   0.271   7.574
 3493SOL    HW110931   3.327   0.205   7.604
 3493SOL    HW210932   3.425   0.309   7.655
 3494SOL     OW10933   3.154   0.827   7.480
 3494SOL    HW110934   3.195   0.740   7.482
 3494SOL    HW210935   3.185   0.866   7.398
 3495SOL     OW10936   1.869   1.324   7.639
 3495SOL    HW110937   1.782   1.337   7.602
 3495SOL    HW210938   1.868   1.234   7.673
 3496SOL     OW10939   2.704   0.612   7.758
 3496SOL    HW110940   2.698   0.521   7.731
 3496SOL    HW210941   2.614   0.643   7.760
 3497SOL     OW10942   2.320   0.495   7.634
 3497SOL    HW110943   2.380   0.566   7.652
 3497SOL    HW210944   2.235   0.538   7.620
 3498SOL     OW10945   3.175   0.854   7.753
 3498SOL    HW110946   3.089   0.862   7.793
 3498SOL    HW210947   3.157   0.841   7.660
 3499SOL     OW10948   3.572   0.134   7.943
 3499SOL    HW110949   3.645   0.133   7.882
 3499SOL    HW210950   3.605   0.088   8.020
 3500SOL     OW10951   3.223   1.578   7.894
 3500SOL    HW110952   3.299   1.598   7.839
 3500SOL    HW210953   3.193   1.664   7.925
 3501SOL     OW10954   2.528   1.620   7.604
 3501SOL    HW110955   2.540   1.634   7.510
 3501SOL    HW210956   2.474   1.541   7.609
 3502SOL     OW10957   3.072   1.605   7.479
 3502SOL    HW110958   3.060   1.514   7.505
 3502SOL    HW210959   3.005   1.620   7.412
 3503SOL     OW10960   2.788   0.905   7.758
 3503SOL    HW110961   2.841   0.929   7.682
 3503SOL    HW210962   2.779   0.810   7.753
 3504SOL     OW10963   3.354   1.628   7.489
 3504SOL    HW110964   3.260   1.619   7.476
 3504SOL    HW210965   3.390   1.633   7.400
 3505SOL     OW10966   2.474   1.510   7.936
 3505SOL    HW110967   2.520   1.450   7.877
 3505SOL    HW210968   2.396   1.537   7.887
 3506SOL     OW10969   2.121   1.344   7.745
 3506SOL    HW110970   2.030   1.342   7.718
 3506SOL    HW210971   2.119   1.381   7.834
 3507SOL     OW10972   1.937   0.336   7.489
 3507SOL    HW110973   1.855   0.306   7.451
 3507SOL    HW210974   1.961   0.412   7.436
 3508SOL     OW10975   1.923   0.183   7.741
 3508SOL    HW110976   1.922   0.258   7.682
 3508SOL    HW210977   2.006   0.138   7.721
 3509SOL     OW10978   3.036   1.337   7.555
 3509SOL    HW110979   2.944   1.312   7.554
 3509SOL    HW210980   3.057   1.343   7.648
 3510SOL     OW10981   3.083   0.316   7.917
 3510SOL    HW110982   3.150   0.248   7.910
 3510SOL    HW210983   3.106   0.365   7.996
 3511SOL     OW10984   2.493   0.738   8.050
 3511SOL    HW110985   2.493   0.817   0.024
 3511SOL    HW210986   2.405   0.734   8.013
 3512SOL     OW10987   2.725   1.367   7.487
 3512SOL    HW110988   2.686   1.397   7.569
 3512SOL    HW210989   2.743   1.447   7.438
 3513SOL     OW10990   2.931   0.976   7.538
 3513SOL    HW110991   2.914   1.034   7.464
 3513SOL    HW210992   3.010   0.928   7.512
 3514SOL     OW10993   2.250   0.423   7.986
 3514SOL    HW110994   2.304   0.370   7.927
 3514SOL    HW210995   2.299   0.424   8.068
 3515SOL     OW10996   2.627   1.337   7.767
 3515SOL    HW110997   2.597   1.246   7.766
 3515SOL    HW210998   2.711   1.335   7.813
 3516SOL     OW10999   3.230   0.035   7.614
 3516SOL    HW111000   3.238   5.285   7.533
 3516SOL    HW211001   3.143   0.014   7.647
 3517SOL     OW11002   1.915   1.077   7.749
 3517SOL    HW111003   2.010   1.069   7.736
 3517SOL    HW211004   1.885   0.988   7.763
 3518SOL     OW11005   2.756   1.656   7.778
 3518SOL    HW111006   2.679   1.631   7.727
 3518SOL    HW211007   2.722   1.716   7.844
 3519SOL     OW11008   2.080   2.479   0.124
 3519SOL    HW111009   1.998   2.452   0.165
 3519SOL    HW211010   2.092   2.418   0.051
 3520SOL     OW11011   2.086   2.142   0.992
 3520SOL    HW111012   2.114   2.107   1.076
 3520SOL    HW211013   1.997   2.111   0.981
 3521SOL     OW11014   1.863   2.244   0.638
 3521SOL    HW111015   1.782   2.272   0.681
 3521SOL    HW211016   1.839   2.165   0.590
 3522SOL     OW11017   2.428   3.153   1.178
 3522SOL    HW111018   2.342   3.161   1.137
 3522SOL    HW211019   2.446   3.240   1.214
 3523SOL     OW11020   3.426   3.375   0.708
 3523SOL    HW111021   3.384   3.354   0.792
 3523SOL    HW211022   3.354   3.379   0.645
 3524SOL     OW11023   3.027   2.538   0.742
 3524SOL    HW111024   3.043   2.626   0.707
 3524SOL    HW211025   2.937   2.541   0.775
 3525SOL     OW11026   3.631   2.462   0.233
 3525SOL    HW111027   3.592   2.465   0.145
 3525SOL    HW211028   3.593   2.384   0.273
 3526SOL     OW11029   2.633   3.020   1.046
 3526SOL    HW111030   2.554   3.039   1.097
 3526SOL    HW211031   2.655   3.102   1.003
 3527SOL     OW11032   2.569   3.029   1.830
 3527SOL    HW111033   2.624   3.106   1.844
 3527SOL    HW211034   2.495   3.061   1.778
 3528SOL     OW11035   2.191   3.286   1.067
 3528SOL    HW111036   2.119   3.247   1.018
 3528SOL    HW211037   2.241   3.336   1.002
 3529SOL     OW11038   3.321   3.362   1.358
 3529SOL    HW111039   3.375   3.441   1.367
 3529SOL    HW211040   3.255   3.370   1.426
 3530SOL     OW11041   2.315   2.264   1.497
 3530SOL    HW111042   2.390   2.205   1.496
 3530SOL    HW211043   2.240   2.205   1.509
 3531SOL     OW11044   3.473   2.308   0.742
 3531SOL    HW111045   3.397   2.327   0.687
 3531SOL    HW211046   3.479   2.383   0.801
 3532SOL     OW11047   2.083   3.577   0.469
 3532SOL    HW111048   2.103   3.653   0.525
 3532SOL    HW211049   2.159   3.569   0.412
 3533SOL     OW11050   3.002   3.206   1.696
 3533SOL    HW111051   3.041   3.200   1.783
 3533SOL    HW211052   2.950   3.126   1.687
 3534SOL     OW11053   2.086   3.305   0.533
 3534SOL    HW111054   2.074   3.400   0.533
 3534SOL    HW211055   2.029   3.274   0.603
 3535SOL     OW11056   2.118   2.953   0.886
 3535SOL    HW111057   2.115   2.868   0.929
 3535SOL    HW211058   2.065   3.010   0.942
 3536SOL     OW11059   2.469   3.655   1.428
 3536SOL    HW111060   2.388   3.637   1.475
 3536SOL    HW211061   2.493   3.744   1.455
 3537SOL     OW11062   2.463   2.856   0.104
 3537SOL    HW111063   2.413   2.936   0.090
 3537SOL    HW211064   2.506   2.869   0.189
 3538SOL     OW11065   3.457   1.987   1.466
 3538SOL    HW111066   3.473   2.068   1.418
 3538SOL    HW211067   3.441   2.016   1.556
 3539SOL     OW11068   1.979   2.510   0.566
 3539SOL    HW111069   1.943   2.424   0.587
 3539SOL    HW211070   1.969   2.561   0.646
 3540SOL     OW11071   3.710   3.618   0.328
 3540SOL    HW111072   3.776   3.589   0.390
 3540SOL    HW211073   3.732   3.709   0.310
 3541SOL     OW11074   1.896   3.457   0.109
 3541SOL    HW111075   1.881   3.369   0.144
 3541SOL    HW211076   1.878   3.515   0.183
 3542SOL     OW11077   3.550   2.781   0.646
 3542SOL    HW111078   3.632   2.737   0.624
 3542SOL    HW211079   3.529   2.832   0.568
 3543SOL     OW11080   3.509   2.966   0.435
 3543SOL    HW111081   3.590   2.976   0.385
 3543SOL    HW211082   3.516   3.028   0.506
 3544SOL     OW11083   1.979   2.605   1.585
 3544SOL    HW111084   2.069   2.634   1.598
 3544SOL    HW211085   1.927   2.685   1.591
 3545SOL     OW11086   2.480   3.251   0.734
 3545SOL    HW111087   2.435   3.167   0.745
 3545SOL    HW211088   2.461   3.277   0.644
 3546SOL     OW11089   3.149   3.097   1.425
 3546SOL    HW111090   3.181   3.031   1.363
 3546SOL    HW211091   3.209   3.092   1.499
 3547SOL     OW11092   2.681   1.869   0.514
 3547SOL    HW111093   2.719   1.953   0.489
 3547SOL    HW211094   2.587   1.886   0.520
 3548SOL     OW11095   2.044   2.829   1.274
 3548SOL    HW111096   2.129   2.786   1.261
 3548SOL    HW211097   1.983   2.778   1.221
 3549SOL     OW11098   3.364   2.871   0.217
 3549SOL    HW111099   3.318   2.793   0.248
 3549SOL    HW211100   3.419   2.897   0.290
 3550SOL     OW11101   3.047   3.671   1.624
 3550SOL    HW111102   3.054   3.731   1.550
 3550SOL    HW211103   3.063   3.584   1.586
 3551SOL     OW11104   2.196   2.109   1.814
 3551SOL    HW111105   2.239   2.193   1.830
 3551SOL    HW211106   2.106   2.122   1.844
 3552SOL     OW11107   3.330   3.282   0.951
 3552SOL    HW111108   3.262   3.298   1.016
 3552SOL    HW211109   3.317   3.191   0.925
 3553SOL     OW11110   3.519   3.608   0.582
 3553SOL    HW111111   3.499   3.578   0.493
 3553SOL    HW211112   3.497   3.534   0.638
 3554SOL     OW11113   3.144   2.214   0.932
 3554SOL    HW111114   3.054   2.182   0.942
 3554SOL    HW211115   3.195   2.162   0.995
 3555SOL     OW11116   3.449   3.533   0.321
 3555SOL    HW111117   3.541   3.560   0.313
 3555SOL    HW211118   3.421   3.517   0.231
 3556SOL     OW11119   3.257   2.337   1.675
 3556SOL    HW111120   3.258   2.381   1.760
 3556SOL    HW211121   3.316   2.262   1.687
 3557SOL     OW11122   2.849   2.273   1.250
 3557SOL    HW111123   2.758   2.278   1.280
 3557SOL    HW211124   2.842   2.245   1.158
 3558SOL     OW11125   1.950   2.683   0.776
 3558SOL    HW111126   2.030   2.678   0.829
 3558SOL    HW211127   1.904   2.761   0.810
 3559SOL     OW11128   1.987   3.720   1.580
 3559SOL    HW111129   1.990   3.697   1.673
 3559SOL    HW211130   1.898   3.699   1.553
 3560SOL     OW11131   2.753   2.219   0.207
 3560SOL    HW111132   2.804   2.266   0.141
 3560SOL    HW211133   2.750   2.129   0.174
 3561SOL     OW11134   3.568   2.434   1.829
 3561SOL    HW111135   3.531   2.508   1.780
 3561SOL    HW211136   3.597   2.373   1.762
 3562SOL     OW11137   3.236   2.997   0.536
 3562SOL    HW111138   3.319   2.992   0.488
 3562SOL    HW211139   3.187   3.065   0.490
 3563SOL     OW11140   2.409   2.036   0.890
 3563SOL    HW111141   2.411   2.061   0.983
 3563SOL    HW211142   2.407   2.120   0.843
 3564SOL     OW11143   2.861   3.305   0.471
 3564SOL    HW111144   2.829   3.380   0.421
 3564SOL    HW211145   2.841   3.327   0.562
 3565SOL     OW11146   2.217   3.673   0.866
 3565SOL    HW111147   2.260   3.588   0.872
 3565SOL    HW211148   2.285   3.737   0.885
 3566SOL     OW11149   3.662   2.915   0.871
 3566SOL    HW111150   3.608   2.896   0.794
 3566SOL    HW211151   3.599   2.922   0.943
 3567SOL     OW11152   3.089   3.401   1.512
 3567SOL    HW111153   3.077   3.329   1.575
 3567SOL    HW211154   3.024   3.384   1.444
 3568SOL     OW11155   2.194   2.807   0.250
 3568SOL    HW111156   2.267   2.826   0.191
 3568SOL    HW211157   2.197   2.712   0.263
 3569SOL     OW11158   3.339   2.612   0.723
 3569SOL    HW111159   3.332   2.568   0.808
 3569SOL    HW211160   3.418   2.665   0.730
 3570SOL     OW11161   2.327   3.130   1.737
 3570SOL    HW111162   2.300   3.134   1.645
 3570SOL    HW211163   2.245   3.127   1.786
 3571SOL     OW11164   2.969   3.644   0.223
 3571SOL    HW111165   2.911   3.603   0.287
 3571SOL    HW211166   2.991   3.573   0.162
 3572SOL     OW11167   2.064   2.142   1.504
 3572SOL    HW111168   1.980   2.186   1.500
 3572SOL    HW211169   2.047   2.062   1.554
 3573SOL     OW11170   3.496   3.234   0.084
 3573SOL    HW111171   3.455   3.320   0.084
 3573SOL    HW211172   3.425   3.173   0.064
 3574SOL     OW11173   2.326   3.599   0.324
 3574SOL    HW111174   2.370   3.658   0.385
 3574SOL    HW211175   2.395   3.571   0.263
 3575SOL     OW11176   3.269   1.974   0.447
 3575SOL    HW111177   3.262   1.951   0.354
 3575SOL    HW211178   3.363   1.980   0.463
 3576SOL     OW11179   2.118   3.652   1.230
 3576SOL    HW111180   2.169   3.585   1.275
 3576SOL    HW211181   2.110   3.621   1.140
 3577SOL     OW11182   2.798   3.564   0.897
 3577SOL    HW111183   2.872   3.511   0.925
 3577SOL    HW211184   2.756   3.512   0.828
 3578SOL     OW11185   2.240   2.550   0.459
 3578SOL    HW111186   2.275   2.465   0.487
 3578SOL    HW211187   2.151   2.552   0.494
 3579SOL     OW11188   3.394   2.087   1.725
 3579SOL    HW111189   3.404   2.107   1.818
 3579SOL    HW211190   3.325   2.021   1.722
 3580SOL     OW11191   2.492   1.976   0.138
 3580SOL    HW111192   2.586   1.963   0.146
 3580SOL    HW211193   2.471   1.953   0.048
 3581SOL     OW11194   2.618   2.111   1.746
 3581SOL    HW111195   2.702   2.066   1.748
 3581SOL    HW211196   2.610   2.150   1.833
 3582SOL     OW11197   2.739   3.388   1.195
 3582SOL    HW111198   2.721   3.351   1.108
 3582SOL    HW211199   2.805   3.330   1.232
 3583SOL     OW11200   3.209   2.453   1.428
 3583SOL    HW111201   3.236   2.421   1.514
 3583SOL    HW211202   3.246   2.541   1.422
 3584SOL     OW11203   2.680   3.269   0.939
 3584SOL    HW111204   2.764   3.251   0.896
 3584SOL    HW211205   2.615   3.265   0.868
 3585SOL     OW11206   2.767   2.348   0.899
 3585SOL    HW111207   2.755   2.334   0.805
 3585SOL    HW211208   2.821   2.274   0.927
 3586SOL     OW11209   2.413   1.926   0.503
 3586SOL    HW111210   2.333   1.923   0.555
 3586SOL    HW211211   2.403   2.005   0.449
 3587SOL     OW11212   3.294   3.061   0.034
 3587SOL    HW111213   3.316   2.988   0.093
 3587SOL    HW211214   3.207   3.089   0.063
 3588SOL     OW11215   2.174   1.921   0.173
 3588SOL    HW111216   2.241   1.987   0.191
 3588SOL    HW211217   2.209   1.841   0.213
 3589SOL     OW11218   2.803   2.115   0.457
 3589SOL    HW111219   2.778   2.152   0.373
 3589SOL    HW211220   2.898   2.125   0.461
 3590SOL     OW11221   2.937   2.512   1.463
 3590SOL    HW111222   2.901   2.431   1.427
 3590SOL    HW211223   3.031   2.505   1.447
 3591SOL     OW11224   3.086   3.429   0.792
 3591SOL    HW111225   3.099   3.497   0.726
 3591SOL    HW211226   3.152   3.449   0.860
 3592SOL     OW11227   2.330   3.022   0.727
 3592SOL    HW111228   2.264   2.996   0.791
 3592SOL    HW211229   2.293   2.997   0.643
 3593SOL     OW11230   3.128   3.655   0.610
 3593SOL    HW111231   3.179   3.718   0.559
 3593SOL    HW211232   3.060   3.707   0.652
 3594SOL     OW11233   2.917   2.366   0.031
 3594SOL    HW111234   2.879   2.449   0.004
 3594SOL    HW211235   2.975   2.389   0.104
 3595SOL     OW11236   1.943   2.417   1.391
 3595SOL    HW111237   2.036   2.416   1.367
 3595SOL    HW211238   1.936   2.487   1.456
 3596SOL     OW11239   2.414   2.071   1.162
 3596SOL    HW111240   2.456   1.997   1.207
 3596SOL    HW211241   2.324   2.070   1.195
 3597SOL     OW11242   2.718   2.310   0.638
 3597SOL    HW111243   2.739   2.384   0.581
 3597SOL    HW211244   2.740   2.232   0.586
 3598SOL     OW11245   2.877   1.914   0.748
 3598SOL    HW111246   2.817   1.906   0.673
 3598SOL    HW211247   2.855   1.839   0.803
 3599SOL     OW11248   3.303   3.024   0.858
 3599SOL    HW111249   3.234   2.958   0.856
 3599SOL    HW211250   3.330   3.034   0.767
 3600SOL     OW11251   3.331   2.469   0.970
 3600SOL    HW111252   3.274   2.392   0.975
 3600SOL    HW211253   3.388   2.460   1.047
 3601SOL     OW11254   3.708   2.675   0.389
 3601SOL    HW111255   3.762   2.623   0.449
 3601SOL    HW211256   3.679   2.612   0.323
 3602SOL     OW11257   2.341   3.307   0.178
 3602SOL    HW111258   2.269   3.269   0.229
 3602SOL    HW211259   2.353   3.247   0.104
 3603SOL     OW11260   3.534   3.126   0.647
 3603SOL    HW111261   3.628   3.127   0.660
 3603SOL    HW211262   3.505   3.216   0.667
 3604SOL     OW11263   3.259   2.436   0.087
 3604SOL    HW111264   3.197   2.417   0.157
 3604SOL    HW211265   3.312   2.356   0.079
 3605SOL     OW11266   2.375   2.130   0.324
 3605SOL    HW111267   2.427   2.078   0.263
 3605SOL    HW211268   2.362   2.214   0.279
 3606SOL     OW11269   3.613   3.103   1.569
 3606SOL    HW111270   3.701   3.064   1.564
 3606SOL    HW211271   3.629   3.193   1.597
 3607SOL     OW11272   2.922   3.221   1.334
 3607SOL    HW111273   2.845   3.188   1.381
 3607SOL    HW211274   2.996   3.175   1.375
 3608SOL     OW11275   3.471   3.488   1.656
 3608SOL    HW111276   3.463   3.522   1.567
 3608SOL    HW211277   3.553   3.440   1.656
 3609SOL     OW11278   2.993   3.066   1.102
 3609SOL    HW111279   2.927   3.091   1.167
 3609SOL    HW211280   2.958   3.100   1.019
 3610SOL     OW11281   3.488   2.959   1.077
 3610SOL    HW111282   3.483   3.021   1.150
 3610SOL    HW211283   3.411   2.978   1.024
 3611SOL     OW11284   2.780   1.956   1.393
 3611SOL    HW111285   2.803   1.938   1.302
 3611SOL    HW211286   2.859   1.997   1.430
 3612SOL     OW11287   2.851   2.977   1.717
 3612SOL    HW111288   2.760   2.989   1.744
 3612SOL    HW211289   2.846   2.927   1.636
 3613SOL     OW11290   2.567   2.944   0.362
 3613SOL    HW111291   2.513   2.939   0.441
 3613SOL    HW211292   2.603   2.856   0.352
 3614SOL     OW11293   2.269   2.676   1.258
 3614SOL    HW111294   2.359   2.683   1.289
 3614SOL    HW211295   2.244   2.586   1.275
 3615SOL     OW11296   3.126   2.238   1.278
 3615SOL    HW111297   3.162   2.315   1.322
 3615SOL    HW211298   3.036   2.261   1.258
 3616SOL     OW11299   1.935   3.436   1.355
 3616SOL    HW111300   1.907   3.509   1.299
 3616SOL    HW211301   2.031   3.436   1.348
 3617SOL     OW11302   2.219   2.969   0.480
 3617SOL    HW111303   2.207   3.045   0.423
 3617SOL    HW211304   2.215   2.894   0.421
 3618SOL     OW11305   2.413   2.369   0.867
 3618SOL    HW111306   2.403   2.388   0.774
 3618SOL    HW211307   2.507   2.377   0.883
 3619SOL     OW11308   3.108   3.208   0.397
 3619SOL    HW111309   3.164   3.282   0.424
 3619SOL    HW211310   3.020   3.233   0.427
 3620SOL     OW11311   3.146   3.321   1.147
 3620SOL    HW111312   3.201   3.323   1.225
 3620SOL    HW211313   3.085   3.248   1.162
 3621SOL     OW11314   3.438   2.483   0.484
 3621SOL    HW111315   3.391   2.534   0.550
 3621SOL    HW211316   3.479   2.549   0.428
 3622SOL     OW11317   2.208   3.391   1.313
 3622SOL    HW111318   2.196   3.348   1.228
 3622SOL    HW211319   2.303   3.403   1.320
 3623SOL     OW11320   2.261   2.603   1.608
 3623SOL    HW111321   2.311   2.653   1.544
 3623SOL    HW211322   2.289   2.512   1.596
 3624SOL     OW11323   3.466   2.642   1.684
 3624SOL    HW111324   3.380   2.683   1.677
 3624SOL    HW211325   3.519   2.684   1.616
 3625SOL     OW11326   2.865   1.991   1.759
 3625SOL    HW111327   2.920   2.063   1.729
 3625SOL    HW211328   2.912   1.912   1.731
 3626SOL     OW11329   2.359   1.897   1.747
 3626SOL    HW111330   2.313   1.845   1.681
 3626SOL    HW211331   2.302   1.974   1.759
 3627SOL     OW11332   3.223   2.721   1.026
 3627SOL    HW111333   3.140   2.706   0.981
 3627SOL    HW211334   3.268   2.637   1.022
 3628SOL     OW11335   3.061   2.391   0.273
 3628SOL    HW111336   3.062   2.312   0.327
 3628SOL    HW211337   3.084   2.462   0.333
 3629SOL     OW11338   2.157   2.059   1.248
 3629SOL    HW111339   2.121   2.091   1.331
 3629SOL    HW211340   2.139   1.966   1.249
 3630SOL     OW11341   1.907   3.174   1.275
 3630SOL    HW111342   1.940   3.119   1.346
 3630SOL    HW211343   1.914   3.263   1.309
 3631SOL     OW11344   3.599   2.821   1.855
 3631SOL    HW111345   3.554   2.757   1.800
 3631SOL    HW211346   3.539   2.837   1.927
 3632SOL     OW11347   2.167   1.926   0.624
 3632SOL    HW111348   2.145   2.017   0.647
 3632SOL    HW211349   2.174   1.882   0.709
 3633SOL     OW11350   3.487   2.240   0.367
 3633SOL    HW111351   3.511   2.173   0.432
 3633SOL    HW211352   3.460   2.315   0.420
 3634SOL     OW11353   2.843   3.428   1.718
 3634SOL    HW111354   2.827   3.473   1.635
 3634SOL    HW211355   2.888   3.347   1.694
 3635SOL     OW11356   3.715   3.365   1.604
 3635SOL    HW111357   3.735   3.392   1.515
 3635SOL    HW211358   3.796   3.382   1.653
 3636SOL     OW11359   2.209   2.782   1.814
 3636SOL    HW111360   2.289   2.809   1.858
 3636SOL    HW211361   2.237   2.714   1.752
 3637SOL     OW11362   3.372   2.170   0.128
 3637SOL    HW111363   3.327   2.087   0.143
 3637SOL    HW211364   3.416   2.189   0.211
 3638SOL     OW11365   3.162   2.685   0.021
 3638SOL    HW111366   3.196   2.597   0.035
 3638SOL    HW211367   3.219   2.723   8.034
 3639SOL     OW11368   2.927   3.201   0.850
 3639SOL    HW111369   2.933   3.132   0.784
 3639SOL    HW211370   2.988   3.268   0.820
 3640SOL     OW11371   2.166   2.674   0.950
 3640SOL    HW111372   2.257   2.705   0.955
 3640SOL    HW211373   2.169   2.586   0.989
 3641SOL     OW11374   2.189   2.388   1.020
 3641SOL    HW111375   2.150   2.301   1.005
 3641SOL    HW211376   2.268   2.389   0.966
 3642SOL     OW11377   3.002   2.231   1.680
 3642SOL    HW111378   2.955   2.286   1.744
 3642SOL    HW211379   3.087   2.273   1.671
 3643SOL     OW11380   3.023   2.060   1.469
 3643SOL    HW111381   3.013   2.122   1.541
 3643SOL    HW211382   3.064   2.111   1.399
 3644SOL     OW11383   1.876   3.184   0.188
 3644SOL    HW111384   1.789   3.199   0.150
 3644SOL    HW211385   1.872   3.094   0.221
 3645SOL     OW11386   1.952   3.647   0.939
 3645SOL    HW111387   1.922   3.568   0.894
 3645SOL    HW211388   2.042   3.660   0.908
 3646SOL     OW11389   2.356   3.436   0.904
 3646SOL    HW111390   2.425   3.497   0.930
 3646SOL    HW211391   2.401   3.372   0.848
 3647SOL     OW11392   1.897   2.408   1.117
 3647SOL    HW111393   1.979   2.402   1.068
 3647SOL    HW211394   1.924   2.411   1.209
 3648SOL     OW11395   2.052   2.382   1.728
 3648SOL    HW111396   2.099   2.334   1.660
 3648SOL    HW211397   2.012   2.456   1.683
 3649SOL     OW11398   3.239   2.799   1.657
 3649SOL    HW111399   3.262   2.892   1.655
 3649SOL    HW211400   3.237   2.772   1.565
 3650SOL     OW11401   3.503   2.464   1.183
 3650SOL    HW111402   3.493   2.406   1.258
 3650SOL    HW211403   3.591   2.444   1.150
 3651SOL     OW11404   2.102   3.412   1.725
 3651SOL    HW111405   2.080   3.477   1.793
 3651SOL    HW211406   2.107   3.329   1.773
 3652SOL     OW11407   2.561   2.282   1.244
 3652SOL    HW111408   2.506   2.206   1.228
 3652SOL    HW211409   2.548   2.338   1.168
 3653SOL     OW11410   2.785   3.542   1.470
 3653SOL    HW111411   2.763   3.503   1.386
 3653SOL    HW211412   2.780   3.636   1.455
 3654SOL     OW11413   2.332   2.364   0.188
 3654SOL    HW111414   2.391   2.436   0.208
 3654SOL    HW211415   2.244   2.403   0.189
 3655SOL     OW11416   2.004   3.005   1.474
 3655SOL    HW111417   2.005   2.955   1.555
 3655SOL    HW211418   2.020   2.940   1.405
 3656SOL     OW11419   3.186   2.908   1.222
 3656SOL    HW111420   3.209   2.845   1.154
 3656SOL    HW211421   3.119   2.962   1.182
 3657SOL     OW11422   3.160   2.687   0.304
 3657SOL    HW111423   3.092   2.745   0.338
 3657SOL    HW211424   3.150   2.693   0.208
 3658SOL     OW11425   3.636   3.603   1.152
 3658SOL    HW111426   3.697   3.629   1.083
 3658SOL    HW211427   3.612   3.513   1.130
 3659SOL     OW11428   3.102   3.595   1.108
 3659SOL    HW111429   3.185   3.617   1.066
 3659SOL    HW211430   3.110   3.502   1.129
 3660SOL     OW11431   1.947   3.129   1.011
 3660SOL    HW111432   1.932   3.143   1.104
 3660SOL    HW211433   1.874   3.073   0.983
 3661SOL     OW11434   2.540   3.530   1.733
 3661SOL    HW111435   2.484   3.607   1.726
 3661SOL    HW211436   2.608   3.543   1.667
 3662SOL     OW11437   2.767   1.955   0.132
 3662SOL    HW111438   2.775   1.934   0.039
 3662SOL    HW211439   2.835   1.901   0.175
 3663SOL     OW11440   3.582   2.010   0.507
 3663SOL    HW111441   3.653   1.993   0.446
 3663SOL    HW211442   3.566   1.926   0.550
 3664SOL     OW11443   3.252   3.430   0.488
 3664SOL    HW111444   3.315   3.464   0.424
 3664SOL    HW211445   3.204   3.507   0.517
 3665SOL     OW11446   2.000   3.658   1.843
 3665SOL    HW111447   1.949   3.592   1.891
 3665SOL    HW211448   2.047   3.706   1.911
 3666SOL     OW11449   3.129   2.789   0.672
 3666SOL    HW111450   3.201   2.727   0.681
 3666SOL    HW211451   3.166   2.860   0.619
 3667SOL     OW11452   2.687   3.139   1.436
 3667SOL    HW111453   2.645   3.183   1.510
 3667SOL    HW211454   2.615   3.119   1.376
 3668SOL     OW11455   2.537   3.487   0.155
 3668SOL    HW111456   2.545   3.493   0.060
 3668SOL    HW211457   2.476   3.415   0.170
 3669SOL     OW11458   3.484   3.589   1.391
 3669SOL    HW111459   3.536   3.595   1.310
 3669SOL    HW211460   3.470   3.680   1.417
 3670SOL     OW11461   3.703   2.034   0.966
 3670SOL    HW111462   3.732   1.946   0.941
 3670SOL    HW211463   3.617   2.043   0.926
 3671SOL     OW11464   2.121   2.181   0.716
 3671SOL    HW111465   2.034   2.212   0.693
 3671SOL    HW211466   2.118   2.170   0.811
 3672SOL     OW11467   3.022   3.442   0.052
 3672SOL    HW111468   3.033   3.350   0.073
 3672SOL    HW211469   3.032   3.446   8.036
 3673SOL     OW11470   3.371   3.483   0.062
 3673SOL    HW111471   3.276   3.485   0.050
 3673SOL    HW211472   3.407   3.489   8.053
 3674SOL     OW11473   2.228   3.167   1.492
 3674SOL    HW111474   2.218   3.242   1.434
 3674SOL    HW211475   2.151   3.113   1.475
 3675SOL     OW11476   3.472   3.146   1.280
 3675SOL    HW111477   3.531   3.133   1.354
 3675SOL    HW211478   3.411   3.213   1.310
 3676SOL     OW11479   2.914   2.967   0.705
 3676SOL    HW111480   2.850   2.920   0.757
 3676SOL    HW211481   2.982   2.903   0.686
 3677SOL     OW11482   2.890   2.098   0.965
 3677SOL    HW111483   2.885   2.049   0.883
 3677SOL    HW211484   2.882   2.032   1.034
 3678SOL     OW11485   2.464   3.349   0.477
 3678SOL    HW111486   2.512   3.305   0.407
 3678SOL    HW211487   2.393   3.395   0.434
 3679SOL     OW11488   3.586   2.254   1.381
 3679SOL    HW111489   3.658   2.317   1.380
 3679SOL    HW211490   3.616   2.183   1.324
 3680SOL     OW11491   2.126   3.177   0.303
 3680SOL    HW111492   2.042   3.191   0.258
 3680SOL    HW211493   2.118   3.225   0.385
 3681SOL     OW11494   1.973   2.887   1.720
 3681SOL    HW111495   1.896   2.863   1.772
 3681SOL    HW211496   2.047   2.849   1.767
 3682SOL     OW11497   2.533   2.055   1.493
 3682SOL    HW111498   2.618   2.038   1.454
 3682SOL    HW211499   2.552   2.077   1.584
 3683SOL     OW11500   1.920   2.218   0.039
 3683SOL    HW111501   1.839   2.171   0.016
 3683SOL    HW211502   1.964   2.230   8.035
 3684SOL     OW11503   3.291   2.721   1.399
 3684SOL    HW111504   3.241   2.781   1.345
 3684SOL    HW211505   3.380   2.724   1.364
 3685SOL     OW11506   1.933   2.015   0.299
 3685SOL    HW111507   1.917   2.099   0.257
 3685SOL    HW211508   2.017   1.986   0.263
 3686SOL     OW11509   3.047   3.178   0.121
 3686SOL    HW111510   2.952   3.169   0.117
 3686SOL    HW211511   3.067   3.179   0.215
 3687SOL     OW11512   3.345   3.641   0.980
 3687SOL    HW111513   3.368   3.704   0.912
 3687SOL    HW211514   3.429   3.620   1.022
 3688SOL     OW11515   3.336   3.058   1.631
 3688SOL    HW111516   3.323   3.074   1.724
 3688SOL    HW211517   3.429   3.076   1.616
 3689SOL     OW11518   2.238   3.602   1.565
 3689SOL    HW111519   2.154   3.645   1.550
 3689SOL    HW211520   2.215   3.518   1.606
 3690SOL     OW11521   3.529   2.743   1.255
 3690SOL    HW111522   3.524   2.657   1.212
 3690SOL    HW211523   3.519   2.806   1.184
 3691SOL     OW11524   3.078   2.180   0.460
 3691SOL    HW111525   3.142   2.109   0.451
 3691SOL    HW211526   3.108   2.229   0.537
 3692SOL     OW11527   3.622   2.225   1.652
 3692SOL    HW111528   3.606   2.241   1.559
 3692SOL    HW211529   3.549   2.168   1.679
 3693SOL     OW11530   3.608   2.795   1.512
 3693SOL    HW111531   3.602   2.890   1.525
 3693SOL    HW211532   3.592   2.783   1.418
 3694SOL     OW11533   2.764   3.234   0.043
 3694SOL    HW111534   2.702   3.226   0.116
 3694SOL    HW211535   2.738   3.315   8.079
 3695SOL     OW11536   2.523   3.651   0.942
 3695SOL    HW111537   2.505   3.742   0.920
 3695SOL    HW211538   2.618   3.643   0.935
 3696SOL     OW11539   2.966   2.862   0.096
 3696SOL    HW111540   2.948   2.921   0.023
 3696SOL    HW211541   3.031   2.800   0.062
 3697SOL     OW11542   3.714   3.414   0.843
 3697SOL    HW111543   3.634   3.404   0.791
 3697SOL    HW211544   3.703   3.352   0.915
 3698SOL     OW11545   2.087   3.164   1.856
 3698SOL    HW111546   2.020   3.102   1.825
 3698SOL    HW211547   2.068   3.176   1.949
 3699SOL     OW11548   1.946   3.092   0.668
 3699SOL    HW111549   1.955   3.045   0.751
 3699SOL    HW211550   2.020   3.061   0.615
 3700SOL     OW11551   2.543   3.267   1.629
 3700SOL    HW111552   2.461   3.226   1.658
 3700SOL    HW211553   2.539   3.356   1.666
 3701SOL     OW11554   3.674   2.045   1.237
 3701SOL    HW111555   3.683   1.951   1.251
 3701SOL    HW211556   3.684   2.057   1.142
 3702SOL     OW11557   2.309   2.297   0.547
 3702SOL    HW111558   2.328   2.233   0.478
 3702SOL    HW211559   2.244   2.254   0.602
 3703SOL     OW11560   3.562   3.349   1.092
 3703SOL    HW111561   3.481   3.328   1.046
 3703SOL    HW211562   3.570   3.280   1.159
 3704SOL     OW11563   2.198   2.416   1.299
 3704SOL    HW111564   2.252   2.357   1.352
 3704SOL    HW211565   2.210   2.385   1.209
 3705SOL     OW11566   2.693   3.440   0.674
 3705SOL    HW111567   2.673   3.500   0.601
 3705SOL    HW211568   2.616   3.382   0.678
 3706SOL     OW11569   3.294   2.088   1.119
 3706SOL    HW111570   3.317   2.007   1.164
 3706SOL    HW211571   3.243   2.137   1.183
 3707SOL     OW11572   2.871   1.877   1.139
 3707SOL    HW111573   2.817   1.810   1.098
 3707SOL    HW211574   2.959   1.840   1.142
 3708SOL     OW11575   2.638   3.204   0.302
 3708SOL    HW111576   2.608   3.113   0.314
 3708SOL    HW211577   2.716   3.211   0.356
 3709SOL     OW11578   2.480   3.420   1.285
 3709SOL    HW111579   2.484   3.502   1.334
 3709SOL    HW211580   2.569   3.409   1.250
 3710SOL     OW11581   3.218   1.916   0.186
 3710SOL    HW111582   3.237   1.870   0.105
 3710SOL    HW211583   3.131   1.884   0.212
 3711SOL     OW11584   3.168   2.315   0.680
 3711SOL    HW111585   3.123   2.399   0.693
 3711SOL    HW211586   3.163   2.272   0.766
 3712SOL     OW11587   3.447   2.060   0.879
 3712SOL    HW111588   3.390   2.083   0.953
 3712SOL    HW211589   3.447   2.138   0.824
 3713SOL     OW11590   1.905   2.926   0.302
 3713SOL    HW111591   2.001   2.927   0.306
 3713SOL    HW211592   1.880   2.843   0.342
 3714SOL     OW11593   2.746   3.519   0.346
 3714SOL    HW111594   2.678   3.503   0.281
 3714SOL    HW211595   2.715   3.594   0.397
 3715SOL     OW11596   2.090   2.480   1.986
 3715SOL    HW111597   2.002   2.484   2.022
 3715SOL    HW211598   2.078   2.458   1.894
 3716SOL     OW11599   2.089   2.146   2.856
 3716SOL    HW111600   2.119   2.112   2.940
 3716SOL    HW211601   2.000   2.113   2.846
 3717SOL     OW11602   1.863   2.245   2.500
 3717SOL    HW111603   1.782   2.271   2.542
 3717SOL    HW211604   1.841   2.166   2.451
 3718SOL     OW11605   2.412   3.143   3.018
 3718SOL    HW111606   2.330   3.179   2.985
 3718SOL    HW211607   2.451   3.215   3.068
 3719SOL     OW11608   3.427   3.374   2.569
 3719SOL    HW111609   3.384   3.353   2.653
 3719SOL    HW211610   3.355   3.379   2.506
 3720SOL     OW11611   3.015   2.540   2.593
 3720SOL    HW111612   3.044   2.627   2.567
 3720SOL    HW211613   2.931   2.554   2.636
 3721SOL     OW11614   3.632   2.465   2.089
 3721SOL    HW111615   3.609   2.458   1.997
 3721SOL    HW211616   3.595   2.386   2.129
 3722SOL     OW11617   2.648   3.025   2.918
 3722SOL    HW111618   2.561   3.027   2.958
 3722SOL    HW211619   2.657   3.110   2.875
 3723SOL     OW11620   2.190   3.285   2.928
 3723SOL    HW111621   2.118   3.246   2.878
 3723SOL    HW211622   2.239   3.337   2.864
 3724SOL     OW11623   3.322   3.357   3.221
 3724SOL    HW111624   3.372   3.439   3.220
 3724SOL    HW211625   3.290   3.350   3.311
 3725SOL     OW11626   3.472   2.308   2.603
 3725SOL    HW111627   3.396   2.327   2.548
 3725SOL    HW211628   3.480   2.384   2.661
 3726SOL     OW11629   2.081   3.577   2.332
 3726SOL    HW111630   2.102   3.653   2.387
 3726SOL    HW211631   2.156   3.569   2.273
 3727SOL     OW11632   2.091   3.305   2.397
 3727SOL    HW111633   2.075   3.399   2.399
 3727SOL    HW211634   2.033   3.269   2.464
 3728SOL     OW11635   2.117   2.950   2.747
 3728SOL    HW111636   2.117   2.867   2.794
 3728SOL    HW211637   2.065   3.009   2.801
 3729SOL     OW11638   2.475   3.655   3.298
 3729SOL    HW111639   2.391   3.638   3.340
 3729SOL    HW211640   2.495   3.746   3.321
 3730SOL     OW11641   2.429   2.861   1.988
 3730SOL    HW111642   2.473   2.920   1.927
 3730SOL    HW211643   2.491   2.849   2.060
 3731SOL     OW11644   3.455   1.989   3.326
 3731SOL    HW111645   3.473   2.073   3.284
 3731SOL    HW211646   3.441   2.011   3.418
 3732SOL     OW11647   1.977   2.514   2.425
 3732SOL    HW111648   1.944   2.427   2.446
 3732SOL    HW211649   1.968   2.563   2.506
 3733SOL     OW11650   3.705   3.619   2.195
 3733SOL    HW111651   3.772   3.592   2.258
 3733SOL    HW211652   3.726   3.710   2.176
 3734SOL     OW11653   1.897   3.455   1.985
 3734SOL    HW111654   1.879   3.363   2.005
 3734SOL    HW211655   1.872   3.502   2.064
 3735SOL     OW11656   3.551   2.780   2.505
 3735SOL    HW111657   3.634   2.737   2.484
 3735SOL    HW211658   3.530   2.830   2.426
 3736SOL     OW11659   3.509   2.967   2.291
 3736SOL    HW111660   3.595   2.970   2.249
 3736SOL    HW211661   3.516   3.030   2.363
 3737SOL     OW11662   2.480   3.249   2.597
 3737SOL    HW111663   2.436   3.165   2.608
 3737SOL    HW211664   2.460   3.276   2.508
 3738SOL     OW11665   2.677   1.857   2.375
 3738SOL    HW111666   2.722   1.938   2.351
 3738SOL    HW211667   2.584   1.881   2.380
 3739SOL     OW11668   2.016   2.822   3.109
 3739SOL    HW111669   2.103   2.812   3.071
 3739SOL    HW211670   1.961   2.761   3.059
 3740SOL     OW11671   3.394   2.857   2.061
 3740SOL    HW111672   3.329   2.795   2.094
 3740SOL    HW211673   3.435   2.893   2.140
 3741SOL     OW11674   3.041   3.671   3.493
 3741SOL    HW111675   3.051   3.732   3.420
 3741SOL    HW211676   3.055   3.585   3.453
 3742SOL     OW11677   3.331   3.282   2.812
 3742SOL    HW111678   3.263   3.298   2.877
 3742SOL    HW211679   3.318   3.190   2.786
 3743SOL     OW11680   3.518   3.608   2.440
 3743SOL    HW111681   3.500   3.576   2.351
 3743SOL    HW211682   3.495   3.534   2.496
 3744SOL     OW11683   3.146   2.216   2.797
 3744SOL    HW111684   3.055   2.184   2.801
 3744SOL    HW211685   3.192   2.164   2.863
 3745SOL     OW11686   3.442   3.533   2.172
 3745SOL    HW111687   3.533   3.562   2.164
 3745SOL    HW211688   3.414   3.517   2.082
 3746SOL     OW11689   2.856   2.234   3.079
 3746SOL    HW111690   2.832   2.323   3.105
 3746SOL    HW211691   2.851   2.235   2.983
 3747SOL     OW11692   1.950   2.683   2.642
 3747SOL    HW111693   2.029   2.678   2.696
 3747SOL    HW211694   1.905   2.761   2.672
 3748SOL     OW11695   1.987   3.721   3.442
 3748SOL    HW111696   1.989   3.699   3.535
 3748SOL    HW211697   1.899   3.697   3.414
 3749SOL     OW11698   2.747   2.187   1.998
 3749SOL    HW111699   2.801   2.251   1.952
 3749SOL    HW211700   2.797   2.106   1.995
 3750SOL     OW11701   3.586   2.448   3.687
 3750SOL    HW111702   3.587   2.530   3.636
 3750SOL    HW211703   3.596   2.379   3.622
 3751SOL     OW11704   3.237   2.999   2.398
 3751SOL    HW111705   3.320   2.992   2.351
 3751SOL    HW211706   3.188   3.066   2.351
 3752SOL     OW11707   2.411   2.036   2.757
 3752SOL    HW111708   2.416   2.070   2.847
 3752SOL    HW211709   2.408   2.114   2.703
 3753SOL     OW11710   2.863   3.304   2.333
 3753SOL    HW111711   2.831   3.379   2.282
 3753SOL    HW211712   2.843   3.327   2.424
 3754SOL     OW11713   2.216   3.673   2.728
 3754SOL    HW111714   2.260   3.588   2.734
 3754SOL    HW211715   2.286   3.736   2.747
 3755SOL     OW11716   3.662   2.916   2.731
 3755SOL    HW111717   3.608   2.897   2.654
 3755SOL    HW211718   3.600   2.924   2.803
 3756SOL     OW11719   3.078   3.409   3.395
 3756SOL    HW111720   3.103   3.318   3.411
 3756SOL    HW211721   3.009   3.404   3.330
 3757SOL     OW11722   2.174   2.827   2.114
 3757SOL    HW111723   2.254   2.848   2.067
 3757SOL    HW211724   2.149   2.740   2.082
 3758SOL     OW11725   3.339   2.612   2.587
 3758SOL    HW111726   3.334   2.568   2.672
 3758SOL    HW211727   3.418   2.665   2.592
 3759SOL     OW11728   2.985   3.640   2.092
 3759SOL    HW111729   2.910   3.599   2.136
 3759SOL    HW211730   3.009   3.578   2.023
 3760SOL     OW11731   2.055   2.142   3.357
 3760SOL    HW111732   1.970   2.184   3.364
 3760SOL    HW211733   2.042   2.055   3.396
 3761SOL     OW11734   3.490   3.243   1.951
 3761SOL    HW111735   3.449   3.328   1.936
 3761SOL    HW211736   3.421   3.179   1.931
 3762SOL     OW11737   2.327   3.598   2.182
 3762SOL    HW111738   2.370   3.655   2.246
 3762SOL    HW211739   2.398   3.566   2.127
 3763SOL     OW11740   3.263   1.969   2.298
 3763SOL    HW111741   3.254   1.943   2.206
 3763SOL    HW211742   3.358   1.975   2.312
 3764SOL     OW11743   2.117   3.655   3.090
 3764SOL    HW111744   2.164   3.584   3.134
 3764SOL    HW211745   2.109   3.626   2.999
 3765SOL     OW11746   2.798   3.564   2.759
 3765SOL    HW111747   2.872   3.510   2.788
 3765SOL    HW211748   2.756   3.512   2.690
 3766SOL     OW11749   2.244   2.550   2.331
 3766SOL    HW111750   2.275   2.463   2.357
 3766SOL    HW211751   2.152   2.551   2.357
 3767SOL     OW11752   3.404   2.071   3.587
 3767SOL    HW111753   3.410   2.101   3.677
 3767SOL    HW211754   3.324   2.018   3.584
 3768SOL     OW11755   2.477   1.969   1.984
 3768SOL    HW111756   2.568   1.939   1.982
 3768SOL    HW211757   2.442   1.949   1.897
 3769SOL     OW11758   2.738   3.387   3.055
 3769SOL    HW111759   2.716   3.353   2.969
 3769SOL    HW211760   2.806   3.329   3.088
 3770SOL     OW11761   2.679   3.271   2.801
 3770SOL    HW111762   2.762   3.251   2.758
 3770SOL    HW211763   2.614   3.264   2.732
 3771SOL     OW11764   2.765   2.337   2.782
 3771SOL    HW111765   2.755   2.346   2.687
 3771SOL    HW211766   2.815   2.257   2.794
 3772SOL     OW11767   2.412   1.927   2.362
 3772SOL    HW111768   2.331   1.926   2.413
 3772SOL    HW211769   2.405   2.005   2.307
 3773SOL     OW11770   3.290   3.061   1.902
 3773SOL    HW111771   3.319   2.986   1.953
 3773SOL    HW211772   3.203   3.081   1.938
 3774SOL     OW11773   2.156   1.910   2.048
 3774SOL    HW111774   2.216   1.969   2.003
 3774SOL    HW211775   2.212   1.845   2.090
 3775SOL     OW11776   2.811   2.093   2.330
 3775SOL    HW111777   2.771   2.167   2.285
 3775SOL    HW211778   2.905   2.110   2.325
 3776SOL     OW11779   3.087   3.429   2.654
 3776SOL    HW111780   3.100   3.498   2.588
 3776SOL    HW211781   3.152   3.449   2.721
 3777SOL     OW11782   2.333   3.016   2.593
 3777SOL    HW111783   2.263   2.995   2.655
 3777SOL    HW211784   2.297   2.995   2.507
 3778SOL     OW11785   3.129   3.655   2.472
 3778SOL    HW111786   3.176   3.716   2.416
 3778SOL    HW211787   3.061   3.707   2.514
 3779SOL     OW11788   2.904   2.384   1.888
 3779SOL    HW111789   2.836   2.452   1.888
 3779SOL    HW211790   2.961   2.407   1.961
 3780SOL     OW11791   1.926   2.429   3.251
 3780SOL    HW111792   2.020   2.414   3.256
 3780SOL    HW211793   1.910   2.505   3.306
 3781SOL     OW11794   2.430   2.090   3.030
 3781SOL    HW111795   2.461   2.004   3.059
 3781SOL    HW211796   2.339   2.093   3.059
 3782SOL     OW11797   2.732   2.304   2.517
 3782SOL    HW111798   2.708   2.363   2.446
 3782SOL    HW211799   2.759   2.223   2.472
 3783SOL     OW11800   2.880   1.912   2.610
 3783SOL    HW111801   2.821   1.908   2.534
 3783SOL    HW211802   2.854   1.837   2.663
 3784SOL     OW11803   3.300   3.025   2.717
 3784SOL    HW111804   3.233   2.956   2.717
 3784SOL    HW211805   3.326   3.034   2.626
 3785SOL     OW11806   3.331   2.469   2.832
 3785SOL    HW111807   3.275   2.391   2.836
 3785SOL    HW211808   3.388   2.461   2.909
 3786SOL     OW11809   3.705   2.676   2.245
 3786SOL    HW111810   3.762   2.626   2.304
 3786SOL    HW211811   3.678   2.613   2.178
 3787SOL     OW11812   2.354   3.279   2.017
 3787SOL    HW111813   2.277   3.252   2.068
 3787SOL    HW211814   2.343   3.234   1.933
 3788SOL     OW11815   3.533   3.126   2.506
 3788SOL    HW111816   3.628   3.127   2.520
 3788SOL    HW211817   3.505   3.215   2.527
 3789SOL     OW11818   3.257   2.433   1.933
 3789SOL    HW111819   3.196   2.411   2.003
 3789SOL    HW211820   3.342   2.402   1.963
 3790SOL     OW11821   2.385   2.132   2.183
 3790SOL    HW111822   2.422   2.076   2.115
 3790SOL    HW211823   2.364   2.214   2.138
 3791SOL     OW11824   3.617   3.097   3.430
 3791SOL    HW111825   3.706   3.063   3.417
 3791SOL    HW211826   3.631   3.187   3.461
 3792SOL     OW11827   2.931   3.212   3.199
 3792SOL    HW111828   2.860   3.206   3.263
 3792SOL    HW211829   2.998   3.151   3.231
 3793SOL     OW11830   3.469   3.491   3.516
 3793SOL    HW111831   3.465   3.524   3.427
 3793SOL    HW211832   3.550   3.439   3.518
 3794SOL     OW11833   2.991   3.070   2.958
 3794SOL    HW111834   2.920   3.088   3.020
 3794SOL    HW211835   2.959   3.102   2.874
 3795SOL     OW11836   3.494   2.961   2.940
 3795SOL    HW111837   3.490   3.022   3.014
 3795SOL    HW211838   3.411   2.973   2.894
 3796SOL     OW11839   2.812   1.943   3.265
 3796SOL    HW111840   2.823   1.930   3.171
 3796SOL    HW211841   2.859   2.024   3.284
 3797SOL     OW11842   1.937   3.440   3.220
 3797SOL    HW111843   1.911   3.513   3.162
 3797SOL    HW211844   2.032   3.435   3.211
 3798SOL     OW11845   2.214   2.972   2.349
 3798SOL    HW111846   2.208   3.047   2.291
 3798SOL    HW211847   2.203   2.896   2.292
 3799SOL     OW11848   2.416   2.386   2.743
 3799SOL    HW111849   2.420   2.395   2.647
 3799SOL    HW211850   2.507   2.378   2.770
 3800SOL     OW11851   3.109   3.210   2.254
 3800SOL    HW111852   3.165   3.282   2.283
 3800SOL    HW211853   3.022   3.233   2.287
 3801SOL     OW11854   3.146   3.323   3.007
 3801SOL    HW111855   3.198   3.326   3.087
 3801SOL    HW211856   3.085   3.250   3.020
 3802SOL     OW11857   3.440   2.484   2.343
 3802SOL    HW111858   3.393   2.535   2.408
 3802SOL    HW211859   3.487   2.548   2.290
 3803SOL     OW11860   2.204   3.404   3.170
 3803SOL    HW111861   2.192   3.351   3.092
 3803SOL    HW211862   2.299   3.409   3.181
 3804SOL     OW11863   3.216   2.724   2.882
 3804SOL    HW111864   3.142   2.700   2.827
 3804SOL    HW211865   3.265   2.643   2.893
 3805SOL     OW11866   3.063   2.390   2.129
 3805SOL    HW111867   3.064   2.308   2.179
 3805SOL    HW211868   3.069   2.458   2.196
 3806SOL     OW11869   2.167   2.062   3.111
 3806SOL    HW111870   2.132   2.096   3.193
 3806SOL    HW211871   2.145   1.969   3.112
 3807SOL     OW11872   1.906   3.184   3.129
 3807SOL    HW111873   1.930   3.126   3.201
 3807SOL    HW211874   1.914   3.272   3.166
 3808SOL     OW11875   3.603   2.798   3.702
 3808SOL    HW111876   3.551   2.808   3.622
 3808SOL    HW211877   3.543   2.821   3.773
 3809SOL     OW11878   2.167   1.926   2.486
 3809SOL    HW111879   2.145   2.016   2.509
 3809SOL    HW211880   2.175   1.881   2.570
 3810SOL     OW11881   3.480   2.238   2.226
 3810SOL    HW111882   3.508   2.174   2.291
 3810SOL    HW211883   3.457   2.316   2.278
 3811SOL     OW11884   3.714   3.364   3.466
 3811SOL    HW111885   3.734   3.391   3.377
 3811SOL    HW211886   3.795   3.381   3.515
 3812SOL     OW11887   3.389   2.135   1.989
 3812SOL    HW111888   3.325   2.069   2.016
 3812SOL    HW211889   3.423   2.170   2.071
 3813SOL     OW11890   3.152   2.684   1.889
 3813SOL    HW111891   3.194   2.598   1.892
 3813SOL    HW211892   3.184   2.724   1.808
 3814SOL     OW11893   2.927   3.201   2.712
 3814SOL    HW111894   2.933   3.131   2.647
 3814SOL    HW211895   2.988   3.268   2.681
 3815SOL     OW11896   2.165   2.679   2.831
 3815SOL    HW111897   2.259   2.699   2.825
 3815SOL    HW211898   2.162   2.585   2.849
 3816SOL     OW11899   2.173   2.402   2.865
 3816SOL    HW111900   2.145   2.311   2.862
 3816SOL    HW211901   2.261   2.401   2.828
 3817SOL     OW11902   1.868   3.181   2.057
 3817SOL    HW111903   1.781   3.196   2.020
 3817SOL    HW211904   1.864   3.092   2.091
 3818SOL     OW11905   1.952   3.647   2.801
 3818SOL    HW111906   1.922   3.568   2.756
 3818SOL    HW211907   2.042   3.660   2.770
 3819SOL     OW11908   2.355   3.436   2.766
 3819SOL    HW111909   2.424   3.497   2.793
 3819SOL    HW211910   2.400   3.371   2.711
 3820SOL     OW11911   1.897   2.408   2.974
 3820SOL    HW111912   1.979   2.405   2.925
 3820SOL    HW211913   1.924   2.412   3.066
 3821SOL     OW11914   2.707   2.323   2.232
 3821SOL    HW111915   2.705   2.286   2.144
 3821SOL    HW211916   2.630   2.380   2.236
 3822SOL     OW11917   3.505   2.457   3.043
 3822SOL    HW111918   3.498   2.400   3.119
 3822SOL    HW211919   3.593   2.441   3.008
 3823SOL     OW11920   2.101   3.411   3.601
 3823SOL    HW111921   2.078   3.494   3.642
 3823SOL    HW211922   2.111   3.350   3.674
 3824SOL     OW11923   2.796   3.529   3.318
 3824SOL    HW111924   2.761   3.501   3.233
 3824SOL    HW211925   2.785   3.624   3.319
 3825SOL     OW11926   2.328   2.366   2.056
 3825SOL    HW111927   2.375   2.446   2.080
 3825SOL    HW211928   2.238   2.395   2.039
 3826SOL     OW11929   1.962   2.996   3.320
 3826SOL    HW111930   2.040   2.984   3.375
 3826SOL    HW211931   1.974   2.935   3.248
 3827SOL     OW11932   3.210   2.934   3.055
 3827SOL    HW111933   3.223   2.859   2.997
 3827SOL    HW211934   3.137   2.982   3.015
 3828SOL     OW11935   3.177   2.707   2.163
 3828SOL    HW111936   3.098   2.743   2.203
 3828SOL    HW211937   3.155   2.702   2.069
 3829SOL     OW11938   3.637   3.603   3.015
 3829SOL    HW111939   3.697   3.629   2.945
 3829SOL    HW211940   3.612   3.513   2.992
 3830SOL     OW11941   3.102   3.597   2.970
 3830SOL    HW111942   3.185   3.619   2.928
 3830SOL    HW211943   3.110   3.503   2.990
 3831SOL     OW11944   1.948   3.127   2.869
 3831SOL    HW111945   1.933   3.146   2.962
 3831SOL    HW211946   1.874   3.072   2.844
 3832SOL     OW11947   2.552   3.539   3.602
 3832SOL    HW111948   2.496   3.614   3.586
 3832SOL    HW211949   2.600   3.526   3.520
 3833SOL     OW11950   3.582   2.012   2.369
 3833SOL    HW111951   3.654   1.997   2.308
 3833SOL    HW211952   3.566   1.927   2.409
 3834SOL     OW11953   3.253   3.430   2.348
 3834SOL    HW111954   3.313   3.463   2.282
 3834SOL    HW211955   3.204   3.507   2.377
 3835SOL     OW11956   2.005   3.653   3.703
 3835SOL    HW111957   1.952   3.590   3.752
 3835SOL    HW211958   2.049   3.704   3.770
 3836SOL     OW11959   3.131   2.788   2.532
 3836SOL    HW111960   3.203   2.726   2.542
 3836SOL    HW211961   3.167   2.859   2.480
 3837SOL     OW11962   2.532   3.484   2.017
 3837SOL    HW111963   2.543   3.498   1.923
 3837SOL    HW211964   2.477   3.406   2.023
 3838SOL     OW11965   3.482   3.588   3.250
 3838SOL    HW111966   3.536   3.595   3.171
 3838SOL    HW211967   3.469   3.678   3.278
 3839SOL     OW11968   3.703   2.034   2.828
 3839SOL    HW111969   3.732   1.947   2.802
 3839SOL    HW211970   3.617   2.044   2.789
 3840SOL     OW11971   2.121   2.179   2.579
 3840SOL    HW111972   2.035   2.212   2.555
 3840SOL    HW211973   2.120   2.172   2.674
 3841SOL     OW11974   3.070   3.467   1.894
 3841SOL    HW111975   3.059   3.375   1.920
 3841SOL    HW211976   3.005   3.479   1.825
 3842SOL     OW11977   3.352   3.488   1.905
 3842SOL    HW111978   3.258   3.481   1.891
 3842SOL    HW211979   3.390   3.494   1.818
 3843SOL     OW11980   3.477   3.146   3.143
 3843SOL    HW111981   3.532   3.130   3.221
 3843SOL    HW211982   3.414   3.212   3.172
 3844SOL     OW11983   2.915   2.967   2.565
 3844SOL    HW111984   2.848   2.918   2.612
 3844SOL    HW211985   2.984   2.904   2.548
 3845SOL     OW11986   2.893   2.096   2.820
 3845SOL    HW111987   2.888   2.042   2.742
 3845SOL    HW211988   2.883   2.035   2.893
 3846SOL     OW11989   2.464   3.353   2.344
 3846SOL    HW111990   2.512   3.306   2.276
 3846SOL    HW211991   2.392   3.396   2.297
 3847SOL     OW11992   3.587   2.254   3.240
 3847SOL    HW111993   3.659   2.316   3.241
 3847SOL    HW211994   3.617   2.182   3.184
 3848SOL     OW11995   2.123   3.205   2.152
 3848SOL    HW111996   2.030   3.202   2.129
 3848SOL    HW211997   2.124   3.244   2.240
 3849SOL     OW11998   1.941   2.193   1.897
 3849SOL    HW111999   1.854   2.174   1.863
 3849SOL    HW212000   1.970   2.269   1.847
 3850SOL     OW12001   3.308   2.661   3.206
 3850SOL    HW112002   3.253   2.739   3.203
 3850SOL    HW212003   3.398   2.695   3.210
 3851SOL     OW12004   1.929   2.017   2.168
 3851SOL    HW112005   1.915   2.096   2.116
 3851SOL    HW212006   2.014   1.984   2.139
 3852SOL     OW12007   3.041   3.202   1.980
 3852SOL    HW112008   2.952   3.167   1.980
 3852SOL    HW212009   3.068   3.200   2.072
 3853SOL     OW12010   3.346   3.642   2.843
 3853SOL    HW112011   3.368   3.704   2.774
 3853SOL    HW212012   3.430   3.620   2.883
 3854SOL     OW12013   3.342   3.141   3.503
 3854SOL    HW112014   3.334   3.117   3.595
 3854SOL    HW212015   3.430   3.112   3.478
 3855SOL     OW12016   2.239   3.602   3.429
 3855SOL    HW112017   2.154   3.644   3.412
 3855SOL    HW212018   2.217   3.516   3.462
 3856SOL     OW12019   3.563   2.746   3.117
 3856SOL    HW112020   3.541   2.663   3.075
 3856SOL    HW212021   3.544   2.812   3.050
 3857SOL     OW12022   3.080   2.180   2.318
 3857SOL    HW112023   3.142   2.108   2.311
 3857SOL    HW212024   3.108   2.228   2.396
 3858SOL     OW12025   3.615   2.231   3.513
 3858SOL    HW112026   3.600   2.243   3.420
 3858SOL    HW212027   3.546   2.172   3.542
 3859SOL     OW12028   3.604   2.800   3.388
 3859SOL    HW112029   3.598   2.895   3.392
 3859SOL    HW212030   3.598   2.779   3.295
 3860SOL     OW12031   2.732   3.236   1.901
 3860SOL    HW112032   2.691   3.270   1.980
 3860SOL    HW212033   2.750   3.314   1.848
 3861SOL     OW12034   2.523   3.651   2.803
 3861SOL    HW112035   2.505   3.743   2.781
 3861SOL    HW212036   2.618   3.643   2.798
 3862SOL     OW12037   2.971   2.877   1.951
 3862SOL    HW112038   2.931   2.911   1.871
 3862SOL    HW212039   3.030   2.808   1.922
 3863SOL     OW12040   3.714   3.415   2.705
 3863SOL    HW112041   3.634   3.404   2.653
 3863SOL    HW212042   3.706   3.349   2.774
 3864SOL     OW12043   1.947   3.093   2.529
 3864SOL    HW112044   1.957   3.047   2.612
 3864SOL    HW212045   2.016   3.056   2.473
 3865SOL     OW12046   3.675   2.045   3.099
 3865SOL    HW112047   3.683   1.950   3.112
 3865SOL    HW212048   3.685   2.056   3.004
 3866SOL     OW12049   2.308   2.294   2.407
 3866SOL    HW112050   2.328   2.231   2.337
 3866SOL    HW212051   2.243   2.249   2.461
 3867SOL     OW12052   3.561   3.350   2.957
 3867SOL    HW112053   3.481   3.328   2.908
 3867SOL    HW212054   3.569   3.279   3.021
 3868SOL     OW12055   2.693   3.440   2.535
 3868SOL    HW112056   2.671   3.499   2.464
 3868SOL    HW212057   2.617   3.382   2.542
 3869SOL     OW12058   3.288   2.088   2.989
 3869SOL    HW112059   3.324   2.004   3.018
 3869SOL    HW212060   3.252   2.127   3.069
 3870SOL     OW12061   2.871   1.875   3.001
 3870SOL    HW112062   2.816   1.810   2.957
 3870SOL    HW212063   2.959   1.837   3.001
 3871SOL     OW12064   2.635   3.206   2.180
 3871SOL    HW112065   2.617   3.114   2.163
 3871SOL    HW212066   2.717   3.206   2.229
 3872SOL     OW12067   2.476   3.429   3.143
 3872SOL    HW112068   2.484   3.510   3.193
 3872SOL    HW212069   2.564   3.409   3.113
 3873SOL     OW12070   3.216   1.915   2.030
 3873SOL    HW112071   3.247   1.848   1.968
 3873SOL    HW212072   3.128   1.886   2.054
 3874SOL     OW12073   3.166   2.316   2.543
 3874SOL    HW112074   3.116   2.398   2.553
 3874SOL    HW212075   3.162   2.275   2.629
 3875SOL     OW12076   3.447   2.064   2.742
 3875SOL    HW112077   3.383   2.088   2.810
 3875SOL    HW212078   3.450   2.139   2.684
 3876SOL     OW12079   1.905   2.930   2.169
 3876SOL    HW112080   1.998   2.921   2.148
 3876SOL    HW212081   1.877   2.842   2.192
 3877SOL     OW12082   2.749   3.518   2.201
 3877SOL    HW112083   2.675   3.502   2.143
 3877SOL    HW212084   2.721   3.592   2.256
 3878SOL     OW12085   2.105   2.066   4.682
 3878SOL    HW112086   2.136   2.106   4.763
 3878SOL    HW212087   2.010   2.079   4.684
 3879SOL     OW12088   1.859   2.220   4.361
 3879SOL    HW112089   1.782   2.246   4.412
 3879SOL    HW212090   1.832   2.140   4.316
 3880SOL     OW12091   2.406   3.162   4.944
 3880SOL    HW112092   2.349   3.173   4.867
 3880SOL    HW212093   2.433   3.251   4.967
 3881SOL     OW12094   3.431   3.376   4.432
 3881SOL    HW112095   3.383   3.363   4.514
 3881SOL    HW212096   3.363   3.383   4.365
 3882SOL     OW12097   3.622   2.463   3.956
 3882SOL    HW112098   3.604   2.462   3.862
 3882SOL    HW212099   3.591   2.377   3.986
 3883SOL     OW12100   2.570   3.030   5.554
 3883SOL    HW112101   2.625   3.107   5.568
 3883SOL    HW212102   2.495   3.062   5.505
 3884SOL     OW12103   2.185   3.291   4.786
 3884SOL    HW112104   2.107   3.261   4.740
 3884SOL    HW212105   2.232   3.346   4.723
 3885SOL     OW12106   3.321   3.364   5.079
 3885SOL    HW112107   3.376   3.442   5.087
 3885SOL    HW212108   3.255   3.373   5.148
 3886SOL     OW12109   2.292   2.286   5.269
 3886SOL    HW112110   2.373   2.248   5.235
 3886SOL    HW212111   2.225   2.223   5.246
 3887SOL     OW12112   3.487   2.299   4.459
 3887SOL    HW112113   3.450   2.352   4.388
 3887SOL    HW212114   3.461   2.345   4.539
 3888SOL     OW12115   2.080   3.577   4.194
 3888SOL    HW112116   2.102   3.653   4.248
 3888SOL    HW212117   2.153   3.571   4.131
 3889SOL     OW12118   3.005   3.205   5.419
 3889SOL    HW112119   3.041   3.200   5.508
 3889SOL    HW212120   2.950   3.126   5.411
 3890SOL     OW12121   2.092   3.305   4.257
 3890SOL    HW112122   2.074   3.399   4.253
 3890SOL    HW212123   2.026   3.270   4.317
 3891SOL     OW12124   2.468   3.655   5.152
 3891SOL    HW112125   2.387   3.637   5.200
 3891SOL    HW212126   2.492   3.744   5.179
 3892SOL     OW12127   2.514   2.880   3.855
 3892SOL    HW112128   2.469   2.937   3.793
 3892SOL    HW212129   2.495   2.918   3.941
 3893SOL     OW12130   3.458   1.986   5.192
 3893SOL    HW112131   3.471   2.065   5.139
 3893SOL    HW212132   3.441   2.018   5.280
 3894SOL     OW12133   1.887   2.490   4.315
 3894SOL    HW112134   1.882   2.395   4.321
 3894SOL    HW212135   1.979   2.509   4.299
 3895SOL     OW12136   3.706   3.619   4.057
 3895SOL    HW112137   3.773   3.592   4.119
 3895SOL    HW212138   3.726   3.710   4.037
 3896SOL     OW12139   1.896   3.457   3.847
 3896SOL    HW112140   1.882   3.365   3.868
 3896SOL    HW212141   1.870   3.504   3.927
 3897SOL     OW12142   3.558   2.794   4.372
 3897SOL    HW112143   3.626   2.733   4.341
 3897SOL    HW212144   3.530   2.840   4.294
 3898SOL     OW12145   3.512   2.958   4.150
 3898SOL    HW112146   3.600   2.972   4.116
 3898SOL    HW212147   3.502   3.023   4.220
 3899SOL     OW12148   1.979   2.599   5.302
 3899SOL    HW112149   2.068   2.630   5.317
 3899SOL    HW212150   1.925   2.678   5.306
 3900SOL     OW12151   3.153   3.085   5.145
 3900SOL    HW112152   3.205   3.025   5.092
 3900SOL    HW212153   3.201   3.094   5.227
 3901SOL     OW12154   2.666   1.826   4.229
 3901SOL    HW112155   2.713   1.907   4.248
 3901SOL    HW212156   2.573   1.850   4.233
 3902SOL     OW12157   2.034   2.811   5.024
 3902SOL    HW112158   2.111   2.754   5.017
 3902SOL    HW212159   1.984   2.793   4.945
 3903SOL     OW12160   3.410   2.859   3.914
 3903SOL    HW112161   3.363   2.776   3.929
 3903SOL    HW212162   3.438   2.887   4.000
 3904SOL     OW12163   3.048   3.671   5.348
 3904SOL    HW112164   3.054   3.732   5.274
 3904SOL    HW212165   3.064   3.585   5.309
 3905SOL     OW12166   2.195   2.104   5.542
 3905SOL    HW112167   2.237   2.190   5.541
 3905SOL    HW212168   2.106   2.122   5.572
 3906SOL     OW12169   3.325   3.271   4.681
 3906SOL    HW112170   3.257   3.290   4.746
 3906SOL    HW212171   3.289   3.199   4.629
 3907SOL     OW12172   3.519   3.609   4.301
 3907SOL    HW112173   3.499   3.579   4.212
 3907SOL    HW212174   3.498   3.535   4.357
 3908SOL     OW12175   3.442   3.536   4.034
 3908SOL    HW112176   3.533   3.563   4.026
 3908SOL    HW212177   3.414   3.519   3.944
 3909SOL     OW12178   3.257   2.335   5.401
 3909SOL    HW112179   3.260   2.380   5.486
 3909SOL    HW212180   3.316   2.260   5.412
 3910SOL     OW12181   2.926   2.469   4.148
 3910SOL    HW112182   2.969   2.550   4.177
 3910SOL    HW212183   2.880   2.493   4.068
 3911SOL     OW12184   1.988   3.721   5.304
 3911SOL    HW112185   1.990   3.698   5.397
 3911SOL    HW212186   1.899   3.699   5.276
 3912SOL     OW12187   3.567   2.434   5.553
 3912SOL    HW112188   3.531   2.507   5.503
 3912SOL    HW212189   3.597   2.372   5.486
 3913SOL     OW12190   2.883   3.357   4.153
 3913SOL    HW112191   2.834   3.430   4.114
 3913SOL    HW212192   2.863   3.363   4.246
 3914SOL     OW12193   2.216   3.673   4.588
 3914SOL    HW112194   2.262   3.589   4.592
 3914SOL    HW212195   2.283   3.739   4.607
 3915SOL     OW12196   3.666   2.921   4.594
 3915SOL    HW112197   3.619   2.893   4.515
 3915SOL    HW212198   3.599   2.922   4.662
 3916SOL     OW12199   3.091   3.399   5.237
 3916SOL    HW112200   3.080   3.331   5.304
 3916SOL    HW212201   3.025   3.379   5.171
 3917SOL     OW12202   2.328   3.131   5.462
 3917SOL    HW112203   2.300   3.136   5.371
 3917SOL    HW212204   2.247   3.126   5.512
 3918SOL     OW12205   2.988   3.642   3.952
 3918SOL    HW112206   2.905   3.613   3.989
 3918SOL    HW212207   3.014   3.571   3.893
 3919SOL     OW12208   2.056   2.144   5.226
 3919SOL    HW112209   1.967   2.178   5.233
 3919SOL    HW212210   2.054   2.062   5.274
 3920SOL     OW12211   3.498   3.253   3.813
 3920SOL    HW112212   3.457   3.338   3.798
 3920SOL    HW212213   3.429   3.189   3.797
 3921SOL     OW12214   2.321   3.603   4.040
 3921SOL    HW112215   2.370   3.657   4.102
 3921SOL    HW212216   2.388   3.564   3.984
 3922SOL     OW12217   3.274   1.945   4.163
 3922SOL    HW112218   3.253   1.940   4.069
 3922SOL    HW212219   3.362   1.981   4.166
 3923SOL     OW12220   2.120   3.654   4.955
 3923SOL    HW112221   2.168   3.583   4.997
 3923SOL    HW212222   2.103   3.622   4.866
 3924SOL     OW12223   2.802   3.556   4.624
 3924SOL    HW112224   2.887   3.512   4.629
 3924SOL    HW212225   2.757   3.512   4.552
 3925SOL     OW12226   3.394   2.087   5.449
 3925SOL    HW112227   3.403   2.108   5.542
 3925SOL    HW212228   3.328   2.017   5.447
 3926SOL     OW12229   2.620   2.116   5.467
 3926SOL    HW112230   2.703   2.067   5.473
 3926SOL    HW212231   2.604   2.146   5.556
 3927SOL     OW12232   2.752   3.405   4.947
 3927SOL    HW112233   2.735   3.354   4.868
 3927SOL    HW212234   2.817   3.354   4.995
 3928SOL     OW12235   3.209   2.450   5.158
 3928SOL    HW112236   3.235   2.416   5.243
 3928SOL    HW212237   3.249   2.537   5.153
 3929SOL     OW12238   2.405   1.901   4.223
 3929SOL    HW112239   2.326   1.914   4.276
 3929SOL    HW212240   2.417   1.984   4.177
 3930SOL     OW12241   3.308   3.066   3.769
 3930SOL    HW112242   3.350   2.997   3.819
 3930SOL    HW212243   3.218   3.069   3.802
 3931SOL     OW12244   2.157   1.916   3.906
 3931SOL    HW112245   2.220   1.970   3.858
 3931SOL    HW212246   2.210   1.847   3.946
 3932SOL     OW12247   2.937   2.518   5.188
 3932SOL    HW112248   2.908   2.428   5.202
 3932SOL    HW212249   3.030   2.510   5.165
 3933SOL     OW12250   3.077   3.450   4.530
 3933SOL    HW112251   3.092   3.503   4.452
 3933SOL    HW212252   3.149   3.472   4.589
 3934SOL     OW12253   3.127   3.657   4.336
 3934SOL    HW112254   3.175   3.717   4.278
 3934SOL    HW212255   3.060   3.712   4.376
 3935SOL     OW12256   1.941   2.423   5.093
 3935SOL    HW112257   2.029   2.386   5.103
 3935SOL    HW212258   1.936   2.492   5.158
 3936SOL     OW12259   2.426   2.059   4.902
 3936SOL    HW112260   2.449   1.987   4.961
 3936SOL    HW212261   2.332   2.069   4.910
 3937SOL     OW12262   3.392   2.383   4.696
 3937SOL    HW112263   3.343   2.316   4.743
 3937SOL    HW212264   3.430   2.437   4.766
 3938SOL     OW12265   3.708   2.675   4.105
 3938SOL    HW112266   3.764   2.625   4.164
 3938SOL    HW212267   3.681   2.612   4.038
 3939SOL     OW12268   3.531   3.125   4.368
 3939SOL    HW112269   3.626   3.124   4.379
 3939SOL    HW212270   3.505   3.215   4.386
 3940SOL     OW12271   2.454   2.102   4.024
 3940SOL    HW112272   2.410   2.101   3.939
 3940SOL    HW212273   2.410   2.171   4.073
 3941SOL     OW12274   3.613   3.103   5.294
 3941SOL    HW112275   3.701   3.065   5.289
 3941SOL    HW212276   3.629   3.193   5.322
 3942SOL     OW12277   2.934   3.228   5.064
 3942SOL    HW112278   2.853   3.189   5.095
 3942SOL    HW212279   3.003   3.171   5.097
 3943SOL     OW12280   3.470   3.487   5.379
 3943SOL    HW112281   3.463   3.522   5.290
 3943SOL    HW212282   3.553   3.440   5.380
 3944SOL     OW12283   3.487   2.960   4.802
 3944SOL    HW112284   3.496   3.018   4.878
 3944SOL    HW212285   3.405   2.987   4.761
 3945SOL     OW12286   2.779   1.962   5.119
 3945SOL    HW112287   2.800   1.932   5.031
 3945SOL    HW212288   2.861   1.995   5.154
 3946SOL     OW12289   2.851   2.978   5.442
 3946SOL    HW112290   2.760   2.988   5.471
 3946SOL    HW212291   2.845   2.926   5.362
 3947SOL     OW12292   2.560   2.973   4.100
 3947SOL    HW112293   2.514   2.962   4.183
 3947SOL    HW212294   2.599   2.888   4.083
 3948SOL     OW12295   2.256   2.644   5.023
 3948SOL    HW112296   2.339   2.682   5.049
 3948SOL    HW212297   2.267   2.550   5.037
 3949SOL     OW12298   3.124   2.234   5.014
 3949SOL    HW112299   3.164   2.309   5.060
 3949SOL    HW212300   3.050   2.271   4.966
 3950SOL     OW12301   1.932   3.433   5.077
 3950SOL    HW112302   1.901   3.505   5.022
 3950SOL    HW212303   2.027   3.437   5.071
 3951SOL     OW12304   3.137   3.203   4.097
 3951SOL    HW112305   3.185   3.278   4.130
 3951SOL    HW212306   3.046   3.219   4.123
 3952SOL     OW12307   3.139   3.311   4.879
 3952SOL    HW112308   3.203   3.321   4.950
 3952SOL    HW212309   3.062   3.274   4.922
 3953SOL     OW12310   3.461   2.476   4.209
 3953SOL    HW112311   3.393   2.541   4.227
 3953SOL    HW212312   3.519   2.519   4.146
 3954SOL     OW12313   2.206   3.393   5.035
 3954SOL    HW112314   2.195   3.348   4.951
 3954SOL    HW212315   2.301   3.405   5.043
 3955SOL     OW12316   2.260   2.596   5.334
 3955SOL    HW112317   2.315   2.644   5.271
 3955SOL    HW212318   2.288   2.505   5.326
 3956SOL     OW12319   3.465   2.641   5.409
 3956SOL    HW112320   3.380   2.684   5.403
 3956SOL    HW212321   3.518   2.684   5.341
 3957SOL     OW12322   2.864   1.990   5.484
 3957SOL    HW112323   2.919   2.061   5.451
 3957SOL    HW212324   2.910   1.910   5.457
 3958SOL     OW12325   2.360   1.897   5.471
 3958SOL    HW112326   2.314   1.844   5.405
 3958SOL    HW212327   2.303   1.972   5.485
 3959SOL     OW12328   2.164   2.065   4.974
 3959SOL    HW112329   2.122   2.096   5.054
 3959SOL    HW212330   2.140   1.973   4.968
 3960SOL     OW12331   1.929   3.169   4.993
 3960SOL    HW112332   1.945   3.116   5.070
 3960SOL    HW212333   1.921   3.259   5.026
 3961SOL     OW12334   3.599   2.821   5.579
 3961SOL    HW112335   3.554   2.756   5.525
 3961SOL    HW212336   3.539   2.838   5.651
 3962SOL     OW12337   2.159   1.923   4.353
 3962SOL    HW112338   2.104   1.998   4.376
 3962SOL    HW212339   2.171   1.876   4.435
 3963SOL     OW12340   3.483   2.231   4.090
 3963SOL    HW112341   3.514   2.165   4.153
 3963SOL    HW212342   3.464   2.308   4.142
 3964SOL     OW12343   2.844   3.428   5.442
 3964SOL    HW112344   2.828   3.473   5.359
 3964SOL    HW212345   2.888   3.347   5.416
 3965SOL     OW12346   3.715   3.366   5.327
 3965SOL    HW112347   3.736   3.392   5.238
 3965SOL    HW212348   3.796   3.382   5.376
 3966SOL     OW12349   2.209   2.781   5.537
 3966SOL    HW112350   2.290   2.807   5.581
 3966SOL    HW212351   2.237   2.712   5.476
 3967SOL     OW12352   3.393   2.129   3.849
 3967SOL    HW112353   3.326   2.066   3.876
 3967SOL    HW212354   3.422   2.170   3.930
 3968SOL     OW12355   2.998   2.240   5.400
 3968SOL    HW112356   2.955   2.291   5.468
 3968SOL    HW212357   3.087   2.276   5.396
 3969SOL     OW12358   3.021   2.059   5.197
 3969SOL    HW112359   3.013   2.123   5.268
 3969SOL    HW212360   3.066   2.106   5.127
 3970SOL     OW12361   1.863   3.194   3.921
 3970SOL    HW112362   1.777   3.205   3.879
 3970SOL    HW212363   1.860   3.106   3.958
 3971SOL     OW12364   1.952   3.647   4.665
 3971SOL    HW112365   1.921   3.567   4.623
 3971SOL    HW212366   2.040   3.659   4.631
 3972SOL     OW12367   2.367   3.437   4.636
 3972SOL    HW112368   2.423   3.511   4.656
 3972SOL    HW212369   2.426   3.363   4.626
 3973SOL     OW12370   2.054   2.380   5.453
 3973SOL    HW112371   2.116   2.342   5.390
 3973SOL    HW212372   2.013   2.452   5.405
 3974SOL     OW12373   3.241   2.800   5.381
 3974SOL    HW112374   3.263   2.893   5.381
 3974SOL    HW212375   3.238   2.775   5.289
 3975SOL     OW12376   3.514   2.477   4.925
 3975SOL    HW112377   3.500   2.411   4.993
 3975SOL    HW212378   3.598   2.454   4.886
 3976SOL     OW12379   2.103   3.412   5.450
 3976SOL    HW112380   2.080   3.477   5.517
 3976SOL    HW212381   2.107   3.329   5.497
 3977SOL     OW12382   2.458   2.316   5.009
 3977SOL    HW112383   2.443   2.223   4.992
 3977SOL    HW212384   2.500   2.349   4.929
 3978SOL     OW12385   2.785   3.545   5.196
 3978SOL    HW112386   2.763   3.508   5.111
 3978SOL    HW212387   2.781   3.640   5.182
 3979SOL     OW12388   2.001   3.005   5.206
 3979SOL    HW112389   2.003   2.961   5.291
 3979SOL    HW212390   2.013   2.935   5.142
 3980SOL     OW12391   3.636   3.604   4.876
 3980SOL    HW112392   3.697   3.631   4.807
 3980SOL    HW212393   3.611   3.514   4.853
 3981SOL     OW12394   3.104   3.593   4.836
 3981SOL    HW112395   3.187   3.615   4.792
 3981SOL    HW212396   3.110   3.499   4.853
 3982SOL     OW12397   1.905   3.184   4.719
 3982SOL    HW112398   1.909   3.171   4.814
 3982SOL    HW212399   1.888   3.096   4.684
 3983SOL     OW12400   2.540   3.530   5.457
 3983SOL    HW112401   2.483   3.607   5.451
 3983SOL    HW212402   2.607   3.544   5.389
 3984SOL     OW12403   3.587   2.013   4.234
 3984SOL    HW112404   3.657   1.996   4.171
 3984SOL    HW212405   3.568   1.928   4.272
 3985SOL     OW12406   3.260   3.431   4.218
 3985SOL    HW112407   3.315   3.463   4.146
 3985SOL    HW212408   3.202   3.504   4.238
 3986SOL     OW12409   2.000   3.658   5.567
 3986SOL    HW112410   1.949   3.592   5.615
 3986SOL    HW212411   2.047   3.706   5.635
 3987SOL     OW12412   2.687   3.143   5.151
 3987SOL    HW112413   2.650   3.185   5.229
 3987SOL    HW212414   2.612   3.129   5.094
 3988SOL     OW12415   2.518   3.485   3.873
 3988SOL    HW112416   2.534   3.503   3.781
 3988SOL    HW212417   2.514   3.389   3.878
 3989SOL     OW12418   3.484   3.588   5.113
 3989SOL    HW112419   3.536   3.596   5.034
 3989SOL    HW212420   3.470   3.679   5.141
 3990SOL     OW12421   3.702   2.033   4.691
 3990SOL    HW112422   3.732   1.946   4.665
 3990SOL    HW212423   3.616   2.042   4.651
 3991SOL     OW12424   3.073   3.456   3.760
 3991SOL    HW112425   3.033   3.371   3.781
 3991SOL    HW212426   3.031   3.482   3.678
 3992SOL     OW12427   3.354   3.493   3.768
 3992SOL    HW112428   3.261   3.475   3.757
 3992SOL    HW212429   3.388   3.497   3.679
 3993SOL     OW12430   2.225   3.169   5.221
 3993SOL    HW112431   2.218   3.240   5.157
 3993SOL    HW212432   2.148   3.115   5.205
 3994SOL     OW12433   3.463   3.138   5.009
 3994SOL    HW112434   3.533   3.133   5.074
 3994SOL    HW212435   3.409   3.212   5.037
 3995SOL     OW12436   2.487   3.410   4.193
 3995SOL    HW112437   2.498   3.336   4.133
 3995SOL    HW212438   2.395   3.436   4.184
 3996SOL     OW12439   3.587   2.254   5.105
 3996SOL    HW112440   3.660   2.316   5.105
 3996SOL    HW212441   3.615   2.183   5.048
 3997SOL     OW12442   2.121   3.172   4.013
 3997SOL    HW112443   2.036   3.199   3.979
 3997SOL    HW212444   2.129   3.218   4.097
 3998SOL     OW12445   1.973   2.890   5.449
 3998SOL    HW112446   1.896   2.863   5.500
 3998SOL    HW212447   2.047   2.849   5.494
 3999SOL     OW12448   2.537   2.056   5.213
 3999SOL    HW112449   2.623   2.032   5.179
 3999SOL    HW212450   2.554   2.080   5.305
 4000SOL     OW12451   1.918   2.186   3.786
 4000SOL    HW112452   1.851   2.182   3.717
 4000SOL    HW212453   1.977   2.256   3.758
 4001SOL     OW12454   3.285   2.722   5.122
 4001SOL    HW112455   3.226   2.734   5.048
 4001SOL    HW212456   3.372   2.731   5.085
 4002SOL     OW12457   1.928   2.018   4.026
 4002SOL    HW112458   1.905   2.088   3.965
 4002SOL    HW212459   2.013   1.986   3.996
 4003SOL     OW12460   3.345   3.635   4.702
 4003SOL    HW112461   3.364   3.700   4.634
 4003SOL    HW212462   3.430   3.621   4.745
 4004SOL     OW12463   3.335   3.061   5.355
 4004SOL    HW112464   3.323   3.075   5.449
 4004SOL    HW212465   3.428   3.078   5.340
 4005SOL     OW12466   2.237   3.601   5.290
 4005SOL    HW112467   2.154   3.645   5.274
 4005SOL    HW212468   2.213   3.518   5.331
 4006SOL     OW12469   3.521   2.746   4.983
 4006SOL    HW112470   3.525   2.656   4.950
 4006SOL    HW212471   3.526   2.801   4.904
 4007SOL     OW12472   3.621   2.226   5.377
 4007SOL    HW112473   3.606   2.240   5.283
 4007SOL    HW212474   3.549   2.168   5.403
 4008SOL     OW12475   3.606   2.797   5.238
 4008SOL    HW112476   3.604   2.891   5.251
 4008SOL    HW212477   3.588   2.785   5.144
 4009SOL     OW12478   2.523   3.652   4.668
 4009SOL    HW112479   2.503   3.743   4.646
 4009SOL    HW212480   2.619   3.647   4.661
 4010SOL     OW12481   3.714   3.417   4.566
 4010SOL    HW112482   3.637   3.403   4.511
 4010SOL    HW212483   3.708   3.348   4.633
 4011SOL     OW12484   2.087   3.164   5.580
 4011SOL    HW112485   2.021   3.102   5.549
 4011SOL    HW212486   2.067   3.176   5.673
 4012SOL     OW12487   1.941   3.107   4.395
 4012SOL    HW112488   1.920   3.046   4.465
 4012SOL    HW212489   2.003   3.059   4.340
 4013SOL     OW12490   2.545   3.267   5.352
 4013SOL    HW112491   2.464   3.225   5.380
 4013SOL    HW212492   2.541   3.355   5.388
 4014SOL     OW12493   3.674   2.045   4.961
 4014SOL    HW112494   3.682   1.951   4.975
 4014SOL    HW212495   3.683   2.057   4.867
 4015SOL     OW12496   3.560   3.350   4.820
 4015SOL    HW112497   3.480   3.324   4.774
 4015SOL    HW212498   3.575   3.280   4.884
 4016SOL     OW12499   2.680   3.468   4.397
 4016SOL    HW112500   2.689   3.547   4.344
 4016SOL    HW212501   2.613   3.416   4.353
 4017SOL     OW12502   3.294   2.112   4.831
 4017SOL    HW112503   3.308   2.021   4.856
 4017SOL    HW212504   3.234   2.146   4.897
 4018SOL     OW12505   2.863   1.861   4.880
 4018SOL    HW112506   2.819   1.815   4.808
 4018SOL    HW212507   2.954   1.832   4.875
 4019SOL     OW12508   2.648   3.218   4.033
 4019SOL    HW112509   2.622   3.127   4.050
 4019SOL    HW212510   2.737   3.224   4.068
 4020SOL     OW12511   2.482   3.425   5.007
 4020SOL    HW112512   2.479   3.507   5.057
 4020SOL    HW212513   2.574   3.415   4.982
 4021SOL     OW12514   3.213   1.920   3.892
 4021SOL    HW112515   3.242   1.853   3.830
 4021SOL    HW212516   3.125   1.893   3.918
 4022SOL     OW12517   3.446   2.058   4.603
 4022SOL    HW112518   3.389   2.089   4.674
 4022SOL    HW212519   3.453   2.133   4.544
 4023SOL     OW12520   1.892   2.938   4.037
 4023SOL    HW112521   1.971   2.937   3.983
 4023SOL    HW212522   1.873   2.846   4.055
 4024SOL     OW12523   2.736   3.553   4.042
 4024SOL    HW112524   2.659   3.522   3.995
 4024SOL    HW212525   2.701   3.609   4.112
 4025SOL     OW12526   2.091   2.481   5.710
 4025SOL    HW112527   2.002   2.484   5.747
 4025SOL    HW212528   2.078   2.457   5.618
 4026SOL     OW12529   2.087   2.143   6.578
 4026SOL    HW112530   2.114   2.108   6.662
 4026SOL    HW212531   1.997   2.112   6.567
 4027SOL     OW12532   1.863   2.244   6.224
 4027SOL    HW112533   1.782   2.271   6.266
 4027SOL    HW212534   1.840   2.166   6.175
 4028SOL     OW12535   2.425   3.153   6.763
 4028SOL    HW112536   2.339   3.164   6.722
 4028SOL    HW212537   2.445   3.238   6.801
 4029SOL     OW12538   3.426   3.374   6.294
 4029SOL    HW112539   3.384   3.354   6.377
 4029SOL    HW212540   3.354   3.379   6.231
 4030SOL     OW12541   3.016   2.537   6.302
 4030SOL    HW112542   3.042   2.628   6.288
 4030SOL    HW212543   2.943   2.542   6.365
 4031SOL     OW12544   3.631   2.465   5.814
 4031SOL    HW112545   3.609   2.458   5.721
 4031SOL    HW212546   3.595   2.386   5.853
 4032SOL     OW12547   2.641   3.028   6.644
 4032SOL    HW112548   2.559   3.044   6.689
 4032SOL    HW212549   2.657   3.108   6.593
 4033SOL     OW12550   2.578   3.016   7.395
 4033SOL    HW112551   2.625   3.094   7.424
 4033SOL    HW212552   2.496   3.050   7.358
 4034SOL     OW12553   2.190   3.287   6.653
 4034SOL    HW112554   2.119   3.247   6.603
 4034SOL    HW212555   2.240   3.336   6.588
 4035SOL     OW12556   3.321   3.362   6.944
 4035SOL    HW112557   3.374   3.442   6.954
 4035SOL    HW212558   3.254   3.369   7.012
 4036SOL     OW12559   2.313   2.265   7.087
 4036SOL    HW112560   2.390   2.209   7.081
 4036SOL    HW212561   2.239   2.205   7.095
 4037SOL     OW12562   3.472   2.307   6.328
 4037SOL    HW112563   3.395   2.326   6.273
 4037SOL    HW212564   3.480   2.384   6.385
 4038SOL     OW12565   2.081   3.577   6.056
 4038SOL    HW112566   2.102   3.653   6.111
 4038SOL    HW212567   2.156   3.570   5.997
 4039SOL     OW12568   2.999   3.202   7.278
 4039SOL    HW112569   3.036   3.200   7.367
 4039SOL    HW212570   2.948   3.121   7.271
 4040SOL     OW12571   2.091   3.305   6.121
 4040SOL    HW112572   2.075   3.399   6.124
 4040SOL    HW212573   2.034   3.268   6.188
 4041SOL     OW12574   2.117   2.952   6.473
 4041SOL    HW112575   2.113   2.867   6.516
 4041SOL    HW212576   2.064   3.009   6.529
 4042SOL     OW12577   2.469   3.656   7.013
 4042SOL    HW112578   2.388   3.637   7.061
 4042SOL    HW212579   2.492   3.745   7.040
 4043SOL     OW12580   2.428   2.862   5.712
 4043SOL    HW112581   2.476   2.919   5.651
 4043SOL    HW212582   2.485   2.855   5.789
 4044SOL     OW12583   3.458   1.987   7.052
 4044SOL    HW112584   3.473   2.069   7.004
 4044SOL    HW212585   3.440   2.015   7.142
 4045SOL     OW12586   1.978   2.513   6.148
 4045SOL    HW112587   1.944   2.427   6.170
 4045SOL    HW212588   1.969   2.564   6.229
 4046SOL     OW12589   3.705   3.619   5.919
 4046SOL    HW112590   3.772   3.592   5.982
 4046SOL    HW212591   3.726   3.710   5.900
 4047SOL     OW12592   1.897   3.455   5.709
 4047SOL    HW112593   1.879   3.363   5.729
 4047SOL    HW212594   1.872   3.502   5.788
 4048SOL     OW12595   3.551   2.780   6.229
 4048SOL    HW112596   3.634   2.737   6.209
 4048SOL    HW212597   3.530   2.830   6.150
 4049SOL     OW12598   3.509   2.967   6.015
 4049SOL    HW112599   3.596   2.970   5.973
 4049SOL    HW212600   3.516   3.030   6.087
 4050SOL     OW12601   1.971   2.603   7.173
 4050SOL    HW112602   2.064   2.626   7.178
 4050SOL    HW212603   1.925   2.686   7.179
 4051SOL     OW12604   2.481   3.250   6.321
 4051SOL    HW112605   2.436   3.166   6.332
 4051SOL    HW212606   2.460   3.277   6.231
 4052SOL     OW12607   3.150   3.098   7.011
 4052SOL    HW112608   3.182   3.031   6.950
 4052SOL    HW212609   3.209   3.092   7.085
 4053SOL     OW12610   2.677   1.856   6.099
 4053SOL    HW112611   2.722   1.937   6.075
 4053SOL    HW212612   2.584   1.880   6.104
 4054SOL     OW12613   2.041   2.831   6.858
 4054SOL    HW112614   2.125   2.787   6.848
 4054SOL    HW212615   1.980   2.778   6.808
 4055SOL     OW12616   3.394   2.858   5.785
 4055SOL    HW112617   3.329   2.795   5.818
 4055SOL    HW212618   3.435   2.893   5.864
 4056SOL     OW12619   3.048   3.671   7.210
 4056SOL    HW112620   3.054   3.730   7.134
 4056SOL    HW212621   3.063   3.584   7.173
 4057SOL     OW12622   2.196   2.108   7.404
 4057SOL    HW112623   2.238   2.193   7.415
 4057SOL    HW212624   2.105   2.122   7.431
 4058SOL     OW12625   3.330   3.282   6.537
 4058SOL    HW112626   3.262   3.298   6.602
 4058SOL    HW212627   3.317   3.191   6.511
 4059SOL     OW12628   3.518   3.607   6.164
 4059SOL    HW112629   3.500   3.576   6.075
 4059SOL    HW212630   3.495   3.533   6.221
 4060SOL     OW12631   3.143   2.217   6.519
 4060SOL    HW112632   3.053   2.184   6.528
 4060SOL    HW212633   3.194   2.164   6.580
 4061SOL     OW12634   3.442   3.533   5.896
 4061SOL    HW112635   3.533   3.562   5.888
 4061SOL    HW212636   3.414   3.517   5.805
 4062SOL     OW12637   3.258   2.337   7.260
 4062SOL    HW112638   3.258   2.381   7.345
 4062SOL    HW212639   3.315   2.261   7.273
 4063SOL     OW12640   2.852   2.273   6.836
 4063SOL    HW112641   2.763   2.288   6.868
 4063SOL    HW212642   2.840   2.246   6.745
 4064SOL     OW12643   1.949   2.683   6.362
 4064SOL    HW112644   2.029   2.677   6.414
 4064SOL    HW212645   1.904   2.761   6.396
 4065SOL     OW12646   1.987   3.723   7.168
 4065SOL    HW112647   1.990   3.699   7.260
 4065SOL    HW212648   1.900   3.696   7.139
 4066SOL     OW12649   2.748   2.190   5.724
 4066SOL    HW112650   2.801   2.254   5.676
 4066SOL    HW212651   2.798   2.108   5.718
 4067SOL     OW12652   3.570   2.436   7.416
 4067SOL    HW112653   3.532   2.509   7.368
 4067SOL    HW212654   3.597   2.373   7.349
 4068SOL     OW12655   3.236   2.998   6.122
 4068SOL    HW112656   3.319   2.992   6.076
 4068SOL    HW212657   3.187   3.066   6.076
 4069SOL     OW12658   2.410   2.034   6.476
 4069SOL    HW112659   2.411   2.061   6.568
 4069SOL    HW212660   2.409   2.116   6.427
 4070SOL     OW12661   2.863   3.304   6.056
 4070SOL    HW112662   2.831   3.380   6.006
 4070SOL    HW212663   2.844   3.326   6.147
 4071SOL     OW12664   2.217   3.673   6.452
 4071SOL    HW112665   2.260   3.588   6.458
 4071SOL    HW212666   2.286   3.736   6.471
 4072SOL     OW12667   3.662   2.915   6.456
 4072SOL    HW112668   3.608   2.897   6.379
 4072SOL    HW212669   3.599   2.922   6.528
 4073SOL     OW12670   3.089   3.400   7.098
 4073SOL    HW112671   3.077   3.329   7.161
 4073SOL    HW212672   3.023   3.383   7.030
 4074SOL     OW12673   2.173   2.827   5.837
 4074SOL    HW112674   2.253   2.848   5.789
 4074SOL    HW212675   2.149   2.739   5.807
 4075SOL     OW12676   3.338   2.613   6.312
 4075SOL    HW112677   3.335   2.567   6.396
 4075SOL    HW212678   3.418   2.665   6.315
 4076SOL     OW12679   2.329   3.128   7.324
 4076SOL    HW112680   2.302   3.133   7.232
 4076SOL    HW212681   2.247   3.124   7.373
 4077SOL     OW12682   2.985   3.640   5.816
 4077SOL    HW112683   2.910   3.600   5.860
 4077SOL    HW212684   3.009   3.577   5.747
 4078SOL     OW12685   2.064   2.140   7.089
 4078SOL    HW112686   1.981   2.188   7.086
 4078SOL    HW212687   2.045   2.061   7.139
 4079SOL     OW12688   3.490   3.242   5.674
 4079SOL    HW112689   3.449   3.327   5.660
 4079SOL    HW212690   3.421   3.179   5.654
 4080SOL     OW12691   2.327   3.598   5.906
 4080SOL    HW112692   2.370   3.655   5.970
 4080SOL    HW212693   2.398   3.566   5.851
 4081SOL     OW12694   3.263   1.969   6.021
 4081SOL    HW112695   3.254   1.943   5.930
 4081SOL    HW212696   3.357   1.974   6.036
 4082SOL     OW12697   2.118   3.652   6.816
 4082SOL    HW112698   2.170   3.585   6.861
 4082SOL    HW212699   2.111   3.620   6.726
 4083SOL     OW12700   2.798   3.564   6.483
 4083SOL    HW112701   2.870   3.510   6.514
 4083SOL    HW212702   2.756   3.512   6.414
 4084SOL     OW12703   2.249   2.550   6.055
 4084SOL    HW112704   2.277   2.462   6.080
 4084SOL    HW212705   2.156   2.554   6.079
 4085SOL     OW12706   3.394   2.086   7.311
 4085SOL    HW112707   3.404   2.107   7.404
 4085SOL    HW212708   3.324   2.021   7.309
 4086SOL     OW12709   2.480   1.971   5.706
 4086SOL    HW112710   2.568   1.933   5.706
 4086SOL    HW212711   2.444   1.949   5.620
 4087SOL     OW12712   2.620   2.117   7.333
 4087SOL    HW112713   2.703   2.070   7.338
 4087SOL    HW212714   2.597   2.137   7.424
 4088SOL     OW12715   2.739   3.389   6.781
 4088SOL    HW112716   2.720   3.351   6.695
 4088SOL    HW212717   2.804   3.330   6.819
 4089SOL     OW12718   3.211   2.452   7.013
 4089SOL    HW112719   3.239   2.420   7.099
 4089SOL    HW212720   3.247   2.540   7.007
 4090SOL     OW12721   2.679   3.272   6.524
 4090SOL    HW112722   2.763   3.252   6.483
 4090SOL    HW212723   2.615   3.265   6.454
 4091SOL     OW12724   2.787   2.352   6.492
 4091SOL    HW112725   2.767   2.336   6.400
 4091SOL    HW212726   2.827   2.271   6.522
 4092SOL     OW12727   2.412   1.927   6.085
 4092SOL    HW112728   2.332   1.926   6.137
 4092SOL    HW212729   2.405   2.005   6.031
 4093SOL     OW12730   3.289   3.061   5.626
 4093SOL    HW112731   3.319   2.986   5.677
 4093SOL    HW212732   3.203   3.083   5.663
 4094SOL     OW12733   2.154   1.910   5.772
 4094SOL    HW112734   2.212   1.969   5.725
 4094SOL    HW212735   2.213   1.847   5.813
 4095SOL     OW12736   2.812   2.091   6.053
 4095SOL    HW112737   2.771   2.164   6.008
 4095SOL    HW212738   2.906   2.109   6.048
 4096SOL     OW12739   2.940   2.511   7.057
 4096SOL    HW112740   2.901   2.432   7.021
 4096SOL    HW212741   3.034   2.501   7.043
 4097SOL     OW12742   3.089   3.428   6.376
 4097SOL    HW112743   3.101   3.498   6.312
 4097SOL    HW212744   3.152   3.449   6.446
 4098SOL     OW12745   2.330   3.021   6.317
 4098SOL    HW112746   2.261   2.997   6.379
 4098SOL    HW212747   2.296   2.997   6.231
 4099SOL     OW12748   3.129   3.655   6.196
 4099SOL    HW112749   3.176   3.716   6.140
 4099SOL    HW212750   3.061   3.707   6.238
 4100SOL     OW12751   2.906   2.389   5.612
 4100SOL    HW112752   2.838   2.456   5.622
 4100SOL    HW212753   2.964   2.403   5.687
 4101SOL     OW12754   1.944   2.416   6.976
 4101SOL    HW112755   2.037   2.416   6.954
 4101SOL    HW212756   1.936   2.486   7.042
 4102SOL     OW12757   2.416   2.074   6.747
 4102SOL    HW112758   2.459   2.001   6.792
 4102SOL    HW212759   2.327   2.073   6.780
 4103SOL     OW12760   2.731   2.289   6.242
 4103SOL    HW112761   2.708   2.355   6.176
 4103SOL    HW212762   2.757   2.213   6.191
 4104SOL     OW12763   2.879   1.916   6.336
 4104SOL    HW112764   2.822   1.910   6.260
 4104SOL    HW212765   2.854   1.840   6.390
 4105SOL     OW12766   3.303   3.024   6.444
 4105SOL    HW112767   3.231   2.961   6.442
 4105SOL    HW212768   3.330   3.034   6.353
 4106SOL     OW12769   3.329   2.469   6.557
 4106SOL    HW112770   3.274   2.390   6.561
 4106SOL    HW212771   3.387   2.461   6.633
 4107SOL     OW12772   3.705   2.676   5.969
 4107SOL    HW112773   3.762   2.626   6.028
 4107SOL    HW212774   3.678   2.613   5.902
 4108SOL     OW12775   2.354   3.279   5.741
 4108SOL    HW112776   2.277   3.252   5.792
 4108SOL    HW212777   2.343   3.235   5.657
 4109SOL     OW12778   3.533   3.125   6.230
 4109SOL    HW112779   3.627   3.126   6.244
 4109SOL    HW212780   3.504   3.215   6.251
 4110SOL     OW12781   3.257   2.433   5.657
 4110SOL    HW112782   3.197   2.411   5.727
 4110SOL    HW212783   3.342   2.402   5.687
 4111SOL     OW12784   2.386   2.132   5.907
 4111SOL    HW112785   2.424   2.077   5.838
 4111SOL    HW212786   2.364   2.214   5.862
 4112SOL     OW12787   3.613   3.103   7.154
 4112SOL    HW112788   3.701   3.064   7.149
 4112SOL    HW212789   3.628   3.193   7.183
 4113SOL     OW12790   2.924   3.223   6.920
 4113SOL    HW112791   2.846   3.190   6.966
 4113SOL    HW212792   2.997   3.176   6.961
 4114SOL     OW12793   3.471   3.489   7.240
 4114SOL    HW112794   3.464   3.522   7.151
 4114SOL    HW212795   3.554   3.439   7.241
 4115SOL     OW12796   2.993   3.066   6.688
 4115SOL    HW112797   2.927   3.088   6.754
 4115SOL    HW212798   2.957   3.098   6.606
 4116SOL     OW12799   3.489   2.959   6.663
 4116SOL    HW112800   3.484   3.022   6.735
 4116SOL    HW212801   3.411   2.979   6.610
 4117SOL     OW12802   2.780   1.956   6.979
 4117SOL    HW112803   2.803   1.938   6.888
 4117SOL    HW212804   2.859   1.996   7.016
 4118SOL     OW12805   2.849   2.966   7.308
 4118SOL    HW112806   2.759   2.987   7.331
 4118SOL    HW212807   2.844   2.928   7.221
 4119SOL     OW12808   2.262   2.676   6.842
 4119SOL    HW112809   2.354   2.684   6.868
 4119SOL    HW212810   2.239   2.586   6.864
 4120SOL     OW12811   3.127   2.237   6.863
 4120SOL    HW112812   3.162   2.315   6.907
 4120SOL    HW212813   3.036   2.259   6.845
 4121SOL     OW12814   1.936   3.436   6.941
 4121SOL    HW112815   1.908   3.508   6.885
 4121SOL    HW212816   2.031   3.435   6.934
 4122SOL     OW12817   2.213   2.972   6.073
 4122SOL    HW112818   2.207   3.047   6.014
 4122SOL    HW212819   2.203   2.895   6.016
 4123SOL     OW12820   2.412   2.380   6.458
 4123SOL    HW112821   2.406   2.394   6.363
 4123SOL    HW212822   2.506   2.381   6.477
 4124SOL     OW12823   3.109   3.210   5.978
 4124SOL    HW112824   3.165   3.283   6.007
 4124SOL    HW212825   3.022   3.233   6.010
 4125SOL     OW12826   3.146   3.321   6.732
 4125SOL    HW112827   3.200   3.323   6.811
 4125SOL    HW212828   3.084   3.249   6.747
 4126SOL     OW12829   3.440   2.484   6.067
 4126SOL    HW112830   3.393   2.536   6.132
 4126SOL    HW212831   3.488   2.548   6.014
 4127SOL     OW12832   2.208   3.391   6.899
 4127SOL    HW112833   2.196   3.348   6.814
 4127SOL    HW212834   2.303   3.402   6.907
 4128SOL     OW12835   2.247   2.598   7.181
 4128SOL    HW112836   2.314   2.657   7.150
 4128SOL    HW212837   2.291   2.513   7.188
 4129SOL     OW12838   3.466   2.642   7.271
 4129SOL    HW112839   3.380   2.683   7.264
 4129SOL    HW212840   3.519   2.684   7.202
 4130SOL     OW12841   2.863   1.990   7.344
 4130SOL    HW112842   2.918   2.063   7.316
 4130SOL    HW212843   2.910   1.912   7.316
 4131SOL     OW12844   2.359   1.897   7.336
 4131SOL    HW112845   2.314   1.845   7.269
 4131SOL    HW212846   2.303   1.974   7.348
 4132SOL     OW12847   3.223   2.721   6.614
 4132SOL    HW112848   3.144   2.710   6.561
 4132SOL    HW212849   3.268   2.637   6.610
 4133SOL     OW12850   3.062   2.389   5.852
 4133SOL    HW112851   3.064   2.308   5.903
 4133SOL    HW212852   3.068   2.458   5.918
 4134SOL     OW12853   2.158   2.060   6.834
 4134SOL    HW112854   2.122   2.092   6.916
 4134SOL    HW212855   2.139   1.966   6.834
 4135SOL     OW12856   1.906   3.174   6.861
 4135SOL    HW112857   1.940   3.118   6.931
 4135SOL    HW212858   1.914   3.263   6.895
 4136SOL     OW12859   3.600   2.821   7.441
 4136SOL    HW112860   3.553   2.757   7.387
 4136SOL    HW212861   3.541   2.838   7.515
 4137SOL     OW12862   2.167   1.926   6.210
 4137SOL    HW112863   2.145   2.016   6.232
 4137SOL    HW212864   2.175   1.882   6.294
 4138SOL     OW12865   3.481   2.238   5.950
 4138SOL    HW112866   3.508   2.173   6.015
 4138SOL    HW212867   3.458   2.315   6.002
 4139SOL     OW12868   2.844   3.428   7.304
 4139SOL    HW112869   2.828   3.472   7.221
 4139SOL    HW212870   2.887   3.346   7.280
 4140SOL     OW12871   3.716   3.365   7.190
 4140SOL    HW112872   3.735   3.392   7.101
 4140SOL    HW212873   3.796   3.381   7.239
 4141SOL     OW12874   2.211   2.780   7.396
 4141SOL    HW112875   2.291   2.804   7.443
 4141SOL    HW212876   2.238   2.709   7.337
 4142SOL     OW12877   3.388   2.136   5.713
 4142SOL    HW112878   3.325   2.069   5.740
 4142SOL    HW212879   3.423   2.170   5.795
 4143SOL     OW12880   3.152   2.685   5.613
 4143SOL    HW112881   3.194   2.599   5.616
 4143SOL    HW212882   3.184   2.724   5.532
 4144SOL     OW12883   2.927   3.202   6.437
 4144SOL    HW112884   2.932   3.132   6.372
 4144SOL    HW212885   2.989   3.269   6.405
 4145SOL     OW12886   2.165   2.672   6.535
 4145SOL    HW112887   2.254   2.705   6.546
 4145SOL    HW212888   2.167   2.584   6.573
 4146SOL     OW12889   2.188   2.389   6.607
 4146SOL    HW112890   2.151   2.302   6.590
 4146SOL    HW212891   2.268   2.392   6.554
 4147SOL     OW12892   3.001   2.229   7.266
 4147SOL    HW112893   2.954   2.282   7.331
 4147SOL    HW212894   3.086   2.273   7.258
 4148SOL     OW12895   3.024   2.059   7.054
 4148SOL    HW112896   3.013   2.120   7.126
 4148SOL    HW212897   3.065   2.111   6.984
 4149SOL     OW12898   1.868   3.181   5.781
 4149SOL    HW112899   1.781   3.196   5.744
 4149SOL    HW212900   1.864   3.092   5.815
 4150SOL     OW12901   1.952   3.647   6.525
 4150SOL    HW112902   1.922   3.568   6.480
 4150SOL    HW212903   2.042   3.660   6.494
 4151SOL     OW12904   2.356   3.436   6.490
 4151SOL    HW112905   2.425   3.497   6.516
 4151SOL    HW212906   2.401   3.371   6.435
 4152SOL     OW12907   1.897   2.407   6.703
 4152SOL    HW112908   1.979   2.401   6.654
 4152SOL    HW212909   1.925   2.410   6.795
 4153SOL     OW12910   2.051   2.381   7.314
 4153SOL    HW112911   2.102   2.338   7.245
 4153SOL    HW212912   2.010   2.455   7.271
 4154SOL     OW12913   3.240   2.798   7.244
 4154SOL    HW112914   3.262   2.891   7.242
 4154SOL    HW212915   3.237   2.772   7.152
 4155SOL     OW12916   2.703   2.319   5.959
 4155SOL    HW112917   2.706   2.283   5.870
 4155SOL    HW212918   2.626   2.375   5.960
 4156SOL     OW12919   3.503   2.464   6.768
 4156SOL    HW112920   3.492   2.406   6.844
 4156SOL    HW212921   3.590   2.444   6.736
 4157SOL     OW12922   2.101   3.412   7.311
 4157SOL    HW112923   2.081   3.476   7.379
 4157SOL    HW212924   2.108   3.329   7.358
 4158SOL     OW12925   2.551   2.292   6.850
 4158SOL    HW112926   2.502   2.220   6.810
 4158SOL    HW212927   2.568   2.353   6.778
 4159SOL     OW12928   2.786   3.542   7.056
 4159SOL    HW112929   2.763   3.502   6.973
 4159SOL    HW212930   2.779   3.637   7.040
 4160SOL     OW12931   2.328   2.367   5.782
 4160SOL    HW112932   2.375   2.448   5.802
 4160SOL    HW212933   2.238   2.395   5.765
 4161SOL     OW12934   2.003   3.005   7.060
 4161SOL    HW112935   2.006   2.955   7.141
 4161SOL    HW212936   2.019   2.941   6.991
 4162SOL     OW12937   3.187   2.908   6.808
 4162SOL    HW112938   3.210   2.845   6.740
 4162SOL    HW212939   3.119   2.963   6.769
 4163SOL     OW12940   3.177   2.708   5.887
 4163SOL    HW112941   3.097   2.742   5.928
 4163SOL    HW212942   3.155   2.702   5.794
 4164SOL     OW12943   3.636   3.603   6.738
 4164SOL    HW112944   3.697   3.629   6.669
 4164SOL    HW212945   3.612   3.513   6.716
 4165SOL     OW12946   3.102   3.595   6.695
 4165SOL    HW112947   3.185   3.617   6.652
 4165SOL    HW212948   3.110   3.502   6.715
 4166SOL     OW12949   1.946   3.129   6.596
 4166SOL    HW112950   1.932   3.143   6.690
 4166SOL    HW212951   1.874   3.073   6.569
 4167SOL     OW12952   2.540   3.529   7.318
 4167SOL    HW112953   2.486   3.608   7.312
 4167SOL    HW212954   2.609   3.542   7.253
 4168SOL     OW12955   3.582   2.012   6.093
 4168SOL    HW112956   3.654   1.997   6.032
 4168SOL    HW212957   3.566   1.927   6.133
 4169SOL     OW12958   3.253   3.430   6.072
 4169SOL    HW112959   3.313   3.464   6.006
 4169SOL    HW212960   3.204   3.506   6.102
 4170SOL     OW12961   1.999   3.658   7.430
 4170SOL    HW112962   1.948   3.593   7.479
 4170SOL    HW212963   2.047   3.706   7.498
 4171SOL     OW12964   3.130   2.788   6.259
 4171SOL    HW112965   3.203   2.726   6.267
 4171SOL    HW212966   3.165   2.859   6.206
 4172SOL     OW12967   2.690   3.144   7.023
 4172SOL    HW112968   2.642   3.188   7.093
 4172SOL    HW212969   2.621   3.107   6.967
 4173SOL     OW12970   2.532   3.484   5.741
 4173SOL    HW112971   2.543   3.498   5.647
 4173SOL    HW212972   2.477   3.406   5.748
 4174SOL     OW12973   3.485   3.589   6.977
 4174SOL    HW112974   3.536   3.595   6.896
 4174SOL    HW212975   3.471   3.680   7.003
 4175SOL     OW12976   3.704   2.034   6.552
 4175SOL    HW112977   3.732   1.946   6.526
 4175SOL    HW212978   3.617   2.043   6.512
 4176SOL     OW12979   2.121   2.179   6.302
 4176SOL    HW112980   2.034   2.212   6.278
 4176SOL    HW212981   2.118   2.170   6.397
 4177SOL     OW12982   3.070   3.466   5.618
 4177SOL    HW112983   3.059   3.375   5.644
 4177SOL    HW212984   3.004   3.479   5.549
 4178SOL     OW12985   3.352   3.487   5.629
 4178SOL    HW112986   3.258   3.481   5.615
 4178SOL    HW212987   3.390   3.494   5.541
 4179SOL     OW12988   2.228   3.167   7.080
 4179SOL    HW112989   2.218   3.242   7.021
 4179SOL    HW212990   2.151   3.113   7.063
 4180SOL     OW12991   3.473   3.146   6.866
 4180SOL    HW112992   3.530   3.132   6.942
 4180SOL    HW212993   3.411   3.213   6.896
 4181SOL     OW12994   2.914   2.970   6.290
 4181SOL    HW112995   2.842   2.925   6.334
 4181SOL    HW212996   2.979   2.902   6.274
 4182SOL     OW12997   2.889   2.099   6.553
 4182SOL    HW112998   2.884   2.051   6.471
 4182SOL    HW212999   2.882   2.032   6.621
 4183SOL     OW13000   2.464   3.354   6.066
 4183SOL    HW113001   2.512   3.307   5.998
 4183SOL    HW213002   2.391   3.396   6.021
 4184SOL     OW13003   3.587   2.254   6.967
 4184SOL    HW113004   3.658   2.317   6.966
 4184SOL    HW213005   3.616   2.183   6.910
 4185SOL     OW13006   2.123   3.205   5.876
 4185SOL    HW113007   2.030   3.202   5.853
 4185SOL    HW213008   2.124   3.244   5.964
 4186SOL     OW13009   1.973   2.887   7.305
 4186SOL    HW113010   1.898   2.863   7.359
 4186SOL    HW213011   2.048   2.849   7.351
 4187SOL     OW13012   2.533   2.052   7.081
 4187SOL    HW113013   2.618   2.037   7.041
 4187SOL    HW213014   2.553   2.079   7.171
 4188SOL     OW13015   1.941   2.194   5.622
 4188SOL    HW113016   1.854   2.174   5.588
 4188SOL    HW213017   1.970   2.268   5.570
 4189SOL     OW13018   3.291   2.721   6.985
 4189SOL    HW113019   3.242   2.782   6.931
 4189SOL    HW213020   3.380   2.724   6.950
 4190SOL     OW13021   1.929   2.017   5.892
 4190SOL    HW113022   1.915   2.096   5.840
 4190SOL    HW213023   2.014   1.984   5.864
 4191SOL     OW13024   3.041   3.200   5.703
 4191SOL    HW113025   2.950   3.170   5.704
 4191SOL    HW213026   3.067   3.200   5.795
 4192SOL     OW13027   3.345   3.641   6.567
 4192SOL    HW113028   3.368   3.704   6.498
 4192SOL    HW213029   3.429   3.620   6.608
 4193SOL     OW13030   3.335   3.058   7.218
 4193SOL    HW113031   3.322   3.073   7.311
 4193SOL    HW213032   3.428   3.076   7.203
 4194SOL     OW13033   2.238   3.602   7.151
 4194SOL    HW113034   2.153   3.645   7.137
 4194SOL    HW213035   2.215   3.518   7.191
 4195SOL     OW13036   3.530   2.743   6.841
 4195SOL    HW113037   3.525   2.657   6.798
 4195SOL    HW213038   3.520   2.806   6.770
 4196SOL     OW13039   3.080   2.180   6.042
 4196SOL    HW113040   3.142   2.107   6.034
 4196SOL    HW213041   3.109   2.228   6.119
 4197SOL     OW13042   3.621   2.225   7.239
 4197SOL    HW113043   3.606   2.241   7.146
 4197SOL    HW213044   3.549   2.168   7.265
 4198SOL     OW13045   3.609   2.795   7.098
 4198SOL    HW113046   3.601   2.889   7.112
 4198SOL    HW213047   3.593   2.783   7.004
 4199SOL     OW13048   2.735   3.236   5.625
 4199SOL    HW113049   2.692   3.267   5.705
 4199SOL    HW213050   2.749   3.316   5.574
 4200SOL     OW13051   2.523   3.651   6.527
 4200SOL    HW113052   2.505   3.742   6.506
 4200SOL    HW213053   2.618   3.642   6.522
 4201SOL     OW13054   2.961   2.866   5.676
 4201SOL    HW113055   2.927   2.906   5.596
 4201SOL    HW213056   3.025   2.802   5.646
 4202SOL     OW13057   3.713   3.415   6.429
 4202SOL    HW113058   3.634   3.404   6.377
 4202SOL    HW213059   3.704   3.352   6.500
 4203SOL     OW13060   2.087   3.164   7.442
 4203SOL    HW113061   2.022   3.101   7.411
 4203SOL    HW213062   2.066   3.176   7.535
 4204SOL     OW13063   1.947   3.093   6.253
 4204SOL    HW113064   1.957   3.047   6.336
 4204SOL    HW213065   2.016   3.056   6.197
 4205SOL     OW13066   2.540   3.268   7.213
 4205SOL    HW113067   2.462   3.225   7.246
 4205SOL    HW213068   2.538   3.356   7.252
 4206SOL     OW13069   3.675   2.045   6.823
 4206SOL    HW113070   3.682   1.951   6.836
 4206SOL    HW213071   3.684   2.057   6.729
 4207SOL     OW13072   2.310   2.294   6.132
 4207SOL    HW113073   2.329   2.231   6.062
 4207SOL    HW213074   2.244   2.250   6.185
 4208SOL     OW13075   3.562   3.349   6.679
 4208SOL    HW113076   3.481   3.329   6.632
 4208SOL    HW213077   3.569   3.281   6.745
 4209SOL     OW13078   2.199   2.415   6.885
 4209SOL    HW113079   2.253   2.357   6.938
 4209SOL    HW213080   2.211   2.384   6.795
 4210SOL     OW13081   2.693   3.440   6.259
 4210SOL    HW113082   2.670   3.499   6.187
 4210SOL    HW213083   2.617   3.382   6.266
 4211SOL     OW13084   3.294   2.088   6.704
 4211SOL    HW113085   3.316   2.006   6.749
 4211SOL    HW213086   3.242   2.137   6.768
 4212SOL     OW13087   2.871   1.878   6.725
 4212SOL    HW113088   2.817   1.811   6.684
 4212SOL    HW213089   2.959   1.840   6.728
 4213SOL     OW13090   2.637   3.206   5.902
 4213SOL    HW113091   2.615   3.113   5.893
 4213SOL    HW213092   2.717   3.207   5.953
 4214SOL     OW13093   2.480   3.421   6.870
 4214SOL    HW113094   2.484   3.503   6.919
 4214SOL    HW213095   2.569   3.409   6.836
 4215SOL     OW13096   3.216   1.915   5.753
 4215SOL    HW113097   3.247   1.847   5.693
 4215SOL    HW213098   3.128   1.886   5.777
 4216SOL     OW13099   3.169   2.315   6.265
 4216SOL    HW113100   3.118   2.396   6.272
 4216SOL    HW213101   3.162   2.275   6.352
 4217SOL     OW13102   3.448   2.060   6.466
 4217SOL    HW113103   3.390   2.083   6.538
 4217SOL    HW213104   3.447   2.138   6.410
 4218SOL     OW13105   1.905   2.930   5.893
 4218SOL    HW113106   1.998   2.921   5.872
 4218SOL    HW213107   1.877   2.842   5.916
 4219SOL     OW13108   2.750   3.518   5.925
 4219SOL    HW113109   2.675   3.502   5.867
 4219SOL    HW213110   2.721   3.592   5.980
 4220SOL     OW13111   2.092   2.476   7.572
 4220SOL    HW113112   2.004   2.492   7.606
 4220SOL    HW213113   2.078   2.456   7.479
 4221SOL     OW13114   3.629   2.459   7.679
 4221SOL    HW113115   3.609   2.455   7.585
 4221SOL    HW213116   3.590   2.379   7.715
 4222SOL     OW13117   2.082   3.580   7.919
 4222SOL    HW113118   2.111   3.617   8.003
 4222SOL    HW213119   2.162   3.578   7.865
 4223SOL     OW13120   2.076   3.302   7.991
 4223SOL    HW113121   2.060   3.396   7.987
 4223SOL    HW213122   2.022   3.271   8.063
 4224SOL     OW13123   2.426   2.866   7.569
 4224SOL    HW113124   2.481   2.910   7.504
 4224SOL    HW213125   2.465   2.888   7.653
 4225SOL     OW13126   3.700   3.619   7.796
 4225SOL    HW113127   3.773   3.590   7.852
 4225SOL    HW213128   3.724   3.708   7.771
 4226SOL     OW13129   1.893   3.460   7.578
 4226SOL    HW113130   1.878   3.367   7.593
 4226SOL    HW213131   1.866   3.503   7.659
 4227SOL     OW13132   3.543   2.723   8.032
 4227SOL    HW113133   3.621   2.735   0.006
 4227SOL    HW213134   3.530   2.808   7.990
 4228SOL     OW13135   3.518   2.957   7.880
 4228SOL    HW113136   3.605   2.985   7.851
 4228SOL    HW213137   3.485   3.031   7.931
 4229SOL     OW13138   2.666   1.860   7.943
 4229SOL    HW113139   2.713   1.940   7.920
 4229SOL    HW213140   2.574   1.886   7.946
 4230SOL     OW13141   3.395   2.856   7.651
 4230SOL    HW113142   3.329   2.796   7.684
 4230SOL    HW213143   3.438   2.890   7.729
 4231SOL     OW13144   3.436   3.535   7.757
 4231SOL    HW113145   3.527   3.561   7.765
 4231SOL    HW213146   3.423   3.522   7.663
 4232SOL     OW13147   1.919   2.724   0.086
 4232SOL    HW113148   1.990   2.664   0.112
 4232SOL    HW213149   1.919   2.791   0.154
 4233SOL     OW13150   2.752   2.201   7.639
 4233SOL    HW113151   2.791   2.271   7.587
 4233SOL    HW213152   2.792   2.121   7.607
 4234SOL     OW13153   2.175   2.825   7.696
 4234SOL    HW113154   2.255   2.838   7.646
 4234SOL    HW213155   2.147   2.736   7.673
 4235SOL     OW13156   2.988   3.637   7.681
 4235SOL    HW113157   2.910   3.599   7.721
 4235SOL    HW213158   3.013   3.576   7.612
 4236SOL     OW13159   3.490   3.243   7.535
 4236SOL    HW113160   3.448   3.328   7.521
 4236SOL    HW213161   3.421   3.179   7.517
 4237SOL     OW13162   2.327   3.602   7.769
 4237SOL    HW113163   2.379   3.652   7.832
 4237SOL    HW213164   2.392   3.562   7.712
 4238SOL     OW13165   3.280   1.997   7.864
 4238SOL    HW113166   3.268   1.962   7.776
 4238SOL    HW213167   3.375   1.996   7.878
 4239SOL     OW13168   2.240   2.545   7.897
 4239SOL    HW113169   2.241   2.453   7.926
 4239SOL    HW213170   2.174   2.586   7.952
 4240SOL     OW13171   2.483   1.973   7.569
 4240SOL    HW113172   2.566   1.925   7.572
 4240SOL    HW213173   2.445   1.950   7.485
 4241SOL     OW13174   2.395   1.938   7.959
 4241SOL    HW113175   2.308   1.940   7.998
 4241SOL    HW213176   2.393   2.009   7.894
 4242SOL     OW13177   3.290   3.061   7.490
 4242SOL    HW113178   3.319   2.986   7.542
 4242SOL    HW213179   3.203   3.082   7.524
 4243SOL     OW13180   2.155   1.911   7.633
 4243SOL    HW113181   2.212   1.970   7.584
 4243SOL    HW213182   2.214   1.847   7.673
 4244SOL     OW13183   2.801   2.092   7.903
 4244SOL    HW113184   2.766   2.146   7.831
 4244SOL    HW213185   2.892   2.123   7.912
 4245SOL     OW13186   2.286   3.049   0.088
 4245SOL    HW113187   2.206   3.054   0.141
 4245SOL    HW213188   2.255   3.020   0.002
 4246SOL     OW13189   3.155   3.676   8.014
 4246SOL    HW113190   3.192   3.745   7.958
 4246SOL    HW213191   3.066   3.705   8.033
 4247SOL     OW13192   2.908   2.380   7.481
 4247SOL    HW113193   2.867   2.466   7.485
 4247SOL    HW213194   2.974   2.382   7.550
 4248SOL     OW13195   3.738   2.675   7.803
 4248SOL    HW113196   3.716   2.657   7.894
 4248SOL    HW213197   3.698   2.603   7.754
 4249SOL     OW13198   2.349   3.280   7.602
 4249SOL    HW113199   2.274   3.252   7.655
 4249SOL    HW213200   2.340   3.232   7.519
 4250SOL     OW13201   3.257   2.433   7.517
 4250SOL    HW113202   3.196   2.412   7.588
 4250SOL    HW213203   3.341   2.400   7.548
 4251SOL     OW13204   2.384   2.133   7.771
 4251SOL    HW113205   2.426   2.079   7.704
 4251SOL    HW213206   2.366   2.216   7.728
 4252SOL     OW13207   2.564   2.941   7.821
 4252SOL    HW113208   2.509   2.956   7.898
 4252SOL    HW213209   2.578   2.846   7.819
 4253SOL     OW13210   2.229   2.969   7.920
 4253SOL    HW113211   2.203   3.045   7.867
 4253SOL    HW213212   2.214   2.894   7.863
 4254SOL     OW13213   3.083   3.218   7.822
 4254SOL    HW113214   3.143   3.290   7.843
 4254SOL    HW213215   3.053   3.187   7.907
 4255SOL     OW13216   3.450   2.487   7.921
 4255SOL    HW113217   3.446   2.550   7.993
 4255SOL    HW213218   3.484   2.538   7.847
 4256SOL     OW13219   3.066   2.386   7.712
 4256SOL    HW113220   3.063   2.308   7.767
 4256SOL    HW213221   3.070   2.459   7.773
 4257SOL     OW13222   3.483   2.242   7.811
 4257SOL    HW113223   3.505   2.176   7.876
 4257SOL    HW213224   3.458   2.319   7.863
 4258SOL     OW13225   3.390   2.136   7.575
 4258SOL    HW113226   3.325   2.072   7.600
 4258SOL    HW213227   3.423   2.172   7.657
 4259SOL     OW13228   3.155   2.688   7.480
 4259SOL    HW113229   3.194   2.601   7.479
 4259SOL    HW213230   3.184   2.728   7.398
 4260SOL     OW13231   1.869   3.186   7.640
 4260SOL    HW113232   1.781   3.199   7.603
 4260SOL    HW213233   1.868   3.096   7.673
 4261SOL     OW13234   2.330   2.367   7.644
 4261SOL    HW113235   2.377   2.445   7.673
 4261SOL    HW213236   2.241   2.398   7.626
 4262SOL     OW13237   3.165   2.703   7.752
 4262SOL    HW113238   3.083   2.741   7.782
 4262SOL    HW213239   3.156   2.698   7.657
 4263SOL     OW13240   3.575   2.012   7.944
 4263SOL    HW113241   3.651   2.006   7.886
 4263SOL    HW213242   3.579   1.933   7.998
 4264SOL     OW13243   3.223   3.440   7.894
 4264SOL    HW113244   3.299   3.460   7.838
 4264SOL    HW213245   3.193   3.526   7.925
 4265SOL     OW13246   2.527   3.485   7.603
 4265SOL    HW113247   2.541   3.497   7.509
 4265SOL    HW213248   2.474   3.405   7.609
 4266SOL     OW13249   3.072   3.467   7.478
 4266SOL    HW113250   3.060   3.376   7.506
 4266SOL    HW213251   3.005   3.481   7.411
 4267SOL     OW13252   3.354   3.490   7.489
 4267SOL    HW113253   3.259   3.481   7.476
 4267SOL    HW213254   3.390   3.495   7.400
 4268SOL     OW13255   2.477   3.375   7.935
 4268SOL    HW113256   2.522   3.315   7.875
 4268SOL    HW213257   2.394   3.395   7.891
 4269SOL     OW13258   2.121   3.206   7.744
 4269SOL    HW113259   2.029   3.204   7.717
 4269SOL    HW213260   2.119   3.243   7.832
 4270SOL     OW13261   1.939   2.191   7.483
 4270SOL    HW113262   1.853   2.173   7.445
 4270SOL    HW213263   1.971   2.268   7.436
 4271SOL     OW13264   1.929   2.018   7.754
 4271SOL    HW113265   1.914   2.094   7.697
 4271SOL    HW213266   2.013   1.982   7.724
 4272SOL     OW13267   3.036   3.201   7.556
 4272SOL    HW113268   2.948   3.164   7.555
 4272SOL    HW213269   3.059   3.206   7.649
 4273SOL     OW13270   3.074   2.182   7.901
 4273SOL    HW113271   3.149   2.123   7.893
 4273SOL    HW213272   3.087   2.227   7.984
 4274SOL     OW13273   2.725   3.229   7.484
 4274SOL    HW113274   2.688   3.258   7.568
 4274SOL    HW213275   2.745   3.311   7.438
 4275SOL     OW13276   2.964   2.877   7.547
 4275SOL    HW113277   2.925   2.910   7.466
 4275SOL    HW213278   3.024   2.808   7.519
 4276SOL     OW13279   2.249   2.284   7.988
 4276SOL    HW113280   2.296   2.235   7.920
 4276SOL    HW213281   2.301   2.271   8.067
 4277SOL     OW13282   2.631   3.208   7.763
 4277SOL    HW113283   2.604   3.116   7.766
 4277SOL    HW213284   2.716   3.210   7.807
 4278SOL     OW13285   3.216   1.914   7.611
 4278SOL    HW113286   3.247   1.845   7.553
 4278SOL    HW213287   3.129   1.886   7.638
 4279SOL     OW13288   1.915   2.940   7.748
 4279SOL    HW113289   2.009   2.929   7.731
 4279SOL    HW213290   1.883   2.851   7.763
 4280SOL     OW13291   2.756   3.516   7.779
 4280SOL    HW113292   2.680   3.491   7.727
 4280SOL    HW213293   2.722   3.577   7.844
 4281SOL     OW13294   2.076   4.346   0.124
 4281SOL    HW113295   1.997   4.310   0.163
 4281SOL    HW213296   2.099   4.284   0.054
 4282SOL     OW13297   2.087   4.007   0.992
 4282SOL    HW113298   2.115   3.971   1.077
 4282SOL    HW213299   1.997   3.974   0.982
 4283SOL     OW13300   1.864   4.108   0.638
 4283SOL    HW113301   1.782   4.134   0.680
 4283SOL    HW213302   1.841   4.028   0.590
 4284SOL     OW13303   2.430   5.009   1.183
 4284SOL    HW113304   2.345   5.007   1.138
 4284SOL    HW213305   2.442   5.102   1.206
 4285SOL     OW13306   3.420   5.234   0.687
 4285SOL    HW113307   3.400   5.230   0.781
 4285SOL    HW213308   3.341   5.269   0.646
 4286SOL     OW13309   2.994   4.422   0.699
 4286SOL    HW113310   3.042   4.503   0.685
 4286SOL    HW213311   2.946   4.435   0.781
 4287SOL     OW13312   3.633   4.323   0.232
 4287SOL    HW113313   3.591   4.328   0.146
 4287SOL    HW213314   3.594   4.247   0.274
 4288SOL     OW13315   2.614   4.866   1.041
 4288SOL    HW113316   2.548   4.899   1.102
 4288SOL    HW213317   2.646   4.944   0.995
 4289SOL     OW13318   2.733   4.493   1.823
 4289SOL    HW113319   2.719   4.564   1.886
 4289SOL    HW213320   2.756   4.537   1.741
 4290SOL     OW13321   2.545   4.721   0.650
 4290SOL    HW113322   2.612   4.714   0.719
 4290SOL    HW213323   2.478   4.777   0.689
 4291SOL     OW13324   2.571   4.870   1.814
 4291SOL    HW113325   2.619   4.950   1.838
 4291SOL    HW213326   2.489   4.902   1.777
 4292SOL     OW13327   2.199   5.145   1.058
 4292SOL    HW113328   2.120   5.100   1.028
 4292SOL    HW213329   2.234   5.187   0.980
 4293SOL     OW13330   3.316   5.222   1.348
 4293SOL    HW113331   3.372   5.294   1.379
 4293SOL    HW213332   3.249   5.213   1.416
 4294SOL     OW13333   2.313   4.121   1.483
 4294SOL    HW113334   2.388   4.062   1.490
 4294SOL    HW213335   2.236   4.065   1.499
 4295SOL     OW13336   3.472   4.169   0.742
 4295SOL    HW113337   3.397   4.190   0.686
 4295SOL    HW213338   3.482   4.246   0.798
 4296SOL     OW13339   2.995   5.074   1.704
 4296SOL    HW113340   3.024   5.075   1.795
 4296SOL    HW213341   2.942   4.995   1.696
 4297SOL     OW13342   2.068   5.157   0.515
 4297SOL    HW113343   2.100   5.236   0.559
 4297SOL    HW213344   2.019   5.110   0.582
 4298SOL     OW13345   2.124   4.811   0.893
 4298SOL    HW113346   2.121   4.723   0.931
 4298SOL    HW213347   2.066   4.863   0.948
 4299SOL     OW13348   2.487   4.682   0.137
 4299SOL    HW113349   2.433   4.757   0.112
 4299SOL    HW213350   2.539   4.714   0.210
 4300SOL     OW13351   3.457   3.849   1.466
 4300SOL    HW113352   3.473   3.930   1.417
 4300SOL    HW213353   3.441   3.878   1.556
 4301SOL     OW13354   1.978   4.375   0.564
 4301SOL    HW113355   1.947   4.287   0.585
 4301SOL    HW213356   1.969   4.424   0.645
 4302SOL     OW13357   1.836   0.023   0.092
 4302SOL    HW113358   1.850   5.232   0.118
 4302SOL    HW213359   1.866   0.074   0.167
 4303SOL     OW13360   3.549   4.641   0.645
 4303SOL    HW113361   3.631   4.598   0.622
 4303SOL    HW213362   3.527   4.694   0.568
 4304SOL     OW13363   3.509   4.828   0.434
 4304SOL    HW113364   3.592   4.837   0.387
 4304SOL    HW213365   3.516   4.890   0.506
 4305SOL     OW13366   1.986   4.467   1.585
 4305SOL    HW113367   2.077   4.495   1.590
 4305SOL    HW213368   1.936   4.549   1.592
 4306SOL     OW13369   2.485   5.100   0.741
 4306SOL    HW113370   2.431   5.021   0.736
 4306SOL    HW213371   2.468   5.146   0.658
 4307SOL     OW13372   3.150   4.952   1.426
 4307SOL    HW113373   3.183   4.886   1.364
 4307SOL    HW213374   3.211   4.949   1.499
 4308SOL     OW13375   2.680   3.729   0.513
 4308SOL    HW113376   2.719   3.812   0.489
 4308SOL    HW213377   2.586   3.747   0.520
 4309SOL     OW13378   2.051   4.687   1.273
 4309SOL    HW113379   2.136   4.646   1.258
 4309SOL    HW213380   1.990   4.635   1.221
 4310SOL     OW13381   3.367   4.738   0.212
 4310SOL    HW113382   3.306   4.672   0.246
 4310SOL    HW213383   3.422   4.760   0.287
 4311SOL     OW13384   2.199   3.973   1.818
 4311SOL    HW113385   2.241   4.057   1.836
 4311SOL    HW213386   2.108   3.986   1.845
 4312SOL     OW13387   3.341   5.148   0.962
 4312SOL    HW113388   3.268   5.160   1.022
 4312SOL    HW213389   3.329   5.059   0.927
 4313SOL     OW13390   2.461   4.435   0.284
 4313SOL    HW113391   2.478   4.516   0.234
 4313SOL    HW213392   2.396   4.461   0.350
 4314SOL     OW13393   3.140   4.081   0.933
 4314SOL    HW113394   3.051   4.048   0.942
 4314SOL    HW213395   3.192   4.028   0.993
 4315SOL     OW13396   2.653   4.342   1.449
 4315SOL    HW113397   2.628   4.317   1.538
 4315SOL    HW213398   2.616   4.274   1.393
 4316SOL     OW13399   3.255   4.198   1.678
 4316SOL    HW113400   3.258   4.243   1.762
 4316SOL    HW213401   3.315   4.124   1.688
 4317SOL     OW13402   2.815   4.611   1.584
 4317SOL    HW113403   2.870   4.542   1.548
 4317SOL    HW213404   2.766   4.645   1.509
 4318SOL     OW13405   2.855   4.136   1.237
 4318SOL    HW113406   2.767   4.155   1.270
 4318SOL    HW213407   2.839   4.091   1.154
 4319SOL     OW13408   2.916   4.423   0.427
 4319SOL    HW113409   2.933   4.416   0.522
 4319SOL    HW213410   2.833   4.377   0.415
 4320SOL     OW13411   1.950   4.546   0.777
 4320SOL    HW113412   2.030   4.539   0.828
 4320SOL    HW213413   1.906   4.623   0.812
 4321SOL     OW13414   2.748   4.081   0.203
 4321SOL    HW113415   2.793   4.132   0.136
 4321SOL    HW213416   2.749   3.991   0.170
 4322SOL     OW13417   3.568   4.296   1.829
 4322SOL    HW113418   3.531   4.370   1.780
 4322SOL    HW213419   3.597   4.235   1.761
 4323SOL     OW13420   3.240   4.863   0.538
 4323SOL    HW113421   3.321   4.851   0.489
 4323SOL    HW213422   3.189   4.926   0.486
 4324SOL     OW13423   2.412   3.904   0.895
 4324SOL    HW113424   2.414   3.934   0.985
 4324SOL    HW213425   2.414   3.984   0.843
 4325SOL     OW13426   2.875   5.161   0.471
 4325SOL    HW113427   2.803   5.224   0.475
 4325SOL    HW213428   2.898   5.146   0.563
 4326SOL     OW13429   3.663   4.779   0.867
 4326SOL    HW113430   3.607   4.759   0.793
 4326SOL    HW213431   3.603   4.786   0.942
 4327SOL     OW13432   3.114   5.240   1.526
 4327SOL    HW113433   3.078   5.173   1.585
 4327SOL    HW213434   3.040   5.266   1.471
 4328SOL     OW13435   2.184   4.665   0.258
 4328SOL    HW113436   2.249   4.709   0.204
 4328SOL    HW213437   2.191   4.573   0.234
 4329SOL     OW13438   3.342   4.468   0.725
 4329SOL    HW113439   3.336   4.428   0.812
 4329SOL    HW213440   3.419   4.525   0.730
 4330SOL     OW13441   2.327   4.988   1.741
 4330SOL    HW113442   2.300   4.991   1.650
 4330SOL    HW213443   2.244   4.987   1.790
 4331SOL     OW13444   3.023   0.155   0.235
 4331SOL    HW113445   2.941   0.178   0.280
 4331SOL    HW213446   2.996   0.131   0.147
 4332SOL     OW13447   2.064   4.002   1.503
 4332SOL    HW113448   1.982   4.052   1.501
 4332SOL    HW213449   2.043   3.924   1.555
 4333SOL     OW13450   3.492   5.094   0.077
 4333SOL    HW113451   3.452   5.179   0.096
 4333SOL    HW213452   3.418   5.036   0.061
 4334SOL     OW13453   3.270   3.835   0.448
 4334SOL    HW113454   3.262   3.813   0.355
 4334SOL    HW213455   3.364   3.843   0.463
 4335SOL     OW13456   2.249   4.421   0.476
 4335SOL    HW113457   2.271   4.329   0.488
 4335SOL    HW213458   2.157   4.427   0.498
 4336SOL     OW13459   3.394   3.949   1.725
 4336SOL    HW113460   3.404   3.969   1.818
 4336SOL    HW213461   3.325   3.883   1.722
 4337SOL     OW13462   2.493   3.833   0.139
 4337SOL    HW113463   2.588   3.822   0.145
 4337SOL    HW213464   2.472   3.814   0.047
 4338SOL     OW13465   2.627   4.002   1.755
 4338SOL    HW113466   2.705   3.947   1.754
 4338SOL    HW213467   2.580   3.976   1.834
 4339SOL     OW13468   3.201   4.313   1.432
 4339SOL    HW113469   3.232   4.282   1.517
 4339SOL    HW213470   3.238   4.401   1.424
 4340SOL     OW13471   2.677   5.116   0.939
 4340SOL    HW113472   2.757   5.105   0.888
 4340SOL    HW213473   2.607   5.124   0.873
 4341SOL     OW13474   2.790   4.233   0.901
 4341SOL    HW113475   2.766   4.225   0.809
 4341SOL    HW213476   2.821   4.146   0.926
 4342SOL     OW13477   2.413   3.787   0.503
 4342SOL    HW113478   2.333   3.786   0.556
 4342SOL    HW213479   2.404   3.866   0.449
 4343SOL     OW13480   3.286   4.926   0.033
 4343SOL    HW113481   3.313   4.853   0.089
 4343SOL    HW213482   3.200   4.952   0.067
 4344SOL     OW13483   2.174   3.783   0.173
 4344SOL    HW113484   2.241   3.850   0.190
 4344SOL    HW213485   2.209   3.704   0.213
 4345SOL     OW13486   2.804   3.973   0.458
 4345SOL    HW113487   2.777   4.013   0.375
 4345SOL    HW213488   2.898   3.988   0.462
 4346SOL     OW13489   2.942   4.407   1.459
 4346SOL    HW113490   2.875   4.338   1.463
 4346SOL    HW213491   3.025   4.359   1.452
 4347SOL     OW13492   3.124   5.265   0.780
 4347SOL    HW113493   3.082   0.045   0.750
 4347SOL    HW213494   3.172   5.290   0.859
 4348SOL     OW13495   2.328   4.874   0.727
 4348SOL    HW113496   2.261   4.853   0.793
 4348SOL    HW213497   2.285   4.857   0.643
 4349SOL     OW13498   2.893   4.248   0.034
 4349SOL    HW113499   2.853   4.330   0.004
 4349SOL    HW213500   2.956   4.275   0.101
 4350SOL     OW13501   1.943   4.278   1.392
 4350SOL    HW113502   2.035   4.277   1.366
 4350SOL    HW213503   1.938   4.348   1.458
 4351SOL     OW13504   2.420   3.952   1.168
 4351SOL    HW113505   2.462   3.877   1.209
 4351SOL    HW213506   2.329   3.947   1.197
 4352SOL     OW13507   2.728   4.181   0.639
 4352SOL    HW113508   2.688   4.238   0.573
 4352SOL    HW213509   2.751   4.102   0.591
 4353SOL     OW13510   2.879   3.777   0.748
 4353SOL    HW113511   2.819   3.772   0.673
 4353SOL    HW213512   2.855   3.703   0.803
 4354SOL     OW13513   3.302   4.890   0.859
 4354SOL    HW113514   3.233   4.824   0.856
 4354SOL    HW213515   3.327   4.903   0.767
 4355SOL     OW13516   3.328   4.331   0.973
 4355SOL    HW113517   3.274   4.252   0.976
 4355SOL    HW213518   3.386   4.324   1.048
 4356SOL     OW13519   3.710   4.537   0.388
 4356SOL    HW113520   3.763   4.485   0.448
 4356SOL    HW213521   3.680   4.474   0.322
 4357SOL     OW13522   2.324   5.161   0.151
 4357SOL    HW113523   2.279   5.107   0.215
 4357SOL    HW213524   2.372   5.098   0.097
 4358SOL     OW13525   3.534   4.988   0.646
 4358SOL    HW113526   3.627   4.994   0.665
 4358SOL    HW213527   3.500   5.076   0.661
 4359SOL     OW13528   3.260   4.299   0.088
 4359SOL    HW113529   3.198   4.283   0.159
 4359SOL    HW213530   3.312   4.219   0.082
 4360SOL     OW13531   2.377   3.988   0.322
 4360SOL    HW113532   2.429   3.936   0.261
 4360SOL    HW213533   2.363   4.072   0.277
 4361SOL     OW13534   3.612   4.960   1.571
 4361SOL    HW113535   3.697   4.918   1.572
 4361SOL    HW213536   3.631   5.053   1.582
 4362SOL     OW13537   2.926   5.072   1.328
 4362SOL    HW113538   2.847   5.048   1.376
 4362SOL    HW213539   2.998   5.034   1.379
 4363SOL     OW13540   2.990   4.926   1.106
 4363SOL    HW113541   2.942   4.968   1.177
 4363SOL    HW213542   2.944   4.952   1.027
 4364SOL     OW13543   3.489   4.821   1.076
 4364SOL    HW113544   3.484   4.883   1.149
 4364SOL    HW213545   3.413   4.841   1.022
 4365SOL     OW13546   2.780   3.820   1.394
 4365SOL    HW113547   2.803   3.801   1.303
 4365SOL    HW213548   2.859   3.859   1.431
 4366SOL     OW13549   2.846   4.839   1.726
 4366SOL    HW113550   2.754   4.855   1.746
 4366SOL    HW213551   2.846   4.762   1.669
 4367SOL     OW13552   2.575   4.786   0.382
 4367SOL    HW113553   2.557   4.767   0.474
 4367SOL    HW213554   2.654   4.736   0.362
 4368SOL     OW13555   2.282   4.540   1.251
 4368SOL    HW113556   2.350   4.550   1.318
 4368SOL    HW213557   2.247   4.452   1.265
 4369SOL     OW13558   3.126   4.100   1.278
 4369SOL    HW113559   3.159   4.177   1.323
 4369SOL    HW213560   3.036   4.121   1.256
 4370SOL     OW13561   2.199   4.832   0.489
 4370SOL    HW113562   2.200   4.904   0.426
 4370SOL    HW213563   2.209   4.753   0.437
 4371SOL     OW13564   2.412   4.258   0.859
 4371SOL    HW113565   2.426   4.317   0.785
 4371SOL    HW213566   2.478   4.284   0.923
 4372SOL     OW13567   3.118   5.074   0.384
 4372SOL    HW113568   3.172   5.149   0.408
 4372SOL    HW213569   3.030   5.099   0.411
 4373SOL     OW13570   3.134   5.183   1.142
 4373SOL    HW113571   3.193   5.198   1.216
 4373SOL    HW213572   3.090   5.101   1.163
 4374SOL     OW13573   3.442   4.345   0.485
 4374SOL    HW113574   3.392   4.393   0.551
 4374SOL    HW213575   3.475   4.413   0.426
 4375SOL     OW13576   2.211   5.236   1.312
 4375SOL    HW113577   2.199   5.200   1.224
 4375SOL    HW213578   2.304   5.256   1.317
 4376SOL     OW13579   2.278   4.469   1.602
 4376SOL    HW113580   2.341   4.513   1.545
 4376SOL    HW213581   2.316   4.383   1.619
 4377SOL     OW13582   3.467   4.504   1.684
 4377SOL    HW113583   3.381   4.545   1.678
 4377SOL    HW213584   3.519   4.546   1.616
 4378SOL     OW13585   2.858   3.852   1.754
 4378SOL    HW113586   2.916   3.924   1.730
 4378SOL    HW213587   2.906   3.773   1.729
 4379SOL     OW13588   2.359   3.762   1.749
 4379SOL    HW113589   2.314   3.709   1.684
 4379SOL    HW213590   2.302   3.838   1.762
 4380SOL     OW13591   2.446   4.597   1.031
 4380SOL    HW113592   2.477   4.687   1.032
 4380SOL    HW213593   2.390   4.591   1.109
 4381SOL     OW13594   3.216   4.582   1.024
 4381SOL    HW113595   3.131   4.570   0.981
 4381SOL    HW213596   3.259   4.497   1.017
 4382SOL     OW13597   3.063   4.251   0.270
 4382SOL    HW113598   3.071   4.172   0.324
 4382SOL    HW213599   3.020   4.315   0.327
 4383SOL     OW13600   2.159   3.921   1.247
 4383SOL    HW113601   2.122   3.953   1.329
 4383SOL    HW213602   2.141   3.827   1.248
 4384SOL     OW13603   1.919   5.048   1.285
 4384SOL    HW113604   1.940   4.982   1.350
 4384SOL    HW213605   1.951   5.130   1.323
 4385SOL     OW13606   2.584   4.353   1.055
 4385SOL    HW113607   2.660   4.339   0.999
 4385SOL    HW213608   2.556   4.443   1.035
 4386SOL     OW13609   3.598   4.684   1.855
 4386SOL    HW113610   3.554   4.619   1.800
 4386SOL    HW213611   3.538   4.699   1.928
 4387SOL     OW13612   2.166   3.787   0.624
 4387SOL    HW113613   2.146   3.878   0.646
 4387SOL    HW213614   2.174   3.743   0.709
 4388SOL     OW13615   3.487   4.102   0.367
 4388SOL    HW113616   3.511   4.035   0.432
 4388SOL    HW213617   3.461   4.178   0.419
 4389SOL     OW13618   2.890   4.482   0.960
 4389SOL    HW113619   2.884   4.499   1.054
 4389SOL    HW213620   2.864   4.391   0.950
 4390SOL     OW13621   3.715   5.213   1.581
 4390SOL    HW113622   3.704   5.292   1.528
 4390SOL    HW213623   3.785   5.235   1.642
 4391SOL     OW13624   2.215   4.641   1.809
 4391SOL    HW113625   2.296   4.659   1.856
 4391SOL    HW213626   2.240   4.578   1.741
 4392SOL     OW13627   3.374   4.030   0.127
 4392SOL    HW113628   3.327   3.948   0.143
 4392SOL    HW213629   3.417   4.050   0.210
 4393SOL     OW13630   3.158   4.545   0.018
 4393SOL    HW113631   3.195   4.459   0.036
 4393SOL    HW213632   3.221   4.587   8.039
 4394SOL     OW13633   2.918   5.083   0.821
 4394SOL    HW113634   2.925   4.997   0.780
 4394SOL    HW213635   3.005   5.122   0.810
 4395SOL     OW13636   2.170   4.532   0.946
 4395SOL    HW113637   2.264   4.553   0.940
 4395SOL    HW213638   2.168   4.442   0.978
 4396SOL     OW13639   2.191   4.252   1.013
 4396SOL    HW113640   2.156   4.164   0.999
 4396SOL    HW213641   2.268   4.257   0.956
 4397SOL     OW13642   2.996   4.098   1.684
 4397SOL    HW113643   2.948   4.153   1.746
 4397SOL    HW213644   3.083   4.137   1.680
 4398SOL     OW13645   3.023   3.925   1.471
 4398SOL    HW113646   3.012   3.987   1.542
 4398SOL    HW213647   3.064   3.975   1.401
 4399SOL     OW13648   1.876   5.042   0.173
 4399SOL    HW113649   1.787   5.054   0.139
 4399SOL    HW213650   1.873   4.956   0.216
 4400SOL     OW13651   2.840   4.513   1.225
 4400SOL    HW113652   2.899   4.493   1.298
 4400SOL    HW213653   2.756   4.475   1.251
 4401SOL     OW13654   1.898   4.270   1.117
 4401SOL    HW113655   1.979   4.260   1.066
 4401SOL    HW213656   1.927   4.273   1.208
 4402SOL     OW13657   2.054   4.245   1.729
 4402SOL    HW113658   2.109   4.203   1.663
 4402SOL    HW213659   2.014   4.320   1.685
 4403SOL     OW13660   3.240   4.660   1.657
 4403SOL    HW113661   3.261   4.753   1.654
 4403SOL    HW213662   3.236   4.633   1.566
 4404SOL     OW13663   2.682   4.293   0.372
 4404SOL    HW113664   2.692   4.222   0.308
 4404SOL    HW213665   2.606   4.343   0.341
 4405SOL     OW13666   3.503   4.325   1.183
 4405SOL    HW113667   3.493   4.267   1.258
 4405SOL    HW213668   3.591   4.306   1.149
 4406SOL     OW13669   2.066   5.275   1.746
 4406SOL    HW113670   2.046   0.026   1.825
 4406SOL    HW213671   2.079   5.186   1.778
 4407SOL     OW13672   2.569   4.172   1.256
 4407SOL    HW113673   2.513   4.099   1.229
 4407SOL    HW213674   2.563   4.235   1.185
 4408SOL     OW13675   2.330   4.215   0.176
 4408SOL    HW113676   2.397   4.280   0.197
 4408SOL    HW213677   2.247   4.261   0.190
 4409SOL     OW13678   2.005   4.863   1.472
 4409SOL    HW113679   2.007   4.813   1.554
 4409SOL    HW213680   2.023   4.798   1.404
 4410SOL     OW13681   3.187   4.767   1.221
 4410SOL    HW113682   3.209   4.705   1.151
 4410SOL    HW213683   3.117   4.821   1.183
 4411SOL     OW13684   3.169   4.572   0.307
 4411SOL    HW113685   3.093   4.543   0.357
 4411SOL    HW213686   3.144   4.560   0.216
 4412SOL     OW13687   1.958   4.987   1.022
 4412SOL    HW113688   1.937   5.007   1.113
 4412SOL    HW213689   1.878   4.950   0.987
 4413SOL     OW13690   2.617   0.035   1.709
 4413SOL    HW113691   2.525   0.057   1.721
 4413SOL    HW213692   2.637   0.061   1.619
 4414SOL     OW13693   2.768   3.816   0.131
 4414SOL    HW113694   2.778   3.795   0.038
 4414SOL    HW213695   2.835   3.763   0.175
 4415SOL     OW13696   3.582   3.872   0.508
 4415SOL    HW113697   3.653   3.855   0.446
 4415SOL    HW213698   3.567   3.788   0.550
 4416SOL     OW13699   3.139   4.650   0.672
 4416SOL    HW113700   3.213   4.590   0.680
 4416SOL    HW213701   3.173   4.722   0.618
 4417SOL     OW13702   2.677   4.993   1.414
 4417SOL    HW113703   2.645   5.028   1.497
 4417SOL    HW213704   2.603   5.001   1.354
 4418SOL     OW13705   3.703   3.896   0.966
 4418SOL    HW113706   3.732   3.808   0.940
 4418SOL    HW213707   3.617   3.905   0.926
 4419SOL     OW13708   2.122   4.039   0.716
 4419SOL    HW113709   2.036   4.074   0.694
 4419SOL    HW213710   2.120   4.032   0.812
 4420SOL     OW13711   3.000   0.017   8.080
 4420SOL    HW113712   3.015   5.227   0.030
 4420SOL    HW213713   3.009   0.012   7.985
 4421SOL     OW13714   2.687   4.726   1.371
 4421SOL    HW113715   2.735   4.718   1.288
 4421SOL    HW213716   2.690   4.820   1.390
 4422SOL     OW13717   2.783   4.640   0.301
 4422SOL    HW113718   2.837   4.664   0.226
 4422SOL    HW213719   2.831   4.567   0.342
 4423SOL     OW13720   2.226   5.027   1.497
 4423SOL    HW113721   2.215   5.100   1.436
 4423SOL    HW213722   2.150   4.971   1.480
 4424SOL     OW13723   3.474   5.004   1.282
 4424SOL    HW113724   3.530   4.995   1.359
 4424SOL    HW213725   3.411   5.072   1.305
 4425SOL     OW13726   2.921   4.835   0.715
 4425SOL    HW113727   2.848   4.784   0.750
 4425SOL    HW213728   2.983   4.770   0.683
 4426SOL     OW13729   2.884   3.965   0.966
 4426SOL    HW113730   2.881   3.917   0.883
 4426SOL    HW213731   2.879   3.896   1.033
 4427SOL     OW13732   3.586   4.116   1.381
 4427SOL    HW113733   3.658   4.179   1.380
 4427SOL    HW213734   3.616   4.045   1.324
 4428SOL     OW13735   2.127   5.025   0.289
 4428SOL    HW113736   2.046   5.040   0.239
 4428SOL    HW213737   2.116   5.077   0.368
 4429SOL     OW13738   1.975   4.750   1.720
 4429SOL    HW113739   1.899   4.724   1.773
 4429SOL    HW213740   2.049   4.710   1.766
 4430SOL     OW13741   2.537   3.920   1.500
 4430SOL    HW113742   2.622   3.899   1.459
 4430SOL    HW213743   2.560   3.952   1.587
 4431SOL     OW13744   1.919   4.085   0.039
 4431SOL    HW113745   1.841   4.036   0.015
 4431SOL    HW213746   1.971   4.090   8.038
 4432SOL     OW13747   3.290   4.581   1.398
 4432SOL    HW113748   3.241   4.642   1.343
 4432SOL    HW213749   3.379   4.584   1.364
 4433SOL     OW13750   1.932   3.876   0.300
 4433SOL    HW113751   1.918   3.962   0.260
 4433SOL    HW213752   2.017   3.848   0.264
 4434SOL     OW13753   3.045   5.062   0.109
 4434SOL    HW113754   2.950   5.051   0.104
 4434SOL    HW213755   3.065   5.058   0.203
 4435SOL     OW13756   2.482   4.554   1.434
 4435SOL    HW113757   2.539   4.630   1.418
 4435SOL    HW213758   2.542   4.480   1.442
 4436SOL     OW13759   2.580   4.286   1.702
 4436SOL    HW113760   2.623   4.347   1.762
 4436SOL    HW213761   2.602   4.199   1.736
 4437SOL     OW13762   3.338   4.919   1.629
 4437SOL    HW113763   3.324   4.933   1.723
 4437SOL    HW213764   3.431   4.935   1.616
 4438SOL     OW13765   3.529   4.605   1.255
 4438SOL    HW113766   3.524   4.519   1.211
 4438SOL    HW213767   3.519   4.668   1.184
 4439SOL     OW13768   3.078   4.041   0.460
 4439SOL    HW113769   3.143   3.971   0.454
 4439SOL    HW213770   3.106   4.093   0.536
 4440SOL     OW13771   2.448   4.459   0.672
 4440SOL    HW113772   2.489   4.545   0.659
 4440SOL    HW213773   2.381   4.454   0.603
 4441SOL     OW13774   3.622   4.087   1.652
 4441SOL    HW113775   3.606   4.103   1.559
 4441SOL    HW213776   3.549   4.030   1.679
 4442SOL     OW13777   3.608   4.657   1.511
 4442SOL    HW113778   3.600   4.752   1.524
 4442SOL    HW213779   3.592   4.644   1.418
 4443SOL     OW13780   2.777   5.095   0.040
 4443SOL    HW113781   2.716   5.075   0.111
 4443SOL    HW213782   2.728   5.155   8.064
 4444SOL     OW13783   2.731   4.693   0.855
 4444SOL    HW113784   2.780   4.621   0.894
 4444SOL    HW213785   2.695   4.740   0.930
 4445SOL     OW13786   2.942   4.699   0.088
 4445SOL    HW113787   2.920   4.755   0.013
 4445SOL    HW213788   3.018   4.649   0.059
 4446SOL     OW13789   2.084   5.021   1.852
 4446SOL    HW113790   2.018   4.956   1.825
 4446SOL    HW213791   2.072   5.030   1.946
 4447SOL     OW13792   1.952   4.952   0.670
 4447SOL    HW113793   1.948   4.902   0.751
 4447SOL    HW213794   2.020   4.909   0.618
 4448SOL     OW13795   2.536   5.102   1.608
 4448SOL    HW113796   2.458   5.072   1.656
 4448SOL    HW213797   2.570   5.175   1.660
 4449SOL     OW13798   3.673   3.907   1.237
 4449SOL    HW113799   3.683   3.813   1.251
 4449SOL    HW213800   3.684   3.919   1.143
 4450SOL     OW13801   2.285   4.160   0.524
 4450SOL    HW113802   2.320   4.089   0.470
 4450SOL    HW213803   2.240   4.116   0.596
 4451SOL     OW13804   3.568   5.225   1.118
 4451SOL    HW113805   3.495   5.208   1.059
 4451SOL    HW213806   3.575   5.146   1.172
 4452SOL     OW13807   2.194   4.281   1.292
 4452SOL    HW113808   2.249   4.226   1.347
 4452SOL    HW213809   2.213   4.252   1.203
 4453SOL     OW13810   3.293   3.951   1.117
 4453SOL    HW113811   3.316   3.870   1.163
 4453SOL    HW213812   3.242   4.000   1.181
 4454SOL     OW13813   2.871   3.742   1.140
 4454SOL    HW113814   2.816   3.675   1.100
 4454SOL    HW213815   2.959   3.703   1.141
 4455SOL     OW13816   2.658   5.037   0.281
 4455SOL    HW113817   2.610   4.960   0.309
 4455SOL    HW213818   2.717   5.056   0.354
 4456SOL     OW13819   2.484   5.300   1.294
 4456SOL    HW113820   2.489   0.054   1.373
 4456SOL    HW213821   2.575   5.280   1.273
 4457SOL     OW13822   3.218   3.778   0.187
 4457SOL    HW113823   3.236   3.733   0.104
 4457SOL    HW213824   3.132   3.747   0.213
 4458SOL     OW13825   3.158   4.186   0.680
 4458SOL    HW113826   3.106   4.266   0.686
 4458SOL    HW213827   3.153   4.148   0.767
 4459SOL     OW13828   3.447   3.923   0.880
 4459SOL    HW113829   3.389   3.945   0.953
 4459SOL    HW213830   3.447   4.000   0.824
 4460SOL     OW13831   1.904   4.790   0.306
 4460SOL    HW113832   1.999   4.792   0.311
 4460SOL    HW213833   1.880   4.705   0.343
 4461SOL     OW13834   2.089   4.348   1.987
 4461SOL    HW113835   2.000   4.345   2.023
 4461SOL    HW213836   2.079   4.323   1.895
 4462SOL     OW13837   2.087   4.007   2.854
 4462SOL    HW113838   2.115   3.972   2.939
 4462SOL    HW213839   1.997   3.974   2.844
 4463SOL     OW13840   1.864   4.108   2.500
 4463SOL    HW113841   1.782   4.134   2.542
 4463SOL    HW213842   1.842   4.029   2.451
 4464SOL     OW13843   2.430   5.010   3.045
 4464SOL    HW113844   2.345   5.006   3.001
 4464SOL    HW213845   2.441   5.102   3.069
 4465SOL     OW13846   3.419   5.233   2.551
 4465SOL    HW113847   3.403   5.229   2.645
 4465SOL    HW213848   3.338   5.268   2.514
 4466SOL     OW13849   2.993   4.422   2.560
 4466SOL    HW113850   3.041   4.504   2.547
 4466SOL    HW213851   2.946   4.435   2.642
 4467SOL     OW13852   3.632   4.327   2.089
 4467SOL    HW113853   3.609   4.320   1.996
 4467SOL    HW213854   3.595   4.248   2.129
 4468SOL     OW13855   2.615   4.866   2.903
 4468SOL    HW113856   2.549   4.899   2.964
 4468SOL    HW213857   2.646   4.944   2.857
 4469SOL     OW13858   2.733   4.493   3.685
 4469SOL    HW113859   2.719   4.564   3.748
 4469SOL    HW213860   2.756   4.537   3.603
 4470SOL     OW13861   2.548   4.724   2.508
 4470SOL    HW113862   2.613   4.715   2.577
 4470SOL    HW213863   2.479   4.778   2.547
 4471SOL     OW13864   2.571   4.870   3.676
 4471SOL    HW113865   2.619   4.950   3.700
 4471SOL    HW213866   2.489   4.902   3.639
 4472SOL     OW13867   2.199   5.145   2.920
 4472SOL    HW113868   2.120   5.100   2.890
 4472SOL    HW213869   2.234   5.187   2.842
 4473SOL     OW13870   3.316   5.222   3.210
 4473SOL    HW113871   3.371   5.294   3.241
 4473SOL    HW213872   3.249   5.213   3.277
 4474SOL     OW13873   2.313   4.121   3.345
 4474SOL    HW113874   2.388   4.062   3.352
 4474SOL    HW213875   2.237   4.065   3.361
 4475SOL     OW13876   3.472   4.169   2.604
 4475SOL    HW113877   3.398   4.190   2.547
 4475SOL    HW213878   3.482   4.247   2.659
 4476SOL     OW13879   2.995   5.074   3.566
 4476SOL    HW113880   3.024   5.075   3.657
 4476SOL    HW213881   2.942   4.995   3.558
 4477SOL     OW13882   2.071   5.159   2.383
 4477SOL    HW113883   2.101   5.237   2.430
 4477SOL    HW213884   2.022   5.110   2.449
 4478SOL     OW13885   2.124   4.811   2.755
 4478SOL    HW113886   2.121   4.723   2.792
 4478SOL    HW213887   2.067   4.863   2.811
 4479SOL     OW13888   2.443   4.706   1.999
 4479SOL    HW113889   2.492   4.753   1.930
 4479SOL    HW213890   2.482   4.737   2.080
 4480SOL     OW13891   3.458   3.848   3.328
 4480SOL    HW113892   3.473   3.929   3.279
 4480SOL    HW213893   3.441   3.877   3.418
 4481SOL     OW13894   1.978   4.378   2.422
 4481SOL    HW113895   1.949   4.289   2.443
 4481SOL    HW213896   1.970   4.426   2.504
 4482SOL     OW13897   1.849   0.012   1.958
 4482SOL    HW113898   1.863   5.223   1.990
 4482SOL    HW213899   1.869   0.068   2.032
 4483SOL     OW13900   3.550   4.642   2.505
 4483SOL    HW113901   3.633   4.598   2.483
 4483SOL    HW213902   3.529   4.693   2.427
 4484SOL     OW13903   3.509   4.829   2.292
 4484SOL    HW113904   3.595   4.831   2.249
 4484SOL    HW213905   3.516   4.891   2.364
 4485SOL     OW13906   1.986   4.467   3.447
 4485SOL    HW113907   2.078   4.495   3.451
 4485SOL    HW213908   1.936   4.549   3.454
 4486SOL     OW13909   2.486   5.099   2.602
 4486SOL    HW113910   2.432   5.020   2.598
 4486SOL    HW213911   2.467   5.145   2.520
 4487SOL     OW13912   3.150   4.952   3.287
 4487SOL    HW113913   3.183   4.886   3.226
 4487SOL    HW213914   3.211   4.950   3.361
 4488SOL     OW13915   2.679   3.726   2.371
 4488SOL    HW113916   2.719   3.810   2.350
 4488SOL    HW213917   2.585   3.745   2.379
 4489SOL     OW13918   2.051   4.687   3.135
 4489SOL    HW113919   2.136   4.646   3.120
 4489SOL    HW213920   1.990   4.635   3.082
 4490SOL     OW13921   3.392   4.722   2.060
 4490SOL    HW113922   3.323   4.664   2.093
 4490SOL    HW213923   3.435   4.755   2.139
 4491SOL     OW13924   2.198   3.974   3.681
 4491SOL    HW113925   2.240   4.058   3.698
 4491SOL    HW213926   2.107   3.987   3.708
 4492SOL     OW13927   3.341   5.148   2.823
 4492SOL    HW113928   3.268   5.160   2.884
 4492SOL    HW213929   3.329   5.060   2.789
 4493SOL     OW13930   2.457   4.443   2.130
 4493SOL    HW113931   2.462   4.525   2.082
 4493SOL    HW213932   2.392   4.459   2.199
 4494SOL     OW13933   3.140   4.082   2.795
 4494SOL    HW113934   3.051   4.048   2.804
 4494SOL    HW213935   3.192   4.028   2.855
 4495SOL     OW13936   2.653   4.342   3.311
 4495SOL    HW113937   2.628   4.317   3.400
 4495SOL    HW213938   2.616   4.274   3.255
 4496SOL     OW13939   3.255   4.198   3.540
 4496SOL    HW113940   3.258   4.243   3.624
 4496SOL    HW213941   3.314   4.124   3.549
 4497SOL     OW13942   2.815   4.611   3.447
 4497SOL    HW113943   2.870   4.541   3.410
 4497SOL    HW213944   2.766   4.645   3.371
 4498SOL     OW13945   2.855   4.136   3.099
 4498SOL    HW113946   2.767   4.155   3.132
 4498SOL    HW213947   2.840   4.090   3.016
 4499SOL     OW13948   2.914   4.422   2.287
 4499SOL    HW113949   2.931   4.415   2.381
 4499SOL    HW213950   2.831   4.376   2.274
 4500SOL     OW13951   1.950   4.546   2.639
 4500SOL    HW113952   2.030   4.538   2.690
 4500SOL    HW213953   1.906   4.623   2.674
 4501SOL     OW13954   2.759   4.074   2.057
 4501SOL    HW113955   2.798   4.137   1.996
 4501SOL    HW213956   2.773   3.989   2.015
 4502SOL     OW13957   3.569   4.297   3.691
 4502SOL    HW113958   3.532   4.370   3.642
 4502SOL    HW213959   3.597   4.235   3.623
 4503SOL     OW13960   3.241   4.863   2.399
 4503SOL    HW113961   3.323   4.850   2.352
 4503SOL    HW213962   3.191   4.924   2.346
 4504SOL     OW13963   2.413   3.905   2.756
 4504SOL    HW113964   2.415   3.934   2.847
 4504SOL    HW213965   2.413   3.985   2.705
 4505SOL     OW13966   2.882   5.167   2.335
 4505SOL    HW113967   2.806   5.226   2.335
 4505SOL    HW213968   2.898   5.150   2.428
 4506SOL     OW13969   3.663   4.779   2.729
 4506SOL    HW113970   3.607   4.760   2.654
 4506SOL    HW213971   3.603   4.786   2.803
 4507SOL     OW13972   3.114   5.240   3.388
 4507SOL    HW113973   3.078   5.173   3.447
 4507SOL    HW213974   3.040   5.266   3.334
 4508SOL     OW13975   2.180   4.681   2.114
 4508SOL    HW113976   2.262   4.700   2.069
 4508SOL    HW213977   2.150   4.599   2.075
 4509SOL     OW13978   3.342   4.470   2.587
 4509SOL    HW113979   3.336   4.428   2.673
 4509SOL    HW213980   3.420   4.525   2.592
 4510SOL     OW13981   2.327   4.988   3.604
 4510SOL    HW113982   2.300   4.991   3.512
 4510SOL    HW213983   2.244   4.987   3.652
 4511SOL     OW13984   2.925   0.176   2.063
 4511SOL    HW113985   2.944   0.101   2.120
 4511SOL    HW213986   2.946   0.145   1.975
 4512SOL     OW13987   2.064   4.001   3.365
 4512SOL    HW113988   1.982   4.051   3.363
 4512SOL    HW213989   2.044   3.923   3.416
 4513SOL     OW13990   3.483   5.102   1.972
 4513SOL    HW113991   3.489   5.173   1.908
 4513SOL    HW213992   3.416   5.043   1.938
 4514SOL     OW13993   3.263   3.831   2.298
 4514SOL    HW113994   3.254   3.806   2.206
 4514SOL    HW213995   3.357   3.838   2.312
 4515SOL     OW13996   2.257   4.419   2.337
 4515SOL    HW113997   2.275   4.326   2.349
 4515SOL    HW213998   2.163   4.427   2.353
 4516SOL     OW13999   3.394   3.949   3.587
 4516SOL    HW114000   3.404   3.970   3.680
 4516SOL    HW214001   3.326   3.882   3.584
 4517SOL     OW14002   2.501   3.844   1.966
 4517SOL    HW114003   2.566   3.776   1.980
 4517SOL    HW214004   2.450   3.814   1.891
 4518SOL     OW14005   2.627   4.003   3.618
 4518SOL    HW114006   2.705   3.948   3.616
 4518SOL    HW214007   2.579   3.972   3.695
 4519SOL     OW14008   3.201   4.313   3.294
 4519SOL    HW114009   3.232   4.282   3.379
 4519SOL    HW214010   3.238   4.401   3.286
 4520SOL     OW14011   2.677   5.116   2.800
 4520SOL    HW114012   2.757   5.105   2.749
 4520SOL    HW214013   2.607   5.124   2.735
 4521SOL     OW14014   2.791   4.233   2.764
 4521SOL    HW114015   2.766   4.225   2.671
 4521SOL    HW214016   2.821   4.146   2.789
 4522SOL     OW14017   2.412   3.787   2.361
 4522SOL    HW114018   2.332   3.787   2.414
 4522SOL    HW214019   2.405   3.865   2.306
 4523SOL     OW14020   3.290   4.925   1.899
 4523SOL    HW114021   3.319   4.849   1.950
 4523SOL    HW214022   3.202   4.943   1.931
 4524SOL     OW14023   2.153   3.772   2.047
 4524SOL    HW114024   2.211   3.836   2.007
 4524SOL    HW214025   2.212   3.709   2.090
 4525SOL     OW14026   2.802   3.972   2.320
 4525SOL    HW114027   2.777   4.012   2.236
 4525SOL    HW214028   2.897   3.987   2.325
 4526SOL     OW14029   2.942   4.406   3.321
 4526SOL    HW114030   2.875   4.338   3.325
 4526SOL    HW214031   3.025   4.359   3.314
 4527SOL     OW14032   3.126   5.266   2.639
 4527SOL    HW114033   3.078   0.046   2.616
 4527SOL    HW214034   3.173   5.288   2.719
 4528SOL     OW14035   2.329   4.873   2.589
 4528SOL    HW114036   2.262   4.852   2.654
 4528SOL    HW214037   2.286   4.857   2.505
 4529SOL     OW14038   2.884   4.262   1.887
 4529SOL    HW114039   2.841   4.346   1.867
 4529SOL    HW214040   2.950   4.285   1.953
 4530SOL     OW14041   1.943   4.278   3.254
 4530SOL    HW114042   2.035   4.277   3.228
 4530SOL    HW214043   1.938   4.348   3.320
 4531SOL     OW14044   2.420   3.952   3.030
 4531SOL    HW114045   2.462   3.876   3.071
 4531SOL    HW214046   2.329   3.947   3.059
 4532SOL     OW14047   2.728   4.182   2.501
 4532SOL    HW114048   2.684   4.238   2.437
 4532SOL    HW214049   2.751   4.103   2.453
 4533SOL     OW14050   2.880   3.778   2.611
 4533SOL    HW114051   2.821   3.772   2.536
 4533SOL    HW214052   2.856   3.703   2.666
 4534SOL     OW14053   3.302   4.890   2.721
 4534SOL    HW114054   3.234   4.823   2.718
 4534SOL    HW214055   3.328   4.902   2.630
 4535SOL     OW14056   3.328   4.331   2.835
 4535SOL    HW114057   3.274   4.252   2.838
 4535SOL    HW214058   3.386   4.324   2.910
 4536SOL     OW14059   3.705   4.537   2.246
 4536SOL    HW114060   3.763   4.487   2.304
 4536SOL    HW214061   3.678   4.475   2.179
 4537SOL     OW14062   2.338   5.151   2.009
 4537SOL    HW114063   2.280   5.098   2.064
 4537SOL    HW214064   2.350   5.099   1.930
 4538SOL     OW14065   3.533   4.987   2.507
 4538SOL    HW114066   3.626   4.992   2.525
 4538SOL    HW214067   3.500   5.075   2.522
 4539SOL     OW14068   3.256   4.296   1.933
 4539SOL    HW114069   3.195   4.276   2.004
 4539SOL    HW214070   3.340   4.265   1.965
 4540SOL     OW14071   2.387   3.987   2.177
 4540SOL    HW114072   2.435   3.941   2.108
 4540SOL    HW214073   2.363   4.070   2.138
 4541SOL     OW14074   3.612   4.960   3.433
 4541SOL    HW114075   3.697   4.917   3.434
 4541SOL    HW214076   3.631   5.053   3.444
 4542SOL     OW14077   2.926   5.073   3.190
 4542SOL    HW114078   2.847   5.048   3.238
 4542SOL    HW214079   2.998   5.034   3.241
 4543SOL     OW14080   2.990   4.926   2.969
 4543SOL    HW114081   2.942   4.968   3.040
 4543SOL    HW214082   2.942   4.950   2.890
 4544SOL     OW14083   3.489   4.821   2.937
 4544SOL    HW114084   3.484   4.883   3.011
 4544SOL    HW214085   3.412   4.841   2.884
 4545SOL     OW14086   2.779   3.821   3.257
 4545SOL    HW114087   2.802   3.800   3.167
 4545SOL    HW214088   2.859   3.859   3.294
 4546SOL     OW14089   2.846   4.839   3.588
 4546SOL    HW114090   2.754   4.855   3.608
 4546SOL    HW214091   2.846   4.762   3.531
 4547SOL     OW14092   2.568   4.784   2.233
 4547SOL    HW114093   2.554   4.767   2.326
 4547SOL    HW214094   2.645   4.733   2.209
 4548SOL     OW14095   2.282   4.540   3.114
 4548SOL    HW114096   2.350   4.550   3.180
 4548SOL    HW214097   2.247   4.452   3.127
 4549SOL     OW14098   3.126   4.099   3.140
 4549SOL    HW114099   3.159   4.177   3.186
 4549SOL    HW214100   3.035   4.121   3.118
 4550SOL     OW14101   2.203   4.836   2.350
 4550SOL    HW114102   2.204   4.908   2.288
 4550SOL    HW214103   2.203   4.757   2.295
 4551SOL     OW14104   2.412   4.258   2.722
 4551SOL    HW114105   2.427   4.317   2.647
 4551SOL    HW214106   2.478   4.284   2.785
 4552SOL     OW14107   3.122   5.079   2.248
 4552SOL    HW114108   3.179   5.146   2.286
 4552SOL    HW214109   3.034   5.103   2.278
 4553SOL     OW14110   3.134   5.183   3.003
 4553SOL    HW114111   3.193   5.198   3.078
 4553SOL    HW214112   3.090   5.100   3.024
 4554SOL     OW14113   3.442   4.345   2.343
 4554SOL    HW114114   3.393   4.396   2.408
 4554SOL    HW214115   3.487   4.410   2.290
 4555SOL     OW14116   2.211   5.236   3.174
 4555SOL    HW114117   2.199   5.200   3.086
 4555SOL    HW214118   2.304   5.256   3.180
 4556SOL     OW14119   2.278   4.469   3.464
 4556SOL    HW114120   2.341   4.512   3.407
 4556SOL    HW214121   2.315   4.383   3.481
 4557SOL     OW14122   3.467   4.504   3.546
 4557SOL    HW114123   3.381   4.545   3.540
 4557SOL    HW214124   3.519   4.546   3.478
 4558SOL     OW14125   2.858   3.855   3.616
 4558SOL    HW114126   2.915   3.927   3.593
 4558SOL    HW214127   2.906   3.776   3.590
 4559SOL     OW14128   2.359   3.765   3.611
 4559SOL    HW114129   2.315   3.709   3.547
 4559SOL    HW214130   2.300   3.839   3.623
 4560SOL     OW14131   2.446   4.597   2.894
 4560SOL    HW114132   2.477   4.687   2.894
 4560SOL    HW214133   2.390   4.590   2.971
 4561SOL     OW14134   3.215   4.582   2.886
 4561SOL    HW114135   3.131   4.569   2.844
 4561SOL    HW214136   3.259   4.497   2.879
 4562SOL     OW14137   3.064   4.252   2.127
 4562SOL    HW114138   3.073   4.174   2.181
 4562SOL    HW214139   3.021   4.316   2.183
 4563SOL     OW14140   2.160   3.922   3.109
 4563SOL    HW114141   2.123   3.953   3.192
 4563SOL    HW214142   2.142   3.828   3.109
 4564SOL     OW14143   1.918   5.048   3.147
 4564SOL    HW114144   1.940   4.982   3.212
 4564SOL    HW214145   1.952   5.130   3.184
 4565SOL     OW14146   2.584   4.353   2.917
 4565SOL    HW114147   2.660   4.339   2.861
 4565SOL    HW214148   2.556   4.443   2.897
 4566SOL     OW14149   3.598   4.684   3.717
 4566SOL    HW114150   3.554   4.619   3.662
 4566SOL    HW214151   3.538   4.699   3.789
 4567SOL     OW14152   2.167   3.787   2.486
 4567SOL    HW114153   2.146   3.877   2.508
 4567SOL    HW214154   2.175   3.743   2.571
 4568SOL     OW14155   3.481   4.100   2.226
 4568SOL    HW114156   3.509   4.036   2.291
 4568SOL    HW214157   3.458   4.178   2.277
 4569SOL     OW14158   2.890   4.483   2.822
 4569SOL    HW114159   2.884   4.500   2.916
 4569SOL    HW214160   2.864   4.391   2.812
 4570SOL     OW14161   3.715   5.213   3.443
 4570SOL    HW114162   3.704   5.292   3.390
 4570SOL    HW214163   3.785   5.235   3.504
 4571SOL     OW14164   2.215   4.641   3.671
 4571SOL    HW114165   2.296   4.659   3.718
 4571SOL    HW214166   2.240   4.578   3.603
 4572SOL     OW14167   3.390   3.996   1.989
 4572SOL    HW114168   3.325   3.931   2.016
 4572SOL    HW214169   3.423   4.032   2.071
 4573SOL     OW14170   3.151   4.549   1.892
 4573SOL    HW114171   3.194   4.464   1.896
 4573SOL    HW214172   3.183   4.588   1.810
 4574SOL     OW14173   2.918   5.084   2.680
 4574SOL    HW114174   2.925   4.997   2.641
 4574SOL    HW214175   3.006   5.121   2.671
 4575SOL     OW14176   2.170   4.532   2.808
 4575SOL    HW114177   2.263   4.552   2.802
 4575SOL    HW214178   2.167   4.442   2.840
 4576SOL     OW14179   2.191   4.253   2.874
 4576SOL    HW114180   2.156   4.164   2.861
 4576SOL    HW214181   2.268   4.257   2.818
 4577SOL     OW14182   2.996   4.098   3.546
 4577SOL    HW114183   2.947   4.153   3.608
 4577SOL    HW214184   3.083   4.138   3.542
 4578SOL     OW14185   3.023   3.923   3.335
 4578SOL    HW114186   3.012   3.987   3.405
 4578SOL    HW214187   3.064   3.973   3.264
 4579SOL     OW14188   1.868   5.038   2.053
 4579SOL    HW114189   1.777   5.056   2.029
 4579SOL    HW214190   1.866   4.950   2.090
 4580SOL     OW14191   2.840   4.514   3.087
 4580SOL    HW114192   2.899   4.493   3.160
 4580SOL    HW214193   2.756   4.475   3.112
 4581SOL     OW14194   1.898   4.271   2.978
 4581SOL    HW114195   1.978   4.259   2.928
 4581SOL    HW214196   1.927   4.273   3.070
 4582SOL     OW14197   2.054   4.245   3.591
 4582SOL    HW114198   2.108   4.202   3.525
 4582SOL    HW214199   2.015   4.320   3.546
 4583SOL     OW14200   3.240   4.660   3.519
 4583SOL    HW114201   3.261   4.753   3.516
 4583SOL    HW214202   3.236   4.632   3.428
 4584SOL     OW14203   2.679   4.293   2.226
 4584SOL    HW114204   2.683   4.219   2.165
 4584SOL    HW214205   2.605   4.345   2.194
 4585SOL     OW14206   3.503   4.325   3.045
 4585SOL    HW114207   3.493   4.267   3.120
 4585SOL    HW214208   3.591   4.306   3.011
 4586SOL     OW14209   2.066   5.275   3.608
 4586SOL    HW114210   2.046   0.026   3.687
 4586SOL    HW214211   2.079   5.186   3.640
 4587SOL     OW14212   2.569   4.172   3.118
 4587SOL    HW114213   2.513   4.099   3.091
 4587SOL    HW214214   2.563   4.235   3.047
 4588SOL     OW14215   2.324   4.216   2.046
 4588SOL    HW114216   2.383   4.288   2.069
 4588SOL    HW214217   2.239   4.258   2.034
 4589SOL     OW14218   2.005   4.863   3.333
 4589SOL    HW114219   2.007   4.813   3.415
 4589SOL    HW214220   2.023   4.798   3.266
 4590SOL     OW14221   3.187   4.767   3.082
 4590SOL    HW114222   3.209   4.705   3.013
 4590SOL    HW214223   3.117   4.821   3.045
 4591SOL     OW14224   3.175   4.582   2.167
 4591SOL    HW114225   3.101   4.549   2.218
 4591SOL    HW214226   3.149   4.568   2.076
 4592SOL     OW14227   1.958   4.987   2.884
 4592SOL    HW114228   1.937   5.006   2.975
 4592SOL    HW214229   1.878   4.949   2.848
 4593SOL     OW14230   2.617   0.035   3.571
 4593SOL    HW114231   2.525   0.057   3.583
 4593SOL    HW214232   2.637   0.062   3.481
 4594SOL     OW14233   3.582   3.874   2.369
 4594SOL    HW114234   3.654   3.859   2.308
 4594SOL    HW214235   3.566   3.789   2.409
 4595SOL     OW14236   3.139   4.651   2.534
 4595SOL    HW114237   3.213   4.590   2.543
 4595SOL    HW214238   3.174   4.722   2.480
 4596SOL     OW14239   2.677   4.993   3.275
 4596SOL    HW114240   2.645   5.028   3.358
 4596SOL    HW214241   2.602   5.000   3.216
 4597SOL     OW14242   3.703   3.896   2.828
 4597SOL    HW114243   3.732   3.808   2.802
 4597SOL    HW214244   3.617   3.905   2.788
 4598SOL     OW14245   2.122   4.038   2.578
 4598SOL    HW114246   2.036   4.074   2.555
 4598SOL    HW214247   2.120   4.032   2.673
 4599SOL     OW14248   2.687   4.726   3.233
 4599SOL    HW114249   2.735   4.717   3.150
 4599SOL    HW214250   2.690   4.820   3.252
 4600SOL     OW14251   2.778   4.636   2.153
 4600SOL    HW114252   2.839   4.669   2.087
 4600SOL    HW214253   2.827   4.567   2.198
 4601SOL     OW14254   2.226   5.027   3.359
 4601SOL    HW114255   2.215   5.100   3.298
 4601SOL    HW214256   2.150   4.971   3.342
 4602SOL     OW14257   3.474   5.004   3.144
 4602SOL    HW114258   3.530   4.995   3.221
 4602SOL    HW214259   3.411   5.072   3.168
 4603SOL     OW14260   2.921   4.835   2.576
 4603SOL    HW114261   2.848   4.784   2.611
 4603SOL    HW214262   2.983   4.769   2.546
 4604SOL     OW14263   2.884   3.965   2.828
 4604SOL    HW114264   2.881   3.917   2.745
 4604SOL    HW214265   2.879   3.896   2.895
 4605SOL     OW14266   3.586   4.116   3.243
 4605SOL    HW114267   3.658   4.179   3.242
 4605SOL    HW214268   3.616   4.045   3.186
 4606SOL     OW14269   2.121   5.049   2.147
 4606SOL    HW114270   2.029   5.050   2.119
 4606SOL    HW214271   2.121   5.096   2.231
 4607SOL     OW14272   1.975   4.750   3.583
 4607SOL    HW114273   1.899   4.725   3.635
 4607SOL    HW214274   2.049   4.711   3.627
 4608SOL     OW14275   2.537   3.922   3.362
 4608SOL    HW114276   2.621   3.900   3.321
 4608SOL    HW214277   2.560   3.954   3.449
 4609SOL     OW14278   1.942   4.055   1.896
 4609SOL    HW114279   1.854   4.036   1.861
 4609SOL    HW214280   1.971   4.131   1.846
 4610SOL     OW14281   3.290   4.581   3.261
 4610SOL    HW114282   3.241   4.642   3.205
 4610SOL    HW214283   3.379   4.584   3.226
 4611SOL     OW14284   1.927   3.879   2.168
 4611SOL    HW114285   1.914   3.959   2.117
 4611SOL    HW214286   2.013   3.846   2.140
 4612SOL     OW14287   3.044   5.061   1.983
 4612SOL    HW114288   2.953   5.031   1.985
 4612SOL    HW214289   3.072   5.054   2.075
 4613SOL     OW14290   2.482   4.554   3.296
 4613SOL    HW114291   2.539   4.629   3.280
 4613SOL    HW214292   2.541   4.480   3.304
 4614SOL     OW14293   2.580   4.285   3.564
 4614SOL    HW114294   2.623   4.346   3.625
 4614SOL    HW214295   2.602   4.199   3.598
 4615SOL     OW14296   3.338   4.919   3.491
 4615SOL    HW114297   3.324   4.933   3.585
 4615SOL    HW214298   3.431   4.935   3.478
 4616SOL     OW14299   3.529   4.604   3.117
 4616SOL    HW114300   3.524   4.519   3.074
 4616SOL    HW214301   3.519   4.668   3.046
 4617SOL     OW14302   3.078   4.043   2.320
 4617SOL    HW114303   3.141   3.971   2.312
 4617SOL    HW214304   3.107   4.092   2.396
 4618SOL     OW14305   2.450   4.460   2.534
 4618SOL    HW114306   2.490   4.546   2.519
 4618SOL    HW214307   2.384   4.452   2.465
 4619SOL     OW14308   3.621   4.087   3.514
 4619SOL    HW114309   3.606   4.103   3.421
 4619SOL    HW214310   3.549   4.030   3.541
 4620SOL     OW14311   3.608   4.657   3.373
 4620SOL    HW114312   3.600   4.752   3.386
 4620SOL    HW214313   3.592   4.644   3.280
 4621SOL     OW14314   2.709   5.094   1.882
 4621SOL    HW114315   2.693   5.094   1.977
 4621SOL    HW214316   2.720   5.186   1.860
 4622SOL     OW14317   2.731   4.694   2.716
 4622SOL    HW114318   2.780   4.621   2.756
 4622SOL    HW214319   2.694   4.740   2.791
 4623SOL     OW14320   2.942   4.714   1.952
 4623SOL    HW114321   2.919   4.764   1.874
 4623SOL    HW214322   3.015   4.659   1.925
 4624SOL     OW14323   2.084   5.021   3.713
 4624SOL    HW114324   2.018   4.956   3.687
 4624SOL    HW214325   2.071   5.030   3.808
 4625SOL     OW14326   1.950   4.953   2.532
 4625SOL    HW114327   1.949   4.902   2.613
 4625SOL    HW214328   2.013   4.908   2.476
 4626SOL     OW14329   2.536   5.102   3.470
 4626SOL    HW114330   2.459   5.072   3.518
 4626SOL    HW214331   2.570   5.175   3.522
 4627SOL     OW14332   3.674   3.907   3.099
 4627SOL    HW114333   3.683   3.813   3.113
 4627SOL    HW214334   3.684   3.919   3.005
 4628SOL     OW14335   2.291   4.158   2.388
 4628SOL    HW114336   2.321   4.087   2.331
 4628SOL    HW214337   2.242   4.113   2.457
 4629SOL     OW14338   3.568   5.225   2.980
 4629SOL    HW114339   3.495   5.208   2.921
 4629SOL    HW214340   3.575   5.147   3.034
 4630SOL     OW14341   2.194   4.281   3.154
 4630SOL    HW114342   2.249   4.226   3.209
 4630SOL    HW214343   2.213   4.252   3.065
 4631SOL     OW14344   3.293   3.951   2.979
 4631SOL    HW114345   3.315   3.869   3.024
 4631SOL    HW214346   3.241   4.000   3.044
 4632SOL     OW14347   2.871   3.742   3.002
 4632SOL    HW114348   2.815   3.674   2.963
 4632SOL    HW214349   2.958   3.704   3.004
 4633SOL     OW14350   2.668   5.046   2.147
 4633SOL    HW114351   2.612   4.971   2.168
 4633SOL    HW214352   2.723   5.057   2.224
 4634SOL     OW14353   2.484   5.300   3.157
 4634SOL    HW114354   2.489   0.054   3.235
 4634SOL    HW214355   2.575   5.280   3.135
 4635SOL     OW14356   3.216   3.777   2.030
 4635SOL    HW114357   3.246   3.710   1.968
 4635SOL    HW214358   3.128   3.749   2.054
 4636SOL     OW14359   3.158   4.186   2.541
 4636SOL    HW114360   3.105   4.266   2.547
 4636SOL    HW214361   3.153   4.147   2.629
 4637SOL     OW14362   3.448   3.923   2.742
 4637SOL    HW114363   3.390   3.946   2.814
 4637SOL    HW214364   3.447   4.000   2.686
 4638SOL     OW14365   1.904   4.792   2.171
 4638SOL    HW114366   1.998   4.785   2.154
 4638SOL    HW214367   1.878   4.702   2.192
 4639SOL     OW14368   2.089   4.348   3.849
 4639SOL    HW114369   2.000   4.345   3.884
 4639SOL    HW214370   2.080   4.323   3.757
 4640SOL     OW14371   2.087   4.007   4.716
 4640SOL    HW114372   2.115   3.972   4.801
 4640SOL    HW214373   1.997   3.974   4.705
 4641SOL     OW14374   1.864   4.107   4.362
 4641SOL    HW114375   1.782   4.133   4.404
 4641SOL    HW214376   1.842   4.029   4.312
 4642SOL     OW14377   2.430   5.010   4.907
 4642SOL    HW114378   2.345   5.006   4.863
 4642SOL    HW214379   2.441   5.102   4.931
 4643SOL     OW14380   3.419   5.233   4.413
 4643SOL    HW114381   3.403   5.229   4.507
 4643SOL    HW214382   3.338   5.269   4.376
 4644SOL     OW14383   2.993   4.422   4.422
 4644SOL    HW114384   3.042   4.503   4.409
 4644SOL    HW214385   2.946   4.435   4.505
 4645SOL     OW14386   3.632   4.327   3.951
 4645SOL    HW114387   3.609   4.321   3.859
 4645SOL    HW214388   3.595   4.248   3.990
 4646SOL     OW14389   2.615   4.866   4.765
 4646SOL    HW114390   2.549   4.899   4.826
 4646SOL    HW214391   2.646   4.944   4.719
 4647SOL     OW14392   2.733   4.493   5.547
 4647SOL    HW114393   2.719   4.564   5.610
 4647SOL    HW214394   2.756   4.537   5.465
 4648SOL     OW14395   2.548   4.723   4.370
 4648SOL    HW114396   2.613   4.715   4.439
 4648SOL    HW214397   2.479   4.778   4.409
 4649SOL     OW14398   2.571   4.870   5.538
 4649SOL    HW114399   2.619   4.950   5.562
 4649SOL    HW214400   2.489   4.902   5.501
 4650SOL     OW14401   2.199   5.145   4.782
 4650SOL    HW114402   2.120   5.100   4.752
 4650SOL    HW214403   2.234   5.187   4.704
 4651SOL     OW14404   3.316   5.222   5.072
 4651SOL    HW114405   3.371   5.294   5.103
 4651SOL    HW214406   3.249   5.213   5.139
 4652SOL     OW14407   2.313   4.121   5.207
 4652SOL    HW114408   2.387   4.061   5.214
 4652SOL    HW214409   2.236   4.066   5.223
 4653SOL     OW14410   3.472   4.169   4.466
 4653SOL    HW114411   3.398   4.190   4.408
 4653SOL    HW214412   3.483   4.248   4.520
 4654SOL     OW14413   2.995   5.074   5.428
 4654SOL    HW114414   3.024   5.075   5.519
 4654SOL    HW214415   2.942   4.995   5.420
 4655SOL     OW14416   2.071   5.159   4.245
 4655SOL    HW114417   2.101   5.237   4.292
 4655SOL    HW214418   2.022   5.110   4.311
 4656SOL     OW14419   2.125   4.811   4.617
 4656SOL    HW114420   2.121   4.723   4.654
 4656SOL    HW214421   2.067   4.863   4.673
 4657SOL     OW14422   2.443   4.706   3.861
 4657SOL    HW114423   2.492   4.752   3.792
 4657SOL    HW214424   2.482   4.737   3.942
 4658SOL     OW14425   3.457   3.848   5.191
 4658SOL    HW114426   3.475   3.929   5.142
 4658SOL    HW214427   3.441   3.878   5.280
 4659SOL     OW14428   1.978   4.378   4.284
 4659SOL    HW114429   1.949   4.289   4.305
 4659SOL    HW214430   1.970   4.426   4.366
 4660SOL     OW14431   1.849   0.012   3.820
 4660SOL    HW114432   1.863   5.223   3.852
 4660SOL    HW214433   1.869   0.068   3.894
 4661SOL     OW14434   3.550   4.641   4.367
 4661SOL    HW114435   3.633   4.598   4.344
 4661SOL    HW214436   3.528   4.693   4.289
 4662SOL     OW14437   3.509   4.829   4.154
 4662SOL    HW114438   3.595   4.831   4.112
 4662SOL    HW214439   3.516   4.891   4.226
 4663SOL     OW14440   1.986   4.467   5.309
 4663SOL    HW114441   2.077   4.495   5.314
 4663SOL    HW214442   1.936   4.548   5.316
 4664SOL     OW14443   2.486   5.099   4.464
 4664SOL    HW114444   2.432   5.020   4.460
 4664SOL    HW214445   2.467   5.145   4.382
 4665SOL     OW14446   3.150   4.952   5.149
 4665SOL    HW114447   3.183   4.886   5.088
 4665SOL    HW214448   3.211   4.950   5.223
 4666SOL     OW14449   2.680   3.728   4.254
 4666SOL    HW114450   2.720   3.810   4.223
 4666SOL    HW214451   2.586   3.746   4.254
 4667SOL     OW14452   2.051   4.687   4.997
 4667SOL    HW114453   2.136   4.646   4.982
 4667SOL    HW214454   1.990   4.635   4.944
 4668SOL     OW14455   3.392   4.722   3.922
 4668SOL    HW114456   3.323   4.664   3.955
 4668SOL    HW214457   3.435   4.755   4.001
 4669SOL     OW14458   2.199   3.973   5.543
 4669SOL    HW114459   2.241   4.058   5.560
 4669SOL    HW214460   2.108   3.985   5.569
 4670SOL     OW14461   3.341   5.148   4.685
 4670SOL    HW114462   3.268   5.160   4.746
 4670SOL    HW214463   3.329   5.059   4.651
 4671SOL     OW14464   2.457   4.443   3.992
 4671SOL    HW114465   2.462   4.525   3.944
 4671SOL    HW214466   2.392   4.459   4.061
 4672SOL     OW14467   3.140   4.082   4.657
 4672SOL    HW114468   3.051   4.049   4.666
 4672SOL    HW214469   3.192   4.027   4.717
 4673SOL     OW14470   2.653   4.342   5.173
 4673SOL    HW114471   2.628   4.317   5.262
 4673SOL    HW214472   2.616   4.274   5.117
 4674SOL     OW14473   3.255   4.198   5.402
 4674SOL    HW114474   3.258   4.243   5.486
 4674SOL    HW214475   3.315   4.124   5.412
 4675SOL     OW14476   2.815   4.611   5.309
 4675SOL    HW114477   2.870   4.542   5.272
 4675SOL    HW214478   2.766   4.645   5.233
 4676SOL     OW14479   2.855   4.135   4.961
 4676SOL    HW114480   2.767   4.155   4.994
 4676SOL    HW214481   2.839   4.092   4.877
 4677SOL     OW14482   2.914   4.422   4.149
 4677SOL    HW114483   2.931   4.415   4.243
 4677SOL    HW214484   2.831   4.376   4.136
 4678SOL     OW14485   1.950   4.545   4.501
 4678SOL    HW114486   2.030   4.538   4.552
 4678SOL    HW214487   1.906   4.623   4.536
 4679SOL     OW14488   2.759   4.074   3.920
 4679SOL    HW114489   2.798   4.136   3.859
 4679SOL    HW214490   2.766   3.989   3.876
 4680SOL     OW14491   3.568   4.296   5.553
 4680SOL    HW114492   3.531   4.370   5.504
 4680SOL    HW214493   3.597   4.235   5.485
 4681SOL     OW14494   3.241   4.863   4.262
 4681SOL    HW114495   3.323   4.850   4.214
 4681SOL    HW214496   3.191   4.925   4.208
 4682SOL     OW14497   2.412   3.902   4.619
 4682SOL    HW114498   2.414   3.933   4.709
 4682SOL    HW214499   2.412   3.981   4.566
 4683SOL     OW14500   2.882   5.167   4.197
 4683SOL    HW114501   2.806   5.226   4.197
 4683SOL    HW214502   2.898   5.150   4.290
 4684SOL     OW14503   3.663   4.778   4.591
 4684SOL    HW114504   3.608   4.760   4.516
 4684SOL    HW214505   3.603   4.786   4.665
 4685SOL     OW14506   3.114   5.240   5.250
 4685SOL    HW114507   3.078   5.173   5.309
 4685SOL    HW214508   3.040   5.267   5.196
 4686SOL     OW14509   2.180   4.681   3.976
 4686SOL    HW114510   2.262   4.700   3.931
 4686SOL    HW214511   2.150   4.599   3.937
 4687SOL     OW14512   3.342   4.470   4.449
 4687SOL    HW114513   3.336   4.429   4.536
 4687SOL    HW214514   3.420   4.525   4.454
 4688SOL     OW14515   2.327   4.988   5.466
 4688SOL    HW114516   2.300   4.991   5.374
 4688SOL    HW214517   2.244   4.987   5.514
 4689SOL     OW14518   2.925   0.176   3.925
 4689SOL    HW114519   2.943   0.101   3.982
 4689SOL    HW214520   2.946   0.145   3.837
 4690SOL     OW14521   2.064   4.002   5.227
 4690SOL    HW114522   1.982   4.051   5.224
 4690SOL    HW214523   2.043   3.924   5.278
 4691SOL     OW14524   3.483   5.102   3.835
 4691SOL    HW114525   3.489   5.173   3.770
 4691SOL    HW214526   3.416   5.044   3.800
 4692SOL     OW14527   3.262   3.831   4.160
 4692SOL    HW114528   3.253   3.806   4.068
 4692SOL    HW214529   3.357   3.837   4.173
 4693SOL     OW14530   2.257   4.419   4.199
 4693SOL    HW114531   2.276   4.326   4.211
 4693SOL    HW214532   2.163   4.427   4.215
 4694SOL     OW14533   3.394   3.949   5.449
 4694SOL    HW114534   3.405   3.969   5.542
 4694SOL    HW214535   3.324   3.884   5.446
 4695SOL     OW14536   2.503   3.844   3.827
 4695SOL    HW114537   2.565   3.773   3.843
 4695SOL    HW214538   2.451   3.814   3.753
 4696SOL     OW14539   2.627   4.002   5.479
 4696SOL    HW114540   2.705   3.947   5.478
 4696SOL    HW214541   2.580   3.976   5.558
 4697SOL     OW14542   3.201   4.313   5.156
 4697SOL    HW114543   3.232   4.282   5.241
 4697SOL    HW214544   3.238   4.401   5.147
 4698SOL     OW14545   2.677   5.116   4.662
 4698SOL    HW114546   2.757   5.105   4.611
 4698SOL    HW214547   2.607   5.124   4.597
 4699SOL     OW14548   2.790   4.233   4.626
 4699SOL    HW114549   2.766   4.225   4.533
 4699SOL    HW214550   2.821   4.146   4.650
 4700SOL     OW14551   2.414   3.788   4.223
 4700SOL    HW114552   2.333   3.787   4.274
 4700SOL    HW214553   2.407   3.865   4.167
 4701SOL     OW14554   3.290   4.925   3.761
 4701SOL    HW114555   3.319   4.849   3.812
 4701SOL    HW214556   3.202   4.943   3.793
 4702SOL     OW14557   2.151   3.774   3.907
 4702SOL    HW114558   2.209   3.838   3.866
 4702SOL    HW214559   2.209   3.712   3.950
 4703SOL     OW14560   2.802   3.971   4.182
 4703SOL    HW114561   2.776   4.011   4.098
 4703SOL    HW214562   2.897   3.986   4.187
 4704SOL     OW14563   2.942   4.407   5.183
 4704SOL    HW114564   2.875   4.339   5.187
 4704SOL    HW214565   3.025   4.359   5.176
 4705SOL     OW14566   3.126   5.266   4.501
 4705SOL    HW114567   3.078   0.046   4.478
 4705SOL    HW214568   3.173   5.288   4.581
 4706SOL     OW14569   2.329   4.873   4.451
 4706SOL    HW114570   2.262   4.852   4.516
 4706SOL    HW214571   2.286   4.857   4.367
 4707SOL     OW14572   2.885   4.263   3.749
 4707SOL    HW114573   2.841   4.346   3.729
 4707SOL    HW214574   2.950   4.285   3.815
 4708SOL     OW14575   1.943   4.278   5.117
 4708SOL    HW114576   2.035   4.277   5.090
 4708SOL    HW214577   1.938   4.348   5.182
 4709SOL     OW14578   2.420   3.952   4.892
 4709SOL    HW114579   2.462   3.877   4.936
 4709SOL    HW214580   2.329   3.948   4.921
 4710SOL     OW14581   2.728   4.182   4.363
 4710SOL    HW114582   2.684   4.238   4.299
 4710SOL    HW214583   2.751   4.103   4.314
 4711SOL     OW14584   2.876   3.778   4.476
 4711SOL    HW114585   2.817   3.772   4.401
 4711SOL    HW214586   2.854   3.702   4.531
 4712SOL     OW14587   3.302   4.890   4.583
 4712SOL    HW114588   3.234   4.823   4.579
 4712SOL    HW214589   3.329   4.902   4.492
 4713SOL     OW14590   3.328   4.332   4.697
 4713SOL    HW114591   3.274   4.252   4.700
 4713SOL    HW214592   3.386   4.324   4.772
 4714SOL     OW14593   3.705   4.537   4.108
 4714SOL    HW114594   3.763   4.487   4.166
 4714SOL    HW214595   3.678   4.475   4.041
 4715SOL     OW14596   2.338   5.151   3.871
 4715SOL    HW114597   2.280   5.098   3.926
 4715SOL    HW214598   2.350   5.099   3.792
 4716SOL     OW14599   3.533   4.986   4.369
 4716SOL    HW114600   3.626   4.992   4.387
 4716SOL    HW214601   3.500   5.075   4.384
 4717SOL     OW14602   3.256   4.296   3.795
 4717SOL    HW114603   3.195   4.276   3.866
 4717SOL    HW214604   3.340   4.264   3.827
 4718SOL     OW14605   2.388   3.986   4.039
 4718SOL    HW114606   2.436   3.941   3.969
 4718SOL    HW214607   2.363   4.070   4.000
 4719SOL     OW14608   3.612   4.960   5.295
 4719SOL    HW114609   3.697   4.917   5.296
 4719SOL    HW214610   3.631   5.053   5.306
 4720SOL     OW14611   2.926   5.072   5.052
 4720SOL    HW114612   2.847   5.048   5.100
 4720SOL    HW214613   2.998   5.034   5.103
 4721SOL     OW14614   2.990   4.926   4.831
 4721SOL    HW114615   2.942   4.968   4.902
 4721SOL    HW214616   2.942   4.951   4.751
 4722SOL     OW14617   3.489   4.821   4.800
 4722SOL    HW114618   3.484   4.883   4.873
 4722SOL    HW214619   3.412   4.841   4.746
 4723SOL     OW14620   2.781   3.820   5.118
 4723SOL    HW114621   2.803   3.801   5.027
 4723SOL    HW214622   2.860   3.860   5.155
 4724SOL     OW14623   2.846   4.839   5.450
 4724SOL    HW114624   2.754   4.855   5.470
 4724SOL    HW214625   2.846   4.762   5.393
 4725SOL     OW14626   2.568   4.784   4.095
 4725SOL    HW114627   2.554   4.767   4.188
 4725SOL    HW214628   2.645   4.733   4.071
 4726SOL     OW14629   2.282   4.540   4.976
 4726SOL    HW114630   2.350   4.550   5.042
 4726SOL    HW214631   2.247   4.452   4.989
 4727SOL     OW14632   3.126   4.099   5.002
 4727SOL    HW114633   3.159   4.177   5.047
 4727SOL    HW214634   3.035   4.121   4.980
 4728SOL     OW14635   2.203   4.835   4.212
 4728SOL    HW114636   2.204   4.908   4.150
 4728SOL    HW214637   2.203   4.757   4.157
 4729SOL     OW14638   2.412   4.259   4.584
 4729SOL    HW114639   2.426   4.317   4.509
 4729SOL    HW214640   2.479   4.284   4.648
 4730SOL     OW14641   3.122   5.079   4.110
 4730SOL    HW114642   3.179   5.146   4.148
 4730SOL    HW214643   3.034   5.103   4.140
 4731SOL     OW14644   3.134   5.183   4.865
 4731SOL    HW114645   3.193   5.198   4.939
 4731SOL    HW214646   3.090   5.101   4.886
 4732SOL     OW14647   3.442   4.344   4.206
 4732SOL    HW114648   3.393   4.396   4.270
 4732SOL    HW214649   3.487   4.409   4.151
 4733SOL     OW14650   2.211   5.236   5.036
 4733SOL    HW114651   2.199   5.200   4.948
 4733SOL    HW214652   2.304   5.256   5.042
 4734SOL     OW14653   2.278   4.469   5.326
 4734SOL    HW114654   2.341   4.513   5.269
 4734SOL    HW214655   2.316   4.383   5.343
 4735SOL     OW14656   3.467   4.504   5.408
 4735SOL    HW114657   3.381   4.545   5.402
 4735SOL    HW214658   3.519   4.545   5.340
 4736SOL     OW14659   2.858   3.852   5.478
 4736SOL    HW114660   2.915   3.924   5.454
 4736SOL    HW214661   2.906   3.773   5.453
 4737SOL     OW14662   2.359   3.762   5.473
 4737SOL    HW114663   2.313   3.708   5.408
 4737SOL    HW214664   2.302   3.837   5.486
 4738SOL     OW14665   2.447   4.596   4.756
 4738SOL    HW114666   2.477   4.687   4.755
 4738SOL    HW214667   2.390   4.590   4.833
 4739SOL     OW14668   3.215   4.582   4.748
 4739SOL    HW114669   3.131   4.569   4.705
 4739SOL    HW214670   3.259   4.497   4.741
 4740SOL     OW14671   3.065   4.252   3.989
 4740SOL    HW114672   3.072   4.173   4.043
 4740SOL    HW214673   3.021   4.316   4.045
 4741SOL     OW14674   2.160   3.922   4.971
 4741SOL    HW114675   2.122   3.954   5.053
 4741SOL    HW214676   2.142   3.828   4.972
 4742SOL     OW14677   1.918   5.048   5.009
 4742SOL    HW114678   1.940   4.982   5.074
 4742SOL    HW214679   1.952   5.130   5.046
 4743SOL     OW14680   2.584   4.354   4.780
 4743SOL    HW114681   2.660   4.340   4.723
 4743SOL    HW214682   2.556   4.443   4.760
 4744SOL     OW14683   3.598   4.683   5.579
 4744SOL    HW114684   3.554   4.619   5.524
 4744SOL    HW214685   3.538   4.699   5.651
 4745SOL     OW14686   2.167   3.788   4.346
 4745SOL    HW114687   2.146   3.878   4.368
 4745SOL    HW214688   2.174   3.743   4.431
 4746SOL     OW14689   3.481   4.100   4.088
 4746SOL    HW114690   3.509   4.035   4.153
 4746SOL    HW214691   3.458   4.177   4.140
 4747SOL     OW14692   2.890   4.483   4.683
 4747SOL    HW114693   2.884   4.500   4.777
 4747SOL    HW214694   2.864   4.391   4.674
 4748SOL     OW14695   3.715   5.213   5.305
 4748SOL    HW114696   3.703   5.292   5.252
 4748SOL    HW214697   3.785   5.235   5.366
 4749SOL     OW14698   2.215   4.641   5.533
 4749SOL    HW114699   2.296   4.659   5.580
 4749SOL    HW214700   2.240   4.578   5.465
 4750SOL     OW14701   3.390   3.997   3.851
 4750SOL    HW114702   3.325   3.932   3.877
 4750SOL    HW214703   3.423   4.033   3.933
 4751SOL     OW14704   3.152   4.549   3.754
 4751SOL    HW114705   3.194   4.464   3.758
 4751SOL    HW214706   3.183   4.588   3.672
 4752SOL     OW14707   2.918   5.084   4.543
 4752SOL    HW114708   2.925   4.997   4.503
 4752SOL    HW214709   3.006   5.121   4.533
 4753SOL     OW14710   2.170   4.532   4.671
 4753SOL    HW114711   2.263   4.552   4.663
 4753SOL    HW214712   2.168   4.442   4.702
 4754SOL     OW14713   2.191   4.252   4.737
 4754SOL    HW114714   2.156   4.164   4.723
 4754SOL    HW214715   2.268   4.257   4.680
 4755SOL     OW14716   2.996   4.097   5.409
 4755SOL    HW114717   2.947   4.152   5.470
 4755SOL    HW214718   3.083   4.137   5.404
 4756SOL     OW14719   3.023   3.924   5.195
 4756SOL    HW114720   3.012   3.987   5.266
 4756SOL    HW214721   3.064   3.975   5.125
 4757SOL     OW14722   1.868   5.038   3.915
 4757SOL    HW114723   1.777   5.056   3.891
 4757SOL    HW214724   1.866   4.950   3.952
 4758SOL     OW14725   2.840   4.513   4.949
 4758SOL    HW114726   2.899   4.493   5.022
 4758SOL    HW214727   2.756   4.475   4.975
 4759SOL     OW14728   1.898   4.271   4.841
 4759SOL    HW114729   1.978   4.259   4.790
 4759SOL    HW214730   1.927   4.272   4.932
 4760SOL     OW14731   2.054   4.245   5.453
 4760SOL    HW114732   2.108   4.202   5.386
 4760SOL    HW214733   2.015   4.320   5.409
 4761SOL     OW14734   3.240   4.660   5.381
 4761SOL    HW114735   3.261   4.753   5.378
 4761SOL    HW214736   3.236   4.633   5.290
 4762SOL     OW14737   2.679   4.294   4.088
 4762SOL    HW114738   2.684   4.220   4.028
 4762SOL    HW214739   2.605   4.345   4.056
 4763SOL     OW14740   3.503   4.325   4.907
 4763SOL    HW114741   3.493   4.267   4.982
 4763SOL    HW214742   3.591   4.306   4.873
 4764SOL     OW14743   2.066   5.275   5.470
 4764SOL    HW114744   2.046   0.026   5.549
 4764SOL    HW214745   2.078   5.186   5.502
 4765SOL     OW14746   2.569   4.172   4.980
 4765SOL    HW114747   2.513   4.099   4.952
 4765SOL    HW214748   2.563   4.235   4.909
 4766SOL     OW14749   2.324   4.216   3.909
 4766SOL    HW114750   2.383   4.288   3.932
 4766SOL    HW214751   2.239   4.258   3.897
 4767SOL     OW14752   2.005   4.863   5.196
 4767SOL    HW114753   2.007   4.813   5.277
 4767SOL    HW214754   2.023   4.798   5.128
 4768SOL     OW14755   3.187   4.767   4.945
 4768SOL    HW114756   3.209   4.705   4.875
 4768SOL    HW214757   3.117   4.821   4.907
 4769SOL     OW14758   3.175   4.582   4.029
 4769SOL    HW114759   3.100   4.549   4.080
 4769SOL    HW214760   3.150   4.567   3.938
 4770SOL     OW14761   1.958   4.987   4.746
 4770SOL    HW114762   1.937   5.006   4.837
 4770SOL    HW214763   1.878   4.949   4.710
 4771SOL     OW14764   2.617   0.035   5.433
 4771SOL    HW114765   2.525   0.057   5.445
 4771SOL    HW214766   2.637   0.062   5.343
 4772SOL     OW14767   3.583   3.875   4.232
 4772SOL    HW114768   3.655   3.860   4.169
 4772SOL    HW214769   3.567   3.789   4.271
 4773SOL     OW14770   3.139   4.651   4.396
 4773SOL    HW114771   3.213   4.590   4.405
 4773SOL    HW214772   3.174   4.722   4.342
 4774SOL     OW14773   2.677   4.993   5.137
 4774SOL    HW114774   2.645   5.028   5.221
 4774SOL    HW214775   2.602   5.001   5.078
 4775SOL     OW14776   3.703   3.896   4.691
 4775SOL    HW114777   3.732   3.809   4.664
 4775SOL    HW214778   3.617   3.906   4.650
 4776SOL     OW14779   2.122   4.038   4.440
 4776SOL    HW114780   2.036   4.074   4.416
 4776SOL    HW214781   2.120   4.032   4.535
 4777SOL     OW14782   2.687   4.726   5.095
 4777SOL    HW114783   2.734   4.718   5.012
 4777SOL    HW214784   2.690   4.820   5.114
 4778SOL     OW14785   2.779   4.636   4.015
 4778SOL    HW114786   2.839   4.669   3.949
 4778SOL    HW214787   2.827   4.567   4.060
 4779SOL     OW14788   2.226   5.027   5.221
 4779SOL    HW114789   2.215   5.100   5.160
 4779SOL    HW214790   2.150   4.971   5.204
 4780SOL     OW14791   3.474   5.004   5.006
 4780SOL    HW114792   3.530   4.995   5.083
 4780SOL    HW214793   3.411   5.072   5.029
 4781SOL     OW14794   2.921   4.835   4.438
 4781SOL    HW114795   2.848   4.784   4.473
 4781SOL    HW214796   2.983   4.769   4.408
 4782SOL     OW14797   2.884   3.965   4.691
 4782SOL    HW114798   2.880   3.918   4.608
 4782SOL    HW214799   2.879   3.897   4.758
 4783SOL     OW14800   3.586   4.116   5.105
 4783SOL    HW114801   3.658   4.179   5.104
 4783SOL    HW214802   3.616   4.045   5.048
 4784SOL     OW14803   2.121   5.049   4.009
 4784SOL    HW114804   2.029   5.050   3.981
 4784SOL    HW214805   2.121   5.096   4.093
 4785SOL     OW14806   1.975   4.750   5.445
 4785SOL    HW114807   1.899   4.725   5.497
 4785SOL    HW214808   2.049   4.710   5.490
 4786SOL     OW14809   2.537   3.919   5.224
 4786SOL    HW114810   2.622   3.899   5.183
 4786SOL    HW214811   2.560   3.952   5.311
 4787SOL     OW14812   1.941   4.056   3.758
 4787SOL    HW114813   1.854   4.037   3.723
 4787SOL    HW214814   1.971   4.132   3.708
 4788SOL     OW14815   3.290   4.581   5.122
 4788SOL    HW114816   3.241   4.642   5.067
 4788SOL    HW214817   3.379   4.584   5.088
 4789SOL     OW14818   1.927   3.880   4.031
 4789SOL    HW114819   1.914   3.960   3.980
 4789SOL    HW214820   2.012   3.846   4.001
 4790SOL     OW14821   3.044   5.061   3.845
 4790SOL    HW114822   2.953   5.031   3.847
 4790SOL    HW214823   3.072   5.054   3.937
 4791SOL     OW14824   2.482   4.554   5.158
 4791SOL    HW114825   2.539   4.630   5.142
 4791SOL    HW214826   2.542   4.480   5.166
 4792SOL     OW14827   2.580   4.286   5.426
 4792SOL    HW114828   2.623   4.347   5.486
 4792SOL    HW214829   2.603   4.200   5.460
 4793SOL     OW14830   3.338   4.919   5.353
 4793SOL    HW114831   3.324   4.933   5.447
 4793SOL    HW214832   3.431   4.935   5.340
 4794SOL     OW14833   3.529   4.604   4.979
 4794SOL    HW114834   3.524   4.519   4.935
 4794SOL    HW214835   3.519   4.668   4.908
 4795SOL     OW14836   3.078   4.043   4.182
 4795SOL    HW114837   3.141   3.971   4.174
 4795SOL    HW214838   3.107   4.092   4.258
 4796SOL     OW14839   2.450   4.460   4.396
 4796SOL    HW114840   2.490   4.546   4.381
 4796SOL    HW214841   2.384   4.452   4.327
 4797SOL     OW14842   3.622   4.086   5.376
 4797SOL    HW114843   3.606   4.103   5.283
 4797SOL    HW214844   3.549   4.030   5.403
 4798SOL     OW14845   3.608   4.657   5.235
 4798SOL    HW114846   3.600   4.752   5.248
 4798SOL    HW214847   3.592   4.644   5.142
 4799SOL     OW14848   2.709   5.094   3.745
 4799SOL    HW114849   2.693   5.094   3.839
 4799SOL    HW214850   2.720   5.186   3.722
 4800SOL     OW14851   2.731   4.694   4.579
 4800SOL    HW114852   2.780   4.621   4.618
 4800SOL    HW214853   2.694   4.741   4.653
 4801SOL     OW14854   2.942   4.714   3.814
 4801SOL    HW114855   2.919   4.764   3.736
 4801SOL    HW214856   3.015   4.659   3.787
 4802SOL     OW14857   2.084   5.021   5.576
 4802SOL    HW114858   2.018   4.956   5.549
 4802SOL    HW214859   2.071   5.030   5.670
 4803SOL     OW14860   1.950   4.953   4.394
 4803SOL    HW114861   1.949   4.902   4.475
 4803SOL    HW214862   2.013   4.908   4.338
 4804SOL     OW14863   2.536   5.102   5.332
 4804SOL    HW114864   2.458   5.072   5.380
 4804SOL    HW214865   2.569   5.175   5.384
 4805SOL     OW14866   3.673   3.907   4.961
 4805SOL    HW114867   3.684   3.813   4.974
 4805SOL    HW214868   3.683   3.919   4.867
 4806SOL     OW14869   2.291   4.158   4.250
 4806SOL    HW114870   2.322   4.087   4.193
 4806SOL    HW214871   2.242   4.113   4.319
 4807SOL     OW14872   3.568   5.225   4.842
 4807SOL    HW114873   3.495   5.209   4.783
 4807SOL    HW214874   3.575   5.146   4.896
 4808SOL     OW14875   2.194   4.282   5.016
 4808SOL    HW114876   2.249   4.226   5.071
 4808SOL    HW214877   2.212   4.253   4.927
 4809SOL     OW14878   3.292   3.950   4.842
 4809SOL    HW114879   3.319   3.872   4.890
 4809SOL    HW214880   3.240   4.000   4.905
 4810SOL     OW14881   2.872   3.740   4.863
 4810SOL    HW114882   2.817   3.671   4.826
 4810SOL    HW214883   2.960   3.703   4.866
 4811SOL     OW14884   2.668   5.046   4.009
 4811SOL    HW114885   2.612   4.971   4.030
 4811SOL    HW214886   2.723   5.057   4.086
 4812SOL     OW14887   2.484   5.300   5.019
 4812SOL    HW114888   2.489   0.054   5.097
 4812SOL    HW214889   2.575   5.280   4.997
 4813SOL     OW14890   3.218   3.778   3.891
 4813SOL    HW114891   3.251   3.709   3.833
 4813SOL    HW214892   3.129   3.749   3.914
 4814SOL     OW14893   3.158   4.186   4.403
 4814SOL    HW114894   3.106   4.266   4.409
 4814SOL    HW214895   3.154   4.148   4.491
 4815SOL     OW14896   3.447   3.923   4.604
 4815SOL    HW114897   3.389   3.946   4.676
 4815SOL    HW214898   3.447   4.000   4.547
 4816SOL     OW14899   1.904   4.792   4.033
 4816SOL    HW114900   1.998   4.785   4.015
 4816SOL    HW214901   1.878   4.702   4.054
 4817SOL     OW14902   2.089   4.348   5.711
 4817SOL    HW114903   2.000   4.345   5.746
 4817SOL    HW214904   2.080   4.323   5.619
 4818SOL     OW14905   2.086   4.007   6.578
 4818SOL    HW114906   2.115   3.971   6.663
 4818SOL    HW214907   1.997   3.975   6.568
 4819SOL     OW14908   1.864   4.108   6.224
 4819SOL    HW114909   1.782   4.133   6.266
 4819SOL    HW214910   1.842   4.029   6.175
 4820SOL     OW14911   2.430   5.010   6.769
 4820SOL    HW114912   2.345   5.006   6.725
 4820SOL    HW214913   2.441   5.102   6.792
 4821SOL     OW14914   3.419   5.233   6.275
 4821SOL    HW114915   3.403   5.229   6.369
 4821SOL    HW214916   3.338   5.268   6.238
 4822SOL     OW14917   2.993   4.422   6.284
 4822SOL    HW114918   3.041   4.504   6.271
 4822SOL    HW214919   2.946   4.435   6.366
 4823SOL     OW14920   3.632   4.327   5.813
 4823SOL    HW114921   3.609   4.320   5.720
 4823SOL    HW214922   3.595   4.248   5.853
 4824SOL     OW14923   2.614   4.866   6.627
 4824SOL    HW114924   2.549   4.899   6.688
 4824SOL    HW214925   2.646   4.944   6.581
 4825SOL     OW14926   2.732   4.494   7.406
 4825SOL    HW114927   2.716   4.568   7.465
 4825SOL    HW214928   2.757   4.535   7.323
 4826SOL     OW14929   2.548   4.724   6.232
 4826SOL    HW114930   2.613   4.715   6.301
 4826SOL    HW214931   2.479   4.778   6.271
 4827SOL     OW14932   2.571   4.871   7.399
 4827SOL    HW114933   2.619   4.950   7.423
 4827SOL    HW214934   2.489   4.903   7.362
 4828SOL     OW14935   2.199   5.145   6.644
 4828SOL    HW114936   2.120   5.100   6.614
 4828SOL    HW214937   2.234   5.187   6.566
 4829SOL     OW14938   3.316   5.222   6.934
 4829SOL    HW114939   3.372   5.294   6.965
 4829SOL    HW214940   3.249   5.213   7.001
 4830SOL     OW14941   2.312   4.121   7.070
 4830SOL    HW114942   2.388   4.062   7.077
 4830SOL    HW214943   2.237   4.065   7.086
 4831SOL     OW14944   3.472   4.169   6.328
 4831SOL    HW114945   3.398   4.190   6.271
 4831SOL    HW214946   3.482   4.247   6.383
 4832SOL     OW14947   2.995   5.073   7.288
 4832SOL    HW114948   3.026   5.073   7.379
 4832SOL    HW214949   2.941   4.994   7.281
 4833SOL     OW14950   2.071   5.159   6.108
 4833SOL    HW114951   2.101   5.237   6.154
 4833SOL    HW214952   2.022   5.110   6.173
 4834SOL     OW14953   2.124   4.811   6.479
 4834SOL    HW114954   2.121   4.723   6.516
 4834SOL    HW214955   2.067   4.863   6.535
 4835SOL     OW14956   2.443   4.706   5.723
 4835SOL    HW114957   2.492   4.753   5.654
 4835SOL    HW214958   2.482   4.737   5.804
 4836SOL     OW14959   3.458   3.849   7.052
 4836SOL    HW114960   3.472   3.931   7.004
 4836SOL    HW214961   3.440   3.878   7.142
 4837SOL     OW14962   1.978   4.378   6.146
 4837SOL    HW114963   1.949   4.289   6.167
 4837SOL    HW214964   1.970   4.426   6.228
 4838SOL     OW14965   1.849   0.012   5.682
 4838SOL    HW114966   1.863   5.223   5.714
 4838SOL    HW214967   1.869   0.068   5.756
 4839SOL     OW14968   3.550   4.642   6.229
 4839SOL    HW114969   3.633   4.598   6.206
 4839SOL    HW214970   3.529   4.693   6.151
 4840SOL     OW14971   3.509   4.829   6.016
 4840SOL    HW114972   3.595   4.832   5.973
 4840SOL    HW214973   3.516   4.891   6.088
 4841SOL     OW14974   1.986   4.467   7.171
 4841SOL    HW114975   2.077   4.495   7.175
 4841SOL    HW214976   1.935   4.548   7.178
 4842SOL     OW14977   2.486   5.099   6.326
 4842SOL    HW114978   2.432   5.020   6.322
 4842SOL    HW214979   2.467   5.145   6.244
 4843SOL     OW14980   3.150   4.952   7.012
 4843SOL    HW114981   3.183   4.886   6.951
 4843SOL    HW214982   3.211   4.949   7.085
 4844SOL     OW14983   2.679   3.726   6.094
 4844SOL    HW114984   2.719   3.810   6.074
 4844SOL    HW214985   2.585   3.745   6.103
 4845SOL     OW14986   2.051   4.687   6.859
 4845SOL    HW114987   2.136   4.646   6.844
 4845SOL    HW214988   1.990   4.635   6.806
 4846SOL     OW14989   3.392   4.722   5.784
 4846SOL    HW114990   3.323   4.664   5.817
 4846SOL    HW214991   3.435   4.755   5.863
 4847SOL     OW14992   2.198   3.972   7.405
 4847SOL    HW114993   2.240   4.057   7.420
 4847SOL    HW214994   2.107   3.986   7.432
 4848SOL     OW14995   3.341   5.148   6.547
 4848SOL    HW114996   3.268   5.160   6.608
 4848SOL    HW214997   3.329   5.060   6.513
 4849SOL     OW14998   2.458   4.443   5.854
 4849SOL    HW114999   2.462   4.526   5.806
 4849SOL    HW215000   2.392   4.459   5.923
 4850SOL     OW15001   3.140   4.082   6.519
 4850SOL    HW115002   3.051   4.048   6.528
 4850SOL    HW215003   3.192   4.028   6.579
 4851SOL     OW15004   2.653   4.342   7.036
 4851SOL    HW115005   2.627   4.317   7.124
 4851SOL    HW215006   2.616   4.274   6.980
 4852SOL     OW15007   3.256   4.198   7.263
 4852SOL    HW115008   3.259   4.243   7.348
 4852SOL    HW215009   3.314   4.123   7.273
 4853SOL     OW15010   2.816   4.611   7.170
 4853SOL    HW115011   2.870   4.542   7.133
 4853SOL    HW215012   2.767   4.645   7.095
 4854SOL     OW15013   2.855   4.136   6.822
 4854SOL    HW115014   2.767   4.155   6.856
 4854SOL    HW215015   2.839   4.090   6.740
 4855SOL     OW15016   2.914   4.422   6.011
 4855SOL    HW115017   2.931   4.415   6.105
 4855SOL    HW215018   2.831   4.376   5.998
 4856SOL     OW15019   1.950   4.545   6.363
 4856SOL    HW115020   2.030   4.538   6.414
 4856SOL    HW215021   1.906   4.623   6.398
 4857SOL     OW15022   2.759   4.074   5.781
 4857SOL    HW115023   2.798   4.137   5.720
 4857SOL    HW215024   2.773   3.989   5.739
 4858SOL     OW15025   3.570   4.297   7.416
 4858SOL    HW115026   3.532   4.371   7.367
 4858SOL    HW215027   3.597   4.235   7.349
 4859SOL     OW15028   3.241   4.863   6.123
 4859SOL    HW115029   3.323   4.850   6.076
 4859SOL    HW215030   3.191   4.925   6.070
 4860SOL     OW15031   2.413   3.904   6.480
 4860SOL    HW115032   2.415   3.934   6.571
 4860SOL    HW215033   2.413   3.985   6.429
 4861SOL     OW15034   2.882   5.167   6.059
 4861SOL    HW115035   2.806   5.226   6.059
 4861SOL    HW215036   2.898   5.150   6.152
 4862SOL     OW15037   3.663   4.778   6.453
 4862SOL    HW115038   3.608   4.760   6.378
 4862SOL    HW215039   3.603   4.786   6.527
 4863SOL     OW15040   3.114   5.240   7.113
 4863SOL    HW115041   3.077   5.173   7.170
 4863SOL    HW215042   3.040   5.267   7.058
 4864SOL     OW15043   2.180   4.681   5.838
 4864SOL    HW115044   2.262   4.700   5.793
 4864SOL    HW215045   2.150   4.599   5.799
 4865SOL     OW15046   3.342   4.470   6.311
 4865SOL    HW115047   3.336   4.428   6.397
 4865SOL    HW215048   3.420   4.525   6.316
 4866SOL     OW15049   2.325   4.988   7.329
 4866SOL    HW115050   2.298   4.991   7.237
 4866SOL    HW215051   2.243   4.987   7.378
 4867SOL     OW15052   2.926   0.176   5.787
 4867SOL    HW115053   2.943   0.100   5.843
 4867SOL    HW215054   2.946   0.145   5.699
 4868SOL     OW15055   2.064   4.001   7.089
 4868SOL    HW115056   1.982   4.050   7.087
 4868SOL    HW215057   2.043   3.921   7.138
 4869SOL     OW15058   3.483   5.102   5.696
 4869SOL    HW115059   3.489   5.173   5.632
 4869SOL    HW215060   3.416   5.044   5.662
 4870SOL     OW15061   3.263   3.831   6.022
 4870SOL    HW115062   3.254   3.806   5.930
 4870SOL    HW215063   3.357   3.838   6.036
 4871SOL     OW15064   2.257   4.419   6.061
 4871SOL    HW115065   2.276   4.326   6.073
 4871SOL    HW215066   2.163   4.427   6.077
 4872SOL     OW15067   3.393   3.948   7.311
 4872SOL    HW115068   3.404   3.969   7.404
 4872SOL    HW215069   3.325   3.881   7.309
 4873SOL     OW15070   2.501   3.845   5.690
 4873SOL    HW115071   2.566   3.775   5.704
 4873SOL    HW215072   2.450   3.814   5.615
 4874SOL     OW15073   2.626   4.001   7.341
 4874SOL    HW115074   2.705   3.947   7.340
 4874SOL    HW215075   2.584   3.980   7.424
 4875SOL     OW15076   3.201   4.313   7.018
 4875SOL    HW115077   3.233   4.282   7.103
 4875SOL    HW215078   3.238   4.401   7.010
 4876SOL     OW15079   2.677   5.116   6.524
 4876SOL    HW115080   2.757   5.105   6.473
 4876SOL    HW215081   2.607   5.124   6.459
 4877SOL     OW15082   2.791   4.233   6.488
 4877SOL    HW115083   2.766   4.225   6.395
 4877SOL    HW215084   2.821   4.146   6.513
 4878SOL     OW15085   2.412   3.787   6.085
 4878SOL    HW115086   2.332   3.787   6.138
 4878SOL    HW215087   2.405   3.865   6.030
 4879SOL     OW15088   3.290   4.925   5.623
 4879SOL    HW115089   3.319   4.849   5.674
 4879SOL    HW215090   3.202   4.943   5.655
 4880SOL     OW15091   2.153   3.772   5.771
 4880SOL    HW115092   2.211   3.836   5.731
 4880SOL    HW215093   2.212   3.709   5.814
 4881SOL     OW15094   2.802   3.972   6.044
 4881SOL    HW115095   2.777   4.012   5.961
 4881SOL    HW215096   2.897   3.987   6.049
 4882SOL     OW15097   2.942   4.406   7.044
 4882SOL    HW115098   2.875   4.338   7.049
 4882SOL    HW215099   3.025   4.359   7.038
 4883SOL     OW15100   3.126   5.266   6.363
 4883SOL    HW115101   3.078   0.046   6.340
 4883SOL    HW215102   3.173   5.288   6.443
 4884SOL     OW15103   2.329   4.873   6.313
 4884SOL    HW115104   2.262   4.852   6.378
 4884SOL    HW215105   2.286   4.857   6.229
 4885SOL     OW15106   2.884   4.262   5.611
 4885SOL    HW115107   2.841   4.346   5.591
 4885SOL    HW215108   2.950   4.285   5.677
 4886SOL     OW15109   1.943   4.278   6.978
 4886SOL    HW115110   2.035   4.277   6.952
 4886SOL    HW215111   1.938   4.348   7.044
 4887SOL     OW15112   2.420   3.951   6.754
 4887SOL    HW115113   2.463   3.876   6.795
 4887SOL    HW215114   2.329   3.947   6.783
 4888SOL     OW15115   2.728   4.182   6.225
 4888SOL    HW115116   2.684   4.238   6.161
 4888SOL    HW215117   2.751   4.103   6.177
 4889SOL     OW15118   2.880   3.778   6.335
 4889SOL    HW115119   2.821   3.772   6.260
 4889SOL    HW215120   2.856   3.703   6.390
 4890SOL     OW15121   3.302   4.890   6.445
 4890SOL    HW115122   3.234   4.823   6.442
 4890SOL    HW215123   3.328   4.902   6.354
 4891SOL     OW15124   3.328   4.331   6.559
 4891SOL    HW115125   3.274   4.252   6.562
 4891SOL    HW215126   3.386   4.324   6.634
 4892SOL     OW15127   3.705   4.537   5.970
 4892SOL    HW115128   3.763   4.487   6.028
 4892SOL    HW215129   3.678   4.475   5.903
 4893SOL     OW15130   2.338   5.151   5.733
 4893SOL    HW115131   2.280   5.098   5.788
 4893SOL    HW215132   2.350   5.099   5.654
 4894SOL     OW15133   3.533   4.986   6.231
 4894SOL    HW115134   3.626   4.992   6.249
 4894SOL    HW215135   3.500   5.075   6.246
 4895SOL     OW15136   3.256   4.296   5.657
 4895SOL    HW115137   3.195   4.276   5.728
 4895SOL    HW215138   3.341   4.265   5.689
 4896SOL     OW15139   2.387   3.987   5.901
 4896SOL    HW115140   2.435   3.941   5.832
 4896SOL    HW215141   2.362   4.071   5.862
 4897SOL     OW15142   3.611   4.960   7.156
 4897SOL    HW115143   3.697   4.917   7.157
 4897SOL    HW215144   3.630   5.053   7.167
 4898SOL     OW15145   2.926   5.073   6.914
 4898SOL    HW115146   2.847   5.048   6.962
 4898SOL    HW215147   2.998   5.034   6.965
 4899SOL     OW15148   2.990   4.926   6.692
 4899SOL    HW115149   2.942   4.968   6.764
 4899SOL    HW215150   2.942   4.950   6.613
 4900SOL     OW15151   3.489   4.821   6.662
 4900SOL    HW115152   3.484   4.883   6.735
 4900SOL    HW215153   3.412   4.841   6.608
 4901SOL     OW15154   2.780   3.820   6.980
 4901SOL    HW115155   2.803   3.801   6.889
 4901SOL    HW215156   2.859   3.859   7.017
 4902SOL     OW15157   2.847   4.838   7.314
 4902SOL    HW115158   2.754   4.855   7.332
 4902SOL    HW215159   2.847   4.762   7.256
 4903SOL     OW15160   2.568   4.784   5.957
 4903SOL    HW115161   2.554   4.767   6.050
 4903SOL    HW215162   2.645   4.733   5.933
 4904SOL     OW15163   2.282   4.540   6.838
 4904SOL    HW115164   2.350   4.550   6.904
 4904SOL    HW215165   2.247   4.452   6.851
 4905SOL     OW15166   3.126   4.100   6.863
 4905SOL    HW115167   3.159   4.178   6.909
 4905SOL    HW215168   3.036   4.122   6.841
 4906SOL     OW15169   2.203   4.836   6.074
 4906SOL    HW115170   2.204   4.908   6.012
 4906SOL    HW215171   2.203   4.757   6.019
 4907SOL     OW15172   2.412   4.259   6.446
 4907SOL    HW115173   2.426   4.317   6.371
 4907SOL    HW215174   2.478   4.284   6.510
 4908SOL     OW15175   3.122   5.079   5.972
 4908SOL    HW115176   3.179   5.146   6.010
 4908SOL    HW215177   3.034   5.103   6.002
 4909SOL     OW15178   3.134   5.183   6.727
 4909SOL    HW115179   3.193   5.198   6.802
 4909SOL    HW215180   3.090   5.101   6.748
 4910SOL     OW15181   3.442   4.345   6.067
 4910SOL    HW115182   3.393   4.396   6.132
 4910SOL    HW215183   3.487   4.410   6.014
 4911SOL     OW15184   2.211   5.236   6.898
 4911SOL    HW115185   2.199   5.200   6.810
 4911SOL    HW215186   2.304   5.256   6.904
 4912SOL     OW15187   2.277   4.469   7.188
 4912SOL    HW115188   2.341   4.513   7.131
 4912SOL    HW215189   2.315   4.382   7.204
 4913SOL     OW15190   3.467   4.504   7.271
 4913SOL    HW115191   3.380   4.545   7.264
 4913SOL    HW215192   3.519   4.546   7.202
 4914SOL     OW15193   2.858   3.852   7.339
 4914SOL    HW115194   2.916   3.924   7.315
 4914SOL    HW215195   2.906   3.773   7.315
 4915SOL     OW15196   2.360   3.762   7.335
 4915SOL    HW115197   2.315   3.708   7.270
 4915SOL    HW215198   2.303   3.838   7.347
 4916SOL     OW15199   2.446   4.597   6.618
 4916SOL    HW115200   2.477   4.687   6.617
 4916SOL    HW215201   2.390   4.590   6.695
 4917SOL     OW15202   3.215   4.582   6.610
 4917SOL    HW115203   3.131   4.569   6.568
 4917SOL    HW215204   3.259   4.497   6.603
 4918SOL     OW15205   3.064   4.252   5.851
 4918SOL    HW115206   3.073   4.174   5.905
 4918SOL    HW215207   3.021   4.316   5.907
 4919SOL     OW15208   2.159   3.921   6.833
 4919SOL    HW115209   2.123   3.953   6.915
 4919SOL    HW215210   2.141   3.827   6.833
 4920SOL     OW15211   1.918   5.048   6.871
 4920SOL    HW115212   1.940   4.982   6.936
 4920SOL    HW215213   1.952   5.130   6.908
 4921SOL     OW15214   2.584   4.354   6.641
 4921SOL    HW115215   2.660   4.339   6.585
 4921SOL    HW215216   2.556   4.443   6.621
 4922SOL     OW15217   3.599   4.684   7.440
 4922SOL    HW115218   3.553   4.619   7.387
 4922SOL    HW215219   3.541   4.700   7.514
 4923SOL     OW15220   2.167   3.787   6.210
 4923SOL    HW115221   2.146   3.877   6.232
 4923SOL    HW215222   2.175   3.743   6.295
 4924SOL     OW15223   3.481   4.100   5.950
 4924SOL    HW115224   3.508   4.036   6.015
 4924SOL    HW215225   3.458   4.178   6.001
 4925SOL     OW15226   2.890   4.483   6.546
 4925SOL    HW115227   2.884   4.500   6.640
 4925SOL    HW215228   2.864   4.391   6.536
 4926SOL     OW15229   3.715   5.212   7.165
 4926SOL    HW115230   3.703   5.292   7.113
 4926SOL    HW215231   3.786   5.233   7.225
 4927SOL     OW15232   2.215   4.640   7.395
 4927SOL    HW115233   2.297   4.659   7.440
 4927SOL    HW215234   2.239   4.577   7.327
 4928SOL     OW15235   3.390   3.996   5.713
 4928SOL    HW115236   3.325   3.931   5.740
 4928SOL    HW215237   3.423   4.032   5.795
 4929SOL     OW15238   3.151   4.549   5.615
 4929SOL    HW115239   3.194   4.464   5.619
 4929SOL    HW215240   3.183   4.588   5.534
 4930SOL     OW15241   2.918   5.084   6.404
 4930SOL    HW115242   2.925   4.997   6.365
 4930SOL    HW215243   3.006   5.121   6.395
 4931SOL     OW15244   2.170   4.532   6.533
 4931SOL    HW115245   2.263   4.552   6.526
 4931SOL    HW215246   2.167   4.442   6.564
 4932SOL     OW15247   2.191   4.253   6.599
 4932SOL    HW115248   2.156   4.165   6.585
 4932SOL    HW215249   2.268   4.257   6.542
 4933SOL     OW15250   2.997   4.098   7.269
 4933SOL    HW115251   2.948   4.153   7.331
 4933SOL    HW215252   3.084   4.138   7.265
 4934SOL     OW15253   3.023   3.925   7.056
 4934SOL    HW115254   3.012   3.987   7.127
 4934SOL    HW215255   3.064   3.975   6.986
 4935SOL     OW15256   1.868   5.038   5.777
 4935SOL    HW115257   1.777   5.056   5.753
 4935SOL    HW215258   1.866   4.950   5.814
 4936SOL     OW15259   2.840   4.514   6.811
 4936SOL    HW115260   2.899   4.493   6.884
 4936SOL    HW215261   2.756   4.474   6.836
 4937SOL     OW15262   1.898   4.271   6.703
 4937SOL    HW115263   1.978   4.259   6.652
 4937SOL    HW215264   1.927   4.272   6.794
 4938SOL     OW15265   2.055   4.244   7.315
 4938SOL    HW115266   2.107   4.201   7.248
 4938SOL    HW215267   2.015   4.319   7.270
 4939SOL     OW15268   3.240   4.660   7.244
 4939SOL    HW115269   3.261   4.753   7.240
 4939SOL    HW215270   3.236   4.633   7.152
 4940SOL     OW15271   2.679   4.293   5.950
 4940SOL    HW115272   2.683   4.219   5.889
 4940SOL    HW215273   2.605   4.346   5.918
 4941SOL     OW15274   3.503   4.325   6.769
 4941SOL    HW115275   3.493   4.267   6.844
 4941SOL    HW215276   3.591   4.306   6.735
 4942SOL     OW15277   2.066   5.274   7.331
 4942SOL    HW115278   2.025   0.019   7.405
 4942SOL    HW215279   2.081   5.185   7.362
 4943SOL     OW15280   2.569   4.172   6.843
 4943SOL    HW115281   2.513   4.099   6.815
 4943SOL    HW215282   2.563   4.235   6.771
 4944SOL     OW15283   2.324   4.216   5.770
 4944SOL    HW115284   2.383   4.288   5.794
 4944SOL    HW215285   2.239   4.258   5.758
 4945SOL     OW15286   2.005   4.863   7.058
 4945SOL    HW115287   2.007   4.813   7.140
 4945SOL    HW215288   2.023   4.797   6.990
 4946SOL     OW15289   3.187   4.767   6.807
 4946SOL    HW115290   3.209   4.704   6.737
 4946SOL    HW215291   3.117   4.821   6.769
 4947SOL     OW15292   3.175   4.582   5.891
 4947SOL    HW115293   3.101   4.549   5.942
 4947SOL    HW215294   3.149   4.568   5.800
 4948SOL     OW15295   1.958   4.987   6.608
 4948SOL    HW115296   1.937   5.006   6.699
 4948SOL    HW215297   1.878   4.949   6.572
 4949SOL     OW15298   2.616   0.033   7.297
 4949SOL    HW115299   2.524   0.056   7.308
 4949SOL    HW215300   2.638   0.062   7.209
 4950SOL     OW15301   3.582   3.874   6.093
 4950SOL    HW115302   3.654   3.859   6.032
 4950SOL    HW215303   3.566   3.789   6.133
 4951SOL     OW15304   3.139   4.651   6.258
 4951SOL    HW115305   3.213   4.590   6.267
 4951SOL    HW215306   3.174   4.722   6.204
 4952SOL     OW15307   2.677   4.993   6.999
 4952SOL    HW115308   2.644   5.028   7.082
 4952SOL    HW215309   2.603   5.001   6.939
 4953SOL     OW15310   3.704   3.896   6.552
 4953SOL    HW115311   3.732   3.808   6.526
 4953SOL    HW215312   3.617   3.905   6.512
 4954SOL     OW15313   2.122   4.038   6.302
 4954SOL    HW115314   2.036   4.074   6.279
 4954SOL    HW215315   2.120   4.032   6.397
 4955SOL     OW15316   2.687   4.726   6.957
 4955SOL    HW115317   2.735   4.717   6.874
 4955SOL    HW215318   2.690   4.820   6.976
 4956SOL     OW15319   2.778   4.636   5.877
 4956SOL    HW115320   2.839   4.669   5.811
 4956SOL    HW215321   2.827   4.567   5.922
 4957SOL     OW15322   2.225   5.028   7.085
 4957SOL    HW115323   2.215   5.100   7.023
 4957SOL    HW215324   2.150   4.971   7.067
 4958SOL     OW15325   3.474   5.004   6.868
 4958SOL    HW115326   3.530   4.995   6.945
 4958SOL    HW215327   3.411   5.072   6.892
 4959SOL     OW15328   2.921   4.835   6.300
 4959SOL    HW115329   2.848   4.784   6.335
 4959SOL    HW215330   2.983   4.769   6.270
 4960SOL     OW15331   2.884   3.965   6.552
 4960SOL    HW115332   2.881   3.917   6.469
 4960SOL    HW215333   2.879   3.896   6.619
 4961SOL     OW15334   3.586   4.116   6.967
 4961SOL    HW115335   3.658   4.179   6.966
 4961SOL    HW215336   3.616   4.045   6.910
 4962SOL     OW15337   2.121   5.049   5.871
 4962SOL    HW115338   2.029   5.050   5.843
 4962SOL    HW215339   2.121   5.096   5.955
 4963SOL     OW15340   1.975   4.751   7.308
 4963SOL    HW115341   1.899   4.725   7.359
 4963SOL    HW215342   2.049   4.710   7.352
 4964SOL     OW15343   2.537   3.921   7.086
 4964SOL    HW115344   2.621   3.899   7.045
 4964SOL    HW215345   2.560   3.951   7.174
 4965SOL     OW15346   1.942   4.055   5.620
 4965SOL    HW115347   1.854   4.036   5.585
 4965SOL    HW215348   1.972   4.131   5.570
 4966SOL     OW15349   3.290   4.581   6.985
 4966SOL    HW115350   3.241   4.642   6.930
 4966SOL    HW215351   3.379   4.584   6.950
 4967SOL     OW15352   1.927   3.879   5.893
 4967SOL    HW115353   1.914   3.959   5.841
 4967SOL    HW215354   2.013   3.846   5.864
 4968SOL     OW15355   3.044   5.061   5.707
 4968SOL    HW115356   2.953   5.031   5.709
 4968SOL    HW215357   3.072   5.054   5.799
 4969SOL     OW15358   2.482   4.555   7.020
 4969SOL    HW115359   2.539   4.630   7.004
 4969SOL    HW215360   2.541   4.480   7.029
 4970SOL     OW15361   2.580   4.285   7.289
 4970SOL    HW115362   2.622   4.346   7.349
 4970SOL    HW215363   2.603   4.198   7.322
 4971SOL     OW15364   3.337   4.919   7.216
 4971SOL    HW115365   3.324   4.933   7.310
 4971SOL    HW215366   3.431   4.935   7.203
 4972SOL     OW15367   3.529   4.604   6.841
 4972SOL    HW115368   3.524   4.519   6.798
 4972SOL    HW215369   3.519   4.668   6.770
 4973SOL     OW15370   3.078   4.043   6.044
 4973SOL    HW115371   3.141   3.971   6.036
 4973SOL    HW215372   3.107   4.092   6.120
 4974SOL     OW15373   2.450   4.460   6.258
 4974SOL    HW115374   2.490   4.546   6.243
 4974SOL    HW215375   2.384   4.452   6.189
 4975SOL     OW15376   3.621   4.087   7.239
 4975SOL    HW115377   3.606   4.103   7.146
 4975SOL    HW215378   3.549   4.030   7.265
 4976SOL     OW15379   3.609   4.657   7.097
 4976SOL    HW115380   3.599   4.751   7.110
 4976SOL    HW215381   3.592   4.644   7.004
 4977SOL     OW15382   2.710   5.094   5.607
 4977SOL    HW115383   2.693   5.094   5.701
 4977SOL    HW215384   2.720   5.186   5.584
 4978SOL     OW15385   2.731   4.694   6.441
 4978SOL    HW115386   2.780   4.621   6.480
 4978SOL    HW215387   2.694   4.740   6.515
 4979SOL     OW15388   2.942   4.714   5.676
 4979SOL    HW115389   2.919   4.764   5.598
 4979SOL    HW215390   3.015   4.659   5.649
 4980SOL     OW15391   2.081   5.019   7.440
 4980SOL    HW115392   2.020   4.953   7.408
 4980SOL    HW215393   2.056   5.033   7.531
 4981SOL     OW15394   1.950   4.953   6.256
 4981SOL    HW115395   1.949   4.902   6.337
 4981SOL    HW215396   2.013   4.908   6.200
 4982SOL     OW15397   2.535   5.101   7.194
 4982SOL    HW115398   2.457   5.072   7.242
 4982SOL    HW215399   2.569   5.175   7.246
 4983SOL     OW15400   3.675   3.908   6.823
 4983SOL    HW115401   3.682   3.813   6.837
 4983SOL    HW215402   3.684   3.919   6.729
 4984SOL     OW15403   2.291   4.158   6.112
 4984SOL    HW115404   2.321   4.087   6.055
 4984SOL    HW215405   2.242   4.113   6.181
 4985SOL     OW15406   3.568   5.225   6.704
 4985SOL    HW115407   3.495   5.209   6.645
 4985SOL    HW215408   3.575   5.146   6.758
 4986SOL     OW15409   2.195   4.281   6.878
 4986SOL    HW115410   2.249   4.225   6.933
 4986SOL    HW215411   2.213   4.252   6.789
 4987SOL     OW15412   3.293   3.951   6.703
 4987SOL    HW115413   3.314   3.869   6.748
 4987SOL    HW215414   3.242   4.000   6.767
 4988SOL     OW15415   2.871   3.742   6.726
 4988SOL    HW115416   2.815   3.674   6.687
 4988SOL    HW215417   2.959   3.703   6.727
 4989SOL     OW15418   2.668   5.046   5.871
 4989SOL    HW115419   2.612   4.971   5.892
 4989SOL    HW215420   2.723   5.057   5.948
 4990SOL     OW15421   2.484   5.300   6.881
 4990SOL    HW115422   2.489   0.054   6.960
 4990SOL    HW215423   2.575   5.280   6.859
 4991SOL     OW15424   3.216   3.777   5.754
 4991SOL    HW115425   3.245   3.711   5.692
 4991SOL    HW215426   3.128   3.749   5.779
 4992SOL     OW15427   3.158   4.186   6.265
 4992SOL    HW115428   3.105   4.265   6.271
 4992SOL    HW215429   3.153   4.147   6.353
 4993SOL     OW15430   3.448   3.923   6.466
 4993SOL    HW115431   3.390   3.945   6.539
 4993SOL    HW215432   3.447   4.000   6.410
 4994SOL     OW15433   1.904   4.792   5.895
 4994SOL    HW115434   1.998   4.785   5.878
 4994SOL    HW215435   1.878   4.702   5.916
 4995SOL     OW15436   2.089   4.345   7.573
 4995SOL    HW115437   1.999   4.350   7.605
 4995SOL    HW215438   2.080   4.321   7.481
 4996SOL     OW15439   3.631   4.320   7.678
 4996SOL    HW115440   3.610   4.316   7.585
 4996SOL    HW215441   3.590   4.241   7.716
 4997SOL     OW15442   2.140   0.124   7.958
 4997SOL    HW115443   2.117   0.210   7.993
 4997SOL    HW215444   2.146   0.137   7.863
 4998SOL     OW15445   2.078   5.157   7.993
 4998SOL    HW115446   2.094   5.251   7.997
 4998SOL    HW215447   2.021   5.139   8.068
 4999SOL     OW15448   2.444   4.706   7.581
 4999SOL    HW115449   2.491   4.753   7.512
 4999SOL    HW215450   2.483   4.739   7.662
 5000SOL     OW15451   1.864   0.008   7.534
 5000SOL    HW115452   1.865   5.220   7.571
 5000SOL    HW215453   1.862   0.067   7.610
 5001SOL     OW15454   3.544   4.586   8.030
 5001SOL    HW115455   3.621   4.597   0.006
 5001SOL    HW215456   3.530   4.671   7.989
 5002SOL     OW15457   3.520   4.823   7.878
 5002SOL    HW115458   3.609   4.842   7.848
 5002SOL    HW215459   3.498   4.896   7.936
 5003SOL     OW15460   2.665   3.720   7.940
 5003SOL    HW115461   2.713   3.800   7.920
 5003SOL    HW215462   2.574   3.748   7.946
 5004SOL     OW15463   3.394   4.723   7.650
 5004SOL    HW115464   3.328   4.664   7.684
 5004SOL    HW215465   3.439   4.756   7.728
 5005SOL     OW15466   2.452   4.448   7.709
 5005SOL    HW115467   2.453   4.531   7.661
 5005SOL    HW215468   2.393   4.463   7.782
 5006SOL     OW15469   1.919   4.588   0.085
 5006SOL    HW115470   1.982   4.520   0.109
 5006SOL    HW215471   1.923   4.651   0.156
 5007SOL     OW15472   2.750   4.074   7.640
 5007SOL    HW115473   2.790   4.133   7.576
 5007SOL    HW215474   2.779   3.987   7.613
 5008SOL     OW15475   2.183   4.680   7.698
 5008SOL    HW115476   2.263   4.697   7.648
 5008SOL    HW215477   2.146   4.602   7.658
 5009SOL     OW15478   2.950   0.186   7.641
 5009SOL    HW115479   2.919   0.120   7.703
 5009SOL    HW215480   2.940   0.145   7.555
 5010SOL     OW15481   3.489   5.100   7.552
 5010SOL    HW115482   3.477   5.178   7.498
 5010SOL    HW215483   3.419   5.041   7.524
 5011SOL     OW15484   3.280   3.858   7.863
 5011SOL    HW115485   3.269   3.823   7.775
 5011SOL    HW215486   3.375   3.858   7.877
 5012SOL     OW15487   2.255   4.423   7.917
 5012SOL    HW115488   2.253   4.328   7.928
 5012SOL    HW215489   2.164   4.451   7.929
 5013SOL     OW15490   2.496   3.842   7.558
 5013SOL    HW115491   2.564   3.777   7.571
 5013SOL    HW215492   2.449   3.812   7.480
 5014SOL     OW15493   2.395   3.800   7.960
 5014SOL    HW115494   2.309   3.804   8.002
 5014SOL    HW215495   2.393   3.870   7.895
 5015SOL     OW15496   3.290   4.926   7.487
 5015SOL    HW115497   3.318   4.851   7.539
 5015SOL    HW215498   3.202   4.945   7.519
 5016SOL     OW15499   2.153   3.773   7.633
 5016SOL    HW115500   2.212   3.833   7.586
 5016SOL    HW215501   2.212   3.710   7.673
 5017SOL     OW15502   2.806   3.950   7.907
 5017SOL    HW115503   2.765   4.014   7.849
 5017SOL    HW215504   2.897   3.980   7.914
 5018SOL     OW15505   2.299   4.871   0.099
 5018SOL    HW115506   2.227   4.916   0.143
 5018SOL    HW215507   2.269   4.861   0.009
 5019SOL     OW15508   2.886   4.262   7.469
 5019SOL    HW115509   2.840   4.345   7.452
 5019SOL    HW215510   2.946   4.282   7.541
 5020SOL     OW15511   3.738   4.537   7.802
 5020SOL    HW115512   3.717   4.519   7.894
 5020SOL    HW215513   3.698   4.464   7.754
 5021SOL     OW15514   2.329   5.154   7.597
 5021SOL    HW115515   2.275   5.100   7.655
 5021SOL    HW215516   2.345   5.099   7.520
 5022SOL     OW15517   3.256   4.296   7.519
 5022SOL    HW115518   3.194   4.275   7.589
 5022SOL    HW215519   3.340   4.263   7.551
 5023SOL     OW15520   2.387   3.990   7.768
 5023SOL    HW115521   2.433   3.941   7.700
 5023SOL    HW215522   2.362   4.072   7.727
 5024SOL     OW15523   2.573   4.787   7.811
 5024SOL    HW115524   2.545   4.769   7.900
 5024SOL    HW215525   2.652   4.734   7.800
 5025SOL     OW15526   2.226   4.831   7.924
 5025SOL    HW115527   2.201   4.910   7.875
 5025SOL    HW215528   2.213   4.759   7.862
 5026SOL     OW15529   3.086   5.116   7.833
 5026SOL    HW115530   3.174   5.123   7.871
 5026SOL    HW215531   3.037   5.061   7.895
 5027SOL     OW15532   3.450   4.348   7.920
 5027SOL    HW115533   3.441   4.407   7.995
 5027SOL    HW215534   3.485   4.403   7.850
 5028SOL     OW15535   3.064   4.249   7.712
 5028SOL    HW115536   3.065   4.167   7.761
 5028SOL    HW215537   3.039   4.315   7.778
 5029SOL     OW15538   3.483   4.104   7.811
 5029SOL    HW115539   3.504   4.038   7.876
 5029SOL    HW215540   3.458   4.181   7.862
 5030SOL     OW15541   3.390   3.999   7.574
 5030SOL    HW115542   3.325   3.934   7.600
 5030SOL    HW215543   3.423   4.034   7.657
 5031SOL     OW15544   3.154   4.551   7.480
 5031SOL    HW115545   3.195   4.464   7.482
 5031SOL    HW215546   3.184   4.590   7.398
 5032SOL     OW15547   1.872   5.043   7.640
 5032SOL    HW115548   1.781   5.057   7.613
 5032SOL    HW215549   1.873   4.954   7.675
 5033SOL     OW15550   2.707   4.335   7.754
 5033SOL    HW115551   2.702   4.242   7.732
 5033SOL    HW215552   2.616   4.364   7.757
 5034SOL     OW15553   2.321   4.217   7.641
 5034SOL    HW115554   2.381   4.290   7.656
 5034SOL    HW215555   2.236   4.259   7.623
 5035SOL     OW15556   3.173   4.580   7.753
 5035SOL    HW115557   3.086   4.586   7.792
 5035SOL    HW215558   3.156   4.567   7.660
 5036SOL     OW15559   3.574   3.873   7.943
 5036SOL    HW115560   3.650   3.867   7.886
 5036SOL    HW215561   3.579   3.795   7.999
 5037SOL     OW15562   2.790   4.630   7.760
 5037SOL    HW115563   2.841   4.655   7.683
 5037SOL    HW215564   2.779   4.535   7.752
 5038SOL     OW15565   2.121   5.054   7.751
 5038SOL    HW115566   2.031   5.057   7.720
 5038SOL    HW215567   2.119   5.095   7.837
 5039SOL     OW15568   1.940   4.055   7.482
 5039SOL    HW115569   1.855   4.035   7.445
 5039SOL    HW215570   1.971   4.131   7.434
 5040SOL     OW15571   1.929   3.880   7.754
 5040SOL    HW115572   1.914   3.956   7.697
 5040SOL    HW215573   2.012   3.844   7.725
 5041SOL     OW15574   3.042   5.056   7.566
 5041SOL    HW115575   2.950   5.030   7.563
 5041SOL    HW215576   3.059   5.074   7.658
 5042SOL     OW15577   3.076   4.042   7.904
 5042SOL    HW115578   3.150   3.983   7.892
 5042SOL    HW215579   3.095   4.089   7.985
 5043SOL     OW15580   2.493   4.460   8.051
 5043SOL    HW115581   2.494   4.540   0.024
 5043SOL    HW215582   2.405   4.458   8.013
 5044SOL     OW15583   2.712   5.093   7.467
 5044SOL    HW115584   2.696   5.093   7.562
 5044SOL    HW215585   2.718   5.185   7.444
 5045SOL     OW15586   2.934   4.702   7.540
 5045SOL    HW115587   2.914   4.758   7.465
 5045SOL    HW215588   3.011   4.652   7.512
 5046SOL     OW15589   2.248   4.153   7.985
 5046SOL    HW115590   2.298   4.101   7.923
 5046SOL    HW215591   2.300   4.152   8.065
 5047SOL     OW15592   2.669   5.051   7.731
 5047SOL    HW115593   2.623   4.970   7.753
 5047SOL    HW215594   2.678   5.097   7.815
 5048SOL     OW15595   3.217   3.776   7.610
 5048SOL    HW115596   3.248   3.706   7.553
 5048SOL    HW215597   3.129   3.747   7.637
 5049SOL     OW15598   1.914   4.799   7.750
 5049SOL    HW115599   2.009   4.793   7.739
 5049SOL    HW215600   1.885   4.709   7.764
 5050SOL     OW15601   3.936   0.622   0.123
 5050SOL    HW115602   3.857   0.588   0.164
 5050SOL    HW215603   3.961   0.555   0.059
 5051SOL     OW15604   3.940   0.287   0.994
 5051SOL    HW115605   3.969   0.249   1.077
 5051SOL    HW215606   3.857   0.242   0.976
 5052SOL     OW15607   3.725   0.389   0.637
 5052SOL    HW115608   3.641   0.411   0.678
 5052SOL    HW215609   3.707   0.311   0.585
 5053SOL     OW15610   4.292   1.292   1.179
 5053SOL    HW115611   4.204   1.296   1.139
 5053SOL    HW215612   4.307   1.381   1.211
 5054SOL     OW15613   5.286   1.553   0.708
 5054SOL    HW115614   5.250   1.498   0.778
 5054SOL    HW215615   5.228   1.536   0.633
 5055SOL     OW15616   4.862   0.699   0.699
 5055SOL    HW115617   4.911   0.780   0.689
 5055SOL    HW215618   4.811   0.711   0.780
 5056SOL     OW15619   4.475   1.140   1.044
 5056SOL    HW115620   4.408   1.176   1.101
 5056SOL    HW215621   4.512   1.217   0.999
 5057SOL     OW15622   4.596   0.772   1.824
 5057SOL    HW115623   4.577   0.844   1.885
 5057SOL    HW215624   4.618   0.816   1.742
 5058SOL     OW15625   4.408   0.998   0.649
 5058SOL    HW115626   4.474   0.989   0.718
 5058SOL    HW215627   4.340   1.053   0.689
 5059SOL     OW15628   4.437   1.150   1.816
 5059SOL    HW115629   4.484   1.228   1.844
 5059SOL    HW215630   4.356   1.184   1.778
 5060SOL     OW15631   4.054   1.422   1.067
 5060SOL    HW115632   3.981   1.383   1.019
 5060SOL    HW215633   4.102   1.473   1.002
 5061SOL     OW15634   5.160   1.479   1.357
 5061SOL    HW115635   5.211   1.557   1.380
 5061SOL    HW215636   5.096   1.471   1.428
 5062SOL     OW15637   4.170   0.397   1.481
 5062SOL    HW115638   4.245   0.338   1.483
 5062SOL    HW215639   4.095   0.341   1.499
 5063SOL     OW15640   3.945   1.715   0.469
 5063SOL    HW115641   3.965   1.790   0.525
 5063SOL    HW215642   4.021   1.706   0.412
 5064SOL     OW15643   4.859   1.341   1.695
 5064SOL    HW115644   4.898   1.336   1.782
 5064SOL    HW215645   4.807   1.260   1.687
 5065SOL     OW15646   3.950   1.441   0.527
 5065SOL    HW115647   3.937   1.535   0.530
 5065SOL    HW215648   3.894   1.406   0.596
 5066SOL     OW15649   3.985   1.090   0.892
 5066SOL    HW115650   3.982   1.003   0.931
 5066SOL    HW215651   3.927   1.143   0.946
 5067SOL     OW15652   4.329   1.794   1.424
 5067SOL    HW115653   4.249   1.775   1.474
 5067SOL    HW215654   4.354   1.881   1.452
 5068SOL     OW15655   4.349   0.958   0.139
 5068SOL    HW115656   4.295   1.033   0.113
 5068SOL    HW215657   4.403   0.991   0.211
 5069SOL     OW15658   5.251   0.141   1.481
 5069SOL    HW115659   0.002   0.220   1.464
 5069SOL    HW215660   5.269   0.119   1.572
 5070SOL     OW15661   3.840   0.652   0.563
 5070SOL    HW115662   3.810   0.564   0.584
 5070SOL    HW215663   3.832   0.701   0.645
 5071SOL     OW15664   3.758   1.594   0.109
 5071SOL    HW115665   3.743   1.506   0.144
 5071SOL    HW215666   3.740   1.653   0.183
 5072SOL     OW15667   0.116   0.947   0.596
 5072SOL    HW115668   0.204   0.912   0.586
 5072SOL    HW215669   0.108   1.013   0.527
 5073SOL     OW15670   3.848   0.745   1.583
 5073SOL    HW115671   3.939   0.773   1.588
 5073SOL    HW215672   3.797   0.826   1.590
 5074SOL     OW15673   4.338   1.389   0.734
 5074SOL    HW115674   4.293   1.305   0.744
 5074SOL    HW215675   4.322   1.414   0.643
 5075SOL     OW15676   5.002   1.234   1.424
 5075SOL    HW115677   5.036   1.168   1.364
 5075SOL    HW215678   5.059   1.228   1.501
 5076SOL     OW15679   4.538   0.032   0.531
 5076SOL    HW115680   4.568   0.117   0.500
 5076SOL    HW215681   4.443   0.035   0.525
 5077SOL     OW15682   3.913   0.964   1.274
 5077SOL    HW115683   3.998   0.923   1.259
 5077SOL    HW215684   3.852   0.911   1.222
 5078SOL     OW15685   4.894   1.809   1.625
 5078SOL    HW115686   4.914   1.869   1.553
 5078SOL    HW215687   4.919   1.723   1.591
 5079SOL     OW15688   4.053   0.270   1.815
 5079SOL    HW115689   4.105   0.343   1.849
 5079SOL    HW215690   3.967   0.282   1.854
 5080SOL     OW15691   5.167   1.437   0.932
 5080SOL    HW115692   5.106   1.443   1.005
 5080SOL    HW215693   5.161   1.345   0.903
 5081SOL     OW15694   4.322   0.713   0.283
 5081SOL    HW115695   4.338   0.794   0.235
 5081SOL    HW215696   4.257   0.736   0.349
 5082SOL     OW15697   4.994   0.328   0.918
 5082SOL    HW115698   4.904   0.305   0.941
 5082SOL    HW215699   5.046   0.298   0.993
 5083SOL     OW15700   4.517   0.619   1.448
 5083SOL    HW115701   4.490   0.596   1.537
 5083SOL    HW215702   4.478   0.551   1.393
 5084SOL     OW15703   5.116   0.490   1.681
 5084SOL    HW115704   5.120   0.522   1.771
 5084SOL    HW215705   5.184   0.423   1.676
 5085SOL     OW15706   4.676   0.887   1.584
 5085SOL    HW115707   4.729   0.816   1.547
 5085SOL    HW215708   4.627   0.922   1.509
 5086SOL     OW15709   4.718   0.423   1.228
 5086SOL    HW115710   4.631   0.435   1.266
 5086SOL    HW215711   4.703   0.368   1.151
 5087SOL     OW15712   4.779   0.698   0.427
 5087SOL    HW115713   4.796   0.692   0.521
 5087SOL    HW215714   4.695   0.653   0.415
 5088SOL     OW15715   3.813   0.822   0.777
 5088SOL    HW115716   3.893   0.814   0.828
 5088SOL    HW215717   3.769   0.900   0.812
 5089SOL     OW15718   3.849   1.858   1.580
 5089SOL    HW115719   3.852   1.836   1.673
 5089SOL    HW215720   3.760   1.836   1.553
 5090SOL     OW15721   4.608   0.361   0.200
 5090SOL    HW115722   4.655   0.402   0.127
 5090SOL    HW215723   4.589   0.272   0.169
 5091SOL     OW15724   5.098   1.150   0.551
 5091SOL    HW115725   5.181   1.145   0.503
 5091SOL    HW215726   5.043   1.207   0.498
 5092SOL     OW15727   4.243   0.203   0.881
 5092SOL    HW115728   4.267   0.217   0.972
 5092SOL    HW215729   4.268   0.284   0.837
 5093SOL     OW15730   4.726   1.443   0.471
 5093SOL    HW115731   4.689   1.516   0.422
 5093SOL    HW215732   4.705   1.463   0.563
 5094SOL     OW15733   4.078   1.811   0.866
 5094SOL    HW115734   4.122   1.727   0.873
 5094SOL    HW215735   4.147   1.875   0.885
 5095SOL     OW15736   4.939   1.539   1.517
 5095SOL    HW115737   4.926   1.468   1.580
 5095SOL    HW215738   4.875   1.522   1.448
 5096SOL     OW15739   4.045   0.944   0.260
 5096SOL    HW115740   4.110   0.987   0.204
 5096SOL    HW215741   4.050   0.851   0.236
 5097SOL     OW15742   4.192   1.266   1.738
 5097SOL    HW115743   4.165   1.270   1.646
 5097SOL    HW215744   4.109   1.263   1.787
 5098SOL     OW15745   4.821   1.773   0.223
 5098SOL    HW115746   4.765   1.734   0.290
 5098SOL    HW215747   4.837   1.703   0.161
 5099SOL     OW15748   3.921   0.277   1.505
 5099SOL    HW115749   3.842   0.331   1.505
 5099SOL    HW215750   3.916   0.227   1.586
 5100SOL     OW15751   4.188   1.736   0.323
 5100SOL    HW115752   4.231   1.795   0.384
 5100SOL    HW215753   4.258   1.708   0.263
 5101SOL     OW15754   5.096   0.117   0.446
 5101SOL    HW115755   5.092   0.074   0.361
 5101SOL    HW215756   5.190   0.130   0.463
 5102SOL     OW15757   3.979   1.791   1.230
 5102SOL    HW115758   4.031   1.723   1.275
 5102SOL    HW215759   3.972   1.759   1.140
 5103SOL     OW15760   4.663   1.698   0.897
 5103SOL    HW115761   4.744   1.650   0.914
 5103SOL    HW215762   4.619   1.649   0.828
 5104SOL     OW15763   4.111   0.698   0.475
 5104SOL    HW115764   4.133   0.606   0.487
 5104SOL    HW215765   4.019   0.704   0.498
 5105SOL     OW15766   4.348   0.139   0.123
 5105SOL    HW115767   4.439   0.111   0.133
 5105SOL    HW215768   4.320   0.100   0.040
 5106SOL     OW15769   4.507   0.309   1.767
 5106SOL    HW115770   4.575   0.242   1.766
 5106SOL    HW215771   4.458   0.293   1.848
 5107SOL     OW15772   4.599   1.523   1.194
 5107SOL    HW115773   4.583   1.486   1.107
 5107SOL    HW215774   4.669   1.469   1.230
 5108SOL     OW15775   5.060   0.593   1.431
 5108SOL    HW115776   5.088   0.564   1.517
 5108SOL    HW215777   5.100   0.680   1.420
 5109SOL     OW15778   4.540   1.392   0.943
 5109SOL    HW115779   4.624   1.380   0.900
 5109SOL    HW215780   4.477   1.397   0.870
 5110SOL     OW15781   4.651   0.511   0.901
 5110SOL    HW115782   4.627   0.501   0.809
 5110SOL    HW215783   4.680   0.424   0.928
 5111SOL     OW15784   4.268   0.061   0.510
 5111SOL    HW115785   4.182   0.056   0.552
 5111SOL    HW215786   4.259   0.130   0.444
 5112SOL     OW15787   5.137   1.171   0.048
 5112SOL    HW115788   5.127   1.096   0.106
 5112SOL    HW215789   5.055   1.219   0.056
 5113SOL     OW15790   4.025   0.073   0.207
 5113SOL    HW115791   4.083   0.145   0.181
 5113SOL    HW215792   4.077   5.294   0.193
 5114SOL     OW15793   4.668   0.261   0.451
 5114SOL    HW115794   4.642   0.305   0.371
 5114SOL    HW215795   4.760   0.285   0.464
 5115SOL     OW15796   4.802   0.683   1.460
 5115SOL    HW115797   4.734   0.615   1.460
 5115SOL    HW215798   4.884   0.634   1.449
 5116SOL     OW15799   4.939   1.572   0.796
 5116SOL    HW115800   4.960   1.638   0.730
 5116SOL    HW215801   5.022   1.554   0.840
 5117SOL     OW15802   4.194   1.153   0.731
 5117SOL    HW115803   4.126   1.132   0.795
 5117SOL    HW215804   4.151   1.137   0.646
 5118SOL     OW15805   4.989   1.794   0.607
 5118SOL    HW115806   5.034   1.857   0.552
 5118SOL    HW215807   4.922   1.845   0.653
 5119SOL     OW15808   4.763   0.527   0.026
 5119SOL    HW115809   4.710   0.604   0.007
 5119SOL    HW215810   4.813   0.550   0.104
 5120SOL     OW15811   3.805   0.553   1.393
 5120SOL    HW115812   3.896   0.553   1.366
 5120SOL    HW215813   3.799   0.623   1.458
 5121SOL     OW15814   4.277   0.238   1.158
 5121SOL    HW115815   4.311   0.154   1.189
 5121SOL    HW215816   4.185   0.239   1.186
 5122SOL     OW15817   4.592   0.461   0.639
 5122SOL    HW115818   4.548   0.515   0.573
 5122SOL    HW215819   4.612   0.380   0.594
 5123SOL     OW15820   4.695   0.064   0.766
 5123SOL    HW115821   4.633   0.057   0.693
 5123SOL    HW215822   4.716   5.274   0.789
 5124SOL     OW15823   5.156   1.176   0.848
 5124SOL    HW115824   5.103   1.098   0.865
 5124SOL    HW215825   5.163   1.181   0.753
 5125SOL     OW15826   4.207   1.440   0.173
 5125SOL    HW115827   4.134   1.400   0.219
 5125SOL    HW215828   4.216   1.389   0.092
 5126SOL     OW15829   5.128   0.575   0.087
 5126SOL    HW115830   5.049   0.556   0.138
 5126SOL    HW215831   5.200   0.555   0.147
 5127SOL     OW15832   4.245   0.270   0.328
 5127SOL    HW115833   4.288   0.215   0.262
 5127SOL    HW215834   4.228   0.352   0.283
 5128SOL     OW15835   4.778   1.356   1.334
 5128SOL    HW115836   4.702   1.323   1.383
 5128SOL    HW215837   4.853   1.312   1.373
 5129SOL     OW15838   0.007   1.607   1.614
 5129SOL    HW115839   0.042   1.608   1.525
 5129SOL    HW215840   0.083   1.584   1.668
 5130SOL     OW15841   4.857   1.207   1.105
 5130SOL    HW115842   4.792   1.240   1.168
 5130SOL    HW215843   4.824   1.236   1.020
 5131SOL     OW15844   4.622   0.106   1.382
 5131SOL    HW115845   4.656   0.070   1.300
 5131SOL    HW215846   4.697   0.150   1.422
 5132SOL     OW15847   4.709   1.112   1.726
 5132SOL    HW115848   4.617   1.130   1.748
 5132SOL    HW215849   4.705   1.036   1.669
 5133SOL     OW15850   4.442   1.065   0.382
 5133SOL    HW115851   4.422   1.045   0.473
 5133SOL    HW215852   4.519   1.012   0.361
 5134SOL     OW15853   4.144   0.817   1.251
 5134SOL    HW115854   4.212   0.826   1.318
 5134SOL    HW215855   4.109   0.729   1.264
 5135SOL     OW15856   4.990   0.381   1.271
 5135SOL    HW115857   5.023   0.459   1.315
 5135SOL    HW215858   4.899   0.403   1.249
 5136SOL     OW15859   3.797   1.574   1.355
 5136SOL    HW115860   3.769   1.646   1.299
 5136SOL    HW215861   3.892   1.574   1.348
 5137SOL     OW15862   4.065   1.112   0.491
 5137SOL    HW115863   4.070   1.184   0.428
 5137SOL    HW215864   4.072   1.033   0.437
 5138SOL     OW15865   4.275   0.535   0.860
 5138SOL    HW115866   4.290   0.594   0.786
 5138SOL    HW215867   4.342   0.560   0.924
 5139SOL     OW15868   4.970   1.347   0.392
 5139SOL    HW115869   5.026   1.420   0.418
 5139SOL    HW215870   4.883   1.370   0.424
 5140SOL     OW15871   4.998   1.457   1.140
 5140SOL    HW115872   5.052   1.458   1.220
 5140SOL    HW215873   4.944   1.379   1.149
 5141SOL     OW15874   4.070   1.529   1.313
 5141SOL    HW115875   4.058   1.485   1.228
 5141SOL    HW215876   4.165   1.540   1.321
 5142SOL     OW15877   4.140   0.745   1.603
 5142SOL    HW115878   4.202   0.789   1.545
 5142SOL    HW215879   4.180   0.659   1.621
 5143SOL     OW15880   4.756   0.123   1.750
 5143SOL    HW115881   4.801   0.205   1.730
 5143SOL    HW215882   4.801   0.057   1.697
 5144SOL     OW15883   4.202   0.060   1.734
 5144SOL    HW115884   4.139   5.295   1.703
 5144SOL    HW215885   4.149   0.136   1.758
 5145SOL     OW15886   4.307   0.874   1.031
 5145SOL    HW115887   4.340   0.964   1.033
 5145SOL    HW215888   4.251   0.867   1.108
 5146SOL     OW15889   5.086   0.855   1.037
 5146SOL    HW115890   5.010   0.833   0.982
 5146SOL    HW215891   5.145   0.781   1.026
 5147SOL     OW15892   4.925   0.531   0.264
 5147SOL    HW115893   4.930   0.449   0.313
 5147SOL    HW215894   4.882   0.592   0.324
 5148SOL     OW15895   4.018   0.202   1.249
 5148SOL    HW115896   3.978   0.241   1.327
 5148SOL    HW215897   4.022   0.108   1.269
 5149SOL     OW15898   3.770   1.311   1.275
 5149SOL    HW115899   3.802   1.256   1.346
 5149SOL    HW215900   3.776   1.400   1.310
 5150SOL     OW15901   4.448   0.631   1.057
 5150SOL    HW115902   4.523   0.615   1.000
 5150SOL    HW215903   4.420   0.720   1.035
 5151SOL     OW15904   4.032   0.069   0.658
 5151SOL    HW115905   4.007   0.161   0.660
 5151SOL    HW215906   4.084   0.056   0.738
 5152SOL     OW15907   0.042   0.413   0.358
 5152SOL    HW115908   0.060   0.352   0.430
 5152SOL    HW215909   0.010   0.492   0.401
 5153SOL     OW15910   4.751   0.759   0.958
 5153SOL    HW115911   4.747   0.776   1.053
 5153SOL    HW215912   4.725   0.667   0.950
 5154SOL     OW15913   4.696   1.561   1.715
 5154SOL    HW115914   4.685   1.608   1.633
 5154SOL    HW215915   4.744   1.482   1.692
 5155SOL     OW15916   4.077   0.917   1.809
 5155SOL    HW115917   4.158   0.935   1.856
 5155SOL    HW215918   4.102   0.854   1.741
 5156SOL     OW15919   5.032   0.831   0.024
 5156SOL    HW115920   5.062   0.742   0.042
 5156SOL    HW215921   5.055   0.847   8.013
 5157SOL     OW15922   4.790   1.335   0.857
 5157SOL    HW115923   4.794   1.263   0.794
 5157SOL    HW215924   4.846   1.403   0.820
 5158SOL     OW15925   4.032   0.808   0.946
 5158SOL    HW115926   4.126   0.829   0.941
 5158SOL    HW215927   4.030   0.718   0.977
 5159SOL     OW15928   4.054   0.528   1.012
 5159SOL    HW115929   4.018   0.441   0.999
 5159SOL    HW215930   4.131   0.532   0.956
 5160SOL     OW15931   4.862   0.378   1.692
 5160SOL    HW115932   4.811   0.431   1.753
 5160SOL    HW215933   4.946   0.423   1.684
 5161SOL     OW15934   4.843   0.235   1.459
 5161SOL    HW115935   4.854   0.285   1.539
 5161SOL    HW215936   4.908   0.272   1.398
 5162SOL     OW15937   3.738   1.321   0.187
 5162SOL    HW115938   3.651   1.336   0.150
 5162SOL    HW215939   3.735   1.232   0.222
 5163SOL     OW15940   3.814   1.785   0.939
 5163SOL    HW115941   3.784   1.706   0.894
 5163SOL    HW215942   3.904   1.798   0.908
 5164SOL     OW15943   4.218   1.574   0.905
 5164SOL    HW115944   4.287   1.636   0.929
 5164SOL    HW215945   4.262   1.511   0.847
 5165SOL     OW15946   4.702   0.792   1.226
 5165SOL    HW115947   4.760   0.770   1.299
 5165SOL    HW215948   4.619   0.749   1.247
 5166SOL     OW15949   3.759   0.546   1.117
 5166SOL    HW115950   3.839   0.532   1.065
 5166SOL    HW215951   3.790   0.548   1.207
 5167SOL     OW15952   3.909   0.525   1.729
 5167SOL    HW115953   3.973   0.487   1.669
 5167SOL    HW215954   3.873   0.600   1.682
 5168SOL     OW15955   5.116   0.935   1.666
 5168SOL    HW115956   5.123   1.029   1.653
 5168SOL    HW215957   5.120   0.898   1.578
 5169SOL     OW15958   4.544   0.571   0.369
 5169SOL    HW115959   4.550   0.499   0.307
 5169SOL    HW215960   4.467   0.620   0.341
 5170SOL     OW15961   3.964   1.550   1.725
 5170SOL    HW115962   3.943   1.614   1.793
 5170SOL    HW215963   3.969   1.467   1.772
 5171SOL     OW15964   4.428   0.450   1.257
 5171SOL    HW115965   4.374   0.377   1.226
 5171SOL    HW215966   4.425   0.514   1.186
 5172SOL     OW15967   4.642   1.680   1.470
 5172SOL    HW115968   4.620   1.645   1.383
 5172SOL    HW215969   4.641   1.775   1.458
 5173SOL     OW15970   4.190   0.493   0.176
 5173SOL    HW115971   4.259   0.557   0.196
 5173SOL    HW215972   4.108   0.539   0.193
 5174SOL     OW15973   3.868   1.142   1.473
 5174SOL    HW115974   3.869   1.092   1.555
 5174SOL    HW215975   3.885   1.076   1.405
 5175SOL     OW15976   5.052   1.047   1.223
 5175SOL    HW115977   5.072   0.981   1.157
 5175SOL    HW215978   4.982   1.101   1.184
 5176SOL     OW15979   5.025   0.870   0.319
 5176SOL    HW115980   4.948   0.827   0.355
 5176SOL    HW215981   5.022   0.852   0.225
 5177SOL     OW15982   4.959   1.731   1.120
 5177SOL    HW115983   5.044   1.754   1.083
 5177SOL    HW215984   4.961   1.636   1.130
 5178SOL     OW15985   3.809   1.267   1.011
 5178SOL    HW115986   3.793   1.280   1.104
 5178SOL    HW215987   3.737   1.211   0.982
 5179SOL     OW15988   4.402   1.667   1.733
 5179SOL    HW115989   4.347   1.746   1.724
 5179SOL    HW215990   4.473   1.680   1.670
 5180SOL     OW15991   4.614   0.083   0.143
 5180SOL    HW115992   4.663   0.069   0.062
 5180SOL    HW215993   4.623   0.001   0.191
 5181SOL     OW15994   5.108   1.573   0.478
 5181SOL    HW115995   5.163   1.618   0.414
 5181SOL    HW215996   5.059   1.643   0.520
 5182SOL     OW15997   3.862   1.796   1.843
 5182SOL    HW115998   3.811   1.730   1.891
 5182SOL    HW215999   3.909   1.844   1.911
 5183SOL     OW16000   5.018   0.921   0.671
 5183SOL    HW116001   5.096   0.867   0.659
 5183SOL    HW216002   5.037   1.001   0.623
 5184SOL     OW16003   4.533   1.275   1.428
 5184SOL    HW116004   4.505   1.314   1.510
 5184SOL    HW216005   4.464   1.296   1.365
 5185SOL     OW16006   4.400   1.623   0.157
 5185SOL    HW116007   4.409   1.630   0.062
 5185SOL    HW216008   4.339   1.551   0.170
 5186SOL     OW16009   3.983   0.329   0.718
 5186SOL    HW116010   3.894   0.360   0.698
 5186SOL    HW216011   3.983   0.318   0.813
 5187SOL     OW16012   4.859   1.579   0.043
 5187SOL    HW116013   4.895   1.492   0.060
 5187SOL    HW216014   4.905   1.608   8.044
 5188SOL     OW16015   4.547   1.006   1.374
 5188SOL    HW116016   4.591   0.999   1.290
 5188SOL    HW216017   4.546   1.100   1.393
 5189SOL     OW16018   4.645   0.914   0.301
 5189SOL    HW116019   4.698   0.937   0.224
 5189SOL    HW216020   4.692   0.842   0.342
 5190SOL     OW16021   4.092   1.304   1.492
 5190SOL    HW116022   4.079   1.380   1.436
 5190SOL    HW216023   4.016   1.249   1.476
 5191SOL     OW16024   4.779   1.108   0.708
 5191SOL    HW116025   4.708   1.058   0.748
 5191SOL    HW216026   4.837   1.042   0.670
 5192SOL     OW16027   4.735   0.243   0.973
 5192SOL    HW116028   4.716   0.198   0.891
 5192SOL    HW216029   4.731   0.175   1.040
 5193SOL     OW16030   4.328   1.485   0.478
 5193SOL    HW116031   4.374   1.436   0.410
 5193SOL    HW216032   4.258   1.530   0.431
 5194SOL     OW16033   3.992   1.317   0.292
 5194SOL    HW116034   3.906   1.327   0.251
 5194SOL    HW216035   3.984   1.363   0.376
 5195SOL     OW16036   3.837   1.027   1.721
 5195SOL    HW116037   3.761   1.001   1.773
 5195SOL    HW216038   3.911   0.987   1.766
 5196SOL     OW16039   4.397   0.216   1.493
 5196SOL    HW116040   4.478   0.195   1.448
 5196SOL    HW216041   4.425   0.264   1.571
 5197SOL     OW16042   3.794   0.361   0.031
 5197SOL    HW116043   3.722   0.298   0.027
 5197SOL    HW216044   3.802   0.394   8.022
 5198SOL     OW16045   5.164   0.860   1.403
 5198SOL    HW116046   5.111   0.917   1.347
 5198SOL    HW216047   5.253   0.867   1.367
 5199SOL     OW16048   3.791   0.165   0.313
 5199SOL    HW116049   3.800   0.253   0.279
 5199SOL    HW216050   3.875   0.123   0.296
 5200SOL     OW16051   4.911   1.314   0.118
 5200SOL    HW116052   4.815   1.312   0.112
 5200SOL    HW216053   4.929   1.319   0.212
 5201SOL     OW16054   4.344   0.831   1.434
 5201SOL    HW116055   4.400   0.906   1.419
 5201SOL    HW216056   4.404   0.757   1.441
 5202SOL     OW16057   4.439   0.571   1.701
 5202SOL    HW116058   4.482   0.632   1.761
 5202SOL    HW216059   4.466   0.484   1.732
 5203SOL     OW16060   5.180   1.202   1.631
 5203SOL    HW116061   5.171   1.215   1.726
 5203SOL    HW216062   5.273   1.213   1.614
 5204SOL     OW16063   4.100   1.740   1.565
 5204SOL    HW116064   4.016   1.783   1.551
 5204SOL    HW216065   4.077   1.656   1.607
 5205SOL     OW16066   4.932   0.334   0.471
 5205SOL    HW116067   4.986   0.255   0.458
 5205SOL    HW216068   4.970   0.376   0.549
 5206SOL     OW16069   4.311   0.736   0.671
 5206SOL    HW116070   4.350   0.822   0.657
 5206SOL    HW216071   4.243   0.729   0.603
 5207SOL     OW16072   4.626   1.366   0.040
 5207SOL    HW116073   4.561   1.359   0.109
 5207SOL    HW216074   4.620   1.457   0.010
 5208SOL     OW16075   4.385   1.788   0.941
 5208SOL    HW116076   4.367   1.880   0.920
 5208SOL    HW216077   4.481   1.781   0.935
 5209SOL     OW16078   4.593   0.969   0.855
 5209SOL    HW116079   4.642   0.896   0.893
 5209SOL    HW216080   4.556   1.015   0.931
 5210SOL     OW16081   4.802   0.971   0.087
 5210SOL    HW116082   4.788   1.035   0.017
 5210SOL    HW216083   4.883   0.927   0.063
 5211SOL     OW16084   3.949   1.301   1.855
 5211SOL    HW116085   3.884   1.238   1.824
 5211SOL    HW216086   3.929   1.313   1.948
 5212SOL     OW16087   3.811   1.231   0.666
 5212SOL    HW116088   3.816   1.183   0.749
 5212SOL    HW216089   3.882   1.194   0.613
 5213SOL     OW16090   4.407   1.404   1.630
 5213SOL    HW116091   4.327   1.362   1.662
 5213SOL    HW216092   4.403   1.493   1.666
 5214SOL     OW16093   4.149   0.439   0.524
 5214SOL    HW116094   4.187   0.367   0.474
 5214SOL    HW216095   4.104   0.397   0.597
 5215SOL     OW16096   0.090   1.521   1.101
 5215SOL    HW116097   0.025   1.500   1.035
 5215SOL    HW216098   0.093   1.444   1.158
 5216SOL     OW16099   4.055   0.559   1.291
 5216SOL    HW116100   4.110   0.503   1.346
 5216SOL    HW216101   4.074   0.530   1.201
 5217SOL     OW16102   4.553   1.578   0.676
 5217SOL    HW116103   4.538   1.636   0.602
 5217SOL    HW216104   4.477   1.519   0.678
 5218SOL     OW16105   5.146   0.214   1.121
 5218SOL    HW116106   5.155   0.132   1.170
 5218SOL    HW216107   5.101   0.273   1.182
 5219SOL     OW16108   4.723   0.018   1.136
 5219SOL    HW116109   4.672   5.251   1.091
 5219SOL    HW216110   4.810   5.280   1.147
 5220SOL     OW16111   4.496   1.328   0.309
 5220SOL    HW116112   4.466   1.238   0.325
 5220SOL    HW216113   4.577   1.335   0.360
 5221SOL     OW16114   4.343   1.556   1.286
 5221SOL    HW116115   4.345   1.638   1.334
 5221SOL    HW216116   4.431   1.548   1.249
 5222SOL     OW16117   5.074   5.293   0.207
 5222SOL    HW116118   5.139   0.004   0.138
 5222SOL    HW216119   5.007   0.059   0.188
 5223SOL     OW16120   5.033   0.466   0.690
 5223SOL    HW116121   4.975   0.543   0.693
 5223SOL    HW216122   5.017   0.422   0.773
 5224SOL     OW16123   5.294   0.215   0.886
 5224SOL    HW116124   5.237   0.212   0.963
 5224SOL    HW216125   5.267   0.295   0.840
 5225SOL     OW16126   3.768   1.065   0.307
 5225SOL    HW116127   3.864   1.063   0.310
 5225SOL    HW216128   3.741   0.981   0.344
 5226SOL     OW16129   4.604   1.654   0.350
 5226SOL    HW116130   4.536   1.640   0.285
 5226SOL    HW216131   4.574   1.731   0.399
 5227SOL     OW16132   3.950   0.626   1.987
 5227SOL    HW116133   3.862   0.621   2.024
 5227SOL    HW216134   3.939   0.600   1.896
 5228SOL     OW16135   3.940   0.286   2.856
 5228SOL    HW116136   3.969   0.249   2.939
 5228SOL    HW216137   3.857   0.242   2.838
 5229SOL     OW16138   3.726   0.389   2.499
 5229SOL    HW116139   3.641   0.410   2.540
 5229SOL    HW216140   3.708   0.312   2.445
 5230SOL     OW16141   4.292   1.292   3.041
 5230SOL    HW116142   4.205   1.296   3.001
 5230SOL    HW216143   4.307   1.381   3.073
 5231SOL     OW16144   5.289   1.535   2.568
 5231SOL    HW116145   5.248   1.495   2.644
 5231SOL    HW216146   5.222   1.529   2.499
 5232SOL     OW16147   4.862   0.698   2.560
 5232SOL    HW116148   4.911   0.779   2.551
 5232SOL    HW216149   4.811   0.710   2.641
 5233SOL     OW16150   4.476   1.140   2.906
 5233SOL    HW116151   4.408   1.176   2.963
 5233SOL    HW216152   4.512   1.217   2.861
 5234SOL     OW16153   4.596   0.772   3.686
 5234SOL    HW116154   4.576   0.843   3.747
 5234SOL    HW216155   4.617   0.816   3.604
 5235SOL     OW16156   4.410   1.000   2.507
 5235SOL    HW116157   4.475   0.990   2.577
 5235SOL    HW216158   4.341   1.053   2.547
 5236SOL     OW16159   4.437   1.150   3.678
 5236SOL    HW116160   4.484   1.228   3.706
 5236SOL    HW216161   4.356   1.184   3.640
 5237SOL     OW16162   4.054   1.422   2.929
 5237SOL    HW116163   3.981   1.383   2.881
 5237SOL    HW216164   4.102   1.473   2.864
 5238SOL     OW16165   5.160   1.480   3.219
 5238SOL    HW116166   5.212   1.556   3.242
 5238SOL    HW216167   5.096   1.472   3.289
 5239SOL     OW16168   4.170   0.397   3.343
 5239SOL    HW116169   4.245   0.338   3.345
 5239SOL    HW216170   4.095   0.341   3.361
 5240SOL     OW16171   3.943   1.715   2.332
 5240SOL    HW116172   3.964   1.791   2.387
 5240SOL    HW216173   4.018   1.707   2.273
 5241SOL     OW16174   4.859   1.341   3.557
 5241SOL    HW116175   4.897   1.336   3.644
 5241SOL    HW216176   4.807   1.260   3.549
 5242SOL     OW16177   3.955   1.443   2.398
 5242SOL    HW116178   3.937   1.537   2.400
 5242SOL    HW216179   3.896   1.405   2.463
 5243SOL     OW16180   3.986   1.091   2.754
 5243SOL    HW116181   3.982   1.003   2.793
 5243SOL    HW216182   3.927   1.144   2.808
 5244SOL     OW16183   4.329   1.793   3.287
 5244SOL    HW116184   4.249   1.775   3.336
 5244SOL    HW216185   4.354   1.881   3.315
 5245SOL     OW16186   4.306   0.983   1.999
 5245SOL    HW116187   4.353   1.031   1.930
 5245SOL    HW216188   4.345   1.014   2.080
 5246SOL     OW16189   5.251   0.140   3.343
 5246SOL    HW116190   0.002   0.220   3.326
 5246SOL    HW216191   5.268   0.120   3.434
 5247SOL     OW16192   3.840   0.655   2.422
 5247SOL    HW116193   3.812   0.566   2.443
 5247SOL    HW216194   3.832   0.703   2.504
 5248SOL     OW16195   3.759   1.593   1.985
 5248SOL    HW116196   3.741   1.501   2.005
 5248SOL    HW216197   3.734   1.640   2.064
 5249SOL     OW16198   0.113   0.938   2.437
 5249SOL    HW116199   0.202   0.904   2.444
 5249SOL    HW216200   0.124   1.029   2.409
 5250SOL     OW16201   3.847   0.745   3.445
 5250SOL    HW116202   3.939   0.774   3.450
 5250SOL    HW216203   3.797   0.826   3.453
 5251SOL     OW16204   4.338   1.388   2.597
 5251SOL    HW116205   4.293   1.304   2.606
 5251SOL    HW216206   4.322   1.415   2.507
 5252SOL     OW16207   5.002   1.233   3.286
 5252SOL    HW116208   5.036   1.167   3.226
 5252SOL    HW216209   5.059   1.228   3.363
 5253SOL     OW16210   4.538   0.032   2.395
 5253SOL    HW116211   4.566   0.119   2.367
 5253SOL    HW216212   4.442   0.034   2.387
 5254SOL     OW16213   3.913   0.964   3.136
 5254SOL    HW116214   3.998   0.923   3.121
 5254SOL    HW216215   3.852   0.912   3.084
 5255SOL     OW16216   4.895   1.809   3.487
 5255SOL    HW116217   4.913   1.870   3.415
 5255SOL    HW216218   4.919   1.723   3.453
 5256SOL     OW16219   4.054   0.270   3.677
 5256SOL    HW116220   4.105   0.343   3.711
 5256SOL    HW216221   3.967   0.282   3.716
 5257SOL     OW16222   5.166   1.437   2.794
 5257SOL    HW116223   5.106   1.444   2.868
 5257SOL    HW216224   5.160   1.346   2.767
 5258SOL     OW16225   4.318   0.720   2.130
 5258SOL    HW116226   4.321   0.803   2.082
 5258SOL    HW216227   4.252   0.734   2.198
 5259SOL     OW16228   4.994   0.328   2.778
 5259SOL    HW116229   4.904   0.306   2.803
 5259SOL    HW216230   5.047   0.299   2.853
 5260SOL     OW16231   4.517   0.619   3.310
 5260SOL    HW116232   4.490   0.596   3.399
 5260SOL    HW216233   4.478   0.551   3.255
 5261SOL     OW16234   5.116   0.490   3.543
 5261SOL    HW116235   5.120   0.522   3.633
 5261SOL    HW216236   5.184   0.423   3.538
 5262SOL     OW16237   4.676   0.887   3.446
 5262SOL    HW116238   4.729   0.816   3.409
 5262SOL    HW216239   4.627   0.922   3.371
 5263SOL     OW16240   4.718   0.422   3.090
 5263SOL    HW116241   4.631   0.435   3.128
 5263SOL    HW216242   4.703   0.368   3.013
 5264SOL     OW16243   4.776   0.698   2.287
 5264SOL    HW116244   4.793   0.691   2.381
 5264SOL    HW216245   4.692   0.653   2.274
 5265SOL     OW16246   3.812   0.822   2.639
 5265SOL    HW116247   3.892   0.814   2.690
 5265SOL    HW216248   3.768   0.899   2.674
 5266SOL     OW16249   3.849   1.857   3.442
 5266SOL    HW116250   3.852   1.834   3.535
 5266SOL    HW216251   3.759   1.840   3.416
 5267SOL     OW16252   4.605   0.365   2.053
 5267SOL    HW116253   4.636   0.420   1.981
 5267SOL    HW216254   4.659   0.287   2.049
 5268SOL     OW16255   5.095   1.150   2.412
 5268SOL    HW116256   5.184   1.156   2.377
 5268SOL    HW216257   5.043   1.207   2.355
 5269SOL     OW16258   4.245   0.203   2.742
 5269SOL    HW116259   4.267   0.218   2.834
 5269SOL    HW216260   4.268   0.285   2.699
 5270SOL     OW16261   4.727   1.442   2.333
 5270SOL    HW116262   4.691   1.516   2.283
 5270SOL    HW216263   4.706   1.463   2.424
 5271SOL     OW16264   4.078   1.811   2.728
 5271SOL    HW116265   4.122   1.727   2.735
 5271SOL    HW216266   4.147   1.875   2.747
 5272SOL     OW16267   4.939   1.539   3.379
 5272SOL    HW116268   4.926   1.468   3.442
 5272SOL    HW216269   4.875   1.523   3.310
 5273SOL     OW16270   4.041   0.959   2.114
 5273SOL    HW116271   4.123   0.977   2.068
 5273SOL    HW216272   4.011   0.876   2.076
 5274SOL     OW16273   4.192   1.266   3.600
 5274SOL    HW116274   4.165   1.270   3.508
 5274SOL    HW216275   4.109   1.263   3.649
 5275SOL     OW16276   4.831   1.774   2.100
 5275SOL    HW116277   4.757   1.731   2.143
 5275SOL    HW216278   4.856   1.714   2.029
 5276SOL     OW16279   3.921   0.277   3.367
 5276SOL    HW116280   3.842   0.331   3.367
 5276SOL    HW216281   3.916   0.227   3.448
 5277SOL     OW16282   4.188   1.736   2.182
 5277SOL    HW116283   4.232   1.793   2.245
 5277SOL    HW216284   4.259   1.704   2.126
 5278SOL     OW16285   5.093   0.097   2.280
 5278SOL    HW116286   5.081   0.080   2.186
 5278SOL    HW216287   5.186   0.117   2.288
 5279SOL     OW16288   3.979   1.791   3.092
 5279SOL    HW116289   4.030   1.723   3.137
 5279SOL    HW216290   3.972   1.759   3.002
 5280SOL     OW16291   4.662   1.698   2.759
 5280SOL    HW116292   4.743   1.650   2.777
 5280SOL    HW216293   4.619   1.649   2.690
 5281SOL     OW16294   4.118   0.696   2.336
 5281SOL    HW116295   4.138   0.603   2.348
 5281SOL    HW216296   4.025   0.704   2.354
 5282SOL     OW16297   4.347   0.134   1.969
 5282SOL    HW116298   4.415   0.070   1.990
 5282SOL    HW216299   4.297   0.092   1.899
 5283SOL     OW16300   4.507   0.309   3.629
 5283SOL    HW116301   4.575   0.242   3.628
 5283SOL    HW216302   4.458   0.293   3.710
 5284SOL     OW16303   4.599   1.523   3.056
 5284SOL    HW116304   4.583   1.486   2.969
 5284SOL    HW216305   4.669   1.469   3.092
 5285SOL     OW16306   5.060   0.593   3.293
 5285SOL    HW116307   5.088   0.564   3.379
 5285SOL    HW216308   5.099   0.679   3.282
 5286SOL     OW16309   4.540   1.392   2.805
 5286SOL    HW116310   4.624   1.380   2.762
 5286SOL    HW216311   4.477   1.396   2.733
 5287SOL     OW16312   4.652   0.511   2.764
 5287SOL    HW116313   4.628   0.502   2.672
 5287SOL    HW216314   4.680   0.424   2.791
 5288SOL     OW16315   4.268   0.061   2.369
 5288SOL    HW116316   4.183   0.059   2.413
 5288SOL    HW216317   4.258   0.130   2.303
 5289SOL     OW16318   5.133   1.182   1.906
 5289SOL    HW116319   5.137   1.101   1.958
 5289SOL    HW216320   5.047   1.218   1.926
 5290SOL     OW16321   4.026   0.065   2.055
 5290SOL    HW116322   4.084   0.136   2.027
 5290SOL    HW216323   4.082   5.287   2.056
 5291SOL     OW16324   4.661   0.267   2.324
 5291SOL    HW116325   4.633   0.298   2.238
 5291SOL    HW216326   4.756   0.281   2.325
 5292SOL     OW16327   4.802   0.683   3.322
 5292SOL    HW116328   4.734   0.616   3.322
 5292SOL    HW216329   4.883   0.634   3.311
 5293SOL     OW16330   4.938   1.571   2.656
 5293SOL    HW116331   4.959   1.638   2.591
 5293SOL    HW216332   5.021   1.556   2.702
 5294SOL     OW16333   4.195   1.151   2.592
 5294SOL    HW116334   4.127   1.131   2.657
 5294SOL    HW216335   4.153   1.136   2.508
 5295SOL     OW16336   4.993   1.794   2.469
 5295SOL    HW116337   5.035   1.855   2.408
 5295SOL    HW216338   4.926   1.846   2.512
 5296SOL     OW16339   4.751   0.547   1.883
 5296SOL    HW116340   4.704   0.629   1.866
 5296SOL    HW216341   4.804   0.566   1.960
 5297SOL     OW16342   3.805   0.552   3.255
 5297SOL    HW116343   3.896   0.553   3.228
 5297SOL    HW216344   3.799   0.623   3.320
 5298SOL     OW16345   4.277   0.238   3.020
 5298SOL    HW116346   4.311   0.154   3.051
 5298SOL    HW216347   4.185   0.239   3.048
 5299SOL     OW16348   4.591   0.466   2.503
 5299SOL    HW116349   4.542   0.519   2.440
 5299SOL    HW216350   4.612   0.386   2.455
 5300SOL     OW16351   4.699   0.063   2.627
 5300SOL    HW116352   4.635   0.058   2.556
 5300SOL    HW216353   4.713   5.272   2.653
 5301SOL     OW16354   5.155   1.177   2.712
 5301SOL    HW116355   5.101   1.100   2.728
 5301SOL    HW216356   5.166   1.180   2.617
 5302SOL     OW16357   4.214   1.420   2.016
 5302SOL    HW116358   4.138   1.392   2.067
 5302SOL    HW216359   4.204   1.374   1.932
 5303SOL     OW16360   5.129   0.556   1.947
 5303SOL    HW116361   5.051   0.549   2.001
 5303SOL    HW216362   5.201   0.532   2.005
 5304SOL     OW16363   4.246   0.266   2.182
 5304SOL    HW116364   4.292   0.217   2.114
 5304SOL    HW216365   4.224   0.349   2.141
 5305SOL     OW16366   4.777   1.355   3.195
 5305SOL    HW116367   4.702   1.323   3.245
 5305SOL    HW216368   4.853   1.312   3.235
 5306SOL     OW16369   0.007   1.606   3.476
 5306SOL    HW116370   0.042   1.608   3.387
 5306SOL    HW216371   0.083   1.584   3.531
 5307SOL     OW16372   4.857   1.207   2.967
 5307SOL    HW116373   4.792   1.240   3.030
 5307SOL    HW216374   4.824   1.236   2.882
 5308SOL     OW16375   4.622   0.106   3.244
 5308SOL    HW116376   4.656   0.071   3.162
 5308SOL    HW216377   4.697   0.150   3.284
 5309SOL     OW16378   4.709   1.112   3.588
 5309SOL    HW116379   4.617   1.131   3.610
 5309SOL    HW216380   4.705   1.036   3.531
 5310SOL     OW16381   4.433   1.063   2.233
 5310SOL    HW116382   4.419   1.044   2.325
 5310SOL    HW216383   4.509   1.009   2.209
 5311SOL     OW16384   4.144   0.817   3.113
 5311SOL    HW116385   4.212   0.826   3.180
 5311SOL    HW216386   4.109   0.729   3.126
 5312SOL     OW16387   4.990   0.381   3.133
 5312SOL    HW116388   5.023   0.459   3.177
 5312SOL    HW216389   4.899   0.403   3.111
 5313SOL     OW16390   3.797   1.573   3.217
 5313SOL    HW116391   3.769   1.647   3.162
 5313SOL    HW216392   3.892   1.574   3.211
 5314SOL     OW16393   4.068   1.113   2.352
 5314SOL    HW116394   4.073   1.186   2.290
 5314SOL    HW216395   4.065   1.035   2.296
 5315SOL     OW16396   4.276   0.535   2.722
 5315SOL    HW116397   4.290   0.594   2.648
 5315SOL    HW216398   4.342   0.561   2.786
 5316SOL     OW16399   4.971   1.350   2.249
 5316SOL    HW116400   5.026   1.423   2.279
 5316SOL    HW216401   4.884   1.370   2.282
 5317SOL     OW16402   4.998   1.457   3.003
 5317SOL    HW116403   5.051   1.458   3.082
 5317SOL    HW216404   4.943   1.379   3.011
 5318SOL     OW16405   4.070   1.529   3.175
 5318SOL    HW116406   4.058   1.485   3.090
 5318SOL    HW216407   4.165   1.540   3.183
 5319SOL     OW16408   4.140   0.745   3.465
 5319SOL    HW116409   4.202   0.789   3.407
 5319SOL    HW216410   4.180   0.659   3.483
 5320SOL     OW16411   4.756   0.123   3.612
 5320SOL    HW116412   4.801   0.205   3.592
 5320SOL    HW216413   4.801   0.057   3.559
 5321SOL     OW16414   4.202   0.060   3.596
 5321SOL    HW116415   4.139   5.295   3.565
 5321SOL    HW216416   4.149   0.136   3.620
 5322SOL     OW16417   4.308   0.873   2.894
 5322SOL    HW116418   4.339   0.964   2.895
 5322SOL    HW216419   4.251   0.866   2.970
 5323SOL     OW16420   5.086   0.856   2.897
 5323SOL    HW116421   5.008   0.833   2.846
 5323SOL    HW216422   5.143   0.780   2.889
 5324SOL     OW16423   4.925   0.531   2.126
 5324SOL    HW116424   4.930   0.451   2.178
 5324SOL    HW216425   4.882   0.594   2.183
 5325SOL     OW16426   4.018   0.202   3.111
 5325SOL    HW116427   3.978   0.241   3.189
 5325SOL    HW216428   4.021   0.108   3.131
 5326SOL     OW16429   3.770   1.311   3.137
 5326SOL    HW116430   3.802   1.256   3.208
 5326SOL    HW216431   3.776   1.400   3.171
 5327SOL     OW16432   4.448   0.631   2.919
 5327SOL    HW116433   4.523   0.616   2.862
 5327SOL    HW216434   4.419   0.720   2.897
 5328SOL     OW16435   4.034   0.070   2.522
 5328SOL    HW116436   4.009   0.163   2.523
 5328SOL    HW216437   4.085   0.058   2.602
 5329SOL     OW16438   0.029   0.414   2.225
 5329SOL    HW116439   0.054   0.349   2.292
 5329SOL    HW216440   0.013   0.494   2.274
 5330SOL     OW16441   4.752   0.759   2.821
 5330SOL    HW116442   4.748   0.776   2.915
 5330SOL    HW216443   4.725   0.668   2.812
 5331SOL     OW16444   4.696   1.562   3.577
 5331SOL    HW116445   4.685   1.609   3.495
 5331SOL    HW216446   4.744   1.482   3.553
 5332SOL     OW16447   4.077   0.917   3.671
 5332SOL    HW116448   4.159   0.935   3.718
 5332SOL    HW216449   4.102   0.853   3.604
 5333SOL     OW16450   5.029   0.829   1.899
 5333SOL    HW116451   5.063   0.739   1.900
 5333SOL    HW216452   5.056   0.864   1.814
 5334SOL     OW16453   4.790   1.335   2.719
 5334SOL    HW116454   4.795   1.263   2.655
 5334SOL    HW216455   4.846   1.403   2.682
 5335SOL     OW16456   4.032   0.808   2.808
 5335SOL    HW116457   4.125   0.829   2.801
 5335SOL    HW216458   4.030   0.718   2.840
 5336SOL     OW16459   4.054   0.528   2.875
 5336SOL    HW116460   4.018   0.441   2.861
 5336SOL    HW216461   4.131   0.531   2.818
 5337SOL     OW16462   4.862   0.378   3.554
 5337SOL    HW116463   4.811   0.431   3.615
 5337SOL    HW216464   4.946   0.423   3.546
 5338SOL     OW16465   4.844   0.234   3.321
 5338SOL    HW116466   4.854   0.285   3.401
 5338SOL    HW216467   4.908   0.272   3.260
 5339SOL     OW16468   3.730   1.319   2.057
 5339SOL    HW116469   3.643   1.335   2.020
 5339SOL    HW216470   3.726   1.230   2.091
 5340SOL     OW16471   3.814   1.785   2.801
 5340SOL    HW116472   3.784   1.706   2.756
 5340SOL    HW216473   3.903   1.798   2.770
 5341SOL     OW16474   4.218   1.574   2.767
 5341SOL    HW116475   4.287   1.636   2.791
 5341SOL    HW216476   4.262   1.511   2.710
 5342SOL     OW16477   4.702   0.792   3.087
 5342SOL    HW116478   4.759   0.769   3.161
 5342SOL    HW216479   4.619   0.750   3.108
 5343SOL     OW16480   3.759   0.546   2.979
 5343SOL    HW116481   3.839   0.532   2.927
 5343SOL    HW216482   3.790   0.548   3.069
 5344SOL     OW16483   3.909   0.525   3.591
 5344SOL    HW116484   3.973   0.487   3.531
 5344SOL    HW216485   3.873   0.600   3.544
 5345SOL     OW16486   5.116   0.935   3.528
 5345SOL    HW116487   5.123   1.029   3.515
 5345SOL    HW216488   5.119   0.898   3.440
 5346SOL     OW16489   4.539   0.575   2.226
 5346SOL    HW116490   4.543   0.500   2.166
 5346SOL    HW216491   4.464   0.625   2.195
 5347SOL     OW16492   3.965   1.550   3.587
 5347SOL    HW116493   3.943   1.615   3.654
 5347SOL    HW216494   3.969   1.467   3.635
 5348SOL     OW16495   4.428   0.449   3.119
 5348SOL    HW116496   4.374   0.377   3.088
 5348SOL    HW216497   4.425   0.514   3.048
 5349SOL     OW16498   4.643   1.679   3.331
 5349SOL    HW116499   4.620   1.645   3.245
 5349SOL    HW216500   4.642   1.775   3.320
 5350SOL     OW16501   4.184   0.492   2.042
 5350SOL    HW116502   4.245   0.562   2.067
 5350SOL    HW216503   4.099   0.536   2.033
 5351SOL     OW16504   3.868   1.142   3.335
 5351SOL    HW116505   3.869   1.092   3.417
 5351SOL    HW216506   3.885   1.076   3.267
 5352SOL     OW16507   5.052   1.047   3.085
 5352SOL    HW116508   5.072   0.982   3.018
 5352SOL    HW216509   4.982   1.101   3.046
 5353SOL     OW16510   5.038   0.859   2.178
 5353SOL    HW116511   4.957   0.828   2.217
 5353SOL    HW216512   5.025   0.852   2.084
 5354SOL     OW16513   4.958   1.731   2.981
 5354SOL    HW116514   5.044   1.754   2.946
 5354SOL    HW216515   4.961   1.636   2.992
 5355SOL     OW16516   3.809   1.267   2.873
 5355SOL    HW116517   3.793   1.280   2.966
 5355SOL    HW216518   3.737   1.211   2.844
 5356SOL     OW16519   4.401   1.667   3.595
 5356SOL    HW116520   4.347   1.745   3.587
 5356SOL    HW216521   4.472   1.680   3.532
 5357SOL     OW16522   5.111   1.571   2.346
 5357SOL    HW116523   5.181   1.614   2.296
 5357SOL    HW216524   5.059   1.643   2.380
 5358SOL     OW16525   3.863   1.795   3.705
 5358SOL    HW116526   3.812   1.730   3.752
 5358SOL    HW216527   3.910   1.844   3.773
 5359SOL     OW16528   5.018   0.920   2.532
 5359SOL    HW116529   5.096   0.867   2.521
 5359SOL    HW216530   5.037   1.001   2.485
 5360SOL     OW16531   4.533   1.275   3.290
 5360SOL    HW116532   4.505   1.315   3.372
 5360SOL    HW216533   4.464   1.297   3.227
 5361SOL     OW16534   4.393   1.623   2.017
 5361SOL    HW116535   4.406   1.636   1.923
 5361SOL    HW216536   4.338   1.545   2.023
 5362SOL     OW16537   3.983   0.330   2.579
 5362SOL    HW116538   3.895   0.361   2.559
 5362SOL    HW216539   3.983   0.319   2.675
 5363SOL     OW16540   4.907   1.608   1.905
 5363SOL    HW116541   4.918   1.513   1.915
 5363SOL    HW216542   4.851   1.617   1.828
 5364SOL     OW16543   4.547   1.006   3.236
 5364SOL    HW116544   4.590   1.000   3.151
 5364SOL    HW216545   4.545   1.100   3.255
 5365SOL     OW16546   4.641   0.912   2.153
 5365SOL    HW116547   4.703   0.943   2.087
 5365SOL    HW216548   4.688   0.841   2.197
 5366SOL     OW16549   4.092   1.304   3.354
 5366SOL    HW116550   4.079   1.380   3.298
 5366SOL    HW216551   4.016   1.249   3.338
 5367SOL     OW16552   4.780   1.108   2.570
 5367SOL    HW116553   4.708   1.059   2.610
 5367SOL    HW216554   4.838   1.041   2.534
 5368SOL     OW16555   4.735   0.243   2.835
 5368SOL    HW116556   4.716   0.198   2.753
 5368SOL    HW216557   4.731   0.175   2.902
 5369SOL     OW16558   4.328   1.488   2.343
 5369SOL    HW116559   4.375   1.438   2.276
 5369SOL    HW216560   4.256   1.530   2.296
 5370SOL     OW16561   3.984   1.344   2.152
 5370SOL    HW116562   3.892   1.341   2.129
 5370SOL    HW216563   3.986   1.381   2.240
 5371SOL     OW16564   3.837   1.026   3.583
 5371SOL    HW116565   3.761   1.001   3.635
 5371SOL    HW216566   3.911   0.986   3.628
 5372SOL     OW16567   4.397   0.216   3.355
 5372SOL    HW116568   4.478   0.195   3.309
 5372SOL    HW216569   4.425   0.264   3.433
 5373SOL     OW16570   3.802   0.337   1.904
 5373SOL    HW116571   3.719   0.303   1.872
 5373SOL    HW216572   3.821   0.412   1.847
 5374SOL     OW16573   5.164   0.860   3.265
 5374SOL    HW116574   5.111   0.917   3.209
 5374SOL    HW216575   5.253   0.868   3.230
 5375SOL     OW16576   3.795   0.167   2.175
 5375SOL    HW116577   3.798   0.249   2.127
 5375SOL    HW216578   3.879   0.125   2.157
 5376SOL     OW16579   4.905   1.327   1.975
 5376SOL    HW116580   4.811   1.308   1.977
 5376SOL    HW216581   4.929   1.334   2.068
 5377SOL     OW16582   4.344   0.831   3.296
 5377SOL    HW116583   4.400   0.906   3.281
 5377SOL    HW216584   4.404   0.757   3.303
 5378SOL     OW16585   4.440   0.571   3.563
 5378SOL    HW116586   4.482   0.632   3.623
 5378SOL    HW216587   4.466   0.484   3.594
 5379SOL     OW16588   5.180   1.202   3.493
 5379SOL    HW116589   5.170   1.215   3.588
 5379SOL    HW216590   5.273   1.214   3.476
 5380SOL     OW16591   4.100   1.739   3.427
 5380SOL    HW116592   4.016   1.783   3.412
 5380SOL    HW216593   4.077   1.656   3.469
 5381SOL     OW16594   4.938   0.324   2.322
 5381SOL    HW116595   4.992   0.245   2.316
 5381SOL    HW216596   4.970   0.369   2.400
 5382SOL     OW16597   4.313   0.736   2.533
 5382SOL    HW116598   4.352   0.823   2.518
 5382SOL    HW216599   4.246   0.727   2.465
 5383SOL     OW16600   4.592   1.365   1.901
 5383SOL    HW116601   4.551   1.395   1.982
 5383SOL    HW216602   4.606   1.445   1.850
 5384SOL     OW16603   4.385   1.788   2.803
 5384SOL    HW116604   4.366   1.880   2.782
 5384SOL    HW216605   4.481   1.781   2.797
 5385SOL     OW16606   4.593   0.969   2.717
 5385SOL    HW116607   4.642   0.897   2.755
 5385SOL    HW216608   4.556   1.015   2.792
 5386SOL     OW16609   4.808   0.988   1.953
 5386SOL    HW116610   4.782   1.037   1.875
 5386SOL    HW216611   4.881   0.934   1.924
 5387SOL     OW16612   3.949   1.301   3.717
 5387SOL    HW116613   3.884   1.239   3.686
 5387SOL    HW216614   3.928   1.314   3.810
 5388SOL     OW16615   3.810   1.232   2.527
 5388SOL    HW116616   3.817   1.185   2.610
 5388SOL    HW216617   3.877   1.193   2.472
 5389SOL     OW16618   4.407   1.404   3.493
 5389SOL    HW116619   4.327   1.362   3.524
 5389SOL    HW216620   4.403   1.493   3.528
 5390SOL     OW16621   4.155   0.436   2.387
 5390SOL    HW116622   4.187   0.364   2.334
 5390SOL    HW216623   4.106   0.394   2.458
 5391SOL     OW16624   0.093   1.518   2.962
 5391SOL    HW116625   0.026   1.499   2.897
 5391SOL    HW216626   0.093   1.443   3.021
 5392SOL     OW16627   4.055   0.559   3.153
 5392SOL    HW116628   4.110   0.503   3.208
 5392SOL    HW216629   4.074   0.531   3.063
 5393SOL     OW16630   4.554   1.577   2.538
 5393SOL    HW116631   4.538   1.637   2.464
 5393SOL    HW216632   4.478   1.520   2.539
 5394SOL     OW16633   5.146   0.214   2.983
 5394SOL    HW116634   5.157   0.133   3.032
 5394SOL    HW216635   5.101   0.273   3.043
 5395SOL     OW16636   4.723   0.018   2.998
 5395SOL    HW116637   4.672   5.251   2.954
 5395SOL    HW216638   4.810   5.280   3.009
 5396SOL     OW16639   4.495   1.333   2.180
 5396SOL    HW116640   4.466   1.242   2.187
 5396SOL    HW216641   4.578   1.336   2.229
 5397SOL     OW16642   4.344   1.555   3.148
 5397SOL    HW116643   4.345   1.638   3.196
 5397SOL    HW216644   4.431   1.548   3.111
 5398SOL     OW16645   5.034   0.030   2.017
 5398SOL    HW116646   5.118   0.024   1.971
 5398SOL    HW216647   4.985   5.253   1.988
 5399SOL     OW16648   5.027   0.461   2.546
 5399SOL    HW116649   4.972   0.539   2.550
 5399SOL    HW216650   5.014   0.418   2.630
 5400SOL     OW16651   5.294   0.214   2.749
 5400SOL    HW116652   5.237   0.212   2.826
 5400SOL    HW216653   5.269   0.293   2.702
 5401SOL     OW16654   3.767   1.069   2.169
 5401SOL    HW116655   3.861   1.061   2.151
 5401SOL    HW216656   3.739   0.980   2.191
 5402SOL     OW16657   4.604   1.652   2.207
 5402SOL    HW116658   4.533   1.638   2.145
 5402SOL    HW216659   4.577   1.728   2.258
 5403SOL     OW16660   3.950   0.626   3.849
 5403SOL    HW116661   3.861   0.621   3.886
 5403SOL    HW216662   3.939   0.600   3.758
 5404SOL     OW16663   3.940   0.286   4.718
 5404SOL    HW116664   3.969   0.249   4.801
 5404SOL    HW216665   3.857   0.242   4.700
 5405SOL     OW16666   3.725   0.389   4.361
 5405SOL    HW116667   3.641   0.410   4.402
 5405SOL    HW216668   3.708   0.312   4.307
 5406SOL     OW16669   4.292   1.292   4.903
 5406SOL    HW116670   4.205   1.296   4.863
 5406SOL    HW216671   4.307   1.381   4.935
 5407SOL     OW16672   5.289   1.535   4.430
 5407SOL    HW116673   5.248   1.495   4.506
 5407SOL    HW216674   5.222   1.529   4.361
 5408SOL     OW16675   4.862   0.698   4.422
 5408SOL    HW116676   4.911   0.779   4.413
 5408SOL    HW216677   4.811   0.710   4.503
 5409SOL     OW16678   4.476   1.141   4.768
 5409SOL    HW116679   4.408   1.176   4.825
 5409SOL    HW216680   4.512   1.217   4.723
 5410SOL     OW16681   4.596   0.772   5.548
 5410SOL    HW116682   4.577   0.844   5.609
 5410SOL    HW216683   4.617   0.816   5.466
 5411SOL     OW16684   4.410   1.000   4.369
 5411SOL    HW116685   4.475   0.990   4.439
 5411SOL    HW216686   4.341   1.053   4.408
 5412SOL     OW16687   4.437   1.150   5.540
 5412SOL    HW116688   4.484   1.228   5.568
 5412SOL    HW216689   4.356   1.184   5.502
 5413SOL     OW16690   4.054   1.422   4.791
 5413SOL    HW116691   3.981   1.383   4.743
 5413SOL    HW216692   4.102   1.473   4.726
 5414SOL     OW16693   5.160   1.479   5.081
 5414SOL    HW116694   5.212   1.556   5.104
 5414SOL    HW216695   5.096   1.472   5.152
 5415SOL     OW16696   4.170   0.397   5.205
 5415SOL    HW116697   4.245   0.338   5.207
 5415SOL    HW216698   4.095   0.341   5.223
 5416SOL     OW16699   3.943   1.715   4.195
 5416SOL    HW116700   3.964   1.791   4.249
 5416SOL    HW216701   4.017   1.707   4.134
 5417SOL     OW16702   4.859   1.341   5.419
 5417SOL    HW116703   4.897   1.336   5.506
 5417SOL    HW216704   4.807   1.260   5.411
 5418SOL     OW16705   3.956   1.443   4.260
 5418SOL    HW116706   3.938   1.537   4.261
 5418SOL    HW216707   3.896   1.406   4.325
 5419SOL     OW16708   3.986   1.091   4.616
 5419SOL    HW116709   3.981   1.003   4.655
 5419SOL    HW216710   3.927   1.144   4.670
 5420SOL     OW16711   4.329   1.793   5.149
 5420SOL    HW116712   4.249   1.775   5.198
 5420SOL    HW216713   4.354   1.881   5.177
 5421SOL     OW16714   4.307   0.983   3.860
 5421SOL    HW116715   4.354   1.031   3.792
 5421SOL    HW216716   4.345   1.014   3.942
 5422SOL     OW16717   5.251   0.140   5.205
 5422SOL    HW116718   0.002   0.220   5.188
 5422SOL    HW216719   5.268   0.120   5.296
 5423SOL     OW16720   3.840   0.655   4.284
 5423SOL    HW116721   3.812   0.566   4.305
 5423SOL    HW216722   3.832   0.703   4.366
 5424SOL     OW16723   3.759   1.593   3.846
 5424SOL    HW116724   3.740   1.501   3.867
 5424SOL    HW216725   3.734   1.641   3.925
 5425SOL     OW16726   0.113   0.938   4.299
 5425SOL    HW116727   0.202   0.904   4.306
 5425SOL    HW216728   0.124   1.029   4.272
 5426SOL     OW16729   3.847   0.745   5.307
 5426SOL    HW116730   3.938   0.774   5.312
 5426SOL    HW216731   3.796   0.826   5.314
 5427SOL     OW16732   4.338   1.388   4.460
 5427SOL    HW116733   4.293   1.304   4.468
 5427SOL    HW216734   4.322   1.415   4.369
 5428SOL     OW16735   5.002   1.233   5.148
 5428SOL    HW116736   5.036   1.167   5.088
 5428SOL    HW216737   5.059   1.228   5.225
 5429SOL     OW16738   4.538   0.032   4.257
 5429SOL    HW116739   4.566   0.119   4.229
 5429SOL    HW216740   4.442   0.034   4.249
 5430SOL     OW16741   3.913   0.964   4.999
 5430SOL    HW116742   3.998   0.923   4.984
 5430SOL    HW216743   3.852   0.913   4.945
 5431SOL     OW16744   4.895   1.809   5.349
 5431SOL    HW116745   4.913   1.869   5.277
 5431SOL    HW216746   4.919   1.723   5.315
 5432SOL     OW16747   4.054   0.270   5.539
 5432SOL    HW116748   4.105   0.343   5.573
 5432SOL    HW216749   3.967   0.282   5.578
 5433SOL     OW16750   5.166   1.437   4.656
 5433SOL    HW116751   5.106   1.444   4.730
 5433SOL    HW216752   5.160   1.346   4.629
 5434SOL     OW16753   4.318   0.720   3.992
 5434SOL    HW116754   4.320   0.803   3.944
 5434SOL    HW216755   4.252   0.734   4.060
 5435SOL     OW16756   4.994   0.328   4.640
 5435SOL    HW116757   4.904   0.306   4.665
 5435SOL    HW216758   5.047   0.299   4.715
 5436SOL     OW16759   4.517   0.619   5.172
 5436SOL    HW116760   4.490   0.596   5.261
 5436SOL    HW216761   4.478   0.551   5.117
 5437SOL     OW16762   5.116   0.490   5.405
 5437SOL    HW116763   5.120   0.522   5.495
 5437SOL    HW216764   5.185   0.423   5.400
 5438SOL     OW16765   4.676   0.887   5.308
 5438SOL    HW116766   4.729   0.816   5.271
 5438SOL    HW216767   4.627   0.922   5.233
 5439SOL     OW16768   4.718   0.422   4.952
 5439SOL    HW116769   4.631   0.435   4.990
 5439SOL    HW216770   4.703   0.369   4.875
 5440SOL     OW16771   4.776   0.698   4.149
 5440SOL    HW116772   4.793   0.691   4.243
 5440SOL    HW216773   4.692   0.653   4.136
 5441SOL     OW16774   3.812   0.821   4.501
 5441SOL    HW116775   3.892   0.814   4.553
 5441SOL    HW216776   3.768   0.899   4.536
 5442SOL     OW16777   3.849   1.860   5.305
 5442SOL    HW116778   3.852   1.837   5.398
 5442SOL    HW216779   3.762   1.835   5.276
 5443SOL     OW16780   4.605   0.365   3.915
 5443SOL    HW116781   4.636   0.420   3.843
 5443SOL    HW216782   4.659   0.287   3.911
 5444SOL     OW16783   5.095   1.150   4.274
 5444SOL    HW116784   5.184   1.156   4.239
 5444SOL    HW216785   5.043   1.207   4.217
 5445SOL     OW16786   4.245   0.203   4.605
 5445SOL    HW116787   4.268   0.218   4.696
 5445SOL    HW216788   4.268   0.285   4.561
 5446SOL     OW16789   4.727   1.443   4.195
 5446SOL    HW116790   4.691   1.516   4.145
 5446SOL    HW216791   4.706   1.463   4.286
 5447SOL     OW16792   4.078   1.812   4.590
 5447SOL    HW116793   4.122   1.727   4.597
 5447SOL    HW216794   4.147   1.875   4.608
 5448SOL     OW16795   4.939   1.539   5.241
 5448SOL    HW116796   4.926   1.468   5.304
 5448SOL    HW216797   4.875   1.523   5.172
 5449SOL     OW16798   4.041   0.959   3.976
 5449SOL    HW116799   4.123   0.977   3.930
 5449SOL    HW216800   4.011   0.876   3.938
 5450SOL     OW16801   4.192   1.266   5.462
 5450SOL    HW116802   4.165   1.270   5.370
 5450SOL    HW216803   4.109   1.263   5.511
 5451SOL     OW16804   4.831   1.774   3.962
 5451SOL    HW116805   4.757   1.731   4.005
 5451SOL    HW216806   4.856   1.714   3.892
 5452SOL     OW16807   3.921   0.277   5.229
 5452SOL    HW116808   3.842   0.331   5.229
 5452SOL    HW216809   3.915   0.227   5.310
 5453SOL     OW16810   4.189   1.737   4.044
 5453SOL    HW116811   4.232   1.793   4.107
 5453SOL    HW216812   4.259   1.704   3.988
 5454SOL     OW16813   5.093   0.097   4.142
 5454SOL    HW116814   5.081   0.080   4.048
 5454SOL    HW216815   5.186   0.117   4.150
 5455SOL     OW16816   3.980   1.791   4.954
 5455SOL    HW116817   4.031   1.722   4.998
 5455SOL    HW216818   3.970   1.760   4.864
 5456SOL     OW16819   4.663   1.698   4.621
 5456SOL    HW116820   4.743   1.650   4.639
 5456SOL    HW216821   4.619   1.649   4.552
 5457SOL     OW16822   4.119   0.696   4.198
 5457SOL    HW116823   4.138   0.603   4.210
 5457SOL    HW216824   4.025   0.704   4.215
 5458SOL     OW16825   4.347   0.134   3.831
 5458SOL    HW116826   4.415   0.070   3.853
 5458SOL    HW216827   4.297   0.092   3.761
 5459SOL     OW16828   4.507   0.309   5.491
 5459SOL    HW116829   4.575   0.242   5.490
 5459SOL    HW216830   4.458   0.293   5.572
 5460SOL     OW16831   4.599   1.523   4.918
 5460SOL    HW116832   4.583   1.486   4.831
 5460SOL    HW216833   4.669   1.469   4.954
 5461SOL     OW16834   5.060   0.593   5.155
 5461SOL    HW116835   5.088   0.564   5.241
 5461SOL    HW216836   5.099   0.679   5.144
 5462SOL     OW16837   4.540   1.392   4.667
 5462SOL    HW116838   4.624   1.380   4.623
 5462SOL    HW216839   4.477   1.397   4.595
 5463SOL     OW16840   4.652   0.511   4.626
 5463SOL    HW116841   4.628   0.502   4.534
 5463SOL    HW216842   4.680   0.424   4.653
 5464SOL     OW16843   4.268   0.061   4.231
 5464SOL    HW116844   4.183   0.059   4.275
 5464SOL    HW216845   4.258   0.130   4.165
 5465SOL     OW16846   5.133   1.182   3.768
 5465SOL    HW116847   5.137   1.102   3.820
 5465SOL    HW216848   5.047   1.218   3.787
 5466SOL     OW16849   4.026   0.065   3.917
 5466SOL    HW116850   4.084   0.136   3.889
 5466SOL    HW216851   4.082   5.287   3.919
 5467SOL     OW16852   4.661   0.267   4.186
 5467SOL    HW116853   4.633   0.299   4.100
 5467SOL    HW216854   4.756   0.282   4.187
 5468SOL     OW16855   4.802   0.683   5.184
 5468SOL    HW116856   4.734   0.616   5.184
 5468SOL    HW216857   4.883   0.634   5.173
 5469SOL     OW16858   4.938   1.571   4.518
 5469SOL    HW116859   4.959   1.638   4.453
 5469SOL    HW216860   5.021   1.556   4.564
 5470SOL     OW16861   4.195   1.151   4.454
 5470SOL    HW116862   4.127   1.131   4.519
 5470SOL    HW216863   4.153   1.136   4.370
 5471SOL     OW16864   4.993   1.794   4.331
 5471SOL    HW116865   5.035   1.855   4.270
 5471SOL    HW216866   4.925   1.846   4.374
 5472SOL     OW16867   4.751   0.547   3.745
 5472SOL    HW116868   4.704   0.629   3.728
 5472SOL    HW216869   4.804   0.566   3.822
 5473SOL     OW16870   3.805   0.552   5.118
 5473SOL    HW116871   3.896   0.553   5.090
 5473SOL    HW216872   3.799   0.623   5.182
 5474SOL     OW16873   4.277   0.238   4.882
 5474SOL    HW116874   4.311   0.154   4.913
 5474SOL    HW216875   4.185   0.239   4.909
 5475SOL     OW16876   4.591   0.466   4.365
 5475SOL    HW116877   4.542   0.519   4.302
 5475SOL    HW216878   4.612   0.386   4.317
 5476SOL     OW16879   4.699   0.063   4.489
 5476SOL    HW116880   4.635   0.058   4.418
 5476SOL    HW216881   4.713   5.272   4.515
 5477SOL     OW16882   5.155   1.177   4.574
 5477SOL    HW116883   5.101   1.100   4.590
 5477SOL    HW216884   5.166   1.180   4.479
 5478SOL     OW16885   4.214   1.420   3.878
 5478SOL    HW116886   4.138   1.392   3.930
 5478SOL    HW216887   4.203   1.375   3.794
 5479SOL     OW16888   5.129   0.556   3.809
 5479SOL    HW116889   5.051   0.548   3.863
 5479SOL    HW216890   5.201   0.533   3.867
 5480SOL     OW16891   4.246   0.266   4.044
 5480SOL    HW116892   4.292   0.217   3.976
 5480SOL    HW216893   4.224   0.349   4.003
 5481SOL     OW16894   4.778   1.355   5.057
 5481SOL    HW116895   4.702   1.323   5.107
 5481SOL    HW216896   4.853   1.312   5.097
 5482SOL     OW16897   0.007   1.606   5.338
 5482SOL    HW116898   0.042   1.608   5.249
 5482SOL    HW216899   0.083   1.584   5.392
 5483SOL     OW16900   4.857   1.207   4.829
 5483SOL    HW116901   4.792   1.240   4.892
 5483SOL    HW216902   4.824   1.236   4.744
 5484SOL     OW16903   4.622   0.106   5.106
 5484SOL    HW116904   4.656   0.071   5.024
 5484SOL    HW216905   4.697   0.150   5.146
 5485SOL     OW16906   4.709   1.112   5.450
 5485SOL    HW116907   4.617   1.131   5.472
 5485SOL    HW216908   4.705   1.036   5.393
 5486SOL     OW16909   4.433   1.063   4.095
 5486SOL    HW116910   4.418   1.044   4.187
 5486SOL    HW216911   4.509   1.009   4.071
 5487SOL     OW16912   4.144   0.817   4.975
 5487SOL    HW116913   4.212   0.826   5.042
 5487SOL    HW216914   4.109   0.729   4.988
 5488SOL     OW16915   4.990   0.381   4.995
 5488SOL    HW116916   5.023   0.459   5.039
 5488SOL    HW216917   4.899   0.403   4.973
 5489SOL     OW16918   3.797   1.574   5.079
 5489SOL    HW116919   3.767   1.645   5.022
 5489SOL    HW216920   3.892   1.575   5.072
 5490SOL     OW16921   4.069   1.113   4.213
 5490SOL    HW116922   4.072   1.186   4.152
 5490SOL    HW216923   4.066   1.035   4.158
 5491SOL     OW16924   4.276   0.535   4.584
 5491SOL    HW116925   4.290   0.594   4.510
 5491SOL    HW216926   4.342   0.561   4.648
 5492SOL     OW16927   4.971   1.350   4.111
 5492SOL    HW116928   5.026   1.423   4.141
 5492SOL    HW216929   4.884   1.370   4.144
 5493SOL     OW16930   4.998   1.457   4.865
 5493SOL    HW116931   5.051   1.458   4.944
 5493SOL    HW216932   4.943   1.379   4.873
 5494SOL     OW16933   4.070   1.529   5.036
 5494SOL    HW116934   4.058   1.485   4.952
 5494SOL    HW216935   4.165   1.540   5.045
 5495SOL     OW16936   4.140   0.745   5.327
 5495SOL    HW116937   4.202   0.789   5.269
 5495SOL    HW216938   4.180   0.659   5.344
 5496SOL     OW16939   4.756   0.123   5.474
 5496SOL    HW116940   4.801   0.205   5.454
 5496SOL    HW216941   4.801   0.057   5.421
 5497SOL     OW16942   4.202   0.060   5.459
 5497SOL    HW116943   4.139   5.295   5.427
 5497SOL    HW216944   4.149   0.136   5.482
 5498SOL     OW16945   4.309   0.873   4.756
 5498SOL    HW116946   4.339   0.964   4.757
 5498SOL    HW216947   4.251   0.866   4.832
 5499SOL     OW16948   5.086   0.856   4.759
 5499SOL    HW116949   5.008   0.833   4.708
 5499SOL    HW216950   5.143   0.779   4.751
 5500SOL     OW16951   4.925   0.531   3.987
 5500SOL    HW116952   4.930   0.451   4.040
 5500SOL    HW216953   4.882   0.594   4.044
 5501SOL     OW16954   4.018   0.202   4.973
 5501SOL    HW116955   3.978   0.241   5.051
 5501SOL    HW216956   4.021   0.108   4.993
 5502SOL     OW16957   3.770   1.311   4.999
 5502SOL    HW116958   3.803   1.256   5.070
 5502SOL    HW216959   3.776   1.400   5.034
 5503SOL     OW16960   4.448   0.631   4.782
 5503SOL    HW116961   4.523   0.616   4.724
 5503SOL    HW216962   4.419   0.720   4.760
 5504SOL     OW16963   4.034   0.070   4.384
 5504SOL    HW116964   4.009   0.163   4.385
 5504SOL    HW216965   4.085   0.059   4.464
 5505SOL     OW16966   0.029   0.414   4.087
 5505SOL    HW116967   0.054   0.349   4.154
 5505SOL    HW216968   0.013   0.494   4.136
 5506SOL     OW16969   4.752   0.759   4.683
 5506SOL    HW116970   4.748   0.776   4.777
 5506SOL    HW216971   4.725   0.668   4.674
 5507SOL     OW16972   4.696   1.562   5.439
 5507SOL    HW116973   4.685   1.609   5.357
 5507SOL    HW216974   4.744   1.482   5.415
 5508SOL     OW16975   4.077   0.917   5.533
 5508SOL    HW116976   4.159   0.935   5.580
 5508SOL    HW216977   4.102   0.853   5.465
 5509SOL     OW16978   5.029   0.829   3.761
 5509SOL    HW116979   5.063   0.740   3.762
 5509SOL    HW216980   5.056   0.864   3.676
 5510SOL     OW16981   4.790   1.335   4.581
 5510SOL    HW116982   4.795   1.263   4.517
 5510SOL    HW216983   4.846   1.403   4.544
 5511SOL     OW16984   4.032   0.808   4.671
 5511SOL    HW116985   4.125   0.829   4.663
 5511SOL    HW216986   4.030   0.718   4.702
 5512SOL     OW16987   4.054   0.528   4.737
 5512SOL    HW116988   4.018   0.441   4.723
 5512SOL    HW216989   4.131   0.531   4.680
 5513SOL     OW16990   4.862   0.378   5.416
 5513SOL    HW116991   4.811   0.431   5.477
 5513SOL    HW216992   4.946   0.423   5.408
 5514SOL     OW16993   4.844   0.234   5.183
 5514SOL    HW116994   4.854   0.285   5.263
 5514SOL    HW216995   4.908   0.272   5.122
 5515SOL     OW16996   3.730   1.319   3.918
 5515SOL    HW116997   3.643   1.334   3.881
 5515SOL    HW216998   3.726   1.230   3.953
 5516SOL     OW16999   3.814   1.785   4.664
 5516SOL    HW117000   3.784   1.706   4.619
 5516SOL    HW217001   3.904   1.798   4.632
 5517SOL     OW17002   4.218   1.574   4.629
 5517SOL    HW117003   4.287   1.637   4.653
 5517SOL    HW217004   4.262   1.511   4.572
 5518SOL     OW17005   4.702   0.792   4.949
 5518SOL    HW117006   4.759   0.769   5.023
 5518SOL    HW217007   4.619   0.750   4.970
 5519SOL     OW17008   3.759   0.545   4.841
 5519SOL    HW117009   3.838   0.532   4.789
 5519SOL    HW217010   3.790   0.548   4.931
 5520SOL     OW17011   3.909   0.525   5.453
 5520SOL    HW117012   3.973   0.487   5.393
 5520SOL    HW217013   3.873   0.600   5.406
 5521SOL     OW17014   5.116   0.935   5.390
 5521SOL    HW117015   5.123   1.029   5.377
 5521SOL    HW217016   5.119   0.898   5.302
 5522SOL     OW17017   4.539   0.575   4.088
 5522SOL    HW117018   4.543   0.500   4.028
 5522SOL    HW217019   4.464   0.625   4.057
 5523SOL     OW17020   3.964   1.550   5.449
 5523SOL    HW117021   3.943   1.614   5.517
 5523SOL    HW217022   3.969   1.467   5.496
 5524SOL     OW17023   4.428   0.449   4.981
 5524SOL    HW117024   4.374   0.377   4.950
 5524SOL    HW217025   4.425   0.514   4.910
 5525SOL     OW17026   4.642   1.680   5.193
 5525SOL    HW117027   4.620   1.645   5.107
 5525SOL    HW217028   4.641   1.775   5.182
 5526SOL     OW17029   4.184   0.493   3.904
 5526SOL    HW117030   4.245   0.562   3.929
 5526SOL    HW217031   4.100   0.536   3.895
 5527SOL     OW17032   3.868   1.142   5.197
 5527SOL    HW117033   3.869   1.092   5.279
 5527SOL    HW217034   3.885   1.076   5.129
 5528SOL     OW17035   5.052   1.047   4.947
 5528SOL    HW117036   5.072   0.982   4.880
 5528SOL    HW217037   4.982   1.101   4.908
 5529SOL     OW17038   5.039   0.859   4.040
 5529SOL    HW117039   4.957   0.828   4.079
 5529SOL    HW217040   5.025   0.852   3.946
 5530SOL     OW17041   4.958   1.731   4.843
 5530SOL    HW117042   5.044   1.755   4.808
 5530SOL    HW217043   4.961   1.636   4.854
 5531SOL     OW17044   3.809   1.266   4.735
 5531SOL    HW117045   3.793   1.280   4.828
 5531SOL    HW217046   3.736   1.211   4.706
 5532SOL     OW17047   4.402   1.667   5.457
 5532SOL    HW117048   4.347   1.745   5.448
 5532SOL    HW217049   4.472   1.680   5.394
 5533SOL     OW17050   5.111   1.571   4.208
 5533SOL    HW117051   5.181   1.614   4.158
 5533SOL    HW217052   5.059   1.643   4.242
 5534SOL     OW17053   3.861   1.797   5.567
 5534SOL    HW117054   3.811   1.730   5.615
 5534SOL    HW217055   3.909   1.844   5.635
 5535SOL     OW17056   5.018   0.920   4.394
 5535SOL    HW117057   5.096   0.867   4.382
 5535SOL    HW217058   5.037   1.001   4.347
 5536SOL     OW17059   4.533   1.275   5.152
 5536SOL    HW117060   4.505   1.315   5.234
 5536SOL    HW217061   4.464   1.297   5.089
 5537SOL     OW17062   4.394   1.623   3.879
 5537SOL    HW117063   4.406   1.636   3.785
 5537SOL    HW217064   4.338   1.545   3.886
 5538SOL     OW17065   3.983   0.329   4.441
 5538SOL    HW117066   3.895   0.361   4.421
 5538SOL    HW217067   3.983   0.319   4.537
 5539SOL     OW17068   4.907   1.608   3.767
 5539SOL    HW117069   4.918   1.513   3.777
 5539SOL    HW217070   4.850   1.617   3.690
 5540SOL     OW17071   4.547   1.006   5.098
 5540SOL    HW117072   4.590   1.000   5.013
 5540SOL    HW217073   4.545   1.100   5.117
 5541SOL     OW17074   4.641   0.912   4.015
 5541SOL    HW117075   4.703   0.943   3.949
 5541SOL    HW217076   4.688   0.841   4.059
 5542SOL     OW17077   4.092   1.304   5.216
 5542SOL    HW117078   4.079   1.380   5.160
 5542SOL    HW217079   4.016   1.249   5.200
 5543SOL     OW17080   4.780   1.108   4.432
 5543SOL    HW117081   4.708   1.059   4.472
 5543SOL    HW217082   4.838   1.041   4.396
 5544SOL     OW17083   4.735   0.243   4.697
 5544SOL    HW117084   4.716   0.198   4.615
 5544SOL    HW217085   4.731   0.175   4.764
 5545SOL     OW17086   4.328   1.488   4.205
 5545SOL    HW117087   4.375   1.439   4.138
 5545SOL    HW217088   4.256   1.530   4.158
 5546SOL     OW17089   3.985   1.344   4.015
 5546SOL    HW117090   3.892   1.341   3.991
 5546SOL    HW217091   3.986   1.382   4.102
 5547SOL     OW17092   3.837   1.027   5.445
 5547SOL    HW117093   3.761   1.001   5.497
 5547SOL    HW217094   3.911   0.986   5.491
 5548SOL     OW17095   4.397   0.216   5.217
 5548SOL    HW117096   4.478   0.195   5.171
 5548SOL    HW217097   4.425   0.264   5.295
 5549SOL     OW17098   3.802   0.337   3.766
 5549SOL    HW117099   3.718   0.303   3.734
 5549SOL    HW217100   3.821   0.412   3.709
 5550SOL     OW17101   5.164   0.860   5.127
 5550SOL    HW117102   5.111   0.917   5.071
 5550SOL    HW217103   5.253   0.868   5.092
 5551SOL     OW17104   3.795   0.167   4.037
 5551SOL    HW117105   3.798   0.249   3.989
 5551SOL    HW217106   3.879   0.125   4.019
 5552SOL     OW17107   4.904   1.327   3.837
 5552SOL    HW117108   4.811   1.309   3.838
 5552SOL    HW217109   4.928   1.334   3.930
 5553SOL     OW17110   4.344   0.831   5.158
 5553SOL    HW117111   4.400   0.906   5.143
 5553SOL    HW217112   4.404   0.757   5.165
 5554SOL     OW17113   4.440   0.571   5.425
 5554SOL    HW117114   4.482   0.632   5.485
 5554SOL    HW217115   4.466   0.484   5.457
 5555SOL     OW17116   5.180   1.202   5.355
 5555SOL    HW117117   5.171   1.215   5.450
 5555SOL    HW217118   5.273   1.214   5.338
 5556SOL     OW17119   4.100   1.740   5.290
 5556SOL    HW117120   4.016   1.783   5.274
 5556SOL    HW217121   4.076   1.657   5.331
 5557SOL     OW17122   4.938   0.324   4.184
 5557SOL    HW117123   4.992   0.245   4.178
 5557SOL    HW217124   4.970   0.369   4.262
 5558SOL     OW17125   4.313   0.736   4.395
 5558SOL    HW117126   4.352   0.823   4.380
 5558SOL    HW217127   4.246   0.727   4.327
 5559SOL     OW17128   4.593   1.365   3.763
 5559SOL    HW117129   4.551   1.395   3.844
 5559SOL    HW217130   4.606   1.445   3.712
 5560SOL     OW17131   4.386   1.788   4.665
 5560SOL    HW117132   4.366   1.879   4.644
 5560SOL    HW217133   4.481   1.781   4.659
 5561SOL     OW17134   4.593   0.969   4.579
 5561SOL    HW117135   4.642   0.897   4.617
 5561SOL    HW217136   4.556   1.015   4.654
 5562SOL     OW17137   4.808   0.988   3.815
 5562SOL    HW117138   4.782   1.037   3.737
 5562SOL    HW217139   4.881   0.934   3.786
 5563SOL     OW17140   3.949   1.301   5.579
 5563SOL    HW117141   3.884   1.238   5.548
 5563SOL    HW217142   3.929   1.313   5.672
 5564SOL     OW17143   3.810   1.232   4.389
 5564SOL    HW117144   3.817   1.184   4.472
 5564SOL    HW217145   3.877   1.193   4.333
 5565SOL     OW17146   4.407   1.404   5.355
 5565SOL    HW117147   4.327   1.362   5.386
 5565SOL    HW217148   4.403   1.493   5.390
 5566SOL     OW17149   4.155   0.436   4.249
 5566SOL    HW117150   4.187   0.364   4.196
 5566SOL    HW217151   4.106   0.394   4.320
 5567SOL     OW17152   0.093   1.518   4.824
 5567SOL    HW117153   0.026   1.499   4.759
 5567SOL    HW217154   0.093   1.443   4.883
 5568SOL     OW17155   4.055   0.559   5.015
 5568SOL    HW117156   4.110   0.503   5.070
 5568SOL    HW217157   4.074   0.531   4.925
 5569SOL     OW17158   4.554   1.578   4.400
 5569SOL    HW117159   4.538   1.637   4.327
 5569SOL    HW217160   4.478   1.520   4.401
 5570SOL     OW17161   5.146   0.214   4.845
 5570SOL    HW117162   5.156   0.133   4.894
 5570SOL    HW217163   5.101   0.273   4.905
 5571SOL     OW17164   4.723   0.018   4.860
 5571SOL    HW117165   4.672   5.251   4.816
 5571SOL    HW217166   4.810   5.280   4.871
 5572SOL     OW17167   4.495   1.333   4.042
 5572SOL    HW117168   4.466   1.242   4.049
 5572SOL    HW217169   4.578   1.335   4.091
 5573SOL     OW17170   4.344   1.555   5.010
 5573SOL    HW117171   4.345   1.638   5.058
 5573SOL    HW217172   4.431   1.548   4.973
 5574SOL     OW17173   5.034   0.030   3.879
 5574SOL    HW117174   5.118   0.024   3.833
 5574SOL    HW217175   4.985   5.253   3.851
 5575SOL     OW17176   5.027   0.461   4.408
 5575SOL    HW117177   4.972   0.539   4.412
 5575SOL    HW217178   5.013   0.418   4.492
 5576SOL     OW17179   5.294   0.214   4.611
 5576SOL    HW117180   5.237   0.212   4.688
 5576SOL    HW217181   5.269   0.293   4.564
 5577SOL     OW17182   3.767   1.069   4.032
 5577SOL    HW117183   3.861   1.061   4.013
 5577SOL    HW217184   3.739   0.980   4.054
 5578SOL     OW17185   4.604   1.652   4.069
 5578SOL    HW117186   4.533   1.638   4.007
 5578SOL    HW217187   4.577   1.728   4.120
 5579SOL     OW17188   3.950   0.626   5.711
 5579SOL    HW117189   3.861   0.621   5.748
 5579SOL    HW217190   3.939   0.600   5.620
 5580SOL     OW17191   3.940   0.286   6.580
 5580SOL    HW117192   3.969   0.249   6.663
 5580SOL    HW217193   3.857   0.242   6.561
 5581SOL     OW17194   3.725   0.389   6.223
 5581SOL    HW117195   3.641   0.410   6.264
 5581SOL    HW217196   3.708   0.312   6.169
 5582SOL     OW17197   4.292   1.292   6.765
 5582SOL    HW117198   4.205   1.296   6.725
 5582SOL    HW217199   4.307   1.381   6.797
 5583SOL     OW17200   5.289   1.534   6.291
 5583SOL    HW117201   5.248   1.495   6.368
 5583SOL    HW217202   5.222   1.529   6.223
 5584SOL     OW17203   4.862   0.698   6.284
 5584SOL    HW117204   4.911   0.779   6.275
 5584SOL    HW217205   4.811   0.710   6.365
 5585SOL     OW17206   4.475   1.140   6.630
 5585SOL    HW117207   4.408   1.176   6.687
 5585SOL    HW217208   4.512   1.217   6.585
 5586SOL     OW17209   4.594   0.774   7.407
 5586SOL    HW117210   4.570   0.848   7.463
 5586SOL    HW217211   4.619   0.813   7.324
 5587SOL     OW17212   4.410   1.000   6.231
 5587SOL    HW117213   4.475   0.990   6.301
 5587SOL    HW217214   4.341   1.053   6.271
 5588SOL     OW17215   4.437   1.151   7.401
 5588SOL    HW117216   4.484   1.229   7.430
 5588SOL    HW217217   4.356   1.185   7.363
 5589SOL     OW17218   4.054   1.422   6.653
 5589SOL    HW117219   3.981   1.383   6.605
 5589SOL    HW217220   4.102   1.473   6.588
 5590SOL     OW17221   5.160   1.480   6.943
 5590SOL    HW117222   5.212   1.556   6.966
 5590SOL    HW217223   5.095   1.472   7.013
 5591SOL     OW17224   4.170   0.397   7.069
 5591SOL    HW117225   4.245   0.339   7.070
 5591SOL    HW217226   4.095   0.340   7.085
 5592SOL     OW17227   3.943   1.715   6.056
 5592SOL    HW117228   3.964   1.791   6.111
 5592SOL    HW217229   4.018   1.707   5.997
 5593SOL     OW17230   4.858   1.340   7.278
 5593SOL    HW117231   4.898   1.337   7.365
 5593SOL    HW217232   4.807   1.259   7.272
 5594SOL     OW17233   3.956   1.443   6.122
 5594SOL    HW117234   3.937   1.537   6.124
 5594SOL    HW217235   3.896   1.405   6.187
 5595SOL     OW17236   3.986   1.091   6.478
 5595SOL    HW117237   3.981   1.003   6.517
 5595SOL    HW217238   3.927   1.144   6.532
 5596SOL     OW17239   4.329   1.793   7.010
 5596SOL    HW117240   4.249   1.775   7.060
 5596SOL    HW217241   4.354   1.881   7.038
 5597SOL     OW17242   4.307   0.983   5.722
 5597SOL    HW117243   4.354   1.031   5.654
 5597SOL    HW217244   4.345   1.014   5.804
 5598SOL     OW17245   5.251   0.140   7.066
 5598SOL    HW117246   5.300   0.221   7.048
 5598SOL    HW217247   5.268   0.121   7.158
 5599SOL     OW17248   3.840   0.655   6.146
 5599SOL    HW117249   3.812   0.566   6.167
 5599SOL    HW217250   3.832   0.703   6.228
 5600SOL     OW17251   3.759   1.593   5.709
 5600SOL    HW117252   3.741   1.501   5.728
 5600SOL    HW217253   3.734   1.640   5.788
 5601SOL     OW17254   0.113   0.938   6.161
 5601SOL    HW117255   0.203   0.905   6.168
 5601SOL    HW217256   0.123   1.029   6.135
 5602SOL     OW17257   3.847   0.745   7.170
 5602SOL    HW117258   3.938   0.773   7.174
 5602SOL    HW217259   3.796   0.825   7.177
 5603SOL     OW17260   4.338   1.388   6.321
 5603SOL    HW117261   4.293   1.304   6.330
 5603SOL    HW217262   4.322   1.415   6.231
 5604SOL     OW17263   5.002   1.233   7.009
 5604SOL    HW117264   5.036   1.167   6.949
 5604SOL    HW217265   5.058   1.228   7.086
 5605SOL     OW17266   4.538   0.032   6.119
 5605SOL    HW117267   4.566   0.119   6.091
 5605SOL    HW217268   4.442   0.034   6.111
 5606SOL     OW17269   3.913   0.964   6.861
 5606SOL    HW117270   3.998   0.923   6.846
 5606SOL    HW217271   3.852   0.913   6.807
 5607SOL     OW17272   4.895   1.809   7.210
 5607SOL    HW117273   4.914   1.869   7.138
 5607SOL    HW217274   4.920   1.723   7.177
 5608SOL     OW17275   4.053   0.266   7.408
 5608SOL    HW117276   4.103   0.342   7.436
 5608SOL    HW217277   3.964   0.282   7.442
 5609SOL     OW17278   5.166   1.437   6.518
 5609SOL    HW117279   5.106   1.444   6.592
 5609SOL    HW217280   5.160   1.346   6.491
 5610SOL     OW17281   4.318   0.720   5.854
 5610SOL    HW117282   4.320   0.803   5.806
 5610SOL    HW217283   4.252   0.734   5.922
 5611SOL     OW17284   4.994   0.328   6.502
 5611SOL    HW117285   4.904   0.305   6.527
 5611SOL    HW217286   5.047   0.299   6.577
 5612SOL     OW17287   4.517   0.619   7.034
 5612SOL    HW117288   4.489   0.596   7.123
 5612SOL    HW217289   4.478   0.551   6.979
 5613SOL     OW17290   5.116   0.491   7.267
 5613SOL    HW117291   5.119   0.523   7.357
 5613SOL    HW217292   5.182   0.422   7.264
 5614SOL     OW17293   4.676   0.887   7.169
 5614SOL    HW117294   4.729   0.817   7.132
 5614SOL    HW217295   4.628   0.922   7.095
 5615SOL     OW17296   4.718   0.422   6.814
 5615SOL    HW117297   4.631   0.435   6.853
 5615SOL    HW217298   4.702   0.368   6.737
 5616SOL     OW17299   4.776   0.698   6.011
 5616SOL    HW117300   4.793   0.691   6.105
 5616SOL    HW217301   4.692   0.653   5.998
 5617SOL     OW17302   3.812   0.821   6.363
 5617SOL    HW117303   3.892   0.814   6.415
 5617SOL    HW217304   3.768   0.899   6.398
 5618SOL     OW17305   3.849   1.859   7.167
 5618SOL    HW117306   3.852   1.836   7.260
 5618SOL    HW217307   3.761   1.836   7.139
 5619SOL     OW17308   4.605   0.365   5.777
 5619SOL    HW117309   4.636   0.420   5.705
 5619SOL    HW217310   4.659   0.287   5.773
 5620SOL     OW17311   5.095   1.150   6.136
 5620SOL    HW117312   5.184   1.156   6.101
 5620SOL    HW217313   5.043   1.207   6.079
 5621SOL     OW17314   4.245   0.203   6.467
 5621SOL    HW117315   4.268   0.218   6.558
 5621SOL    HW217316   4.268   0.285   6.423
 5622SOL     OW17317   4.727   1.442   6.057
 5622SOL    HW117318   4.691   1.516   6.007
 5622SOL    HW217319   4.706   1.463   6.148
 5623SOL     OW17320   4.078   1.811   6.452
 5623SOL    HW117321   4.122   1.726   6.459
 5623SOL    HW217322   4.147   1.875   6.471
 5624SOL     OW17323   4.939   1.539   7.102
 5624SOL    HW117324   4.926   1.468   7.165
 5624SOL    HW217325   4.874   1.523   7.034
 5625SOL     OW17326   4.041   0.959   5.838
 5625SOL    HW117327   4.123   0.977   5.792
 5625SOL    HW217328   4.011   0.876   5.800
 5626SOL     OW17329   4.191   1.264   7.324
 5626SOL    HW117330   4.164   1.269   7.232
 5626SOL    HW217331   4.109   1.262   7.372
 5627SOL     OW17332   4.831   1.774   5.824
 5627SOL    HW117333   4.757   1.731   5.867
 5627SOL    HW217334   4.856   1.714   5.754
 5628SOL     OW17335   3.921   0.278   7.091
 5628SOL    HW117336   3.842   0.331   7.089
 5628SOL    HW217337   3.913   0.226   7.171
 5629SOL     OW17338   4.189   1.736   5.906
 5629SOL    HW117339   4.232   1.793   5.969
 5629SOL    HW217340   4.259   1.704   5.850
 5630SOL     OW17341   5.093   0.097   6.004
 5630SOL    HW117342   5.081   0.080   5.910
 5630SOL    HW217343   5.186   0.117   6.012
 5631SOL     OW17344   3.980   1.791   6.817
 5631SOL    HW117345   4.031   1.723   6.861
 5631SOL    HW217346   3.971   1.759   6.727
 5632SOL     OW17347   4.662   1.698   6.483
 5632SOL    HW117348   4.743   1.650   6.501
 5632SOL    HW217349   4.619   1.649   6.414
 5633SOL     OW17350   4.119   0.696   6.060
 5633SOL    HW117351   4.138   0.603   6.072
 5633SOL    HW217352   4.025   0.704   6.077
 5634SOL     OW17353   4.347   0.134   5.693
 5634SOL    HW117354   4.415   0.070   5.715
 5634SOL    HW217355   4.297   0.092   5.623
 5635SOL     OW17356   4.507   0.309   7.350
 5635SOL    HW117357   4.577   0.243   7.350
 5635SOL    HW217358   4.465   0.298   7.435
 5636SOL     OW17359   4.599   1.523   6.780
 5636SOL    HW117360   4.583   1.486   6.692
 5636SOL    HW217361   4.669   1.469   6.816
 5637SOL     OW17362   5.060   0.593   7.016
 5637SOL    HW117363   5.089   0.565   7.103
 5637SOL    HW217364   5.099   0.680   7.006
 5638SOL     OW17365   4.540   1.392   6.529
 5638SOL    HW117366   4.624   1.380   6.486
 5638SOL    HW217367   4.477   1.396   6.457
 5639SOL     OW17368   4.652   0.511   6.488
 5639SOL    HW117369   4.628   0.502   6.396
 5639SOL    HW217370   4.680   0.424   6.515
 5640SOL     OW17371   4.268   0.061   6.093
 5640SOL    HW117372   4.183   0.059   6.137
 5640SOL    HW217373   4.259   0.130   6.027
 5641SOL     OW17374   5.133   1.182   5.630
 5641SOL    HW117375   5.137   1.102   5.682
 5641SOL    HW217376   5.047   1.218   5.650
 5642SOL     OW17377   4.026   0.065   5.780
 5642SOL    HW117378   4.083   0.136   5.751
 5642SOL    HW217379   4.082   5.287   5.781
 5643SOL     OW17380   4.661   0.267   6.048
 5643SOL    HW117381   4.633   0.299   5.962
 5643SOL    HW217382   4.756   0.282   6.049
 5644SOL     OW17383   4.802   0.683   7.045
 5644SOL    HW117384   4.734   0.616   7.047
 5644SOL    HW217385   4.884   0.634   7.035
 5645SOL     OW17386   4.938   1.571   6.380
 5645SOL    HW117387   4.959   1.638   6.315
 5645SOL    HW217388   5.021   1.556   6.427
 5646SOL     OW17389   4.195   1.151   6.316
 5646SOL    HW117390   4.127   1.131   6.381
 5646SOL    HW217391   4.153   1.136   6.232
 5647SOL     OW17392   4.993   1.794   6.193
 5647SOL    HW117393   5.035   1.855   6.132
 5647SOL    HW217394   4.926   1.846   6.236
 5648SOL     OW17395   4.751   0.547   5.607
 5648SOL    HW117396   4.704   0.629   5.590
 5648SOL    HW217397   4.804   0.566   5.684
 5649SOL     OW17398   3.805   0.552   6.980
 5649SOL    HW117399   3.897   0.553   6.952
 5649SOL    HW217400   3.799   0.623   7.044
 5650SOL     OW17401   4.277   0.238   6.744
 5650SOL    HW117402   4.311   0.154   6.775
 5650SOL    HW217403   4.185   0.239   6.771
 5651SOL     OW17404   4.591   0.466   6.227
 5651SOL    HW117405   4.542   0.519   6.164
 5651SOL    HW217406   4.612   0.386   6.179
 5652SOL     OW17407   4.699   0.063   6.351
 5652SOL    HW117408   4.635   0.058   6.280
 5652SOL    HW217409   4.713   5.272   6.377
 5653SOL     OW17410   5.155   1.177   6.436
 5653SOL    HW117411   5.100   1.100   6.452
 5653SOL    HW217412   5.166   1.180   6.341
 5654SOL     OW17413   4.213   1.420   5.740
 5654SOL    HW117414   4.138   1.392   5.791
 5654SOL    HW217415   4.204   1.374   5.656
 5655SOL     OW17416   5.129   0.556   5.671
 5655SOL    HW117417   5.051   0.548   5.725
 5655SOL    HW217418   5.201   0.532   5.729
 5656SOL     OW17419   4.246   0.266   5.906
 5656SOL    HW117420   4.292   0.217   5.838
 5656SOL    HW217421   4.224   0.349   5.865
 5657SOL     OW17422   4.777   1.355   6.919
 5657SOL    HW117423   4.702   1.323   6.969
 5657SOL    HW217424   4.853   1.312   6.959
 5658SOL     OW17425   0.007   1.606   7.200
 5658SOL    HW117426   0.042   1.608   7.110
 5658SOL    HW217427   0.083   1.585   7.254
 5659SOL     OW17428   4.857   1.207   6.691
 5659SOL    HW117429   4.793   1.240   6.754
 5659SOL    HW217430   4.824   1.236   6.606
 5660SOL     OW17431   4.622   0.106   6.968
 5660SOL    HW117432   4.656   0.071   6.886
 5660SOL    HW217433   4.697   0.149   7.009
 5661SOL     OW17434   4.709   1.111   7.315
 5661SOL    HW117435   4.618   1.131   7.334
 5661SOL    HW217436   4.706   1.035   7.257
 5662SOL     OW17437   4.433   1.063   5.957
 5662SOL    HW117438   4.419   1.044   6.049
 5662SOL    HW217439   4.509   1.009   5.933
 5663SOL     OW17440   4.144   0.817   6.837
 5663SOL    HW117441   4.212   0.826   6.904
 5663SOL    HW217442   4.109   0.729   6.850
 5664SOL     OW17443   4.990   0.381   6.857
 5664SOL    HW117444   5.023   0.459   6.901
 5664SOL    HW217445   4.899   0.403   6.835
 5665SOL     OW17446   3.797   1.574   6.941
 5665SOL    HW117447   3.768   1.646   6.885
 5665SOL    HW217448   3.892   1.574   6.934
 5666SOL     OW17449   4.068   1.113   6.076
 5666SOL    HW117450   4.073   1.186   6.014
 5666SOL    HW217451   4.066   1.035   6.020
 5667SOL     OW17452   4.275   0.535   6.446
 5667SOL    HW117453   4.290   0.594   6.372
 5667SOL    HW217454   4.342   0.561   6.510
 5668SOL     OW17455   4.971   1.350   5.973
 5668SOL    HW117456   5.026   1.423   6.003
 5668SOL    HW217457   4.884   1.370   6.006
 5669SOL     OW17458   4.998   1.457   6.727
 5669SOL    HW117459   5.051   1.458   6.806
 5669SOL    HW217460   4.943   1.379   6.735
 5670SOL     OW17461   4.070   1.529   6.899
 5670SOL    HW117462   4.058   1.485   6.814
 5670SOL    HW217463   4.165   1.540   6.907
 5671SOL     OW17464   4.140   0.745   7.189
 5671SOL    HW117465   4.202   0.789   7.131
 5671SOL    HW217466   4.180   0.659   7.206
 5672SOL     OW17467   4.750   0.123   7.328
 5672SOL    HW117468   4.800   0.204   7.317
 5672SOL    HW217469   4.801   0.057   7.280
 5673SOL     OW17470   4.201   0.060   7.319
 5673SOL    HW117471   4.138   5.295   7.289
 5673SOL    HW217472   4.148   0.135   7.345
 5674SOL     OW17473   4.309   0.873   6.618
 5674SOL    HW117474   4.339   0.964   6.619
 5674SOL    HW217475   4.251   0.866   6.694
 5675SOL     OW17476   5.086   0.856   6.621
 5675SOL    HW117477   5.008   0.833   6.570
 5675SOL    HW217478   5.143   0.779   6.613
 5676SOL     OW17479   4.925   0.531   5.849
 5676SOL    HW117480   4.930   0.451   5.902
 5676SOL    HW217481   4.882   0.594   5.906
 5677SOL     OW17482   4.018   0.202   6.835
 5677SOL    HW117483   3.978   0.241   6.912
 5677SOL    HW217484   4.021   0.108   6.854
 5678SOL     OW17485   3.771   1.311   6.861
 5678SOL    HW117486   3.803   1.256   6.932
 5678SOL    HW217487   3.776   1.400   6.896
 5679SOL     OW17488   4.448   0.631   6.643
 5679SOL    HW117489   4.523   0.616   6.586
 5679SOL    HW217490   4.419   0.720   6.622
 5680SOL     OW17491   4.034   0.070   6.246
 5680SOL    HW117492   4.009   0.163   6.247
 5680SOL    HW217493   4.085   0.059   6.326
 5681SOL     OW17494   0.029   0.414   5.949
 5681SOL    HW117495   0.054   0.350   6.016
 5681SOL    HW217496   0.014   0.494   5.998
 5682SOL     OW17497   4.752   0.759   6.545
 5682SOL    HW117498   4.748   0.776   6.639
 5682SOL    HW217499   4.725   0.667   6.536
 5683SOL     OW17500   4.697   1.562   7.301
 5683SOL    HW117501   4.686   1.609   7.219
 5683SOL    HW217502   4.744   1.482   7.277
 5684SOL     OW17503   4.077   0.915   7.396
 5684SOL    HW117504   4.160   0.935   7.440
 5684SOL    HW217505   4.101   0.852   7.328
 5685SOL     OW17506   5.029   0.829   5.623
 5685SOL    HW117507   5.063   0.740   5.624
 5685SOL    HW217508   5.056   0.864   5.538
 5686SOL     OW17509   4.790   1.335   6.443
 5686SOL    HW117510   4.795   1.263   6.379
 5686SOL    HW217511   4.846   1.403   6.406
 5687SOL     OW17512   4.032   0.808   6.533
 5687SOL    HW117513   4.125   0.829   6.525
 5687SOL    HW217514   4.030   0.718   6.564
 5688SOL     OW17515   4.054   0.528   6.599
 5688SOL    HW117516   4.018   0.441   6.585
 5688SOL    HW217517   4.131   0.531   6.542
 5689SOL     OW17518   4.863   0.378   7.277
 5689SOL    HW117519   4.812   0.431   7.338
 5689SOL    HW217520   4.946   0.423   7.269
 5690SOL     OW17521   4.845   0.233   7.044
 5690SOL    HW117522   4.854   0.283   7.125
 5690SOL    HW217523   4.908   0.272   6.984
 5691SOL     OW17524   3.730   1.319   5.781
 5691SOL    HW117525   3.643   1.335   5.744
 5691SOL    HW217526   3.726   1.230   5.815
 5692SOL     OW17527   3.814   1.785   6.525
 5692SOL    HW117528   3.784   1.706   6.480
 5692SOL    HW217529   3.904   1.798   6.494
 5693SOL     OW17530   4.218   1.574   6.491
 5693SOL    HW117531   4.287   1.636   6.515
 5693SOL    HW217532   4.262   1.511   6.434
 5694SOL     OW17533   4.702   0.792   6.811
 5694SOL    HW117534   4.759   0.769   6.885
 5694SOL    HW217535   4.619   0.750   6.832
 5695SOL     OW17536   3.759   0.545   6.703
 5695SOL    HW117537   3.838   0.532   6.651
 5695SOL    HW217538   3.791   0.548   6.794
 5696SOL     OW17539   3.911   0.523   7.315
 5696SOL    HW117540   3.974   0.486   7.254
 5696SOL    HW217541   3.873   0.598   7.269
 5697SOL     OW17542   5.114   0.934   7.253
 5697SOL    HW117543   5.121   1.029   7.240
 5697SOL    HW217544   5.118   0.898   7.165
 5698SOL     OW17545   4.539   0.575   5.950
 5698SOL    HW117546   4.543   0.500   5.890
 5698SOL    HW217547   4.464   0.625   5.919
 5699SOL     OW17548   3.964   1.550   7.311
 5699SOL    HW117549   3.943   1.615   7.378
 5699SOL    HW217550   3.970   1.467   7.359
 5700SOL     OW17551   4.428   0.450   6.843
 5700SOL    HW117552   4.374   0.377   6.812
 5700SOL    HW217553   4.425   0.514   6.772
 5701SOL     OW17554   4.643   1.679   7.055
 5701SOL    HW117555   4.620   1.645   6.968
 5701SOL    HW217556   4.642   1.774   7.044
 5702SOL     OW17557   4.184   0.493   5.766
 5702SOL    HW117558   4.245   0.562   5.791
 5702SOL    HW217559   4.100   0.536   5.757
 5703SOL     OW17560   3.868   1.141   7.059
 5703SOL    HW117561   3.869   1.092   7.141
 5703SOL    HW217562   3.885   1.076   6.991
 5704SOL     OW17563   5.052   1.047   6.809
 5704SOL    HW117564   5.072   0.982   6.742
 5704SOL    HW217565   4.982   1.100   6.770
 5705SOL     OW17566   5.038   0.859   5.902
 5705SOL    HW117567   4.957   0.828   5.941
 5705SOL    HW217568   5.025   0.852   5.808
 5706SOL     OW17569   4.958   1.731   6.705
 5706SOL    HW117570   5.044   1.754   6.670
 5706SOL    HW217571   4.961   1.636   6.716
 5707SOL     OW17572   3.809   1.267   6.597
 5707SOL    HW117573   3.794   1.280   6.690
 5707SOL    HW217574   3.736   1.211   6.568
 5708SOL     OW17575   4.401   1.666   7.318
 5708SOL    HW117576   4.348   1.746   7.312
 5708SOL    HW217577   4.473   1.680   7.256
 5709SOL     OW17578   5.111   1.571   6.070
 5709SOL    HW117579   5.181   1.614   6.020
 5709SOL    HW217580   5.059   1.643   6.104
 5710SOL     OW17581   3.862   1.795   7.430
 5710SOL    HW117582   3.811   1.730   7.479
 5710SOL    HW217583   3.909   1.844   7.497
 5711SOL     OW17584   5.018   0.920   6.256
 5711SOL    HW117585   5.096   0.867   6.244
 5711SOL    HW217586   5.037   1.001   6.209
 5712SOL     OW17587   4.533   1.275   7.014
 5712SOL    HW117588   4.505   1.315   7.096
 5712SOL    HW217589   4.464   1.297   6.951
 5713SOL     OW17590   4.393   1.623   5.741
 5713SOL    HW117591   4.406   1.636   5.647
 5713SOL    HW217592   4.338   1.545   5.747
 5714SOL     OW17593   3.983   0.330   6.303
 5714SOL    HW117594   3.895   0.361   6.282
 5714SOL    HW217595   3.983   0.319   6.399
 5715SOL     OW17596   4.907   1.608   5.629
 5715SOL    HW117597   4.918   1.513   5.639
 5715SOL    HW217598   4.851   1.617   5.552
 5716SOL     OW17599   4.547   1.006   6.960
 5716SOL    HW117600   4.590   1.000   6.875
 5716SOL    HW217601   4.545   1.100   6.979
 5717SOL     OW17602   4.641   0.912   5.877
 5717SOL    HW117603   4.703   0.943   5.811
 5717SOL    HW217604   4.688   0.841   5.921
 5718SOL     OW17605   4.092   1.304   7.078
 5718SOL    HW117606   4.079   1.380   7.022
 5718SOL    HW217607   4.015   1.249   7.062
 5719SOL     OW17608   4.780   1.108   6.294
 5719SOL    HW117609   4.708   1.059   6.334
 5719SOL    HW217610   4.838   1.041   6.258
 5720SOL     OW17611   4.735   0.243   6.559
 5720SOL    HW117612   4.716   0.198   6.477
 5720SOL    HW217613   4.731   0.175   6.626
 5721SOL     OW17614   4.328   1.488   6.067
 5721SOL    HW117615   4.375   1.438   6.000
 5721SOL    HW217616   4.256   1.529   6.020
 5722SOL     OW17617   3.985   1.344   5.876
 5722SOL    HW117618   3.892   1.341   5.853
 5722SOL    HW217619   3.986   1.381   5.964
 5723SOL     OW17620   3.838   1.025   7.307
 5723SOL    HW117621   3.761   1.001   7.359
 5723SOL    HW217622   3.911   0.985   7.353
 5724SOL     OW17623   4.397   0.217   7.080
 5724SOL    HW117624   4.478   0.195   7.035
 5724SOL    HW217625   4.425   0.263   7.159
 5725SOL     OW17626   3.802   0.337   5.628
 5725SOL    HW117627   3.718   0.303   5.596
 5725SOL    HW217628   3.821   0.412   5.571
 5726SOL     OW17629   5.164   0.860   6.989
 5726SOL    HW117630   5.111   0.917   6.933
 5726SOL    HW217631   5.253   0.869   6.955
 5727SOL     OW17632   3.795   0.167   5.899
 5727SOL    HW117633   3.798   0.249   5.851
 5727SOL    HW217634   3.879   0.125   5.881
 5728SOL     OW17635   4.905   1.327   5.699
 5728SOL    HW117636   4.811   1.309   5.700
 5728SOL    HW217637   4.929   1.334   5.792
 5729SOL     OW17638   4.344   0.831   7.020
 5729SOL    HW117639   4.400   0.907   7.005
 5729SOL    HW217640   4.404   0.757   7.027
 5730SOL     OW17641   4.438   0.571   7.287
 5730SOL    HW117642   4.482   0.631   7.347
 5730SOL    HW217643   4.465   0.484   7.317
 5731SOL     OW17644   5.179   1.201   7.216
 5731SOL    HW117645   5.169   1.214   7.311
 5731SOL    HW217646   5.273   1.215   7.200
 5732SOL     OW17647   4.100   1.740   7.151
 5732SOL    HW117648   4.015   1.783   7.137
 5732SOL    HW217649   4.077   1.657   7.192
 5733SOL     OW17650   4.938   0.324   6.046
 5733SOL    HW117651   4.992   0.245   6.040
 5733SOL    HW217652   4.970   0.369   6.124
 5734SOL     OW17653   4.313   0.736   6.257
 5734SOL    HW117654   4.352   0.822   6.242
 5734SOL    HW217655   4.246   0.727   6.189
 5735SOL     OW17656   4.592   1.365   5.625
 5735SOL    HW117657   4.551   1.395   5.706
 5735SOL    HW217658   4.606   1.445   5.574
 5736SOL     OW17659   4.385   1.788   6.527
 5736SOL    HW117660   4.367   1.880   6.506
 5736SOL    HW217661   4.481   1.781   6.521
 5737SOL     OW17662   4.593   0.969   6.441
 5737SOL    HW117663   4.642   0.897   6.479
 5737SOL    HW217664   4.556   1.015   6.516
 5738SOL     OW17665   4.808   0.988   5.677
 5738SOL    HW117666   4.782   1.037   5.599
 5738SOL    HW217667   4.881   0.934   5.648
 5739SOL     OW17668   3.950   1.301   7.442
 5739SOL    HW117669   3.885   1.239   7.409
 5739SOL    HW217670   3.925   1.315   7.533
 5740SOL     OW17671   3.810   1.232   6.251
 5740SOL    HW117672   3.817   1.185   6.334
 5740SOL    HW217673   3.877   1.193   6.196
 5741SOL     OW17674   4.406   1.403   7.217
 5741SOL    HW117675   4.326   1.362   7.248
 5741SOL    HW217676   4.403   1.492   7.251
 5742SOL     OW17677   4.155   0.436   6.111
 5742SOL    HW117678   4.187   0.364   6.058
 5742SOL    HW217679   4.106   0.394   6.182
 5743SOL     OW17680   0.093   1.518   6.686
 5743SOL    HW117681   0.026   1.499   6.621
 5743SOL    HW217682   0.093   1.443   6.745
 5744SOL     OW17683   4.055   0.558   6.877
 5744SOL    HW117684   4.110   0.503   6.932
 5744SOL    HW217685   4.074   0.531   6.787
 5745SOL     OW17686   4.554   1.577   6.262
 5745SOL    HW117687   4.538   1.637   6.188
 5745SOL    HW217688   4.478   1.520   6.263
 5746SOL     OW17689   5.146   0.214   6.707
 5746SOL    HW117690   5.156   0.133   6.756
 5746SOL    HW217691   5.101   0.273   6.767
 5747SOL     OW17692   4.723   0.019   6.722
 5747SOL    HW117693   4.672   5.251   6.678
 5747SOL    HW217694   4.810   5.280   6.733
 5748SOL     OW17695   4.495   1.333   5.904
 5748SOL    HW117696   4.466   1.242   5.911
 5748SOL    HW217697   4.578   1.336   5.953
 5749SOL     OW17698   4.344   1.555   6.872
 5749SOL    HW117699   4.345   1.638   6.920
 5749SOL    HW217700   4.431   1.548   6.835
 5750SOL     OW17701   5.034   0.030   5.741
 5750SOL    HW117702   5.118   0.024   5.695
 5750SOL    HW217703   4.985   5.253   5.712
 5751SOL     OW17704   5.027   0.461   6.270
 5751SOL    HW117705   4.972   0.539   6.274
 5751SOL    HW217706   5.013   0.418   6.354
 5752SOL     OW17707   5.294   0.214   6.473
 5752SOL    HW117708   5.236   0.212   6.550
 5752SOL    HW217709   5.269   0.293   6.426
 5753SOL     OW17710   3.767   1.069   5.893
 5753SOL    HW117711   3.861   1.061   5.875
 5753SOL    HW217712   3.739   0.980   5.915
 5754SOL     OW17713   4.604   1.652   5.931
 5754SOL    HW117714   4.533   1.638   5.869
 5754SOL    HW217715   4.577   1.728   5.982
 5755SOL     OW17716   3.949   0.622   7.573
 5755SOL    HW117717   3.859   0.629   7.607
 5755SOL    HW217718   3.938   0.599   7.481
 5756SOL     OW17719   3.945   1.716   7.919
 5756SOL    HW117720   3.972   1.755   8.002
 5756SOL    HW217721   4.024   1.716   7.865
 5757SOL     OW17722   3.939   1.439   7.993
 5757SOL    HW117723   3.925   1.534   7.988
 5757SOL    HW217724   3.879   1.410   8.062
 5758SOL     OW17725   4.308   0.983   7.580
 5758SOL    HW117726   4.353   1.032   7.511
 5758SOL    HW217727   4.347   1.015   7.662
 5759SOL     OW17728   3.756   1.598   7.578
 5759SOL    HW117729   3.740   1.505   7.593
 5759SOL    HW217730   3.729   1.641   7.659
 5760SOL     OW17731   0.116   0.927   8.013
 5760SOL    HW117732   0.211   0.923   8.027
 5760SOL    HW217733   0.098   1.020   8.003
 5761SOL     OW17734   4.535   5.284   7.944
 5761SOL    HW117735   4.579   0.067   7.929
 5761SOL    HW217736   4.442   0.005   7.942
 5762SOL     OW17737   4.313   0.725   7.709
 5762SOL    HW117738   4.313   0.808   7.662
 5762SOL    HW217739   4.254   0.738   7.783
 5763SOL     OW17740   3.782   0.865   0.085
 5763SOL    HW117741   3.844   0.796   0.108
 5763SOL    HW217742   3.785   0.926   0.158
 5764SOL     OW17743   4.596   0.363   7.634
 5764SOL    HW117744   4.632   0.419   7.566
 5764SOL    HW217745   4.656   0.288   7.637
 5765SOL     OW17746   4.045   0.957   7.698
 5765SOL    HW117747   4.124   0.973   7.647
 5765SOL    HW217748   4.007   0.879   7.660
 5766SOL     OW17749   4.836   1.776   7.686
 5766SOL    HW117750   4.761   1.733   7.728
 5766SOL    HW217751   4.861   1.716   7.616
 5767SOL     OW17752   4.190   1.739   7.770
 5767SOL    HW117753   4.241   1.790   7.833
 5767SOL    HW217754   4.256   1.701   7.712
 5768SOL     OW17755   5.111   0.113   7.869
 5768SOL    HW117756   5.083   0.088   7.781
 5768SOL    HW217757   5.206   0.101   7.869
 5769SOL     OW17758   4.118   0.695   7.919
 5769SOL    HW117759   4.116   0.600   7.929
 5769SOL    HW217760   4.027   0.723   7.933
 5770SOL     OW17761   4.342   0.133   7.560
 5770SOL    HW117762   4.419   0.078   7.575
 5770SOL    HW217763   4.295   0.089   7.489
 5771SOL     OW17764   4.274   0.064   7.950
 5771SOL    HW117765   4.182   0.046   7.971
 5771SOL    HW217766   4.270   0.138   7.888
 5772SOL     OW17767   5.134   1.181   7.489
 5772SOL    HW117768   5.145   1.108   7.550
 5772SOL    HW217769   5.047   1.216   7.510
 5773SOL     OW17770   4.030   0.077   7.664
 5773SOL    HW117771   4.077   0.136   7.606
 5773SOL    HW217772   4.077   5.294   7.659
 5774SOL     OW17773   4.672   0.228   7.909
 5774SOL    HW117774   4.619   0.291   7.862
 5774SOL    HW217775   4.757   0.270   7.921
 5775SOL     OW17776   4.160   1.147   0.099
 5775SOL    HW117777   4.089   1.194   0.142
 5775SOL    HW217778   4.130   1.137   0.009
 5776SOL     OW17779   5.011   1.806   8.011
 5776SOL    HW117780   5.051   1.871   7.954
 5776SOL    HW217781   4.934   1.849   8.047
 5777SOL     OW17782   4.753   0.549   7.467
 5777SOL    HW117783   4.704   0.630   7.452
 5777SOL    HW217784   4.799   0.564   7.549
 5778SOL     OW17785   4.210   1.418   7.601
 5778SOL    HW117786   4.136   1.389   7.655
 5778SOL    HW217787   4.198   1.372   7.518
 5779SOL     OW17788   5.129   0.556   7.533
 5779SOL    HW117789   5.050   0.549   7.587
 5779SOL    HW217790   5.198   0.522   7.589
 5780SOL     OW17791   4.249   0.274   7.774
 5780SOL    HW117792   4.289   0.221   7.706
 5780SOL    HW217793   4.226   0.356   7.730
 5781SOL     OW17794   4.439   1.063   7.810
 5781SOL    HW117795   4.408   1.046   7.899
 5781SOL    HW217796   4.517   1.009   7.801
 5782SOL     OW17797   4.088   1.109   7.923
 5782SOL    HW117798   4.067   1.187   7.873
 5782SOL    HW217799   4.075   1.036   7.863
 5783SOL     OW17800   4.957   1.360   7.817
 5783SOL    HW117801   5.014   1.432   7.843
 5783SOL    HW217802   4.909   1.338   7.896
 5784SOL     OW17803   0.029   0.639   7.938
 5784SOL    HW117804   5.272   0.666   8.009
 5784SOL    HW217805   0.048   0.720   7.891
 5785SOL     OW17806   4.924   0.529   7.713
 5785SOL    HW117807   4.927   0.444   7.757
 5785SOL    HW217808   4.891   0.590   7.778
 5786SOL     OW17809   0.025   0.409   7.797
 5786SOL    HW117810   0.032   0.346   7.868
 5786SOL    HW217811   0.024   0.494   7.841
 5787SOL     OW17812   5.038   0.833   7.493
 5787SOL    HW117813   5.065   0.741   7.488
 5787SOL    HW217814   5.060   0.868   7.407
 5788SOL     OW17815   3.731   1.323   7.639
 5788SOL    HW117816   3.644   1.337   7.602
 5788SOL    HW217817   3.730   1.234   7.673
 5789SOL     OW17818   4.569   0.615   7.755
 5789SOL    HW117819   4.562   0.522   7.731
 5789SOL    HW217820   4.478   0.645   7.760
 5790SOL     OW17821   4.182   0.495   7.634
 5790SOL    HW117822   4.243   0.567   7.653
 5790SOL    HW217823   4.098   0.538   7.620
 5791SOL     OW17824   5.030   0.848   7.777
 5791SOL    HW117825   4.938   0.869   7.790
 5791SOL    HW217826   5.041   0.844   7.682
 5792SOL     OW17827   5.106   1.573   7.906
 5792SOL    HW117828   5.200   1.577   7.923
 5792SOL    HW217829   5.072   1.656   7.940
 5793SOL     OW17830   4.388   1.622   7.603
 5793SOL    HW117831   4.402   1.634   7.509
 5793SOL    HW217832   4.335   1.542   7.609
 5794SOL     OW17833   4.910   1.610   7.488
 5794SOL    HW117834   4.919   1.516   7.501
 5794SOL    HW217835   4.850   1.618   7.414
 5795SOL     OW17836   4.655   0.904   7.761
 5795SOL    HW117837   4.704   0.927   7.682
 5795SOL    HW217838   4.639   0.810   7.752
 5796SOL     OW17839   4.333   1.509   7.935
 5796SOL    HW117840   4.379   1.449   7.877
 5796SOL    HW217841   4.255   1.536   7.885
 5797SOL     OW17842   3.983   1.344   7.746
 5797SOL    HW117843   3.892   1.342   7.718
 5797SOL    HW217844   3.981   1.381   7.834
 5798SOL     OW17845   3.798   0.337   7.490
 5798SOL    HW117846   3.716   0.306   7.452
 5798SOL    HW217847   3.822   0.413   7.436
 5799SOL     OW17848   3.786   0.183   7.741
 5799SOL    HW117849   3.784   0.258   7.682
 5799SOL    HW217850   3.868   0.138   7.721
 5800SOL     OW17851   4.902   1.327   7.554
 5800SOL    HW117852   4.807   1.314   7.553
 5800SOL    HW217853   4.923   1.340   7.646
 5801SOL     OW17854   5.275   1.742   0.322
 5801SOL    HW117855   5.277   1.829   0.283
 5801SOL    HW217856   0.053   1.739   0.378
 5802SOL     OW17857   4.940   0.325   7.909
 5802SOL    HW117858   5.003   0.254   7.906
 5802SOL    HW217859   4.949   0.362   7.997
 5803SOL     OW17860   4.358   0.740   8.047
 5803SOL    HW117861   4.356   0.817   0.024
 5803SOL    HW217862   4.269   0.733   8.013
 5804SOL     OW17863   4.593   1.365   7.488
 5804SOL    HW117864   4.552   1.395   7.570
 5804SOL    HW217865   4.606   1.445   7.438
 5805SOL     OW17866   4.802   0.975   7.541
 5805SOL    HW117867   4.778   1.031   7.467
 5805SOL    HW217868   4.880   0.929   7.513
 5806SOL     OW17869   4.113   0.423   7.985
 5806SOL    HW117870   4.165   0.369   7.926
 5806SOL    HW217871   4.161   0.423   8.068
 5807SOL     OW17872   4.488   1.337   7.764
 5807SOL    HW117873   4.461   1.245   7.766
 5807SOL    HW217874   4.567   1.339   7.818
 5808SOL     OW17875   5.035   0.036   7.609
 5808SOL    HW117876   5.115   0.028   7.558
 5808SOL    HW217877   4.986   5.255   7.590
 5809SOL     OW17878   3.777   1.077   7.749
 5809SOL    HW117879   3.872   1.068   7.736
 5809SOL    HW217880   3.746   0.988   7.763
 5810SOL     OW17881   4.613   1.648   7.782
 5810SOL    HW117882   4.536   1.628   7.728
 5810SOL    HW217883   4.581   1.711   7.846
 5811SOL     OW17884   3.939   2.484   0.124
 5811SOL    HW117885   3.859   2.447   0.163
 5811SOL    HW217886   3.962   2.424   0.054
 5812SOL     OW17887   3.949   2.144   0.992
 5812SOL    HW117888   3.977   2.110   1.077
 5812SOL    HW217889   3.859   2.112   0.982
 5813SOL     OW17890   3.726   2.246   0.638
 5813SOL    HW117891   3.644   2.273   0.680
 5813SOL    HW217892   3.704   2.166   0.590
 5814SOL     OW17893   4.291   3.154   1.179
 5814SOL    HW117894   4.204   3.159   1.139
 5814SOL    HW217895   4.308   3.243   1.211
 5815SOL     OW17896   5.286   3.415   0.707
 5815SOL    HW117897   5.251   3.360   0.778
 5815SOL    HW217898   5.228   3.398   0.633
 5816SOL     OW17899   4.861   2.561   0.698
 5816SOL    HW117900   4.912   2.642   0.688
 5816SOL    HW217901   4.812   2.574   0.779
 5817SOL     OW17902   4.475   3.002   1.044
 5817SOL    HW117903   4.407   3.038   1.101
 5817SOL    HW217904   4.512   3.078   0.999
 5818SOL     OW17905   4.596   2.630   1.823
 5818SOL    HW117906   4.579   2.701   1.885
 5818SOL    HW217907   4.617   2.675   1.741
 5819SOL     OW17908   4.408   2.860   0.650
 5819SOL    HW117909   4.474   2.851   0.718
 5819SOL    HW217910   4.340   2.915   0.689
 5820SOL     OW17911   4.437   3.012   1.816
 5820SOL    HW117912   4.484   3.090   1.845
 5820SOL    HW217913   4.355   3.046   1.778
 5821SOL     OW17914   4.055   3.284   1.067
 5821SOL    HW117915   3.981   3.246   1.019
 5821SOL    HW217916   4.103   3.335   1.002
 5822SOL     OW17917   5.160   3.341   1.357
 5822SOL    HW117918   5.212   3.418   1.380
 5822SOL    HW217919   5.097   3.333   1.428
 5823SOL     OW17920   4.175   2.259   1.483
 5823SOL    HW117921   4.250   2.200   1.490
 5823SOL    HW217922   4.098   2.203   1.499
 5824SOL     OW17923   3.945   3.576   0.469
 5824SOL    HW117924   3.965   3.652   0.525
 5824SOL    HW217925   4.022   3.569   0.412
 5825SOL     OW17926   4.859   3.203   1.695
 5825SOL    HW117927   4.898   3.198   1.782
 5825SOL    HW217928   4.807   3.123   1.687
 5826SOL     OW17929   3.949   3.302   0.527
 5826SOL    HW117930   3.938   3.397   0.529
 5826SOL    HW217931   3.893   3.269   0.596
 5827SOL     OW17932   3.984   2.952   0.891
 5827SOL    HW117933   3.981   2.865   0.931
 5827SOL    HW217934   3.927   3.006   0.945
 5828SOL     OW17935   4.328   3.655   1.424
 5828SOL    HW117936   4.249   3.637   1.474
 5828SOL    HW217937   4.354   3.743   1.452
 5829SOL     OW17938   4.350   2.820   0.137
 5829SOL    HW117939   4.295   2.894   0.113
 5829SOL    HW217940   4.404   2.852   0.210
 5830SOL     OW17941   3.840   2.513   0.563
 5830SOL    HW117942   3.810   2.425   0.585
 5830SOL    HW217943   3.831   2.562   0.645
 5831SOL     OW17944   3.758   3.456   0.109
 5831SOL    HW117945   3.742   3.368   0.145
 5831SOL    HW217946   3.740   3.515   0.182
 5832SOL     OW17947   0.116   2.808   0.596
 5832SOL    HW117948   0.206   2.778   0.586
 5832SOL    HW217949   0.103   2.869   0.524
 5833SOL     OW17950   3.848   2.605   1.585
 5833SOL    HW117951   3.939   2.634   1.589
 5833SOL    HW217952   3.798   2.687   1.592
 5834SOL     OW17953   4.338   3.251   0.734
 5834SOL    HW117954   4.293   3.167   0.744
 5834SOL    HW217955   4.322   3.276   0.643
 5835SOL     OW17956   5.002   3.095   1.424
 5835SOL    HW117957   5.036   3.030   1.364
 5835SOL    HW217958   5.059   3.090   1.501
 5836SOL     OW17959   4.542   1.867   0.515
 5836SOL    HW117960   4.581   1.951   0.490
 5836SOL    HW217961   4.448   1.885   0.520
 5837SOL     OW17962   3.913   2.826   1.274
 5837SOL    HW117963   3.998   2.785   1.260
 5837SOL    HW217964   3.852   2.773   1.223
 5838SOL     OW17965   4.894   3.671   1.625
 5838SOL    HW117966   4.914   3.732   1.554
 5838SOL    HW217967   4.919   3.585   1.591
 5839SOL     OW17968   4.061   2.111   1.819
 5839SOL    HW117969   4.103   2.196   1.836
 5839SOL    HW217970   3.970   2.124   1.845
 5840SOL     OW17971   5.167   3.299   0.932
 5840SOL    HW117972   5.106   3.305   1.005
 5840SOL    HW217973   5.161   3.207   0.903
 5841SOL     OW17974   4.323   2.574   0.284
 5841SOL    HW117975   4.340   2.654   0.234
 5841SOL    HW217976   4.258   2.599   0.350
 5842SOL     OW17977   4.995   2.199   0.917
 5842SOL    HW117978   4.906   2.170   0.939
 5842SOL    HW217979   5.049   2.164   0.988
 5843SOL     OW17980   4.513   2.480   1.449
 5843SOL    HW117981   4.488   2.455   1.538
 5843SOL    HW217982   4.477   2.412   1.393
 5844SOL     OW17983   5.114   2.344   1.681
 5844SOL    HW117984   5.117   2.380   1.770
 5844SOL    HW217985   5.192   2.289   1.675
 5845SOL     OW17986   4.675   2.749   1.584
 5845SOL    HW117987   4.728   2.678   1.547
 5845SOL    HW217988   4.627   2.784   1.510
 5846SOL     OW17989   4.715   2.274   1.236
 5846SOL    HW117990   4.627   2.292   1.269
 5846SOL    HW217991   4.701   2.229   1.153
 5847SOL     OW17992   4.779   2.560   0.425
 5847SOL    HW117993   4.796   2.555   0.520
 5847SOL    HW217994   4.695   2.514   0.414
 5848SOL     OW17995   3.812   2.684   0.777
 5848SOL    HW117996   3.893   2.677   0.828
 5848SOL    HW217997   3.768   2.762   0.812
 5849SOL     OW17998   3.849   3.719   1.580
 5849SOL    HW117999   3.852   3.697   1.673
 5849SOL    HW218000   3.760   3.699   1.553
 5850SOL     OW18001   4.611   2.219   0.202
 5850SOL    HW118002   4.655   2.269   0.133
 5850SOL    HW218003   4.611   2.129   0.170
 5851SOL     OW18004   5.098   3.012   0.551
 5851SOL    HW118005   5.181   3.006   0.502
 5851SOL    HW218006   5.043   3.069   0.497
 5852SOL     OW18007   4.274   2.041   0.895
 5852SOL    HW118008   4.276   2.071   0.986
 5852SOL    HW218009   4.276   2.122   0.843
 5853SOL     OW18010   4.726   3.305   0.471
 5853SOL    HW118011   4.689   3.378   0.422
 5853SOL    HW218012   4.705   3.325   0.563
 5854SOL     OW18013   4.078   3.673   0.866
 5854SOL    HW118014   4.123   3.589   0.873
 5854SOL    HW218015   4.147   3.738   0.884
 5855SOL     OW18016   4.939   3.401   1.518
 5855SOL    HW118017   4.926   3.330   1.580
 5855SOL    HW218018   4.876   3.384   1.448
 5856SOL     OW18019   4.045   2.804   0.260
 5856SOL    HW118020   4.107   2.851   0.204
 5856SOL    HW218021   4.054   2.712   0.235
 5857SOL     OW18022   4.192   3.128   1.738
 5857SOL    HW118023   4.165   3.132   1.646
 5857SOL    HW218024   4.109   3.125   1.787
 5858SOL     OW18025   4.821   3.635   0.223
 5858SOL    HW118026   4.765   3.596   0.290
 5858SOL    HW218027   4.837   3.564   0.160
 5859SOL     OW18028   3.926   2.140   1.503
 5859SOL    HW118029   3.844   2.190   1.501
 5859SOL    HW218030   3.905   2.062   1.555
 5860SOL     OW18031   4.188   3.598   0.323
 5860SOL    HW118032   4.231   3.657   0.384
 5860SOL    HW218033   4.258   3.570   0.263
 5861SOL     OW18034   5.113   1.987   0.442
 5861SOL    HW118035   5.098   1.968   0.350
 5861SOL    HW218036   5.208   1.994   0.450
 5862SOL     OW18037   3.979   3.652   1.231
 5862SOL    HW118038   4.031   3.586   1.275
 5862SOL    HW218039   3.972   3.621   1.140
 5863SOL     OW18040   4.663   3.560   0.898
 5863SOL    HW118041   4.744   3.512   0.914
 5863SOL    HW218042   4.619   3.510   0.828
 5864SOL     OW18043   4.111   2.559   0.476
 5864SOL    HW118044   4.133   2.467   0.488
 5864SOL    HW218045   4.019   2.565   0.498
 5865SOL     OW18046   4.355   1.971   0.138
 5865SOL    HW118047   4.450   1.960   0.145
 5865SOL    HW218048   4.335   1.952   0.047
 5866SOL     OW18049   4.488   2.141   1.756
 5866SOL    HW118050   4.567   2.087   1.754
 5866SOL    HW218051   4.441   2.113   1.834
 5867SOL     OW18052   4.598   3.384   1.194
 5867SOL    HW118053   4.584   3.348   1.107
 5867SOL    HW218054   4.669   3.331   1.230
 5868SOL     OW18055   5.057   2.454   1.432
 5868SOL    HW118056   5.088   2.423   1.517
 5868SOL    HW218057   5.100   2.538   1.420
 5869SOL     OW18058   4.540   3.254   0.943
 5869SOL    HW118059   4.625   3.242   0.900
 5869SOL    HW218060   4.477   3.259   0.870
 5870SOL     OW18061   4.651   2.371   0.901
 5870SOL    HW118062   4.627   2.362   0.809
 5870SOL    HW218063   4.682   2.283   0.927
 5871SOL     OW18064   4.275   1.925   0.503
 5871SOL    HW118065   4.194   1.923   0.555
 5871SOL    HW218066   4.266   2.004   0.449
 5872SOL     OW18067   5.138   3.035   0.049
 5872SOL    HW118068   5.128   2.957   0.104
 5872SOL    HW218069   5.055   3.081   0.058
 5873SOL     OW18070   4.037   1.921   0.173
 5873SOL    HW118071   4.103   1.988   0.191
 5873SOL    HW218072   4.071   1.842   0.213
 5874SOL     OW18073   4.663   2.111   0.457
 5874SOL    HW118074   4.636   2.150   0.374
 5874SOL    HW218075   4.756   2.129   0.463
 5875SOL     OW18076   4.801   2.545   1.460
 5875SOL    HW118077   4.735   2.475   1.461
 5875SOL    HW218078   4.884   2.499   1.451
 5876SOL     OW18079   4.939   3.434   0.796
 5876SOL    HW118080   4.959   3.500   0.730
 5876SOL    HW218081   5.022   3.416   0.840
 5877SOL     OW18082   4.193   3.014   0.730
 5877SOL    HW118083   4.126   2.994   0.795
 5877SOL    HW218084   4.151   2.999   0.646
 5878SOL     OW18085   4.989   3.656   0.607
 5878SOL    HW118086   5.035   3.719   0.552
 5878SOL    HW218087   4.922   3.708   0.653
 5879SOL     OW18088   4.758   2.388   0.032
 5879SOL    HW118089   4.713   2.468   0.007
 5879SOL    HW218090   4.818   2.416   0.102
 5880SOL     OW18091   3.805   2.416   1.392
 5880SOL    HW118092   3.897   2.415   1.366
 5880SOL    HW218093   3.800   2.486   1.458
 5881SOL     OW18094   4.282   2.089   1.168
 5881SOL    HW118095   4.325   2.015   1.210
 5881SOL    HW218096   4.191   2.085   1.197
 5882SOL     OW18097   4.591   2.320   0.638
 5882SOL    HW118098   4.550   2.376   0.573
 5882SOL    HW218099   4.613   2.240   0.591
 5883SOL     OW18100   4.740   1.915   0.749
 5883SOL    HW118101   4.680   1.909   0.674
 5883SOL    HW218102   4.717   1.840   0.804
 5884SOL     OW18103   5.155   3.039   0.849
 5884SOL    HW118104   5.103   2.960   0.864
 5884SOL    HW218105   5.165   3.044   0.753
 5885SOL     OW18106   4.207   3.302   0.173
 5885SOL    HW118107   4.134   3.262   0.219
 5885SOL    HW218108   4.215   3.253   0.091
 5886SOL     OW18109   5.131   2.445   0.073
 5886SOL    HW118110   5.071   2.422   0.144
 5886SOL    HW218111   5.195   2.375   0.072
 5887SOL     OW18112   4.239   2.126   0.322
 5887SOL    HW118113   4.291   2.074   0.261
 5887SOL    HW218114   4.225   2.210   0.277
 5888SOL     OW18115   4.778   3.217   1.333
 5888SOL    HW118116   4.702   3.185   1.383
 5888SOL    HW218117   4.853   3.173   1.373
 5889SOL     OW18118   0.007   3.468   1.614
 5889SOL    HW118119   0.042   3.470   1.525
 5889SOL    HW218120   0.082   3.445   1.668
 5890SOL     OW18121   4.856   3.068   1.105
 5890SOL    HW118122   4.793   3.103   1.168
 5890SOL    HW218123   4.824   3.098   1.020
 5891SOL     OW18124   4.642   1.958   1.394
 5891SOL    HW118125   4.664   1.940   1.303
 5891SOL    HW218126   4.721   1.997   1.431
 5892SOL     OW18127   4.709   2.975   1.726
 5892SOL    HW118128   4.617   2.993   1.748
 5892SOL    HW218129   4.705   2.898   1.669
 5893SOL     OW18130   4.442   2.927   0.382
 5893SOL    HW118131   4.422   2.906   0.473
 5893SOL    HW218132   4.519   2.874   0.361
 5894SOL     OW18133   4.144   2.678   1.251
 5894SOL    HW118134   4.212   2.688   1.318
 5894SOL    HW218135   4.109   2.590   1.265
 5895SOL     OW18136   4.987   2.236   1.278
 5895SOL    HW118137   5.022   2.316   1.319
 5895SOL    HW218138   4.897   2.259   1.255
 5896SOL     OW18139   3.797   3.436   1.355
 5896SOL    HW118140   3.769   3.509   1.300
 5896SOL    HW218141   3.892   3.436   1.349
 5897SOL     OW18142   4.064   2.974   0.491
 5897SOL    HW118143   4.071   3.046   0.428
 5897SOL    HW218144   4.072   2.895   0.437
 5898SOL     OW18145   4.274   2.396   0.859
 5898SOL    HW118146   4.288   2.455   0.785
 5898SOL    HW218147   4.340   2.421   0.923
 5899SOL     OW18148   4.970   3.209   0.392
 5899SOL    HW118149   5.026   3.282   0.418
 5899SOL    HW218150   4.883   3.232   0.424
 5900SOL     OW18151   4.998   3.319   1.141
 5900SOL    HW118152   5.052   3.320   1.220
 5900SOL    HW218153   4.944   3.241   1.150
 5901SOL     OW18154   4.070   3.391   1.313
 5901SOL    HW118155   4.058   3.347   1.228
 5901SOL    HW218156   4.165   3.402   1.321
 5902SOL     OW18157   4.140   2.607   1.602
 5902SOL    HW118158   4.202   2.651   1.545
 5902SOL    HW218159   4.178   2.521   1.619
 5903SOL     OW18160   4.718   1.992   1.755
 5903SOL    HW118161   4.777   2.063   1.731
 5903SOL    HW218162   4.764   1.912   1.729
 5904SOL     OW18163   4.221   1.901   1.749
 5904SOL    HW118164   4.176   1.847   1.684
 5904SOL    HW218165   4.163   1.976   1.762
 5905SOL     OW18166   4.307   2.736   1.031
 5905SOL    HW118167   4.340   2.826   1.033
 5905SOL    HW218168   4.251   2.729   1.109
 5906SOL     OW18169   5.086   2.717   1.037
 5906SOL    HW118170   5.010   2.696   0.982
 5906SOL    HW218171   5.145   2.642   1.026
 5907SOL     OW18172   4.932   2.394   0.266
 5907SOL    HW118173   4.934   2.313   0.318
 5907SOL    HW218174   4.886   2.457   0.321
 5908SOL     OW18175   4.021   2.059   1.247
 5908SOL    HW118176   3.984   2.091   1.329
 5908SOL    HW218177   4.003   1.965   1.248
 5909SOL     OW18178   3.770   3.173   1.275
 5909SOL    HW118179   3.803   3.118   1.346
 5909SOL    HW218180   3.776   3.263   1.309
 5910SOL     OW18181   4.445   2.492   1.055
 5910SOL    HW118182   4.522   2.477   0.999
 5910SOL    HW218183   4.418   2.581   1.035
 5911SOL     OW18184   4.028   1.925   0.624
 5911SOL    HW118185   4.008   2.016   0.646
 5911SOL    HW218186   4.036   1.881   0.709
 5912SOL     OW18187   0.050   2.238   0.353
 5912SOL    HW118188   0.062   2.182   0.430
 5912SOL    HW218189   0.022   2.323   0.388
 5913SOL     OW18190   4.751   2.620   0.958
 5913SOL    HW118191   4.747   2.638   1.052
 5913SOL    HW218192   4.725   2.528   0.950
 5914SOL     OW18193   4.696   3.423   1.715
 5914SOL    HW118194   4.685   3.470   1.633
 5914SOL    HW218195   4.744   3.344   1.692
 5915SOL     OW18196   4.077   2.778   1.810
 5915SOL    HW118197   4.158   2.797   1.855
 5915SOL    HW218198   4.102   2.715   1.742
 5916SOL     OW18199   5.032   2.697   0.025
 5916SOL    HW118200   5.065   2.609   0.043
 5916SOL    HW218201   5.056   2.713   8.014
 5917SOL     OW18202   4.790   3.197   0.857
 5917SOL    HW118203   4.795   3.126   0.794
 5917SOL    HW218204   4.846   3.265   0.821
 5918SOL     OW18205   4.032   2.671   0.946
 5918SOL    HW118206   4.125   2.692   0.941
 5918SOL    HW218207   4.030   2.581   0.978
 5919SOL     OW18208   4.053   2.390   1.012
 5919SOL    HW118209   4.018   2.302   0.999
 5919SOL    HW218210   4.130   2.395   0.956
 5920SOL     OW18211   4.856   2.237   1.683
 5920SOL    HW118212   4.808   2.291   1.745
 5920SOL    HW218213   4.943   2.277   1.678
 5921SOL     OW18214   4.885   2.062   1.470
 5921SOL    HW118215   4.873   2.124   1.542
 5921SOL    HW218216   4.925   2.114   1.400
 5922SOL     OW18217   3.738   3.183   0.187
 5922SOL    HW118218   3.651   3.198   0.150
 5922SOL    HW218219   3.734   3.094   0.221
 5923SOL     OW18220   3.814   3.647   0.939
 5923SOL    HW118221   3.785   3.568   0.894
 5923SOL    HW218222   3.903   3.660   0.908
 5924SOL     OW18223   4.218   3.436   0.905
 5924SOL    HW118224   4.287   3.499   0.929
 5924SOL    HW218225   4.262   3.374   0.847
 5925SOL     OW18226   4.702   2.652   1.225
 5925SOL    HW118227   4.760   2.631   1.298
 5925SOL    HW218228   4.618   2.614   1.249
 5926SOL     OW18229   3.760   2.408   1.117
 5926SOL    HW118230   3.841   2.398   1.067
 5926SOL    HW218231   3.789   2.410   1.208
 5927SOL     OW18232   3.916   2.383   1.729
 5927SOL    HW118233   3.971   2.341   1.663
 5927SOL    HW218234   3.877   2.458   1.684
 5928SOL     OW18235   5.115   2.797   1.666
 5928SOL    HW118236   5.123   2.891   1.653
 5928SOL    HW218237   5.119   2.760   1.578
 5929SOL     OW18238   4.544   2.431   0.371
 5929SOL    HW118239   4.553   2.360   0.308
 5929SOL    HW218240   4.468   2.481   0.341
 5930SOL     OW18241   3.964   3.412   1.725
 5930SOL    HW118242   3.943   3.477   1.793
 5930SOL    HW218243   3.969   3.329   1.773
 5931SOL     OW18244   4.430   2.310   1.256
 5931SOL    HW118245   4.375   2.237   1.228
 5931SOL    HW218246   4.424   2.373   1.185
 5932SOL     OW18247   4.642   3.542   1.470
 5932SOL    HW118248   4.620   3.507   1.383
 5932SOL    HW218249   4.642   3.637   1.458
 5933SOL     OW18250   4.192   2.353   0.176
 5933SOL    HW118251   4.259   2.419   0.197
 5933SOL    HW218252   4.109   2.399   0.189
 5934SOL     OW18253   3.867   3.003   1.473
 5934SOL    HW118254   3.869   2.954   1.555
 5934SOL    HW218255   3.885   2.938   1.405
 5935SOL     OW18256   5.052   2.909   1.223
 5935SOL    HW118257   5.072   2.844   1.157
 5935SOL    HW218258   4.982   2.963   1.184
 5936SOL     OW18259   5.023   2.735   0.319
 5936SOL    HW118260   4.947   2.688   0.353
 5936SOL    HW218261   5.024   2.713   0.226
 5937SOL     OW18262   4.958   3.593   1.120
 5937SOL    HW118263   5.044   3.617   1.084
 5937SOL    HW218264   4.962   3.498   1.129
 5938SOL     OW18265   3.809   3.128   1.011
 5938SOL    HW118266   3.794   3.143   1.105
 5938SOL    HW218267   3.736   3.074   0.983
 5939SOL     OW18268   4.401   3.529   1.733
 5939SOL    HW118269   4.347   3.608   1.724
 5939SOL    HW218270   4.473   3.542   1.671
 5940SOL     OW18271   4.630   1.954   0.131
 5940SOL    HW118272   4.642   1.933   0.038
 5940SOL    HW218273   4.695   1.899   0.175
 5941SOL     OW18274   0.077   2.012   0.525
 5941SOL    HW118275   0.168   2.002   0.499
 5941SOL    HW218276   0.063   1.947   0.593
 5942SOL     OW18277   5.108   3.435   0.478
 5942SOL    HW118278   5.163   3.480   0.414
 5942SOL    HW218279   5.059   3.506   0.520
 5943SOL     OW18280   3.862   3.658   1.843
 5943SOL    HW118281   3.811   3.592   1.891
 5943SOL    HW218282   3.909   3.706   1.911
 5944SOL     OW18283   5.019   2.782   0.670
 5944SOL    HW118284   5.097   2.729   0.658
 5944SOL    HW218285   5.037   2.863   0.623
 5945SOL     OW18286   4.533   3.136   1.428
 5945SOL    HW118287   4.505   3.176   1.510
 5945SOL    HW218288   4.465   3.159   1.366
 5946SOL     OW18289   4.400   3.485   0.157
 5946SOL    HW118290   4.409   3.492   0.062
 5946SOL    HW218291   4.339   3.413   0.170
 5947SOL     OW18292   3.984   2.177   0.717
 5947SOL    HW118293   3.898   2.212   0.694
 5947SOL    HW218294   3.983   2.170   0.812
 5948SOL     OW18295   4.859   3.441   0.043
 5948SOL    HW118296   4.896   3.354   0.060
 5948SOL    HW218297   4.905   3.471   8.044
 5949SOL     OW18298   4.547   2.868   1.373
 5949SOL    HW118299   4.592   2.863   1.289
 5949SOL    HW218300   4.545   2.962   1.393
 5950SOL     OW18301   4.645   2.776   0.301
 5950SOL    HW118302   4.697   2.799   0.224
 5950SOL    HW218303   4.693   2.704   0.342
 5951SOL     OW18304   4.092   3.166   1.492
 5951SOL    HW118305   4.079   3.242   1.436
 5951SOL    HW218306   4.015   3.111   1.476
 5952SOL     OW18307   4.779   2.971   0.708
 5952SOL    HW118308   4.708   2.920   0.748
 5952SOL    HW218309   4.837   2.905   0.670
 5953SOL     OW18310   4.739   2.101   0.968
 5953SOL    HW118311   4.737   2.054   0.885
 5953SOL    HW218312   4.735   2.032   1.035
 5954SOL     OW18313   4.327   3.347   0.478
 5954SOL    HW118314   4.374   3.298   0.410
 5954SOL    HW218315   4.258   3.393   0.431
 5955SOL     OW18316   3.992   3.179   0.292
 5955SOL    HW118317   3.906   3.189   0.251
 5955SOL    HW218318   3.985   3.224   0.375
 5956SOL     OW18319   3.838   2.888   1.721
 5956SOL    HW118320   3.761   2.863   1.773
 5956SOL    HW218321   3.912   2.848   1.766
 5957SOL     OW18322   4.399   2.058   1.500
 5957SOL    HW118323   4.484   2.037   1.459
 5957SOL    HW218324   4.422   2.090   1.587
 5958SOL     OW18325   3.780   2.223   0.039
 5958SOL    HW118326   3.703   2.173   0.014
 5958SOL    HW218327   3.833   2.228   8.039
 5959SOL     OW18328   5.164   2.721   1.403
 5959SOL    HW118329   5.112   2.779   1.347
 5959SOL    HW218330   5.253   2.728   1.368
 5960SOL     OW18331   3.794   2.015   0.299
 5960SOL    HW118332   3.780   2.100   0.260
 5960SOL    HW218333   3.879   1.986   0.264
 5961SOL     OW18334   4.910   3.175   0.118
 5961SOL    HW118335   4.815   3.174   0.113
 5961SOL    HW218336   4.929   3.180   0.212
 5962SOL     OW18337   4.343   2.693   1.434
 5962SOL    HW118338   4.400   2.768   1.419
 5962SOL    HW218339   4.403   2.619   1.442
 5963SOL     OW18340   4.442   2.423   1.702
 5963SOL    HW118341   4.484   2.484   1.763
 5963SOL    HW218342   4.463   2.336   1.736
 5964SOL     OW18343   5.180   3.064   1.631
 5964SOL    HW118344   5.171   3.077   1.726
 5964SOL    HW218345   5.273   3.074   1.614
 5965SOL     OW18346   4.100   3.602   1.565
 5965SOL    HW118347   4.016   3.645   1.551
 5965SOL    HW218348   4.077   3.518   1.607
 5966SOL     OW18349   4.931   2.189   0.460
 5966SOL    HW118350   4.992   2.116   0.451
 5966SOL    HW218351   4.961   2.235   0.539
 5967SOL     OW18352   4.311   2.597   0.671
 5967SOL    HW118353   4.351   2.683   0.658
 5967SOL    HW218354   4.243   2.592   0.603
 5968SOL     OW18355   4.626   3.228   0.040
 5968SOL    HW118356   4.561   3.222   0.109
 5968SOL    HW218357   4.622   3.319   0.011
 5969SOL     OW18358   4.385   3.650   0.941
 5969SOL    HW118359   4.367   3.742   0.920
 5969SOL    HW218360   4.481   3.643   0.936
 5970SOL     OW18361   4.593   2.831   0.855
 5970SOL    HW118362   4.643   2.758   0.893
 5970SOL    HW218363   4.556   2.877   0.931
 5971SOL     OW18364   4.800   2.833   0.085
 5971SOL    HW118365   4.790   2.899   0.017
 5971SOL    HW218366   4.882   2.789   0.064
 5972SOL     OW18367   3.949   3.163   1.855
 5972SOL    HW118368   3.883   3.101   1.825
 5972SOL    HW218369   3.930   3.176   1.948
 5973SOL     OW18370   3.809   3.091   0.665
 5973SOL    HW118371   3.817   3.045   0.749
 5973SOL    HW218372   3.881   3.057   0.612
 5974SOL     OW18373   4.406   3.266   1.630
 5974SOL    HW118374   4.326   3.224   1.662
 5974SOL    HW218375   4.403   3.355   1.666
 5975SOL     OW18376   4.147   2.298   0.524
 5975SOL    HW118377   4.182   2.227   0.470
 5975SOL    HW218378   4.102   2.254   0.596
 5976SOL     OW18379   0.091   3.383   1.101
 5976SOL    HW118380   0.026   3.362   1.034
 5976SOL    HW218381   0.093   3.305   1.158
 5977SOL     OW18382   4.056   2.419   1.292
 5977SOL    HW118383   4.111   2.363   1.348
 5977SOL    HW218384   4.075   2.390   1.203
 5978SOL     OW18385   4.553   3.440   0.676
 5978SOL    HW118386   4.538   3.498   0.602
 5978SOL    HW218387   4.477   3.382   0.677
 5979SOL     OW18388   5.146   2.081   1.115
 5979SOL    HW118389   5.190   2.016   1.170
 5979SOL    HW218390   5.099   2.137   1.177
 5980SOL     OW18391   4.729   1.879   1.140
 5980SOL    HW118392   4.676   1.811   1.097
 5980SOL    HW218393   4.816   1.841   1.145
 5981SOL     OW18394   4.496   3.189   0.310
 5981SOL    HW118395   4.466   3.100   0.326
 5981SOL    HW218396   4.577   3.197   0.360
 5982SOL     OW18397   4.343   3.417   1.286
 5982SOL    HW118398   4.345   3.500   1.334
 5982SOL    HW218399   4.431   3.410   1.249
 5983SOL     OW18400   5.048   1.921   0.190
 5983SOL    HW118401   5.088   1.874   0.117
 5983SOL    HW218402   4.968   1.872   0.210
 5984SOL     OW18403   5.027   2.324   0.682
 5984SOL    HW118404   4.973   2.403   0.686
 5984SOL    HW218405   5.014   2.282   0.767
 5985SOL     OW18406   5.299   2.091   0.879
 5985SOL    HW118407   5.239   2.071   0.951
 5985SOL    HW218408   5.268   2.174   0.844
 5986SOL     OW18409   3.767   2.926   0.305
 5986SOL    HW118410   3.863   2.926   0.310
 5986SOL    HW218411   3.742   2.842   0.343
 5987SOL     OW18412   4.604   3.516   0.351
 5987SOL    HW118413   4.536   3.502   0.284
 5987SOL    HW218414   4.574   3.593   0.399
 5988SOL     OW18415   3.951   2.485   1.988
 5988SOL    HW118416   3.862   2.483   2.022
 5988SOL    HW218417   3.942   2.461   1.895
 5989SOL     OW18418   3.949   2.144   2.854
 5989SOL    HW118419   3.977   2.109   2.939
 5989SOL    HW218420   3.859   2.113   2.844
 5990SOL     OW18421   3.726   2.246   2.500
 5990SOL    HW118422   3.644   2.273   2.541
 5990SOL    HW218423   3.704   2.167   2.451
 5991SOL     OW18424   4.292   3.154   3.041
 5991SOL    HW118425   4.204   3.158   3.001
 5991SOL    HW218426   4.307   3.243   3.073
 5992SOL     OW18427   5.289   3.397   2.567
 5992SOL    HW118428   5.248   3.357   2.644
 5992SOL    HW218429   5.222   3.391   2.499
 5993SOL     OW18430   4.861   2.561   2.559
 5993SOL    HW118431   4.911   2.641   2.550
 5993SOL    HW218432   4.812   2.572   2.641
 5994SOL     OW18433   4.475   3.002   2.906
 5994SOL    HW118434   4.408   3.038   2.963
 5994SOL    HW218435   4.512   3.079   2.861
 5995SOL     OW18436   4.596   2.630   3.686
 5995SOL    HW118437   4.578   2.701   3.747
 5995SOL    HW218438   4.617   2.675   3.603
 5996SOL     OW18439   4.410   2.862   2.507
 5996SOL    HW118440   4.475   2.852   2.577
 5996SOL    HW218441   4.341   2.915   2.547
 5997SOL     OW18442   4.437   3.012   3.678
 5997SOL    HW118443   4.484   3.090   3.707
 5997SOL    HW218444   4.356   3.046   3.640
 5998SOL     OW18445   4.055   3.284   2.929
 5998SOL    HW118446   3.981   3.246   2.881
 5998SOL    HW218447   4.102   3.335   2.864
 5999SOL     OW18448   5.160   3.342   3.219
 5999SOL    HW118449   5.213   3.418   3.242
 5999SOL    HW218450   5.097   3.334   3.290
 6000SOL     OW18451   4.174   2.258   3.345
 6000SOL    HW118452   4.249   2.199   3.352
 6000SOL    HW218453   4.098   2.203   3.361
 6001SOL     OW18454   3.943   3.577   2.332
 6001SOL    HW118455   3.964   3.652   2.387
 6001SOL    HW218456   4.018   3.569   2.273
 6002SOL     OW18457   4.859   3.203   3.557
 6002SOL    HW118458   4.898   3.198   3.644
 6002SOL    HW218459   4.807   3.122   3.549
 6003SOL     OW18460   3.955   3.305   2.398
 6003SOL    HW118461   3.937   3.399   2.400
 6003SOL    HW218462   3.895   3.268   2.463
 6004SOL     OW18463   3.986   2.953   2.754
 6004SOL    HW118464   3.981   2.866   2.793
 6004SOL    HW218465   3.927   3.006   2.807
 6005SOL     OW18466   4.329   3.655   3.287
 6005SOL    HW118467   4.249   3.637   3.336
 6005SOL    HW218468   4.354   3.743   3.314
 6006SOL     OW18469   4.307   2.845   1.999
 6006SOL    HW118470   4.354   2.892   1.930
 6006SOL    HW218471   4.346   2.876   2.080
 6007SOL     OW18472   3.840   2.516   2.422
 6007SOL    HW118473   3.811   2.428   2.443
 6007SOL    HW218474   3.832   2.565   2.504
 6008SOL     OW18475   3.759   3.455   1.985
 6008SOL    HW118476   3.741   3.363   2.005
 6008SOL    HW218477   3.734   3.503   2.064
 6009SOL     OW18478   0.112   2.800   2.437
 6009SOL    HW118479   0.200   2.764   2.444
 6009SOL    HW218480   0.125   2.891   2.408
 6010SOL     OW18481   3.844   2.605   3.448
 6010SOL    HW118482   3.935   2.635   3.452
 6010SOL    HW218483   3.792   2.685   3.453
 6011SOL     OW18484   4.338   3.250   2.597
 6011SOL    HW118485   4.293   3.166   2.606
 6011SOL    HW218486   4.322   3.277   2.507
 6012SOL     OW18487   5.002   3.095   3.286
 6012SOL    HW118488   5.036   3.029   3.226
 6012SOL    HW218489   5.059   3.090   3.363
 6013SOL     OW18490   4.541   1.864   2.373
 6013SOL    HW118491   4.581   1.948   2.351
 6013SOL    HW218492   4.447   1.884   2.381
 6014SOL     OW18493   3.912   2.827   3.138
 6014SOL    HW118494   3.995   2.783   3.120
 6014SOL    HW218495   3.847   2.776   3.089
 6015SOL     OW18496   4.894   3.671   3.487
 6015SOL    HW118497   4.914   3.732   3.416
 6015SOL    HW218498   4.919   3.585   3.453
 6016SOL     OW18499   4.061   2.111   3.681
 6016SOL    HW118500   4.102   2.196   3.698
 6016SOL    HW218501   3.969   2.123   3.707
 6017SOL     OW18502   5.166   3.299   2.794
 6017SOL    HW118503   5.106   3.306   2.868
 6017SOL    HW218504   5.160   3.208   2.767
 6018SOL     OW18505   4.319   2.581   2.130
 6018SOL    HW118506   4.323   2.664   2.082
 6018SOL    HW218507   4.254   2.596   2.199
 6019SOL     OW18508   4.994   2.199   2.779
 6019SOL    HW118509   4.906   2.170   2.801
 6019SOL    HW218510   5.049   2.165   2.850
 6020SOL     OW18511   4.514   2.480   3.311
 6020SOL    HW118512   4.488   2.455   3.400
 6020SOL    HW218513   4.477   2.412   3.255
 6021SOL     OW18514   5.114   2.344   3.543
 6021SOL    HW118515   5.117   2.380   3.632
 6021SOL    HW218516   5.192   2.289   3.537
 6022SOL     OW18517   4.675   2.749   3.446
 6022SOL    HW118518   4.728   2.678   3.409
 6022SOL    HW218519   4.627   2.784   3.372
 6023SOL     OW18520   4.715   2.274   3.098
 6023SOL    HW118521   4.627   2.292   3.131
 6023SOL    HW218522   4.701   2.229   3.015
 6024SOL     OW18523   4.776   2.560   2.287
 6024SOL    HW118524   4.793   2.554   2.381
 6024SOL    HW218525   4.693   2.514   2.275
 6025SOL     OW18526   3.812   2.684   2.638
 6025SOL    HW118527   3.892   2.677   2.690
 6025SOL    HW218528   3.768   2.761   2.674
 6026SOL     OW18529   3.849   3.721   3.442
 6026SOL    HW118530   3.852   3.698   3.535
 6026SOL    HW218531   3.760   3.699   3.415
 6027SOL     OW18532   4.621   2.211   2.056
 6027SOL    HW118533   4.659   2.273   1.994
 6027SOL    HW218534   4.634   2.125   2.016
 6028SOL     OW18535   5.095   3.012   2.412
 6028SOL    HW118536   5.184   3.017   2.378
 6028SOL    HW218537   5.043   3.069   2.355
 6029SOL     OW18538   4.275   2.041   2.757
 6029SOL    HW118539   4.277   2.071   2.848
 6029SOL    HW218540   4.275   2.122   2.705
 6030SOL     OW18541   4.727   3.304   2.333
 6030SOL    HW118542   4.691   3.378   2.283
 6030SOL    HW218543   4.707   3.325   2.424
 6031SOL     OW18544   4.078   3.673   2.728
 6031SOL    HW118545   4.122   3.589   2.735
 6031SOL    HW218546   4.147   3.738   2.746
 6032SOL     OW18547   4.939   3.401   3.379
 6032SOL    HW118548   4.926   3.330   3.442
 6032SOL    HW218549   4.875   3.385   3.310
 6033SOL     OW18550   4.042   2.821   2.114
 6033SOL    HW118551   4.124   2.840   2.069
 6033SOL    HW218552   4.012   2.738   2.076
 6034SOL     OW18553   4.192   3.128   3.600
 6034SOL    HW118554   4.165   3.132   3.508
 6034SOL    HW218555   4.109   3.125   3.649
 6035SOL     OW18556   4.830   3.636   2.100
 6035SOL    HW118557   4.757   3.593   2.143
 6035SOL    HW218558   4.856   3.576   2.029
 6036SOL     OW18559   3.925   2.141   3.366
 6036SOL    HW118560   3.843   2.190   3.363
 6036SOL    HW218561   3.905   2.063   3.418
 6037SOL     OW18562   4.189   3.598   2.182
 6037SOL    HW118563   4.232   3.655   2.245
 6037SOL    HW218564   4.259   3.566   2.126
 6038SOL     OW18565   5.117   1.969   2.286
 6038SOL    HW118566   5.099   1.950   2.194
 6038SOL    HW218567   5.212   1.986   2.288
 6039SOL     OW18568   3.979   3.653   3.092
 6039SOL    HW118569   4.031   3.585   3.137
 6039SOL    HW218570   3.972   3.621   3.002
 6040SOL     OW18571   4.662   3.560   2.759
 6040SOL    HW118572   4.743   3.512   2.777
 6040SOL    HW218573   4.619   3.511   2.690
 6041SOL     OW18574   4.119   2.557   2.336
 6041SOL    HW118575   4.137   2.464   2.349
 6041SOL    HW218576   4.025   2.565   2.353
 6042SOL     OW18577   4.364   1.982   1.965
 6042SOL    HW118578   4.429   1.913   1.980
 6042SOL    HW218579   4.312   1.952   1.891
 6043SOL     OW18580   4.488   2.142   3.618
 6043SOL    HW118581   4.567   2.087   3.616
 6043SOL    HW218582   4.441   2.113   3.696
 6044SOL     OW18583   4.599   3.384   3.056
 6044SOL    HW118584   4.583   3.348   2.969
 6044SOL    HW218585   4.669   3.331   3.092
 6045SOL     OW18586   5.057   2.454   3.294
 6045SOL    HW118587   5.088   2.423   3.379
 6045SOL    HW218588   5.100   2.539   3.282
 6046SOL     OW18589   4.540   3.254   2.805
 6046SOL    HW118590   4.625   3.242   2.762
 6046SOL    HW218591   4.477   3.259   2.733
 6047SOL     OW18592   4.652   2.371   2.764
 6047SOL    HW118593   4.628   2.362   2.671
 6047SOL    HW218594   4.682   2.284   2.789
 6048SOL     OW18595   4.274   1.925   2.361
 6048SOL    HW118596   4.194   1.925   2.413
 6048SOL    HW218597   4.267   2.003   2.306
 6049SOL     OW18598   5.133   3.044   1.906
 6049SOL    HW118599   5.138   2.964   1.958
 6049SOL    HW218600   5.047   3.080   1.926
 6050SOL     OW18601   4.015   1.910   2.047
 6050SOL    HW118602   4.073   1.974   2.007
 6050SOL    HW218603   4.073   1.847   2.089
 6051SOL     OW18604   4.663   2.110   2.319
 6051SOL    HW118605   4.637   2.149   2.236
 6051SOL    HW218606   4.758   2.124   2.324
 6052SOL     OW18607   4.801   2.545   3.322
 6052SOL    HW118608   4.735   2.476   3.323
 6052SOL    HW218609   4.884   2.498   3.313
 6053SOL     OW18610   4.938   3.433   2.656
 6053SOL    HW118611   4.959   3.500   2.591
 6053SOL    HW218612   5.020   3.418   2.702
 6054SOL     OW18613   4.195   3.013   2.592
 6054SOL    HW118614   4.127   2.993   2.657
 6054SOL    HW218615   4.152   2.998   2.508
 6055SOL     OW18616   4.993   3.656   2.469
 6055SOL    HW118617   5.035   3.717   2.408
 6055SOL    HW218618   4.926   3.708   2.512
 6056SOL     OW18619   4.747   2.402   1.886
 6056SOL    HW118620   4.702   2.484   1.866
 6056SOL    HW218621   4.808   2.424   1.956
 6057SOL     OW18622   3.805   2.416   3.254
 6057SOL    HW118623   3.897   2.415   3.228
 6057SOL    HW218624   3.800   2.486   3.319
 6058SOL     OW18625   4.282   2.089   3.030
 6058SOL    HW118626   4.324   2.015   3.073
 6058SOL    HW218627   4.191   2.085   3.059
 6059SOL     OW18628   4.592   2.321   2.501
 6059SOL    HW118629   4.546   2.376   2.437
 6059SOL    HW218630   4.613   2.241   2.452
 6060SOL     OW18631   4.740   1.916   2.612
 6060SOL    HW118632   4.681   1.909   2.536
 6060SOL    HW218633   4.717   1.840   2.666
 6061SOL     OW18634   5.155   3.039   2.713
 6061SOL    HW118635   5.101   2.962   2.727
 6061SOL    HW218636   5.167   3.042   2.618
 6062SOL     OW18637   4.214   3.282   2.016
 6062SOL    HW118638   4.138   3.254   2.068
 6062SOL    HW218639   4.204   3.236   1.932
 6063SOL     OW18640   5.129   2.422   1.944
 6063SOL    HW118641   5.054   2.413   2.003
 6063SOL    HW218642   5.202   2.385   1.993
 6064SOL     OW18643   4.249   2.124   2.177
 6064SOL    HW118644   4.297   2.079   2.108
 6064SOL    HW218645   4.225   2.208   2.138
 6065SOL     OW18646   4.778   3.217   3.195
 6065SOL    HW118647   4.702   3.185   3.245
 6065SOL    HW218648   4.853   3.173   3.235
 6066SOL     OW18649   0.007   3.468   3.476
 6066SOL    HW118650   0.042   3.470   3.387
 6066SOL    HW218651   0.082   3.446   3.531
 6067SOL     OW18652   4.856   3.068   2.967
 6067SOL    HW118653   4.793   3.102   3.030
 6067SOL    HW218654   4.824   3.098   2.882
 6068SOL     OW18655   4.642   1.958   3.257
 6068SOL    HW118656   4.664   1.940   3.165
 6068SOL    HW218657   4.721   1.997   3.293
 6069SOL     OW18658   4.709   2.975   3.588
 6069SOL    HW118659   4.617   2.993   3.610
 6069SOL    HW218660   4.705   2.898   3.531
 6070SOL     OW18661   4.433   2.924   2.233
 6070SOL    HW118662   4.419   2.905   2.326
 6070SOL    HW218663   4.509   2.870   2.209
 6071SOL     OW18664   4.143   2.678   3.113
 6071SOL    HW118665   4.211   2.688   3.180
 6071SOL    HW218666   4.109   2.590   3.127
 6072SOL     OW18667   4.987   2.236   3.141
 6072SOL    HW118668   5.022   2.316   3.181
 6072SOL    HW218669   4.897   2.259   3.117
 6073SOL     OW18670   3.797   3.436   3.218
 6073SOL    HW118671   3.768   3.508   3.161
 6073SOL    HW218672   3.892   3.437   3.211
 6074SOL     OW18673   4.068   2.975   2.352
 6074SOL    HW118674   4.073   3.049   2.291
 6074SOL    HW218675   4.066   2.897   2.295
 6075SOL     OW18676   4.274   2.396   2.721
 6075SOL    HW118677   4.289   2.455   2.647
 6075SOL    HW218678   4.340   2.422   2.786
 6076SOL     OW18679   4.971   3.212   2.248
 6076SOL    HW118680   5.026   3.285   2.279
 6076SOL    HW218681   4.884   3.232   2.282
 6077SOL     OW18682   4.998   3.319   3.003
 6077SOL    HW118683   5.052   3.320   3.082
 6077SOL    HW218684   4.943   3.241   3.012
 6078SOL     OW18685   4.070   3.391   3.175
 6078SOL    HW118686   4.058   3.347   3.090
 6078SOL    HW218687   4.165   3.402   3.183
 6079SOL     OW18688   4.139   2.607   3.464
 6079SOL    HW118689   4.202   2.651   3.406
 6079SOL    HW218690   4.177   2.521   3.480
 6080SOL     OW18691   4.718   1.992   3.617
 6080SOL    HW118692   4.777   2.063   3.593
 6080SOL    HW218693   4.764   1.912   3.591
 6081SOL     OW18694   4.221   1.901   3.611
 6081SOL    HW118695   4.176   1.847   3.546
 6081SOL    HW218696   4.163   1.976   3.624
 6082SOL     OW18697   4.308   2.735   2.894
 6082SOL    HW118698   4.339   2.826   2.895
 6082SOL    HW218699   4.251   2.729   2.970
 6083SOL     OW18700   5.086   2.717   2.897
 6083SOL    HW118701   5.009   2.695   2.845
 6083SOL    HW218702   5.143   2.641   2.890
 6084SOL     OW18703   4.924   2.393   2.124
 6084SOL    HW118704   4.932   2.313   2.177
 6084SOL    HW218705   4.882   2.456   2.182
 6085SOL     OW18706   4.021   2.059   3.109
 6085SOL    HW118707   3.984   2.092   3.191
 6085SOL    HW218708   4.002   1.965   3.110
 6086SOL     OW18709   3.775   3.174   3.136
 6086SOL    HW118710   3.806   3.118   3.208
 6086SOL    HW218711   3.778   3.263   3.172
 6087SOL     OW18712   4.446   2.492   2.917
 6087SOL    HW118713   4.522   2.478   2.861
 6087SOL    HW218714   4.417   2.581   2.898
 6088SOL     OW18715   4.029   1.925   2.486
 6088SOL    HW118716   4.008   2.016   2.507
 6088SOL    HW218717   4.037   1.881   2.570
 6089SOL     OW18718   0.033   2.262   2.218
 6089SOL    HW118719   0.049   2.184   2.272
 6089SOL    HW218720   0.026   2.333   2.281
 6090SOL     OW18721   4.751   2.620   2.820
 6090SOL    HW118722   4.747   2.638   2.914
 6090SOL    HW218723   4.726   2.528   2.812
 6091SOL     OW18724   4.696   3.423   3.577
 6091SOL    HW118725   4.685   3.470   3.495
 6091SOL    HW218726   4.744   3.344   3.554
 6092SOL     OW18727   4.079   2.778   3.671
 6092SOL    HW118728   4.160   2.797   3.717
 6092SOL    HW218729   4.103   2.715   3.604
 6093SOL     OW18730   5.028   2.690   1.899
 6093SOL    HW118731   5.065   2.602   1.902
 6093SOL    HW218732   5.056   2.725   1.814
 6094SOL     OW18733   4.790   3.197   2.719
 6094SOL    HW118734   4.795   3.125   2.655
 6094SOL    HW218735   4.846   3.265   2.682
 6095SOL     OW18736   4.032   2.671   2.808
 6095SOL    HW118737   4.125   2.692   2.802
 6095SOL    HW218738   4.030   2.581   2.840
 6096SOL     OW18739   4.053   2.390   2.875
 6096SOL    HW118740   4.018   2.302   2.861
 6096SOL    HW218741   4.130   2.395   2.818
 6097SOL     OW18742   4.856   2.237   3.545
 6097SOL    HW118743   4.807   2.291   3.607
 6097SOL    HW218744   4.943   2.277   3.540
 6098SOL     OW18745   4.885   2.062   3.332
 6098SOL    HW118746   4.873   2.124   3.404
 6098SOL    HW218747   4.925   2.114   3.262
 6099SOL     OW18748   3.730   3.181   2.057
 6099SOL    HW118749   3.643   3.197   2.019
 6099SOL    HW218750   3.726   3.092   2.091
 6100SOL     OW18751   3.814   3.647   2.801
 6100SOL    HW118752   3.784   3.568   2.756
 6100SOL    HW218753   3.904   3.660   2.770
 6101SOL     OW18754   4.218   3.436   2.767
 6101SOL    HW118755   4.287   3.499   2.791
 6101SOL    HW218756   4.262   3.373   2.710
 6102SOL     OW18757   4.702   2.652   3.087
 6102SOL    HW118758   4.760   2.631   3.160
 6102SOL    HW218759   4.618   2.614   3.111
 6103SOL     OW18760   3.762   2.408   2.977
 6103SOL    HW118761   3.844   2.399   2.928
 6103SOL    HW218762   3.790   2.411   3.069
 6104SOL     OW18763   3.917   2.382   3.591
 6104SOL    HW118764   3.971   2.340   3.524
 6104SOL    HW218765   3.878   2.457   3.546
 6105SOL     OW18766   5.115   2.797   3.528
 6105SOL    HW118767   5.123   2.891   3.515
 6105SOL    HW218768   5.119   2.760   3.440
 6106SOL     OW18769   4.541   2.432   2.224
 6106SOL    HW118770   4.545   2.357   2.165
 6106SOL    HW218771   4.467   2.484   2.193
 6107SOL     OW18772   3.964   3.412   3.587
 6107SOL    HW118773   3.942   3.476   3.655
 6107SOL    HW218774   3.969   3.329   3.634
 6108SOL     OW18775   4.431   2.310   3.118
 6108SOL    HW118776   4.375   2.237   3.090
 6108SOL    HW218777   4.425   2.373   3.047
 6109SOL     OW18778   4.642   3.542   3.331
 6109SOL    HW118779   4.620   3.507   3.245
 6109SOL    HW218780   4.642   3.637   3.320
 6110SOL     OW18781   4.186   2.354   2.047
 6110SOL    HW118782   4.245   2.426   2.070
 6110SOL    HW218783   4.101   2.396   2.034
 6111SOL     OW18784   3.868   3.003   3.337
 6111SOL    HW118785   3.872   2.954   3.419
 6111SOL    HW218786   3.885   2.939   3.269
 6112SOL     OW18787   5.052   2.909   3.085
 6112SOL    HW118788   5.072   2.844   3.018
 6112SOL    HW218789   4.982   2.962   3.046
 6113SOL     OW18790   5.037   2.723   2.178
 6113SOL    HW118791   4.956   2.689   2.216
 6113SOL    HW218792   5.025   2.714   2.084
 6114SOL     OW18793   4.958   3.593   2.981
 6114SOL    HW118794   5.044   3.617   2.947
 6114SOL    HW218795   4.962   3.498   2.991
 6115SOL     OW18796   3.808   3.129   2.872
 6115SOL    HW118797   3.795   3.143   2.966
 6115SOL    HW218798   3.735   3.074   2.845
 6116SOL     OW18799   4.401   3.529   3.595
 6116SOL    HW118800   4.347   3.607   3.586
 6116SOL    HW218801   4.472   3.542   3.532
 6117SOL     OW18802   0.075   2.026   2.396
 6117SOL    HW118803   0.156   2.007   2.348
 6117SOL    HW218804   0.062   1.948   2.451
 6118SOL     OW18805   5.111   3.433   2.346
 6118SOL    HW118806   5.181   3.476   2.297
 6118SOL    HW218807   5.059   3.505   2.380
 6119SOL     OW18808   3.862   3.659   3.705
 6119SOL    HW118809   3.812   3.593   3.752
 6119SOL    HW218810   3.909   3.707   3.773
 6120SOL     OW18811   5.018   2.782   2.532
 6120SOL    HW118812   5.097   2.729   2.520
 6120SOL    HW218813   5.037   2.863   2.485
 6121SOL     OW18814   4.533   3.136   3.290
 6121SOL    HW118815   4.505   3.176   3.372
 6121SOL    HW218816   4.464   3.159   3.227
 6122SOL     OW18817   4.394   3.485   2.017
 6122SOL    HW118818   4.406   3.498   1.923
 6122SOL    HW218819   4.338   3.407   2.023
 6123SOL     OW18820   3.984   2.176   2.578
 6123SOL    HW118821   3.898   2.212   2.555
 6123SOL    HW218822   3.982   2.170   2.673
 6124SOL     OW18823   4.906   3.470   1.905
 6124SOL    HW118824   4.919   3.375   1.915
 6124SOL    HW218825   4.851   3.479   1.828
 6125SOL     OW18826   4.547   2.868   3.236
 6125SOL    HW118827   4.591   2.863   3.150
 6125SOL    HW218828   4.545   2.962   3.256
 6126SOL     OW18829   4.641   2.773   2.152
 6126SOL    HW118830   4.702   2.805   2.086
 6126SOL    HW218831   4.688   2.703   2.198
 6127SOL     OW18832   4.093   3.166   3.354
 6127SOL    HW118833   4.080   3.243   3.298
 6127SOL    HW218834   4.016   3.111   3.338
 6128SOL     OW18835   4.780   2.970   2.570
 6128SOL    HW118836   4.708   2.920   2.610
 6128SOL    HW218837   4.838   2.904   2.534
 6129SOL     OW18838   4.739   2.101   2.831
 6129SOL    HW118839   4.737   2.054   2.747
 6129SOL    HW218840   4.735   2.032   2.897
 6130SOL     OW18841   4.328   3.350   2.343
 6130SOL    HW118842   4.375   3.300   2.276
 6130SOL    HW218843   4.256   3.392   2.295
 6131SOL     OW18844   3.984   3.205   2.152
 6131SOL    HW118845   3.892   3.203   2.129
 6131SOL    HW218846   3.986   3.243   2.240
 6132SOL     OW18847   3.842   2.889   3.587
 6132SOL    HW118848   3.768   2.853   3.635
 6132SOL    HW218849   3.919   2.849   3.629
 6133SOL     OW18850   4.399   2.058   3.362
 6133SOL    HW118851   4.484   2.037   3.321
 6133SOL    HW218852   4.422   2.090   3.449
 6134SOL     OW18853   3.803   2.193   1.896
 6134SOL    HW118854   3.717   2.174   1.860
 6134SOL    HW218855   3.833   2.269   1.846
 6135SOL     OW18856   5.163   2.721   3.265
 6135SOL    HW118857   5.112   2.780   3.209
 6135SOL    HW218858   5.252   2.728   3.231
 6136SOL     OW18859   3.789   2.017   2.168
 6136SOL    HW118860   3.776   2.097   2.117
 6136SOL    HW218861   3.875   1.984   2.140
 6137SOL     OW18862   4.905   3.189   1.976
 6137SOL    HW118863   4.811   3.170   1.977
 6137SOL    HW218864   4.929   3.196   2.068
 6138SOL     OW18865   4.343   2.693   3.296
 6138SOL    HW118866   4.400   2.768   3.281
 6138SOL    HW218867   4.403   2.619   3.304
 6139SOL     OW18868   4.442   2.423   3.564
 6139SOL    HW118869   4.485   2.483   3.625
 6139SOL    HW218870   4.463   2.336   3.597
 6140SOL     OW18871   5.180   3.064   3.493
 6140SOL    HW118872   5.171   3.077   3.588
 6140SOL    HW218873   5.273   3.074   3.476
 6141SOL     OW18874   4.100   3.602   3.427
 6141SOL    HW118875   4.016   3.645   3.412
 6141SOL    HW218876   4.076   3.519   3.469
 6142SOL     OW18877   4.938   2.182   2.317
 6142SOL    HW118878   4.999   2.110   2.305
 6142SOL    HW218879   4.968   2.227   2.396
 6143SOL     OW18880   4.313   2.597   2.533
 6143SOL    HW118881   4.352   2.684   2.519
 6143SOL    HW218882   4.247   2.590   2.464
 6144SOL     OW18883   4.591   3.227   1.901
 6144SOL    HW118884   4.551   3.258   1.982
 6144SOL    HW218885   4.606   3.307   1.850
 6145SOL     OW18886   4.385   3.650   2.803
 6145SOL    HW118887   4.367   3.742   2.782
 6145SOL    HW218888   4.481   3.643   2.797
 6146SOL     OW18889   4.593   2.831   2.717
 6146SOL    HW118890   4.642   2.759   2.755
 6146SOL    HW218891   4.556   2.877   2.792
 6147SOL     OW18892   4.807   2.849   1.952
 6147SOL    HW118893   4.782   2.898   1.874
 6147SOL    HW218894   4.881   2.795   1.925
 6148SOL     OW18895   3.949   3.163   3.716
 6148SOL    HW118896   3.886   3.098   3.684
 6148SOL    HW218897   3.925   3.176   3.808
 6149SOL     OW18898   3.808   3.093   2.527
 6149SOL    HW118899   3.816   3.047   2.611
 6149SOL    HW218900   3.877   3.055   2.472
 6150SOL     OW18901   4.407   3.266   3.493
 6150SOL    HW118902   4.326   3.224   3.524
 6150SOL    HW218903   4.403   3.355   3.528
 6151SOL     OW18904   4.153   2.296   2.388
 6151SOL    HW118905   4.183   2.225   2.331
 6151SOL    HW218906   4.104   2.251   2.457
 6152SOL     OW18907   0.093   3.380   2.962
 6152SOL    HW118908   0.026   3.361   2.897
 6152SOL    HW218909   0.093   3.305   3.021
 6153SOL     OW18910   4.057   2.419   3.155
 6153SOL    HW118911   4.111   2.363   3.209
 6153SOL    HW218912   4.075   2.390   3.065
 6154SOL     OW18913   4.554   3.440   2.538
 6154SOL    HW118914   4.538   3.499   2.465
 6154SOL    HW218915   4.477   3.382   2.539
 6155SOL     OW18916   5.145   2.081   2.977
 6155SOL    HW118917   5.191   2.017   3.032
 6155SOL    HW218918   5.098   2.136   3.040
 6156SOL     OW18919   4.729   1.879   3.002
 6156SOL    HW118920   4.676   1.812   2.959
 6156SOL    HW218921   4.816   1.841   3.007
 6157SOL     OW18922   4.495   3.195   2.180
 6157SOL    HW118923   4.467   3.104   2.187
 6157SOL    HW218924   4.578   3.198   2.229
 6158SOL     OW18925   4.344   3.417   3.148
 6158SOL    HW118926   4.345   3.500   3.196
 6158SOL    HW218927   4.431   3.410   3.111
 6159SOL     OW18928   5.055   1.907   2.029
 6159SOL    HW118929   5.075   1.866   1.944
 6159SOL    HW218930   4.970   1.870   2.053
 6160SOL     OW18931   5.026   2.320   2.541
 6160SOL    HW118932   4.973   2.400   2.545
 6160SOL    HW218933   5.014   2.279   2.627
 6161SOL     OW18934   0.002   2.089   2.745
 6161SOL    HW118935   5.237   2.076   2.815
 6161SOL    HW218936   5.271   2.167   2.699
 6162SOL     OW18937   3.766   2.931   2.169
 6162SOL    HW118938   3.860   2.923   2.152
 6162SOL    HW218939   3.739   2.841   2.191
 6163SOL     OW18940   4.604   3.514   2.207
 6163SOL    HW118941   4.533   3.500   2.145
 6163SOL    HW218942   4.577   3.590   2.258
 6164SOL     OW18943   3.952   2.485   3.849
 6164SOL    HW118944   3.863   2.481   3.883
 6164SOL    HW218945   3.943   2.460   3.757
 6165SOL     OW18946   3.947   2.146   4.717
 6165SOL    HW118947   3.976   2.110   4.801
 6165SOL    HW218948   3.858   2.113   4.706
 6166SOL     OW18949   3.734   2.243   4.358
 6166SOL    HW118950   3.655   2.271   4.405
 6166SOL    HW218951   3.708   2.165   4.311
 6167SOL     OW18952   4.291   3.154   4.903
 6167SOL    HW118953   4.205   3.159   4.862
 6167SOL    HW218954   4.308   3.243   4.935
 6168SOL     OW18955   5.289   3.397   4.430
 6168SOL    HW118956   5.248   3.357   4.506
 6168SOL    HW218957   5.222   3.391   4.361
 6169SOL     OW18958   4.861   2.561   4.421
 6169SOL    HW118959   4.911   2.641   4.412
 6169SOL    HW218960   4.812   2.572   4.503
 6170SOL     OW18961   4.475   3.002   4.768
 6170SOL    HW118962   4.407   3.038   4.825
 6170SOL    HW218963   4.512   3.078   4.723
 6171SOL     OW18964   4.596   2.630   5.547
 6171SOL    HW118965   4.579   2.701   5.609
 6171SOL    HW218966   4.617   2.674   5.465
 6172SOL     OW18967   4.410   2.862   4.369
 6172SOL    HW118968   4.475   2.852   4.439
 6172SOL    HW218969   4.341   2.915   4.408
 6173SOL     OW18970   4.437   3.012   5.540
 6173SOL    HW118971   4.484   3.090   5.569
 6173SOL    HW218972   4.356   3.046   5.502
 6174SOL     OW18973   4.054   3.284   4.791
 6174SOL    HW118974   3.982   3.246   4.742
 6174SOL    HW218975   4.103   3.335   4.727
 6175SOL     OW18976   5.160   3.342   5.081
 6175SOL    HW118977   5.213   3.418   5.103
 6175SOL    HW218978   5.097   3.334   5.152
 6176SOL     OW18979   4.174   2.259   5.208
 6176SOL    HW118980   4.249   2.200   5.214
 6176SOL    HW218981   4.098   2.203   5.223
 6177SOL     OW18982   3.943   3.577   4.194
 6177SOL    HW118983   3.964   3.653   4.249
 6177SOL    HW218984   4.017   3.569   4.135
 6178SOL     OW18985   4.859   3.203   5.419
 6178SOL    HW118986   4.898   3.198   5.506
 6178SOL    HW218987   4.807   3.123   5.411
 6179SOL     OW18988   3.957   3.305   4.261
 6179SOL    HW118989   3.937   3.399   4.262
 6179SOL    HW218990   3.896   3.268   4.324
 6180SOL     OW18991   3.988   2.952   4.617
 6180SOL    HW118992   3.983   2.865   4.655
 6180SOL    HW218993   3.929   3.006   4.670
 6181SOL     OW18994   4.328   3.656   5.148
 6181SOL    HW118995   4.249   3.637   5.198
 6181SOL    HW218996   4.354   3.743   5.176
 6182SOL     OW18997   4.307   2.845   3.860
 6182SOL    HW118998   4.354   2.892   3.792
 6182SOL    HW218999   4.346   2.876   3.942
 6183SOL     OW19000   3.840   2.515   4.282
 6183SOL    HW119001   3.812   2.426   4.304
 6183SOL    HW219002   3.832   2.563   4.365
 6184SOL     OW19003   3.760   3.456   3.846
 6184SOL    HW119004   3.741   3.364   3.866
 6184SOL    HW219005   3.735   3.503   3.926
 6185SOL     OW19006   0.112   2.800   4.300
 6185SOL    HW119007   0.201   2.764   4.306
 6185SOL    HW219008   0.125   2.890   4.270
 6186SOL     OW19009   3.849   2.606   5.309
 6186SOL    HW119010   3.941   2.632   5.313
 6186SOL    HW219011   3.801   2.688   5.319
 6187SOL     OW19012   4.338   3.250   4.459
 6187SOL    HW119013   4.293   3.166   4.468
 6187SOL    HW219014   4.322   3.277   4.369
 6188SOL     OW19015   5.002   3.095   5.148
 6188SOL    HW119016   5.036   3.029   5.088
 6188SOL    HW219017   5.059   3.090   5.225
 6189SOL     OW19018   4.541   1.864   4.235
 6189SOL    HW119019   4.581   1.948   4.213
 6189SOL    HW219020   4.447   1.884   4.243
 6190SOL     OW19021   3.912   2.825   4.996
 6190SOL    HW119022   3.999   2.787   4.984
 6190SOL    HW219023   3.855   2.769   4.943
 6191SOL     OW19024   4.894   3.671   5.349
 6191SOL    HW119025   4.914   3.732   5.278
 6191SOL    HW219026   4.919   3.585   5.315
 6192SOL     OW19027   4.061   2.111   5.543
 6192SOL    HW119028   4.103   2.196   5.560
 6192SOL    HW219029   3.970   2.124   5.570
 6193SOL     OW19030   5.166   3.299   4.656
 6193SOL    HW119031   5.105   3.306   4.730
 6193SOL    HW219032   5.160   3.208   4.629
 6194SOL     OW19033   4.319   2.582   3.992
 6194SOL    HW119034   4.323   2.664   3.944
 6194SOL    HW219035   4.254   2.596   4.061
 6195SOL     OW19036   4.994   2.199   4.642
 6195SOL    HW119037   4.906   2.170   4.663
 6195SOL    HW219038   5.049   2.165   4.712
 6196SOL     OW19039   4.513   2.480   5.173
 6196SOL    HW119040   4.488   2.455   5.262
 6196SOL    HW219041   4.477   2.412   5.117
 6197SOL     OW19042   5.114   2.344   5.405
 6197SOL    HW119043   5.117   2.380   5.494
 6197SOL    HW219044   5.192   2.289   5.399
 6198SOL     OW19045   4.675   2.749   5.308
 6198SOL    HW119046   4.728   2.678   5.271
 6198SOL    HW219047   4.627   2.784   5.234
 6199SOL     OW19048   4.715   2.274   4.960
 6199SOL    HW119049   4.627   2.292   4.993
 6199SOL    HW219050   4.701   2.229   4.877
 6200SOL     OW19051   4.776   2.560   4.149
 6200SOL    HW119052   4.793   2.554   4.243
 6200SOL    HW219053   4.693   2.514   4.136
 6201SOL     OW19054   3.817   2.680   4.500
 6201SOL    HW119055   3.896   2.675   4.553
 6201SOL    HW219056   3.771   2.758   4.531
 6202SOL     OW19057   3.849   3.718   5.304
 6202SOL    HW119058   3.852   3.696   5.397
 6202SOL    HW219059   3.758   3.701   5.278
 6203SOL     OW19060   4.621   2.211   3.919
 6203SOL    HW119061   4.659   2.273   3.857
 6203SOL    HW219062   4.633   2.125   3.877
 6204SOL     OW19063   5.094   3.012   4.274
 6204SOL    HW119064   5.183   3.017   4.239
 6204SOL    HW219065   5.043   3.069   4.217
 6205SOL     OW19066   4.275   2.041   4.619
 6205SOL    HW119067   4.277   2.072   4.709
 6205SOL    HW219068   4.274   2.121   4.566
 6206SOL     OW19069   4.727   3.304   4.195
 6206SOL    HW119070   4.691   3.378   4.145
 6206SOL    HW219071   4.707   3.325   4.286
 6207SOL     OW19072   4.078   3.674   4.591
 6207SOL    HW119073   4.123   3.589   4.597
 6207SOL    HW219074   4.147   3.738   4.608
 6208SOL     OW19075   4.939   3.402   5.242
 6208SOL    HW119076   4.926   3.330   5.304
 6208SOL    HW219077   4.876   3.384   5.172
 6209SOL     OW19078   4.042   2.820   3.976
 6209SOL    HW119079   4.124   2.840   3.930
 6209SOL    HW219080   4.012   2.738   3.938
 6210SOL     OW19081   4.192   3.128   5.462
 6210SOL    HW119082   4.165   3.132   5.370
 6210SOL    HW219083   4.109   3.126   5.511
 6211SOL     OW19084   4.830   3.636   3.962
 6211SOL    HW119085   4.757   3.593   4.005
 6211SOL    HW219086   4.856   3.576   3.892
 6212SOL     OW19087   3.926   2.139   5.227
 6212SOL    HW119088   3.844   2.189   5.225
 6212SOL    HW219089   3.905   2.060   5.277
 6213SOL     OW19090   4.189   3.598   4.044
 6213SOL    HW119091   4.232   3.655   4.107
 6213SOL    HW219092   4.259   3.566   3.988
 6214SOL     OW19093   5.118   1.969   4.148
 6214SOL    HW119094   5.099   1.950   4.056
 6214SOL    HW219095   5.212   1.986   4.150
 6215SOL     OW19096   3.978   3.652   4.955
 6215SOL    HW119097   4.031   3.586   4.999
 6215SOL    HW219098   3.972   3.622   4.864
 6216SOL     OW19099   4.663   3.560   4.622
 6216SOL    HW119100   4.744   3.512   4.638
 6216SOL    HW219101   4.619   3.510   4.552
 6217SOL     OW19102   4.119   2.557   4.199
 6217SOL    HW119103   4.138   2.464   4.211
 6217SOL    HW219104   4.025   2.565   4.216
 6218SOL     OW19105   4.364   1.983   3.827
 6218SOL    HW119106   4.429   1.913   3.842
 6218SOL    HW219107   4.312   1.952   3.753
 6219SOL     OW19108   4.488   2.142   5.480
 6219SOL    HW119109   4.567   2.087   5.478
 6219SOL    HW219110   4.441   2.113   5.558
 6220SOL     OW19111   4.598   3.384   4.918
 6220SOL    HW119112   4.583   3.348   4.831
 6220SOL    HW219113   4.669   3.331   4.954
 6221SOL     OW19114   5.057   2.454   5.156
 6221SOL    HW119115   5.088   2.423   5.241
 6221SOL    HW219116   5.100   2.539   5.144
 6222SOL     OW19117   4.540   3.254   4.667
 6222SOL    HW119118   4.624   3.242   4.624
 6222SOL    HW219119   4.477   3.259   4.595
 6223SOL     OW19120   4.652   2.371   4.626
 6223SOL    HW119121   4.628   2.362   4.533
 6223SOL    HW219122   4.682   2.284   4.651
 6224SOL     OW19123   4.275   1.925   4.223
 6224SOL    HW119124   4.194   1.925   4.275
 6224SOL    HW219125   4.267   2.003   4.168
 6225SOL     OW19126   5.133   3.044   3.768
 6225SOL    HW119127   5.138   2.963   3.820
 6225SOL    HW219128   5.047   3.080   3.788
 6226SOL     OW19129   4.015   1.910   3.909
 6226SOL    HW119130   4.073   1.974   3.868
 6226SOL    HW219131   4.074   1.848   3.951
 6227SOL     OW19132   4.663   2.110   4.181
 6227SOL    HW119133   4.637   2.149   4.098
 6227SOL    HW219134   4.758   2.124   4.186
 6228SOL     OW19135   4.801   2.545   5.184
 6228SOL    HW119136   4.735   2.475   5.185
 6228SOL    HW219137   4.884   2.499   5.175
 6229SOL     OW19138   4.938   3.433   4.518
 6229SOL    HW119139   4.959   3.501   4.453
 6229SOL    HW219140   5.020   3.418   4.564
 6230SOL     OW19141   4.195   3.013   4.454
 6230SOL    HW119142   4.127   2.993   4.518
 6230SOL    HW219143   4.153   2.998   4.369
 6231SOL     OW19144   4.993   3.656   4.331
 6231SOL    HW119145   5.036   3.716   4.270
 6231SOL    HW219146   4.926   3.708   4.374
 6232SOL     OW19147   4.747   2.402   3.748
 6232SOL    HW119148   4.702   2.484   3.728
 6232SOL    HW219149   4.808   2.424   3.818
 6233SOL     OW19150   3.806   2.415   5.119
 6233SOL    HW119151   3.898   2.414   5.091
 6233SOL    HW219152   3.801   2.485   5.183
 6234SOL     OW19153   4.282   2.090   4.892
 6234SOL    HW119154   4.324   2.014   4.934
 6234SOL    HW219155   4.191   2.085   4.921
 6235SOL     OW19156   4.592   2.321   4.362
 6235SOL    HW119157   4.546   2.376   4.299
 6235SOL    HW219158   4.613   2.241   4.314
 6236SOL     OW19159   4.740   1.916   4.474
 6236SOL    HW119160   4.681   1.910   4.398
 6236SOL    HW219161   4.717   1.840   4.528
 6237SOL     OW19162   5.155   3.039   4.575
 6237SOL    HW119163   5.101   2.961   4.589
 6237SOL    HW219164   5.167   3.042   4.480
 6238SOL     OW19165   4.214   3.282   3.877
 6238SOL    HW119166   4.139   3.253   3.930
 6238SOL    HW219167   4.203   3.236   3.794
 6239SOL     OW19168   5.129   2.422   3.806
 6239SOL    HW119169   5.054   2.413   3.865
 6239SOL    HW219170   5.202   2.385   3.855
 6240SOL     OW19171   4.250   2.124   4.039
 6240SOL    HW119172   4.297   2.079   3.969
 6240SOL    HW219173   4.225   2.208   4.000
 6241SOL     OW19174   4.778   3.217   5.057
 6241SOL    HW119175   4.702   3.185   5.107
 6241SOL    HW219176   4.853   3.173   5.097
 6242SOL     OW19177   0.007   3.468   5.338
 6242SOL    HW119178   0.042   3.470   5.249
 6242SOL    HW219179   0.082   3.446   5.393
 6243SOL     OW19180   4.856   3.069   4.829
 6243SOL    HW119181   4.793   3.102   4.892
 6243SOL    HW219182   4.824   3.098   4.744
 6244SOL     OW19183   4.642   1.958   5.119
 6244SOL    HW119184   4.663   1.940   5.027
 6244SOL    HW219185   4.721   1.997   5.155
 6245SOL     OW19186   4.709   2.975   5.450
 6245SOL    HW119187   4.617   2.993   5.472
 6245SOL    HW219188   4.705   2.898   5.393
 6246SOL     OW19189   4.433   2.924   4.095
 6246SOL    HW119190   4.419   2.905   4.187
 6246SOL    HW219191   4.509   2.870   4.071
 6247SOL     OW19192   4.144   2.679   4.977
 6247SOL    HW119193   4.213   2.688   5.043
 6247SOL    HW219194   4.110   2.591   4.989
 6248SOL     OW19195   4.987   2.236   5.003
 6248SOL    HW119196   5.022   2.316   5.043
 6248SOL    HW219197   4.897   2.259   4.979
 6249SOL     OW19198   3.797   3.433   5.076
 6249SOL    HW119199   3.770   3.509   5.024
 6249SOL    HW219200   3.893   3.434   5.072
 6250SOL     OW19201   4.069   2.975   4.213
 6250SOL    HW119202   4.072   3.049   4.152
 6250SOL    HW219203   4.066   2.898   4.157
 6251SOL     OW19204   4.274   2.397   4.584
 6251SOL    HW119205   4.289   2.455   4.509
 6251SOL    HW219206   4.341   2.422   4.647
 6252SOL     OW19207   4.971   3.212   4.110
 6252SOL    HW119208   5.026   3.284   4.141
 6252SOL    HW219209   4.884   3.232   4.144
 6253SOL     OW19210   4.998   3.319   4.865
 6253SOL    HW119211   5.052   3.320   4.944
 6253SOL    HW219212   4.944   3.241   4.873
 6254SOL     OW19213   4.070   3.390   5.037
 6254SOL    HW119214   4.059   3.347   4.952
 6254SOL    HW219215   4.165   3.402   5.045
 6255SOL     OW19216   4.139   2.607   5.326
 6255SOL    HW119217   4.202   2.650   5.269
 6255SOL    HW219218   4.178   2.520   5.342
 6256SOL     OW19219   4.718   1.992   5.479
 6256SOL    HW119220   4.777   2.063   5.455
 6256SOL    HW219221   4.764   1.912   5.453
 6257SOL     OW19222   4.221   1.900   5.473
 6257SOL    HW119223   4.176   1.847   5.408
 6257SOL    HW219224   4.163   1.976   5.486
 6258SOL     OW19225   4.309   2.735   4.756
 6258SOL    HW119226   4.340   2.826   4.756
 6258SOL    HW219227   4.252   2.730   4.833
 6259SOL     OW19228   5.086   2.717   4.760
 6259SOL    HW119229   5.009   2.695   4.707
 6259SOL    HW219230   5.144   2.641   4.752
 6260SOL     OW19231   4.924   2.393   3.986
 6260SOL    HW119232   4.932   2.313   4.038
 6260SOL    HW219233   4.882   2.456   4.044
 6261SOL     OW19234   4.021   2.059   4.971
 6261SOL    HW119235   3.984   2.091   5.053
 6261SOL    HW219236   4.003   1.965   4.971
 6262SOL     OW19237   3.756   3.172   5.001
 6262SOL    HW119238   3.796   3.117   5.069
 6262SOL    HW219239   3.771   3.261   5.031
 6263SOL     OW19240   4.446   2.492   4.780
 6263SOL    HW119241   4.522   2.478   4.723
 6263SOL    HW219242   4.418   2.581   4.760
 6264SOL     OW19243   4.030   1.925   4.348
 6264SOL    HW119244   4.008   2.015   4.369
 6264SOL    HW219245   4.037   1.881   4.432
 6265SOL     OW19246   0.033   2.262   4.080
 6265SOL    HW119247   0.049   2.184   4.134
 6265SOL    HW219248   0.025   2.333   4.144
 6266SOL     OW19249   4.751   2.620   4.682
 6266SOL    HW119250   4.747   2.638   4.776
 6266SOL    HW219251   4.726   2.528   4.674
 6267SOL     OW19252   4.695   3.423   5.439
 6267SOL    HW119253   4.685   3.470   5.357
 6267SOL    HW219254   4.744   3.344   5.416
 6268SOL     OW19255   4.077   2.779   5.533
 6268SOL    HW119256   4.158   2.798   5.579
 6268SOL    HW219257   4.102   2.716   5.465
 6269SOL     OW19258   5.028   2.690   3.761
 6269SOL    HW119259   5.065   2.602   3.764
 6269SOL    HW219260   5.056   2.725   3.676
 6270SOL     OW19261   4.790   3.197   4.581
 6270SOL    HW119262   4.795   3.125   4.518
 6270SOL    HW219263   4.846   3.265   4.544
 6271SOL     OW19264   4.033   2.671   4.673
 6271SOL    HW119265   4.126   2.692   4.665
 6271SOL    HW219266   4.030   2.580   4.703
 6272SOL     OW19267   4.054   2.390   4.737
 6272SOL    HW119268   4.018   2.303   4.723
 6272SOL    HW219269   4.131   2.395   4.680
 6273SOL     OW19270   4.856   2.237   5.407
 6273SOL    HW119271   4.808   2.291   5.469
 6273SOL    HW219272   4.943   2.277   5.402
 6274SOL     OW19273   4.885   2.062   5.194
 6274SOL    HW119274   4.873   2.124   5.266
 6274SOL    HW219275   4.925   2.114   5.124
 6275SOL     OW19276   3.734   3.181   3.919
 6275SOL    HW119277   3.647   3.198   3.884
 6275SOL    HW219278   3.729   3.092   3.954
 6276SOL     OW19279   3.814   3.647   4.664
 6276SOL    HW119280   3.784   3.569   4.619
 6276SOL    HW219281   3.904   3.661   4.633
 6277SOL     OW19282   4.219   3.436   4.630
 6277SOL    HW119283   4.287   3.498   4.653
 6277SOL    HW219284   4.262   3.374   4.572
 6278SOL     OW19285   4.702   2.652   4.949
 6278SOL    HW119286   4.759   2.631   5.022
 6278SOL    HW219287   4.618   2.613   4.972
 6279SOL     OW19288   3.761   2.411   4.842
 6279SOL    HW119289   3.838   2.397   4.787
 6279SOL    HW219290   3.794   2.408   4.932
 6280SOL     OW19291   3.916   2.383   5.453
 6280SOL    HW119292   3.970   2.340   5.387
 6280SOL    HW219293   3.877   2.458   5.408
 6281SOL     OW19294   5.115   2.797   5.390
 6281SOL    HW119295   5.123   2.891   5.377
 6281SOL    HW219296   5.119   2.760   5.302
 6282SOL     OW19297   4.541   2.432   4.086
 6282SOL    HW119298   4.545   2.357   4.027
 6282SOL    HW219299   4.466   2.484   4.055
 6283SOL     OW19300   3.964   3.412   5.449
 6283SOL    HW119301   3.943   3.477   5.516
 6283SOL    HW219302   3.969   3.329   5.497
 6284SOL     OW19303   4.430   2.310   4.980
 6284SOL    HW119304   4.375   2.237   4.952
 6284SOL    HW219305   4.425   2.373   4.909
 6285SOL     OW19306   4.641   3.542   5.194
 6285SOL    HW119307   4.620   3.507   5.107
 6285SOL    HW219308   4.642   3.637   5.182
 6286SOL     OW19309   4.186   2.354   3.909
 6286SOL    HW119310   4.245   2.426   3.932
 6286SOL    HW219311   4.101   2.396   3.896
 6287SOL     OW19312   3.867   3.003   5.195
 6287SOL    HW119313   3.870   2.954   5.277
 6287SOL    HW219314   3.885   2.937   5.127
 6288SOL     OW19315   5.052   2.909   4.947
 6288SOL    HW119316   5.072   2.844   4.880
 6288SOL    HW219317   4.982   2.962   4.908
 6289SOL     OW19318   5.037   2.723   4.040
 6289SOL    HW119319   4.956   2.689   4.078
 6289SOL    HW219320   5.025   2.714   3.946
 6290SOL     OW19321   4.958   3.593   4.843
 6290SOL    HW119322   5.044   3.617   4.809
 6290SOL    HW219323   4.962   3.498   4.853
 6291SOL     OW19324   3.810   3.130   4.736
 6291SOL    HW119325   3.789   3.141   4.829
 6291SOL    HW219326   3.741   3.072   4.702
 6292SOL     OW19327   4.401   3.529   5.457
 6292SOL    HW119328   4.348   3.608   5.448
 6292SOL    HW219329   4.473   3.542   5.395
 6293SOL     OW19330   0.075   2.026   4.258
 6293SOL    HW119331   0.155   2.007   4.209
 6293SOL    HW219332   0.062   1.948   4.313
 6294SOL     OW19333   5.111   3.433   4.208
 6294SOL    HW119334   5.181   3.475   4.158
 6294SOL    HW219335   5.059   3.505   4.242
 6295SOL     OW19336   3.862   3.658   5.567
 6295SOL    HW119337   3.811   3.592   5.615
 6295SOL    HW219338   3.909   3.706   5.635
 6296SOL     OW19339   5.018   2.782   4.394
 6296SOL    HW119340   5.097   2.729   4.382
 6296SOL    HW219341   5.037   2.863   4.347
 6297SOL     OW19342   4.534   3.136   5.152
 6297SOL    HW119343   4.505   3.176   5.234
 6297SOL    HW219344   4.465   3.159   5.089
 6298SOL     OW19345   4.394   3.485   3.879
 6298SOL    HW119346   4.406   3.498   3.785
 6298SOL    HW219347   4.338   3.407   3.885
 6299SOL     OW19348   3.987   2.176   4.440
 6299SOL    HW119349   3.901   2.210   4.414
 6299SOL    HW219350   3.982   2.170   4.536
 6300SOL     OW19351   4.906   3.470   3.767
 6300SOL    HW119352   4.918   3.375   3.777
 6300SOL    HW219353   4.851   3.479   3.690
 6301SOL     OW19354   4.547   2.868   5.098
 6301SOL    HW119355   4.591   2.862   5.013
 6301SOL    HW219356   4.545   2.962   5.117
 6302SOL     OW19357   4.641   2.773   4.015
 6302SOL    HW119358   4.702   2.805   3.948
 6302SOL    HW219359   4.689   2.703   4.060
 6303SOL     OW19360   4.091   3.166   5.217
 6303SOL    HW119361   4.080   3.242   5.160
 6303SOL    HW219362   4.015   3.111   5.199
 6304SOL     OW19363   4.780   2.970   4.432
 6304SOL    HW119364   4.708   2.920   4.472
 6304SOL    HW219365   4.838   2.904   4.396
 6305SOL     OW19366   4.739   2.101   4.693
 6305SOL    HW119367   4.737   2.055   4.609
 6305SOL    HW219368   4.735   2.032   4.759
 6306SOL     OW19369   4.328   3.350   4.205
 6306SOL    HW119370   4.375   3.300   4.139
 6306SOL    HW219371   4.256   3.392   4.158
 6307SOL     OW19372   3.987   3.205   4.016
 6307SOL    HW119373   3.895   3.202   3.991
 6307SOL    HW219374   3.988   3.244   4.104
 6308SOL     OW19375   3.837   2.887   5.443
 6308SOL    HW119376   3.761   2.863   5.496
 6308SOL    HW219377   3.912   2.848   5.489
 6309SOL     OW19378   4.399   2.058   5.224
 6309SOL    HW119379   4.483   2.037   5.183
 6309SOL    HW219380   4.422   2.091   5.311
 6310SOL     OW19381   3.803   2.193   3.758
 6310SOL    HW119382   3.714   2.174   3.727
 6310SOL    HW219383   3.830   2.268   3.706
 6311SOL     OW19384   5.163   2.722   5.127
 6311SOL    HW119385   5.112   2.780   5.071
 6311SOL    HW219386   5.252   2.728   5.092
 6312SOL     OW19387   3.790   2.017   4.031
 6312SOL    HW119388   3.775   2.096   3.979
 6312SOL    HW219389   3.875   1.984   4.001
 6313SOL     OW19390   4.905   3.189   3.837
 6313SOL    HW119391   4.811   3.171   3.838
 6313SOL    HW219392   4.929   3.196   3.930
 6314SOL     OW19393   4.344   2.693   5.159
 6314SOL    HW119394   4.401   2.768   5.143
 6314SOL    HW219395   4.403   2.619   5.166
 6315SOL     OW19396   4.441   2.423   5.426
 6315SOL    HW119397   4.485   2.484   5.487
 6315SOL    HW219398   4.463   2.336   5.460
 6316SOL     OW19399   5.180   3.064   5.355
 6316SOL    HW119400   5.171   3.077   5.450
 6316SOL    HW219401   5.273   3.074   5.338
 6317SOL     OW19402   4.100   3.601   5.289
 6317SOL    HW119403   4.016   3.644   5.274
 6317SOL    HW219404   4.077   3.518   5.331
 6318SOL     OW19405   4.938   2.182   4.179
 6318SOL    HW119406   4.999   2.110   4.167
 6318SOL    HW219407   4.968   2.227   4.258
 6319SOL     OW19408   4.313   2.598   4.395
 6319SOL    HW119409   4.352   2.684   4.380
 6319SOL    HW219410   4.246   2.590   4.327
 6320SOL     OW19411   4.592   3.227   3.763
 6320SOL    HW119412   4.551   3.258   3.844
 6320SOL    HW219413   4.606   3.307   3.712
 6321SOL     OW19414   4.385   3.650   4.665
 6321SOL    HW119415   4.367   3.741   4.644
 6321SOL    HW219416   4.481   3.643   4.659
 6322SOL     OW19417   4.593   2.831   4.579
 6322SOL    HW119418   4.642   2.759   4.617
 6322SOL    HW219419   4.556   2.877   4.654
 6323SOL     OW19420   4.807   2.849   3.815
 6323SOL    HW119421   4.782   2.898   3.736
 6323SOL    HW219422   4.881   2.795   3.787
 6324SOL     OW19423   3.950   3.164   5.580
 6324SOL    HW119424   3.883   3.102   5.550
 6324SOL    HW219425   3.932   3.176   5.673
 6325SOL     OW19426   3.808   3.096   4.388
 6325SOL    HW119427   3.812   3.045   4.469
 6325SOL    HW219428   3.875   3.057   4.332
 6326SOL     OW19429   4.406   3.266   5.354
 6326SOL    HW119430   4.326   3.225   5.387
 6326SOL    HW219431   4.404   3.355   5.390
 6327SOL     OW19432   4.154   2.296   4.250
 6327SOL    HW119433   4.184   2.225   4.193
 6327SOL    HW219434   4.105   2.252   4.319
 6328SOL     OW19435   0.093   3.381   4.824
 6328SOL    HW119436   0.026   3.361   4.759
 6328SOL    HW219437   0.093   3.305   4.882
 6329SOL     OW19438   4.056   2.420   5.016
 6329SOL    HW119439   4.112   2.364   5.071
 6329SOL    HW219440   4.074   2.391   4.927
 6330SOL     OW19441   4.554   3.440   4.400
 6330SOL    HW119442   4.538   3.499   4.327
 6330SOL    HW219443   4.477   3.382   4.400
 6331SOL     OW19444   5.145   2.081   4.839
 6331SOL    HW119445   5.191   2.017   4.894
 6331SOL    HW219446   5.098   2.136   4.902
 6332SOL     OW19447   4.729   1.879   4.864
 6332SOL    HW119448   4.676   1.812   4.821
 6332SOL    HW219449   4.816   1.841   4.869
 6333SOL     OW19450   4.495   3.195   4.043
 6333SOL    HW119451   4.466   3.104   4.049
 6333SOL    HW219452   4.578   3.198   4.091
 6334SOL     OW19453   4.344   3.417   5.010
 6334SOL    HW119454   4.345   3.500   5.058
 6334SOL    HW219455   4.431   3.410   4.973
 6335SOL     OW19456   5.055   1.907   3.891
 6335SOL    HW119457   5.075   1.866   3.806
 6335SOL    HW219458   4.970   1.870   3.915
 6336SOL     OW19459   5.026   2.320   4.403
 6336SOL    HW119460   4.973   2.400   4.407
 6336SOL    HW219461   5.014   2.280   4.489
 6337SOL     OW19462   0.002   2.089   4.607
 6337SOL    HW119463   5.237   2.076   4.677
 6337SOL    HW219464   5.271   2.167   4.561
 6338SOL     OW19465   3.772   2.931   4.029
 6338SOL    HW119466   3.865   2.919   4.012
 6338SOL    HW219467   3.741   2.843   4.053
 6339SOL     OW19468   4.604   3.514   4.069
 6339SOL    HW119469   4.533   3.500   4.007
 6339SOL    HW219470   4.577   3.591   4.120
 6340SOL     OW19471   3.951   2.486   5.711
 6340SOL    HW119472   3.862   2.482   5.746
 6340SOL    HW219473   3.942   2.461   5.619
 6341SOL     OW19474   3.949   2.145   6.578
 6341SOL    HW119475   3.977   2.110   6.663
 6341SOL    HW219476   3.859   2.112   6.568
 6342SOL     OW19477   3.726   2.246   6.224
 6342SOL    HW119478   3.644   2.272   6.266
 6342SOL    HW219479   3.704   2.167   6.175
 6343SOL     OW19480   4.291   3.154   6.765
 6343SOL    HW119481   4.204   3.159   6.725
 6343SOL    HW219482   4.307   3.243   6.797
 6344SOL     OW19483   5.289   3.397   6.292
 6344SOL    HW119484   5.248   3.357   6.368
 6344SOL    HW219485   5.222   3.391   6.223
 6345SOL     OW19486   4.861   2.561   6.283
 6345SOL    HW119487   4.911   2.641   6.274
 6345SOL    HW219488   4.812   2.572   6.365
 6346SOL     OW19489   4.475   3.002   6.630
 6346SOL    HW119490   4.407   3.038   6.687
 6346SOL    HW219491   4.512   3.078   6.585
 6347SOL     OW19492   4.595   2.632   7.407
 6347SOL    HW119493   4.572   2.706   7.463
 6347SOL    HW219494   4.619   2.672   7.323
 6348SOL     OW19495   4.410   2.862   6.231
 6348SOL    HW119496   4.475   2.852   6.301
 6348SOL    HW219497   4.341   2.915   6.271
 6349SOL     OW19498   4.437   3.013   7.401
 6349SOL    HW119499   4.484   3.091   7.430
 6349SOL    HW219500   4.356   3.047   7.363
 6350SOL     OW19501   4.055   3.284   6.653
 6350SOL    HW119502   3.981   3.246   6.605
 6350SOL    HW219503   4.103   3.335   6.588
 6351SOL     OW19504   5.160   3.342   6.943
 6351SOL    HW119505   5.212   3.418   6.966
 6351SOL    HW219506   5.096   3.333   7.013
 6352SOL     OW19507   4.175   2.259   7.070
 6352SOL    HW119508   4.250   2.200   7.077
 6352SOL    HW219509   4.098   2.203   7.085
 6353SOL     OW19510   3.943   3.577   6.056
 6353SOL    HW119511   3.964   3.652   6.111
 6353SOL    HW219512   4.018   3.569   5.997
 6354SOL     OW19513   4.858   3.202   7.278
 6354SOL    HW119514   4.898   3.199   7.365
 6354SOL    HW219515   4.807   3.121   7.272
 6355SOL     OW19516   3.955   3.304   6.121
 6355SOL    HW119517   3.938   3.399   6.123
 6355SOL    HW219518   3.895   3.268   6.187
 6356SOL     OW19519   3.985   2.953   6.477
 6356SOL    HW119520   3.981   2.865   6.517
 6356SOL    HW219521   3.927   3.006   6.531
 6357SOL     OW19522   4.328   3.656   7.010
 6357SOL    HW119523   4.249   3.637   7.060
 6357SOL    HW219524   4.354   3.743   7.038
 6358SOL     OW19525   4.306   2.845   5.723
 6358SOL    HW119526   4.354   2.892   5.654
 6358SOL    HW219527   4.345   2.876   5.804
 6359SOL     OW19528   3.840   2.516   6.146
 6359SOL    HW119529   3.811   2.428   6.167
 6359SOL    HW219530   3.832   2.565   6.228
 6360SOL     OW19531   3.758   3.455   5.708
 6360SOL    HW119532   3.741   3.363   5.729
 6360SOL    HW219533   3.734   3.503   5.788
 6361SOL     OW19534   0.112   2.800   6.161
 6361SOL    HW119535   0.200   2.763   6.168
 6361SOL    HW219536   0.126   2.890   6.132
 6362SOL     OW19537   3.847   2.605   7.171
 6362SOL    HW119538   3.938   2.634   7.175
 6362SOL    HW219539   3.796   2.686   7.177
 6363SOL     OW19540   4.338   3.250   6.321
 6363SOL    HW119541   4.293   3.166   6.330
 6363SOL    HW219542   4.322   3.277   6.231
 6364SOL     OW19543   5.002   3.095   7.009
 6364SOL    HW119544   5.036   3.029   6.949
 6364SOL    HW219545   5.059   3.090   7.086
 6365SOL     OW19546   4.541   1.864   6.097
 6365SOL    HW119547   4.581   1.948   6.075
 6365SOL    HW219548   4.447   1.884   6.105
 6366SOL     OW19549   3.913   2.826   6.861
 6366SOL    HW119550   3.998   2.785   6.845
 6366SOL    HW219551   3.852   2.774   6.809
 6367SOL     OW19552   4.895   3.671   7.210
 6367SOL    HW119553   4.914   3.731   7.138
 6367SOL    HW219554   4.920   3.585   7.177
 6368SOL     OW19555   4.060   2.109   7.406
 6368SOL    HW119556   4.102   2.195   7.419
 6368SOL    HW219557   3.969   2.123   7.432
 6369SOL     OW19558   5.166   3.299   6.518
 6369SOL    HW119559   5.106   3.306   6.592
 6369SOL    HW219560   5.160   3.208   6.491
 6370SOL     OW19561   4.319   2.581   5.854
 6370SOL    HW119562   4.323   2.664   5.806
 6370SOL    HW219563   4.254   2.596   5.923
 6371SOL     OW19564   4.994   2.199   6.504
 6371SOL    HW119565   4.906   2.170   6.525
 6371SOL    HW219566   5.049   2.165   6.574
 6372SOL     OW19567   4.513   2.480   7.035
 6372SOL    HW119568   4.488   2.455   7.124
 6372SOL    HW219569   4.477   2.412   6.979
 6373SOL     OW19570   5.114   2.345   7.267
 6373SOL    HW119571   5.117   2.380   7.356
 6373SOL    HW219572   5.193   2.291   7.260
 6374SOL     OW19573   4.676   2.749   7.170
 6374SOL    HW119574   4.729   2.679   7.132
 6374SOL    HW219575   4.627   2.785   7.095
 6375SOL     OW19576   4.715   2.274   6.822
 6375SOL    HW119577   4.627   2.292   6.855
 6375SOL    HW219578   4.701   2.229   6.739
 6376SOL     OW19579   4.776   2.560   6.011
 6376SOL    HW119580   4.793   2.554   6.105
 6376SOL    HW219581   4.693   2.514   5.999
 6377SOL     OW19582   3.812   2.684   6.363
 6377SOL    HW119583   3.892   2.677   6.414
 6377SOL    HW219584   3.768   2.762   6.398
 6378SOL     OW19585   3.849   3.721   7.167
 6378SOL    HW119586   3.852   3.698   7.260
 6378SOL    HW219587   3.761   3.698   7.139
 6379SOL     OW19588   4.621   2.211   5.780
 6379SOL    HW119589   4.659   2.273   5.718
 6379SOL    HW219590   4.633   2.125   5.740
 6380SOL     OW19591   5.094   3.012   6.136
 6380SOL    HW119592   5.183   3.017   6.101
 6380SOL    HW219593   5.043   3.069   6.079
 6381SOL     OW19594   4.275   2.041   6.481
 6381SOL    HW119595   4.277   2.071   6.572
 6381SOL    HW219596   4.275   2.122   6.429
 6382SOL     OW19597   4.727   3.304   6.057
 6382SOL    HW119598   4.691   3.378   6.007
 6382SOL    HW219599   4.707   3.325   6.148
 6383SOL     OW19600   4.078   3.673   6.452
 6383SOL    HW119601   4.122   3.589   6.459
 6383SOL    HW219602   4.147   3.738   6.471
 6384SOL     OW19603   4.939   3.401   7.103
 6384SOL    HW119604   4.926   3.330   7.165
 6384SOL    HW219605   4.874   3.385   7.034
 6385SOL     OW19606   4.042   2.821   5.838
 6385SOL    HW119607   4.124   2.840   5.793
 6385SOL    HW219608   4.012   2.738   5.800
 6386SOL     OW19609   4.191   3.126   7.324
 6386SOL    HW119610   4.164   3.131   7.232
 6386SOL    HW219611   4.109   3.124   7.372
 6387SOL     OW19612   4.830   3.636   5.824
 6387SOL    HW119613   4.757   3.593   5.867
 6387SOL    HW219614   4.856   3.576   5.753
 6388SOL     OW19615   3.926   2.140   7.089
 6388SOL    HW119616   3.844   2.189   7.086
 6388SOL    HW219617   3.904   2.061   7.140
 6389SOL     OW19618   4.189   3.598   5.906
 6389SOL    HW119619   4.232   3.655   5.969
 6389SOL    HW219620   4.259   3.566   5.850
 6390SOL     OW19621   5.118   1.969   6.010
 6390SOL    HW119622   5.099   1.950   5.918
 6390SOL    HW219623   5.212   1.986   6.012
 6391SOL     OW19624   3.979   3.653   6.817
 6391SOL    HW119625   4.031   3.585   6.861
 6391SOL    HW219626   3.972   3.621   6.727
 6392SOL     OW19627   4.662   3.560   6.483
 6392SOL    HW119628   4.743   3.512   6.501
 6392SOL    HW219629   4.619   3.511   6.414
 6393SOL     OW19630   4.119   2.557   6.060
 6393SOL    HW119631   4.137   2.464   6.073
 6393SOL    HW219632   4.025   2.565   6.077
 6394SOL     OW19633   4.364   1.982   5.689
 6394SOL    HW119634   4.429   1.913   5.704
 6394SOL    HW219635   4.312   1.952   5.615
 6395SOL     OW19636   4.487   2.141   7.342
 6395SOL    HW119637   4.566   2.086   7.340
 6395SOL    HW219638   4.444   2.118   7.425
 6396SOL     OW19639   4.599   3.384   6.780
 6396SOL    HW119640   4.583   3.348   6.692
 6396SOL    HW219641   4.669   3.331   6.816
 6397SOL     OW19642   5.057   2.454   7.018
 6397SOL    HW119643   5.088   2.424   7.103
 6397SOL    HW219644   5.100   2.539   7.006
 6398SOL     OW19645   4.540   3.254   6.529
 6398SOL    HW119646   4.625   3.242   6.486
 6398SOL    HW219647   4.477   3.259   6.457
 6399SOL     OW19648   4.652   2.371   6.488
 6399SOL    HW119649   4.628   2.362   6.395
 6399SOL    HW219650   4.682   2.284   6.513
 6400SOL     OW19651   4.274   1.925   6.085
 6400SOL    HW119652   4.194   1.925   6.137
 6400SOL    HW219653   4.267   2.003   6.030
 6401SOL     OW19654   5.133   3.044   5.630
 6401SOL    HW119655   5.138   2.964   5.682
 6401SOL    HW219656   5.047   3.080   5.650
 6402SOL     OW19657   4.015   1.910   5.771
 6402SOL    HW119658   4.073   1.973   5.730
 6402SOL    HW219659   4.073   1.847   5.813
 6403SOL     OW19660   4.663   2.110   6.043
 6403SOL    HW119661   4.637   2.149   5.960
 6403SOL    HW219662   4.758   2.124   6.048
 6404SOL     OW19663   4.801   2.545   7.045
 6404SOL    HW119664   4.735   2.475   7.047
 6404SOL    HW219665   4.884   2.499   7.037
 6405SOL     OW19666   4.938   3.433   6.380
 6405SOL    HW119667   4.959   3.500   6.315
 6405SOL    HW219668   5.021   3.418   6.426
 6406SOL     OW19669   4.194   3.013   6.316
 6406SOL    HW119670   4.126   2.993   6.381
 6406SOL    HW219671   4.152   2.998   6.232
 6407SOL     OW19672   4.993   3.656   6.193
 6407SOL    HW119673   5.035   3.716   6.132
 6407SOL    HW219674   4.926   3.708   6.236
 6408SOL     OW19675   4.747   2.402   5.610
 6408SOL    HW119676   4.702   2.484   5.590
 6408SOL    HW219677   4.808   2.424   5.680
 6409SOL     OW19678   3.805   2.416   6.978
 6409SOL    HW119679   3.897   2.415   6.952
 6409SOL    HW219680   3.800   2.486   7.044
 6410SOL     OW19681   4.282   2.089   6.754
 6410SOL    HW119682   4.324   2.015   6.797
 6410SOL    HW219683   4.191   2.085   6.783
 6411SOL     OW19684   4.592   2.321   6.224
 6411SOL    HW119685   4.546   2.376   6.161
 6411SOL    HW219686   4.613   2.241   6.176
 6412SOL     OW19687   4.740   1.916   6.336
 6412SOL    HW119688   4.681   1.909   6.260
 6412SOL    HW219689   4.717   1.840   6.390
 6413SOL     OW19690   5.155   3.039   6.437
 6413SOL    HW119691   5.101   2.961   6.451
 6413SOL    HW219692   5.167   3.042   6.342
 6414SOL     OW19693   4.214   3.282   5.740
 6414SOL    HW119694   4.138   3.254   5.791
 6414SOL    HW219695   4.204   3.236   5.656
 6415SOL     OW19696   5.129   2.422   5.668
 6415SOL    HW119697   5.054   2.413   5.728
 6415SOL    HW219698   5.202   2.385   5.717
 6416SOL     OW19699   4.250   2.125   5.901
 6416SOL    HW119700   4.297   2.079   5.832
 6416SOL    HW219701   4.225   2.208   5.862
 6417SOL     OW19702   4.777   3.217   6.919
 6417SOL    HW119703   4.702   3.185   6.969
 6417SOL    HW219704   4.853   3.174   6.959
 6418SOL     OW19705   0.007   3.469   7.199
 6418SOL    HW119706   0.042   3.470   7.110
 6418SOL    HW219707   0.082   3.447   7.254
 6419SOL     OW19708   4.856   3.068   6.691
 6419SOL    HW119709   4.793   3.102   6.754
 6419SOL    HW219710   4.823   3.098   6.606
 6420SOL     OW19711   4.641   1.958   6.980
 6420SOL    HW119712   4.664   1.940   6.889
 6420SOL    HW219713   4.721   1.997   7.017
 6421SOL     OW19714   4.709   2.973   7.315
 6421SOL    HW119715   4.618   2.993   7.334
 6421SOL    HW219716   4.706   2.897   7.257
 6422SOL     OW19717   4.433   2.924   5.957
 6422SOL    HW119718   4.419   2.905   6.050
 6422SOL    HW219719   4.509   2.870   5.933
 6423SOL     OW19720   4.144   2.678   6.837
 6423SOL    HW119721   4.212   2.688   6.904
 6423SOL    HW219722   4.109   2.590   6.851
 6424SOL     OW19723   4.987   2.237   6.864
 6424SOL    HW119724   5.022   2.316   6.905
 6424SOL    HW219725   4.897   2.259   6.841
 6425SOL     OW19726   3.797   3.436   6.941
 6425SOL    HW119727   3.768   3.508   6.885
 6425SOL    HW219728   3.892   3.436   6.934
 6426SOL     OW19729   4.068   2.975   6.076
 6426SOL    HW119730   4.074   3.049   6.015
 6426SOL    HW219731   4.065   2.897   6.019
 6427SOL     OW19732   4.274   2.397   6.445
 6427SOL    HW119733   4.289   2.455   6.371
 6427SOL    HW219734   4.340   2.422   6.509
 6428SOL     OW19735   4.971   3.212   5.972
 6428SOL    HW119736   5.026   3.285   6.003
 6428SOL    HW219737   4.884   3.232   6.006
 6429SOL     OW19738   4.998   3.319   6.727
 6429SOL    HW119739   5.052   3.320   6.806
 6429SOL    HW219740   4.943   3.241   6.736
 6430SOL     OW19741   4.070   3.391   6.899
 6430SOL    HW119742   4.058   3.347   6.814
 6430SOL    HW219743   4.165   3.402   6.907
 6431SOL     OW19744   4.140   2.608   7.188
 6431SOL    HW119745   4.202   2.651   7.131
 6431SOL    HW219746   4.177   2.521   7.203
 6432SOL     OW19747   4.718   1.992   7.340
 6432SOL    HW119748   4.777   2.063   7.316
 6432SOL    HW219749   4.765   1.912   7.315
 6433SOL     OW19750   4.222   1.900   7.335
 6433SOL    HW119751   4.177   1.846   7.270
 6433SOL    HW219752   4.165   1.975   7.348
 6434SOL     OW19753   4.308   2.735   6.618
 6434SOL    HW119754   4.339   2.826   6.619
 6434SOL    HW219755   4.251   2.729   6.695
 6435SOL     OW19756   5.086   2.717   6.621
 6435SOL    HW119757   5.009   2.695   6.569
 6435SOL    HW219758   5.143   2.641   6.614
 6436SOL     OW19759   4.924   2.393   5.848
 6436SOL    HW119760   4.932   2.313   5.900
 6436SOL    HW219761   4.882   2.456   5.906
 6437SOL     OW19762   4.021   2.059   6.833
 6437SOL    HW119763   3.984   2.091   6.915
 6437SOL    HW219764   4.003   1.965   6.834
 6438SOL     OW19765   3.772   3.173   6.861
 6438SOL    HW119766   3.803   3.118   6.932
 6438SOL    HW219767   3.777   3.262   6.896
 6439SOL     OW19768   4.446   2.492   6.641
 6439SOL    HW119769   4.522   2.478   6.585
 6439SOL    HW219770   4.418   2.581   6.621
 6440SOL     OW19771   4.029   1.925   6.210
 6440SOL    HW119772   4.008   2.016   6.231
 6440SOL    HW219773   4.037   1.881   6.294
 6441SOL     OW19774   0.033   2.262   5.943
 6441SOL    HW119775   0.049   2.184   5.996
 6441SOL    HW219776   0.026   2.333   6.006
 6442SOL     OW19777   4.751   2.620   6.544
 6442SOL    HW119778   4.747   2.638   6.638
 6442SOL    HW219779   4.726   2.528   6.536
 6443SOL     OW19780   4.697   3.423   7.301
 6443SOL    HW119781   4.686   3.471   7.219
 6443SOL    HW219782   4.744   3.344   7.277
 6444SOL     OW19783   4.077   2.776   7.397
 6444SOL    HW119784   4.160   2.797   7.439
 6444SOL    HW219785   4.101   2.714   7.328
 6445SOL     OW19786   5.028   2.690   5.623
 6445SOL    HW119787   5.065   2.602   5.626
 6445SOL    HW219788   5.056   2.725   5.538
 6446SOL     OW19789   4.790   3.197   6.443
 6446SOL    HW119790   4.795   3.125   6.379
 6446SOL    HW219791   4.846   3.265   6.406
 6447SOL     OW19792   4.032   2.671   6.532
 6447SOL    HW119793   4.125   2.692   6.526
 6447SOL    HW219794   4.030   2.580   6.564
 6448SOL     OW19795   4.053   2.390   6.599
 6448SOL    HW119796   4.018   2.302   6.585
 6448SOL    HW219797   4.130   2.395   6.542
 6449SOL     OW19798   4.857   2.237   7.267
 6449SOL    HW119799   4.808   2.292   7.329
 6449SOL    HW219800   4.944   2.277   7.263
 6450SOL     OW19801   4.885   2.062   7.055
 6450SOL    HW119802   4.873   2.124   7.127
 6450SOL    HW219803   4.925   2.114   6.985
 6451SOL     OW19804   3.729   3.182   5.781
 6451SOL    HW119805   3.642   3.197   5.743
 6451SOL    HW219806   3.725   3.092   5.815
 6452SOL     OW19807   3.814   3.647   6.525
 6452SOL    HW119808   3.784   3.568   6.480
 6452SOL    HW219809   3.903   3.660   6.494
 6453SOL     OW19810   4.218   3.436   6.491
 6453SOL    HW119811   4.287   3.499   6.515
 6453SOL    HW219812   4.262   3.373   6.434
 6454SOL     OW19813   4.702   2.652   6.811
 6454SOL    HW119814   4.760   2.631   6.884
 6454SOL    HW219815   4.618   2.614   6.835
 6455SOL     OW19816   3.760   2.408   6.703
 6455SOL    HW119817   3.840   2.397   6.652
 6455SOL    HW219818   3.789   2.410   6.794
 6456SOL     OW19819   3.917   2.382   7.315
 6456SOL    HW119820   3.969   2.340   7.247
 6456SOL    HW219821   3.877   2.457   7.271
 6457SOL     OW19822   5.113   2.796   7.253
 6457SOL    HW119823   5.121   2.891   7.240
 6457SOL    HW219824   5.118   2.760   7.165
 6458SOL     OW19825   4.541   2.432   5.949
 6458SOL    HW119826   4.545   2.357   5.889
 6458SOL    HW219827   4.467   2.483   5.917
 6459SOL     OW19828   3.964   3.412   7.311
 6459SOL    HW119829   3.943   3.477   7.378
 6459SOL    HW219830   3.970   3.329   7.359
 6460SOL     OW19831   4.430   2.310   6.842
 6460SOL    HW119832   4.375   2.237   6.814
 6460SOL    HW219833   4.424   2.373   6.771
 6461SOL     OW19834   4.642   3.541   7.055
 6461SOL    HW119835   4.620   3.507   6.968
 6461SOL    HW219836   4.642   3.636   7.044
 6462SOL     OW19837   4.186   2.354   5.771
 6462SOL    HW119838   4.245   2.426   5.794
 6462SOL    HW219839   4.101   2.396   5.759
 6463SOL     OW19840   3.868   3.003   7.059
 6463SOL    HW119841   3.869   2.953   7.141
 6463SOL    HW219842   3.885   2.938   6.991
 6464SOL     OW19843   5.052   2.909   6.809
 6464SOL    HW119844   5.072   2.844   6.742
 6464SOL    HW219845   4.982   2.962   6.770
 6465SOL     OW19846   5.037   2.724   5.902
 6465SOL    HW119847   4.956   2.689   5.940
 6465SOL    HW219848   5.025   2.714   5.808
 6466SOL     OW19849   4.958   3.593   6.705
 6466SOL    HW119850   5.044   3.617   6.671
 6466SOL    HW219851   4.962   3.498   6.716
 6467SOL     OW19852   3.810   3.128   6.597
 6467SOL    HW119853   3.795   3.143   6.690
 6467SOL    HW219854   3.736   3.074   6.569
 6468SOL     OW19855   4.401   3.528   7.318
 6468SOL    HW119856   4.348   3.608   7.311
 6468SOL    HW219857   4.473   3.542   7.256
 6469SOL     OW19858   0.075   2.026   6.120
 6469SOL    HW119859   0.155   2.007   6.072
 6469SOL    HW219860   0.062   1.948   6.175
 6470SOL     OW19861   5.111   3.433   6.070
 6470SOL    HW119862   5.181   3.475   6.021
 6470SOL    HW219863   5.059   3.505   6.104
 6471SOL     OW19864   3.862   3.657   7.430
 6471SOL    HW119865   3.811   3.592   7.479
 6471SOL    HW219866   3.909   3.706   7.497
 6472SOL     OW19867   5.018   2.782   6.256
 6472SOL    HW119868   5.097   2.729   6.244
 6472SOL    HW219869   5.037   2.863   6.209
 6473SOL     OW19870   4.533   3.136   7.014
 6473SOL    HW119871   4.505   3.176   7.096
 6473SOL    HW219872   4.464   3.159   6.951
 6474SOL     OW19873   4.394   3.485   5.741
 6474SOL    HW119874   4.406   3.498   5.647
 6474SOL    HW219875   4.338   3.407   5.747
 6475SOL     OW19876   3.984   2.176   6.302
 6475SOL    HW119877   3.898   2.212   6.279
 6475SOL    HW219878   3.982   2.170   6.397
 6476SOL     OW19879   4.906   3.470   5.629
 6476SOL    HW119880   4.919   3.375   5.639
 6476SOL    HW219881   4.851   3.479   5.552
 6477SOL     OW19882   4.547   2.868   6.960
 6477SOL    HW119883   4.591   2.863   6.874
 6477SOL    HW219884   4.545   2.962   6.979
 6478SOL     OW19885   4.641   2.773   5.876
 6478SOL    HW119886   4.702   2.805   5.810
 6478SOL    HW219887   4.688   2.704   5.922
 6479SOL     OW19888   4.092   3.166   7.078
 6479SOL    HW119889   4.079   3.243   7.022
 6479SOL    HW219890   4.015   3.111   7.062
 6480SOL     OW19891   4.779   2.970   6.294
 6480SOL    HW119892   4.708   2.920   6.334
 6480SOL    HW219893   4.838   2.904   6.258
 6481SOL     OW19894   4.739   2.101   6.555
 6481SOL    HW119895   4.737   2.055   6.471
 6481SOL    HW219896   4.735   2.032   6.621
 6482SOL     OW19897   4.327   3.350   6.067
 6482SOL    HW119898   4.375   3.300   6.000
 6482SOL    HW219899   4.257   3.393   6.019
 6483SOL     OW19900   3.984   3.206   5.875
 6483SOL    HW119901   3.891   3.203   5.853
 6483SOL    HW219902   3.986   3.243   5.963
 6484SOL     OW19903   3.838   2.888   7.307
 6484SOL    HW119904   3.761   2.864   7.359
 6484SOL    HW219905   3.911   2.847   7.354
 6485SOL     OW19906   4.399   2.058   7.086
 6485SOL    HW119907   4.483   2.037   7.046
 6485SOL    HW219908   4.421   2.089   7.174
 6486SOL     OW19909   3.803   2.194   5.620
 6486SOL    HW119910   3.717   2.174   5.584
 6486SOL    HW219911   3.834   2.269   5.570
 6487SOL     OW19912   5.163   2.722   6.989
 6487SOL    HW119913   5.112   2.780   6.933
 6487SOL    HW219914   5.253   2.728   6.955
 6488SOL     OW19915   3.790   2.017   5.892
 6488SOL    HW119916   3.777   2.097   5.841
 6488SOL    HW219917   3.875   1.984   5.864
 6489SOL     OW19918   4.905   3.189   5.700
 6489SOL    HW119919   4.811   3.170   5.701
 6489SOL    HW219920   4.929   3.196   5.792
 6490SOL     OW19921   4.343   2.693   7.020
 6490SOL    HW119922   4.400   2.768   7.005
 6490SOL    HW219923   4.403   2.619   7.028
 6491SOL     OW19924   4.441   2.423   7.289
 6491SOL    HW119925   4.484   2.483   7.350
 6491SOL    HW219926   4.463   2.335   7.321
 6492SOL     OW19927   5.180   3.063   7.216
 6492SOL    HW119928   5.170   3.076   7.311
 6492SOL    HW219929   5.273   3.075   7.200
 6493SOL     OW19930   4.099   3.602   7.151
 6493SOL    HW119931   4.015   3.645   7.137
 6493SOL    HW219932   4.077   3.519   7.192
 6494SOL     OW19933   4.938   2.182   6.041
 6494SOL    HW119934   4.999   2.110   6.029
 6494SOL    HW219935   4.968   2.227   6.120
 6495SOL     OW19936   4.313   2.598   6.257
 6495SOL    HW119937   4.352   2.684   6.243
 6495SOL    HW219938   4.247   2.590   6.188
 6496SOL     OW19939   4.591   3.227   5.625
 6496SOL    HW119940   4.551   3.258   5.706
 6496SOL    HW219941   4.606   3.307   5.574
 6497SOL     OW19942   4.385   3.650   6.527
 6497SOL    HW119943   4.367   3.742   6.506
 6497SOL    HW219944   4.481   3.643   6.521
 6498SOL     OW19945   4.593   2.831   6.441
 6498SOL    HW119946   4.642   2.759   6.479
 6498SOL    HW219947   4.556   2.877   6.516
 6499SOL     OW19948   4.807   2.849   5.676
 6499SOL    HW119949   4.782   2.898   5.598
 6499SOL    HW219950   4.881   2.795   5.649
 6500SOL     OW19951   3.949   3.163   7.442
 6500SOL    HW119952   3.885   3.101   7.408
 6500SOL    HW219953   3.923   3.178   7.533
 6501SOL     OW19954   3.808   3.092   6.251
 6501SOL    HW119955   3.817   3.047   6.335
 6501SOL    HW219956   3.877   3.055   6.196
 6502SOL     OW19957   4.406   3.265   7.216
 6502SOL    HW119958   4.326   3.225   7.248
 6502SOL    HW219959   4.403   3.354   7.251
 6503SOL     OW19960   4.153   2.296   6.112
 6503SOL    HW119961   4.183   2.225   6.055
 6503SOL    HW219962   4.104   2.251   6.181
 6504SOL     OW19963   0.093   3.381   6.687
 6504SOL    HW119964   0.026   3.361   6.621
 6504SOL    HW219965   0.093   3.305   6.745
 6505SOL     OW19966   4.057   2.419   6.879
 6505SOL    HW119967   4.112   2.363   6.933
 6505SOL    HW219968   4.075   2.391   6.789
 6506SOL     OW19969   4.554   3.440   6.262
 6506SOL    HW119970   4.538   3.499   6.189
 6506SOL    HW219971   4.477   3.382   6.263
 6507SOL     OW19972   5.145   2.081   6.701
 6507SOL    HW119973   5.190   2.017   6.756
 6507SOL    HW219974   5.098   2.136   6.764
 6508SOL     OW19975   4.729   1.879   6.726
 6508SOL    HW119976   4.676   1.812   6.683
 6508SOL    HW219977   4.816   1.841   6.731
 6509SOL     OW19978   4.495   3.195   5.905
 6509SOL    HW119979   4.467   3.104   5.911
 6509SOL    HW219980   4.578   3.198   5.953
 6510SOL     OW19981   4.344   3.417   6.872
 6510SOL    HW119982   4.345   3.500   6.920
 6510SOL    HW219983   4.431   3.410   6.835
 6511SOL     OW19984   5.055   1.907   5.753
 6511SOL    HW119985   5.075   1.866   5.668
 6511SOL    HW219986   4.970   1.870   5.777
 6512SOL     OW19987   5.026   2.320   6.265
 6512SOL    HW119988   4.973   2.400   6.269
 6512SOL    HW219989   5.014   2.280   6.351
 6513SOL     OW19990   0.002   2.089   6.469
 6513SOL    HW119991   5.237   2.076   6.539
 6513SOL    HW219992   5.271   2.167   6.423
 6514SOL     OW19993   3.766   2.930   5.893
 6514SOL    HW119994   3.860   2.923   5.875
 6514SOL    HW219995   3.739   2.841   5.915
 6515SOL     OW19996   4.604   3.514   5.931
 6515SOL    HW119997   4.533   3.500   5.869
 6515SOL    HW219998   4.577   3.591   5.982
 6516SOL     OW19999   3.951   2.481   7.574
 6516SOL    HW120000   3.861   2.490   7.605
 6516SOL    HW220001   3.942   2.459   7.481
 6517SOL     OW20002   3.945   3.577   7.919
 6517SOL    HW120003   3.972   3.617   8.002
 6517SOL    HW220004   4.025   3.578   7.866
 6518SOL     OW20005   3.939   3.301   7.994
 6518SOL    HW120006   3.926   3.396   7.987
 6518SOL    HW220007   3.878   3.273   8.062
 6519SOL     OW20008   4.308   2.845   7.580
 6519SOL    HW120009   4.353   2.894   7.511
 6519SOL    HW220010   4.347   2.877   7.662
 6520SOL     OW20011   3.756   3.460   7.578
 6520SOL    HW120012   3.739   3.367   7.593
 6520SOL    HW220013   3.729   3.503   7.659
 6521SOL     OW20014   0.115   2.792   8.012
 6521SOL    HW120015   0.208   2.783   8.029
 6521SOL    HW220016   0.100   2.886   8.004
 6522SOL     OW20017   4.525   1.858   7.938
 6522SOL    HW120018   4.575   1.937   7.920
 6522SOL    HW220019   4.435   1.887   7.946
 6523SOL     OW20020   4.314   2.586   7.709
 6523SOL    HW120021   4.314   2.669   7.661
 6523SOL    HW220022   4.254   2.601   7.782
 6524SOL     OW20023   3.781   2.725   0.086
 6524SOL    HW120024   3.845   2.659   0.110
 6524SOL    HW220025   3.785   2.790   0.156
 6525SOL     OW20026   4.613   2.210   7.641
 6525SOL    HW120027   4.651   2.268   7.575
 6525SOL    HW220028   4.641   2.122   7.615
 6526SOL     OW20029   4.046   2.818   7.698
 6526SOL    HW120030   4.125   2.836   7.647
 6526SOL    HW220031   4.007   2.741   7.657
 6527SOL     OW20032   4.836   3.638   7.686
 6527SOL    HW120033   4.761   3.595   7.728
 6527SOL    HW220034   4.861   3.578   7.615
 6528SOL     OW20035   4.190   3.601   7.770
 6528SOL    HW120036   4.240   3.653   7.833
 6528SOL    HW220037   4.256   3.563   7.712
 6529SOL     OW20038   5.132   1.990   7.852
 6529SOL    HW120039   5.095   1.965   7.767
 6529SOL    HW220040   5.226   1.990   7.838
 6530SOL     OW20041   4.117   2.561   7.917
 6530SOL    HW120042   4.114   2.466   7.928
 6530SOL    HW220043   4.026   2.590   7.925
 6531SOL     OW20044   4.358   1.980   7.558
 6531SOL    HW120045   4.427   1.916   7.571
 6531SOL    HW220046   4.311   1.950   7.480
 6532SOL     OW20047   4.256   1.938   7.960
 6532SOL    HW120048   4.171   1.943   8.002
 6532SOL    HW220049   4.255   2.009   7.895
 6533SOL     OW20050   5.134   3.044   7.489
 6533SOL    HW120051   5.146   2.970   7.549
 6533SOL    HW220052   5.047   3.078   7.510
 6534SOL     OW20053   4.015   1.911   7.633
 6534SOL    HW120054   4.073   1.972   7.586
 6534SOL    HW220055   4.075   1.848   7.673
 6535SOL     OW20056   4.667   2.089   7.907
 6535SOL    HW120057   4.626   2.151   7.847
 6535SOL    HW220058   4.758   2.117   7.912
 6536SOL     OW20059   4.158   3.006   0.100
 6536SOL    HW120060   4.089   3.058   0.142
 6536SOL    HW220061   4.130   2.998   0.009
 6537SOL     OW20062   5.011   3.668   8.011
 6537SOL    HW120063   5.051   3.733   7.954
 6537SOL    HW220064   4.934   3.711   8.048
 6538SOL     OW20065   4.749   2.402   7.468
 6538SOL    HW120066   4.702   2.484   7.451
 6538SOL    HW220067   4.802   2.421   7.546
 6539SOL     OW20068   4.209   3.280   7.601
 6539SOL    HW120069   4.136   3.251   7.655
 6539SOL    HW220070   4.198   3.234   7.518
 6540SOL     OW20071   5.129   2.420   7.533
 6540SOL    HW120072   5.052   2.411   7.588
 6540SOL    HW220073   5.201   2.382   7.584
 6541SOL     OW20074   4.249   2.128   7.768
 6541SOL    HW120075   4.295   2.079   7.700
 6541SOL    HW220076   4.225   2.210   7.727
 6542SOL     OW20077   4.439   2.925   7.810
 6542SOL    HW120078   4.410   2.910   7.900
 6542SOL    HW220079   4.517   2.871   7.800
 6543SOL     OW20080   4.088   2.971   7.924
 6543SOL    HW120081   4.067   3.049   7.873
 6543SOL    HW220082   4.075   2.898   7.862
 6544SOL     OW20083   4.956   3.222   7.817
 6544SOL    HW120084   5.014   3.294   7.843
 6544SOL    HW220085   4.909   3.200   7.897
 6545SOL     OW20086   0.041   2.514   7.925
 6545SOL    HW120087   5.281   2.516   7.999
 6545SOL    HW220088   0.036   2.602   7.888
 6546SOL     OW20089   4.923   2.391   7.710
 6546SOL    HW120090   4.926   2.308   7.757
 6546SOL    HW220091   4.894   2.455   7.775
 6547SOL     OW20092   0.021   2.272   7.800
 6547SOL    HW120093   0.031   2.204   7.867
 6547SOL    HW220094   0.026   2.355   7.849
 6548SOL     OW20095   5.037   2.693   7.492
 6548SOL    HW120096   5.067   2.603   7.489
 6548SOL    HW220097   5.060   2.729   7.406
 6549SOL     OW20098   3.731   3.185   7.639
 6549SOL    HW120099   3.644   3.199   7.602
 6549SOL    HW220100   3.729   3.096   7.673
 6550SOL     OW20101   4.570   2.474   7.752
 6550SOL    HW120102   4.564   2.380   7.732
 6550SOL    HW220103   4.479   2.503   7.756
 6551SOL     OW20104   4.184   2.355   7.641
 6551SOL    HW120105   4.243   2.429   7.656
 6551SOL    HW220106   4.099   2.396   7.623
 6552SOL     OW20107   5.030   2.710   7.776
 6552SOL    HW120108   4.938   2.734   7.789
 6552SOL    HW220109   5.040   2.706   7.681
 6553SOL     OW20110   0.187   2.004   7.991
 6553SOL    HW120111   0.155   1.991   7.902
 6553SOL    HW220112   0.139   1.940   8.043
 6554SOL     OW20113   5.106   3.435   7.906
 6554SOL    HW120114   5.200   3.439   7.923
 6554SOL    HW220115   5.072   3.518   7.939
 6555SOL     OW20116   4.388   3.484   7.603
 6555SOL    HW120117   4.402   3.496   7.509
 6555SOL    HW220118   4.335   3.404   7.609
 6556SOL     OW20119   4.910   3.472   7.488
 6556SOL    HW120120   4.919   3.378   7.501
 6556SOL    HW220121   4.850   3.480   7.414
 6557SOL     OW20122   4.654   2.766   7.760
 6557SOL    HW120123   4.704   2.790   7.682
 6557SOL    HW220124   4.640   2.672   7.751
 6558SOL     OW20125   4.331   3.370   7.936
 6558SOL    HW120126   4.379   3.311   7.877
 6558SOL    HW220127   4.256   3.398   7.884
 6559SOL     OW20128   3.983   3.206   7.746
 6559SOL    HW120129   3.892   3.204   7.718
 6559SOL    HW220130   3.981   3.243   7.834
 6560SOL     OW20131   3.802   2.192   7.482
 6560SOL    HW120132   3.716   2.174   7.444
 6560SOL    HW220133   3.833   2.269   7.434
 6561SOL     OW20134   3.791   2.018   7.755
 6561SOL    HW120135   3.775   2.094   7.697
 6561SOL    HW220136   3.874   1.982   7.725
 6562SOL     OW20137   4.902   3.189   7.554
 6562SOL    HW120138   4.807   3.176   7.553
 6562SOL    HW220139   4.923   3.203   7.646
 6563SOL     OW20140   5.275   3.604   0.322
 6563SOL    HW120141   5.277   3.691   0.283
 6563SOL    HW220142   0.053   3.601   0.378
 6564SOL     OW20143   4.936   2.183   7.900
 6564SOL    HW120144   5.008   2.121   7.889
 6564SOL    HW220145   4.953   2.224   7.985
 6565SOL     OW20146   4.355   2.598   8.052
 6565SOL    HW120147   4.357   2.678   0.024
 6565SOL    HW220148   4.268   2.596   8.013
 6566SOL     OW20149   4.593   3.227   7.488
 6566SOL    HW120150   4.552   3.257   7.569
 6566SOL    HW220151   4.606   3.307   7.437
 6567SOL     OW20152   4.801   2.837   7.541
 6567SOL    HW120153   4.778   2.893   7.467
 6567SOL    HW220154   4.880   2.790   7.513
 6568SOL     OW20155   4.109   2.291   7.985
 6568SOL    HW120156   4.160   2.240   7.923
 6568SOL    HW220157   4.162   2.290   8.065
 6569SOL     OW20158   4.488   3.199   7.764
 6569SOL    HW120159   4.461   3.107   7.766
 6569SOL    HW220160   4.567   3.202   7.818
 6570SOL     OW20161   5.058   1.906   7.607
 6570SOL    HW120162   5.076   1.860   7.525
 6570SOL    HW220163   4.975   1.869   7.637
 6571SOL     OW20164   3.776   2.939   7.749
 6571SOL    HW120165   3.871   2.931   7.736
 6571SOL    HW220166   3.746   2.849   7.764
 6572SOL     OW20167   4.612   3.510   7.782
 6572SOL    HW120168   4.536   3.490   7.728
 6572SOL    HW220169   4.581   3.573   7.846
 6573SOL     OW20170   3.938   4.346   0.124
 6573SOL    HW120171   3.858   4.311   0.163
 6573SOL    HW220172   3.960   4.284   0.054
 6574SOL     OW20173   3.949   4.006   0.992
 6574SOL    HW120174   3.977   3.972   1.077
 6574SOL    HW220175   3.859   3.974   0.982
 6575SOL     OW20176   3.726   4.108   0.638
 6575SOL    HW120177   3.644   4.134   0.680
 6575SOL    HW220178   3.703   4.028   0.590
 6576SOL     OW20179   4.291   5.009   1.183
 6576SOL    HW120180   4.207   5.008   1.138
 6576SOL    HW220181   4.305   5.101   1.206
 6577SOL     OW20182   5.275   5.233   0.689
 6577SOL    HW120183   5.270   5.216   0.783
 6577SOL    HW220184   5.184   5.227   0.659
 6578SOL     OW20185   4.861   4.423   0.698
 6578SOL    HW120186   4.912   4.503   0.688
 6578SOL    HW220187   4.812   4.436   0.779
 6579SOL     OW20188   4.475   4.865   1.040
 6579SOL    HW120189   4.409   4.898   1.101
 6579SOL    HW220190   4.507   4.943   0.995
 6580SOL     OW20191   4.596   4.493   1.823
 6580SOL    HW120192   4.578   4.564   1.885
 6580SOL    HW220193   4.617   4.537   1.741
 6581SOL     OW20194   4.407   4.721   0.651
 6581SOL    HW120195   4.474   4.714   0.719
 6581SOL    HW220196   4.340   4.777   0.689
 6582SOL     OW20197   4.434   4.872   1.816
 6582SOL    HW120198   4.482   4.951   1.839
 6582SOL    HW220199   4.352   4.904   1.778
 6583SOL     OW20200   4.061   5.145   1.058
 6583SOL    HW120201   3.983   5.100   1.027
 6583SOL    HW220202   4.097   5.187   0.980
 6584SOL     OW20203   5.122   5.240   1.341
 6584SOL    HW120204   5.142   0.007   1.405
 6584SOL    HW220205   5.102   5.162   1.393
 6585SOL     OW20206   4.175   4.121   1.483
 6585SOL    HW120207   4.250   4.062   1.490
 6585SOL    HW220208   4.098   4.065   1.499
 6586SOL     OW20209   4.867   5.047   1.703
 6586SOL    HW120210   4.884   5.064   1.795
 6586SOL    HW220211   4.804   4.975   1.703
 6587SOL     OW20212   3.930   5.157   0.515
 6587SOL    HW120213   3.962   5.236   0.559
 6587SOL    HW220214   3.881   5.110   0.582
 6588SOL     OW20215   3.985   4.811   0.892
 6588SOL    HW120216   3.983   4.723   0.931
 6588SOL    HW220217   3.928   4.863   0.948
 6589SOL     OW20218   4.349   4.682   0.137
 6589SOL    HW120219   4.295   4.757   0.112
 6589SOL    HW220220   4.402   4.713   0.210
 6590SOL     OW20221   3.840   4.375   0.564
 6590SOL    HW120222   3.809   4.287   0.585
 6590SOL    HW220223   3.831   4.424   0.645
 6591SOL     OW20224   3.698   0.023   0.092
 6591SOL    HW120225   3.712   5.231   0.118
 6591SOL    HW220226   3.729   0.074   0.167
 6592SOL     OW20227   0.118   4.652   0.587
 6592SOL    HW120228   0.212   4.640   0.580
 6592SOL    HW220229   0.103   4.744   0.563
 6593SOL     OW20230   3.848   4.467   1.585
 6593SOL    HW120231   3.940   4.495   1.589
 6593SOL    HW220232   3.798   4.549   1.592
 6594SOL     OW20233   4.347   5.101   0.740
 6594SOL    HW120234   4.293   5.022   0.736
 6594SOL    HW220235   4.330   5.146   0.658
 6595SOL     OW20236   5.023   4.975   1.419
 6595SOL    HW120237   5.048   4.903   1.361
 6595SOL    HW220238   5.068   4.957   1.501
 6596SOL     OW20239   4.542   3.729   0.514
 6596SOL    HW120240   4.581   3.813   0.490
 6596SOL    HW220241   4.448   3.747   0.520
 6597SOL     OW20242   3.913   4.687   1.273
 6597SOL    HW120243   3.998   4.646   1.259
 6597SOL    HW220244   3.852   4.635   1.220
 6598SOL     OW20245   4.061   3.973   1.818
 6598SOL    HW120246   4.103   4.057   1.836
 6598SOL    HW220247   3.970   3.986   1.845
 6599SOL     OW20248   5.179   5.155   0.949
 6599SOL    HW120249   5.110   5.165   1.015
 6599SOL    HW220250   5.165   5.067   0.913
 6600SOL     OW20251   0.047   0.164   0.560
 6600SOL    HW120252   0.091   0.123   0.485
 6600SOL    HW220253   0.036   0.093   0.623
 6601SOL     OW20254   4.322   4.435   0.283
 6601SOL    HW120255   4.340   4.516   0.235
 6601SOL    HW220256   4.258   4.461   0.350
 6602SOL     OW20257   4.994   4.061   0.917
 6602SOL    HW120258   4.906   4.032   0.940
 6602SOL    HW220259   5.049   4.026   0.988
 6603SOL     OW20260   4.513   4.342   1.449
 6603SOL    HW120261   4.488   4.317   1.538
 6603SOL    HW220262   4.476   4.273   1.393
 6604SOL     OW20263   5.113   4.206   1.681
 6604SOL    HW120264   5.117   4.242   1.770
 6604SOL    HW220265   5.192   4.152   1.675
 6605SOL     OW20266   4.674   4.610   1.584
 6605SOL    HW120267   4.728   4.540   1.547
 6605SOL    HW220268   4.627   4.645   1.508
 6606SOL     OW20269   4.715   4.135   1.236
 6606SOL    HW120270   4.627   4.154   1.269
 6606SOL    HW220271   4.701   4.091   1.153
 6607SOL     OW20272   4.779   4.422   0.425
 6607SOL    HW120273   4.796   4.417   0.519
 6607SOL    HW220274   4.695   4.377   0.414
 6608SOL     OW20275   3.812   4.546   0.777
 6608SOL    HW120276   3.893   4.539   0.828
 6608SOL    HW220277   3.768   4.623   0.812
 6609SOL     OW20278   4.610   4.081   0.202
 6609SOL    HW120279   4.655   4.131   0.133
 6609SOL    HW220280   4.611   3.991   0.170
 6610SOL     OW20281   5.094   4.872   0.549
 6610SOL    HW120282   5.183   4.870   0.513
 6610SOL    HW220283   5.046   4.929   0.489
 6611SOL     OW20284   4.274   3.903   0.895
 6611SOL    HW120285   4.276   3.933   0.986
 6611SOL    HW220286   4.276   3.984   0.843
 6612SOL     OW20287   4.738   5.162   0.470
 6612SOL    HW120288   4.665   5.223   0.476
 6612SOL    HW220289   4.766   5.149   0.560
 6613SOL     OW20290   4.934   5.264   1.565
 6613SOL    HW120291   4.914   5.179   1.604
 6613SOL    HW220292   4.898   5.259   1.476
 6614SOL     OW20293   4.046   4.665   0.258
 6614SOL    HW120294   4.111   4.710   0.204
 6614SOL    HW220295   4.054   4.573   0.234
 6615SOL     OW20296   4.188   4.987   1.742
 6615SOL    HW120297   4.162   4.990   1.650
 6615SOL    HW220298   4.105   4.987   1.791
 6616SOL     OW20299   4.880   0.190   0.210
 6616SOL    HW120300   4.807   0.187   0.271
 6616SOL    HW220301   4.847   0.146   0.131
 6617SOL     OW20302   3.926   4.002   1.503
 6617SOL    HW120303   3.844   4.052   1.501
 6617SOL    HW220304   3.905   3.925   1.556
 6618SOL     OW20305   5.113   3.849   0.442
 6618SOL    HW120306   5.098   3.830   0.350
 6618SOL    HW220307   5.208   3.857   0.450
 6619SOL     OW20308   4.111   4.421   0.476
 6619SOL    HW120309   4.133   4.329   0.488
 6619SOL    HW220310   4.019   4.427   0.498
 6620SOL     OW20311   4.355   3.833   0.138
 6620SOL    HW120312   4.450   3.822   0.145
 6620SOL    HW220313   4.335   3.814   0.047
 6621SOL     OW20314   4.488   4.003   1.755
 6621SOL    HW120315   4.566   3.949   1.754
 6621SOL    HW220316   4.441   3.975   1.834
 6622SOL     OW20317   5.057   4.316   1.432
 6622SOL    HW120318   5.088   4.286   1.517
 6622SOL    HW220319   5.101   4.401   1.419
 6623SOL     OW20320   4.538   5.115   0.940
 6623SOL    HW120321   4.619   5.106   0.889
 6623SOL    HW220322   4.469   5.124   0.873
 6624SOL     OW20323   4.651   4.232   0.902
 6624SOL    HW120324   4.627   4.224   0.809
 6624SOL    HW220325   4.682   4.145   0.926
 6625SOL     OW20326   4.274   3.787   0.503
 6625SOL    HW120327   4.194   3.786   0.555
 6625SOL    HW220328   4.266   3.866   0.449
 6626SOL     OW20329   5.125   4.896   0.033
 6626SOL    HW120330   5.135   4.828   0.100
 6626SOL    HW220331   5.043   4.940   0.055
 6627SOL     OW20332   4.037   3.783   0.172
 6627SOL    HW120333   4.102   3.850   0.191
 6627SOL    HW220334   4.072   3.704   0.213
 6628SOL     OW20335   4.663   3.972   0.457
 6628SOL    HW120336   4.636   4.013   0.374
 6628SOL    HW220337   4.756   3.991   0.463
 6629SOL     OW20338   4.801   4.407   1.460
 6629SOL    HW120339   4.736   4.337   1.461
 6629SOL    HW220340   4.885   4.361   1.450
 6630SOL     OW20341   4.983   5.264   0.768
 6630SOL    HW120342   4.951   0.051   0.747
 6630SOL    HW220343   5.040   5.277   0.844
 6631SOL     OW20344   4.190   4.874   0.727
 6631SOL    HW120345   4.123   4.853   0.792
 6631SOL    HW220346   4.147   4.857   0.643
 6632SOL     OW20347   4.758   4.250   0.033
 6632SOL    HW120348   4.713   4.331   0.007
 6632SOL    HW220349   4.819   4.277   0.101
 6633SOL     OW20350   3.805   4.278   1.392
 6633SOL    HW120351   3.897   4.277   1.366
 6633SOL    HW220352   3.800   4.348   1.458
 6634SOL     OW20353   4.282   3.951   1.168
 6634SOL    HW120354   4.325   3.877   1.211
 6634SOL    HW220355   4.191   3.947   1.197
 6635SOL     OW20356   4.590   4.181   0.638
 6635SOL    HW120357   4.550   4.238   0.573
 6635SOL    HW220358   4.612   4.102   0.591
 6636SOL     OW20359   4.740   3.777   0.749
 6636SOL    HW120360   4.680   3.771   0.674
 6636SOL    HW220361   4.717   3.702   0.804
 6637SOL     OW20362   5.151   4.903   0.848
 6637SOL    HW120363   5.100   4.823   0.859
 6637SOL    HW220364   5.170   4.907   0.755
 6638SOL     OW20365   4.187   5.161   0.151
 6638SOL    HW120366   4.141   5.107   0.216
 6638SOL    HW220367   4.234   5.098   0.097
 6639SOL     OW20368   5.129   4.306   0.072
 6639SOL    HW120369   5.070   4.284   0.144
 6639SOL    HW220370   5.195   4.236   0.073
 6640SOL     OW20371   4.238   3.988   0.322
 6640SOL    HW120372   4.291   3.936   0.261
 6640SOL    HW220373   4.225   4.072   0.277
 6641SOL     OW20374   4.785   5.073   1.328
 6641SOL    HW120375   4.707   5.048   1.378
 6641SOL    HW220376   4.858   5.037   1.379
 6642SOL     OW20377   4.850   4.924   1.108
 6642SOL    HW120378   4.799   4.967   1.177
 6642SOL    HW220379   4.806   4.949   1.027
 6643SOL     OW20380   4.642   3.820   1.394
 6643SOL    HW120381   4.664   3.802   1.303
 6643SOL    HW220382   4.721   3.859   1.431
 6644SOL     OW20383   4.704   4.831   1.732
 6644SOL    HW120384   4.613   4.851   1.750
 6644SOL    HW220385   4.702   4.757   1.672
 6645SOL     OW20386   4.437   4.786   0.382
 6645SOL    HW120387   4.419   4.767   0.474
 6645SOL    HW220388   4.516   4.736   0.362
 6646SOL     OW20389   4.144   4.540   1.252
 6646SOL    HW120390   4.212   4.550   1.318
 6646SOL    HW220391   4.109   4.452   1.265
 6647SOL     OW20392   4.987   4.098   1.278
 6647SOL    HW120393   5.022   4.178   1.318
 6647SOL    HW220394   4.897   4.121   1.255
 6648SOL     OW20395   4.061   4.832   0.489
 6648SOL    HW120396   4.062   4.904   0.426
 6648SOL    HW220397   4.071   4.753   0.437
 6649SOL     OW20398   4.274   4.258   0.859
 6649SOL    HW120399   4.288   4.317   0.785
 6649SOL    HW220400   4.340   4.283   0.923
 6650SOL     OW20401   4.980   5.069   0.381
 6650SOL    HW120402   5.029   5.151   0.373
 6650SOL    HW220403   4.893   5.096   0.411
 6651SOL     OW20404   4.976   5.183   1.127
 6651SOL    HW120405   5.029   5.207   1.203
 6651SOL    HW220406   4.940   5.097   1.149
 6652SOL     OW20407   4.073   5.236   1.312
 6652SOL    HW120408   4.062   5.200   1.224
 6652SOL    HW220409   4.167   5.256   1.318
 6653SOL     OW20410   4.140   4.469   1.602
 6653SOL    HW120411   4.202   4.513   1.545
 6653SOL    HW220412   4.179   4.383   1.619
 6654SOL     OW20413   4.718   3.854   1.755
 6654SOL    HW120414   4.776   3.925   1.731
 6654SOL    HW220415   4.764   3.775   1.729
 6655SOL     OW20416   4.221   3.762   1.749
 6655SOL    HW120417   4.176   3.709   1.684
 6655SOL    HW220418   4.164   3.838   1.762
 6656SOL     OW20419   4.307   4.597   1.031
 6656SOL    HW120420   4.340   4.687   1.031
 6656SOL    HW220421   4.252   4.592   1.109
 6657SOL     OW20422   5.085   4.578   1.037
 6657SOL    HW120423   5.011   4.558   0.981
 6657SOL    HW220424   5.145   4.505   1.024
 6658SOL     OW20425   4.932   4.255   0.266
 6658SOL    HW120426   4.934   4.175   0.318
 6658SOL    HW220427   4.886   4.319   0.321
 6659SOL     OW20428   4.021   3.921   1.247
 6659SOL    HW120429   3.984   3.954   1.329
 6659SOL    HW220430   4.002   3.827   1.248
 6660SOL     OW20431   3.780   5.049   1.285
 6660SOL    HW120432   3.802   4.982   1.350
 6660SOL    HW220433   3.814   5.130   1.322
 6661SOL     OW20434   4.445   4.353   1.055
 6661SOL    HW120435   4.522   4.339   1.000
 6661SOL    HW220436   4.418   4.443   1.035
 6662SOL     OW20437   4.028   3.787   0.624
 6662SOL    HW120438   4.007   3.878   0.646
 6662SOL    HW220439   4.036   3.743   0.709
 6663SOL     OW20440   0.049   4.100   0.353
 6663SOL    HW120441   0.061   4.045   0.431
 6663SOL    HW220442   0.025   4.186   0.388
 6664SOL     OW20443   4.750   4.482   0.958
 6664SOL    HW120444   4.747   4.500   1.052
 6664SOL    HW220445   4.725   4.390   0.950
 6665SOL     OW20446   4.076   4.640   1.809
 6665SOL    HW120447   4.158   4.660   1.855
 6665SOL    HW220448   4.102   4.577   1.741
 6666SOL     OW20449   5.029   4.557   0.025
 6666SOL    HW120450   5.063   4.469   0.042
 6666SOL    HW220451   5.058   4.576   8.015
 6667SOL     OW20452   4.779   5.083   0.822
 6667SOL    HW120453   4.787   4.997   0.781
 6667SOL    HW220454   4.865   5.124   0.809
 6668SOL     OW20455   4.032   4.532   0.946
 6668SOL    HW120456   4.126   4.553   0.941
 6668SOL    HW220457   4.030   4.442   0.978
 6669SOL     OW20458   4.053   4.252   1.012
 6669SOL    HW120459   4.018   4.164   0.999
 6669SOL    HW220460   4.130   4.257   0.956
 6670SOL     OW20461   4.856   4.098   1.683
 6670SOL    HW120462   4.808   4.153   1.745
 6670SOL    HW220463   4.943   4.139   1.678
 6671SOL     OW20464   4.885   3.924   1.470
 6671SOL    HW120465   4.873   3.986   1.542
 6671SOL    HW220466   4.925   3.976   1.400
 6672SOL     OW20467   3.738   5.042   0.173
 6672SOL    HW120468   3.649   5.054   0.139
 6672SOL    HW220469   3.735   4.956   0.216
 6673SOL     OW20470   4.701   4.513   1.225
 6673SOL    HW120471   4.761   4.494   1.297
 6673SOL    HW220472   4.618   4.475   1.251
 6674SOL     OW20473   3.760   4.270   1.117
 6674SOL    HW120474   3.841   4.260   1.066
 6674SOL    HW220475   3.789   4.273   1.208
 6675SOL     OW20476   3.916   4.245   1.729
 6675SOL    HW120477   3.971   4.204   1.663
 6675SOL    HW220478   3.877   4.320   1.684
 6676SOL     OW20479   5.116   4.658   1.666
 6676SOL    HW120480   5.122   4.753   1.653
 6676SOL    HW220481   5.120   4.622   1.577
 6677SOL     OW20482   4.544   4.293   0.371
 6677SOL    HW120483   4.553   4.222   0.308
 6677SOL    HW220484   4.468   4.342   0.341
 6678SOL     OW20485   3.927   5.275   1.746
 6678SOL    HW120486   3.908   0.026   1.825
 6678SOL    HW220487   3.940   5.186   1.778
 6679SOL     OW20488   4.430   4.172   1.256
 6679SOL    HW120489   4.375   4.099   1.228
 6679SOL    HW220490   4.424   4.235   1.185
 6680SOL     OW20491   4.192   4.215   0.176
 6680SOL    HW120492   4.258   4.281   0.197
 6680SOL    HW220493   4.108   4.261   0.189
 6681SOL     OW20494   3.867   4.863   1.472
 6681SOL    HW120495   3.869   4.813   1.553
 6681SOL    HW220496   3.884   4.798   1.404
 6682SOL     OW20497   5.047   4.768   1.227
 6682SOL    HW120498   5.071   4.705   1.159
 6682SOL    HW220499   4.978   4.821   1.187
 6683SOL     OW20500   5.022   4.597   0.319
 6683SOL    HW120501   4.946   4.549   0.353
 6683SOL    HW220502   5.024   4.575   0.226
 6684SOL     OW20503   3.820   4.987   1.022
 6684SOL    HW120504   3.799   5.007   1.113
 6684SOL    HW220505   3.740   4.949   0.987
 6685SOL     OW20506   4.470   0.026   1.716
 6685SOL    HW120507   4.379   0.055   1.715
 6685SOL    HW220508   4.508   0.065   1.637
 6686SOL     OW20509   4.630   3.815   0.131
 6686SOL    HW120510   4.642   3.796   0.038
 6686SOL    HW220511   4.695   3.761   0.175
 6687SOL     OW20512   0.076   3.874   0.525
 6687SOL    HW120513   0.168   3.864   0.499
 6687SOL    HW220514   0.064   3.808   0.593
 6688SOL     OW20515   5.019   4.643   0.671
 6688SOL    HW120516   5.098   4.590   0.658
 6688SOL    HW220517   5.036   4.724   0.622
 6689SOL     OW20518   4.539   4.991   1.414
 6689SOL    HW120519   4.506   5.026   1.497
 6689SOL    HW220520   4.465   5.002   1.354
 6690SOL     OW20521   3.984   4.038   0.716
 6690SOL    HW120522   3.898   4.074   0.694
 6690SOL    HW220523   3.983   4.032   0.812
 6691SOL     OW20524   4.853   0.017   0.001
 6691SOL    HW120525   4.879   5.230   0.032
 6691SOL    HW220526   4.872   0.016   7.987
 6692SOL     OW20527   4.549   4.726   1.370
 6692SOL    HW120528   4.597   4.717   1.288
 6692SOL    HW220529   4.551   4.820   1.390
 6693SOL     OW20530   4.644   4.639   0.301
 6693SOL    HW120531   4.697   4.664   0.225
 6693SOL    HW220532   4.693   4.567   0.342
 6694SOL     OW20533   4.087   5.027   1.498
 6694SOL    HW120534   4.078   5.100   1.437
 6694SOL    HW220535   4.011   4.971   1.480
 6695SOL     OW20536   4.781   4.836   0.715
 6695SOL    HW120537   4.709   4.783   0.751
 6695SOL    HW220538   4.839   4.771   0.674
 6696SOL     OW20539   4.739   3.963   0.968
 6696SOL    HW120540   4.737   3.916   0.885
 6696SOL    HW220541   4.735   3.894   1.035
 6697SOL     OW20542   3.989   5.025   0.289
 6697SOL    HW120543   3.908   5.040   0.239
 6697SOL    HW220544   3.978   5.077   0.368
 6698SOL     OW20545   3.837   4.749   1.720
 6698SOL    HW120546   3.761   4.724   1.773
 6698SOL    HW220547   3.911   4.710   1.765
 6699SOL     OW20548   4.399   3.919   1.500
 6699SOL    HW120549   4.484   3.899   1.459
 6699SOL    HW220550   4.422   3.952   1.587
 6700SOL     OW20551   3.782   4.084   0.039
 6700SOL    HW120552   3.702   4.036   0.015
 6700SOL    HW220553   3.832   4.090   8.038
 6701SOL     OW20554   5.165   4.583   1.403
 6701SOL    HW120555   5.112   4.641   1.348
 6701SOL    HW220556   5.253   4.591   1.366
 6702SOL     OW20557   3.794   3.876   0.300
 6702SOL    HW120558   3.779   3.962   0.260
 6702SOL    HW220559   3.879   3.848   0.264
 6703SOL     OW20560   4.906   5.050   0.103
 6703SOL    HW120561   4.810   5.047   0.099
 6703SOL    HW220562   4.925   5.056   0.196
 6704SOL     OW20563   4.343   4.555   1.434
 6704SOL    HW120564   4.400   4.630   1.418
 6704SOL    HW220565   4.403   4.481   1.442
 6705SOL     OW20566   4.441   4.286   1.702
 6705SOL    HW120567   4.484   4.346   1.763
 6705SOL    HW220568   4.464   4.199   1.736
 6706SOL     OW20569   5.183   4.925   1.633
 6706SOL    HW120570   5.171   4.938   1.727
 6706SOL    HW220571   5.278   4.930   1.620
 6707SOL     OW20572   4.931   4.051   0.460
 6707SOL    HW120573   4.992   3.978   0.451
 6707SOL    HW220574   4.960   4.098   0.538
 6708SOL     OW20575   4.310   4.459   0.671
 6708SOL    HW120576   4.351   4.545   0.659
 6708SOL    HW220577   4.243   4.454   0.603
 6709SOL     OW20578   4.639   5.093   0.040
 6709SOL    HW120579   4.579   5.074   0.112
 6709SOL    HW220580   4.592   5.154   8.064
 6710SOL     OW20581   4.593   4.693   0.855
 6710SOL    HW120582   4.643   4.621   0.894
 6710SOL    HW220583   4.557   4.740   0.930
 6711SOL     OW20584   4.800   4.697   0.087
 6711SOL    HW120585   4.786   4.757   0.013
 6711SOL    HW220586   4.883   4.652   0.066
 6712SOL     OW20587   3.945   5.021   1.852
 6712SOL    HW120588   3.879   4.957   1.826
 6712SOL    HW220589   3.934   5.031   1.946
 6713SOL     OW20590   3.814   4.952   0.669
 6713SOL    HW120591   3.811   4.902   0.751
 6713SOL    HW220592   3.882   4.909   0.617
 6714SOL     OW20593   4.397   5.098   1.609
 6714SOL    HW120594   4.319   5.071   1.657
 6714SOL    HW220595   4.429   5.174   1.657
 6715SOL     OW20596   4.147   4.160   0.524
 6715SOL    HW120597   4.182   4.089   0.470
 6715SOL    HW220598   4.102   4.116   0.596
 6716SOL     OW20599   0.124   5.232   1.048
 6716SOL    HW120600   0.040   5.205   1.011
 6716SOL    HW220601   0.106   5.246   1.141
 6717SOL     OW20602   4.056   4.281   1.292
 6717SOL    HW120603   4.111   4.226   1.347
 6717SOL    HW220604   4.075   4.253   1.203
 6718SOL     OW20605   5.145   3.942   1.115
 6718SOL    HW120606   5.191   3.879   1.170
 6718SOL    HW220607   5.099   3.999   1.177
 6719SOL     OW20608   4.729   3.741   1.140
 6719SOL    HW120609   4.676   3.673   1.097
 6719SOL    HW220610   4.816   3.703   1.145
 6720SOL     OW20611   4.520   5.038   0.281
 6720SOL    HW120612   4.472   4.960   0.309
 6720SOL    HW220613   4.580   5.056   0.354
 6721SOL     OW20614   4.347   5.300   1.295
 6721SOL    HW120615   4.351   0.053   1.374
 6721SOL    HW220616   4.438   5.281   1.273
 6722SOL     OW20617   5.048   3.783   0.190
 6722SOL    HW120618   5.089   3.736   0.117
 6722SOL    HW220619   4.969   3.734   0.209
 6723SOL     OW20620   5.026   4.186   0.682
 6723SOL    HW120621   4.973   4.265   0.686
 6723SOL    HW220622   5.014   4.144   0.767
 6724SOL     OW20623   5.299   3.952   0.880
 6724SOL    HW120624   5.238   3.934   0.952
 6724SOL    HW220625   5.270   4.036   0.844
 6725SOL     OW20626   3.766   4.790   0.306
 6725SOL    HW120627   3.861   4.792   0.311
 6725SOL    HW220628   3.742   4.705   0.343
 6726SOL     OW20629   3.951   4.347   1.988
 6726SOL    HW120630   3.862   4.345   2.022
 6726SOL    HW220631   3.941   4.323   1.895
 6727SOL     OW20632   3.949   4.007   2.854
 6727SOL    HW120633   3.977   3.972   2.939
 6727SOL    HW220634   3.859   3.975   2.844
 6728SOL     OW20635   3.726   4.108   2.500
 6728SOL    HW120636   3.644   4.134   2.542
 6728SOL    HW220637   3.704   4.029   2.451
 6729SOL     OW20638   4.292   5.009   3.045
 6729SOL    HW120639   4.207   5.007   3.001
 6729SOL    HW220640   4.304   5.101   3.069
 6730SOL     OW20641   5.274   5.230   2.552
 6730SOL    HW120642   5.272   5.217   2.647
 6730SOL    HW220643   5.182   5.230   2.526
 6731SOL     OW20644   4.860   4.423   2.559
 6731SOL    HW120645   4.911   4.503   2.550
 6731SOL    HW220646   4.811   4.434   2.641
 6732SOL     OW20647   4.476   4.866   2.902
 6732SOL    HW120648   4.410   4.898   2.964
 6732SOL    HW220649   4.507   4.944   2.857
 6733SOL     OW20650   4.596   4.493   3.686
 6733SOL    HW120651   4.578   4.564   3.747
 6733SOL    HW220652   4.617   4.537   3.603
 6734SOL     OW20653   4.410   4.723   2.508
 6734SOL    HW120654   4.475   4.715   2.578
 6734SOL    HW220655   4.341   4.778   2.547
 6735SOL     OW20656   4.434   4.872   3.678
 6735SOL    HW120657   4.483   4.951   3.701
 6735SOL    HW220658   4.352   4.904   3.640
 6736SOL     OW20659   4.061   5.145   2.920
 6736SOL    HW120660   3.982   5.100   2.890
 6736SOL    HW220661   4.097   5.187   2.842
 6737SOL     OW20662   5.124   5.238   3.203
 6737SOL    HW120663   5.142   0.007   3.267
 6737SOL    HW220664   5.101   5.161   3.255
 6738SOL     OW20665   4.174   4.121   3.345
 6738SOL    HW120666   4.249   4.062   3.352
 6738SOL    HW220667   4.098   4.065   3.361
 6739SOL     OW20668   4.867   5.048   3.565
 6739SOL    HW120669   4.884   5.064   3.657
 6739SOL    HW220670   4.804   4.975   3.565
 6740SOL     OW20671   3.933   5.159   2.384
 6740SOL    HW120672   3.963   5.237   2.429
 6740SOL    HW220673   3.883   5.110   2.449
 6741SOL     OW20674   3.986   4.811   2.754
 6741SOL    HW120675   3.983   4.723   2.792
 6741SOL    HW220676   3.929   4.863   2.810
 6742SOL     OW20677   4.306   4.706   1.998
 6742SOL    HW120678   4.354   4.754   1.930
 6742SOL    HW220679   4.344   4.737   2.081
 6743SOL     OW20680   3.840   4.378   2.422
 6743SOL    HW120681   3.811   4.289   2.443
 6743SOL    HW220682   3.832   4.426   2.504
 6744SOL     OW20683   3.710   0.012   1.958
 6744SOL    HW120684   3.725   5.223   1.990
 6744SOL    HW220685   3.731   0.068   2.033
 6745SOL     OW20686   0.111   4.656   2.424
 6745SOL    HW120687   0.200   4.626   2.441
 6745SOL    HW220688   0.119   4.752   2.419
 6746SOL     OW20689   3.848   4.467   3.447
 6746SOL    HW120690   3.939   4.495   3.451
 6746SOL    HW220691   3.798   4.549   3.454
 6747SOL     OW20692   4.347   5.099   2.602
 6747SOL    HW120693   4.293   5.020   2.598
 6747SOL    HW220694   4.329   5.145   2.519
 6748SOL     OW20695   5.023   4.975   3.280
 6748SOL    HW120696   5.048   4.902   3.224
 6748SOL    HW220697   5.068   4.958   3.363
 6749SOL     OW20698   4.541   3.726   2.373
 6749SOL    HW120699   4.581   3.810   2.351
 6749SOL    HW220700   4.447   3.746   2.380
 6750SOL     OW20701   3.913   4.687   3.135
 6750SOL    HW120702   3.998   4.646   3.120
 6750SOL    HW220703   3.852   4.635   3.082
 6751SOL     OW20704   4.061   3.973   3.681
 6751SOL    HW120705   4.103   4.058   3.698
 6751SOL    HW220706   3.970   3.986   3.708
 6752SOL     OW20707   5.179   5.154   2.812
 6752SOL    HW120708   5.110   5.165   2.878
 6752SOL    HW220709   5.164   5.067   2.776
 6753SOL     OW20710   0.041   0.165   2.425
 6753SOL    HW120711   0.085   0.128   2.348
 6753SOL    HW220712   0.031   0.092   2.485
 6754SOL     OW20713   4.319   4.443   2.130
 6754SOL    HW120714   4.324   4.526   2.082
 6754SOL    HW220715   4.254   4.459   2.199
 6755SOL     OW20716   4.994   4.061   2.779
 6755SOL    HW120717   4.906   4.032   2.802
 6755SOL    HW220718   5.049   4.027   2.850
 6756SOL     OW20719   4.513   4.342   3.311
 6756SOL    HW120720   4.488   4.317   3.400
 6756SOL    HW220721   4.476   4.273   3.255
 6757SOL     OW20722   5.114   4.206   3.543
 6757SOL    HW120723   5.117   4.242   3.632
 6757SOL    HW220724   5.192   4.152   3.537
 6758SOL     OW20725   4.675   4.610   3.446
 6758SOL    HW120726   4.728   4.540   3.409
 6758SOL    HW220727   4.627   4.645   3.371
 6759SOL     OW20728   4.715   4.136   3.098
 6759SOL    HW120729   4.627   4.154   3.131
 6759SOL    HW220730   4.701   4.091   3.015
 6760SOL     OW20731   4.776   4.422   2.287
 6760SOL    HW120732   4.793   4.416   2.381
 6760SOL    HW220733   4.693   4.376   2.274
 6761SOL     OW20734   3.812   4.545   2.639
 6761SOL    HW120735   3.892   4.538   2.690
 6761SOL    HW220736   3.768   4.623   2.674
 6762SOL     OW20737   4.621   4.073   2.056
 6762SOL    HW120738   4.659   4.135   1.995
 6762SOL    HW220739   4.635   3.987   2.015
 6763SOL     OW20740   5.095   4.872   2.411
 6763SOL    HW120741   5.186   4.874   2.381
 6763SOL    HW220742   5.049   4.930   2.350
 6764SOL     OW20743   4.274   3.903   2.757
 6764SOL    HW120744   4.277   3.933   2.848
 6764SOL    HW220745   4.275   3.983   2.705
 6765SOL     OW20746   4.742   5.165   2.335
 6765SOL    HW120747   4.667   5.224   2.333
 6765SOL    HW220748   4.761   5.152   2.428
 6766SOL     OW20749   4.936   5.263   3.425
 6766SOL    HW120750   4.915   5.179   3.466
 6766SOL    HW220751   4.897   5.259   3.338
 6767SOL     OW20752   4.042   4.681   2.114
 6767SOL    HW120753   4.124   4.701   2.069
 6767SOL    HW220754   4.012   4.599   2.074
 6768SOL     OW20755   4.188   4.987   3.604
 6768SOL    HW120756   4.162   4.990   3.512
 6768SOL    HW220757   4.105   4.987   3.652
 6769SOL     OW20758   4.789   0.170   2.073
 6769SOL    HW120759   4.803   0.116   2.151
 6769SOL    HW220760   4.863   0.150   2.016
 6770SOL     OW20761   3.926   4.002   3.365
 6770SOL    HW120762   3.844   4.052   3.363
 6770SOL    HW220763   3.905   3.923   3.416
 6771SOL     OW20764   5.118   3.831   2.286
 6771SOL    HW120765   5.099   3.812   2.194
 6771SOL    HW220766   5.212   3.848   2.288
 6772SOL     OW20767   4.119   4.419   2.337
 6772SOL    HW120768   4.138   4.326   2.349
 6772SOL    HW220769   4.025   4.427   2.353
 6773SOL     OW20770   4.364   3.844   1.966
 6773SOL    HW120771   4.429   3.776   1.980
 6773SOL    HW220772   4.312   3.813   1.891
 6774SOL     OW20773   4.488   4.003   3.618
 6774SOL    HW120774   4.567   3.949   3.616
 6774SOL    HW220775   4.441   3.975   3.696
 6775SOL     OW20776   5.057   4.316   3.294
 6775SOL    HW120777   5.088   4.286   3.379
 6775SOL    HW220778   5.101   4.401   3.282
 6776SOL     OW20779   4.538   5.116   2.801
 6776SOL    HW120780   4.619   5.105   2.750
 6776SOL    HW220781   4.469   5.124   2.735
 6777SOL     OW20782   4.652   4.233   2.764
 6777SOL    HW120783   4.628   4.224   2.671
 6777SOL    HW220784   4.682   4.146   2.789
 6778SOL     OW20785   4.274   3.787   2.361
 6778SOL    HW120786   4.194   3.787   2.413
 6778SOL    HW220787   4.267   3.865   2.306
 6779SOL     OW20788   5.132   4.905   1.905
 6779SOL    HW120789   5.134   4.824   1.956
 6779SOL    HW220790   5.044   4.940   1.920
 6780SOL     OW20791   4.015   3.772   2.047
 6780SOL    HW120792   4.073   3.836   2.007
 6780SOL    HW220793   4.074   3.709   2.089
 6781SOL     OW20794   4.663   3.972   2.319
 6781SOL    HW120795   4.637   4.011   2.236
 6781SOL    HW220796   4.758   3.986   2.324
 6782SOL     OW20797   4.801   4.407   3.322
 6782SOL    HW120798   4.735   4.337   3.323
 6782SOL    HW220799   4.885   4.361   3.313
 6783SOL     OW20800   4.986   5.264   2.627
 6783SOL    HW120801   4.944   0.049   2.614
 6783SOL    HW220802   5.040   5.276   2.706
 6784SOL     OW20803   4.191   4.873   2.589
 6784SOL    HW120804   4.124   4.852   2.654
 6784SOL    HW220805   4.148   4.856   2.504
 6785SOL     OW20806   4.747   4.264   1.886
 6785SOL    HW120807   4.702   4.346   1.866
 6785SOL    HW220808   4.808   4.286   1.956
 6786SOL     OW20809   3.805   4.278   3.255
 6786SOL    HW120810   3.897   4.277   3.228
 6786SOL    HW220811   3.800   4.348   3.320
 6787SOL     OW20812   4.282   3.951   3.030
 6787SOL    HW120813   4.324   3.877   3.073
 6787SOL    HW220814   4.191   3.947   3.059
 6788SOL     OW20815   4.591   4.182   2.501
 6788SOL    HW120816   4.546   4.238   2.437
 6788SOL    HW220817   4.613   4.103   2.452
 6789SOL     OW20818   4.740   3.778   2.612
 6789SOL    HW120819   4.682   3.771   2.536
 6789SOL    HW220820   4.717   3.702   2.666
 6790SOL     OW20821   5.151   4.902   2.711
 6790SOL    HW120822   5.099   4.823   2.724
 6790SOL    HW220823   5.166   4.905   2.616
 6791SOL     OW20824   4.199   5.150   2.010
 6791SOL    HW120825   4.141   5.096   2.064
 6791SOL    HW220826   4.212   5.099   1.930
 6792SOL     OW20827   5.129   4.283   1.944
 6792SOL    HW120828   5.054   4.275   2.003
 6792SOL    HW220829   5.202   4.248   1.994
 6793SOL     OW20830   4.249   3.986   2.177
 6793SOL    HW120831   4.297   3.941   2.108
 6793SOL    HW220832   4.225   4.070   2.138
 6794SOL     OW20833   4.786   5.073   3.190
 6794SOL    HW120834   4.707   5.048   3.239
 6794SOL    HW220835   4.858   5.037   3.241
 6795SOL     OW20836   4.850   4.924   2.970
 6795SOL    HW120837   4.800   4.966   3.040
 6795SOL    HW220838   4.804   4.948   2.890
 6796SOL     OW20839   4.642   3.820   3.257
 6796SOL    HW120840   4.664   3.802   3.165
 6796SOL    HW220841   4.721   3.859   3.293
 6797SOL     OW20842   4.705   4.831   3.594
 6797SOL    HW120843   4.613   4.851   3.612
 6797SOL    HW220844   4.702   4.757   3.534
 6798SOL     OW20845   4.429   4.784   2.233
 6798SOL    HW120846   4.416   4.766   2.326
 6798SOL    HW220847   4.506   4.732   2.210
 6799SOL     OW20848   4.144   4.540   3.113
 6799SOL    HW120849   4.212   4.550   3.180
 6799SOL    HW220850   4.109   4.452   3.127
 6800SOL     OW20851   4.987   4.098   3.141
 6800SOL    HW120852   5.022   4.178   3.181
 6800SOL    HW220853   4.897   4.121   3.117
 6801SOL     OW20854   4.065   4.835   2.349
 6801SOL    HW120855   4.066   4.909   2.288
 6801SOL    HW220856   4.065   4.757   2.294
 6802SOL     OW20857   4.274   4.259   2.721
 6802SOL    HW120858   4.288   4.317   2.647
 6802SOL    HW220859   4.340   4.284   2.785
 6803SOL     OW20860   4.985   5.080   2.249
 6803SOL    HW120861   5.037   5.156   2.273
 6803SOL    HW220862   4.896   5.101   2.277
 6804SOL     OW20863   4.977   5.183   2.990
 6804SOL    HW120864   5.030   5.207   3.065
 6804SOL    HW220865   4.940   5.098   3.012
 6805SOL     OW20866   4.073   5.236   3.174
 6805SOL    HW120867   4.062   5.200   3.086
 6805SOL    HW220868   4.167   5.256   3.180
 6806SOL     OW20869   4.140   4.469   3.464
 6806SOL    HW120870   4.202   4.513   3.407
 6806SOL    HW220871   4.178   4.383   3.481
 6807SOL     OW20872   4.718   3.854   3.617
 6807SOL    HW120873   4.777   3.925   3.593
 6807SOL    HW220874   4.764   3.774   3.591
 6808SOL     OW20875   4.221   3.762   3.611
 6808SOL    HW120876   4.176   3.709   3.546
 6808SOL    HW220877   4.164   3.838   3.624
 6809SOL     OW20878   4.308   4.597   2.893
 6809SOL    HW120879   4.339   4.687   2.893
 6809SOL    HW220880   4.252   4.591   2.971
 6810SOL     OW20881   5.086   4.580   2.896
 6810SOL    HW120882   5.009   4.556   2.845
 6810SOL    HW220883   5.143   4.503   2.889
 6811SOL     OW20884   4.924   4.254   2.124
 6811SOL    HW120885   4.932   4.175   2.177
 6811SOL    HW220886   4.882   4.318   2.181
 6812SOL     OW20887   4.021   3.921   3.109
 6812SOL    HW120888   3.984   3.953   3.191
 6812SOL    HW220889   4.003   3.827   3.110
 6813SOL     OW20890   3.780   5.048   3.147
 6813SOL    HW120891   3.802   4.982   3.212
 6813SOL    HW220892   3.814   5.130   3.184
 6814SOL     OW20893   4.446   4.353   2.917
 6814SOL    HW120894   4.522   4.339   2.861
 6814SOL    HW220895   4.418   4.443   2.898
 6815SOL     OW20896   4.029   3.787   2.486
 6815SOL    HW120897   4.008   3.877   2.507
 6815SOL    HW220898   4.037   3.743   2.570
 6816SOL     OW20899   0.033   4.124   2.219
 6816SOL    HW120900   0.049   4.046   2.273
 6816SOL    HW220901   0.028   4.196   2.281
 6817SOL     OW20902   4.751   4.482   2.820
 6817SOL    HW120903   4.747   4.500   2.914
 6817SOL    HW220904   4.726   4.390   2.812
 6818SOL     OW20905   4.076   4.640   3.671
 6818SOL    HW120906   4.158   4.660   3.717
 6818SOL    HW220907   4.102   4.578   3.603
 6819SOL     OW20908   5.028   4.552   1.898
 6819SOL    HW120909   5.066   4.464   1.901
 6819SOL    HW220910   5.056   4.587   1.814
 6820SOL     OW20911   4.779   5.084   2.681
 6820SOL    HW120912   4.786   4.997   2.642
 6820SOL    HW220913   4.866   5.123   2.669
 6821SOL     OW20914   4.032   4.532   2.808
 6821SOL    HW120915   4.125   4.553   2.802
 6821SOL    HW220916   4.030   4.442   2.840
 6822SOL     OW20917   4.053   4.252   2.875
 6822SOL    HW120918   4.018   4.164   2.861
 6822SOL    HW220919   4.130   4.257   2.818
 6823SOL     OW20920   4.856   4.099   3.545
 6823SOL    HW120921   4.808   4.153   3.607
 6823SOL    HW220922   4.943   4.139   3.540
 6824SOL     OW20923   4.885   3.924   3.332
 6824SOL    HW120924   4.873   3.986   3.404
 6824SOL    HW220925   4.925   3.976   3.262
 6825SOL     OW20926   3.730   5.038   2.053
 6825SOL    HW120927   3.639   5.056   2.029
 6825SOL    HW220928   3.727   4.950   2.090
 6826SOL     OW20929   4.702   4.514   3.087
 6826SOL    HW120930   4.760   4.493   3.160
 6826SOL    HW220931   4.618   4.475   3.111
 6827SOL     OW20932   3.760   4.270   2.979
 6827SOL    HW120933   3.841   4.260   2.928
 6827SOL    HW220934   3.789   4.272   3.070
 6828SOL     OW20935   3.916   4.245   3.591
 6828SOL    HW120936   3.970   4.203   3.524
 6828SOL    HW220937   3.877   4.320   3.547
 6829SOL     OW20938   5.116   4.659   3.528
 6829SOL    HW120939   5.122   4.753   3.515
 6829SOL    HW220940   5.120   4.622   3.439
 6830SOL     OW20941   4.541   4.294   2.225
 6830SOL    HW120942   4.545   4.219   2.165
 6830SOL    HW220943   4.467   4.346   2.194
 6831SOL     OW20944   3.927   5.275   3.608
 6831SOL    HW120945   3.907   0.026   3.687
 6831SOL    HW220946   3.940   5.186   3.640
 6832SOL     OW20947   4.430   4.172   3.118
 6832SOL    HW120948   4.375   4.099   3.090
 6832SOL    HW220949   4.424   4.235   3.047
 6833SOL     OW20950   4.186   4.216   2.047
 6833SOL    HW120951   4.245   4.288   2.070
 6833SOL    HW220952   4.101   4.258   2.035
 6834SOL     OW20953   3.867   4.863   3.334
 6834SOL    HW120954   3.869   4.813   3.415
 6834SOL    HW220955   3.884   4.798   3.266
 6835SOL     OW20956   5.047   4.768   3.089
 6835SOL    HW120957   5.071   4.705   3.020
 6835SOL    HW220958   4.978   4.821   3.049
 6836SOL     OW20959   5.035   4.586   2.178
 6836SOL    HW120960   4.954   4.551   2.216
 6836SOL    HW220961   5.024   4.576   2.084
 6837SOL     OW20962   3.820   4.987   2.884
 6837SOL    HW120963   3.799   5.007   2.975
 6837SOL    HW220964   3.740   4.949   2.848
 6838SOL     OW20965   4.470   0.026   3.578
 6838SOL    HW120966   4.379   0.055   3.577
 6838SOL    HW220967   4.508   0.065   3.499
 6839SOL     OW20968   0.075   3.888   2.396
 6839SOL    HW120969   0.155   3.869   2.348
 6839SOL    HW220970   0.062   3.810   2.451
 6840SOL     OW20971   5.018   4.643   2.533
 6840SOL    HW120972   5.096   4.589   2.521
 6840SOL    HW220973   5.037   4.724   2.484
 6841SOL     OW20974   4.539   4.992   3.276
 6841SOL    HW120975   4.506   5.026   3.359
 6841SOL    HW220976   4.465   5.001   3.216
 6842SOL     OW20977   3.984   4.038   2.578
 6842SOL    HW120978   3.898   4.074   2.555
 6842SOL    HW220979   3.982   4.032   2.673
 6843SOL     OW20980   4.549   4.726   3.233
 6843SOL    HW120981   4.596   4.717   3.150
 6843SOL    HW220982   4.551   4.820   3.252
 6844SOL     OW20983   4.640   4.636   2.153
 6844SOL    HW120984   4.702   4.669   2.088
 6844SOL    HW220985   4.688   4.566   2.198
 6845SOL     OW20986   4.087   5.027   3.360
 6845SOL    HW120987   4.078   5.100   3.299
 6845SOL    HW220988   4.012   4.971   3.342
 6846SOL     OW20989   4.782   4.835   2.576
 6846SOL    HW120990   4.709   4.784   2.613
 6846SOL    HW220991   4.840   4.769   2.539
 6847SOL     OW20992   4.739   3.963   2.831
 6847SOL    HW120993   4.737   3.917   2.747
 6847SOL    HW220994   4.735   3.894   2.897
 6848SOL     OW20995   3.982   5.048   2.148
 6848SOL    HW120996   3.890   5.050   2.120
 6848SOL    HW220997   3.983   5.095   2.231
 6849SOL     OW20998   3.837   4.750   3.582
 6849SOL    HW120999   3.761   4.724   3.635
 6849SOL    HW221000   3.911   4.710   3.628
 6850SOL     OW21001   4.399   3.919   3.362
 6850SOL    HW121002   4.484   3.899   3.321
 6850SOL    HW221003   4.422   3.952   3.449
 6851SOL     OW21004   3.804   4.055   1.896
 6851SOL    HW121005   3.716   4.037   1.861
 6851SOL    HW221006   3.833   4.131   1.846
 6852SOL     OW21007   5.165   4.583   3.265
 6852SOL    HW121008   5.112   4.641   3.210
 6852SOL    HW221009   5.253   4.590   3.229
 6853SOL     OW21010   3.789   3.879   2.168
 6853SOL    HW121011   3.776   3.959   2.117
 6853SOL    HW221012   3.875   3.846   2.140
 6854SOL     OW21013   4.907   5.058   1.983
 6854SOL    HW121014   4.813   5.040   1.984
 6854SOL    HW221015   4.932   5.055   2.075
 6855SOL     OW21016   4.343   4.555   3.296
 6855SOL    HW121017   4.401   4.630   3.280
 6855SOL    HW221018   4.403   4.480   3.304
 6856SOL     OW21019   4.442   4.285   3.564
 6856SOL    HW121020   4.485   4.346   3.625
 6856SOL    HW221021   4.463   4.198   3.598
 6857SOL     OW21022   5.183   4.925   3.495
 6857SOL    HW121023   5.171   4.938   3.589
 6857SOL    HW221024   5.278   4.929   3.482
 6858SOL     OW21025   4.937   4.044   2.317
 6858SOL    HW121026   4.999   3.972   2.305
 6858SOL    HW221027   4.968   4.089   2.396
 6859SOL     OW21028   4.313   4.460   2.533
 6859SOL    HW121029   4.352   4.546   2.519
 6859SOL    HW221030   4.247   4.452   2.464
 6860SOL     OW21031   4.582   5.094   1.883
 6860SOL    HW121032   4.559   5.096   1.976
 6860SOL    HW221033   4.582   5.185   1.855
 6861SOL     OW21034   4.593   4.694   2.717
 6861SOL    HW121035   4.642   4.621   2.756
 6861SOL    HW221036   4.556   4.740   2.791
 6862SOL     OW21037   4.809   4.712   1.956
 6862SOL    HW121038   4.781   4.759   1.877
 6862SOL    HW221039   4.882   4.658   1.925
 6863SOL     OW21040   3.945   5.021   3.714
 6863SOL    HW121041   3.879   4.957   3.688
 6863SOL    HW221042   3.933   5.030   3.808
 6864SOL     OW21043   3.812   4.953   2.532
 6864SOL    HW121044   3.812   4.902   2.613
 6864SOL    HW221045   3.875   4.909   2.475
 6865SOL     OW21046   4.398   5.098   3.471
 6865SOL    HW121047   4.319   5.071   3.518
 6865SOL    HW221048   4.430   5.174   3.519
 6866SOL     OW21049   4.153   4.158   2.388
 6866SOL    HW121050   4.183   4.087   2.331
 6866SOL    HW221051   4.104   4.113   2.457
 6867SOL     OW21052   0.124   5.232   2.909
 6867SOL    HW121053   0.040   5.206   2.873
 6867SOL    HW221054   0.107   5.248   3.002
 6868SOL     OW21055   4.056   4.281   3.154
 6868SOL    HW121056   4.111   4.226   3.209
 6868SOL    HW221057   4.075   4.253   3.065
 6869SOL     OW21058   5.144   3.943   2.977
 6869SOL    HW121059   5.191   3.880   3.032
 6869SOL    HW221060   5.098   3.998   3.040
 6870SOL     OW21061   4.728   3.741   3.002
 6870SOL    HW121062   4.676   3.673   2.959
 6870SOL    HW221063   4.816   3.703   3.007
 6871SOL     OW21064   4.529   5.045   2.146
 6871SOL    HW121065   4.473   4.970   2.168
 6871SOL    HW221066   4.584   5.057   2.223
 6872SOL     OW21067   4.346   5.300   3.157
 6872SOL    HW121068   4.351   0.053   3.236
 6872SOL    HW221069   4.438   5.281   3.136
 6873SOL     OW21070   5.055   3.769   2.029
 6873SOL    HW121071   5.075   3.728   1.944
 6873SOL    HW221072   4.970   3.732   2.053
 6874SOL     OW21073   5.026   4.182   2.541
 6874SOL    HW121074   4.973   4.262   2.545
 6874SOL    HW221075   5.014   4.142   2.627
 6875SOL     OW21076   0.002   3.951   2.746
 6875SOL    HW121077   5.237   3.938   2.815
 6875SOL    HW221078   5.272   4.029   2.699
 6876SOL     OW21079   3.766   4.792   2.171
 6876SOL    HW121080   3.860   4.786   2.154
 6876SOL    HW221081   3.740   4.702   2.192
 6877SOL     OW21082   3.951   4.347   3.849
 6877SOL    HW121083   3.862   4.345   3.884
 6877SOL    HW221084   3.942   4.323   3.757
 6878SOL     OW21085   3.949   4.007   4.716
 6878SOL    HW121086   3.977   3.972   4.801
 6878SOL    HW221087   3.859   3.975   4.706
 6879SOL     OW21088   3.726   4.107   4.362
 6879SOL    HW121089   3.644   4.133   4.404
 6879SOL    HW221090   3.704   4.029   4.312
 6880SOL     OW21091   4.292   5.009   4.907
 6880SOL    HW121092   4.207   5.007   4.862
 6880SOL    HW221093   4.304   5.101   4.931
 6881SOL     OW21094   5.274   5.230   4.414
 6881SOL    HW121095   5.272   5.217   4.509
 6881SOL    HW221096   5.182   5.230   4.388
 6882SOL     OW21097   4.860   4.423   4.421
 6882SOL    HW121098   4.911   4.503   4.412
 6882SOL    HW221099   4.811   4.434   4.503
 6883SOL     OW21100   4.476   4.866   4.765
 6883SOL    HW121101   4.410   4.898   4.826
 6883SOL    HW221102   4.507   4.944   4.719
 6884SOL     OW21103   4.596   4.493   5.547
 6884SOL    HW121104   4.578   4.564   5.609
 6884SOL    HW221105   4.617   4.537   5.465
 6885SOL     OW21106   4.410   4.723   4.370
 6885SOL    HW121107   4.475   4.715   4.440
 6885SOL    HW221108   4.341   4.778   4.409
 6886SOL     OW21109   4.434   4.872   5.540
 6886SOL    HW121110   4.483   4.951   5.563
 6886SOL    HW221111   4.353   4.904   5.502
 6887SOL     OW21112   4.061   5.145   4.782
 6887SOL    HW121113   3.982   5.100   4.751
 6887SOL    HW221114   4.097   5.187   4.704
 6888SOL     OW21115   5.123   5.238   5.064
 6888SOL    HW121116   5.142   0.007   5.129
 6888SOL    HW221117   5.101   5.161   5.117
 6889SOL     OW21118   4.175   4.121   5.208
 6889SOL    HW121119   4.250   4.062   5.214
 6889SOL    HW221120   4.099   4.065   5.223
 6890SOL     OW21121   4.867   5.048   5.427
 6890SOL    HW121122   4.884   5.064   5.519
 6890SOL    HW221123   4.804   4.975   5.427
 6891SOL     OW21124   3.933   5.159   4.246
 6891SOL    HW121125   3.963   5.237   4.291
 6891SOL    HW221126   3.883   5.110   4.311
 6892SOL     OW21127   3.986   4.811   4.616
 6892SOL    HW121128   3.983   4.723   4.654
 6892SOL    HW221129   3.929   4.863   4.672
 6893SOL     OW21130   4.306   4.706   3.860
 6893SOL    HW121131   4.354   4.754   3.792
 6893SOL    HW221132   4.344   4.737   3.942
 6894SOL     OW21133   3.840   4.378   4.284
 6894SOL    HW121134   3.811   4.289   4.305
 6894SOL    HW221135   3.832   4.426   4.366
 6895SOL     OW21136   3.711   0.012   3.820
 6895SOL    HW121137   3.725   5.223   3.852
 6895SOL    HW221138   3.731   0.068   3.895
 6896SOL     OW21139   0.111   4.656   4.287
 6896SOL    HW121140   0.201   4.626   4.303
 6896SOL    HW221141   0.119   4.751   4.281
 6897SOL     OW21142   3.848   4.468   5.309
 6897SOL    HW121143   3.939   4.495   5.313
 6897SOL    HW221144   3.798   4.549   5.316
 6898SOL     OW21145   4.347   5.099   4.464
 6898SOL    HW121146   4.293   5.020   4.460
 6898SOL    HW221147   4.329   5.145   4.381
 6899SOL     OW21148   5.023   4.975   5.142
 6899SOL    HW121149   5.048   4.902   5.086
 6899SOL    HW221150   5.068   4.958   5.225
 6900SOL     OW21151   4.541   3.726   4.235
 6900SOL    HW121152   4.581   3.810   4.213
 6900SOL    HW221153   4.447   3.746   4.243
 6901SOL     OW21154   3.913   4.687   4.997
 6901SOL    HW121155   3.998   4.646   4.983
 6901SOL    HW221156   3.852   4.636   4.943
 6902SOL     OW21157   4.061   3.973   5.542
 6902SOL    HW121158   4.103   4.057   5.559
 6902SOL    HW221159   3.970   3.986   5.569
 6903SOL     OW21160   5.179   5.154   4.674
 6903SOL    HW121161   5.110   5.165   4.740
 6903SOL    HW221162   5.164   5.067   4.638
 6904SOL     OW21163   0.041   0.165   4.286
 6904SOL    HW121164   0.085   0.128   4.210
 6904SOL    HW221165   0.030   0.092   4.347
 6905SOL     OW21166   4.319   4.443   3.992
 6905SOL    HW121167   4.323   4.526   3.944
 6905SOL    HW221168   4.254   4.459   4.061
 6906SOL     OW21169   4.994   4.061   4.641
 6906SOL    HW121170   4.906   4.032   4.664
 6906SOL    HW221171   5.049   4.027   4.712
 6907SOL     OW21172   4.513   4.342   5.173
 6907SOL    HW121173   4.488   4.317   5.262
 6907SOL    HW221174   4.476   4.273   5.117
 6908SOL     OW21175   5.114   4.206   5.405
 6908SOL    HW121176   5.117   4.242   5.494
 6908SOL    HW221177   5.192   4.152   5.399
 6909SOL     OW21178   4.674   4.610   5.308
 6909SOL    HW121179   4.728   4.540   5.271
 6909SOL    HW221180   4.627   4.645   5.233
 6910SOL     OW21181   4.715   4.136   4.960
 6910SOL    HW121182   4.627   4.154   4.993
 6910SOL    HW221183   4.701   4.091   4.877
 6911SOL     OW21184   4.776   4.422   4.149
 6911SOL    HW121185   4.793   4.416   4.243
 6911SOL    HW221186   4.693   4.376   4.136
 6912SOL     OW21187   3.811   4.545   4.501
 6912SOL    HW121188   3.892   4.538   4.552
 6912SOL    HW221189   3.768   4.623   4.536
 6913SOL     OW21190   4.621   4.073   3.918
 6913SOL    HW121191   4.659   4.135   3.857
 6913SOL    HW221192   4.634   3.987   3.877
 6914SOL     OW21193   5.095   4.872   4.273
 6914SOL    HW121194   5.186   4.874   4.243
 6914SOL    HW221195   5.048   4.930   4.212
 6915SOL     OW21196   4.274   3.903   4.619
 6915SOL    HW121197   4.276   3.933   4.709
 6915SOL    HW221198   4.275   3.983   4.566
 6916SOL     OW21199   4.742   5.165   4.197
 6916SOL    HW121200   4.667   5.224   4.195
 6916SOL    HW221201   4.761   5.152   4.290
 6917SOL     OW21202   4.936   5.263   5.287
 6917SOL    HW121203   4.915   5.179   5.328
 6917SOL    HW221204   4.897   5.259   5.200
 6918SOL     OW21205   4.042   4.681   3.976
 6918SOL    HW121206   4.124   4.701   3.931
 6918SOL    HW221207   4.012   4.599   3.936
 6919SOL     OW21208   4.188   4.987   5.466
 6919SOL    HW121209   4.162   4.990   5.374
 6919SOL    HW221210   4.105   4.987   5.514
 6920SOL     OW21211   4.789   0.170   3.935
 6920SOL    HW121212   4.803   0.116   4.013
 6920SOL    HW221213   4.864   0.149   3.878
 6921SOL     OW21214   3.926   4.002   5.226
 6921SOL    HW121215   3.845   4.053   5.225
 6921SOL    HW221216   3.906   3.927   5.281
 6922SOL     OW21217   5.117   3.831   4.148
 6922SOL    HW121218   5.099   3.812   4.056
 6922SOL    HW221219   5.212   3.848   4.150
 6923SOL     OW21220   4.119   4.419   4.199
 6923SOL    HW121221   4.138   4.326   4.211
 6923SOL    HW221222   4.025   4.427   4.215
 6924SOL     OW21223   4.364   3.844   3.828
 6924SOL    HW121224   4.429   3.776   3.842
 6924SOL    HW221225   4.312   3.814   3.753
 6925SOL     OW21226   4.488   4.003   5.480
 6925SOL    HW121227   4.566   3.949   5.478
 6925SOL    HW221228   4.441   3.976   5.559
 6926SOL     OW21229   5.057   4.317   5.156
 6926SOL    HW121230   5.088   4.286   5.241
 6926SOL    HW221231   5.101   4.401   5.143
 6927SOL     OW21232   4.538   5.116   4.663
 6927SOL    HW121233   4.619   5.105   4.612
 6927SOL    HW221234   4.469   5.124   4.597
 6928SOL     OW21235   4.652   4.233   4.626
 6928SOL    HW121236   4.628   4.224   4.533
 6928SOL    HW221237   4.682   4.146   4.651
 6929SOL     OW21238   4.274   3.787   4.223
 6929SOL    HW121239   4.194   3.787   4.275
 6929SOL    HW221240   4.267   3.865   4.168
 6930SOL     OW21241   5.132   4.905   3.767
 6930SOL    HW121242   5.134   4.824   3.818
 6930SOL    HW221243   5.044   4.940   3.782
 6931SOL     OW21244   4.015   3.772   3.909
 6931SOL    HW121245   4.073   3.836   3.868
 6931SOL    HW221246   4.074   3.709   3.951
 6932SOL     OW21247   4.663   3.972   4.181
 6932SOL    HW121248   4.637   4.011   4.098
 6932SOL    HW221249   4.758   3.986   4.186
 6933SOL     OW21250   4.801   4.407   5.184
 6933SOL    HW121251   4.736   4.337   5.185
 6933SOL    HW221252   4.885   4.361   5.175
 6934SOL     OW21253   4.986   5.264   4.490
 6934SOL    HW121254   4.944   0.049   4.476
 6934SOL    HW221255   5.040   5.277   4.568
 6935SOL     OW21256   4.191   4.873   4.451
 6935SOL    HW121257   4.124   4.852   4.516
 6935SOL    HW221258   4.148   4.856   4.366
 6936SOL     OW21259   4.747   4.264   3.748
 6936SOL    HW121260   4.702   4.346   3.728
 6936SOL    HW221261   4.808   4.286   3.818
 6937SOL     OW21262   3.805   4.278   5.117
 6937SOL    HW121263   3.897   4.277   5.090
 6937SOL    HW221264   3.800   4.348   5.182
 6938SOL     OW21265   4.282   3.951   4.892
 6938SOL    HW121266   4.324   3.877   4.934
 6938SOL    HW221267   4.191   3.947   4.921
 6939SOL     OW21268   4.591   4.182   4.363
 6939SOL    HW121269   4.546   4.238   4.299
 6939SOL    HW221270   4.613   4.103   4.314
 6940SOL     OW21271   4.739   3.778   4.474
 6940SOL    HW121272   4.681   3.771   4.398
 6940SOL    HW221273   4.716   3.702   4.528
 6941SOL     OW21274   5.151   4.902   4.573
 6941SOL    HW121275   5.099   4.823   4.586
 6941SOL    HW221276   5.166   4.905   4.478
 6942SOL     OW21277   4.199   5.150   3.872
 6942SOL    HW121278   4.141   5.096   3.926
 6942SOL    HW221279   4.212   5.099   3.792
 6943SOL     OW21280   5.129   4.284   3.806
 6943SOL    HW121281   5.054   4.275   3.866
 6943SOL    HW221282   5.203   4.247   3.855
 6944SOL     OW21283   4.250   3.987   4.039
 6944SOL    HW121284   4.297   3.941   3.970
 6944SOL    HW221285   4.225   4.070   4.000
 6945SOL     OW21286   4.785   5.073   5.052
 6945SOL    HW121287   4.707   5.048   5.101
 6945SOL    HW221288   4.858   5.037   5.103
 6946SOL     OW21289   4.850   4.924   4.832
 6946SOL    HW121290   4.800   4.966   4.902
 6946SOL    HW221291   4.804   4.948   4.752
 6947SOL     OW21292   4.642   3.820   5.119
 6947SOL    HW121293   4.664   3.802   5.027
 6947SOL    HW221294   4.721   3.859   5.155
 6948SOL     OW21295   4.705   4.831   5.456
 6948SOL    HW121296   4.613   4.851   5.474
 6948SOL    HW221297   4.702   4.757   5.396
 6949SOL     OW21298   4.429   4.784   4.095
 6949SOL    HW121299   4.416   4.766   4.188
 6949SOL    HW221300   4.506   4.733   4.072
 6950SOL     OW21301   4.144   4.540   4.976
 6950SOL    HW121302   4.212   4.550   5.042
 6950SOL    HW221303   4.109   4.452   4.989
 6951SOL     OW21304   4.987   4.098   5.003
 6951SOL    HW121305   5.022   4.178   5.043
 6951SOL    HW221306   4.897   4.121   4.979
 6952SOL     OW21307   4.065   4.835   4.211
 6952SOL    HW121308   4.066   4.909   4.150
 6952SOL    HW221309   4.065   4.757   4.156
 6953SOL     OW21310   4.274   4.259   4.584
 6953SOL    HW121311   4.288   4.317   4.509
 6953SOL    HW221312   4.341   4.284   4.647
 6954SOL     OW21313   4.985   5.080   4.111
 6954SOL    HW121314   5.037   5.156   4.135
 6954SOL    HW221315   4.896   5.101   4.139
 6955SOL     OW21316   4.977   5.183   4.852
 6955SOL    HW121317   5.030   5.207   4.927
 6955SOL    HW221318   4.940   5.098   4.874
 6956SOL     OW21319   4.073   5.236   5.036
 6956SOL    HW121320   4.062   5.200   4.948
 6956SOL    HW221321   4.167   5.256   5.042
 6957SOL     OW21322   4.140   4.469   5.326
 6957SOL    HW121323   4.202   4.513   5.269
 6957SOL    HW221324   4.179   4.383   5.343
 6958SOL     OW21325   4.718   3.854   5.479
 6958SOL    HW121326   4.776   3.925   5.455
 6958SOL    HW221327   4.764   3.775   5.453
 6959SOL     OW21328   4.221   3.762   5.473
 6959SOL    HW121329   4.176   3.709   5.408
 6959SOL    HW221330   4.164   3.838   5.486
 6960SOL     OW21331   4.308   4.597   4.756
 6960SOL    HW121332   4.339   4.687   4.755
 6960SOL    HW221333   4.252   4.591   4.833
 6961SOL     OW21334   5.086   4.579   4.758
 6961SOL    HW121335   5.009   4.556   4.707
 6961SOL    HW221336   5.143   4.503   4.751
 6962SOL     OW21337   4.924   4.254   3.986
 6962SOL    HW121338   4.932   4.175   4.039
 6962SOL    HW221339   4.882   4.318   4.043
 6963SOL     OW21340   4.021   3.921   4.971
 6963SOL    HW121341   3.984   3.953   5.053
 6963SOL    HW221342   4.002   3.827   4.972
 6964SOL     OW21343   3.780   5.048   5.009
 6964SOL    HW121344   3.802   4.982   5.074
 6964SOL    HW221345   3.814   5.130   5.046
 6965SOL     OW21346   4.446   4.354   4.779
 6965SOL    HW121347   4.522   4.339   4.724
 6965SOL    HW221348   4.418   4.443   4.760
 6966SOL     OW21349   4.029   3.787   4.348
 6966SOL    HW121350   4.008   3.877   4.369
 6966SOL    HW221351   4.037   3.743   4.433
 6967SOL     OW21352   0.033   4.124   4.081
 6967SOL    HW121353   0.049   4.047   4.135
 6967SOL    HW221354   0.028   4.196   4.143
 6968SOL     OW21355   4.751   4.482   4.682
 6968SOL    HW121356   4.747   4.500   4.776
 6968SOL    HW221357   4.726   4.390   4.674
 6969SOL     OW21358   4.076   4.640   5.533
 6969SOL    HW121359   4.158   4.660   5.579
 6969SOL    HW221360   4.102   4.577   5.465
 6970SOL     OW21361   5.028   4.552   3.760
 6970SOL    HW121362   5.066   4.464   3.764
 6970SOL    HW221363   5.056   4.587   3.676
 6971SOL     OW21364   4.779   5.084   4.543
 6971SOL    HW121365   4.786   4.997   4.504
 6971SOL    HW221366   4.866   5.123   4.531
 6972SOL     OW21367   4.032   4.532   4.671
 6972SOL    HW121368   4.125   4.553   4.664
 6972SOL    HW221369   4.030   4.442   4.702
 6973SOL     OW21370   4.053   4.252   4.737
 6973SOL    HW121371   4.018   4.164   4.723
 6973SOL    HW221372   4.130   4.257   4.680
 6974SOL     OW21373   4.856   4.099   5.407
 6974SOL    HW121374   4.808   4.153   5.469
 6974SOL    HW221375   4.943   4.139   5.402
 6975SOL     OW21376   4.885   3.924   5.194
 6975SOL    HW121377   4.873   3.986   5.266
 6975SOL    HW221378   4.925   3.975   5.124
 6976SOL     OW21379   3.730   5.038   3.915
 6976SOL    HW121380   3.639   5.056   3.891
 6976SOL    HW221381   3.728   4.950   3.952
 6977SOL     OW21382   4.702   4.514   4.949
 6977SOL    HW121383   4.760   4.494   5.022
 6977SOL    HW221384   4.618   4.475   4.974
 6978SOL     OW21385   3.760   4.270   4.841
 6978SOL    HW121386   3.840   4.260   4.790
 6978SOL    HW221387   3.789   4.272   4.932
 6979SOL     OW21388   3.916   4.245   5.453
 6979SOL    HW121389   3.972   4.205   5.387
 6979SOL    HW221390   3.876   4.320   5.409
 6980SOL     OW21391   5.116   4.659   5.390
 6980SOL    HW121392   5.122   4.753   5.377
 6980SOL    HW221393   5.120   4.622   5.301
 6981SOL     OW21394   4.541   4.294   4.087
 6981SOL    HW121395   4.545   4.219   4.027
 6981SOL    HW221396   4.467   4.346   4.056
 6982SOL     OW21397   3.927   5.275   5.470
 6982SOL    HW121398   3.907   0.026   5.548
 6982SOL    HW221399   3.940   5.186   5.502
 6983SOL     OW21400   4.430   4.172   4.980
 6983SOL    HW121401   4.375   4.099   4.952
 6983SOL    HW221402   4.424   4.235   4.909
 6984SOL     OW21403   4.186   4.216   3.909
 6984SOL    HW121404   4.245   4.288   3.932
 6984SOL    HW221405   4.101   4.258   3.897
 6985SOL     OW21406   3.867   4.863   5.196
 6985SOL    HW121407   3.869   4.813   5.278
 6985SOL    HW221408   3.884   4.798   5.128
 6986SOL     OW21409   5.047   4.768   4.951
 6986SOL    HW121410   5.071   4.705   4.882
 6986SOL    HW221411   4.978   4.821   4.911
 6987SOL     OW21412   5.035   4.586   4.040
 6987SOL    HW121413   4.955   4.551   4.078
 6987SOL    HW221414   5.024   4.576   3.946
 6988SOL     OW21415   3.820   4.987   4.746
 6988SOL    HW121416   3.799   5.006   4.838
 6988SOL    HW221417   3.740   4.949   4.710
 6989SOL     OW21418   4.470   0.026   5.440
 6989SOL    HW121419   4.379   0.055   5.439
 6989SOL    HW221420   4.508   0.065   5.361
 6990SOL     OW21421   0.075   3.888   4.258
 6990SOL    HW121422   0.155   3.869   4.209
 6990SOL    HW221423   0.062   3.810   4.313
 6991SOL     OW21424   5.018   4.643   4.395
 6991SOL    HW121425   5.096   4.589   4.383
 6991SOL    HW221426   5.037   4.724   4.346
 6992SOL     OW21427   4.539   4.992   5.138
 6992SOL    HW121428   4.506   5.026   5.221
 6992SOL    HW221429   4.465   5.002   5.078
 6993SOL     OW21430   3.984   4.038   4.440
 6993SOL    HW121431   3.898   4.073   4.416
 6993SOL    HW221432   3.982   4.032   4.535
 6994SOL     OW21433   4.549   4.726   5.095
 6994SOL    HW121434   4.596   4.717   5.012
 6994SOL    HW221435   4.551   4.820   5.114
 6995SOL     OW21436   4.641   4.636   4.015
 6995SOL    HW121437   4.702   4.669   3.950
 6995SOL    HW221438   4.688   4.566   4.060
 6996SOL     OW21439   4.087   5.027   5.222
 6996SOL    HW121440   4.078   5.100   5.161
 6996SOL    HW221441   4.012   4.971   5.204
 6997SOL     OW21442   4.782   4.835   4.438
 6997SOL    HW121443   4.709   4.784   4.475
 6997SOL    HW221444   4.840   4.769   4.400
 6998SOL     OW21445   4.739   3.963   4.693
 6998SOL    HW121446   4.737   3.917   4.609
 6998SOL    HW221447   4.735   3.894   4.759
 6999SOL     OW21448   3.982   5.048   4.010
 6999SOL    HW121449   3.891   5.050   3.982
 6999SOL    HW221450   3.983   5.095   4.093
 7000SOL     OW21451   3.837   4.749   5.444
 7000SOL    HW121452   3.761   4.724   5.497
 7000SOL    HW221453   3.911   4.710   5.490
 7001SOL     OW21454   4.399   3.919   5.224
 7001SOL    HW121455   4.484   3.899   5.183
 7001SOL    HW221456   4.422   3.952   5.311
 7002SOL     OW21457   3.803   4.055   3.758
 7002SOL    HW121458   3.716   4.036   3.723
 7002SOL    HW221459   3.833   4.131   3.708
 7003SOL     OW21460   5.165   4.583   5.127
 7003SOL    HW121461   5.112   4.641   5.072
 7003SOL    HW221462   5.253   4.590   5.091
 7004SOL     OW21463   3.790   3.880   4.030
 7004SOL    HW121464   3.776   3.959   3.979
 7004SOL    HW221465   3.875   3.846   4.002
 7005SOL     OW21466   4.907   5.058   3.845
 7005SOL    HW121467   4.813   5.040   3.846
 7005SOL    HW221468   4.932   5.055   3.937
 7006SOL     OW21469   4.343   4.555   5.158
 7006SOL    HW121470   4.400   4.630   5.142
 7006SOL    HW221471   4.403   4.481   5.166
 7007SOL     OW21472   4.441   4.286   5.426
 7007SOL    HW121473   4.484   4.346   5.487
 7007SOL    HW221474   4.464   4.199   5.460
 7008SOL     OW21475   5.183   4.925   5.357
 7008SOL    HW121476   5.171   4.938   5.451
 7008SOL    HW221477   5.278   4.930   5.344
 7009SOL     OW21478   4.937   4.044   4.179
 7009SOL    HW121479   4.999   3.972   4.167
 7009SOL    HW221480   4.968   4.089   4.258
 7010SOL     OW21481   4.313   4.460   4.395
 7010SOL    HW121482   4.352   4.546   4.381
 7010SOL    HW221483   4.247   4.452   4.327
 7011SOL     OW21484   4.582   5.094   3.745
 7011SOL    HW121485   4.559   5.096   3.838
 7011SOL    HW221486   4.582   5.186   3.718
 7012SOL     OW21487   4.593   4.694   4.579
 7012SOL    HW121488   4.642   4.621   4.618
 7012SOL    HW221489   4.556   4.740   4.653
 7013SOL     OW21490   4.810   4.712   3.817
 7013SOL    HW121491   4.781   4.760   3.739
 7013SOL    HW221492   4.882   4.658   3.787
 7014SOL     OW21493   3.945   5.021   5.576
 7014SOL    HW121494   3.879   4.957   5.550
 7014SOL    HW221495   3.933   5.031   5.670
 7015SOL     OW21496   3.812   4.953   4.394
 7015SOL    HW121497   3.812   4.902   4.475
 7015SOL    HW221498   3.875   4.909   4.337
 7016SOL     OW21499   4.398   5.098   5.333
 7016SOL    HW121500   4.319   5.071   5.380
 7016SOL    HW221501   4.430   5.174   5.381
 7017SOL     OW21502   4.153   4.158   4.250
 7017SOL    HW121503   4.183   4.087   4.193
 7017SOL    HW221504   4.104   4.113   4.319
 7018SOL     OW21505   0.124   5.232   4.772
 7018SOL    HW121506   0.040   5.206   4.735
 7018SOL    HW221507   0.107   5.247   4.864
 7019SOL     OW21508   4.056   4.281   5.016
 7019SOL    HW121509   4.111   4.226   5.071
 7019SOL    HW221510   4.075   4.253   4.927
 7020SOL     OW21511   5.144   3.943   4.839
 7020SOL    HW121512   5.192   3.880   4.894
 7020SOL    HW221513   5.098   3.998   4.902
 7021SOL     OW21514   4.728   3.741   4.864
 7021SOL    HW121515   4.676   3.673   4.820
 7021SOL    HW221516   4.816   3.703   4.869
 7022SOL     OW21517   4.529   5.045   4.008
 7022SOL    HW121518   4.473   4.970   4.030
 7022SOL    HW221519   4.584   5.057   4.085
 7023SOL     OW21520   4.346   5.300   5.019
 7023SOL    HW121521   4.351   0.053   5.098
 7023SOL    HW221522   4.438   5.281   4.998
 7024SOL     OW21523   5.055   3.769   3.891
 7024SOL    HW121524   5.075   3.728   3.806
 7024SOL    HW221525   4.970   3.732   3.915
 7025SOL     OW21526   5.026   4.182   4.403
 7025SOL    HW121527   4.973   4.262   4.407
 7025SOL    HW221528   5.014   4.142   4.489
 7026SOL     OW21529   0.002   3.951   4.608
 7026SOL    HW121530   5.237   3.938   4.677
 7026SOL    HW221531   5.272   4.029   4.561
 7027SOL     OW21532   3.766   4.792   4.033
 7027SOL    HW121533   3.860   4.786   4.016
 7027SOL    HW221534   3.740   4.702   4.054
 7028SOL     OW21535   3.951   4.347   5.712
 7028SOL    HW121536   3.862   4.345   5.746
 7028SOL    HW221537   3.941   4.323   5.619
 7029SOL     OW21538   3.949   4.007   6.578
 7029SOL    HW121539   3.977   3.972   6.663
 7029SOL    HW221540   3.859   3.975   6.568
 7030SOL     OW21541   3.726   4.108   6.224
 7030SOL    HW121542   3.644   4.134   6.266
 7030SOL    HW221543   3.704   4.029   6.175
 7031SOL     OW21544   4.292   5.009   6.769
 7031SOL    HW121545   4.207   5.007   6.724
 7031SOL    HW221546   4.304   5.101   6.792
 7032SOL     OW21547   5.274   5.230   6.276
 7032SOL    HW121548   5.272   5.217   6.371
 7032SOL    HW221549   5.182   5.230   6.250
 7033SOL     OW21550   4.860   4.423   6.283
 7033SOL    HW121551   4.911   4.503   6.274
 7033SOL    HW221552   4.811   4.434   6.365
 7034SOL     OW21553   4.476   4.866   6.627
 7034SOL    HW121554   4.410   4.898   6.688
 7034SOL    HW221555   4.507   4.944   6.581
 7035SOL     OW21556   4.595   4.494   7.407
 7035SOL    HW121557   4.571   4.568   7.463
 7035SOL    HW221558   4.619   4.534   7.323
 7036SOL     OW21559   4.410   4.723   6.232
 7036SOL    HW121560   4.475   4.715   6.302
 7036SOL    HW221561   4.341   4.778   6.271
 7037SOL     OW21562   4.434   4.873   7.401
 7037SOL    HW121563   4.483   4.952   7.424
 7037SOL    HW221564   4.353   4.905   7.363
 7038SOL     OW21565   4.061   5.145   6.644
 7038SOL    HW121566   3.982   5.100   6.614
 7038SOL    HW221567   4.097   5.187   6.566
 7039SOL     OW21568   5.124   5.237   6.926
 7039SOL    HW121569   5.142   0.006   6.990
 7039SOL    HW221570   5.100   5.161   6.979
 7040SOL     OW21571   4.174   4.121   7.070
 7040SOL    HW121572   4.250   4.062   7.077
 7040SOL    HW221573   4.098   4.065   7.085
 7041SOL     OW21574   4.867   5.047   7.287
 7041SOL    HW121575   4.886   5.064   7.379
 7041SOL    HW221576   4.804   4.974   7.289
 7042SOL     OW21577   3.933   5.159   6.108
 7042SOL    HW121578   3.963   5.237   6.153
 7042SOL    HW221579   3.884   5.110   6.173
 7043SOL     OW21580   3.986   4.811   6.478
 7043SOL    HW121581   3.983   4.723   6.516
 7043SOL    HW221582   3.929   4.863   6.534
 7044SOL     OW21583   4.306   4.706   5.722
 7044SOL    HW121584   4.354   4.754   5.654
 7044SOL    HW221585   4.344   4.737   5.804
 7045SOL     OW21586   3.840   4.378   6.146
 7045SOL    HW121587   3.811   4.289   6.167
 7045SOL    HW221588   3.832   4.426   6.228
 7046SOL     OW21589   3.711   0.012   5.682
 7046SOL    HW121590   3.725   5.223   5.714
 7046SOL    HW221591   3.731   0.068   5.757
 7047SOL     OW21592   0.112   4.656   6.150
 7047SOL    HW121593   0.201   4.626   6.165
 7047SOL    HW221594   0.119   4.751   6.143
 7048SOL     OW21595   3.848   4.467   7.171
 7048SOL    HW121596   3.939   4.496   7.175
 7048SOL    HW221597   3.797   4.548   7.178
 7049SOL     OW21598   4.347   5.099   6.326
 7049SOL    HW121599   4.293   5.020   6.322
 7049SOL    HW221600   4.329   5.145   6.244
 7050SOL     OW21601   5.023   4.975   7.004
 7050SOL    HW121602   5.048   4.902   6.947
 7050SOL    HW221603   5.068   4.957   7.087
 7051SOL     OW21604   4.541   3.726   6.097
 7051SOL    HW121605   4.581   3.810   6.075
 7051SOL    HW221606   4.447   3.746   6.104
 7052SOL     OW21607   3.913   4.687   6.859
 7052SOL    HW121608   3.998   4.646   6.844
 7052SOL    HW221609   3.852   4.636   6.806
 7053SOL     OW21610   4.060   3.972   7.406
 7053SOL    HW121611   4.102   4.056   7.419
 7053SOL    HW221612   3.969   3.985   7.431
 7054SOL     OW21613   5.179   5.154   6.536
 7054SOL    HW121614   5.110   5.165   6.602
 7054SOL    HW221615   5.164   5.067   6.500
 7055SOL     OW21616   0.041   0.165   6.149
 7055SOL    HW121617   0.085   0.128   6.072
 7055SOL    HW221618   0.031   0.092   6.209
 7056SOL     OW21619   4.319   4.443   5.854
 7056SOL    HW121620   4.323   4.526   5.806
 7056SOL    HW221621   4.254   4.459   5.923
 7057SOL     OW21622   4.994   4.061   6.503
 7057SOL    HW121623   4.906   4.032   6.526
 7057SOL    HW221624   5.049   4.027   6.574
 7058SOL     OW21625   4.513   4.342   7.035
 7058SOL    HW121626   4.488   4.317   7.124
 7058SOL    HW221627   4.476   4.273   6.979
 7059SOL     OW21628   5.114   4.207   7.267
 7059SOL    HW121629   5.117   4.242   7.357
 7059SOL    HW221630   5.192   4.152   7.260
 7060SOL     OW21631   4.675   4.610   7.169
 7060SOL    HW121632   4.729   4.540   7.132
 7060SOL    HW221633   4.627   4.646   7.094
 7061SOL     OW21634   4.715   4.136   6.822
 7061SOL    HW121635   4.627   4.154   6.855
 7061SOL    HW221636   4.701   4.091   6.739
 7062SOL     OW21637   4.776   4.422   6.011
 7062SOL    HW121638   4.793   4.416   6.105
 7062SOL    HW221639   4.693   4.376   5.998
 7063SOL     OW21640   3.812   4.545   6.363
 7063SOL    HW121641   3.892   4.538   6.414
 7063SOL    HW221642   3.768   4.623   6.398
 7064SOL     OW21643   4.621   4.073   5.780
 7064SOL    HW121644   4.659   4.135   5.719
 7064SOL    HW221645   4.635   3.987   5.740
 7065SOL     OW21646   5.095   4.872   6.135
 7065SOL    HW121647   5.186   4.874   6.105
 7065SOL    HW221648   5.048   4.930   6.074
 7066SOL     OW21649   4.274   3.903   6.481
 7066SOL    HW121650   4.277   3.933   6.572
 7066SOL    HW221651   4.275   3.983   6.429
 7067SOL     OW21652   4.742   5.165   6.059
 7067SOL    HW121653   4.667   5.224   6.057
 7067SOL    HW221654   4.761   5.152   6.152
 7068SOL     OW21655   4.938   5.263   7.149
 7068SOL    HW121656   4.916   5.179   7.189
 7068SOL    HW221657   4.897   5.260   7.063
 7069SOL     OW21658   4.042   4.681   5.838
 7069SOL    HW121659   4.124   4.701   5.793
 7069SOL    HW221660   4.012   4.599   5.798
 7070SOL     OW21661   4.187   4.987   7.329
 7070SOL    HW121662   4.160   4.990   7.238
 7070SOL    HW221663   4.104   4.987   7.378
 7071SOL     OW21664   4.789   0.170   5.797
 7071SOL    HW121665   4.803   0.116   5.875
 7071SOL    HW221666   4.864   0.149   5.740
 7072SOL     OW21667   3.926   4.001   7.089
 7072SOL    HW121668   3.844   4.051   7.086
 7072SOL    HW221669   3.905   3.922   7.139
 7073SOL     OW21670   5.117   3.831   6.010
 7073SOL    HW121671   5.099   3.812   5.918
 7073SOL    HW221672   5.212   3.848   6.012
 7074SOL     OW21673   4.119   4.419   6.061
 7074SOL    HW121674   4.138   4.326   6.073
 7074SOL    HW221675   4.025   4.427   6.077
 7075SOL     OW21676   4.364   3.844   5.690
 7075SOL    HW121677   4.429   3.776   5.704
 7075SOL    HW221678   4.312   3.813   5.615
 7076SOL     OW21679   4.487   4.003   7.342
 7076SOL    HW121680   4.566   3.948   7.340
 7076SOL    HW221681   4.445   3.980   7.425
 7077SOL     OW21682   5.057   4.317   7.018
 7077SOL    HW121683   5.088   4.286   7.103
 7077SOL    HW221684   5.101   4.401   7.005
 7078SOL     OW21685   4.538   5.116   6.525
 7078SOL    HW121686   4.619   5.105   6.474
 7078SOL    HW221687   4.469   5.124   6.459
 7079SOL     OW21688   4.652   4.233   6.488
 7079SOL    HW121689   4.628   4.224   6.395
 7079SOL    HW221690   4.682   4.146   6.513
 7080SOL     OW21691   4.274   3.787   6.085
 7080SOL    HW121692   4.194   3.787   6.137
 7080SOL    HW221693   4.267   3.865   6.030
 7081SOL     OW21694   5.132   4.905   5.629
 7081SOL    HW121695   5.134   4.824   5.680
 7081SOL    HW221696   5.044   4.940   5.644
 7082SOL     OW21697   4.015   3.772   5.771
 7082SOL    HW121698   4.073   3.836   5.731
 7082SOL    HW221699   4.074   3.709   5.813
 7083SOL     OW21700   4.663   3.972   6.043
 7083SOL    HW121701   4.637   4.011   5.960
 7083SOL    HW221702   4.758   3.986   6.048
 7084SOL     OW21703   4.801   4.406   7.045
 7084SOL    HW121704   4.735   4.337   7.047
 7084SOL    HW221705   4.885   4.361   7.036
 7085SOL     OW21706   4.986   5.264   6.352
 7085SOL    HW121707   4.943   0.049   6.338
 7085SOL    HW221708   5.040   5.277   6.430
 7086SOL     OW21709   4.191   4.873   6.313
 7086SOL    HW121710   4.124   4.852   6.378
 7086SOL    HW221711   4.148   4.856   6.228
 7087SOL     OW21712   4.747   4.264   5.610
 7087SOL    HW121713   4.702   4.346   5.590
 7087SOL    HW221714   4.808   4.286   5.680
 7088SOL     OW21715   3.805   4.278   6.978
 7088SOL    HW121716   3.897   4.277   6.952
 7088SOL    HW221717   3.800   4.348   7.044
 7089SOL     OW21718   4.282   3.951   6.754
 7089SOL    HW121719   4.325   3.877   6.797
 7089SOL    HW221720   4.191   3.947   6.783
 7090SOL     OW21721   4.591   4.182   6.225
 7090SOL    HW121722   4.546   4.238   6.161
 7090SOL    HW221723   4.613   4.103   6.176
 7091SOL     OW21724   4.740   3.778   6.336
 7091SOL    HW121725   4.682   3.771   6.260
 7091SOL    HW221726   4.717   3.702   6.390
 7092SOL     OW21727   5.151   4.902   6.435
 7092SOL    HW121728   5.099   4.823   6.448
 7092SOL    HW221729   5.167   4.906   6.340
 7093SOL     OW21730   4.199   5.150   5.734
 7093SOL    HW121731   4.141   5.096   5.788
 7093SOL    HW221732   4.212   5.099   5.654
 7094SOL     OW21733   5.129   4.284   5.668
 7094SOL    HW121734   5.054   4.275   5.728
 7094SOL    HW221735   5.203   4.247   5.717
 7095SOL     OW21736   4.249   3.986   5.901
 7095SOL    HW121737   4.297   3.941   5.832
 7095SOL    HW221738   4.225   4.070   5.862
 7096SOL     OW21739   4.785   5.073   6.914
 7096SOL    HW121740   4.707   5.049   6.963
 7096SOL    HW221741   4.858   5.037   6.965
 7097SOL     OW21742   4.850   4.924   6.694
 7097SOL    HW121743   4.800   4.966   6.764
 7097SOL    HW221744   4.804   4.948   6.613
 7098SOL     OW21745   4.641   3.820   6.980
 7098SOL    HW121746   4.664   3.802   6.889
 7098SOL    HW221747   4.721   3.859   7.017
 7099SOL     OW21748   4.706   4.829   7.321
 7099SOL    HW121749   4.614   4.851   7.336
 7099SOL    HW221750   4.703   4.756   7.260
 7100SOL     OW21751   4.429   4.784   5.957
 7100SOL    HW121752   4.416   4.766   6.050
 7100SOL    HW221753   4.506   4.732   5.934
 7101SOL     OW21754   4.144   4.540   6.837
 7101SOL    HW121755   4.212   4.550   6.904
 7101SOL    HW221756   4.109   4.452   6.851
 7102SOL     OW21757   4.987   4.099   6.865
 7102SOL    HW121758   5.022   4.178   6.905
 7102SOL    HW221759   4.897   4.121   6.841
 7103SOL     OW21760   4.065   4.835   6.073
 7103SOL    HW121761   4.066   4.909   6.012
 7103SOL    HW221762   4.065   4.757   6.018
 7104SOL     OW21763   4.274   4.259   6.446
 7104SOL    HW121764   4.288   4.317   6.371
 7104SOL    HW221765   4.340   4.284   6.509
 7105SOL     OW21766   4.985   5.080   5.973
 7105SOL    HW121767   5.037   5.156   5.997
 7105SOL    HW221768   4.896   5.101   6.001
 7106SOL     OW21769   4.977   5.183   6.714
 7106SOL    HW121770   5.030   5.207   6.789
 7106SOL    HW221771   4.940   5.098   6.735
 7107SOL     OW21772   4.073   5.236   6.898
 7107SOL    HW121773   4.062   5.200   6.810
 7107SOL    HW221774   4.167   5.256   6.904
 7108SOL     OW21775   4.140   4.469   7.188
 7108SOL    HW121776   4.203   4.513   7.131
 7108SOL    HW221777   4.177   4.382   7.204
 7109SOL     OW21778   4.718   3.854   7.340
 7109SOL    HW121779   4.777   3.925   7.316
 7109SOL    HW221780   4.765   3.774   7.314
 7110SOL     OW21781   4.222   3.762   7.335
 7110SOL    HW121782   4.177   3.708   7.270
 7110SOL    HW221783   4.165   3.837   7.348
 7111SOL     OW21784   4.308   4.597   6.617
 7111SOL    HW121785   4.339   4.687   6.617
 7111SOL    HW221786   4.252   4.591   6.695
 7112SOL     OW21787   5.086   4.579   6.620
 7112SOL    HW121788   5.009   4.556   6.569
 7112SOL    HW221789   5.143   4.503   6.613
 7113SOL     OW21790   4.924   4.254   5.848
 7113SOL    HW121791   4.932   4.175   5.901
 7113SOL    HW221792   4.882   4.318   5.905
 7114SOL     OW21793   4.021   3.921   6.833
 7114SOL    HW121794   3.984   3.953   6.915
 7114SOL    HW221795   4.003   3.827   6.834
 7115SOL     OW21796   3.780   5.048   6.871
 7115SOL    HW121797   3.802   4.982   6.936
 7115SOL    HW221798   3.813   5.130   6.908
 7116SOL     OW21799   4.446   4.354   6.641
 7116SOL    HW121800   4.522   4.339   6.585
 7116SOL    HW221801   4.418   4.443   6.622
 7117SOL     OW21802   4.029   3.787   6.210
 7117SOL    HW121803   4.008   3.877   6.231
 7117SOL    HW221804   4.037   3.743   6.295
 7118SOL     OW21805   0.033   4.124   5.943
 7118SOL    HW121806   0.049   4.046   5.997
 7118SOL    HW221807   0.028   4.196   6.005
 7119SOL     OW21808   4.751   4.482   6.544
 7119SOL    HW121809   4.747   4.500   6.638
 7119SOL    HW221810   4.726   4.390   6.536
 7120SOL     OW21811   4.077   4.639   7.396
 7120SOL    HW121812   4.159   4.660   7.440
 7120SOL    HW221813   4.101   4.577   7.327
 7121SOL     OW21814   5.028   4.552   5.622
 7121SOL    HW121815   5.066   4.464   5.625
 7121SOL    HW221816   5.056   4.587   5.538
 7122SOL     OW21817   4.779   5.084   6.405
 7122SOL    HW121818   4.786   4.997   6.366
 7122SOL    HW221819   4.866   5.123   6.393
 7123SOL     OW21820   4.032   4.532   6.533
 7123SOL    HW121821   4.125   4.553   6.526
 7123SOL    HW221822   4.030   4.442   6.564
 7124SOL     OW21823   4.053   4.252   6.599
 7124SOL    HW121824   4.018   4.164   6.585
 7124SOL    HW221825   4.130   4.257   6.542
 7125SOL     OW21826   4.857   4.099   7.267
 7125SOL    HW121827   4.808   4.154   7.329
 7125SOL    HW221828   4.944   4.139   7.263
 7126SOL     OW21829   4.885   3.924   7.055
 7126SOL    HW121830   4.873   3.986   7.127
 7126SOL    HW221831   4.925   3.976   6.985
 7127SOL     OW21832   3.730   5.038   5.777
 7127SOL    HW121833   3.639   5.056   5.753
 7127SOL    HW221834   3.728   4.950   5.814
 7128SOL     OW21835   4.701   4.514   6.811
 7128SOL    HW121836   4.760   4.493   6.884
 7128SOL    HW221837   4.618   4.474   6.835
 7129SOL     OW21838   3.760   4.270   6.703
 7129SOL    HW121839   3.840   4.260   6.652
 7129SOL    HW221840   3.789   4.272   6.794
 7130SOL     OW21841   3.917   4.244   7.315
 7130SOL    HW121842   3.969   4.201   7.248
 7130SOL    HW221843   3.877   4.319   7.271
 7131SOL     OW21844   5.115   4.659   7.253
 7131SOL    HW121845   5.120   4.753   7.239
 7131SOL    HW221846   5.119   4.622   7.165
 7132SOL     OW21847   4.541   4.294   5.949
 7132SOL    HW121848   4.545   4.219   5.889
 7132SOL    HW221849   4.467   4.346   5.918
 7133SOL     OW21850   3.926   5.273   7.331
 7133SOL    HW121851   3.886   0.019   7.405
 7133SOL    HW221852   3.942   5.185   7.363
 7134SOL     OW21853   4.430   4.172   6.842
 7134SOL    HW121854   4.375   4.099   6.814
 7134SOL    HW221855   4.424   4.235   6.771
 7135SOL     OW21856   4.186   4.216   5.771
 7135SOL    HW121857   4.245   4.288   5.794
 7135SOL    HW221858   4.101   4.258   5.759
 7136SOL     OW21859   3.867   4.863   7.058
 7136SOL    HW121860   3.869   4.813   7.140
 7136SOL    HW221861   3.884   4.797   6.990
 7137SOL     OW21862   5.047   4.767   6.813
 7137SOL    HW121863   5.071   4.705   6.744
 7137SOL    HW221864   4.978   4.821   6.773
 7138SOL     OW21865   5.035   4.586   5.902
 7138SOL    HW121866   4.955   4.551   5.940
 7138SOL    HW221867   5.024   4.576   5.808
 7139SOL     OW21868   3.820   4.987   6.608
 7139SOL    HW121869   3.799   5.007   6.699
 7139SOL    HW221870   3.740   4.949   6.572
 7140SOL     OW21871   4.468   0.024   7.305
 7140SOL    HW121872   4.378   0.055   7.302
 7140SOL    HW221873   4.511   0.066   7.231
 7141SOL     OW21874   0.075   3.888   6.120
 7141SOL    HW121875   0.155   3.869   6.071
 7141SOL    HW221876   0.062   3.810   6.175
 7142SOL     OW21877   5.018   4.643   6.257
 7142SOL    HW121878   5.096   4.589   6.245
 7142SOL    HW221879   5.037   4.724   6.208
 7143SOL     OW21880   4.539   4.992   7.000
 7143SOL    HW121881   4.506   5.026   7.083
 7143SOL    HW221882   4.465   5.002   6.939
 7144SOL     OW21883   3.984   4.038   6.302
 7144SOL    HW121884   3.898   4.074   6.279
 7144SOL    HW221885   3.982   4.032   6.397
 7145SOL     OW21886   4.549   4.726   6.957
 7145SOL    HW121887   4.596   4.717   6.874
 7145SOL    HW221888   4.551   4.820   6.975
 7146SOL     OW21889   4.641   4.636   5.877
 7146SOL    HW121890   4.702   4.669   5.812
 7146SOL    HW221891   4.688   4.566   5.922
 7147SOL     OW21892   4.087   5.028   7.085
 7147SOL    HW121893   4.078   5.100   7.023
 7147SOL    HW221894   4.012   4.971   7.067
 7148SOL     OW21895   4.782   4.835   6.300
 7148SOL    HW121896   4.709   4.784   6.337
 7148SOL    HW221897   4.840   4.769   6.262
 7149SOL     OW21898   4.739   3.963   6.555
 7149SOL    HW121899   4.737   3.917   6.471
 7149SOL    HW221900   4.735   3.894   6.621
 7150SOL     OW21901   3.982   5.048   5.872
 7150SOL    HW121902   3.891   5.050   5.844
 7150SOL    HW221903   3.983   5.095   5.955
 7151SOL     OW21904   3.837   4.751   7.307
 7151SOL    HW121905   3.761   4.725   7.359
 7151SOL    HW221906   3.911   4.710   7.353
 7152SOL     OW21907   4.399   3.920   7.086
 7152SOL    HW121908   4.483   3.899   7.046
 7152SOL    HW221909   4.421   3.951   7.174
 7153SOL     OW21910   3.804   4.055   5.619
 7153SOL    HW121911   3.716   4.037   5.585
 7153SOL    HW221912   3.834   4.131   5.570
 7154SOL     OW21913   5.165   4.584   6.989
 7154SOL    HW121914   5.112   4.641   6.935
 7154SOL    HW221915   5.253   4.590   6.952
 7155SOL     OW21916   3.789   3.879   5.892
 7155SOL    HW121917   3.776   3.959   5.842
 7155SOL    HW221918   3.875   3.846   5.864
 7156SOL     OW21919   4.907   5.058   5.707
 7156SOL    HW121920   4.813   5.040   5.708
 7156SOL    HW221921   4.932   5.055   5.799
 7157SOL     OW21922   4.343   4.555   7.020
 7157SOL    HW121923   4.401   4.630   7.004
 7157SOL    HW221924   4.403   4.480   7.028
 7158SOL     OW21925   4.442   4.285   7.289
 7158SOL    HW121926   4.484   4.344   7.350
 7158SOL    HW221927   4.463   4.197   7.321
 7159SOL     OW21928   5.183   4.925   7.218
 7159SOL    HW121929   5.171   4.938   7.312
 7159SOL    HW221930   5.278   4.930   7.205
 7160SOL     OW21931   4.937   4.044   6.041
 7160SOL    HW121932   4.999   3.972   6.029
 7160SOL    HW221933   4.968   4.089   6.120
 7161SOL     OW21934   4.313   4.460   6.257
 7161SOL    HW121935   4.352   4.546   6.243
 7161SOL    HW221936   4.247   4.452   6.189
 7162SOL     OW21937   4.582   5.094   5.607
 7162SOL    HW121938   4.559   5.096   5.700
 7162SOL    HW221939   4.582   5.185   5.579
 7163SOL     OW21940   4.593   4.694   6.441
 7163SOL    HW121941   4.642   4.621   6.480
 7163SOL    HW221942   4.556   4.740   6.515
 7164SOL     OW21943   4.809   4.712   5.679
 7164SOL    HW121944   4.781   4.759   5.601
 7164SOL    HW221945   4.882   4.658   5.649
 7165SOL     OW21946   3.943   5.019   7.440
 7165SOL    HW121947   3.881   4.954   7.408
 7165SOL    HW221948   3.918   5.033   7.532
 7166SOL     OW21949   3.812   4.953   6.256
 7166SOL    HW121950   3.812   4.902   6.337
 7166SOL    HW221951   3.875   4.909   6.199
 7167SOL     OW21952   4.397   5.097   7.195
 7167SOL    HW121953   4.318   5.071   7.242
 7167SOL    HW221954   4.429   5.174   7.242
 7168SOL     OW21955   4.153   4.158   6.112
 7168SOL    HW121956   4.183   4.087   6.055
 7168SOL    HW221957   4.104   4.113   6.181
 7169SOL     OW21958   0.124   5.231   6.633
 7169SOL    HW121959   0.040   5.206   6.597
 7169SOL    HW221960   0.107   5.247   6.726
 7170SOL     OW21961   4.057   4.281   6.879
 7170SOL    HW121962   4.112   4.225   6.933
 7170SOL    HW221963   4.075   4.253   6.789
 7171SOL     OW21964   5.144   3.943   6.701
 7171SOL    HW121965   5.191   3.879   6.755
 7171SOL    HW221966   5.098   3.998   6.764
 7172SOL     OW21967   4.729   3.741   6.726
 7172SOL    HW121968   4.676   3.673   6.683
 7172SOL    HW221969   4.816   3.703   6.731
 7173SOL     OW21970   4.529   5.045   5.870
 7173SOL    HW121971   4.473   4.970   5.892
 7173SOL    HW221972   4.584   5.057   5.947
 7174SOL     OW21973   4.347   0.000   6.881
 7174SOL    HW121974   4.351   0.053   6.961
 7174SOL    HW221975   4.438   5.281   6.860
 7175SOL     OW21976   5.055   3.769   5.753
 7175SOL    HW121977   5.075   3.728   5.669
 7175SOL    HW221978   4.970   3.732   5.777
 7176SOL     OW21979   5.026   4.182   6.265
 7176SOL    HW121980   4.973   4.262   6.269
 7176SOL    HW221981   5.014   4.142   6.351
 7177SOL     OW21982   0.002   3.951   6.470
 7177SOL    HW121983   5.237   3.938   6.539
 7177SOL    HW221984   5.272   4.029   6.423
 7178SOL     OW21985   3.766   4.792   5.895
 7178SOL    HW121986   3.860   4.786   5.878
 7178SOL    HW221987   3.740   4.702   5.916
 7179SOL     OW21988   3.951   4.344   7.574
 7179SOL    HW121989   3.861   4.351   7.605
 7179SOL    HW221990   3.942   4.321   7.481
 7180SOL     OW21991   4.002   0.123   7.958
 7180SOL    HW121992   3.977   0.209   7.993
 7180SOL    HW221993   4.007   0.137   7.864
 7181SOL     OW21994   3.940   5.157   7.993
 7181SOL    HW121995   3.957   5.251   7.998
 7181SOL    HW221996   3.883   5.139   8.068
 7182SOL     OW21997   4.307   4.706   7.581
 7182SOL    HW121998   4.353   4.755   7.512
 7182SOL    HW221999   4.345   4.738   7.662
 7183SOL     OW22000   3.726   0.009   7.534
 7183SOL    HW122001   3.727   5.220   7.571
 7183SOL    HW222002   3.724   0.067   7.611
 7184SOL     OW22003   0.116   4.652   8.011
 7184SOL    HW122004   0.209   4.642   8.034
 7184SOL    HW222005   0.104   4.747   8.002
 7185SOL     OW22006   4.525   3.720   7.938
 7185SOL    HW122007   4.575   3.799   7.919
 7185SOL    HW222008   4.434   3.749   7.946
 7186SOL     OW22009   4.314   4.448   7.709
 7186SOL    HW122010   4.315   4.531   7.662
 7186SOL    HW222011   4.255   4.463   7.783
 7187SOL     OW22012   3.781   4.588   0.085
 7187SOL    HW122013   3.845   4.521   0.110
 7187SOL    HW222014   3.785   4.652   0.156
 7188SOL     OW22015   4.613   4.072   7.641
 7188SOL    HW122016   4.651   4.130   7.575
 7188SOL    HW222017   4.642   3.984   7.615
 7189SOL     OW22018   4.045   4.680   7.698
 7189SOL    HW122019   4.125   4.697   7.648
 7189SOL    HW222020   4.007   4.602   7.658
 7190SOL     OW22021   4.795   0.181   7.647
 7190SOL    HW122022   4.789   0.145   7.735
 7190SOL    HW222023   4.877   0.146   7.612
 7191SOL     OW22024   5.132   3.851   7.852
 7191SOL    HW122025   5.095   3.827   7.767
 7191SOL    HW222026   5.226   3.852   7.838
 7192SOL     OW22027   4.117   4.423   7.917
 7192SOL    HW122028   4.114   4.328   7.928
 7192SOL    HW222029   4.027   4.452   7.928
 7193SOL     OW22030   4.358   3.842   7.558
 7193SOL    HW122031   4.428   3.778   7.571
 7193SOL    HW222032   4.311   3.812   7.480
 7194SOL     OW22033   4.256   3.800   7.959
 7194SOL    HW122034   4.171   3.805   8.003
 7194SOL    HW222035   4.254   3.871   7.895
 7195SOL     OW22036   5.133   4.908   7.491
 7195SOL    HW122037   5.139   4.828   7.543
 7195SOL    HW222038   5.045   4.942   7.508
 7196SOL     OW22039   4.016   3.773   7.633
 7196SOL    HW122040   4.073   3.834   7.587
 7196SOL    HW222041   4.075   3.710   7.673
 7197SOL     OW22042   4.667   3.950   7.907
 7197SOL    HW122043   4.626   4.013   7.848
 7197SOL    HW222044   4.758   3.978   7.912
 7198SOL     OW22045   4.161   4.871   0.099
 7198SOL    HW122046   4.089   4.916   0.143
 7198SOL    HW222047   4.131   4.861   0.009
 7199SOL     OW22048   4.749   4.265   7.468
 7199SOL    HW122049   4.702   4.346   7.452
 7199SOL    HW222050   4.802   4.283   7.546
 7200SOL     OW22051   4.189   5.154   7.598
 7200SOL    HW122052   4.136   5.099   7.655
 7200SOL    HW222053   4.207   5.099   7.521
 7201SOL     OW22054   5.129   4.282   7.533
 7201SOL    HW122055   5.052   4.273   7.589
 7201SOL    HW222056   5.200   4.244   7.584
 7202SOL     OW22057   4.249   3.990   7.768
 7202SOL    HW122058   4.295   3.942   7.700
 7202SOL    HW222059   4.224   4.073   7.727
 7203SOL     OW22060   4.435   4.785   7.811
 7203SOL    HW122061   4.407   4.769   7.901
 7203SOL    HW222062   4.515   4.733   7.801
 7204SOL     OW22063   4.088   4.831   7.924
 7204SOL    HW122064   4.063   4.910   7.875
 7204SOL    HW222065   4.075   4.759   7.862
 7205SOL     OW22066   4.953   5.101   7.835
 7205SOL    HW122067   5.035   5.126   7.878
 7205SOL    HW222068   4.902   5.057   7.903
 7206SOL     OW22069   0.040   4.377   7.925
 7206SOL    HW122070   5.280   4.377   8.000
 7206SOL    HW222071   0.038   4.467   7.892
 7207SOL     OW22072   4.923   4.253   7.711
 7207SOL    HW122073   4.927   4.169   7.757
 7207SOL    HW222074   4.892   4.316   7.776
 7208SOL     OW22075   0.022   4.134   7.801
 7208SOL    HW122076   0.030   4.067   7.868
 7208SOL    HW222077   0.026   4.217   7.849
 7209SOL     OW22078   5.038   4.556   7.491
 7209SOL    HW122079   5.067   4.465   7.489
 7209SOL    HW222080   5.060   4.590   7.405
 7210SOL     OW22081   3.734   5.043   7.640
 7210SOL    HW122082   3.643   5.057   7.612
 7210SOL    HW222083   3.735   4.954   7.675
 7211SOL     OW22084   4.570   4.336   7.751
 7211SOL    HW122085   4.564   4.242   7.732
 7211SOL    HW222086   4.480   4.365   7.756
 7212SOL     OW22087   4.183   4.217   7.641
 7212SOL    HW122088   4.243   4.291   7.656
 7212SOL    HW222089   4.099   4.258   7.623
 7213SOL     OW22090   5.031   4.576   7.775
 7213SOL    HW122091   4.939   4.593   7.790
 7213SOL    HW222092   5.040   4.570   7.680
 7214SOL     OW22093   0.187   3.867   7.991
 7214SOL    HW122094   0.155   3.853   7.902
 7214SOL    HW222095   0.139   3.803   8.044
 7215SOL     OW22096   4.654   4.629   7.761
 7215SOL    HW122097   4.705   4.654   7.684
 7215SOL    HW222098   4.640   4.535   7.751
 7216SOL     OW22099   3.983   5.053   7.751
 7216SOL    HW122100   3.893   5.057   7.720
 7216SOL    HW222101   3.981   5.094   7.838
 7217SOL     OW22102   3.802   4.054   7.482
 7217SOL    HW122103   3.716   4.036   7.445
 7217SOL    HW222104   3.833   4.131   7.434
 7218SOL     OW22105   3.791   3.880   7.755
 7218SOL    HW122106   3.775   3.956   7.698
 7218SOL    HW222107   3.874   3.844   7.724
 7219SOL     OW22108   4.904   5.056   7.569
 7219SOL    HW122109   4.810   5.041   7.562
 7219SOL    HW222110   4.920   5.067   7.663
 7220SOL     OW22111   4.936   4.044   7.900
 7220SOL    HW122112   5.008   3.982   7.889
 7220SOL    HW222113   4.953   4.086   7.985
 7221SOL     OW22114   4.356   4.461   8.050
 7221SOL    HW122115   4.357   4.540   0.024
 7221SOL    HW222116   4.268   4.458   8.013
 7222SOL     OW22117   4.586   5.093   7.468
 7222SOL    HW122118   4.563   5.096   7.561
 7222SOL    HW222119   4.581   5.184   7.439
 7223SOL     OW22120   4.804   4.700   7.544
 7223SOL    HW122121   4.777   4.753   7.469
 7223SOL    HW222122   4.881   4.652   7.513
 7224SOL     OW22123   4.110   4.153   7.985
 7224SOL    HW122124   4.160   4.101   7.923
 7224SOL    HW222125   4.162   4.152   8.066
 7225SOL     OW22126   4.530   5.050   7.731
 7225SOL    HW122127   4.483   4.970   7.754
 7225SOL    HW222128   4.539   5.097   7.813
 7226SOL     OW22129   5.058   3.768   7.607
 7226SOL    HW122130   5.076   3.722   7.525
 7226SOL    HW222131   4.975   3.732   7.637
 7227SOL     OW22132   3.776   4.799   7.750
 7227SOL    HW122133   3.871   4.793   7.739
 7227SOL    HW222134   3.748   4.709   7.764
   5.30000   5.30000   8.08000
