2gCDOC_1PEG_l8
22146
    1LIG      O    1   2.768   2.592   0.000
    1LIG      C    2   2.752   2.632   0.135
    1LIG     C1    3   2.619   2.571   0.187
    1LIG     O1    4   2.561   2.659   0.283
    1LIG     C2    5   2.589   2.615   0.413
    1LIG     C3    6   2.735   2.656   0.448
    1LIG     O2    7   2.767   2.606   0.576
    1LIG     C4    8   2.711   2.690   0.675
    1LIG     C5    9   2.579   2.627   0.726
    1LIG     O3   10   2.541   2.696   0.841
    1LIG     C6   11   2.589   2.637   0.959
    1LIG     C7   12   2.735   2.683   0.994
    1LIG     O4   13   2.781   2.623   1.114
    1LIG     C8   14   2.728   2.686   1.229
    1LIG     C9   15   2.599   2.608   1.267
    1LIG     O5   16   2.525   2.670   1.369
    1LIG    C10   17   2.582   2.632   1.492
    1LIG    C11   18   2.687   2.736   1.532
    1LIG     O6   19   2.640   2.785   1.653
    1LIG    C12   20   2.688   2.708   1.759
    1LIG    C13   21   2.597   2.586   1.796
    1LIG     O7   22   2.656   2.524   1.909
    1LIG    C14   23   2.615   2.588   2.029
    1LIG    C15   24   2.709   2.707   2.071
    1LIG     O8   25   2.643   2.788   2.166
    1LIG    C16   26   2.676   2.742   2.293
    1LIG    C17   27   2.565   2.641   2.335
    1LIG     O9   28   2.620   2.553   2.431
    1LIG    C18   29   2.588   2.602   2.559
    1LIG    C19   30   2.688   2.714   2.599
    1LIG    O10   31   2.650   2.767   2.722
    1LIG    C20   32   2.712   2.698   2.827
    1LIG    C21   33   2.611   2.593   2.879
    1LIG    O11   34   2.662   2.527   2.991
    1LIG    C22   35   2.614   2.584   3.109
    1LIG    C23   36   2.697   2.712   3.147
    1LIG    O12   37   2.637   2.784   3.254
    1LIG    C24   38   2.686   2.739   3.378
    1LIG    C25   39   2.594   2.622   3.418
    1LIG    O13   40   2.654   2.533   3.509
    1LIG    C26   41   2.629   2.577   3.640
    1LIG    C27   42   2.748   2.663   3.684
    1LIG    O14   43   2.780   2.628   3.818
    1LIG    C28   44   2.717   2.712   3.913
    1LIG    C29   45   2.568   2.670   3.940
    1LIG    O15   46   2.562   2.581   4.050
    1LIG    C30   47   2.524   2.641   4.172
    1LIG    C31   48   2.635   2.736   4.222
    1LIG    O16   49   2.741   2.666   4.286
    1LIG    C32   50   2.732   2.672   4.428
    1LIG    C33   51   2.615   2.581   4.473
    1LIG    O17   52   2.645   2.525   4.598
    1LIG    C34   53   2.608   2.611   4.704
    1LIG    C35   54   2.727   2.701   4.748
    1LIG    O18   55   2.781   2.650   4.868
    1LIG    C36   56   2.719   2.701   4.985
    1LIG    C37   57   2.589   2.619   5.016
    1LIG    O19   58   2.515   2.667   5.127
    1LIG    C38   59   2.579   2.621   5.245
    1LIG    C39   60   2.692   2.719   5.282
    1LIG    O20   61   2.652   2.780   5.398
    1LIG    C40   62   2.696   2.706   5.508
    1LIG    C41   63   2.602   2.587   5.545
    1LIG    O21   64   2.656   2.527   5.661
    1LIG    C42   65   2.610   2.595   5.777
    1LIG    C43   66   2.704   2.714   5.818
    1LIG    O22   67   2.642   2.789   5.919
    1LIG    C44   68   2.680   2.738   6.043
    1LIG    C45   69   2.572   2.635   6.085
    1LIG    O23   70   2.630   2.547   6.179
    1LIG    C46   71   2.596   2.592   6.308
    1LIG    C47   72   2.688   2.708   6.349
    1LIG    O24   73   2.643   2.757   6.470
    1LIG    C48   74   2.710   2.695   6.577
    1LIG    C49   75   2.613   2.591   6.636
    1LIG    O25   76   2.669   2.531   6.751
    1LIG    C50   77   2.623   2.596   6.867
    1LIG    C51   78   2.704   2.725   6.897
    1LIG    O26   79   2.640   2.795   7.002
    1LIG    C52   80   2.681   2.740   7.126
    1LIG    C53   81   2.582   2.629   7.165
    1LIG    O27   82   2.532   2.661   7.291
    1LIG    C54   83   2.595   2.594   7.396
    1LIG    C55   84   2.726   2.669   7.441
    1LIG    O28   85   2.786   2.606   7.555
    1LIG    C56   86   2.740   2.663   7.678
    1LIG    C57   87   2.600   2.603   7.710
    1LIG    O29   88   2.540   2.663   7.821
    1LIG    C58   89   2.570   2.593   7.939
    1LIG    C59   90   2.684   2.675   8.000
    1LIG      H   91   2.748   2.742   0.143
    1LIG     H1   92   2.839   2.599   0.192
    1LIG     H2   93   2.638   2.471   0.229
    1LIG     H3   94   2.545   2.559   0.109
    1LIG     H4   95   2.574   2.507   0.424
    1LIG     H5   96   2.517   2.667   0.476
    1LIG     H6   97   2.746   2.765   0.445
    1LIG     H7   98   2.807   2.613   0.380
    1LIG     H8   99   2.693   2.792   0.640
    1LIG     H9  100   2.788   2.699   0.749
    1LIG    H10  101   2.591   2.519   0.745
    1LIG    H11  102   2.496   2.638   0.657
    1LIG    H12  103   2.586   2.527   0.953
    1LIG    H13  104   2.516   2.672   1.030
    1LIG    H14  105   2.740   2.792   1.000
    1LIG    H15  106   2.807   2.648   0.921
    1LIG    H16  107   2.709   2.793   1.210
    1LIG    H17  108   2.804   2.679   1.307
    1LIG    H18  109   2.630   2.507   1.296
    1LIG    H19  110   2.528   2.592   1.189
    1LIG    H20  111   2.627   2.532   1.489
    1LIG    H21  112   2.500   2.628   1.564
    1LIG    H22  113   2.694   2.820   1.462
    1LIG    H23  114   2.786   2.691   1.544
    1LIG    H24  115   2.683   2.784   1.834
    1LIG    H25  116   2.792   2.676   1.747
    1LIG    H26  117   2.596   2.512   1.716
    1LIG    H27  118   2.494   2.617   1.816
    1LIG    H28  119   2.622   2.511   2.105
    1LIG    H29  120   2.509   2.618   2.025
    1LIG    H30  121   2.731   2.781   1.998
    1LIG    H31  122   2.806   2.670   2.103
    1LIG    H32  123   2.678   2.831   2.356
    1LIG    H33  124   2.775   2.696   2.297
    1LIG    H34  125   2.531   2.577   2.255
    1LIG    H35  126   2.478   2.695   2.371
    1LIG    H36  127   2.596   2.515   2.624
    1LIG    H37  128   2.485   2.638   2.563
    1LIG    H38  129   2.684   2.800   2.534
    1LIG    H39  130   2.791   2.677   2.600
    1LIG    H40  131   2.739   2.777   2.896
    1LIG    H41  132   2.806   2.651   2.799
    1LIG    H42  133   2.598   2.514   2.806
    1LIG    H43  134   2.512   2.636   2.897
    1LIG    H44  135   2.628   2.503   3.180
    1LIG    H45  136   2.508   2.608   3.101
    1LIG    H46  137   2.696   2.785   3.068
    1LIG    H47  138   2.801   2.685   3.167
    1LIG    H48  139   2.675   2.821   3.451
    1LIG    H49  140   2.792   2.713   3.372
    1LIG    H50  141   2.559   2.560   3.338
    1LIG    H51  142   2.505   2.668   3.458
    1LIG    H52  143   2.613   2.489   3.704
    1LIG    H53  144   2.536   2.636   3.646
    1LIG    H54  145   2.720   2.769   3.677
    1LIG    H55  146   2.835   2.647   3.621
    1LIG    H56  147   2.719   2.816   3.878
    1LIG    H57  148   2.778   2.706   4.003
    1LIG    H58  149   2.521   2.620   3.855
    1LIG    H59  150   2.507   2.759   3.961
    1LIG    H60  151   2.503   2.562   4.245
    1LIG    H61  152   2.432   2.698   4.158
    1LIG    H62  153   2.587   2.807   4.290
    1LIG    H63  154   2.678   2.796   4.142
    1LIG    H64  155   2.712   2.776   4.458
    1LIG    H65  156   2.826   2.641   4.472
    1LIG    H66  157   2.602   2.497   4.404
    1LIG    H67  158   2.521   2.638   4.476
    1LIG    H68  159   2.579   2.541   4.782
    1LIG    H69  160   2.523   2.673   4.678
    1LIG    H70  161   2.692   2.805   4.762
    1LIG    H71  162   2.807   2.702   4.674
    1LIG    H72  163   2.696   2.808   4.974
    1LIG    H73  164   2.793   2.690   5.063
    1LIG    H74  165   2.618   2.514   5.032
    1LIG    H75  166   2.517   2.624   4.935
    1LIG    H76  167   2.618   2.519   5.235
    1LIG    H77  168   2.503   2.619   5.323
    1LIG    H78  169   2.705   2.800   5.209
    1LIG    H79  170   2.787   2.667   5.295
    1LIG    H80  171   2.693   2.785   5.580
    1LIG    H81  172   2.800   2.672   5.498
    1LIG    H82  173   2.603   2.510   5.468
    1LIG    H83  174   2.499   2.620   5.561
    1LIG    H84  175   2.615   2.517   5.852
    1LIG    H85  176   2.505   2.625   5.769
    1LIG    H86  177   2.719   2.793   5.748
    1LIG    H87  178   2.804   2.677   5.844
    1LIG    H88  179   2.685   2.825   6.108
    1LIG    H89  180   2.781   2.693   6.041
    1LIG    H90  181   2.536   2.570   6.006
    1LIG    H91  182   2.484   2.686   6.122
    1LIG    H92  183   2.609   2.507   6.374
    1LIG    H93  184   2.491   2.622   6.311
    1LIG    H94  185   2.682   2.795   6.285
    1LIG    H95  186   2.793   2.677   6.352
    1LIG    H96  187   2.736   2.777   6.642
    1LIG    H97  188   2.803   2.648   6.548
    1LIG    H98  189   2.597   2.509   6.565
    1LIG    H99  190   2.515   2.634   6.656
    1LIG   H100  191   2.634   2.524   6.949
    1LIG   H101  192   2.516   2.619   6.858
    1LIG   H102  193   2.703   2.797   6.816
    1LIG   H103  194   2.808   2.702   6.919
    1LIG   H104  195   2.677   2.822   7.199
    1LIG   H105  196   2.783   2.704   7.123
    1LIG   H106  197   2.629   2.529   7.163
    1LIG   H107  198   2.495   2.627   7.100
    1LIG   H108  199   2.613   2.487   7.375
    1LIG   H109  200   2.514   2.597   7.466
    1LIG   H110  201   2.704   2.774   7.463
    1LIG   H111  202   2.800   2.667   7.360
    1LIG   H112  203   2.734   2.773   7.671
    1LIG   H113  204   2.812   2.638   7.757
    1LIG   H114  205   2.606   2.493   7.717
    1LIG   H115  206   2.529   2.628   7.635
    1LIG   H116  207   2.599   2.489   7.919
    1LIG   H117  208   2.481   2.592   8.002
    1LIG   H118  209   2.746   2.723   7.925
    1LIG   H119  210   2.638   2.755   8.056
    2MOL     C1  211   2.127   2.191   3.436
    2MOL     H1  212   2.109   2.084   3.423
    2MOL     O1  213   2.085   2.230   3.568
    2MOL     C2  214   2.100   2.370   3.601
    2MOL     H2  215   2.203   2.402   3.583
    2MOL     C3  216   2.074   2.381   3.752
    2MOL     H3  217   2.105   2.479   3.789
    2MOL     H4  218   2.135   2.305   3.800
    2MOL     O2  219   1.935   2.358   3.780
    2MOL     C4  220   1.897   2.379   3.916
    2MOL     C5  221   2.042   2.269   3.332
    2MOL     H5  222   1.941   2.227   3.335
    2MOL     O3  223   2.097   2.256   3.199
    2MOL     C6  224   2.080   2.127   3.139
    2MOL     C7  225   2.033   2.419   3.361
    2MOL     H6  226   2.130   2.460   3.334
    2MOL     O4  227   1.929   2.475   3.278
    2MOL     C8  228   1.975   2.585   3.196
    2MOL     C9  229   2.005   2.452   3.510
    2MOL     H7  230   1.900   2.427   3.533
    2MOL     O5  231   2.029   2.594   3.529
    2MOL    C10  232   1.946   2.664   3.624
    2MOL     H8  233   1.864   2.599   3.659
    2MOL     O6  234   2.027   2.702   3.736
    2MOL    C11  235   2.140   2.787   3.703
    2MOL     H9  236   2.200   2.739   3.625
    2MOL    C12  237   2.228   2.800   3.828
    2MOL    H10  238   2.329   2.831   3.797
    2MOL    H11  239   2.236   2.703   3.879
    2MOL     O7  240   2.171   2.897   3.916
    2MOL    C13  241   2.258   2.935   4.022
    2MOL    C14  242   1.885   2.791   3.557
    2MOL    H12  243   1.811   2.836   3.624
    2MOL     O8  244   1.824   2.757   3.432
    2MOL    C15  245   1.703   2.681   3.441
    2MOL    C16  246   1.994   2.897   3.526
    2MOL    H13  247   2.056   2.861   3.443
    2MOL     O9  248   1.927   3.021   3.493
    2MOL    C17  249   1.946   3.064   3.356
    2MOL    C18  250   2.084   2.922   3.648
    2MOL    H14  251   2.025   2.972   3.725
    2MOL    O10  252   2.194   3.004   3.604
    2MOL    C19  253   2.230   3.113   3.691
    2MOL    H15  254   2.156   3.125   3.771
    2MOL    O11  255   2.359   3.083   3.749
    2MOL    C20  256   2.468   3.067   3.656
    2MOL    H16  257   2.443   2.988   3.584
    2MOL    C21  258   2.593   3.021   3.734
    2MOL    H17  259   2.672   2.994   3.664
    2MOL    H18  260   2.565   2.932   3.792
    2MOL    O12  261   2.637   3.125   3.823
    2MOL    C22  262   2.753   3.091   3.901
    2MOL    C23  263   2.240   3.244   3.610
    2MOL    H19  264   2.262   3.328   3.678
    2MOL    O13  265   2.117   3.269   3.540
    2MOL    C24  266   2.010   3.315   3.623
    2MOL    C25  267   2.353   3.236   3.506
    2MOL    H20  268   2.329   3.157   3.434
    2MOL    O14  269   2.363   3.364   3.440
    2MOL    C26  270   2.315   3.363   3.304
    2MOL    C27  271   2.487   3.199   3.576
    2MOL    H21  272   2.520   3.279   3.644
    2MOL    O15  273   2.587   3.171   3.476
    2MOL    C28  274   2.658   3.288   3.429
    2MOL    H22  275   2.589   3.372   3.416
    2MOL    O16  276   2.760   3.321   3.524
    2MOL    C29  277   2.861   3.220   3.549
    2MOL    H23  278   2.814   3.129   3.588
    2MOL    C30  279   2.952   3.279   3.658
    2MOL    H24  280   3.016   3.201   3.700
    2MOL    H25  281   2.890   3.319   3.739
    2MOL    O17  282   3.030   3.384   3.600
    2MOL    C31  283   3.120   3.445   3.691
    2MOL    C32  284   2.723   3.257   3.293
    2MOL    H26  285   2.770   3.348   3.256
    2MOL    O18  286   2.618   3.214   3.204
    2MOL    C33  287   2.622   3.280   3.077
    2MOL    C34  288   2.831   3.149   3.305
    2MOL    H27  289   2.783   3.053   3.331
    2MOL    O19  290   2.902   3.140   3.179
    2MOL    C35  291   2.912   3.007   3.127
    2MOL    C36  292   2.933   3.187   3.414
    2MOL    H28  293   2.988   3.275   3.379
    2MOL    O20  294   3.022   3.074   3.430
    2MOL    C37  295   3.159   3.105   3.462
    2MOL    H29  296   3.176   3.213   3.457
    2MOL    O21  297   3.185   3.059   3.595
    2MOL    C38  298   3.168   2.917   3.616
    2MOL    H30  299   3.066   2.886   3.590
    2MOL    C39  300   3.189   2.894   3.765
    2MOL    H31  301   3.150   2.796   3.794
    2MOL    H32  302   3.132   2.972   3.813
    2MOL    O22  303   3.330   2.905   3.797
    2MOL    C40  304   3.362   2.873   3.933
    2MOL    C41  305   3.258   3.033   3.366
    2MOL    H33  306   3.359   3.066   3.391
    2MOL    O23  307   3.229   3.065   3.229
    2MOL    C42  308   3.277   3.193   3.187
    2MOL    C43  309   3.255   2.880   3.381
    2MOL    H34  310   3.160   2.840   3.341
    2MOL    O24  311   3.369   2.828   3.310
    2MOL    C44  312   3.338   2.746   3.197
    2MOL    C45  313   3.269   2.839   3.528
    2MOL    H35  314   3.371   2.864   3.558
    2MOL    O25  315   3.243   2.697   3.537
    2MOL    C46  316   3.327   2.626   3.630
    2MOL    H36  317   3.406   2.691   3.669
    2MOL    O26  318   3.247   2.580   3.741
    2MOL    C47  319   3.139   2.487   3.709
    2MOL    H37  320   3.069   2.533   3.639
    2MOL    C48  321   3.065   2.455   3.840
    2MOL    H38  322   2.969   2.408   3.817
    2MOL    H39  323   3.047   2.547   3.897
    2MOL    O27  324   3.149   2.364   3.915
    2MOL    C49  325   3.087   2.309   4.031
    2MOL    C50  326   3.393   2.504   3.560
    2MOL    H40  327   3.467   2.460   3.628
    2MOL    O28  328   3.455   2.544   3.436
    2MOL    C51  329   3.574   2.621   3.449
    2MOL    C52  330   3.289   2.397   3.525
    2MOL    H41  331   3.224   2.437   3.446
    2MOL    O29  332   3.360   2.279   3.482
    2MOL    C53  333   3.334   2.243   3.347
    2MOL    C54  334   3.202   2.360   3.645
    2MOL    H42  335   3.267   2.310   3.717
    2MOL    O30  336   3.098   2.271   3.596
    2MOL    C55  337   3.082   2.148   3.671
    2MOL    H43  338   3.167   2.133   3.739
    2MOL    O31  339   2.961   2.157   3.748
    2MOL    C56  340   2.839   2.178   3.673
    2MOL    H44  341   2.841   2.275   3.621
    2MOL    C57  342   2.723   2.171   3.771
    2MOL    H45  343   2.743   2.096   3.849
    2MOL    H46  344   2.632   2.142   3.718
    2MOL    O32  345   2.702   2.299   3.831
    2MOL    C58  346   2.578   2.300   3.902
    2MOL    C59  347   3.071   2.026   3.576
    2MOL    H47  348   3.059   1.935   3.636
    2MOL    O33  349   3.189   2.015   3.493
    2MOL    C60  350   3.307   1.966   3.559
    2MOL    C61  351   2.947   2.039   3.484
    2MOL    H48  352   2.960   2.125   3.417
    2MOL    O34  353   2.929   1.916   3.408
    2MOL    C62  354   2.986   1.918   3.276
    2MOL    C63  355   2.821   2.063   3.570
    2MOL    H49  356   2.797   1.972   3.625
    2MOL    O35  357   2.712   2.101   3.482
    2MOL    C64  358   2.627   1.991   3.445
    2MOL    H50  359   2.686   1.899   3.439
    2MOL    O36  360   2.523   1.975   3.544
    2MOL    C65  361   2.425   2.081   3.557
    2MOL    H51  362   2.473   2.175   3.585
    2MOL    C66  363   2.329   2.037   3.669
    2MOL    H52  364   2.301   1.931   3.654
    2MOL    H53  365   2.237   2.096   3.669
    2MOL    O37  366   2.396   2.055   3.794
    2MOL    C67  367   2.320   2.009   3.907
    2MOL    C68  368   2.561   2.016   3.307
    2MOL    H54  369   2.510   1.924   3.277
    2MOL    O38  370   2.664   2.051   3.212
    2MOL    C69  371   2.646   1.991   3.083
    2MOL    C70  372   2.460   2.132   3.311
    2MOL    H55  373   2.514   2.224   3.338
    2MOL    O39  374   2.395   2.144   3.183
    2MOL    C71  375   2.409   2.272   3.120
    2MOL    C72  376   2.354   2.103   3.419
    2MOL    H56  377   2.299   2.013   3.391
    2MOL    O40  378   2.269   2.220   3.424
    2MOL    H57  379   1.788   2.368   3.927
    2MOL    H58  380   1.946   2.306   3.982
    2MOL    H59  381   1.926   2.479   3.948
    2MOL    H60  382   2.377   2.029   3.998
    2MOL    H61  383   2.224   2.061   3.912
    2MOL    H62  384   2.303   1.902   3.898
    2MOL    H63  385   2.582   2.377   3.978
    2MOL    H64  386   2.494   2.320   3.835
    2MOL    H65  387   2.563   2.205   3.955
    2MOL    H66  388   3.146   2.224   4.067
    2MOL    H67  389   3.086   2.384   4.110
    2MOL    H68  390   2.985   2.277   4.010
    2MOL    H69  391   3.470   2.864   3.946
    2MOL    H70  392   3.327   2.953   4.000
    2MOL    H71  393   3.316   2.778   3.962
    2MOL    H72  394   3.182   3.517   3.637
    2MOL    H73  395   3.064   3.497   3.769
    2MOL    H74  396   3.183   3.368   3.738
    2MOL    H75  397   2.785   3.176   3.962
    2MOL    H76  398   2.731   3.008   3.969
    2MOL    H77  399   2.836   3.060   3.836
    2MOL    H78  400   2.212   3.017   4.078
    2MOL    H79  401   2.274   2.849   4.090
    2MOL    H80  402   2.355   2.970   3.985
    2MOL    H81  403   1.894   3.160   3.339
    2MOL    H82  404   2.052   3.078   3.335
    2MOL    H83  405   1.905   2.989   3.287
    2MOL    H84  406   1.661   2.668   3.341
    2MOL    H85  407   1.723   2.581   3.480
    2MOL    H86  408   1.630   2.732   3.504
    2MOL    H87  409   1.891   2.629   3.142
    2MOL    H88  410   2.022   2.662   3.259
    2MOL    H89  411   2.048   2.548   3.123
    2MOL    H90  412   2.096   2.134   3.030
    2MOL    H91  413   2.151   2.055   3.181
    2MOL    H92  414   1.979   2.090   3.157
    2MOL    H93  415   2.361   2.270   3.021
    2MOL    H94  416   2.361   2.349   3.181
    2MOL    H95  417   2.515   2.296   3.106
    2MOL    H96  418   2.718   2.034   3.012
    2MOL    H97  419   2.663   1.883   3.089
    2MOL    H98  420   2.545   2.008   3.045
    2MOL    H99  421   2.969   1.823   3.226
    2MOL   H100  422   2.941   1.998   3.217
    2MOL   H101  423   3.094   1.935   3.281
    2MOL   H102  424   3.384   1.944   3.485
    2MOL   H103  425   3.347   2.042   3.627
    2MOL   H104  426   3.285   1.875   3.615
    2MOL   H105  427   3.391   2.153   3.320
    2MOL   H106  428   3.227   2.223   3.334
    2MOL   H107  429   3.364   2.325   3.280
    2MOL   H108  430   3.625   2.626   3.352
    2MOL   H109  431   3.551   2.723   3.480
    2MOL   H110  432   3.641   2.574   3.523
    2MOL   H111  433   3.430   2.712   3.148
    2MOL   H112  434   3.280   2.658   3.228
    2MOL   H113  435   3.278   2.803   3.125
    2MOL   H114  436   3.282   3.194   3.078
    2MOL   H115  437   3.210   3.272   3.224
    2MOL   H116  438   3.378   3.211   3.226
    2MOL   H117  439   2.963   3.007   3.030
    2MOL   H118  440   2.968   2.943   3.197
    2MOL   H119  441   2.812   2.965   3.113
    2MOL   H120  442   2.537   3.248   3.015
    2MOL   H121  443   2.617   3.389   3.089
    2MOL   H122  444   2.715   3.254   3.025
    2MOL   H123  445   2.337   3.459   3.255
    2MOL   H124  446   2.364   3.284   3.246
    2MOL   H125  447   2.207   3.348   3.303
    2MOL   H126  448   1.927   3.351   3.561
    2MOL   H127  449   1.973   3.235   3.687
    2MOL   H128  450   2.044   3.399   3.686
    3MOL     C1  451   3.173   2.192   4.650
    3MOL     H1  452   3.191   2.086   4.669
    3MOL     O1  453   3.218   2.226   4.517
    3MOL     C2  454   3.197   2.364   4.479
    3MOL     H2  455   3.091   2.392   4.491
    3MOL     C3  456   3.231   2.376   4.329
    3MOL     H3  457   3.195   2.472   4.290
    3MOL     H4  458   3.178   2.295   4.277
    3MOL     O2  459   3.373   2.362   4.310
    3MOL     C4  460   3.413   2.382   4.174
    3MOL     C5  461   3.254   2.277   4.752
    3MOL     H5  462   3.359   2.247   4.747
    3MOL     O3  463   3.205   2.257   4.886
    3MOL     C6  464   3.240   2.132   4.946
    3MOL     C7  465   3.248   2.426   4.718
    3MOL     H6  466   3.147   2.464   4.739
    3MOL     O4  467   3.348   2.492   4.797
    3MOL     C8  468   3.296   2.598   4.877
    3MOL     C9  469   3.284   2.453   4.572
    3MOL     H7  470   3.390   2.429   4.557
    3MOL     O5  471   3.259   2.593   4.550
    3MOL    C10  472   3.348   2.659   4.458
    3MOL     H8  473   3.428   2.592   4.425
    3MOL     O6  474   3.271   2.700   4.345
    3MOL    C11  475   3.159   2.787   4.375
    3MOL     H9  476   3.094   2.739   4.450
    3MOL    C12  477   3.078   2.802   4.247
    3MOL    H10  478   2.974   2.827   4.271
    3MOL    H11  479   3.082   2.708   4.192
    3MOL     O7  480   3.136   2.904   4.166
    3MOL    C13  481   3.056   2.935   4.053
    3MOL    C14  482   3.411   2.785   4.525
    3MOL    H12  483   3.484   2.828   4.455
    3MOL     O8  484   3.474   2.752   4.651
    3MOL    C15  485   3.593   2.671   4.645
    3MOL    C16  486   3.304   2.892   4.555
    3MOL    H13  487   3.240   2.856   4.636
    3MOL     O9  488   3.371   3.016   4.590
    3MOL    C17  489   3.353   3.059   4.725
    3MOL    C18  490   3.215   2.920   4.433
    3MOL    H14  491   3.275   2.971   4.357
    3MOL    O10  492   3.105   3.001   4.479
    3MOL    C19  493   3.068   3.109   4.391
    3MOL    H15  494   3.141   3.120   4.310
    3MOL    O11  495   2.939   3.079   4.334
    3MOL    C20  496   2.830   3.065   4.426
    3MOL    H16  497   2.853   2.983   4.496
    3MOL    C21  498   2.707   3.025   4.344
    3MOL    H17  499   2.631   2.980   4.410
    3MOL    H18  500   2.743   2.950   4.273
    3MOL    O12  501   2.650   3.135   4.271
    3MOL    C22  502   2.544   3.094   4.182
    3MOL    C23  503   3.059   3.241   4.472
    3MOL    H19  504   3.040   3.324   4.402
    3MOL    O13  505   3.182   3.264   4.544
    3MOL    C24  506   3.292   3.310   4.465
    3MOL    C25  507   2.944   3.234   4.574
    3MOL    H20  508   2.968   3.159   4.651
    3MOL    O14  509   2.929   3.365   4.632
    3MOL    C26  510   2.974   3.378   4.767
    3MOL    C27  511   2.812   3.195   4.506
    3MOL    H21  512   2.782   3.273   4.436
    3MOL    O15  513   2.710   3.172   4.606
    3MOL    C28  514   2.641   3.292   4.650
    3MOL    H22  515   2.709   3.377   4.657
    3MOL    O16  516   2.538   3.323   4.555
    3MOL    C29  517   2.438   3.221   4.533
    3MOL    H23  518   2.485   3.130   4.494
    3MOL    C30  519   2.344   3.278   4.425
    3MOL    H24  520   2.284   3.198   4.379
    3MOL    H25  521   2.405   3.323   4.345
    3MOL    O17  522   2.260   3.378   4.484
    3MOL    C31  523   2.173   3.440   4.389
    3MOL    C32  524   2.578   3.267   4.788
    3MOL    H26  525   2.531   3.360   4.821
    3MOL    O18  526   2.684   3.227   4.879
    3MOL    C33  527   2.672   3.279   5.012
    3MOL    C34  528   2.473   3.155   4.779
    3MOL    H27  529   2.525   3.062   4.752
    3MOL    O19  530   2.405   3.142   4.905
    3MOL    C35  531   2.393   3.006   4.951
    3MOL    C36  532   2.369   3.188   4.670
    3MOL    H28  533   2.312   3.275   4.705
    3MOL    O20  534   2.284   3.073   4.657
    3MOL    C37  535   2.149   3.101   4.618
    3MOL    H29  536   2.130   3.209   4.618
    3MOL    O21  537   2.131   3.050   4.485
    3MOL    C38  538   2.145   2.908   4.466
    3MOL    H30  539   2.245   2.875   4.498
    3MOL    C39  540   2.130   2.886   4.316
    3MOL    H31  541   2.168   2.787   4.287
    3MOL    H32  542   2.190   2.963   4.268
    3MOL    O22  543   1.991   2.900   4.280
    3MOL    C40  544   1.960   2.886   4.140
    3MOL    C41  545   2.047   3.033   4.713
    3MOL    H33  546   1.947   3.070   4.690
    3MOL    O23  547   2.080   3.063   4.851
    3MOL    C42  548   2.039   3.193   4.893
    3MOL    C43  549   2.048   2.879   4.698
    3MOL    H34  550   2.143   2.842   4.738
    3MOL    O24  551   1.935   2.825   4.770
    3MOL    C44  552   1.973   2.742   4.881
    3MOL    C45  553   2.037   2.837   4.550
    3MOL    H35  554   1.939   2.865   4.514
    3MOL    O25  555   2.055   2.695   4.542
    3MOL    C46  556   1.969   2.626   4.449
    3MOL    H36  557   1.890   2.692   4.415
    3MOL    O26  558   2.049   2.582   4.337
    3MOL    C47  559   2.158   2.493   4.370
    3MOL    H37  560   2.224   2.542   4.444
    3MOL    C48  561   2.241   2.467   4.243
    3MOL    H38  562   2.335   2.418   4.270
    3MOL    H39  563   2.264   2.562   4.194
    3MOL    O27  564   2.165   2.384   4.154
    3MOL    C49  565   2.240   2.334   4.043
    3MOL    C50  566   1.907   2.504   4.521
    3MOL    H40  567   1.832   2.459   4.454
    3MOL    O28  568   1.845   2.545   4.645
    3MOL    C51  569   1.724   2.621   4.630
    3MOL    C52  570   2.012   2.398   4.555
    3MOL    H41  571   2.078   2.437   4.634
    3MOL    O29  572   1.943   2.280   4.598
    3MOL    C53  573   1.945   2.256   4.739
    3MOL    C54  574   2.099   2.365   4.433
    3MOL    H42  575   2.036   2.316   4.357
    3MOL    O30  576   2.205   2.277   4.476
    3MOL    C55  577   2.218   2.153   4.404
    3MOL    H43  578   2.130   2.138   4.340
    3MOL    O31  579   2.337   2.159   4.324
    3MOL    C56  580   2.461   2.178   4.398
    3MOL    H44  581   2.461   2.275   4.449
    3MOL    C57  582   2.579   2.174   4.300
    3MOL    H45  583   2.561   2.102   4.220
    3MOL    H46  584   2.669   2.143   4.354
    3MOL    O32  585   2.600   2.304   4.245
    3MOL    C58  586   2.729   2.313   4.185
    3MOL    C59  587   2.229   2.032   4.501
    3MOL    H47  588   2.236   1.940   4.442
    3MOL    O33  589   2.112   2.023   4.586
    3MOL    C60  590   1.995   1.969   4.523
    3MOL    C61  591   2.356   2.040   4.589
    3MOL    H48  592   2.345   2.122   4.661
    3MOL    O34  593   2.376   1.912   4.654
    3MOL    C62  594   2.330   1.907   4.789
    3MOL    C63  595   2.480   2.066   4.503
    3MOL    H49  596   2.506   1.973   4.450
    3MOL    O35  597   2.588   2.104   4.590
    3MOL    C64  598   2.674   1.994   4.627
    3MOL    H50  599   2.617   1.901   4.633
    3MOL    O36  600   2.777   1.982   4.527
    3MOL    C65  601   2.877   2.087   4.520
    3MOL    H51  602   2.829   2.183   4.493
    3MOL    C66  603   2.970   2.044   4.406
    3MOL    H52  604   3.005   1.941   4.424
    3MOL    H53  605   3.057   2.109   4.398
    3MOL    O37  606   2.894   2.050   4.284
    3MOL    C67  607   2.968   2.008   4.169
    3MOL    C68  608   2.737   2.018   4.766
    3MOL    H54  609   2.788   1.925   4.796
    3MOL    O38  610   2.632   2.052   4.857
    3MOL    C69  611   2.631   1.973   4.976
    3MOL    C70  612   2.839   2.133   4.766
    3MOL    H55  613   2.787   2.225   4.740
    3MOL    O39  614   2.902   2.141   4.897
    3MOL    C71  615   2.892   2.270   4.958
    3MOL    C72  616   2.946   2.104   4.659
    3MOL    H56  617   3.000   2.013   4.686
    3MOL    O40  618   3.032   2.220   4.658
    3MOL    H57  619   3.522   2.372   4.166
    3MOL    H58  620   3.365   2.308   4.109
    3MOL    H59  621   3.384   2.483   4.140
    3MOL    H60  622   2.910   2.024   4.077
    3MOL    H61  623   3.062   2.063   4.161
    3MOL    H62  624   2.992   1.901   4.177
    3MOL    H63  625   2.735   2.405   4.127
    3MOL    H64  626   2.808   2.312   4.261
    3MOL    H65  627   2.745   2.229   4.116
    3MOL    H66  628   2.180   2.258   3.992
    3MOL    H67  629   2.264   2.415   3.973
    3MOL    H68  630   2.333   2.287   4.077
    3MOL    H69  631   1.853   2.873   4.128
    3MOL    H70  632   1.990   2.976   4.085
    3MOL    H71  633   2.011   2.799   4.098
    3MOL    H72  634   2.105   3.510   4.439
    3MOL    H73  635   2.233   3.495   4.316
    3MOL    H74  636   2.112   3.365   4.338
    3MOL    H75  637   2.515   3.177   4.117
    3MOL    H76  638   2.578   3.012   4.118
    3MOL    H77  639   2.457   3.059   4.239
    3MOL    H78  640   3.106   3.015   3.998
    3MOL    H79  641   3.045   2.847   3.989
    3MOL    H80  642   2.957   2.971   4.084
    3MOL    H81  643   3.409   3.152   4.742
    3MOL    H82  644   3.247   3.078   4.746
    3MOL    H83  645   3.391   2.983   4.795
    3MOL    H84  646   3.638   2.665   4.744
    3MOL    H85  647   3.569   2.569   4.612
    3MOL    H86  648   3.666   2.715   4.575
    3MOL    H87  649   3.378   2.648   4.929
    3MOL    H88  650   3.244   2.672   4.815
    3MOL    H89  651   3.226   2.557   4.951
    3MOL    H90  652   3.222   2.137   5.054
    3MOL    H91  653   3.180   2.051   4.903
    3MOL    H92  654   3.347   2.110   4.931
    3MOL    H93  655   2.941   2.269   5.056
    3MOL    H94  656   2.942   2.346   4.896
    3MOL    H95  657   2.787   2.299   4.972
    3MOL    H96  658   2.535   1.988   5.026
    3MOL    H97  659   2.640   1.866   4.952
    3MOL    H98  660   2.713   2.002   5.042
    3MOL    H99  661   2.359   1.812   4.836
    3MOL   H100  662   2.374   1.989   4.848
    3MOL   H101  663   2.221   1.917   4.792
    3MOL   H102  664   1.918   1.948   4.598
    3MOL   H103  665   1.954   2.040   4.451
    3MOL   H104  666   2.018   1.875   4.471
    3MOL   H105  667   1.885   2.167   4.761
    3MOL   H106  668   2.048   2.237   4.773
    3MOL   H107  669   1.904   2.341   4.794
    3MOL   H108  670   1.677   2.637   4.727
    3MOL   H109  671   1.746   2.719   4.587
    3MOL   H110  672   1.655   2.566   4.566
    3MOL   H111  673   1.884   2.702   4.930
    3MOL   H112  674   2.033   2.658   4.846
    3MOL   H113  675   2.030   2.800   4.954
    3MOL   H114  676   2.052   3.202   5.002
    3MOL   H115  677   2.099   3.270   4.843
    3MOL   H116  678   1.934   3.210   4.871
    3MOL   H117  679   2.344   3.004   5.049
    3MOL   H118  680   2.333   2.947   4.881
    3MOL   H119  681   2.492   2.960   4.961
    3MOL   H120  682   2.758   3.246   5.073
    3MOL   H121  683   2.670   3.388   5.010
    3MOL   H122  684   2.580   3.242   5.060
    3MOL   H123  685   2.946   3.477   4.804
    3MOL   H124  686   2.928   3.302   4.831
    3MOL   H125  687   3.083   3.368   4.771
    3MOL   H126  688   3.380   3.325   4.528
    3MOL   H127  689   3.315   3.238   4.385
    3MOL   H128  690   3.267   3.406   4.417
    4SOL     OW  691   0.224   0.627   0.105
    4SOL    HW1  692   0.166   0.587   0.170
    4SOL    HW2  693   0.246   0.556   0.045
    5SOL     OW  694   0.232   0.281   0.990
    5SOL    HW1  695   0.251   0.244   1.076
    5SOL    HW2  696   0.152   0.236   0.962
    6SOL     OW  697   0.002   0.406   0.661
    6SOL    HW1  698   5.209   0.427   0.668
    6SOL    HW2  699   0.003   0.315   0.631
    7SOL     OW  700   0.573   1.282   1.180
    7SOL    HW1  701   0.490   1.290   1.133
    7SOL    HW2  702   0.589   1.370   1.215
    8SOL     OW  703   1.559   1.512   0.707
    8SOL    HW1  704   1.516   1.492   0.790
    8SOL    HW2  705   1.488   1.515   0.643
    9SOL     OW  706   1.131   0.698   0.703
    9SOL    HW1  707   1.180   0.779   0.688
    9SOL    HW2  708   1.084   0.713   0.785
   10SOL     OW  709   1.770   0.600   0.232
   10SOL    HW1  710   1.729   0.603   0.146
   10SOL    HW2  711   1.729   0.526   0.276
   11SOL     OW  712   0.757   1.142   1.038
   11SOL    HW1  713   0.689   1.176   1.097
   11SOL    HW2  714   0.791   1.220   0.994
   12SOL     OW  715   0.863   0.780   1.821
   12SOL    HW1  716   0.856   0.851   1.884
   12SOL    HW2  717   0.888   0.822   1.739
   13SOL     OW  718   0.684   1.003   0.650
   13SOL    HW1  719   0.750   0.991   0.718
   13SOL    HW2  720   0.617   1.056   0.691
   14SOL     OW  721   0.709   1.151   1.812
   14SOL    HW1  722   0.757   1.229   1.837
   14SOL    HW2  723   0.626   1.184   1.776
   15SOL     OW  724   0.358   1.406   1.060
   15SOL    HW1  725   0.271   1.402   1.021
   15SOL    HW2  726   0.406   1.468   1.006
   16SOL     OW  727   1.461   1.499   1.353
   16SOL    HW1  728   1.509   1.581   1.363
   16SOL    HW2  729   1.401   1.497   1.428
   17SOL     OW  730   0.448   0.400   1.493
   17SOL    HW1  731   0.527   0.346   1.485
   17SOL    HW2  732   0.376   0.336   1.498
   18SOL     OW  733   1.611   0.452   0.737
   18SOL    HW1  734   1.533   0.474   0.687
   18SOL    HW2  735   1.630   0.530   0.790
   19SOL     OW  736   0.217   1.729   0.467
   19SOL    HW1  737   0.261   1.784   0.532
   19SOL    HW2  738   0.285   1.707   0.404
   20SOL     OW  739   1.136   1.341   1.692
   20SOL    HW1  740   1.177   1.337   1.779
   20SOL    HW2  741   1.084   1.262   1.686
   21SOL     OW  742   0.221   1.447   0.534
   21SOL    HW1  743   0.202   1.541   0.541
   21SOL    HW2  744   0.158   1.406   0.593
   22SOL     OW  745   0.252   1.079   0.878
   22SOL    HW1  746   0.259   0.993   0.920
   22SOL    HW2  747   0.198   1.131   0.939
   23SOL     OW  748   0.615   1.790   1.433
   23SOL    HW1  749   0.531   1.773   1.475
   23SOL    HW2  750   0.635   1.881   1.455
   24SOL     OW  751   0.624   0.960   0.135
   24SOL    HW1  752   0.580   1.040   0.106
   24SOL    HW2  753   0.678   0.988   0.209
   25SOL     OW  754   1.586   0.134   1.457
   25SOL    HW1  755   1.605   0.219   1.418
   25SOL    HW2  756   1.585   0.151   1.552
   26SOL     OW  757   0.128   0.639   0.581
   26SOL    HW1  758   0.092   0.555   0.608
   26SOL    HW2  759   0.097   0.701   0.648
   27SOL     OW  760   1.844   1.759   0.333
   27SOL    HW1  761   1.907   1.729   0.398
   27SOL    HW2  762   1.870   1.850   0.315
   28SOL     OW  763   0.032   1.586   0.105
   28SOL    HW1  764   0.024   1.500   0.146
   28SOL    HW2  765   0.005   1.648   0.173
   29SOL     OW  766   1.689   0.919   0.643
   29SOL    HW1  767   1.772   0.877   0.621
   29SOL    HW2  768   1.667   0.970   0.565
   30SOL     OW  769   1.646   1.105   0.434
   30SOL    HW1  770   1.726   1.120   0.384
   30SOL    HW2  771   1.651   1.167   0.507
   31SOL     OW  772   0.129   0.748   1.588
   31SOL    HW1  773   0.223   0.763   1.590
   31SOL    HW2  774   0.091   0.835   1.600
   32SOL     OW  775   0.615   1.385   0.734
   32SOL    HW1  776   0.567   1.302   0.745
   32SOL    HW2  777   0.597   1.411   0.644
   33SOL     OW  778   1.289   1.238   1.424
   33SOL    HW1  779   1.322   1.171   1.364
   33SOL    HW2  780   1.346   1.231   1.500
   34SOL     OW  781   0.814   0.025   0.526
   34SOL    HW1  782   0.842   0.112   0.498
   34SOL    HW2  783   0.719   0.028   0.519
   35SOL     OW  784   0.178   0.947   1.278
   35SOL    HW1  785   0.268   0.918   1.267
   35SOL    HW2  786   0.134   0.922   1.196
   36SOL     OW  787   1.511   1.006   0.211
   36SOL    HW1  788   1.450   0.940   0.243
   36SOL    HW2  789   1.563   1.030   0.288
   37SOL     OW  790   1.186   1.805   1.622
   37SOL    HW1  791   1.197   1.864   1.547
   37SOL    HW2  792   1.201   1.718   1.586
   38SOL     OW  793   0.326   0.274   1.797
   38SOL    HW1  794   0.386   0.336   1.838
   38SOL    HW2  795   0.245   0.281   1.848
   39SOL     OW  796   1.466   1.419   0.952
   39SOL    HW1  797   1.398   1.434   1.017
   39SOL    HW2  798   1.454   1.328   0.925
   40SOL     OW  799   1.660   1.738   0.581
   40SOL    HW1  800   1.638   1.710   0.492
   40SOL    HW2  801   1.634   1.664   0.636
   41SOL     OW  802   0.595   0.714   0.279
   41SOL    HW1  803   0.617   0.793   0.229
   41SOL    HW2  804   0.534   0.745   0.346
   42SOL     OW  805   1.278   0.345   0.931
   42SOL    HW1  806   1.187   0.317   0.943
   42SOL    HW2  807   1.328   0.296   0.996
   43SOL     OW  808   1.586   1.671   0.318
   43SOL    HW1  809   1.677   1.701   0.312
   43SOL    HW2  810   1.560   1.653   0.228
   44SOL     OW  811   0.794   0.617   1.452
   44SOL    HW1  812   0.766   0.596   1.541
   44SOL    HW2  813   0.751   0.552   1.397
   45SOL     OW  814   1.395   0.475   1.678
   45SOL    HW1  815   1.396   0.519   1.763
   45SOL    HW2  816   1.458   0.404   1.687
   46SOL     OW  817   0.956   0.888   1.582
   46SOL    HW1  818   1.010   0.817   1.547
   46SOL    HW2  819   0.908   0.921   1.506
   47SOL     OW  820   0.994   0.417   1.236
   47SOL    HW1  821   0.909   0.438   1.275
   47SOL    HW2  822   0.971   0.367   1.157
   48SOL     OW  823   1.051   0.699   0.428
   48SOL    HW1  824   1.066   0.691   0.522
   48SOL    HW2  825   0.969   0.652   0.412
   49SOL     OW  826   0.068   0.789   0.817
   49SOL    HW1  827   0.153   0.793   0.862
   49SOL    HW2  828   0.064   0.871   0.768
   50SOL     OW  829   0.131   1.882   1.584
   50SOL    HW1  830   0.133   1.850   1.674
   50SOL    HW2  831   0.058   1.835   1.544
   51SOL     OW  832   0.885   0.359   0.202
   51SOL    HW1  833   0.930   0.405   0.131
   51SOL    HW2  834   0.868   0.272   0.166
   52SOL     OW  835   1.708   0.575   1.828
   52SOL    HW1  836   1.671   0.650   1.780
   52SOL    HW2  837   1.737   0.515   1.759
   53SOL     OW  838   1.376   1.142   0.542
   53SOL    HW1  839   1.454   1.128   0.488
   53SOL    HW2  840   1.323   1.204   0.492
   54SOL     OW  841   0.538   0.200   0.885
   54SOL    HW1  842   0.554   0.220   0.977
   54SOL    HW2  843   0.549   0.284   0.840
   55SOL     OW  844   1.006   1.445   0.473
   55SOL    HW1  845   0.967   1.517   0.424
   55SOL    HW2  846   0.988   1.467   0.565
   56SOL     OW  847   0.357   1.801   0.867
   56SOL    HW1  848   0.398   1.716   0.881
   56SOL    HW2  849   0.423   1.864   0.896
   57SOL     OW  850   1.799   1.059   0.868
   57SOL    HW1  851   1.744   1.040   0.792
   57SOL    HW2  852   1.738   1.064   0.941
   58SOL     OW  853   1.228   1.539   1.513
   58SOL    HW1  854   1.214   1.466   1.573
   58SOL    HW2  855   1.165   1.524   1.442
   59SOL     OW  856   0.327   0.948   0.246
   59SOL    HW1  857   0.408   0.967   0.200
   59SOL    HW2  858   0.319   0.853   0.243
   60SOL     OW  859   1.477   0.742   0.727
   60SOL    HW1  860   1.467   0.697   0.811
   60SOL    HW2  861   1.555   0.797   0.738
   61SOL     OW  862   0.464   1.263   1.737
   61SOL    HW1  863   0.437   1.269   1.646
   61SOL    HW2  864   0.382   1.264   1.787
   62SOL     OW  865   1.108   1.781   0.225
   62SOL    HW1  866   1.052   1.740   0.291
   62SOL    HW2  867   1.128   1.710   0.164
   63SOL     OW  868   0.197   0.278   1.492
   63SOL    HW1  869   0.157   0.365   1.489
   63SOL    HW2  870   0.205   0.259   1.585
   64SOL     OW  871   1.633   1.373   0.082
   64SOL    HW1  872   1.592   1.460   0.081
   64SOL    HW2  873   1.562   1.313   0.064
   65SOL     OW  874   0.470   1.734   0.325
   65SOL    HW1  875   0.512   1.795   0.386
   65SOL    HW2  876   0.540   1.709   0.265
   66SOL     OW  877   1.414   0.100   0.445
   66SOL    HW1  878   1.404   0.079   0.352
   66SOL    HW2  879   1.505   0.127   0.454
   67SOL     OW  880   0.276   1.801   1.215
   67SOL    HW1  881   0.306   1.725   1.264
   67SOL    HW2  882   0.225   1.764   1.143
   68SOL     OW  883   0.938   1.698   0.899
   68SOL    HW1  884   1.016   1.646   0.920
   68SOL    HW2  885   0.893   1.649   0.831
   69SOL     OW  886   0.380   0.698   0.475
   69SOL    HW1  887   0.413   0.609   0.485
   69SOL    HW2  888   0.289   0.693   0.503
   70SOL     OW  889   1.540   0.228   1.724
   70SOL    HW1  890   1.547   0.246   1.818
   70SOL    HW2  891   1.465   0.169   1.716
   71SOL     OW  892   0.625   0.137   0.122
   71SOL    HW1  893   0.715   0.108   0.135
   71SOL    HW2  894   0.597   0.097   0.040
   72SOL     OW  895   0.783   0.313   1.766
   72SOL    HW1  896   0.841   0.236   1.767
   72SOL    HW2  897   0.734   0.307   1.848
   73SOL     OW  898   0.877   1.521   1.193
   73SOL    HW1  899   0.861   1.485   1.106
   73SOL    HW2  900   0.947   1.467   1.230
   74SOL     OW  901   1.341   0.589   1.432
   74SOL    HW1  902   1.372   0.557   1.517
   74SOL    HW2  903   1.377   0.677   1.425
   75SOL     OW  904   0.815   1.395   0.938
   75SOL    HW1  905   0.899   1.385   0.894
   75SOL    HW2  906   0.750   1.396   0.868
   76SOL     OW  907   0.927   0.510   0.903
   76SOL    HW1  908   0.904   0.502   0.810
   76SOL    HW2  909   0.959   0.423   0.928
   77SOL     OW  910   0.548   0.059   0.508
   77SOL    HW1  911   0.468   0.059   0.560
   77SOL    HW2  912   0.536   0.130   0.444
   78SOL     OW  913   1.434   1.199   0.037
   78SOL    HW1  914   1.458   1.125   0.092
   78SOL    HW2  915   1.345   1.223   0.066
   79SOL     OW  916   0.315   0.070   0.198
   79SOL    HW1  917   0.376   0.139   0.170
   79SOL    HW2  918   0.366   5.289   0.194
   80SOL     OW  919   0.944   0.256   0.455
   80SOL    HW1  920   0.916   0.302   0.376
   80SOL    HW2  921   1.037   0.278   0.464
   81SOL     OW  922   1.080   0.680   1.460
   81SOL    HW1  923   1.011   0.615   1.465
   81SOL    HW2  924   1.161   0.630   1.453
   82SOL     OW  925   1.224   1.569   0.794
   82SOL    HW1  926   1.240   1.637   0.728
   82SOL    HW2  927   1.292   1.583   0.860
   83SOL     OW  928   0.467   1.150   0.733
   83SOL    HW1  929   0.398   1.130   0.796
   83SOL    HW2  930   0.427   1.133   0.648
   84SOL     OW  931   1.269   1.794   0.606
   84SOL    HW1  932   1.317   1.857   0.553
   84SOL    HW2  933   1.203   1.847   0.651
   85SOL     OW  934   1.031   0.531   0.030
   85SOL    HW1  935   0.990   0.613   0.001
   85SOL    HW2  936   1.093   0.557   0.097
   86SOL     OW  937   0.097   0.532   1.410
   86SOL    HW1  938   0.177   0.551   1.363
   86SOL    HW2  939   0.077   0.613   1.457
   87SOL     OW  940   0.560   0.239   1.158
   87SOL    HW1  941   0.591   0.152   1.183
   87SOL    HW2  942   0.467   0.240   1.182
   88SOL     OW  943   0.869   0.461   0.639
   88SOL    HW1  944   0.824   0.514   0.574
   88SOL    HW2  945   0.889   0.379   0.595
   89SOL     OW  946   0.978   0.061   0.762
   89SOL    HW1  947   0.914   0.055   0.691
   89SOL    HW2  948   0.986   5.271   0.794
   90SOL     OW  949   1.436   1.163   0.857
   90SOL    HW1  950   1.368   1.096   0.856
   90SOL    HW2  951   1.460   1.175   0.765
   91SOL     OW  952   1.467   0.605   0.979
   91SOL    HW1  953   1.418   0.522   0.983
   91SOL    HW2  954   1.527   0.600   1.053
   92SOL     OW  955   1.848   0.816   0.387
   92SOL    HW1  956   1.900   0.763   0.448
   92SOL    HW2  957   1.817   0.754   0.321
   93SOL     OW  958   0.484   1.439   0.173
   93SOL    HW1  959   0.411   1.399   0.221
   93SOL    HW2  960   0.486   1.392   0.090
   94SOL     OW  961   1.670   1.266   0.648
   94SOL    HW1  962   1.765   1.270   0.661
   94SOL    HW2  963   1.639   1.354   0.669
   95SOL     OW  964   1.398   0.580   0.087
   95SOL    HW1  965   1.336   0.560   0.156
   95SOL    HW2  966   1.456   0.503   0.083
   96SOL     OW  967   0.523   0.268   0.328
   96SOL    HW1  968   0.565   0.212   0.262
   96SOL    HW2  969   0.508   0.351   0.282
   97SOL     OW  970   1.753   1.238   1.574
   97SOL    HW1  971   1.840   1.199   1.571
   97SOL    HW2  972   1.768   1.328   1.604
   98SOL     OW  973   1.059   1.353   1.334
   98SOL    HW1  974   0.985   1.322   1.385
   98SOL    HW2  975   1.135   1.312   1.375
   99SOL     OW  976   1.607   1.625   1.653
   99SOL    HW1  977   1.602   1.659   1.564
   99SOL    HW2  978   1.690   1.578   1.656
  100SOL     OW  979   1.128   1.203   1.106
  100SOL    HW1  980   1.069   1.241   1.171
  100SOL    HW2  981   1.094   1.234   1.022
  101SOL     OW  982   1.629   1.099   1.078
  101SOL    HW1  983   1.625   1.161   1.151
  101SOL    HW2  984   1.550   1.115   1.027
  102SOL     OW  985   0.906   0.106   1.391
  102SOL    HW1  986   0.936   0.072   1.307
  102SOL    HW2  987   0.983   0.148   1.429
  103SOL     OW  988   0.984   1.115   1.722
  103SOL    HW1  989   0.892   1.130   1.742
  103SOL    HW2  990   0.984   1.037   1.666
  104SOL     OW  991   0.712   1.061   0.380
  104SOL    HW1  992   0.697   1.045   0.473
  104SOL    HW2  993   0.791   1.010   0.360
  105SOL     OW  994   0.420   0.819   1.252
  105SOL    HW1  995   0.489   0.825   1.318
  105SOL    HW2  996   0.385   0.730   1.262
  106SOL     OW  997   1.267   0.379   1.272
  106SOL    HW1  998   1.300   0.456   1.319
  106SOL    HW2  999   1.177   0.401   1.249
  107SOL     OW 1000   0.101   1.623   1.367
  107SOL    HW1 1001   0.077   1.632   1.275
  107SOL    HW2 1002   0.187   1.581   1.367
  108SOL     OW 1003   0.346   1.107   0.489
  108SOL    HW1 1004   0.347   1.186   0.435
  108SOL    HW2 1005   0.363   1.036   0.427
  109SOL     OW 1006   0.556   0.538   0.860
  109SOL    HW1 1007   0.572   0.596   0.786
  109SOL    HW2 1008   0.621   0.565   0.926
  110SOL     OW 1009   1.247   1.347   0.393
  110SOL    HW1 1010   1.303   1.420   0.422
  110SOL    HW2 1011   1.160   1.370   0.425
  111SOL     OW 1012   1.280   1.457   1.146
  111SOL    HW1 1013   1.335   1.459   1.224
  111SOL    HW2 1014   1.224   1.380   1.158
  112SOL     OW 1015   1.583   0.626   0.480
  112SOL    HW1 1016   1.534   0.677   0.545
  112SOL    HW2 1017   1.619   0.692   0.420
  113SOL     OW 1018   0.351   1.519   1.311
  113SOL    HW1 1019   0.342   1.476   1.227
  113SOL    HW2 1020   0.445   1.537   1.318
  114SOL     OW 1021   0.414   0.741   1.602
  114SOL    HW1 1022   0.472   0.790   1.544
  114SOL    HW2 1023   0.459   0.659   1.618
  115SOL     OW 1024   1.600   0.778   1.681
  115SOL    HW1 1025   1.514   0.819   1.674
  115SOL    HW2 1026   1.652   0.820   1.613
  116SOL     OW 1027   1.041   0.115   1.782
  116SOL    HW1 1028   1.067   0.195   1.735
  116SOL    HW2 1029   1.049   0.045   1.717
  117SOL     OW 1030   0.483   0.058   1.738
  117SOL    HW1 1031   0.428   5.290   1.698
  117SOL    HW2 1032   0.422   0.130   1.756
  118SOL     OW 1033   0.586   0.873   1.032
  118SOL    HW1 1034   0.616   0.964   1.030
  118SOL    HW2 1035   0.528   0.869   1.109
  119SOL     OW 1036   1.359   0.859   1.031
  119SOL    HW1 1037   1.277   0.851   0.983
  119SOL    HW2 1038   1.398   0.772   1.026
  120SOL     OW 1039   1.204   0.527   0.270
  120SOL    HW1 1040   1.211   0.447   0.322
  120SOL    HW2 1041   1.162   0.590   0.329
  121SOL     OW 1042   0.304   0.206   1.245
  121SOL    HW1 1043   0.265   0.236   1.326
  121SOL    HW2 1044   0.298   0.111   1.249
  122SOL     OW 1045   0.071   1.319   1.281
  122SOL    HW1 1046   0.090   1.259   1.353
  122SOL    HW2 1047   0.003   1.377   1.316
  123SOL     OW 1048   0.727   0.633   1.061
  123SOL    HW1 1049   0.800   0.614   1.001
  123SOL    HW2 1050   0.698   0.721   1.038
  124SOL     OW 1051   1.734   0.960   1.851
  124SOL    HW1 1052   1.687   0.899   1.793
  124SOL    HW2 1053   1.674   0.972   1.925
  125SOL     OW 1054   0.318   0.066   0.653
  125SOL    HW1 1055   0.299   0.160   0.662
  125SOL    HW2 1056   0.317   0.033   0.742
  126SOL     OW 1057   1.619   0.377   0.368
  126SOL    HW1 1058   1.647   0.311   0.432
  126SOL    HW2 1059   1.594   0.452   0.421
  127SOL     OW 1060   1.027   0.760   0.961
  127SOL    HW1 1061   1.025   0.777   1.055
  127SOL    HW2 1062   1.001   0.668   0.953
  128SOL     OW 1063   0.982   1.566   1.716
  128SOL    HW1 1064   0.967   1.610   1.633
  128SOL    HW2 1065   1.026   1.484   1.692
  129SOL     OW 1066   1.855   1.507   1.606
  129SOL    HW1 1067   1.873   1.533   1.515
  129SOL    HW2 1068   1.936   1.526   1.653
  130SOL     OW 1069   0.353   0.917   1.806
  130SOL    HW1 1070   0.434   0.937   1.853
  130SOL    HW2 1071   0.379   0.853   1.740
  131SOL     OW 1072   1.523   0.299   0.126
  131SOL    HW1 1073   1.483   0.213   0.142
  131SOL    HW2 1074   1.562   0.324   0.210
  132SOL     OW 1075   1.294   0.825   0.022
  132SOL    HW1 1076   1.333   0.739   0.040
  132SOL    HW2 1077   1.353   0.865   8.038
  133SOL     OW 1078   1.065   1.335   0.853
  133SOL    HW1 1079   1.068   1.263   0.791
  133SOL    HW2 1080   1.127   1.399   0.819
  134SOL     OW 1081   0.315   0.810   0.950
  134SOL    HW1 1082   0.409   0.828   0.945
  134SOL    HW2 1083   0.309   0.720   0.981
  135SOL     OW 1084   0.337   0.526   1.015
  135SOL    HW1 1085   0.299   0.439   0.998
  135SOL    HW2 1086   0.412   0.531   0.955
  136SOL     OW 1087   1.136   0.378   1.687
  136SOL    HW1 1088   1.088   0.433   1.750
  136SOL    HW2 1089   1.223   0.417   1.683
  137SOL     OW 1090   1.134   0.223   1.465
  137SOL    HW1 1091   1.139   0.281   1.541
  137SOL    HW2 1092   1.189   0.264   1.399
  138SOL     OW 1093   0.008   1.330   0.202
  138SOL    HW1 1094   5.232   1.320   0.145
  138SOL    HW2 1095   0.014   1.247   0.249
  139SOL     OW 1096   0.092   1.783   0.948
  139SOL    HW1 1097   0.058   1.710   0.895
  139SOL    HW2 1098   0.180   1.798   0.914
  140SOL     OW 1099   0.505   1.573   0.907
  140SOL    HW1 1100   0.573   1.638   0.928
  140SOL    HW2 1101   0.548   1.511   0.848
  141SOL     OW 1102   0.985   0.793   1.227
  141SOL    HW1 1103   1.040   0.769   1.302
  141SOL    HW2 1104   0.899   0.756   1.247
  142SOL     OW 1105   0.036   0.564   1.118
  142SOL    HW1 1106   0.118   0.532   1.079
  142SOL    HW2 1107   0.039   0.534   1.209
  143SOL     OW 1108   0.168   0.514   1.714
  143SOL    HW1 1109   0.252   0.494   1.671
  143SOL    HW2 1110   0.137   0.593   1.671
  144SOL     OW 1111   1.376   0.940   1.659
  144SOL    HW1 1112   1.398   1.033   1.658
  144SOL    HW2 1113   1.374   0.914   1.567
  145SOL     OW 1114   0.818   0.571   0.364
  145SOL    HW1 1115   0.827   0.498   0.302
  145SOL    HW2 1116   0.740   0.618   0.333
  146SOL     OW 1117   1.643   0.602   1.187
  146SOL    HW1 1118   1.631   0.542   1.261
  146SOL    HW2 1119   1.730   0.581   1.153
  147SOL     OW 1120   0.257   1.556   1.735
  147SOL    HW1 1121   0.233   1.619   1.804
  147SOL    HW2 1122   0.249   1.470   1.777
  148SOL     OW 1123   0.695   0.454   1.263
  148SOL    HW1 1124   0.647   0.379   1.228
  148SOL    HW2 1125   0.696   0.517   1.191
  149SOL     OW 1126   0.929   1.679   1.467
  149SOL    HW1 1127   0.902   1.646   1.381
  149SOL    HW2 1128   0.925   1.774   1.458
  150SOL     OW 1129   0.469   0.491   0.176
  150SOL    HW1 1130   0.535   0.557   0.195
  150SOL    HW2 1131   0.386   0.534   0.195
  151SOL     OW 1132   0.148   1.138   1.471
  151SOL    HW1 1133   0.147   1.088   1.553
  151SOL    HW2 1134   0.161   1.071   1.403
  152SOL     OW 1135   1.327   1.048   1.224
  152SOL    HW1 1136   1.351   0.984   1.156
  152SOL    HW2 1137   1.256   1.099   1.185
  153SOL     OW 1138   1.306   0.849   0.308
  153SOL    HW1 1139   1.228   0.820   0.356
  153SOL    HW2 1140   1.282   0.838   0.216
  154SOL     OW 1141   1.770   1.745   1.149
  154SOL    HW1 1142   1.831   1.771   1.080
  154SOL    HW2 1143   1.746   1.655   1.129
  155SOL     OW 1144   1.241   1.733   1.115
  155SOL    HW1 1145   1.323   1.753   1.069
  155SOL    HW2 1146   1.246   1.639   1.132
  156SOL     OW 1147   0.083   1.219   1.027
  156SOL    HW1 1148   0.069   1.244   1.119
  156SOL    HW2 1149   5.295   1.207   0.992
  157SOL     OW 1150   0.678   1.665   1.728
  157SOL    HW1 1151   0.623   1.744   1.723
  157SOL    HW2 1152   0.741   1.676   1.657
  158SOL     OW 1153   0.894   0.086   0.139
  158SOL    HW1 1154   0.942   0.078   0.057
  158SOL    HW2 1155   0.913   0.006   0.187
  159SOL     OW 1156   1.713   0.148   0.505
  159SOL    HW1 1157   1.788   0.126   0.449
  159SOL    HW2 1158   1.704   0.072   0.563
  160SOL     OW 1159   1.389   1.568   0.485
  160SOL    HW1 1160   1.453   1.601   0.420
  160SOL    HW2 1161   1.342   1.646   0.514
  161SOL     OW 1162   0.144   1.798   1.843
  161SOL    HW1 1163   0.089   1.735   1.889
  161SOL    HW2 1164   0.189   1.846   1.912
  162SOL     OW 1165   1.277   0.925   0.671
  162SOL    HW1 1166   1.350   0.864   0.677
  162SOL    HW2 1167   1.310   0.998   0.619
  163SOL     OW 1168   0.816   1.273   1.431
  163SOL    HW1 1169   0.788   1.312   1.513
  163SOL    HW2 1170   0.746   1.294   1.369
  164SOL     OW 1171   0.678   1.619   0.155
  164SOL    HW1 1172   0.681   1.626   0.060
  164SOL    HW2 1173   0.617   1.547   0.172
  165SOL     OW 1174   1.628   1.726   1.391
  165SOL    HW1 1175   1.677   1.734   1.310
  165SOL    HW2 1176   1.615   1.817   1.419
  166SOL     OW 1177   1.845   0.158   0.958
  166SOL    HW1 1178   1.847   0.064   0.941
  166SOL    HW2 1179   1.758   0.186   0.930
  167SOL     OW 1180   0.271   0.329   0.719
  167SOL    HW1 1181   0.184   0.366   0.701
  167SOL    HW2 1182   0.271   0.313   0.813
  168SOL     OW 1183   1.156   1.582   0.051
  168SOL    HW1 1184   1.174   1.490   0.070
  168SOL    HW2 1185   1.166   1.589   8.036
  169SOL     OW 1186   0.824   1.006   1.372
  169SOL    HW1 1187   0.868   1.001   1.287
  169SOL    HW2 1188   0.824   1.099   1.395
  170SOL     OW 1189   0.917   0.913   0.296
  170SOL    HW1 1190   0.972   0.938   0.222
  170SOL    HW2 1191   0.965   0.841   0.338
  171SOL     OW 1192   1.510   1.624   0.060
  171SOL    HW1 1193   1.415   1.625   0.050
  171SOL    HW2 1194   1.544   1.624   8.051
  172SOL     OW 1195   0.368   1.303   1.493
  172SOL    HW1 1196   0.359   1.378   1.434
  172SOL    HW2 1197   0.292   1.248   1.474
  173SOL     OW 1198   1.611   1.283   1.281
  173SOL    HW1 1199   1.671   1.273   1.355
  173SOL    HW2 1200   1.551   1.352   1.307
  174SOL     OW 1201   1.050   1.106   0.706
  174SOL    HW1 1202   0.980   1.055   0.746
  174SOL    HW2 1203   1.112   1.041   0.673
  175SOL     OW 1204   1.020   0.242   0.968
  175SOL    HW1 1205   1.000   0.197   0.886
  175SOL    HW2 1206   1.012   0.175   1.035
  176SOL     OW 1207   0.601   1.487   0.480
  176SOL    HW1 1208   0.644   1.438   0.410
  176SOL    HW2 1209   0.535   1.540   0.436
  177SOL     OW 1210   1.723   0.387   1.378
  177SOL    HW1 1211   1.793   0.452   1.378
  177SOL    HW2 1212   1.755   0.317   1.321
  178SOL     OW 1213   0.268   1.326   0.299
  178SOL    HW1 1214   0.182   1.337   0.258
  178SOL    HW2 1215   0.261   1.372   0.382
  179SOL     OW 1216   0.115   1.016   1.718
  179SOL    HW1 1217   0.044   0.982   1.772
  179SOL    HW2 1218   0.195   0.985   1.762
  180SOL     OW 1219   0.673   0.213   1.488
  180SOL    HW1 1220   0.757   0.196   1.445
  180SOL    HW2 1221   0.697   0.259   1.569
  181SOL     OW 1222   0.087   0.354   0.009
  181SOL    HW1 1223   0.002   0.320   0.034
  181SOL    HW2 1224   0.068   0.438   8.047
  182SOL     OW 1225   1.431   0.858   1.401
  182SOL    HW1 1226   1.382   0.919   1.345
  182SOL    HW2 1227   1.520   0.861   1.367
  183SOL     OW 1228   0.079   0.140   0.291
  183SOL    HW1 1229   0.077   0.235   0.280
  183SOL    HW2 1230   0.168   0.115   0.266
  184SOL     OW 1231   1.185   1.319   0.122
  184SOL    HW1 1232   1.089   1.308   0.122
  184SOL    HW2 1233   1.209   1.322   0.214
  185SOL     OW 1234   0.619   0.831   1.435
  185SOL    HW1 1235   0.674   0.907   1.419
  185SOL    HW2 1236   0.681   0.758   1.443
  186SOL     OW 1237   1.484   1.775   0.977
  186SOL    HW1 1238   1.509   1.834   0.906
  186SOL    HW2 1239   1.566   1.758   1.023
  187SOL     OW 1240   0.714   0.572   1.704
  187SOL    HW1 1241   0.755   0.636   1.763
  187SOL    HW2 1242   0.748   0.488   1.734
  188SOL     OW 1243   1.470   1.201   1.632
  188SOL    HW1 1244   1.458   1.215   1.726
  188SOL    HW2 1245   1.564   1.215   1.618
  189SOL     OW 1246   0.379   1.742   1.564
  189SOL    HW1 1247   0.296   1.787   1.549
  189SOL    HW2 1248   0.355   1.661   1.609
  190SOL     OW 1249   1.670   0.882   1.255
  190SOL    HW1 1250   1.663   0.796   1.213
  190SOL    HW2 1251   1.661   0.945   1.184
  191SOL     OW 1252   1.216   0.328   0.473
  191SOL    HW1 1253   1.275   0.254   0.457
  191SOL    HW2 1254   1.256   0.374   0.547
  192SOL     OW 1255   0.590   0.738   0.668
  192SOL    HW1 1256   0.629   0.824   0.653
  192SOL    HW2 1257   0.519   0.732   0.604
  193SOL     OW 1258   1.767   0.361   1.648
  193SOL    HW1 1259   1.747   0.375   1.556
  193SOL    HW2 1260   1.696   0.305   1.680
  194SOL     OW 1261   1.744   0.934   1.512
  194SOL    HW1 1262   1.743   1.028   1.525
  194SOL    HW2 1263   1.729   0.922   1.418
  195SOL     OW 1264   0.892   1.372   0.033
  195SOL    HW1 1265   0.829   1.365   0.105
  195SOL    HW2 1266   0.879   1.461   8.079
  196SOL     OW 1267   0.662   1.794   0.945
  196SOL    HW1 1268   0.641   1.885   0.922
  196SOL    HW2 1269   0.758   1.790   0.938
  197SOL     OW 1270   0.867   0.966   0.855
  197SOL    HW1 1271   0.917   0.895   0.895
  197SOL    HW2 1272   0.833   1.016   0.929
  198SOL     OW 1273   1.076   0.977   0.085
  198SOL    HW1 1274   1.067   1.041   0.014
  198SOL    HW2 1275   1.154   0.927   0.063
  199SOL     OW 1276   1.855   1.555   0.845
  199SOL    HW1 1277   1.777   1.544   0.790
  199SOL    HW2 1278   1.847   1.488   0.913
  200SOL     OW 1279   0.224   1.305   1.859
  200SOL    HW1 1280   0.156   1.243   1.834
  200SOL    HW2 1281   0.213   1.316   1.954
  201SOL     OW 1282   0.092   1.232   0.659
  201SOL    HW1 1283   0.097   1.188   0.744
  201SOL    HW2 1284   0.170   1.202   0.612
  202SOL     OW 1285   0.681   1.401   1.627
  202SOL    HW1 1286   0.600   1.359   1.657
  202SOL    HW2 1287   0.676   1.490   1.664
  203SOL     OW 1288   1.816   0.178   1.233
  203SOL    HW1 1289   1.784   0.089   1.241
  203SOL    HW2 1290   1.832   0.190   1.140
  204SOL     OW 1291   0.430   0.439   0.521
  204SOL    HW1 1292   0.464   0.366   0.470
  204SOL    HW2 1293   0.386   0.398   0.596
  205SOL     OW 1294   1.701   1.490   1.098
  205SOL    HW1 1295   1.620   1.466   1.053
  205SOL    HW2 1296   1.714   1.421   1.163
  206SOL     OW 1297   0.335   0.559   1.288
  206SOL    HW1 1298   0.392   0.502   1.339
  206SOL    HW2 1299   0.349   0.533   1.198
  207SOL     OW 1300   0.827   1.577   0.678
  207SOL    HW1 1301   0.816   1.629   0.598
  207SOL    HW2 1302   0.750   1.521   0.681
  208SOL     OW 1303   1.428   0.218   1.117
  208SOL    HW1 1304   1.465   0.143   1.164
  208SOL    HW2 1305   1.380   0.267   1.183
  209SOL     OW 1306   1.001   0.021   1.142
  209SOL    HW1 1307   0.951   5.253   1.098
  209SOL    HW2 1308   1.088   5.284   1.154
  210SOL     OW 1309   0.770   1.327   0.307
  210SOL    HW1 1310   0.739   1.238   0.322
  210SOL    HW2 1311   0.852   1.332   0.357
  211SOL     OW 1312   0.622   1.557   1.287
  211SOL    HW1 1313   0.624   1.639   1.336
  211SOL    HW2 1314   0.709   1.551   1.247
  212SOL     OW 1315   1.392   0.042   0.170
  212SOL    HW1 1316   1.386   0.027   0.076
  212SOL    HW2 1317   1.304   0.067   0.196
  213SOL     OW 1318   1.308   0.467   0.690
  213SOL    HW1 1319   1.249   0.542   0.693
  213SOL    HW2 1320   1.297   0.424   0.775
  214SOL     OW 1321   1.595   0.216   0.882
  214SOL    HW1 1322   1.527   0.227   0.948
  214SOL    HW2 1323   1.587   0.294   0.827
  215SOL     OW 1324   0.045   1.076   0.311
  215SOL    HW1 1325   0.134   1.050   0.290
  215SOL    HW2 1326   5.298   0.993   0.322
  216SOL     OW 1327   0.882   1.652   0.347
  216SOL    HW1 1328   0.814   1.636   0.282
  216SOL    HW2 1329   0.851   1.728   0.396
  217SOL     OW 1330   0.233   0.633   1.978
  217SOL    HW1 1331   0.156   0.608   2.029
  217SOL    HW2 1332   0.216   0.599   1.890
  218SOL     OW 1333   0.232   0.280   2.852
  218SOL    HW1 1334   0.252   0.244   2.938
  218SOL    HW2 1335   0.152   0.235   2.824
  219SOL     OW 1336   0.000   0.406   2.525
  219SOL    HW1 1337   5.207   0.427   2.530
  219SOL    HW2 1338   0.003   0.315   2.494
  220SOL     OW 1339   0.573   1.282   3.042
  220SOL    HW1 1340   0.490   1.291   2.995
  220SOL    HW2 1341   0.590   1.370   3.077
  221SOL     OW 1342   1.560   1.512   2.568
  221SOL    HW1 1343   1.517   1.493   2.652
  221SOL    HW2 1344   1.488   1.516   2.505
  222SOL     OW 1345   1.130   0.698   2.564
  222SOL    HW1 1346   1.180   0.779   2.550
  222SOL    HW2 1347   1.083   0.713   2.646
  223SOL     OW 1348   1.766   0.607   2.091
  223SOL    HW1 1349   1.746   0.598   1.998
  223SOL    HW2 1350   1.731   0.526   2.130
  224SOL     OW 1351   0.756   1.142   2.900
  224SOL    HW1 1352   0.689   1.176   2.959
  224SOL    HW2 1353   0.791   1.220   2.856
  225SOL     OW 1354   0.863   0.780   3.683
  225SOL    HW1 1355   0.856   0.851   3.746
  225SOL    HW2 1356   0.888   0.822   3.601
  226SOL     OW 1357   0.685   1.004   2.510
  226SOL    HW1 1358   0.751   0.991   2.578
  226SOL    HW2 1359   0.617   1.056   2.552
  227SOL     OW 1360   0.708   1.151   3.674
  227SOL    HW1 1361   0.757   1.229   3.699
  227SOL    HW2 1362   0.626   1.184   3.638
  228SOL     OW 1363   0.358   1.406   2.921
  228SOL    HW1 1364   0.270   1.405   2.884
  228SOL    HW2 1365   0.407   1.468   2.868
  229SOL     OW 1366   1.461   1.499   3.214
  229SOL    HW1 1367   1.510   1.581   3.223
  229SOL    HW2 1368   1.402   1.498   3.290
  230SOL     OW 1369   0.448   0.400   3.354
  230SOL    HW1 1370   0.527   0.346   3.347
  230SOL    HW2 1371   0.376   0.336   3.360
  231SOL     OW 1372   1.611   0.452   2.600
  231SOL    HW1 1373   1.535   0.476   2.547
  231SOL    HW2 1374   1.631   0.530   2.651
  232SOL     OW 1375   0.230   1.714   2.339
  232SOL    HW1 1376   0.265   1.783   2.397
  232SOL    HW2 1377   0.292   1.711   2.266
  233SOL     OW 1378   1.136   1.341   3.554
  233SOL    HW1 1379   1.177   1.337   3.640
  233SOL    HW2 1380   1.084   1.261   3.548
  234SOL     OW 1381   0.222   1.443   2.401
  234SOL    HW1 1382   0.214   1.538   2.399
  234SOL    HW2 1383   0.153   1.414   2.460
  235SOL     OW 1384   0.249   1.078   2.738
  235SOL    HW1 1385   0.260   0.994   2.781
  235SOL    HW2 1386   0.197   1.130   2.800
  236SOL     OW 1387   0.615   1.790   3.295
  236SOL    HW1 1388   0.531   1.773   3.337
  236SOL    HW2 1389   0.636   1.881   3.317
  237SOL     OW 1390   0.584   0.983   1.996
  237SOL    HW1 1391   0.630   1.031   1.927
  237SOL    HW2 1392   0.626   1.011   2.077
  238SOL     OW 1393   1.586   0.134   3.319
  238SOL    HW1 1394   1.606   0.219   3.280
  238SOL    HW2 1395   1.585   0.151   3.413
  239SOL     OW 1396   0.124   0.637   2.439
  239SOL    HW1 1397   0.090   0.554   2.471
  239SOL    HW2 1398   0.098   0.701   2.505
  240SOL     OW 1399   1.842   1.760   2.198
  240SOL    HW1 1400   1.904   1.731   2.264
  240SOL    HW2 1401   1.868   1.850   2.179
  241SOL     OW 1402   0.037   1.599   1.993
  241SOL    HW1 1403   0.024   1.507   2.018
  241SOL    HW2 1404   5.284   1.648   2.054
  242SOL     OW 1405   1.689   0.918   2.501
  242SOL    HW1 1406   1.773   0.877   2.482
  242SOL    HW2 1407   1.668   0.969   2.423
  243SOL     OW 1408   1.645   1.107   2.291
  243SOL    HW1 1409   1.731   1.114   2.249
  243SOL    HW2 1410   1.651   1.168   2.365
  244SOL     OW 1411   0.129   0.748   3.450
  244SOL    HW1 1412   0.224   0.763   3.452
  244SOL    HW2 1413   0.091   0.835   3.462
  245SOL     OW 1414   0.615   1.384   2.597
  245SOL    HW1 1415   0.567   1.302   2.607
  245SOL    HW2 1416   0.597   1.411   2.506
  246SOL     OW 1417   1.289   1.238   3.286
  246SOL    HW1 1418   1.322   1.171   3.226
  246SOL    HW2 1419   1.346   1.232   3.363
  247SOL     OW 1420   0.813   0.025   2.387
  247SOL    HW1 1421   0.841   0.114   2.364
  247SOL    HW2 1422   0.718   0.027   2.380
  248SOL     OW 1423   0.178   0.947   3.140
  248SOL    HW1 1424   0.268   0.919   3.129
  248SOL    HW2 1425   0.134   0.921   3.059
  249SOL     OW 1426   1.532   0.993   2.060
  249SOL    HW1 1427   1.462   0.935   2.091
  249SOL    HW2 1428   1.572   1.027   2.139
  250SOL     OW 1429   1.184   1.805   3.484
  250SOL    HW1 1430   1.198   1.864   3.410
  250SOL    HW2 1431   1.201   1.718   3.448
  251SOL     OW 1432   0.325   0.274   3.659
  251SOL    HW1 1433   0.386   0.336   3.700
  251SOL    HW2 1434   0.245   0.281   3.710
  252SOL     OW 1435   1.466   1.419   2.814
  252SOL    HW1 1436   1.398   1.434   2.879
  252SOL    HW2 1437   1.454   1.328   2.787
  253SOL     OW 1438   1.659   1.737   2.440
  253SOL    HW1 1439   1.638   1.708   2.351
  253SOL    HW2 1440   1.634   1.664   2.496
  254SOL     OW 1441   0.595   0.721   2.126
  254SOL    HW1 1442   0.603   0.802   2.076
  254SOL    HW2 1443   0.530   0.742   2.194
  255SOL     OW 1444   1.279   0.345   2.792
  255SOL    HW1 1445   1.188   0.317   2.805
  255SOL    HW2 1446   1.328   0.296   2.858
  256SOL     OW 1447   1.581   1.669   2.171
  256SOL    HW1 1448   1.671   1.702   2.164
  256SOL    HW2 1449   1.555   1.652   2.080
  257SOL     OW 1450   0.794   0.617   3.314
  257SOL    HW1 1451   0.766   0.596   3.403
  257SOL    HW2 1452   0.751   0.552   3.259
  258SOL     OW 1453   1.395   0.475   3.540
  258SOL    HW1 1454   1.396   0.519   3.625
  258SOL    HW2 1455   1.459   0.404   3.549
  259SOL     OW 1456   0.955   0.888   3.444
  259SOL    HW1 1457   1.010   0.817   3.409
  259SOL    HW2 1458   0.908   0.921   3.368
  260SOL     OW 1459   0.994   0.417   3.098
  260SOL    HW1 1460   0.909   0.439   3.138
  260SOL    HW2 1461   0.971   0.368   3.019
  261SOL     OW 1462   1.050   0.698   2.289
  261SOL    HW1 1463   1.065   0.691   2.383
  261SOL    HW2 1464   0.968   0.652   2.274
  262SOL     OW 1465   0.072   0.788   2.675
  262SOL    HW1 1466   0.155   0.793   2.723
  262SOL    HW2 1467   0.062   0.874   2.635
  263SOL     OW 1468   0.131   1.881   3.446
  263SOL    HW1 1469   0.133   1.850   3.536
  263SOL    HW2 1470   0.057   1.835   3.406
  264SOL     OW 1471   0.871   0.362   2.050
  264SOL    HW1 1472   0.916   0.422   1.991
  264SOL    HW2 1473   0.922   0.281   2.047
  265SOL     OW 1474   1.708   0.575   3.690
  265SOL    HW1 1475   1.671   0.650   3.642
  265SOL    HW2 1476   1.737   0.515   3.621
  266SOL     OW 1477   1.376   1.142   2.403
  266SOL    HW1 1478   1.455   1.129   2.351
  266SOL    HW2 1479   1.324   1.204   2.353
  267SOL     OW 1480   0.538   0.201   2.746
  267SOL    HW1 1481   0.554   0.219   2.838
  267SOL    HW2 1482   0.550   0.286   2.703
  268SOL     OW 1483   1.006   1.444   2.335
  268SOL    HW1 1484   0.968   1.517   2.285
  268SOL    HW2 1485   0.991   1.466   2.426
  269SOL     OW 1486   0.356   1.802   2.731
  269SOL    HW1 1487   0.397   1.716   2.744
  269SOL    HW2 1488   0.423   1.865   2.758
  270SOL     OW 1489   1.799   1.057   2.730
  270SOL    HW1 1490   1.743   1.041   2.653
  270SOL    HW2 1491   1.738   1.063   2.803
  271SOL     OW 1492   1.228   1.539   3.375
  271SOL    HW1 1493   1.214   1.465   3.435
  271SOL    HW2 1494   1.166   1.524   3.304
  272SOL     OW 1495   0.317   0.952   2.109
  272SOL    HW1 1496   0.399   0.976   2.066
  272SOL    HW2 1497   0.294   0.867   2.072
  273SOL     OW 1498   1.477   0.741   2.589
  273SOL    HW1 1499   1.468   0.698   2.674
  273SOL    HW2 1500   1.555   0.797   2.599
  274SOL     OW 1501   0.464   1.263   3.599
  274SOL    HW1 1502   0.437   1.269   3.508
  274SOL    HW2 1503   0.382   1.264   3.649
  275SOL     OW 1504   1.121   1.778   2.093
  275SOL    HW1 1505   1.049   1.735   2.139
  275SOL    HW2 1506   1.144   1.717   2.023
  276SOL     OW 1507   0.198   0.279   3.354
  276SOL    HW1 1508   0.157   0.365   3.351
  276SOL    HW2 1509   0.206   0.259   3.448
  277SOL     OW 1510   1.629   1.379   1.949
  277SOL    HW1 1511   1.588   1.465   1.934
  277SOL    HW2 1512   1.560   1.316   1.930
  278SOL     OW 1513   0.471   1.735   2.182
  278SOL    HW1 1514   0.513   1.793   2.246
  278SOL    HW2 1515   0.543   1.705   2.126
  279SOL     OW 1516   1.406   0.100   2.293
  279SOL    HW1 1517   1.398   0.082   2.199
  279SOL    HW2 1518   1.499   0.122   2.305
  280SOL     OW 1519   0.275   1.801   3.078
  280SOL    HW1 1520   0.307   1.725   3.126
  280SOL    HW2 1521   0.226   1.764   3.004
  281SOL     OW 1522   0.938   1.699   2.762
  281SOL    HW1 1523   1.016   1.647   2.782
  281SOL    HW2 1524   0.894   1.649   2.693
  282SOL     OW 1525   0.385   0.696   2.341
  282SOL    HW1 1526   0.415   0.605   2.349
  282SOL    HW2 1527   0.292   0.693   2.362
  283SOL     OW 1528   1.540   0.228   3.586
  283SOL    HW1 1529   1.547   0.246   3.680
  283SOL    HW2 1530   1.465   0.169   3.578
  284SOL     OW 1531   0.621   0.133   1.969
  284SOL    HW1 1532   0.689   0.070   1.993
  284SOL    HW2 1533   0.574   0.091   1.896
  285SOL     OW 1534   0.783   0.313   3.628
  285SOL    HW1 1535   0.841   0.237   3.629
  285SOL    HW2 1536   0.734   0.307   3.710
  286SOL     OW 1537   0.877   1.521   3.055
  286SOL    HW1 1538   0.861   1.485   2.968
  286SOL    HW2 1539   0.947   1.467   3.092
  287SOL     OW 1540   1.341   0.589   3.294
  287SOL    HW1 1541   1.372   0.558   3.379
  287SOL    HW2 1542   1.377   0.677   3.287
  288SOL     OW 1543   0.815   1.395   2.800
  288SOL    HW1 1544   0.899   1.385   2.756
  288SOL    HW2 1545   0.750   1.396   2.730
  289SOL     OW 1546   0.927   0.510   2.766
  289SOL    HW1 1547   0.904   0.502   2.673
  289SOL    HW2 1548   0.959   0.423   2.790
  290SOL     OW 1549   0.547   0.059   2.366
  290SOL    HW1 1550   0.468   0.060   2.420
  290SOL    HW2 1551   0.535   0.131   2.305
  291SOL     OW 1552   1.428   1.198   1.903
  291SOL    HW1 1553   1.459   1.122   1.953
  291SOL    HW2 1554   1.343   1.219   1.941
  292SOL     OW 1555   0.313   0.063   2.046
  292SOL    HW1 1556   0.379   0.128   2.024
  292SOL    HW2 1557   0.363   5.282   2.061
  293SOL     OW 1558   0.939   0.260   2.324
  293SOL    HW1 1559   0.911   0.299   2.241
  293SOL    HW2 1560   1.034   0.272   2.325
  294SOL     OW 1561   1.080   0.681   3.322
  294SOL    HW1 1562   1.011   0.614   3.327
  294SOL    HW2 1563   1.161   0.630   3.315
  295SOL     OW 1564   1.224   1.569   2.655
  295SOL    HW1 1565   1.241   1.637   2.590
  295SOL    HW2 1566   1.292   1.583   2.722
  296SOL     OW 1567   0.467   1.149   2.595
  296SOL    HW1 1568   0.397   1.130   2.658
  296SOL    HW2 1569   0.427   1.131   2.509
  297SOL     OW 1570   1.270   1.794   2.469
  297SOL    HW1 1571   1.315   1.856   2.411
  297SOL    HW2 1572   1.204   1.847   2.514
  298SOL     OW 1573   1.026   0.547   1.884
  298SOL    HW1 1574   0.984   0.631   1.865
  298SOL    HW2 1575   1.090   0.567   1.952
  299SOL     OW 1576   0.096   0.533   3.272
  299SOL    HW1 1577   0.177   0.551   3.225
  299SOL    HW2 1578   0.077   0.614   3.319
  300SOL     OW 1579   0.560   0.239   3.020
  300SOL    HW1 1580   0.591   0.152   3.046
  300SOL    HW2 1581   0.468   0.240   3.044
  301SOL     OW 1582   0.868   0.462   2.503
  301SOL    HW1 1583   0.822   0.515   2.438
  301SOL    HW2 1584   0.890   0.382   2.457
  302SOL     OW 1585   0.979   0.060   2.624
  302SOL    HW1 1586   0.914   0.054   2.554
  302SOL    HW2 1587   0.987   5.271   2.657
  303SOL     OW 1588   1.437   1.163   2.720
  303SOL    HW1 1589   1.368   1.096   2.718
  303SOL    HW2 1590   1.461   1.175   2.628
  304SOL     OW 1591   1.467   0.605   2.841
  304SOL    HW1 1592   1.418   0.522   2.845
  304SOL    HW2 1593   1.527   0.600   2.915
  305SOL     OW 1594   1.846   0.817   2.244
  305SOL    HW1 1595   1.902   0.766   2.302
  305SOL    HW2 1596   1.817   0.755   2.177
  306SOL     OW 1597   0.492   1.416   2.021
  306SOL    HW1 1598   0.417   1.388   2.073
  306SOL    HW2 1599   0.474   1.384   1.933
  307SOL     OW 1600   1.669   1.264   2.509
  307SOL    HW1 1601   1.764   1.269   2.522
  307SOL    HW2 1602   1.638   1.353   2.530
  308SOL     OW 1603   1.394   0.572   1.933
  308SOL    HW1 1604   1.333   0.553   2.005
  308SOL    HW2 1605   1.479   0.541   1.965
  309SOL     OW 1606   0.523   0.265   2.183
  309SOL    HW1 1607   0.568   0.216   2.114
  309SOL    HW2 1608   0.504   0.350   2.143
  310SOL     OW 1609   1.753   1.238   3.437
  310SOL    HW1 1610   1.841   1.200   3.432
  310SOL    HW2 1611   1.768   1.328   3.465
  311SOL     OW 1612   1.059   1.353   3.195
  311SOL    HW1 1613   0.985   1.322   3.247
  311SOL    HW2 1614   1.135   1.312   3.237
  312SOL     OW 1615   1.607   1.624   3.515
  312SOL    HW1 1616   1.602   1.660   3.426
  312SOL    HW2 1617   1.691   1.578   3.517
  313SOL     OW 1618   1.127   1.201   2.968
  313SOL    HW1 1619   1.069   1.241   3.033
  313SOL    HW2 1620   1.094   1.235   2.884
  314SOL     OW 1621   1.629   1.099   2.940
  314SOL    HW1 1622   1.625   1.161   3.012
  314SOL    HW2 1623   1.550   1.116   2.889
  315SOL     OW 1624   0.906   0.106   3.253
  315SOL    HW1 1625   0.936   0.073   3.169
  315SOL    HW2 1626   0.982   0.148   3.291
  316SOL     OW 1627   0.984   1.114   3.584
  316SOL    HW1 1628   0.892   1.130   3.604
  316SOL    HW2 1629   0.984   1.037   3.528
  317SOL     OW 1630   0.707   1.059   2.234
  317SOL    HW1 1631   0.696   1.045   2.328
  317SOL    HW2 1632   0.784   1.007   2.211
  318SOL     OW 1633   0.420   0.819   3.114
  318SOL    HW1 1634   0.489   0.825   3.180
  318SOL    HW2 1635   0.385   0.730   3.124
  319SOL     OW 1636   1.268   0.379   3.134
  319SOL    HW1 1637   1.300   0.456   3.181
  319SOL    HW2 1638   1.177   0.401   3.111
  320SOL     OW 1639   0.100   1.622   3.230
  320SOL    HW1 1640   0.078   1.634   3.137
  320SOL    HW2 1641   0.186   1.581   3.229
  321SOL     OW 1642   0.344   1.105   2.351
  321SOL    HW1 1643   0.354   1.184   2.298
  321SOL    HW2 1644   0.355   1.033   2.288
  322SOL     OW 1645   0.556   0.538   2.722
  322SOL    HW1 1646   0.572   0.596   2.648
  322SOL    HW2 1647   0.620   0.565   2.788
  323SOL     OW 1648   1.248   1.348   2.251
  323SOL    HW1 1649   1.303   1.420   2.282
  323SOL    HW2 1650   1.161   1.369   2.285
  324SOL     OW 1651   1.280   1.456   3.009
  324SOL    HW1 1652   1.335   1.460   3.086
  324SOL    HW2 1653   1.224   1.380   3.022
  325SOL     OW 1654   1.582   0.623   2.340
  325SOL    HW1 1655   1.537   0.679   2.403
  325SOL    HW2 1656   1.628   0.685   2.283
  326SOL     OW 1657   0.351   1.519   3.173
  326SOL    HW1 1658   0.342   1.476   3.088
  326SOL    HW2 1659   0.445   1.537   3.180
  327SOL     OW 1660   0.414   0.741   3.464
  327SOL    HW1 1661   0.472   0.790   3.406
  327SOL    HW2 1662   0.460   0.659   3.480
  328SOL     OW 1663   1.600   0.778   3.543
  328SOL    HW1 1664   1.514   0.819   3.536
  328SOL    HW2 1665   1.652   0.820   3.475
  329SOL     OW 1666   1.041   0.116   3.643
  329SOL    HW1 1667   1.067   0.195   3.596
  329SOL    HW2 1668   1.050   0.045   3.579
  330SOL     OW 1669   0.483   0.058   3.600
  330SOL    HW1 1670   0.428   5.290   3.560
  330SOL    HW2 1671   0.422   0.130   3.618
  331SOL     OW 1672   0.585   0.873   2.894
  331SOL    HW1 1673   0.616   0.964   2.892
  331SOL    HW2 1674   0.529   0.869   2.971
  332SOL     OW 1675   1.359   0.859   2.893
  332SOL    HW1 1676   1.277   0.851   2.845
  332SOL    HW2 1677   1.398   0.772   2.888
  333SOL     OW 1678   1.206   0.529   2.130
  333SOL    HW1 1679   1.211   0.448   2.181
  333SOL    HW2 1680   1.164   0.592   2.189
  334SOL     OW 1681   0.304   0.206   3.107
  334SOL    HW1 1682   0.265   0.237   3.188
  334SOL    HW2 1683   0.296   0.111   3.110
  335SOL     OW 1684   0.070   1.319   3.143
  335SOL    HW1 1685   0.090   1.259   3.215
  335SOL    HW2 1686   0.003   1.377   3.178
  336SOL     OW 1687   0.727   0.632   2.923
  336SOL    HW1 1688   0.799   0.614   2.863
  336SOL    HW2 1689   0.698   0.721   2.900
  337SOL     OW 1690   1.734   0.959   3.714
  337SOL    HW1 1691   1.687   0.900   3.655
  337SOL    HW2 1692   1.674   0.972   3.788
  338SOL     OW 1693   0.317   0.068   2.514
  338SOL    HW1 1694   0.299   0.161   2.524
  338SOL    HW2 1695   0.319   0.034   2.604
  339SOL     OW 1696   1.611   0.374   2.228
  339SOL    HW1 1697   1.645   0.311   2.292
  339SOL    HW2 1698   1.591   0.452   2.280
  340SOL     OW 1699   1.027   0.759   2.823
  340SOL    HW1 1700   1.025   0.777   2.917
  340SOL    HW2 1701   1.001   0.668   2.815
  341SOL     OW 1702   0.981   1.565   3.578
  341SOL    HW1 1703   0.967   1.610   3.495
  341SOL    HW2 1704   1.026   1.484   3.554
  342SOL     OW 1705   1.856   1.507   3.467
  342SOL    HW1 1706   1.872   1.533   3.376
  342SOL    HW2 1707   1.938   1.527   3.512
  343SOL     OW 1708   0.353   0.916   3.669
  343SOL    HW1 1709   0.434   0.937   3.715
  343SOL    HW2 1710   0.379   0.853   3.602
  344SOL     OW 1711   1.527   0.273   1.988
  344SOL    HW1 1712   1.464   0.208   2.019
  344SOL    HW2 1713   1.563   0.311   2.068
  345SOL     OW 1714   1.292   0.827   1.894
  345SOL    HW1 1715   1.335   0.741   1.897
  345SOL    HW2 1716   1.324   0.866   1.812
  346SOL     OW 1717   1.066   1.335   2.715
  346SOL    HW1 1718   1.069   1.263   2.653
  346SOL    HW2 1719   1.128   1.399   2.681
  347SOL     OW 1720   0.315   0.811   2.812
  347SOL    HW1 1721   0.409   0.829   2.808
  347SOL    HW2 1722   0.309   0.720   2.843
  348SOL     OW 1723   0.337   0.526   2.877
  348SOL    HW1 1724   0.299   0.439   2.860
  348SOL    HW2 1725   0.411   0.531   2.817
  349SOL     OW 1726   1.136   0.378   3.549
  349SOL    HW1 1727   1.088   0.433   3.612
  349SOL    HW2 1728   1.223   0.417   3.545
  350SOL     OW 1729   1.134   0.223   3.327
  350SOL    HW1 1730   1.139   0.281   3.403
  350SOL    HW2 1731   1.189   0.264   3.261
  351SOL     OW 1732   0.001   1.331   2.072
  351SOL    HW1 1733   5.226   1.321   2.014
  351SOL    HW2 1734   0.012   1.244   2.112
  352SOL     OW 1735   0.092   1.782   2.811
  352SOL    HW1 1736   0.059   1.711   2.757
  352SOL    HW2 1737   0.179   1.800   2.777
  353SOL     OW 1738   0.505   1.573   2.769
  353SOL    HW1 1739   0.572   1.638   2.790
  353SOL    HW2 1740   0.549   1.511   2.710
  354SOL     OW 1741   0.985   0.793   3.089
  354SOL    HW1 1742   1.040   0.769   3.164
  354SOL    HW2 1743   0.899   0.756   3.110
  355SOL     OW 1744   0.036   0.564   2.979
  355SOL    HW1 1745   0.119   0.533   2.942
  355SOL    HW2 1746   0.039   0.534   3.071
  356SOL     OW 1747   0.168   0.514   3.576
  356SOL    HW1 1748   0.252   0.494   3.534
  356SOL    HW2 1749   0.137   0.593   3.533
  357SOL     OW 1750   1.376   0.940   3.521
  357SOL    HW1 1751   1.398   1.033   3.520
  357SOL    HW2 1752   1.374   0.915   3.428
  358SOL     OW 1753   0.814   0.571   2.222
  358SOL    HW1 1754   0.818   0.497   2.162
  358SOL    HW2 1755   0.740   0.624   2.191
  359SOL     OW 1756   1.642   0.601   3.049
  359SOL    HW1 1757   1.631   0.542   3.123
  359SOL    HW2 1758   1.729   0.581   3.015
  360SOL     OW 1759   0.257   1.556   3.597
  360SOL    HW1 1760   0.233   1.619   3.666
  360SOL    HW2 1761   0.249   1.470   3.639
  361SOL     OW 1762   0.695   0.454   3.124
  361SOL    HW1 1763   0.647   0.379   3.089
  361SOL    HW2 1764   0.696   0.517   3.053
  362SOL     OW 1765   0.929   1.679   3.329
  362SOL    HW1 1766   0.902   1.646   3.243
  362SOL    HW2 1767   0.926   1.774   3.321
  363SOL     OW 1768   0.464   0.493   2.043
  363SOL    HW1 1769   0.527   0.562   2.066
  363SOL    HW2 1770   0.380   0.537   2.037
  364SOL     OW 1771   0.148   1.138   3.333
  364SOL    HW1 1772   0.147   1.088   3.415
  364SOL    HW2 1773   0.161   1.071   3.265
  365SOL     OW 1774   1.327   1.048   3.086
  365SOL    HW1 1775   1.351   0.985   3.018
  365SOL    HW2 1776   1.256   1.099   3.047
  366SOL     OW 1777   1.310   0.857   2.169
  366SOL    HW1 1778   1.234   0.826   2.218
  366SOL    HW2 1779   1.286   0.843   2.077
  367SOL     OW 1780   1.766   1.744   3.009
  367SOL    HW1 1781   1.831   1.770   2.943
  367SOL    HW2 1782   1.746   1.652   2.988
  368SOL     OW 1783   1.240   1.732   2.975
  368SOL    HW1 1784   1.323   1.753   2.931
  368SOL    HW2 1785   1.247   1.638   2.994
  369SOL     OW 1786   0.083   1.219   2.889
  369SOL    HW1 1787   0.069   1.244   2.981
  369SOL    HW2 1788   5.294   1.207   2.855
  370SOL     OW 1789   0.678   1.665   3.589
  370SOL    HW1 1790   0.624   1.744   3.585
  370SOL    HW2 1791   0.742   1.676   3.519
  371SOL     OW 1792   1.712   0.147   2.366
  371SOL    HW1 1793   1.788   0.127   2.311
  371SOL    HW2 1794   1.705   0.072   2.425
  372SOL     OW 1795   1.390   1.568   2.346
  372SOL    HW1 1796   1.450   1.600   2.279
  372SOL    HW2 1797   1.342   1.646   2.374
  373SOL     OW 1798   0.144   1.798   3.705
  373SOL    HW1 1799   0.089   1.735   3.752
  373SOL    HW2 1800   0.189   1.846   3.774
  374SOL     OW 1801   1.277   0.925   2.533
  374SOL    HW1 1802   1.351   0.864   2.539
  374SOL    HW2 1803   1.311   0.998   2.481
  375SOL     OW 1804   0.816   1.272   3.293
  375SOL    HW1 1805   0.788   1.312   3.375
  375SOL    HW2 1806   0.746   1.295   3.231
  376SOL     OW 1807   0.672   1.618   2.017
  376SOL    HW1 1808   0.682   1.630   1.923
  376SOL    HW2 1809   0.618   1.540   2.026
  377SOL     OW 1810   1.627   1.725   3.253
  377SOL    HW1 1811   1.677   1.733   3.171
  377SOL    HW2 1812   1.615   1.815   3.282
  378SOL     OW 1813   1.845   0.158   2.820
  378SOL    HW1 1814   1.846   0.063   2.803
  378SOL    HW2 1815   1.758   0.186   2.792
  379SOL     OW 1816   0.270   0.328   2.581
  379SOL    HW1 1817   0.184   0.366   2.564
  379SOL    HW2 1818   0.271   0.313   2.675
  380SOL     OW 1819   1.207   1.607   1.893
  380SOL    HW1 1820   1.198   1.515   1.920
  380SOL    HW2 1821   1.142   1.618   1.824
  381SOL     OW 1822   0.824   1.006   3.234
  381SOL    HW1 1823   0.868   1.002   3.149
  381SOL    HW2 1824   0.824   1.099   3.257
  382SOL     OW 1825   0.915   0.910   2.152
  382SOL    HW1 1826   0.976   0.942   2.085
  382SOL    HW2 1827   0.962   0.841   2.197
  383SOL     OW 1828   1.493   1.625   1.904
  383SOL    HW1 1829   1.398   1.619   1.891
  383SOL    HW2 1830   1.529   1.631   1.816
  384SOL     OW 1831   0.368   1.303   3.355
  384SOL    HW1 1832   0.359   1.378   3.296
  384SOL    HW2 1833   0.292   1.249   3.335
  385SOL     OW 1834   1.610   1.283   3.143
  385SOL    HW1 1835   1.672   1.274   3.215
  385SOL    HW2 1836   1.551   1.353   3.169
  386SOL     OW 1837   1.050   1.106   2.567
  386SOL    HW1 1838   0.980   1.055   2.607
  386SOL    HW2 1839   1.113   1.041   2.536
  387SOL     OW 1840   1.020   0.242   2.829
  387SOL    HW1 1841   1.000   0.197   2.748
  387SOL    HW2 1842   1.012   0.175   2.897
  388SOL     OW 1843   0.601   1.487   2.343
  388SOL    HW1 1844   0.645   1.439   2.274
  388SOL    HW2 1845   0.535   1.540   2.298
  389SOL     OW 1846   1.723   0.387   3.240
  389SOL    HW1 1847   1.793   0.452   3.240
  389SOL    HW2 1848   1.755   0.317   3.183
  390SOL     OW 1849   0.260   1.348   2.153
  390SOL    HW1 1850   0.167   1.351   2.131
  390SOL    HW2 1851   0.264   1.385   2.242
  391SOL     OW 1852   0.115   1.015   3.580
  391SOL    HW1 1853   0.044   0.982   3.634
  391SOL    HW2 1854   0.195   0.985   3.623
  392SOL     OW 1855   0.673   0.213   3.350
  392SOL    HW1 1856   0.757   0.196   3.307
  392SOL    HW2 1857   0.697   0.259   3.431
  393SOL     OW 1858   0.078   0.338   1.900
  393SOL    HW1 1859   5.288   0.310   1.885
  393SOL    HW2 1860   0.093   0.406   1.833
  394SOL     OW 1861   1.430   0.858   3.263
  394SOL    HW1 1862   1.382   0.919   3.207
  394SOL    HW2 1863   1.520   0.861   3.229
  395SOL     OW 1864   0.083   0.141   2.157
  395SOL    HW1 1865   0.076   0.234   2.138
  395SOL    HW2 1866   0.170   0.116   2.126
  396SOL     OW 1867   1.179   1.340   1.979
  396SOL    HW1 1868   1.089   1.310   1.982
  396SOL    HW2 1869   1.208   1.340   2.070
  397SOL     OW 1870   0.619   0.831   3.297
  397SOL    HW1 1871   0.674   0.908   3.281
  397SOL    HW2 1872   0.681   0.758   3.305
  398SOL     OW 1873   1.485   1.774   2.839
  398SOL    HW1 1874   1.510   1.834   2.769
  398SOL    HW2 1875   1.566   1.760   2.888
  399SOL     OW 1876   0.714   0.572   3.566
  399SOL    HW1 1877   0.755   0.636   3.624
  399SOL    HW2 1878   0.748   0.488   3.596
  400SOL     OW 1879   1.471   1.201   3.494
  400SOL    HW1 1880   1.459   1.215   3.588
  400SOL    HW2 1881   1.564   1.215   3.480
  401SOL     OW 1882   0.379   1.742   3.426
  401SOL    HW1 1883   0.296   1.787   3.411
  401SOL    HW2 1884   0.354   1.661   3.471
  402SOL     OW 1885   1.670   0.882   3.117
  402SOL    HW1 1886   1.663   0.796   3.074
  402SOL    HW2 1887   1.661   0.945   3.047
  403SOL     OW 1888   1.221   0.320   2.328
  403SOL    HW1 1889   1.284   0.248   2.320
  403SOL    HW2 1890   1.251   0.371   2.402
  404SOL     OW 1891   0.590   0.739   2.530
  404SOL    HW1 1892   0.630   0.824   2.514
  404SOL    HW2 1893   0.521   0.731   2.465
  405SOL     OW 1894   1.767   0.361   3.510
  405SOL    HW1 1895   1.747   0.375   3.418
  405SOL    HW2 1896   1.696   0.305   3.542
  406SOL     OW 1897   1.744   0.934   3.375
  406SOL    HW1 1898   1.744   1.028   3.388
  406SOL    HW2 1899   1.729   0.922   3.281
  407SOL     OW 1900   0.862   1.367   1.894
  407SOL    HW1 1901   0.824   1.396   1.977
  407SOL    HW2 1902   0.881   1.449   1.848
  408SOL     OW 1903   0.662   1.794   2.807
  408SOL    HW1 1904   0.641   1.885   2.784
  408SOL    HW2 1905   0.758   1.790   2.800
  409SOL     OW 1906   0.867   0.966   2.717
  409SOL    HW1 1907   0.917   0.895   2.757
  409SOL    HW2 1908   0.833   1.016   2.791
  410SOL     OW 1909   1.078   0.987   1.950
  410SOL    HW1 1910   1.058   1.038   1.872
  410SOL    HW2 1911   1.154   0.935   1.925
  411SOL     OW 1912   1.856   1.555   2.707
  411SOL    HW1 1913   1.777   1.545   2.653
  411SOL    HW2 1914   1.845   1.491   2.777
  412SOL     OW 1915   0.224   1.305   3.721
  412SOL    HW1 1916   0.156   1.243   3.696
  412SOL    HW2 1917   0.214   1.316   3.816
  413SOL     OW 1918   0.086   1.221   2.516
  413SOL    HW1 1919   0.098   1.189   2.606
  413SOL    HW2 1920   0.172   1.211   2.476
  414SOL     OW 1921   0.680   1.401   3.489
  414SOL    HW1 1922   0.600   1.359   3.519
  414SOL    HW2 1923   0.676   1.490   3.525
  415SOL     OW 1924   1.816   0.178   3.095
  415SOL    HW1 1925   1.784   0.088   3.103
  415SOL    HW2 1926   1.832   0.190   3.002
  416SOL     OW 1927   0.432   0.436   2.384
  416SOL    HW1 1928   0.463   0.362   2.332
  416SOL    HW2 1929   0.387   0.395   2.458
  417SOL     OW 1930   1.703   1.487   2.956
  417SOL    HW1 1931   1.620   1.464   2.914
  417SOL    HW2 1932   1.714   1.420   3.024
  418SOL     OW 1933   0.335   0.559   3.151
  418SOL    HW1 1934   0.392   0.502   3.202
  418SOL    HW2 1935   0.350   0.532   3.060
  419SOL     OW 1936   0.827   1.577   2.541
  419SOL    HW1 1937   0.817   1.629   2.461
  419SOL    HW2 1938   0.750   1.521   2.543
  420SOL     OW 1939   1.428   0.218   2.978
  420SOL    HW1 1940   1.465   0.144   3.026
  420SOL    HW2 1941   1.380   0.267   3.044
  421SOL     OW 1942   1.002   0.022   3.004
  421SOL    HW1 1943   0.951   5.252   2.961
  421SOL    HW2 1944   1.089   5.284   3.017
  422SOL     OW 1945   0.771   1.332   2.176
  422SOL    HW1 1946   0.741   1.242   2.182
  422SOL    HW2 1947   0.854   1.333   2.224
  423SOL     OW 1948   0.622   1.557   3.149
  423SOL    HW1 1949   0.624   1.639   3.198
  423SOL    HW2 1950   0.709   1.551   3.109
  424SOL     OW 1951   1.355   0.040   2.023
  424SOL    HW1 1952   1.386   5.297   1.944
  424SOL    HW2 1953   1.276   5.292   2.047
  425SOL     OW 1954   1.301   0.463   2.547
  425SOL    HW1 1955   1.246   0.541   2.553
  425SOL    HW2 1956   1.295   0.423   2.634
  426SOL     OW 1957   1.594   0.216   2.744
  426SOL    HW1 1958   1.527   0.227   2.811
  426SOL    HW2 1959   1.588   0.294   2.689
  427SOL     OW 1960   0.047   1.069   2.153
  427SOL    HW1 1961   0.137   1.038   2.142
  427SOL    HW2 1962   5.300   0.993   2.186
  428SOL     OW 1963   0.884   1.650   2.205
  428SOL    HW1 1964   0.811   1.635   2.144
  428SOL    HW2 1965   0.856   1.726   2.256
  429SOL     OW 1966   0.233   0.633   3.840
  429SOL    HW1 1967   0.156   0.608   3.891
  429SOL    HW2 1968   0.216   0.599   3.753
  430SOL     OW 1969   0.232   0.280   4.714
  430SOL    HW1 1970   0.252   0.244   4.800
  430SOL    HW2 1971   0.152   0.235   4.686
  431SOL     OW 1972   0.000   0.406   4.387
  431SOL    HW1 1973   5.207   0.427   4.392
  431SOL    HW2 1974   0.003   0.315   4.356
  432SOL     OW 1975   0.573   1.282   4.904
  432SOL    HW1 1976   0.490   1.291   4.857
  432SOL    HW2 1977   0.590   1.370   4.939
  433SOL     OW 1978   1.558   1.511   4.430
  433SOL    HW1 1979   1.516   1.493   4.514
  433SOL    HW2 1980   1.486   1.516   4.367
  434SOL     OW 1981   1.130   0.698   4.426
  434SOL    HW1 1982   1.180   0.779   4.412
  434SOL    HW2 1983   1.083   0.713   4.508
  435SOL     OW 1984   1.765   0.607   3.953
  435SOL    HW1 1985   1.746   0.598   3.860
  435SOL    HW2 1986   1.731   0.526   3.992
  436SOL     OW 1987   0.757   1.142   4.762
  436SOL    HW1 1988   0.689   1.176   4.821
  436SOL    HW2 1989   0.791   1.220   4.718
  437SOL     OW 1990   0.863   0.780   5.545
  437SOL    HW1 1991   0.856   0.851   5.608
  437SOL    HW2 1992   0.888   0.822   5.463
  438SOL     OW 1993   0.685   1.004   4.372
  438SOL    HW1 1994   0.751   0.991   4.440
  438SOL    HW2 1995   0.617   1.056   4.414
  439SOL     OW 1996   0.708   1.151   5.536
  439SOL    HW1 1997   0.757   1.229   5.561
  439SOL    HW2 1998   0.626   1.184   5.500
  440SOL     OW 1999   0.358   1.406   4.783
  440SOL    HW1 2000   0.270   1.405   4.746
  440SOL    HW2 2001   0.407   1.468   4.730
  441SOL     OW 2002   1.461   1.499   5.077
  441SOL    HW1 2003   1.510   1.580   5.086
  441SOL    HW2 2004   1.402   1.497   5.152
  442SOL     OW 2005   0.448   0.400   5.216
  442SOL    HW1 2006   0.527   0.346   5.209
  442SOL    HW2 2007   0.376   0.336   5.222
  443SOL     OW 2008   1.611   0.452   4.462
  443SOL    HW1 2009   1.535   0.477   4.409
  443SOL    HW2 2010   1.631   0.530   4.513
  444SOL     OW 2011   0.230   1.714   4.201
  444SOL    HW1 2012   0.265   1.783   4.259
  444SOL    HW2 2013   0.292   1.710   4.128
  445SOL     OW 2014   1.136   1.341   5.416
  445SOL    HW1 2015   1.177   1.337   5.502
  445SOL    HW2 2016   1.084   1.261   5.410
  446SOL     OW 2017   0.222   1.443   4.263
  446SOL    HW1 2018   0.214   1.538   4.261
  446SOL    HW2 2019   0.152   1.415   4.322
  447SOL     OW 2020   0.249   1.078   4.600
  447SOL    HW1 2021   0.260   0.994   4.643
  447SOL    HW2 2022   0.197   1.130   4.662
  448SOL     OW 2023   0.615   1.790   5.157
  448SOL    HW1 2024   0.531   1.773   5.199
  448SOL    HW2 2025   0.635   1.881   5.179
  449SOL     OW 2026   0.584   0.983   3.858
  449SOL    HW1 2027   0.629   1.031   3.789
  449SOL    HW2 2028   0.626   1.011   3.939
  450SOL     OW 2029   1.586   0.134   5.181
  450SOL    HW1 2030   1.606   0.219   5.142
  450SOL    HW2 2031   1.585   0.151   5.275
  451SOL     OW 2032   0.124   0.637   4.301
  451SOL    HW1 2033   0.090   0.554   4.333
  451SOL    HW2 2034   0.098   0.701   4.367
  452SOL     OW 2035   1.840   1.758   4.058
  452SOL    HW1 2036   1.901   1.730   4.126
  452SOL    HW2 2037   1.866   1.848   4.038
  453SOL     OW 2038   0.037   1.599   3.855
  453SOL    HW1 2039   0.024   1.507   3.880
  453SOL    HW2 2040   5.284   1.648   3.917
  454SOL     OW 2041   1.689   0.918   4.364
  454SOL    HW1 2042   1.773   0.877   4.344
  454SOL    HW2 2043   1.668   0.969   4.285
  455SOL     OW 2044   1.646   1.107   4.154
  455SOL    HW1 2045   1.731   1.114   4.111
  455SOL    HW2 2046   1.651   1.168   4.227
  456SOL     OW 2047   0.129   0.748   5.312
  456SOL    HW1 2048   0.223   0.763   5.314
  456SOL    HW2 2049   0.091   0.835   5.324
  457SOL     OW 2050   0.615   1.384   4.459
  457SOL    HW1 2051   0.567   1.302   4.469
  457SOL    HW2 2052   0.597   1.411   4.368
  458SOL     OW 2053   1.289   1.238   5.148
  458SOL    HW1 2054   1.322   1.171   5.088
  458SOL    HW2 2055   1.346   1.231   5.225
  459SOL     OW 2056   0.813   0.025   4.249
  459SOL    HW1 2057   0.841   0.114   4.226
  459SOL    HW2 2058   0.718   0.027   4.242
  460SOL     OW 2059   0.178   0.947   5.002
  460SOL    HW1 2060   0.268   0.919   4.991
  460SOL    HW2 2061   0.134   0.921   4.921
  461SOL     OW 2062   1.532   0.993   3.922
  461SOL    HW1 2063   1.462   0.935   3.953
  461SOL    HW2 2064   1.572   1.027   4.002
  462SOL     OW 2065   1.185   1.805   5.346
  462SOL    HW1 2066   1.197   1.864   5.271
  462SOL    HW2 2067   1.201   1.718   5.310
  463SOL     OW 2068   0.326   0.274   5.521
  463SOL    HW1 2069   0.386   0.336   5.562
  463SOL    HW2 2070   0.245   0.281   5.572
  464SOL     OW 2071   1.466   1.419   4.676
  464SOL    HW1 2072   1.398   1.434   4.742
  464SOL    HW2 2073   1.454   1.328   4.649
  465SOL     OW 2074   1.663   1.729   4.301
  465SOL    HW1 2075   1.636   1.702   4.213
  465SOL    HW2 2076   1.634   1.658   4.358
  466SOL     OW 2077   0.595   0.721   3.988
  466SOL    HW1 2078   0.604   0.802   3.938
  466SOL    HW2 2079   0.530   0.743   4.056
  467SOL     OW 2080   1.279   0.345   4.654
  467SOL    HW1 2081   1.188   0.317   4.667
  467SOL    HW2 2082   1.328   0.296   4.720
  468SOL     OW 2083   1.579   1.667   4.033
  468SOL    HW1 2084   1.669   1.701   4.026
  468SOL    HW2 2085   1.553   1.652   3.942
  469SOL     OW 2086   0.794   0.617   5.176
  469SOL    HW1 2087   0.766   0.596   5.265
  469SOL    HW2 2088   0.751   0.552   5.121
  470SOL     OW 2089   1.395   0.475   5.402
  470SOL    HW1 2090   1.396   0.519   5.487
  470SOL    HW2 2091   1.459   0.404   5.411
  471SOL     OW 2092   0.955   0.888   5.306
  471SOL    HW1 2093   1.010   0.817   5.271
  471SOL    HW2 2094   0.908   0.921   5.230
  472SOL     OW 2095   0.994   0.417   4.960
  472SOL    HW1 2096   0.909   0.439   5.000
  472SOL    HW2 2097   0.971   0.368   4.881
  473SOL     OW 2098   1.050   0.698   4.151
  473SOL    HW1 2099   1.065   0.691   4.245
  473SOL    HW2 2100   0.968   0.652   4.136
  474SOL     OW 2101   0.072   0.787   4.537
  474SOL    HW1 2102   0.155   0.793   4.585
  474SOL    HW2 2103   0.061   0.874   4.497
  475SOL     OW 2104   0.131   1.881   5.308
  475SOL    HW1 2105   0.133   1.850   5.398
  475SOL    HW2 2106   0.058   1.835   5.268
  476SOL     OW 2107   0.871   0.362   3.912
  476SOL    HW1 2108   0.916   0.422   3.852
  476SOL    HW2 2109   0.923   0.282   3.909
  477SOL     OW 2110   1.708   0.575   5.552
  477SOL    HW1 2111   1.671   0.650   5.504
  477SOL    HW2 2112   1.737   0.515   5.484
  478SOL     OW 2113   1.376   1.142   4.265
  478SOL    HW1 2114   1.455   1.129   4.213
  478SOL    HW2 2115   1.324   1.204   4.215
  479SOL     OW 2116   0.538   0.201   4.608
  479SOL    HW1 2117   0.554   0.219   4.700
  479SOL    HW2 2118   0.550   0.286   4.565
  480SOL     OW 2119   1.006   1.444   4.197
  480SOL    HW1 2120   0.968   1.516   4.147
  480SOL    HW2 2121   0.991   1.467   4.288
  481SOL     OW 2122   0.356   1.802   4.593
  481SOL    HW1 2123   0.398   1.716   4.606
  481SOL    HW2 2124   0.423   1.865   4.620
  482SOL     OW 2125   1.798   1.058   4.591
  482SOL    HW1 2126   1.743   1.041   4.515
  482SOL    HW2 2127   1.737   1.063   4.665
  483SOL     OW 2128   1.228   1.539   5.237
  483SOL    HW1 2129   1.214   1.466   5.297
  483SOL    HW2 2130   1.166   1.524   5.166
  484SOL     OW 2131   0.317   0.952   3.971
  484SOL    HW1 2132   0.399   0.976   3.928
  484SOL    HW2 2133   0.295   0.867   3.934
  485SOL     OW 2134   1.477   0.741   4.452
  485SOL    HW1 2135   1.468   0.698   4.536
  485SOL    HW2 2136   1.555   0.797   4.461
  486SOL     OW 2137   0.464   1.263   5.461
  486SOL    HW1 2138   0.437   1.269   5.370
  486SOL    HW2 2139   0.382   1.264   5.511
  487SOL     OW 2140   1.120   1.777   3.955
  487SOL    HW1 2141   1.048   1.734   4.001
  487SOL    HW2 2142   1.143   1.717   3.885
  488SOL     OW 2143   0.198   0.279   5.216
  488SOL    HW1 2144   0.157   0.365   5.213
  488SOL    HW2 2145   0.206   0.259   5.310
  489SOL     OW 2146   1.629   1.380   3.812
  489SOL    HW1 2147   1.588   1.465   3.796
  489SOL    HW2 2148   1.560   1.316   3.792
  490SOL     OW 2149   0.471   1.735   4.044
  490SOL    HW1 2150   0.513   1.793   4.108
  490SOL    HW2 2151   0.543   1.706   3.988
  491SOL     OW 2152   1.406   0.100   4.155
  491SOL    HW1 2153   1.398   0.082   4.061
  491SOL    HW2 2154   1.499   0.122   4.167
  492SOL     OW 2155   0.275   1.801   4.940
  492SOL    HW1 2156   0.307   1.725   4.988
  492SOL    HW2 2157   0.226   1.764   4.866
  493SOL     OW 2158   0.939   1.698   4.624
  493SOL    HW1 2159   1.017   1.646   4.643
  493SOL    HW2 2160   0.894   1.649   4.555
  494SOL     OW 2161   0.385   0.696   4.203
  494SOL    HW1 2162   0.415   0.605   4.211
  494SOL    HW2 2163   0.292   0.693   4.224
  495SOL     OW 2164   1.540   0.228   5.448
  495SOL    HW1 2165   1.547   0.246   5.542
  495SOL    HW2 2166   1.465   0.169   5.440
  496SOL     OW 2167   0.621   0.133   3.831
  496SOL    HW1 2168   0.690   0.071   3.855
  496SOL    HW2 2169   0.574   0.091   3.758
  497SOL     OW 2170   0.783   0.313   5.490
  497SOL    HW1 2171   0.841   0.237   5.491
  497SOL    HW2 2172   0.734   0.307   5.572
  498SOL     OW 2173   0.877   1.521   4.918
  498SOL    HW1 2174   0.862   1.486   4.830
  498SOL    HW2 2175   0.947   1.467   4.954
  499SOL     OW 2176   1.341   0.589   5.156
  499SOL    HW1 2177   1.372   0.558   5.241
  499SOL    HW2 2178   1.377   0.677   5.149
  500SOL     OW 2179   0.815   1.395   4.662
  500SOL    HW1 2180   0.899   1.385   4.618
  500SOL    HW2 2181   0.750   1.396   4.592
  501SOL     OW 2182   0.927   0.510   4.628
  501SOL    HW1 2183   0.904   0.502   4.535
  501SOL    HW2 2184   0.959   0.423   4.652
  502SOL     OW 2185   0.547   0.059   4.228
  502SOL    HW1 2186   0.468   0.060   4.282
  502SOL    HW2 2187   0.535   0.131   4.167
  503SOL     OW 2188   1.428   1.198   3.765
  503SOL    HW1 2189   1.459   1.122   3.815
  503SOL    HW2 2190   1.343   1.219   3.803
  504SOL     OW 2191   0.313   0.063   3.908
  504SOL    HW1 2192   0.379   0.128   3.886
  504SOL    HW2 2193   0.363   5.282   3.923
  505SOL     OW 2194   0.939   0.261   4.187
  505SOL    HW1 2195   0.911   0.299   4.103
  505SOL    HW2 2196   1.034   0.272   4.187
  506SOL     OW 2197   1.080   0.681   5.184
  506SOL    HW1 2198   1.011   0.614   5.189
  506SOL    HW2 2199   1.161   0.630   5.177
  507SOL     OW 2200   1.224   1.570   4.518
  507SOL    HW1 2201   1.240   1.637   4.452
  507SOL    HW2 2202   1.292   1.583   4.583
  508SOL     OW 2203   0.467   1.149   4.457
  508SOL    HW1 2204   0.397   1.130   4.520
  508SOL    HW2 2205   0.427   1.131   4.371
  509SOL     OW 2206   1.269   1.794   4.331
  509SOL    HW1 2207   1.315   1.854   4.273
  509SOL    HW2 2208   1.204   1.848   4.376
  510SOL     OW 2209   1.026   0.547   3.746
  510SOL    HW1 2210   0.984   0.631   3.727
  510SOL    HW2 2211   1.090   0.567   3.814
  511SOL     OW 2212   0.096   0.533   5.134
  511SOL    HW1 2213   0.177   0.551   5.087
  511SOL    HW2 2214   0.077   0.614   5.181
  512SOL     OW 2215   0.560   0.239   4.881
  512SOL    HW1 2216   0.591   0.152   4.908
  512SOL    HW2 2217   0.468   0.239   4.906
  513SOL     OW 2218   0.868   0.462   4.365
  513SOL    HW1 2219   0.822   0.515   4.300
  513SOL    HW2 2220   0.890   0.382   4.319
  514SOL     OW 2221   0.979   0.060   4.486
  514SOL    HW1 2222   0.914   0.054   4.416
  514SOL    HW2 2223   0.987   5.271   4.519
  515SOL     OW 2224   1.437   1.163   4.582
  515SOL    HW1 2225   1.368   1.096   4.579
  515SOL    HW2 2226   1.461   1.175   4.490
  516SOL     OW 2227   1.467   0.605   4.703
  516SOL    HW1 2228   1.418   0.522   4.707
  516SOL    HW2 2229   1.528   0.600   4.777
  517SOL     OW 2230   1.846   0.817   4.106
  517SOL    HW1 2231   1.902   0.766   4.164
  517SOL    HW2 2232   1.817   0.755   4.039
  518SOL     OW 2233   0.492   1.416   3.883
  518SOL    HW1 2234   0.417   1.388   3.935
  518SOL    HW2 2235   0.474   1.384   3.795
  519SOL     OW 2236   1.670   1.265   4.371
  519SOL    HW1 2237   1.765   1.270   4.384
  519SOL    HW2 2238   1.639   1.353   4.392
  520SOL     OW 2239   1.394   0.572   3.795
  520SOL    HW1 2240   1.333   0.553   3.867
  520SOL    HW2 2241   1.479   0.541   3.827
  521SOL     OW 2242   0.522   0.265   4.045
  521SOL    HW1 2243   0.568   0.216   3.976
  521SOL    HW2 2244   0.504   0.350   4.005
  522SOL     OW 2245   1.753   1.238   5.299
  522SOL    HW1 2246   1.840   1.199   5.294
  522SOL    HW2 2247   1.768   1.328   5.328
  523SOL     OW 2248   1.059   1.353   5.058
  523SOL    HW1 2249   0.985   1.322   5.109
  523SOL    HW2 2250   1.135   1.312   5.099
  524SOL     OW 2251   1.607   1.625   5.377
  524SOL    HW1 2252   1.602   1.659   5.288
  524SOL    HW2 2253   1.690   1.578   5.380
  525SOL     OW 2254   1.127   1.202   4.830
  525SOL    HW1 2255   1.069   1.241   4.895
  525SOL    HW2 2256   1.094   1.235   4.746
  526SOL     OW 2257   1.629   1.099   4.802
  526SOL    HW1 2258   1.625   1.160   4.875
  526SOL    HW2 2259   1.550   1.115   4.751
  527SOL     OW 2260   0.906   0.106   5.115
  527SOL    HW1 2261   0.936   0.073   5.031
  527SOL    HW2 2262   0.982   0.148   5.153
  528SOL     OW 2263   0.984   1.114   5.446
  528SOL    HW1 2264   0.892   1.130   5.466
  528SOL    HW2 2265   0.984   1.037   5.390
  529SOL     OW 2266   0.707   1.059   4.096
  529SOL    HW1 2267   0.696   1.045   4.190
  529SOL    HW2 2268   0.784   1.007   4.073
  530SOL     OW 2269   0.420   0.819   4.976
  530SOL    HW1 2270   0.489   0.825   5.042
  530SOL    HW2 2271   0.385   0.730   4.986
  531SOL     OW 2272   1.268   0.379   4.996
  531SOL    HW1 2273   1.300   0.456   5.043
  531SOL    HW2 2274   1.177   0.401   4.973
  532SOL     OW 2275   0.100   1.623   5.092
  532SOL    HW1 2276   0.078   1.633   4.999
  532SOL    HW2 2277   0.187   1.581   5.091
  533SOL     OW 2278   0.344   1.105   4.213
  533SOL    HW1 2279   0.355   1.184   4.160
  533SOL    HW2 2280   0.355   1.033   4.150
  534SOL     OW 2281   0.556   0.538   4.584
  534SOL    HW1 2282   0.572   0.596   4.510
  534SOL    HW2 2283   0.620   0.565   4.650
  535SOL     OW 2284   1.248   1.348   4.113
  535SOL    HW1 2285   1.303   1.420   4.144
  535SOL    HW2 2286   1.161   1.369   4.147
  536SOL     OW 2287   1.279   1.457   4.871
  536SOL    HW1 2288   1.335   1.459   4.948
  536SOL    HW2 2289   1.224   1.380   4.883
  537SOL     OW 2290   1.582   0.623   4.202
  537SOL    HW1 2291   1.537   0.679   4.265
  537SOL    HW2 2292   1.628   0.685   4.144
  538SOL     OW 2293   0.352   1.519   5.035
  538SOL    HW1 2294   0.342   1.476   4.950
  538SOL    HW2 2295   0.445   1.537   5.042
  539SOL     OW 2296   0.414   0.741   5.326
  539SOL    HW1 2297   0.472   0.790   5.268
  539SOL    HW2 2298   0.459   0.659   5.342
  540SOL     OW 2299   1.600   0.778   5.405
  540SOL    HW1 2300   1.514   0.819   5.398
  540SOL    HW2 2301   1.652   0.820   5.337
  541SOL     OW 2302   1.041   0.116   5.505
  541SOL    HW1 2303   1.067   0.195   5.458
  541SOL    HW2 2304   1.050   0.045   5.441
  542SOL     OW 2305   0.483   0.058   5.462
  542SOL    HW1 2306   0.428   5.290   5.422
  542SOL    HW2 2307   0.422   0.130   5.480
  543SOL     OW 2308   0.585   0.873   4.756
  543SOL    HW1 2309   0.616   0.964   4.754
  543SOL    HW2 2310   0.528   0.869   4.833
  544SOL     OW 2311   1.359   0.859   4.755
  544SOL    HW1 2312   1.277   0.851   4.707
  544SOL    HW2 2313   1.398   0.772   4.751
  545SOL     OW 2314   1.206   0.529   3.992
  545SOL    HW1 2315   1.211   0.448   4.043
  545SOL    HW2 2316   1.164   0.592   4.050
  546SOL     OW 2317   0.304   0.206   4.969
  546SOL    HW1 2318   0.265   0.237   5.050
  546SOL    HW2 2319   0.296   0.111   4.972
  547SOL     OW 2320   0.070   1.319   5.005
  547SOL    HW1 2321   0.090   1.259   5.077
  547SOL    HW2 2322   0.003   1.377   5.040
  548SOL     OW 2323   0.727   0.632   4.785
  548SOL    HW1 2324   0.799   0.614   4.725
  548SOL    HW2 2325   0.698   0.721   4.762
  549SOL     OW 2326   1.734   0.959   5.576
  549SOL    HW1 2327   1.687   0.900   5.517
  549SOL    HW2 2328   1.674   0.972   5.650
  550SOL     OW 2329   0.317   0.068   4.376
  550SOL    HW1 2330   0.299   0.161   4.386
  550SOL    HW2 2331   0.319   0.034   4.466
  551SOL     OW 2332   1.611   0.374   4.090
  551SOL    HW1 2333   1.645   0.311   4.154
  551SOL    HW2 2334   1.591   0.452   4.142
  552SOL     OW 2335   1.027   0.759   4.685
  552SOL    HW1 2336   1.025   0.777   4.779
  552SOL    HW2 2337   1.001   0.668   4.677
  553SOL     OW 2338   0.982   1.566   5.440
  553SOL    HW1 2339   0.967   1.610   5.357
  553SOL    HW2 2340   1.026   1.484   5.416
  554SOL     OW 2341   1.855   1.508   5.330
  554SOL    HW1 2342   1.873   1.532   5.239
  554SOL    HW2 2343   1.936   1.526   5.377
  555SOL     OW 2344   0.353   0.916   5.531
  555SOL    HW1 2345   0.434   0.937   5.577
  555SOL    HW2 2346   0.379   0.853   5.464
  556SOL     OW 2347   1.527   0.272   3.850
  556SOL    HW1 2348   1.463   0.208   3.881
  556SOL    HW2 2349   1.563   0.311   3.930
  557SOL     OW 2350   1.293   0.827   3.756
  557SOL    HW1 2351   1.335   0.741   3.759
  557SOL    HW2 2352   1.324   0.866   3.674
  558SOL     OW 2353   1.066   1.335   4.578
  558SOL    HW1 2354   1.069   1.263   4.515
  558SOL    HW2 2355   1.127   1.400   4.543
  559SOL     OW 2356   0.315   0.811   4.674
  559SOL    HW1 2357   0.409   0.829   4.669
  559SOL    HW2 2358   0.309   0.720   4.705
  560SOL     OW 2359   0.337   0.526   4.739
  560SOL    HW1 2360   0.299   0.439   4.722
  560SOL    HW2 2361   0.411   0.531   4.679
  561SOL     OW 2362   1.136   0.378   5.411
  561SOL    HW1 2363   1.088   0.433   5.474
  561SOL    HW2 2364   1.223   0.417   5.407
  562SOL     OW 2365   1.134   0.223   5.189
  562SOL    HW1 2366   1.139   0.281   5.265
  562SOL    HW2 2367   1.189   0.264   5.123
  563SOL     OW 2368   0.001   1.331   3.934
  563SOL    HW1 2369   5.226   1.321   3.876
  563SOL    HW2 2370   0.012   1.244   3.974
  564SOL     OW 2371   0.092   1.782   4.674
  564SOL    HW1 2372   0.059   1.711   4.619
  564SOL    HW2 2373   0.179   1.800   4.639
  565SOL     OW 2374   0.505   1.573   4.631
  565SOL    HW1 2375   0.573   1.638   4.652
  565SOL    HW2 2376   0.549   1.512   4.572
  566SOL     OW 2377   0.985   0.793   4.951
  566SOL    HW1 2378   1.040   0.769   5.026
  566SOL    HW2 2379   0.899   0.756   4.972
  567SOL     OW 2380   0.036   0.564   4.841
  567SOL    HW1 2381   0.119   0.533   4.804
  567SOL    HW2 2382   0.039   0.534   4.933
  568SOL     OW 2383   0.168   0.514   5.438
  568SOL    HW1 2384   0.252   0.494   5.396
  568SOL    HW2 2385   0.137   0.593   5.395
  569SOL     OW 2386   1.376   0.940   5.383
  569SOL    HW1 2387   1.398   1.033   5.382
  569SOL    HW2 2388   1.374   0.915   5.291
  570SOL     OW 2389   0.814   0.571   4.084
  570SOL    HW1 2390   0.818   0.497   4.024
  570SOL    HW2 2391   0.740   0.624   4.053
  571SOL     OW 2392   1.643   0.601   4.911
  571SOL    HW1 2393   1.631   0.542   4.985
  571SOL    HW2 2394   1.730   0.581   4.877
  572SOL     OW 2395   0.257   1.556   5.459
  572SOL    HW1 2396   0.233   1.619   5.528
  572SOL    HW2 2397   0.249   1.470   5.501
  573SOL     OW 2398   0.695   0.454   4.986
  573SOL    HW1 2399   0.647   0.379   4.951
  573SOL    HW2 2400   0.696   0.517   4.915
  574SOL     OW 2401   0.929   1.679   5.191
  574SOL    HW1 2402   0.902   1.646   5.105
  574SOL    HW2 2403   0.925   1.774   5.182
  575SOL     OW 2404   0.464   0.493   3.905
  575SOL    HW1 2405   0.527   0.562   3.928
  575SOL    HW2 2406   0.380   0.537   3.899
  576SOL     OW 2407   0.148   1.138   5.195
  576SOL    HW1 2408   0.147   1.088   5.277
  576SOL    HW2 2409   0.161   1.071   5.127
  577SOL     OW 2410   1.327   1.048   4.948
  577SOL    HW1 2411   1.351   0.985   4.880
  577SOL    HW2 2412   1.256   1.099   4.909
  578SOL     OW 2413   1.310   0.856   4.031
  578SOL    HW1 2414   1.234   0.826   4.080
  578SOL    HW2 2415   1.287   0.843   3.939
  579SOL     OW 2416   1.767   1.742   4.869
  579SOL    HW1 2417   1.821   1.765   4.793
  579SOL    HW2 2418   1.742   1.651   4.855
  580SOL     OW 2419   1.242   1.733   4.839
  580SOL    HW1 2420   1.323   1.753   4.792
  580SOL    HW2 2421   1.247   1.639   4.856
  581SOL     OW 2422   0.083   1.219   4.751
  581SOL    HW1 2423   0.069   1.244   4.843
  581SOL    HW2 2424   5.294   1.207   4.717
  582SOL     OW 2425   0.678   1.665   5.452
  582SOL    HW1 2426   0.623   1.744   5.447
  582SOL    HW2 2427   0.741   1.676   5.381
  583SOL     OW 2428   1.712   0.147   4.228
  583SOL    HW1 2429   1.788   0.127   4.173
  583SOL    HW2 2430   1.705   0.072   4.287
  584SOL     OW 2431   1.389   1.568   4.208
  584SOL    HW1 2432   1.449   1.599   4.141
  584SOL    HW2 2433   1.341   1.646   4.236
  585SOL     OW 2434   0.144   1.798   5.567
  585SOL    HW1 2435   0.089   1.735   5.613
  585SOL    HW2 2436   0.189   1.846   5.636
  586SOL     OW 2437   1.277   0.925   4.395
  586SOL    HW1 2438   1.351   0.864   4.401
  586SOL    HW2 2439   1.311   0.998   4.343
  587SOL     OW 2440   0.816   1.272   5.155
  587SOL    HW1 2441   0.788   1.312   5.237
  587SOL    HW2 2442   0.746   1.294   5.093
  588SOL     OW 2443   0.672   1.618   3.879
  588SOL    HW1 2444   0.682   1.631   3.785
  588SOL    HW2 2445   0.618   1.540   3.888
  589SOL     OW 2446   1.628   1.726   5.115
  589SOL    HW1 2447   1.677   1.734   5.033
  589SOL    HW2 2448   1.615   1.817   5.143
  590SOL     OW 2449   1.845   0.158   4.682
  590SOL    HW1 2450   1.846   0.064   4.665
  590SOL    HW2 2451   1.758   0.186   4.654
  591SOL     OW 2452   0.270   0.328   4.443
  591SOL    HW1 2453   0.184   0.366   4.426
  591SOL    HW2 2454   0.271   0.313   4.537
  592SOL     OW 2455   1.206   1.607   3.755
  592SOL    HW1 2456   1.198   1.515   3.782
  592SOL    HW2 2457   1.142   1.618   3.686
  593SOL     OW 2458   0.824   1.006   5.096
  593SOL    HW1 2459   0.868   1.001   5.011
  593SOL    HW2 2460   0.824   1.099   5.119
  594SOL     OW 2461   0.915   0.910   4.014
  594SOL    HW1 2462   0.976   0.942   3.947
  594SOL    HW2 2463   0.963   0.841   4.059
  595SOL     OW 2464   1.493   1.624   3.766
  595SOL    HW1 2465   1.398   1.620   3.753
  595SOL    HW2 2466   1.529   1.631   3.678
  596SOL     OW 2467   0.368   1.303   5.217
  596SOL    HW1 2468   0.359   1.378   5.158
  596SOL    HW2 2469   0.292   1.249   5.197
  597SOL     OW 2470   1.610   1.281   5.005
  597SOL    HW1 2471   1.671   1.273   5.078
  597SOL    HW2 2472   1.551   1.352   5.032
  598SOL     OW 2473   1.050   1.106   4.430
  598SOL    HW1 2474   0.980   1.055   4.469
  598SOL    HW2 2475   1.113   1.041   4.398
  599SOL     OW 2476   1.020   0.242   4.692
  599SOL    HW1 2477   1.000   0.197   4.610
  599SOL    HW2 2478   1.012   0.175   4.759
  600SOL     OW 2479   0.600   1.487   4.206
  600SOL    HW1 2480   0.645   1.439   4.136
  600SOL    HW2 2481   0.536   1.541   4.160
  601SOL     OW 2482   1.723   0.387   5.102
  601SOL    HW1 2483   1.793   0.452   5.102
  601SOL    HW2 2484   1.755   0.317   5.045
  602SOL     OW 2485   0.260   1.348   4.015
  602SOL    HW1 2486   0.167   1.351   3.993
  602SOL    HW2 2487   0.264   1.385   4.104
  603SOL     OW 2488   0.115   1.015   5.442
  603SOL    HW1 2489   0.044   0.982   5.496
  603SOL    HW2 2490   0.195   0.985   5.485
  604SOL     OW 2491   0.673   0.213   5.212
  604SOL    HW1 2492   0.757   0.196   5.169
  604SOL    HW2 2493   0.697   0.259   5.293
  605SOL     OW 2494   0.078   0.338   3.761
  605SOL    HW1 2495   5.287   0.311   3.748
  605SOL    HW2 2496   0.093   0.405   3.695
  606SOL     OW 2497   1.430   0.858   5.125
  606SOL    HW1 2498   1.382   0.919   5.069
  606SOL    HW2 2499   1.520   0.861   5.091
  607SOL     OW 2500   0.083   0.141   4.019
  607SOL    HW1 2501   0.076   0.234   4.001
  607SOL    HW2 2502   0.170   0.116   3.988
  608SOL     OW 2503   1.180   1.340   3.841
  608SOL    HW1 2504   1.089   1.310   3.844
  608SOL    HW2 2505   1.208   1.340   3.932
  609SOL     OW 2506   0.619   0.831   5.159
  609SOL    HW1 2507   0.674   0.908   5.143
  609SOL    HW2 2508   0.681   0.758   5.167
  610SOL     OW 2509   1.484   1.777   4.700
  610SOL    HW1 2510   1.509   1.839   4.632
  610SOL    HW2 2511   1.565   1.757   4.746
  611SOL     OW 2512   0.714   0.572   5.428
  611SOL    HW1 2513   0.755   0.636   5.486
  611SOL    HW2 2514   0.748   0.488   5.458
  612SOL     OW 2515   1.471   1.201   5.356
  612SOL    HW1 2516   1.459   1.215   5.450
  612SOL    HW2 2517   1.564   1.215   5.342
  613SOL     OW 2518   0.379   1.742   5.288
  613SOL    HW1 2519   0.296   1.787   5.273
  613SOL    HW2 2520   0.354   1.661   5.333
  614SOL     OW 2521   1.670   0.881   4.979
  614SOL    HW1 2522   1.663   0.796   4.936
  614SOL    HW2 2523   1.661   0.945   4.908
  615SOL     OW 2524   1.221   0.319   4.190
  615SOL    HW1 2525   1.284   0.248   4.182
  615SOL    HW2 2526   1.251   0.371   4.264
  616SOL     OW 2527   0.590   0.739   4.392
  616SOL    HW1 2528   0.630   0.824   4.376
  616SOL    HW2 2529   0.521   0.731   4.327
  617SOL     OW 2530   1.767   0.361   5.372
  617SOL    HW1 2531   1.747   0.375   5.280
  617SOL    HW2 2532   1.696   0.305   5.404
  618SOL     OW 2533   1.744   0.934   5.237
  618SOL    HW1 2534   1.744   1.028   5.250
  618SOL    HW2 2535   1.729   0.922   5.143
  619SOL     OW 2536   0.862   1.367   3.756
  619SOL    HW1 2537   0.824   1.396   3.839
  619SOL    HW2 2538   0.882   1.448   3.709
  620SOL     OW 2539   0.662   1.794   4.669
  620SOL    HW1 2540   0.641   1.885   4.646
  620SOL    HW2 2541   0.758   1.790   4.662
  621SOL     OW 2542   0.867   0.965   4.579
  621SOL    HW1 2543   0.917   0.895   4.619
  621SOL    HW2 2544   0.833   1.016   4.653
  622SOL     OW 2545   1.078   0.987   3.812
  622SOL    HW1 2546   1.058   1.039   3.734
  622SOL    HW2 2547   1.154   0.934   3.787
  623SOL     OW 2548   1.861   1.573   4.580
  623SOL    HW1 2549   1.787   1.561   4.521
  623SOL    HW2 2550   1.853   1.502   4.643
  624SOL     OW 2551   0.224   1.305   5.583
  624SOL    HW1 2552   0.156   1.244   5.558
  624SOL    HW2 2553   0.213   1.316   5.678
  625SOL     OW 2554   0.086   1.221   4.378
  625SOL    HW1 2555   0.098   1.189   4.468
  625SOL    HW2 2556   0.172   1.212   4.337
  626SOL     OW 2557   0.681   1.401   5.352
  626SOL    HW1 2558   0.600   1.359   5.381
  626SOL    HW2 2559   0.676   1.490   5.387
  627SOL     OW 2560   1.816   0.178   4.957
  627SOL    HW1 2561   1.784   0.088   4.965
  627SOL    HW2 2562   1.832   0.190   4.864
  628SOL     OW 2563   0.432   0.436   4.246
  628SOL    HW1 2564   0.463   0.362   4.194
  628SOL    HW2 2565   0.387   0.395   4.320
  629SOL     OW 2566   1.699   1.488   4.824
  629SOL    HW1 2567   1.619   1.464   4.777
  629SOL    HW2 2568   1.712   1.418   4.888
  630SOL     OW 2569   0.335   0.559   5.013
  630SOL    HW1 2570   0.392   0.502   5.064
  630SOL    HW2 2571   0.350   0.532   4.922
  631SOL     OW 2572   0.827   1.577   4.403
  631SOL    HW1 2573   0.817   1.630   4.323
  631SOL    HW2 2574   0.750   1.521   4.404
  632SOL     OW 2575   1.428   0.218   4.840
  632SOL    HW1 2576   1.465   0.144   4.888
  632SOL    HW2 2577   1.380   0.267   4.906
  633SOL     OW 2578   1.002   0.022   4.866
  633SOL    HW1 2579   0.951   5.252   4.823
  633SOL    HW2 2580   1.089   5.284   4.879
  634SOL     OW 2581   0.771   1.332   4.038
  634SOL    HW1 2582   0.741   1.242   4.044
  634SOL    HW2 2583   0.854   1.333   4.086
  635SOL     OW 2584   0.622   1.557   5.011
  635SOL    HW1 2585   0.624   1.639   5.060
  635SOL    HW2 2586   0.709   1.551   4.971
  636SOL     OW 2587   1.354   0.040   3.885
  636SOL    HW1 2588   1.387   5.297   3.806
  636SOL    HW2 2589   1.276   5.290   3.909
  637SOL     OW 2590   1.301   0.463   4.409
  637SOL    HW1 2591   1.246   0.541   4.415
  637SOL    HW2 2592   1.295   0.423   4.496
  638SOL     OW 2593   1.594   0.216   4.605
  638SOL    HW1 2594   1.527   0.227   4.673
  638SOL    HW2 2595   1.588   0.294   4.551
  639SOL     OW 2596   0.047   1.069   4.014
  639SOL    HW1 2597   0.137   1.038   4.004
  639SOL    HW2 2598   5.300   0.993   4.049
  640SOL     OW 2599   0.883   1.650   4.067
  640SOL    HW1 2600   0.811   1.635   4.006
  640SOL    HW2 2601   0.856   1.726   4.118
  641SOL     OW 2602   0.233   0.633   5.702
  641SOL    HW1 2603   0.156   0.608   5.753
  641SOL    HW2 2604   0.216   0.599   5.615
  642SOL     OW 2605   0.232   0.280   6.576
  642SOL    HW1 2606   0.252   0.244   6.662
  642SOL    HW2 2607   0.152   0.236   6.548
  643SOL     OW 2608   0.000   0.406   6.249
  643SOL    HW1 2609   5.207   0.427   6.254
  643SOL    HW2 2610   0.003   0.315   6.218
  644SOL     OW 2611   0.573   1.282   6.766
  644SOL    HW1 2612   0.490   1.291   6.719
  644SOL    HW2 2613   0.590   1.370   6.801
  645SOL     OW 2614   1.560   1.511   6.292
  645SOL    HW1 2615   1.516   1.492   6.375
  645SOL    HW2 2616   1.488   1.516   6.229
  646SOL     OW 2617   1.130   0.698   6.288
  646SOL    HW1 2618   1.180   0.779   6.274
  646SOL    HW2 2619   1.083   0.713   6.370
  647SOL     OW 2620   1.765   0.607   5.815
  647SOL    HW1 2621   1.746   0.598   5.722
  647SOL    HW2 2622   1.731   0.526   5.854
  648SOL     OW 2623   0.756   1.142   6.624
  648SOL    HW1 2624   0.689   1.176   6.683
  648SOL    HW2 2625   0.791   1.220   6.580
  649SOL     OW 2626   0.862   0.781   7.406
  649SOL    HW1 2627   0.855   0.856   7.465
  649SOL    HW2 2628   0.889   0.819   7.322
  650SOL     OW 2629   0.685   1.004   6.234
  650SOL    HW1 2630   0.751   0.991   6.302
  650SOL    HW2 2631   0.617   1.056   6.276
  651SOL     OW 2632   0.708   1.151   7.398
  651SOL    HW1 2633   0.757   1.230   7.423
  651SOL    HW2 2634   0.626   1.185   7.362
  652SOL     OW 2635   0.358   1.405   6.645
  652SOL    HW1 2636   0.270   1.405   6.608
  652SOL    HW2 2637   0.407   1.468   6.592
  653SOL     OW 2638   1.461   1.499   6.939
  653SOL    HW1 2639   1.510   1.581   6.948
  653SOL    HW2 2640   1.402   1.497   7.014
  654SOL     OW 2641   0.447   0.400   7.080
  654SOL    HW1 2642   0.527   0.347   7.073
  654SOL    HW2 2643   0.376   0.336   7.083
  655SOL     OW 2644   1.611   0.452   6.324
  655SOL    HW1 2645   1.535   0.477   6.270
  655SOL    HW2 2646   1.631   0.530   6.375
  656SOL     OW 2647   0.230   1.714   6.063
  656SOL    HW1 2648   0.265   1.783   6.121
  656SOL    HW2 2649   0.292   1.711   5.990
  657SOL     OW 2650   1.136   1.341   7.276
  657SOL    HW1 2651   1.176   1.338   7.363
  657SOL    HW2 2652   1.084   1.261   7.271
  658SOL     OW 2653   0.222   1.443   6.125
  658SOL    HW1 2654   0.214   1.538   6.123
  658SOL    HW2 2655   0.152   1.415   6.183
  659SOL     OW 2656   0.249   1.078   6.462
  659SOL    HW1 2657   0.260   0.994   6.505
  659SOL    HW2 2658   0.197   1.130   6.524
  660SOL     OW 2659   0.615   1.790   7.018
  660SOL    HW1 2660   0.531   1.773   7.061
  660SOL    HW2 2661   0.636   1.881   7.041
  661SOL     OW 2662   0.584   0.983   5.720
  661SOL    HW1 2663   0.629   1.031   5.651
  661SOL    HW2 2664   0.626   1.011   5.801
  662SOL     OW 2665   1.586   0.134   7.043
  662SOL    HW1 2666   1.606   0.219   7.004
  662SOL    HW2 2667   1.585   0.151   7.138
  663SOL     OW 2668   0.124   0.637   6.163
  663SOL    HW1 2669   0.089   0.554   6.195
  663SOL    HW2 2670   0.098   0.701   6.228
  664SOL     OW 2671   1.842   1.760   5.922
  664SOL    HW1 2672   1.905   1.731   5.988
  664SOL    HW2 2673   1.867   1.850   5.903
  665SOL     OW 2674   0.037   1.599   5.717
  665SOL    HW1 2675   0.024   1.507   5.742
  665SOL    HW2 2676   5.283   1.648   5.778
  666SOL     OW 2677   1.689   0.918   6.226
  666SOL    HW1 2678   1.773   0.877   6.206
  666SOL    HW2 2679   1.668   0.969   6.147
  667SOL     OW 2680   1.645   1.107   6.016
  667SOL    HW1 2681   1.731   1.114   5.973
  667SOL    HW2 2682   1.651   1.168   6.089
  668SOL     OW 2683   0.129   0.748   7.174
  668SOL    HW1 2684   0.223   0.763   7.176
  668SOL    HW2 2685   0.090   0.835   7.188
  669SOL     OW 2686   0.615   1.384   6.321
  669SOL    HW1 2687   0.567   1.302   6.331
  669SOL    HW2 2688   0.597   1.411   6.230
  670SOL     OW 2689   1.289   1.238   7.010
  670SOL    HW1 2690   1.322   1.171   6.950
  670SOL    HW2 2691   1.346   1.232   7.087
  671SOL     OW 2692   0.813   0.025   6.111
  671SOL    HW1 2693   0.841   0.114   6.088
  671SOL    HW2 2694   0.718   0.027   6.104
  672SOL     OW 2695   0.177   0.947   6.864
  672SOL    HW1 2696   0.268   0.918   6.853
  672SOL    HW2 2697   0.134   0.922   6.782
  673SOL     OW 2698   1.531   0.993   5.784
  673SOL    HW1 2699   1.462   0.935   5.815
  673SOL    HW2 2700   1.572   1.027   5.863
  674SOL     OW 2701   1.185   1.805   7.207
  674SOL    HW1 2702   1.197   1.864   7.132
  674SOL    HW2 2703   1.201   1.718   7.172
  675SOL     OW 2704   0.324   0.271   7.388
  675SOL    HW1 2705   0.386   0.335   7.423
  675SOL    HW2 2706   0.244   0.284   7.439
  676SOL     OW 2707   1.466   1.420   6.538
  676SOL    HW1 2708   1.398   1.434   6.604
  676SOL    HW2 2709   1.454   1.329   6.511
  677SOL     OW 2710   1.659   1.737   6.164
  677SOL    HW1 2711   1.639   1.708   6.075
  677SOL    HW2 2712   1.634   1.664   6.220
  678SOL     OW 2713   0.595   0.721   5.850
  678SOL    HW1 2714   0.604   0.802   5.800
  678SOL    HW2 2715   0.530   0.743   5.918
  679SOL     OW 2716   1.279   0.345   6.516
  679SOL    HW1 2717   1.188   0.317   6.529
  679SOL    HW2 2718   1.328   0.296   6.582
  680SOL     OW 2719   1.581   1.669   5.895
  680SOL    HW1 2720   1.671   1.702   5.889
  680SOL    HW2 2721   1.555   1.652   5.805
  681SOL     OW 2722   0.794   0.617   7.038
  681SOL    HW1 2723   0.766   0.596   7.127
  681SOL    HW2 2724   0.751   0.552   6.983
  682SOL     OW 2725   1.395   0.475   7.264
  682SOL    HW1 2726   1.396   0.519   7.348
  682SOL    HW2 2727   1.458   0.404   7.273
  683SOL     OW 2728   0.955   0.887   7.168
  683SOL    HW1 2729   1.010   0.817   7.132
  683SOL    HW2 2730   0.908   0.922   7.092
  684SOL     OW 2731   0.994   0.416   6.822
  684SOL    HW1 2732   0.909   0.439   6.862
  684SOL    HW2 2733   0.971   0.368   6.743
  685SOL     OW 2734   1.050   0.698   6.013
  685SOL    HW1 2735   1.065   0.691   6.107
  685SOL    HW2 2736   0.968   0.652   5.998
  686SOL     OW 2737   0.072   0.787   6.399
  686SOL    HW1 2738   0.155   0.793   6.447
  686SOL    HW2 2739   0.061   0.874   6.359
  687SOL     OW 2740   0.131   1.882   7.170
  687SOL    HW1 2741   0.131   1.851   7.261
  687SOL    HW2 2742   0.058   1.835   7.129
  688SOL     OW 2743   0.871   0.362   5.774
  688SOL    HW1 2744   0.916   0.422   5.714
  688SOL    HW2 2745   0.923   0.282   5.771
  689SOL     OW 2746   1.709   0.576   7.415
  689SOL    HW1 2747   1.672   0.651   7.368
  689SOL    HW2 2748   1.737   0.516   7.346
  690SOL     OW 2749   1.376   1.142   6.127
  690SOL    HW1 2750   1.455   1.129   6.075
  690SOL    HW2 2751   1.324   1.204   6.077
  691SOL     OW 2752   0.538   0.201   6.470
  691SOL    HW1 2753   0.554   0.219   6.562
  691SOL    HW2 2754   0.550   0.286   6.427
  692SOL     OW 2755   1.006   1.444   6.059
  692SOL    HW1 2756   0.968   1.517   6.009
  692SOL    HW2 2757   0.991   1.467   6.150
  693SOL     OW 2758   0.356   1.802   6.455
  693SOL    HW1 2759   0.397   1.716   6.468
  693SOL    HW2 2760   0.423   1.865   6.482
  694SOL     OW 2761   1.799   1.058   6.454
  694SOL    HW1 2762   1.744   1.041   6.377
  694SOL    HW2 2763   1.737   1.063   6.527
  695SOL     OW 2764   1.228   1.539   7.099
  695SOL    HW1 2765   1.214   1.466   7.159
  695SOL    HW2 2766   1.165   1.524   7.028
  696SOL     OW 2767   0.317   0.952   5.833
  696SOL    HW1 2768   0.399   0.976   5.790
  696SOL    HW2 2769   0.295   0.867   5.796
  697SOL     OW 2770   1.477   0.741   6.314
  697SOL    HW1 2771   1.468   0.698   6.398
  697SOL    HW2 2772   1.555   0.797   6.323
  698SOL     OW 2773   0.464   1.262   7.323
  698SOL    HW1 2774   0.437   1.269   7.232
  698SOL    HW2 2775   0.382   1.264   7.373
  699SOL     OW 2776   1.121   1.778   5.817
  699SOL    HW1 2777   1.049   1.735   5.863
  699SOL    HW2 2778   1.144   1.717   5.747
  700SOL     OW 2779   0.198   0.279   7.078
  700SOL    HW1 2780   0.157   0.365   7.074
  700SOL    HW2 2781   0.205   0.260   7.171
  701SOL     OW 2782   1.628   1.379   5.674
  701SOL    HW1 2783   1.588   1.465   5.658
  701SOL    HW2 2784   1.559   1.316   5.654
  702SOL     OW 2785   0.471   1.735   5.906
  702SOL    HW1 2786   0.513   1.793   5.970
  702SOL    HW2 2787   0.543   1.705   5.850
  703SOL     OW 2788   1.406   0.100   6.017
  703SOL    HW1 2789   1.398   0.082   5.923
  703SOL    HW2 2790   1.499   0.122   6.029
  704SOL     OW 2791   0.275   1.801   6.802
  704SOL    HW1 2792   0.307   1.725   6.850
  704SOL    HW2 2793   0.226   1.764   6.728
  705SOL     OW 2794   0.939   1.698   6.486
  705SOL    HW1 2795   1.016   1.646   6.506
  705SOL    HW2 2796   0.894   1.649   6.417
  706SOL     OW 2797   0.385   0.696   6.065
  706SOL    HW1 2798   0.415   0.605   6.073
  706SOL    HW2 2799   0.292   0.693   6.086
  707SOL     OW 2800   1.540   0.228   7.311
  707SOL    HW1 2801   1.546   0.246   7.404
  707SOL    HW2 2802   1.465   0.169   7.303
  708SOL     OW 2803   0.621   0.133   5.693
  708SOL    HW1 2804   0.690   0.071   5.716
  708SOL    HW2 2805   0.574   0.091   5.620
  709SOL     OW 2806   0.781   0.312   7.349
  709SOL    HW1 2807   0.842   0.239   7.352
  709SOL    HW2 2808   0.740   0.312   7.435
  710SOL     OW 2809   0.877   1.521   6.779
  710SOL    HW1 2810   0.861   1.485   6.692
  710SOL    HW2 2811   0.947   1.467   6.816
  711SOL     OW 2812   1.341   0.589   7.018
  711SOL    HW1 2813   1.372   0.558   7.103
  711SOL    HW2 2814   1.377   0.677   7.011
  712SOL     OW 2815   0.815   1.395   6.524
  712SOL    HW1 2816   0.899   1.385   6.480
  712SOL    HW2 2817   0.750   1.396   6.454
  713SOL     OW 2818   0.927   0.510   6.490
  713SOL    HW1 2819   0.903   0.502   6.397
  713SOL    HW2 2820   0.959   0.423   6.514
  714SOL     OW 2821   0.547   0.059   6.090
  714SOL    HW1 2822   0.468   0.060   6.144
  714SOL    HW2 2823   0.535   0.131   6.029
  715SOL     OW 2824   1.428   1.198   5.627
  715SOL    HW1 2825   1.459   1.122   5.677
  715SOL    HW2 2826   1.343   1.219   5.665
  716SOL     OW 2827   0.313   0.063   5.770
  716SOL    HW1 2828   0.379   0.128   5.748
  716SOL    HW2 2829   0.363   5.282   5.785
  717SOL     OW 2830   0.939   0.261   6.049
  717SOL    HW1 2831   0.911   0.299   5.965
  717SOL    HW2 2832   1.034   0.272   6.049
  718SOL     OW 2833   1.080   0.681   7.046
  718SOL    HW1 2834   1.012   0.614   7.051
  718SOL    HW2 2835   1.162   0.630   7.039
  719SOL     OW 2836   1.224   1.569   6.379
  719SOL    HW1 2837   1.241   1.637   6.314
  719SOL    HW2 2838   1.292   1.583   6.446
  720SOL     OW 2839   0.467   1.149   6.319
  720SOL    HW1 2840   0.397   1.130   6.382
  720SOL    HW2 2841   0.428   1.131   6.233
  721SOL     OW 2842   1.270   1.794   6.193
  721SOL    HW1 2843   1.315   1.855   6.135
  721SOL    HW2 2844   1.204   1.848   6.238
  722SOL     OW 2845   1.026   0.547   5.608
  722SOL    HW1 2846   0.984   0.631   5.589
  722SOL    HW2 2847   1.090   0.567   5.676
  723SOL     OW 2848   0.096   0.532   6.996
  723SOL    HW1 2849   0.177   0.551   6.949
  723SOL    HW2 2850   0.076   0.613   7.042
  724SOL     OW 2851   0.560   0.239   6.744
  724SOL    HW1 2852   0.591   0.152   6.770
  724SOL    HW2 2853   0.468   0.239   6.768
  725SOL     OW 2854   0.868   0.462   6.227
  725SOL    HW1 2855   0.822   0.515   6.162
  725SOL    HW2 2856   0.890   0.382   6.181
  726SOL     OW 2857   0.979   0.060   6.348
  726SOL    HW1 2858   0.914   0.054   6.278
  726SOL    HW2 2859   0.987   5.271   6.381
  727SOL     OW 2860   1.437   1.163   6.444
  727SOL    HW1 2861   1.368   1.096   6.442
  727SOL    HW2 2862   1.461   1.175   6.352
  728SOL     OW 2863   1.467   0.605   6.565
  728SOL    HW1 2864   1.418   0.522   6.569
  728SOL    HW2 2865   1.527   0.600   6.639
  729SOL     OW 2866   1.846   0.817   5.968
  729SOL    HW1 2867   1.902   0.766   6.026
  729SOL    HW2 2868   1.817   0.755   5.901
  730SOL     OW 2869   0.492   1.416   5.745
  730SOL    HW1 2870   0.417   1.388   5.797
  730SOL    HW2 2871   0.474   1.384   5.657
  731SOL     OW 2872   1.669   1.264   6.233
  731SOL    HW1 2873   1.764   1.268   6.246
  731SOL    HW2 2874   1.638   1.353   6.254
  732SOL     OW 2875   1.394   0.572   5.657
  732SOL    HW1 2876   1.333   0.553   5.729
  732SOL    HW2 2877   1.479   0.541   5.689
  733SOL     OW 2878   0.522   0.265   5.907
  733SOL    HW1 2879   0.568   0.216   5.838
  733SOL    HW2 2880   0.504   0.350   5.867
  734SOL     OW 2881   1.753   1.238   7.160
  734SOL    HW1 2882   1.841   1.199   7.156
  734SOL    HW2 2883   1.767   1.328   7.190
  735SOL     OW 2884   1.059   1.353   6.919
  735SOL    HW1 2885   0.985   1.322   6.971
  735SOL    HW2 2886   1.135   1.312   6.961
  736SOL     OW 2887   1.607   1.625   7.237
  736SOL    HW1 2888   1.603   1.659   7.148
  736SOL    HW2 2889   1.690   1.578   7.242
  737SOL     OW 2890   1.127   1.202   6.692
  737SOL    HW1 2891   1.069   1.241   6.757
  737SOL    HW2 2892   1.094   1.235   6.608
  738SOL     OW 2893   1.629   1.099   6.664
  738SOL    HW1 2894   1.625   1.161   6.737
  738SOL    HW2 2895   1.550   1.115   6.613
  739SOL     OW 2896   0.905   0.106   6.977
  739SOL    HW1 2897   0.936   0.072   6.893
  739SOL    HW2 2898   0.982   0.148   7.015
  740SOL     OW 2899   0.984   1.114   7.310
  740SOL    HW1 2900   0.892   1.131   7.327
  740SOL    HW2 2901   0.984   1.037   7.253
  741SOL     OW 2902   0.707   1.059   5.958
  741SOL    HW1 2903   0.696   1.045   6.052
  741SOL    HW2 2904   0.784   1.007   5.935
  742SOL     OW 2905   0.420   0.819   6.838
  742SOL    HW1 2906   0.490   0.825   6.904
  742SOL    HW2 2907   0.385   0.730   6.848
  743SOL     OW 2908   1.268   0.379   6.858
  743SOL    HW1 2909   1.300   0.456   6.905
  743SOL    HW2 2910   1.177   0.402   6.835
  744SOL     OW 2911   0.101   1.623   6.954
  744SOL    HW1 2912   0.078   1.633   6.861
  744SOL    HW2 2913   0.187   1.581   6.953
  745SOL     OW 2914   0.344   1.105   6.075
  745SOL    HW1 2915   0.354   1.184   6.022
  745SOL    HW2 2916   0.355   1.033   6.012
  746SOL     OW 2917   0.556   0.538   6.446
  746SOL    HW1 2918   0.572   0.596   6.372
  746SOL    HW2 2919   0.620   0.565   6.512
  747SOL     OW 2920   1.248   1.348   5.975
  747SOL    HW1 2921   1.304   1.420   6.006
  747SOL    HW2 2922   1.161   1.369   6.009
  748SOL     OW 2923   1.280   1.457   6.733
  748SOL    HW1 2924   1.335   1.460   6.810
  748SOL    HW2 2925   1.224   1.380   6.746
  749SOL     OW 2926   1.582   0.623   6.064
  749SOL    HW1 2927   1.537   0.679   6.127
  749SOL    HW2 2928   1.628   0.685   6.007
  750SOL     OW 2929   0.352   1.519   6.897
  750SOL    HW1 2930   0.342   1.476   6.812
  750SOL    HW2 2931   0.445   1.537   6.904
  751SOL     OW 2932   0.414   0.741   7.188
  751SOL    HW1 2933   0.471   0.790   7.130
  751SOL    HW2 2934   0.460   0.659   7.204
  752SOL     OW 2935   1.600   0.778   7.267
  752SOL    HW1 2936   1.513   0.819   7.260
  752SOL    HW2 2937   1.652   0.820   7.199
  753SOL     OW 2938   1.039   0.115   7.368
  753SOL    HW1 2939   1.068   0.194   7.323
  753SOL    HW2 2940   1.050   0.045   7.303
  754SOL     OW 2941   0.482   0.058   7.324
  754SOL    HW1 2942   0.428   5.291   7.284
  754SOL    HW2 2943   0.422   0.130   7.342
  755SOL     OW 2944   0.585   0.873   6.618
  755SOL    HW1 2945   0.616   0.964   6.616
  755SOL    HW2 2946   0.528   0.869   6.695
  756SOL     OW 2947   1.359   0.859   6.617
  756SOL    HW1 2948   1.277   0.851   6.569
  756SOL    HW2 2949   1.398   0.772   6.612
  757SOL     OW 2950   1.206   0.529   5.854
  757SOL    HW1 2951   1.211   0.448   5.905
  757SOL    HW2 2952   1.164   0.592   5.912
  758SOL     OW 2953   0.305   0.206   6.831
  758SOL    HW1 2954   0.264   0.237   6.912
  758SOL    HW2 2955   0.296   0.111   6.834
  759SOL     OW 2956   0.070   1.319   6.867
  759SOL    HW1 2957   0.090   1.259   6.939
  759SOL    HW2 2958   0.002   1.377   6.902
  760SOL     OW 2959   0.727   0.632   6.647
  760SOL    HW1 2960   0.799   0.614   6.588
  760SOL    HW2 2961   0.698   0.721   6.624
  761SOL     OW 2962   1.735   0.959   7.437
  761SOL    HW1 2963   1.686   0.900   7.380
  761SOL    HW2 2964   1.677   0.973   7.513
  762SOL     OW 2965   0.317   0.068   6.238
  762SOL    HW1 2966   0.299   0.161   6.248
  762SOL    HW2 2967   0.319   0.034   6.328
  763SOL     OW 2968   1.611   0.374   5.952
  763SOL    HW1 2969   1.645   0.311   6.016
  763SOL    HW2 2970   1.591   0.452   6.004
  764SOL     OW 2971   1.027   0.759   6.547
  764SOL    HW1 2972   1.025   0.777   6.641
  764SOL    HW2 2973   1.001   0.668   6.539
  765SOL     OW 2974   0.981   1.565   7.302
  765SOL    HW1 2975   0.967   1.610   7.219
  765SOL    HW2 2976   1.026   1.484   7.278
  766SOL     OW 2977   1.855   1.507   7.191
  766SOL    HW1 2978   1.873   1.533   7.101
  766SOL    HW2 2979   1.936   1.526   7.238
  767SOL     OW 2980   0.353   0.914   7.395
  767SOL    HW1 2981   0.435   0.938   7.438
  767SOL    HW2 2982   0.379   0.852   7.327
  768SOL     OW 2983   1.527   0.272   5.712
  768SOL    HW1 2984   1.463   0.208   5.743
  768SOL    HW2 2985   1.563   0.311   5.792
  769SOL     OW 2986   1.292   0.827   5.618
  769SOL    HW1 2987   1.335   0.741   5.621
  769SOL    HW2 2988   1.324   0.866   5.536
  770SOL     OW 2989   1.066   1.335   6.439
  770SOL    HW1 2990   1.069   1.263   6.377
  770SOL    HW2 2991   1.127   1.399   6.405
  771SOL     OW 2992   0.315   0.811   6.536
  771SOL    HW1 2993   0.409   0.829   6.531
  771SOL    HW2 2994   0.309   0.720   6.567
  772SOL     OW 2995   0.337   0.526   6.601
  772SOL    HW1 2996   0.299   0.439   6.584
  772SOL    HW2 2997   0.411   0.531   6.541
  773SOL     OW 2998   1.136   0.378   7.273
  773SOL    HW1 2999   1.089   0.432   7.336
  773SOL    HW2 3000   1.223   0.416   7.268
  774SOL     OW 3001   1.134   0.223   7.051
  774SOL    HW1 3002   1.139   0.281   7.127
  774SOL    HW2 3003   1.189   0.264   6.985
  775SOL     OW 3004   0.001   1.331   5.796
  775SOL    HW1 3005   5.226   1.321   5.738
  775SOL    HW2 3006   0.012   1.244   5.836
  776SOL     OW 3007   0.092   1.782   6.536
  776SOL    HW1 3008   0.059   1.711   6.481
  776SOL    HW2 3009   0.179   1.800   6.501
  777SOL     OW 3010   0.505   1.573   6.493
  777SOL    HW1 3011   0.572   1.638   6.514
  777SOL    HW2 3012   0.549   1.511   6.434
  778SOL     OW 3013   0.985   0.793   6.813
  778SOL    HW1 3014   1.040   0.769   6.888
  778SOL    HW2 3015   0.899   0.756   6.834
  779SOL     OW 3016   0.036   0.563   6.703
  779SOL    HW1 3017   0.119   0.533   6.666
  779SOL    HW2 3018   0.039   0.534   6.794
  780SOL     OW 3019   0.171   0.513   7.298
  780SOL    HW1 3020   0.253   0.494   7.254
  780SOL    HW2 3021   0.138   0.592   7.256
  781SOL     OW 3022   1.376   0.940   7.245
  781SOL    HW1 3023   1.397   1.033   7.245
  781SOL    HW2 3024   1.374   0.915   7.153
  782SOL     OW 3025   0.814   0.571   5.946
  782SOL    HW1 3026   0.818   0.497   5.886
  782SOL    HW2 3027   0.740   0.624   5.915
  783SOL     OW 3028   1.642   0.601   6.773
  783SOL    HW1 3029   1.631   0.542   6.847
  783SOL    HW2 3030   1.730   0.581   6.739
  784SOL     OW 3031   0.256   1.556   7.322
  784SOL    HW1 3032   0.233   1.618   7.391
  784SOL    HW2 3033   0.249   1.470   7.363
  785SOL     OW 3034   0.694   0.454   6.849
  785SOL    HW1 3035   0.647   0.379   6.813
  785SOL    HW2 3036   0.696   0.517   6.777
  786SOL     OW 3037   0.929   1.679   7.053
  786SOL    HW1 3038   0.902   1.646   6.967
  786SOL    HW2 3039   0.926   1.774   7.045
  787SOL     OW 3040   0.464   0.493   5.767
  787SOL    HW1 3041   0.527   0.562   5.790
  787SOL    HW2 3042   0.380   0.537   5.761
  788SOL     OW 3043   0.149   1.138   7.057
  788SOL    HW1 3044   0.146   1.088   7.139
  788SOL    HW2 3045   0.161   1.071   6.989
  789SOL     OW 3046   1.327   1.048   6.810
  789SOL    HW1 3047   1.351   0.985   6.742
  789SOL    HW2 3048   1.256   1.099   6.771
  790SOL     OW 3049   1.310   0.857   5.893
  790SOL    HW1 3050   1.234   0.826   5.942
  790SOL    HW2 3051   1.287   0.843   5.801
  791SOL     OW 3052   1.770   1.746   6.735
  791SOL    HW1 3053   1.831   1.771   6.666
  791SOL    HW2 3054   1.747   1.655   6.714
  792SOL     OW 3055   1.241   1.733   6.700
  792SOL    HW1 3056   1.323   1.753   6.655
  792SOL    HW2 3057   1.246   1.639   6.718
  793SOL     OW 3058   0.083   1.219   6.613
  793SOL    HW1 3059   0.070   1.244   6.705
  793SOL    HW2 3060   5.294   1.207   6.579
  794SOL     OW 3061   0.677   1.664   7.312
  794SOL    HW1 3062   0.625   1.744   7.310
  794SOL    HW2 3063   0.742   1.676   7.243
  795SOL     OW 3064   1.712   0.147   6.090
  795SOL    HW1 3065   1.788   0.127   6.035
  795SOL    HW2 3066   1.705   0.072   6.149
  796SOL     OW 3067   1.390   1.568   6.070
  796SOL    HW1 3068   1.451   1.599   6.003
  796SOL    HW2 3069   1.342   1.646   6.098
  797SOL     OW 3070   0.140   1.799   7.429
  797SOL    HW1 3071   0.089   1.735   7.478
  797SOL    HW2 3072   0.193   1.843   7.496
  798SOL     OW 3073   1.277   0.925   6.257
  798SOL    HW1 3074   1.351   0.864   6.263
  798SOL    HW2 3075   1.311   0.998   6.205
  799SOL     OW 3076   0.816   1.272   7.017
  799SOL    HW1 3077   0.788   1.312   7.099
  799SOL    HW2 3078   0.747   1.295   6.955
  800SOL     OW 3079   0.672   1.618   5.741
  800SOL    HW1 3080   0.682   1.630   5.647
  800SOL    HW2 3081   0.618   1.540   5.750
  801SOL     OW 3082   1.628   1.727   6.977
  801SOL    HW1 3083   1.678   1.734   6.895
  801SOL    HW2 3084   1.615   1.817   7.005
  802SOL     OW 3085   1.845   0.158   6.544
  802SOL    HW1 3086   1.847   0.064   6.527
  802SOL    HW2 3087   1.758   0.186   6.516
  803SOL     OW 3088   0.270   0.328   6.305
  803SOL    HW1 3089   0.184   0.366   6.288
  803SOL    HW2 3090   0.271   0.313   6.399
  804SOL     OW 3091   1.206   1.607   5.617
  804SOL    HW1 3092   1.198   1.515   5.644
  804SOL    HW2 3093   1.142   1.618   5.548
  805SOL     OW 3094   0.824   1.006   6.958
  805SOL    HW1 3095   0.868   1.002   6.873
  805SOL    HW2 3096   0.824   1.099   6.981
  806SOL     OW 3097   0.915   0.910   5.876
  806SOL    HW1 3098   0.976   0.942   5.809
  806SOL    HW2 3099   0.963   0.841   5.921
  807SOL     OW 3100   1.493   1.625   5.628
  807SOL    HW1 3101   1.398   1.620   5.615
  807SOL    HW2 3102   1.529   1.631   5.540
  808SOL     OW 3103   0.367   1.303   7.079
  808SOL    HW1 3104   0.359   1.378   7.020
  808SOL    HW2 3105   0.291   1.249   7.059
  809SOL     OW 3106   1.611   1.283   6.867
  809SOL    HW1 3107   1.671   1.273   6.941
  809SOL    HW2 3108   1.551   1.352   6.893
  810SOL     OW 3109   1.050   1.106   6.292
  810SOL    HW1 3110   0.980   1.055   6.331
  810SOL    HW2 3111   1.113   1.041   6.260
  811SOL     OW 3112   1.020   0.242   6.554
  811SOL    HW1 3113   1.000   0.197   6.472
  811SOL    HW2 3114   1.012   0.175   6.621
  812SOL     OW 3115   0.601   1.487   6.068
  812SOL    HW1 3116   0.645   1.439   5.998
  812SOL    HW2 3117   0.535   1.540   6.022
  813SOL     OW 3118   1.723   0.387   6.965
  813SOL    HW1 3119   1.793   0.452   6.964
  813SOL    HW2 3120   1.755   0.317   6.907
  814SOL     OW 3121   0.260   1.348   5.878
  814SOL    HW1 3122   0.167   1.351   5.855
  814SOL    HW2 3123   0.264   1.385   5.966
  815SOL     OW 3124   0.115   1.014   7.303
  815SOL    HW1 3125   0.043   0.985   7.358
  815SOL    HW2 3126   0.194   0.983   7.348
  816SOL     OW 3127   0.674   0.213   7.075
  816SOL    HW1 3128   0.757   0.196   7.032
  816SOL    HW2 3129   0.698   0.259   7.156
  817SOL     OW 3130   0.078   0.338   5.623
  817SOL    HW1 3131   5.287   0.311   5.610
  817SOL    HW2 3132   0.093   0.405   5.557
  818SOL     OW 3133   1.430   0.858   6.987
  818SOL    HW1 3134   1.382   0.919   6.931
  818SOL    HW2 3135   1.520   0.861   6.953
  819SOL     OW 3136   0.083   0.141   5.881
  819SOL    HW1 3137   0.076   0.234   5.863
  819SOL    HW2 3138   0.170   0.116   5.850
  820SOL     OW 3139   1.179   1.340   5.703
  820SOL    HW1 3140   1.089   1.310   5.706
  820SOL    HW2 3141   1.208   1.340   5.794
  821SOL     OW 3142   0.619   0.831   7.021
  821SOL    HW1 3143   0.674   0.908   7.005
  821SOL    HW2 3144   0.681   0.758   7.029
  822SOL     OW 3145   1.484   1.775   6.563
  822SOL    HW1 3146   1.508   1.834   6.492
  822SOL    HW2 3147   1.567   1.758   6.609
  823SOL     OW 3148   0.713   0.573   7.291
  823SOL    HW1 3149   0.755   0.636   7.349
  823SOL    HW2 3150   0.747   0.488   7.319
  824SOL     OW 3151   1.470   1.201   7.218
  824SOL    HW1 3152   1.458   1.214   7.312
  824SOL    HW2 3153   1.564   1.215   7.204
  825SOL     OW 3154   0.379   1.742   7.149
  825SOL    HW1 3155   0.296   1.787   7.135
  825SOL    HW2 3156   0.354   1.661   7.194
  826SOL     OW 3157   1.670   0.882   6.841
  826SOL    HW1 3158   1.663   0.796   6.798
  826SOL    HW2 3159   1.661   0.945   6.770
  827SOL     OW 3160   1.221   0.319   6.052
  827SOL    HW1 3161   1.284   0.248   6.044
  827SOL    HW2 3162   1.251   0.371   6.126
  828SOL     OW 3163   0.590   0.739   6.254
  828SOL    HW1 3164   0.630   0.824   6.238
  828SOL    HW2 3165   0.521   0.731   6.189
  829SOL     OW 3166   1.767   0.360   7.235
  829SOL    HW1 3167   1.748   0.375   7.143
  829SOL    HW2 3168   1.695   0.305   7.266
  830SOL     OW 3169   1.744   0.933   7.099
  830SOL    HW1 3170   1.743   1.028   7.112
  830SOL    HW2 3171   1.729   0.922   7.005
  831SOL     OW 3172   0.862   1.367   5.618
  831SOL    HW1 3173   0.824   1.396   5.701
  831SOL    HW2 3174   0.881   1.449   5.572
  832SOL     OW 3175   0.662   1.794   6.531
  832SOL    HW1 3176   0.641   1.885   6.508
  832SOL    HW2 3177   0.758   1.790   6.524
  833SOL     OW 3178   0.867   0.965   6.441
  833SOL    HW1 3179   0.917   0.895   6.481
  833SOL    HW2 3180   0.833   1.016   6.515
  834SOL     OW 3181   1.078   0.987   5.674
  834SOL    HW1 3182   1.058   1.038   5.596
  834SOL    HW2 3183   1.154   0.934   5.649
  835SOL     OW 3184   1.855   1.555   6.431
  835SOL    HW1 3185   1.777   1.543   6.376
  835SOL    HW2 3186   1.847   1.488   6.498
  836SOL     OW 3187   0.225   1.305   7.445
  836SOL    HW1 3188   0.154   1.245   7.419
  836SOL    HW2 3189   0.212   1.317   7.540
  837SOL     OW 3190   0.086   1.221   6.240
  837SOL    HW1 3191   0.098   1.189   6.329
  837SOL    HW2 3192   0.173   1.212   6.200
  838SOL     OW 3193   0.680   1.401   7.213
  838SOL    HW1 3194   0.599   1.359   7.243
  838SOL    HW2 3195   0.676   1.490   7.249
  839SOL     OW 3196   1.816   0.178   6.819
  839SOL    HW1 3197   1.784   0.088   6.827
  839SOL    HW2 3198   1.832   0.190   6.726
  840SOL     OW 3199   0.432   0.436   6.108
  840SOL    HW1 3200   0.463   0.362   6.056
  840SOL    HW2 3201   0.387   0.395   6.182
  841SOL     OW 3202   1.701   1.490   6.684
  841SOL    HW1 3203   1.620   1.466   6.639
  841SOL    HW2 3204   1.714   1.421   6.749
  842SOL     OW 3205   0.335   0.559   6.875
  842SOL    HW1 3206   0.393   0.502   6.925
  842SOL    HW2 3207   0.349   0.533   6.784
  843SOL     OW 3208   0.827   1.577   6.265
  843SOL    HW1 3209   0.817   1.630   6.185
  843SOL    HW2 3210   0.750   1.521   6.267
  844SOL     OW 3211   1.428   0.218   6.702
  844SOL    HW1 3212   1.465   0.144   6.750
  844SOL    HW2 3213   1.380   0.267   6.769
  845SOL     OW 3214   1.002   0.021   6.728
  845SOL    HW1 3215   0.952   5.252   6.685
  845SOL    HW2 3216   1.089   5.284   6.741
  846SOL     OW 3217   0.771   1.332   5.900
  846SOL    HW1 3218   0.740   1.242   5.906
  846SOL    HW2 3219   0.854   1.333   5.948
  847SOL     OW 3220   0.622   1.557   6.873
  847SOL    HW1 3221   0.624   1.639   6.922
  847SOL    HW2 3222   0.709   1.551   6.833
  848SOL     OW 3223   1.354   0.040   5.747
  848SOL    HW1 3224   1.387   5.297   5.668
  848SOL    HW2 3225   1.276   5.290   5.771
  849SOL     OW 3226   1.301   0.463   6.271
  849SOL    HW1 3227   1.246   0.541   6.277
  849SOL    HW2 3228   1.295   0.423   6.358
  850SOL     OW 3229   1.594   0.216   6.468
  850SOL    HW1 3230   1.527   0.227   6.535
  850SOL    HW2 3231   1.588   0.294   6.413
  851SOL     OW 3232   0.047   1.069   5.876
  851SOL    HW1 3233   0.137   1.038   5.866
  851SOL    HW2 3234   5.300   0.993   5.911
  852SOL     OW 3235   0.883   1.650   5.929
  852SOL    HW1 3236   0.811   1.635   5.868
  852SOL    HW2 3237   0.856   1.726   5.980
  853SOL     OW 3238   0.229   0.631   7.566
  853SOL    HW1 3239   0.150   0.598   7.608
  853SOL    HW2 3240   0.222   0.603   7.475
  854SOL     OW 3241   1.767   0.599   7.680
  854SOL    HW1 3242   1.747   0.594   7.586
  854SOL    HW2 3243   1.725   0.522   7.717
  855SOL     OW 3244   0.228   1.708   7.920
  855SOL    HW1 3245   0.264   1.752   7.998
  855SOL    HW2 3246   0.299   1.713   7.856
  856SOL     OW 3247   0.218   1.436   7.990
  856SOL    HW1 3248   0.208   1.531   7.985
  856SOL    HW2 3249   0.154   1.409   8.057
  857SOL     OW 3250   0.584   0.983   7.580
  857SOL    HW1 3251   0.629   1.032   7.511
  857SOL    HW2 3252   0.626   1.013   7.661
  858SOL     OW 3253   1.837   1.760   7.798
  858SOL    HW1 3254   1.907   1.729   7.855
  858SOL    HW2 3255   1.864   1.848   7.772
  859SOL     OW 3256   0.037   1.601   7.581
  859SOL    HW1 3257   0.027   1.508   7.601
  859SOL    HW2 3258   5.278   1.645   7.643
  860SOL     OW 3259   1.684   0.868   8.035
  860SOL    HW1 3260   1.765   0.880   0.005
  860SOL    HW2 3261   1.671   0.952   7.990
  861SOL     OW 3262   1.654   1.099   7.876
  861SOL    HW1 3263   1.741   1.124   7.846
  861SOL    HW2 3264   1.628   1.170   7.935
  862SOL     OW 3265   0.810   5.291   7.944
  862SOL    HW1 3266   0.851   0.077   7.931
  862SOL    HW2 3267   0.716   0.009   7.942
  863SOL     OW 3268   1.533   0.994   7.648
  863SOL    HW1 3269   1.466   0.935   7.681
  863SOL    HW2 3270   1.576   1.029   7.726
  864SOL     OW 3271   0.588   0.723   7.707
  864SOL    HW1 3272   0.598   0.804   7.657
  864SOL    HW2 3273   0.533   0.747   7.781
  865SOL     OW 3274   1.575   1.670   7.757
  865SOL    HW1 3275   1.665   1.700   7.765
  865SOL    HW2 3276   1.563   1.657   7.663
  866SOL     OW 3277   0.051   0.816   0.201
  866SOL    HW1 3278   0.125   0.768   0.163
  866SOL    HW2 3279   0.029   0.882   0.136
  867SOL     OW 3280   0.866   0.355   7.630
  867SOL    HW1 3281   0.914   0.419   7.578
  867SOL    HW2 3282   0.926   0.282   7.639
  868SOL     OW 3283   0.320   0.949   7.694
  868SOL    HW1 3284   0.400   0.976   7.650
  868SOL    HW2 3285   0.297   0.866   7.652
  869SOL     OW 3286   1.123   1.776   7.682
  869SOL    HW1 3287   1.047   1.735   7.724
  869SOL    HW2 3288   1.146   1.716   7.611
  870SOL     OW 3289   1.629   1.380   7.533
  870SOL    HW1 3290   1.587   1.465   7.520
  870SOL    HW2 3291   1.560   1.316   7.516
  871SOL     OW 3292   0.470   1.737   7.769
  871SOL    HW1 3293   0.514   1.791   7.834
  871SOL    HW2 3294   0.539   1.705   7.713
  872SOL     OW 3295   1.408   0.106   7.881
  872SOL    HW1 3296   1.402   0.083   7.789
  872SOL    HW2 3297   1.502   0.112   7.899
  873SOL     OW 3298   0.378   0.697   7.921
  873SOL    HW1 3299   0.403   0.605   7.925
  873SOL    HW2 3300   0.289   0.700   7.956
  874SOL     OW 3301   0.616   0.131   7.559
  874SOL    HW1 3302   0.692   0.077   7.578
  874SOL    HW2 3303   0.574   0.089   7.484
  875SOL     OW 3304   0.545   0.062   7.952
  875SOL    HW1 3305   0.454   0.047   7.976
  875SOL    HW2 3306   0.543   0.135   7.891
  876SOL     OW 3307   1.428   1.197   7.489
  876SOL    HW1 3308   1.459   1.123   7.542
  876SOL    HW2 3309   1.344   1.221   7.528
  877SOL     OW 3310   0.313   0.068   7.651
  877SOL    HW1 3311   0.372   0.125   7.601
  877SOL    HW2 3312   0.359   5.285   7.658
  878SOL     OW 3313   0.950   0.228   7.909
  878SOL    HW1 3314   0.899   0.298   7.867
  878SOL    HW2 3315   1.038   0.264   7.918
  879SOL     OW 3316   0.447   1.157   0.092
  879SOL    HW1 3317   0.374   1.179   0.150
  879SOL    HW2 3318   0.406   1.139   0.008
  880SOL     OW 3319   1.290   1.811   8.015
  880SOL    HW1 3320   1.325   1.880   7.958
  880SOL    HW2 3321   1.208   1.846   8.048
  881SOL     OW 3322   1.028   0.547   7.466
  881SOL    HW1 3323   0.984   0.631   7.451
  881SOL    HW2 3324   1.087   0.564   7.539
  882SOL     OW 3325   1.870   0.818   7.802
  882SOL    HW1 3326   1.870   0.787   7.892
  882SOL    HW2 3327   1.830   0.747   7.752
  883SOL     OW 3328   0.491   1.414   7.607
  883SOL    HW1 3329   0.416   1.386   7.659
  883SOL    HW2 3330   0.471   1.384   7.518
  884SOL     OW 3331   1.393   0.572   7.519
  884SOL    HW1 3332   1.332   0.552   7.590
  884SOL    HW2 3333   1.478   0.539   7.551
  885SOL     OW 3334   0.524   0.270   7.773
  885SOL    HW1 3335   0.566   0.217   7.705
  885SOL    HW2 3336   0.504   0.353   7.730
  886SOL     OW 3337   0.709   1.060   7.814
  886SOL    HW1 3338   0.693   1.050   7.908
  886SOL    HW2 3339   0.787   1.008   7.797
  887SOL     OW 3340   0.347   1.094   7.930
  887SOL    HW1 3341   0.348   1.178   7.884
  887SOL    HW2 3342   0.350   1.029   7.859
  888SOL     OW 3343   1.225   1.356   7.821
  888SOL    HW1 3344   1.288   1.423   7.847
  888SOL    HW2 3345   1.182   1.331   7.903
  889SOL     OW 3346   1.589   0.628   7.921
  889SOL    HW1 3347   1.571   0.686   7.996
  889SOL    HW2 3348   1.628   0.685   7.855
  890SOL     OW 3349   1.204   0.526   7.716
  890SOL    HW1 3350   1.206   0.439   7.756
  890SOL    HW2 3351   1.181   0.585   7.788
  891SOL     OW 3352   1.616   0.376   7.815
  891SOL    HW1 3353   1.637   0.308   7.879
  891SOL    HW2 3354   1.591   0.452   7.867
  892SOL     OW 3355   1.529   0.273   7.575
  892SOL    HW1 3356   1.466   0.208   7.605
  892SOL    HW2 3357   1.565   0.310   7.656
  893SOL     OW 3358   1.294   0.828   7.482
  893SOL    HW1 3359   1.336   0.741   7.483
  893SOL    HW2 3360   1.325   0.867   7.400
  894SOL     OW 3361   0.003   1.333   7.656
  894SOL    HW1 3362   5.219   1.332   7.609
  894SOL    HW2 3363   0.013   1.244   7.690
  895SOL     OW 3364   0.835   0.598   7.766
  895SOL    HW1 3365   0.826   0.508   7.734
  895SOL    HW2 3366   0.746   0.632   7.765
  896SOL     OW 3367   0.461   0.493   7.633
  896SOL    HW1 3368   0.524   0.563   7.651
  896SOL    HW2 3369   0.377   0.538   7.624
  897SOL     OW 3370   1.311   0.851   7.755
  897SOL    HW1 3371   1.224   0.851   7.795
  897SOL    HW2 3372   1.294   0.841   7.661
  898SOL     OW 3373   1.708   0.129   7.946
  898SOL    HW1 3374   1.784   0.130   7.887
  898SOL    HW2 3375   1.739   0.083   8.023
  899SOL     OW 3376   1.365   1.576   7.897
  899SOL    HW1 3377   1.440   1.597   7.841
  899SOL    HW2 3378   1.333   1.661   7.927
  900SOL     OW 3379   0.668   1.618   7.604
  900SOL    HW1 3380   0.680   1.630   7.509
  900SOL    HW2 3381   0.617   1.538   7.612
  901SOL     OW 3382   1.208   1.608   7.478
  901SOL    HW1 3383   1.198   1.516   7.506
  901SOL    HW2 3384   1.142   1.619   7.410
  902SOL     OW 3385   0.924   0.911   7.753
  902SOL    HW1 3386   0.979   0.936   7.679
  902SOL    HW2 3387   0.924   0.816   7.753
  903SOL     OW 3388   1.494   1.625   7.488
  903SOL    HW1 3389   1.399   1.619   7.477
  903SOL    HW2 3390   1.529   1.631   7.399
  904SOL     OW 3391   0.603   1.504   7.936
  904SOL    HW1 3392   0.648   1.445   7.876
  904SOL    HW2 3393   0.534   1.544   7.884
  905SOL     OW 3394   0.259   1.347   7.741
  905SOL    HW1 3395   0.167   1.351   7.717
  905SOL    HW2 3396   0.263   1.383   7.829
  906SOL     OW 3397   0.077   0.344   7.487
  906SOL    HW1 3398   5.290   0.308   7.468
  906SOL    HW2 3399   0.092   0.408   7.417
  907SOL     OW 3400   0.067   0.142   7.737
  907SOL    HW1 3401   0.069   0.237   7.723
  907SOL    HW2 3402   0.156   0.114   7.715
  908SOL     OW 3403   1.177   1.339   7.556
  908SOL    HW1 3404   1.085   1.314   7.558
  908SOL    HW2 3405   1.202   1.345   7.649
  909SOL     OW 3406   1.223   0.320   7.916
  909SOL    HW1 3407   1.289   0.250   7.909
  909SOL    HW2 3408   1.246   0.367   7.995
  910SOL     OW 3409   0.622   0.740   8.048
  910SOL    HW1 3410   0.629   0.818   0.023
  910SOL    HW2 3411   0.530   0.738   8.021
  911SOL     OW 3412   0.862   1.367   7.481
  911SOL    HW1 3413   0.824   1.396   7.564
  911SOL    HW2 3414   0.882   1.449   7.434
  912SOL     OW 3415   1.072   0.978   7.536
  912SOL    HW1 3416   1.055   1.036   7.462
  912SOL    HW2 3417   1.152   0.931   7.512
  913SOL     OW 3418   0.398   0.426   7.981
  913SOL    HW1 3419   0.447   0.367   7.923
  913SOL    HW2 3420   0.439   0.416   8.066
  914SOL     OW 3421   0.766   1.334   7.759
  914SOL    HW1 3422   0.735   1.244   7.762
  914SOL    HW2 3423   0.847   1.333   7.810
  915SOL     OW 3424   1.362   0.039   7.610
  915SOL    HW1 3425   1.378   5.292   7.528
  915SOL    HW2 3426   1.282   5.300   7.644
  916SOL     OW 3427   0.047   1.070   7.722
  916SOL    HW1 3428   0.137   1.038   7.723
  916SOL    HW2 3429   5.299   1.010   7.779
  917SOL     OW 3430   0.892   1.650   7.782
  917SOL    HW1 3431   0.816   1.627   7.728
  917SOL    HW2 3432   0.858   1.714   7.845
  918SOL     OW 3433   0.225   2.487   0.114
  918SOL    HW1 3434   0.155   2.446   0.164
  918SOL    HW2 3435   0.232   2.434   0.034
  919SOL     OW 3436   0.240   2.137   0.990
  919SOL    HW1 3437   0.255   2.104   1.078
  919SOL    HW2 3438   0.157   2.099   0.963
  920SOL     OW 3439   5.297   2.258   0.649
  920SOL    HW1 3440   5.206   2.285   0.659
  920SOL    HW2 3441   5.292   2.165   0.627
  921SOL     OW 3442   0.573   3.144   1.180
  921SOL    HW1 3443   0.490   3.152   1.133
  921SOL    HW2 3444   0.589   3.232   1.215
  922SOL     OW 3445   1.559   3.373   0.706
  922SOL    HW1 3446   1.516   3.354   0.790
  922SOL    HW2 3447   1.488   3.378   0.643
  923SOL     OW 3448   1.130   2.560   0.702
  923SOL    HW1 3449   1.180   2.641   0.688
  923SOL    HW2 3450   1.084   2.575   0.784
  924SOL     OW 3451   1.770   2.462   0.233
  924SOL    HW1 3452   1.730   2.466   0.146
  924SOL    HW2 3453   1.728   2.387   0.275
  925SOL     OW 3454   0.757   3.004   1.038
  925SOL    HW1 3455   0.689   3.038   1.097
  925SOL    HW2 3456   0.791   3.082   0.994
  926SOL     OW 3457   0.865   2.639   1.822
  926SOL    HW1 3458   0.855   2.711   1.884
  926SOL    HW2 3459   0.888   2.682   1.739
  927SOL     OW 3460   0.684   2.864   0.650
  927SOL    HW1 3461   0.750   2.853   0.718
  927SOL    HW2 3462   0.616   2.918   0.691
  928SOL     OW 3463   0.709   3.013   1.812
  928SOL    HW1 3464   0.757   3.091   1.837
  928SOL    HW2 3465   0.626   3.046   1.776
  929SOL     OW 3466   0.358   3.268   1.060
  929SOL    HW1 3467   0.271   3.265   1.021
  929SOL    HW2 3468   0.406   3.330   1.006
  930SOL     OW 3469   1.461   3.361   1.353
  930SOL    HW1 3470   1.510   3.443   1.362
  930SOL    HW2 3471   1.402   3.360   1.428
  931SOL     OW 3472   0.450   2.262   1.494
  931SOL    HW1 3473   0.524   2.201   1.495
  931SOL    HW2 3474   0.373   2.206   1.502
  932SOL     OW 3475   1.613   2.311   0.740
  932SOL    HW1 3476   1.537   2.334   0.686
  932SOL    HW2 3477   1.628   2.388   0.794
  933SOL     OW 3478   0.217   3.590   0.467
  933SOL    HW1 3479   0.260   3.646   0.532
  933SOL    HW2 3480   0.286   3.569   0.404
  934SOL     OW 3481   1.136   3.203   1.692
  934SOL    HW1 3482   1.177   3.199   1.779
  934SOL    HW2 3483   1.084   3.123   1.686
  935SOL     OW 3484   0.221   3.309   0.534
  935SOL    HW1 3485   0.202   3.403   0.540
  935SOL    HW2 3486   0.158   3.268   0.593
  936SOL     OW 3487   0.252   2.941   0.878
  936SOL    HW1 3488   0.259   2.855   0.920
  936SOL    HW2 3489   0.198   2.993   0.939
  937SOL     OW 3490   0.615   3.652   1.433
  937SOL    HW1 3491   0.531   3.635   1.475
  937SOL    HW2 3492   0.635   3.743   1.455
  938SOL     OW 3493   0.624   2.822   0.135
  938SOL    HW1 3494   0.580   2.902   0.106
  938SOL    HW2 3495   0.678   2.850   0.209
  939SOL     OW 3496   1.596   1.985   1.469
  939SOL    HW1 3497   1.599   2.065   1.417
  939SOL    HW2 3498   1.583   2.014   1.559
  940SOL     OW 3499   0.130   2.497   0.582
  940SOL    HW1 3500   0.087   2.414   0.605
  940SOL    HW2 3501   0.099   2.560   0.647
  941SOL     OW 3502   1.844   3.621   0.333
  941SOL    HW1 3503   1.908   3.591   0.398
  941SOL    HW2 3504   1.870   3.711   0.315
  942SOL     OW 3505   0.032   3.448   0.105
  942SOL    HW1 3506   0.024   3.362   0.146
  942SOL    HW2 3507   0.005   3.510   0.173
  943SOL     OW 3508   1.687   2.780   0.642
  943SOL    HW1 3509   1.771   2.740   0.620
  943SOL    HW2 3510   1.665   2.832   0.565
  944SOL     OW 3511   1.646   2.967   0.435
  944SOL    HW1 3512   1.725   2.983   0.384
  944SOL    HW2 3513   1.651   3.029   0.507
  945SOL     OW 3514   0.130   2.610   1.586
  945SOL    HW1 3515   0.224   2.624   1.590
  945SOL    HW2 3516   0.092   2.696   1.600
  946SOL     OW 3517   0.615   3.246   0.734
  946SOL    HW1 3518   0.567   3.164   0.745
  946SOL    HW2 3519   0.597   3.273   0.644
  947SOL     OW 3520   1.289   3.100   1.424
  947SOL    HW1 3521   1.322   3.033   1.364
  947SOL    HW2 3522   1.346   3.094   1.501
  948SOL     OW 3523   0.822   1.863   0.511
  948SOL    HW1 3524   0.861   1.948   0.490
  948SOL    HW2 3525   0.728   1.880   0.516
  949SOL     OW 3526   0.178   2.810   1.278
  949SOL    HW1 3527   0.269   2.781   1.267
  949SOL    HW2 3528   0.135   2.782   1.197
  950SOL     OW 3529   1.511   2.868   0.211
  950SOL    HW1 3530   1.450   2.801   0.243
  950SOL    HW2 3531   1.562   2.893   0.288
  951SOL     OW 3532   1.185   3.667   1.622
  951SOL    HW1 3533   1.197   3.726   1.547
  951SOL    HW2 3534   1.201   3.580   1.586
  952SOL     OW 3535   0.334   2.115   1.814
  952SOL    HW1 3536   0.382   2.197   1.827
  952SOL    HW2 3537   0.247   2.132   1.850
  953SOL     OW 3538   1.466   3.281   0.952
  953SOL    HW1 3539   1.398   3.296   1.018
  953SOL    HW2 3540   1.454   3.190   0.925
  954SOL     OW 3541   1.660   3.600   0.581
  954SOL    HW1 3542   1.639   3.572   0.492
  954SOL    HW2 3543   1.634   3.526   0.636
  955SOL     OW 3544   0.597   2.576   0.280
  955SOL    HW1 3545   0.617   2.654   0.228
  955SOL    HW2 3546   0.534   2.607   0.345
  956SOL     OW 3547   1.280   2.212   0.932
  956SOL    HW1 3548   1.190   2.180   0.940
  956SOL    HW2 3549   1.330   2.160   0.994
  957SOL     OW 3550   1.586   3.532   0.318
  957SOL    HW1 3551   1.677   3.563   0.312
  957SOL    HW2 3552   1.560   3.515   0.228
  958SOL     OW 3553   0.793   2.479   1.452
  958SOL    HW1 3554   0.765   2.456   1.541
  958SOL    HW2 3555   0.751   2.413   1.396
  959SOL     OW 3556   1.394   2.336   1.678
  959SOL    HW1 3557   1.395   2.380   1.762
  959SOL    HW2 3558   1.455   2.263   1.688
  960SOL     OW 3559   0.956   2.750   1.582
  960SOL    HW1 3560   1.010   2.679   1.547
  960SOL    HW2 3561   0.908   2.784   1.506
  961SOL     OW 3562   0.992   2.274   1.239
  961SOL    HW1 3563   0.907   2.297   1.278
  961SOL    HW2 3564   0.971   2.228   1.159
  962SOL     OW 3565   1.051   2.561   0.427
  962SOL    HW1 3566   1.066   2.554   0.521
  962SOL    HW2 3567   0.969   2.514   0.412
  963SOL     OW 3568   0.069   2.650   0.817
  963SOL    HW1 3569   0.153   2.654   0.862
  963SOL    HW2 3570   0.063   2.732   0.768
  964SOL     OW 3571   0.131   3.743   1.584
  964SOL    HW1 3572   0.133   3.712   1.674
  964SOL    HW2 3573   0.058   3.697   1.544
  965SOL     OW 3574   0.884   2.219   0.201
  965SOL    HW1 3575   0.929   2.268   0.132
  965SOL    HW2 3576   0.884   2.128   0.170
  966SOL     OW 3577   1.710   2.438   1.828
  966SOL    HW1 3578   1.672   2.512   1.781
  966SOL    HW2 3579   1.735   2.377   1.758
  967SOL     OW 3580   1.376   3.003   0.541
  967SOL    HW1 3581   1.454   2.990   0.488
  967SOL    HW2 3582   1.323   3.066   0.492
  968SOL     OW 3583   0.554   2.046   0.893
  968SOL    HW1 3584   0.552   2.073   0.985
  968SOL    HW2 3585   0.553   2.128   0.844
  969SOL     OW 3586   1.006   3.307   0.473
  969SOL    HW1 3587   0.967   3.379   0.424
  969SOL    HW2 3588   0.988   3.329   0.565
  970SOL     OW 3589   0.357   3.663   0.867
  970SOL    HW1 3590   0.398   3.578   0.881
  970SOL    HW2 3591   0.423   3.726   0.896
  971SOL     OW 3592   1.798   2.918   0.868
  971SOL    HW1 3593   1.742   2.903   0.792
  971SOL    HW2 3594   1.737   2.925   0.942
  972SOL     OW 3595   1.228   3.401   1.513
  972SOL    HW1 3596   1.214   3.328   1.573
  972SOL    HW2 3597   1.165   3.387   1.442
  973SOL     OW 3598   0.330   2.813   0.249
  973SOL    HW1 3599   0.411   2.827   0.200
  973SOL    HW2 3600   0.314   2.719   0.242
  974SOL     OW 3601   1.477   2.602   0.727
  974SOL    HW1 3602   1.468   2.559   0.812
  974SOL    HW2 3603   1.554   2.659   0.737
  975SOL     OW 3604   0.464   3.125   1.737
  975SOL    HW1 3605   0.437   3.131   1.646
  975SOL    HW2 3606   0.382   3.126   1.787
  976SOL     OW 3607   1.108   3.643   0.224
  976SOL    HW1 3608   1.052   3.602   0.291
  976SOL    HW2 3609   1.128   3.572   0.164
  977SOL     OW 3610   0.205   2.144   1.497
  977SOL    HW1 3611   0.125   2.195   1.482
  977SOL    HW2 3612   0.175   2.066   1.544
  978SOL     OW 3613   1.633   3.235   0.082
  978SOL    HW1 3614   1.593   3.322   0.081
  978SOL    HW2 3615   1.561   3.174   0.064
  979SOL     OW 3616   0.470   3.597   0.325
  979SOL    HW1 3617   0.512   3.657   0.386
  979SOL    HW2 3618   0.540   3.571   0.265
  980SOL     OW 3619   1.407   1.973   0.442
  980SOL    HW1 3620   1.396   1.952   0.349
  980SOL    HW2 3621   1.501   1.980   0.455
  981SOL     OW 3622   0.275   3.663   1.215
  981SOL    HW1 3623   0.307   3.587   1.264
  981SOL    HW2 3624   0.226   3.626   1.142
  982SOL     OW 3625   0.938   3.561   0.899
  982SOL    HW1 3626   1.016   3.508   0.920
  982SOL    HW2 3627   0.893   3.511   0.831
  983SOL     OW 3628   0.382   2.561   0.476
  983SOL    HW1 3629   0.414   2.471   0.485
  983SOL    HW2 3630   0.290   2.556   0.502
  984SOL     OW 3631   1.537   2.087   1.725
  984SOL    HW1 3632   1.545   2.108   1.818
  984SOL    HW2 3633   1.467   2.021   1.722
  985SOL     OW 3634   0.628   1.973   0.135
  985SOL    HW1 3635   0.723   1.961   0.141
  985SOL    HW2 3636   0.607   1.954   0.044
  986SOL     OW 3637   0.768   2.140   1.753
  986SOL    HW1 3638   0.842   2.079   1.757
  986SOL    HW2 3639   0.718   2.121   1.833
  987SOL     OW 3640   0.877   3.383   1.193
  987SOL    HW1 3641   0.861   3.347   1.106
  987SOL    HW2 3642   0.947   3.329   1.230
  988SOL     OW 3643   1.341   2.450   1.432
  988SOL    HW1 3644   1.372   2.419   1.517
  988SOL    HW2 3645   1.377   2.539   1.424
  989SOL     OW 3646   0.815   3.257   0.938
  989SOL    HW1 3647   0.899   3.247   0.894
  989SOL    HW2 3648   0.750   3.258   0.868
  990SOL     OW 3649   0.928   2.371   0.903
  990SOL    HW1 3650   0.904   2.363   0.810
  990SOL    HW2 3651   0.959   2.284   0.928
  991SOL     OW 3652   0.560   1.924   0.501
  991SOL    HW1 3653   0.485   1.924   0.560
  991SOL    HW2 3654   0.549   2.003   0.448
  992SOL     OW 3655   1.433   3.061   0.036
  992SOL    HW1 3656   1.458   2.987   0.092
  992SOL    HW2 3657   1.345   3.085   0.066
  993SOL     OW 3658   0.313   1.907   0.173
  993SOL    HW1 3659   0.376   1.979   0.177
  993SOL    HW2 3660   0.357   1.834   0.218
  994SOL     OW 3661   0.940   2.108   0.460
  994SOL    HW1 3662   0.911   2.150   0.378
  994SOL    HW2 3663   1.034   2.124   0.463
  995SOL     OW 3664   1.080   2.542   1.460
  995SOL    HW1 3665   1.010   2.476   1.465
  995SOL    HW2 3666   1.160   2.491   1.453
  996SOL     OW 3667   1.224   3.431   0.794
  996SOL    HW1 3668   1.240   3.499   0.728
  996SOL    HW2 3669   1.292   3.445   0.860
  997SOL     OW 3670   0.467   3.012   0.733
  997SOL    HW1 3671   0.398   2.992   0.796
  997SOL    HW2 3672   0.428   2.995   0.648
  998SOL     OW 3673   1.269   3.656   0.606
  998SOL    HW1 3674   1.317   3.719   0.553
  998SOL    HW2 3675   1.203   3.709   0.651
  999SOL     OW 3676   1.031   2.392   0.030
  999SOL    HW1 3677   0.990   2.473   8.079
  999SOL    HW2 3678   1.094   2.422   0.096
 1000SOL     OW 3679   0.086   2.408   1.397
 1000SOL    HW1 3680   0.174   2.415   1.361
 1000SOL    HW2 3681   0.079   2.484   1.456
 1001SOL     OW 3682   0.560   2.089   1.165
 1001SOL    HW1 3683   0.598   2.009   1.202
 1001SOL    HW2 3684   0.469   2.088   1.193
 1002SOL     OW 3685   0.868   2.321   0.639
 1002SOL    HW1 3686   0.825   2.376   0.574
 1002SOL    HW2 3687   0.889   2.240   0.592
 1003SOL     OW 3688   1.015   1.914   0.751
 1003SOL    HW1 3689   0.956   1.907   0.677
 1003SOL    HW2 3690   0.994   1.839   0.806
 1004SOL     OW 3691   1.437   3.025   0.857
 1004SOL    HW1 3692   1.368   2.959   0.856
 1004SOL    HW2 3693   1.460   3.037   0.765
 1005SOL     OW 3694   1.467   2.466   0.978
 1005SOL    HW1 3695   1.417   2.384   0.982
 1005SOL    HW2 3696   1.527   2.461   1.053
 1006SOL     OW 3697   1.850   2.678   0.389
 1006SOL    HW1 3698   1.901   2.623   0.448
 1006SOL    HW2 3699   1.818   2.617   0.322
 1007SOL     OW 3700   0.483   3.301   0.173
 1007SOL    HW1 3701   0.411   3.261   0.221
 1007SOL    HW2 3702   0.486   3.254   0.090
 1008SOL     OW 3703   1.669   3.127   0.649
 1008SOL    HW1 3704   1.764   3.131   0.661
 1008SOL    HW2 3705   1.639   3.215   0.669
 1009SOL     OW 3706   1.398   2.442   0.086
 1009SOL    HW1 3707   1.336   2.422   0.156
 1009SOL    HW2 3708   1.456   2.365   0.082
 1010SOL     OW 3709   0.516   2.125   0.324
 1010SOL    HW1 3710   0.565   2.073   0.260
 1010SOL    HW2 3711   0.503   2.210   0.281
 1011SOL     OW 3712   1.753   3.100   1.575
 1011SOL    HW1 3713   1.841   3.062   1.569
 1011SOL    HW2 3714   1.768   3.190   1.604
 1012SOL     OW 3715   1.059   3.215   1.334
 1012SOL    HW1 3716   0.984   3.184   1.385
 1012SOL    HW2 3717   1.135   3.174   1.375
 1013SOL     OW 3718   1.607   3.487   1.653
 1013SOL    HW1 3719   1.602   3.521   1.563
 1013SOL    HW2 3720   1.690   3.440   1.656
 1014SOL     OW 3721   1.127   3.064   1.106
 1014SOL    HW1 3722   1.069   3.103   1.171
 1014SOL    HW2 3723   1.094   3.096   1.022
 1015SOL     OW 3724   1.629   2.961   1.078
 1015SOL    HW1 3725   1.625   3.023   1.151
 1015SOL    HW2 3726   1.550   2.977   1.027
 1016SOL     OW 3727   0.919   1.959   1.398
 1016SOL    HW1 3728   0.940   1.941   1.307
 1016SOL    HW2 3729   0.998   1.999   1.434
 1017SOL     OW 3730   0.984   2.976   1.723
 1017SOL    HW1 3731   0.892   2.993   1.742
 1017SOL    HW2 3732   0.984   2.899   1.667
 1018SOL     OW 3733   0.713   2.923   0.380
 1018SOL    HW1 3734   0.697   2.907   0.473
 1018SOL    HW2 3735   0.791   2.872   0.360
 1019SOL     OW 3736   0.420   2.680   1.252
 1019SOL    HW1 3737   0.489   2.687   1.318
 1019SOL    HW2 3738   0.385   2.591   1.263
 1020SOL     OW 3739   1.266   2.239   1.274
 1020SOL    HW1 3740   1.298   2.317   1.320
 1020SOL    HW2 3741   1.176   2.262   1.251
 1021SOL     OW 3742   0.100   3.485   1.367
 1021SOL    HW1 3743   0.078   3.494   1.275
 1021SOL    HW2 3744   0.186   3.443   1.367
 1022SOL     OW 3745   0.347   2.969   0.489
 1022SOL    HW1 3746   0.348   3.048   0.435
 1022SOL    HW2 3747   0.361   2.898   0.426
 1023SOL     OW 3748   0.555   2.398   0.859
 1023SOL    HW1 3749   0.571   2.457   0.785
 1023SOL    HW2 3750   0.618   2.426   0.926
 1024SOL     OW 3751   1.247   3.209   0.393
 1024SOL    HW1 3752   1.303   3.282   0.422
 1024SOL    HW2 3753   1.160   3.232   0.425
 1025SOL     OW 3754   1.280   3.319   1.146
 1025SOL    HW1 3755   1.335   3.321   1.224
 1025SOL    HW2 3756   1.224   3.242   1.159
 1026SOL     OW 3757   1.584   2.487   0.480
 1026SOL    HW1 3758   1.535   2.537   0.545
 1026SOL    HW2 3759   1.619   2.552   0.420
 1027SOL     OW 3760   0.351   3.381   1.311
 1027SOL    HW1 3761   0.342   3.338   1.227
 1027SOL    HW2 3762   0.445   3.399   1.318
 1028SOL     OW 3763   0.413   2.605   1.602
 1028SOL    HW1 3764   0.473   2.651   1.544
 1028SOL    HW2 3765   0.453   2.519   1.615
 1029SOL     OW 3766   1.600   2.640   1.681
 1029SOL    HW1 3767   1.514   2.681   1.674
 1029SOL    HW2 3768   1.652   2.682   1.613
 1030SOL     OW 3769   0.996   1.983   1.756
 1030SOL    HW1 3770   1.050   2.056   1.726
 1030SOL    HW2 3771   1.045   1.905   1.730
 1031SOL     OW 3772   0.498   1.904   1.747
 1031SOL    HW1 3773   0.456   1.850   1.680
 1031SOL    HW2 3774   0.437   1.978   1.759
 1032SOL     OW 3775   0.585   2.735   1.032
 1032SOL    HW1 3776   0.615   2.826   1.030
 1032SOL    HW2 3777   0.528   2.730   1.109
 1033SOL     OW 3778   1.359   2.721   1.031
 1033SOL    HW1 3779   1.277   2.713   0.983
 1033SOL    HW2 3780   1.398   2.633   1.026
 1034SOL     OW 3781   1.205   2.390   0.271
 1034SOL    HW1 3782   1.212   2.311   0.325
 1034SOL    HW2 3783   1.162   2.454   0.328
 1035SOL     OW 3784   0.302   2.066   1.248
 1035SOL    HW1 3785   0.267   2.091   1.333
 1035SOL    HW2 3786   0.289   1.971   1.243
 1036SOL     OW 3787   0.071   3.181   1.281
 1036SOL    HW1 3788   0.090   3.121   1.353
 1036SOL    HW2 3789   0.003   3.239   1.316
 1037SOL     OW 3790   0.725   2.493   1.059
 1037SOL    HW1 3791   0.799   2.477   1.000
 1037SOL    HW2 3792   0.697   2.583   1.038
 1038SOL     OW 3793   1.734   2.821   1.852
 1038SOL    HW1 3794   1.687   2.762   1.793
 1038SOL    HW2 3795   1.674   2.834   1.926
 1039SOL     OW 3796   0.326   1.925   0.635
 1039SOL    HW1 3797   0.309   2.015   0.665
 1039SOL    HW2 3798   0.331   1.874   0.716
 1040SOL     OW 3799   1.619   2.236   0.370
 1040SOL    HW1 3800   1.643   2.172   0.437
 1040SOL    HW2 3801   1.594   2.314   0.420
 1041SOL     OW 3802   1.028   2.621   0.961
 1041SOL    HW1 3803   1.025   2.639   1.055
 1041SOL    HW2 3804   1.001   2.530   0.953
 1042SOL     OW 3805   0.982   3.428   1.716
 1042SOL    HW1 3806   0.967   3.472   1.633
 1042SOL    HW2 3807   1.026   3.346   1.692
 1043SOL     OW 3808   1.855   3.369   1.605
 1043SOL    HW1 3809   1.873   3.395   1.515
 1043SOL    HW2 3810   1.936   3.388   1.652
 1044SOL     OW 3811   0.353   2.780   1.806
 1044SOL    HW1 3812   0.435   2.799   1.853
 1044SOL    HW2 3813   0.378   2.715   1.740
 1045SOL     OW 3814   1.521   2.159   0.126
 1045SOL    HW1 3815   1.470   2.080   0.143
 1045SOL    HW2 3816   1.559   2.182   0.211
 1046SOL     OW 3817   1.294   2.687   0.022
 1046SOL    HW1 3818   1.334   2.602   0.039
 1046SOL    HW2 3819   1.353   2.728   8.038
 1047SOL     OW 3820   1.066   3.197   0.854
 1047SOL    HW1 3821   1.068   3.125   0.791
 1047SOL    HW2 3822   1.127   3.262   0.819
 1048SOL     OW 3823   0.315   2.672   0.950
 1048SOL    HW1 3824   0.408   2.690   0.946
 1048SOL    HW2 3825   0.309   2.582   0.982
 1049SOL     OW 3826   0.335   2.387   1.014
 1049SOL    HW1 3827   0.300   2.299   1.000
 1049SOL    HW2 3828   0.410   2.392   0.955
 1050SOL     OW 3829   1.134   2.239   1.681
 1050SOL    HW1 3830   1.087   2.294   1.744
 1050SOL    HW2 3831   1.222   2.277   1.677
 1051SOL     OW 3832   1.161   2.065   1.470
 1051SOL    HW1 3833   1.150   2.128   1.541
 1051SOL    HW2 3834   1.199   2.117   1.399
 1052SOL     OW 3835   0.008   3.192   0.203
 1052SOL    HW1 3836   5.233   3.181   0.145
 1052SOL    HW2 3837   0.014   3.110   0.251
 1053SOL     OW 3838   0.092   3.644   0.948
 1053SOL    HW1 3839   0.058   3.572   0.895
 1053SOL    HW2 3840   0.180   3.660   0.914
 1054SOL     OW 3841   0.505   3.435   0.907
 1054SOL    HW1 3842   0.573   3.500   0.928
 1054SOL    HW2 3843   0.548   3.373   0.848
 1055SOL     OW 3844   0.985   2.654   1.227
 1055SOL    HW1 3845   1.040   2.631   1.302
 1055SOL    HW2 3846   0.899   2.618   1.248
 1056SOL     OW 3847   0.033   2.419   1.114
 1056SOL    HW1 3848   0.121   2.397   1.083
 1056SOL    HW2 3849   0.038   2.404   1.209
 1057SOL     OW 3850   0.175   2.375   1.712
 1057SOL    HW1 3851   0.241   2.340   1.652
 1057SOL    HW2 3852   0.145   2.455   1.670
 1058SOL     OW 3853   1.377   2.802   1.659
 1058SOL    HW1 3854   1.398   2.895   1.658
 1058SOL    HW2 3855   1.374   2.777   1.567
 1059SOL     OW 3856   0.818   2.432   0.365
 1059SOL    HW1 3857   0.827   2.360   0.302
 1059SOL    HW2 3858   0.742   2.480   0.334
 1060SOL     OW 3859   1.642   2.463   1.187
 1060SOL    HW1 3860   1.631   2.404   1.262
 1060SOL    HW2 3861   1.729   2.443   1.153
 1061SOL     OW 3862   0.257   3.418   1.735
 1061SOL    HW1 3863   0.233   3.481   1.804
 1061SOL    HW2 3864   0.249   3.332   1.777
 1062SOL     OW 3865   0.699   2.313   1.261
 1062SOL    HW1 3866   0.647   2.239   1.230
 1062SOL    HW2 3867   0.696   2.376   1.188
 1063SOL     OW 3868   0.930   3.541   1.467
 1063SOL    HW1 3869   0.902   3.508   1.381
 1063SOL    HW2 3870   0.925   3.636   1.458
 1064SOL     OW 3871   0.467   2.352   0.181
 1064SOL    HW1 3872   0.532   2.419   0.200
 1064SOL    HW2 3873   0.383   2.398   0.185
 1065SOL     OW 3874   0.148   3.000   1.471
 1065SOL    HW1 3875   0.147   2.950   1.553
 1065SOL    HW2 3876   0.161   2.934   1.403
 1066SOL     OW 3877   1.327   2.910   1.224
 1066SOL    HW1 3878   1.351   2.847   1.156
 1066SOL    HW2 3879   1.256   2.961   1.185
 1067SOL     OW 3880   1.306   2.710   0.308
 1067SOL    HW1 3881   1.228   2.683   0.356
 1067SOL    HW2 3882   1.283   2.700   0.216
 1068SOL     OW 3883   1.770   3.607   1.149
 1068SOL    HW1 3884   1.831   3.633   1.080
 1068SOL    HW2 3885   1.747   3.517   1.128
 1069SOL     OW 3886   1.241   3.595   1.114
 1069SOL    HW1 3887   1.323   3.615   1.069
 1069SOL    HW2 3888   1.246   3.501   1.132
 1070SOL     OW 3889   0.083   3.081   1.027
 1070SOL    HW1 3890   0.069   3.106   1.119
 1070SOL    HW2 3891   5.295   3.069   0.992
 1071SOL     OW 3892   0.678   3.527   1.728
 1071SOL    HW1 3893   0.623   3.606   1.723
 1071SOL    HW2 3894   0.741   3.538   1.657
 1072SOL     OW 3895   0.904   1.953   0.133
 1072SOL    HW1 3896   0.926   1.939   0.041
 1072SOL    HW2 3897   0.968   1.900   0.182
 1073SOL     OW 3898   1.719   2.006   0.511
 1073SOL    HW1 3899   1.792   1.990   0.450
 1073SOL    HW2 3900   1.703   1.921   0.552
 1074SOL     OW 3901   1.389   3.430   0.485
 1074SOL    HW1 3902   1.453   3.463   0.420
 1074SOL    HW2 3903   1.342   3.508   0.514
 1075SOL     OW 3904   0.144   3.659   1.843
 1075SOL    HW1 3905   0.089   3.597   1.889
 1075SOL    HW2 3906   0.189   3.708   1.912
 1076SOL     OW 3907   1.277   2.787   0.671
 1076SOL    HW1 3908   1.351   2.726   0.676
 1076SOL    HW2 3909   1.310   2.860   0.619
 1077SOL     OW 3910   0.816   3.135   1.431
 1077SOL    HW1 3911   0.788   3.174   1.513
 1077SOL    HW2 3912   0.746   3.156   1.369
 1078SOL     OW 3913   0.678   3.481   0.155
 1078SOL    HW1 3914   0.681   3.488   0.060
 1078SOL    HW2 3915   0.617   3.409   0.172
 1079SOL     OW 3916   1.628   3.588   1.391
 1079SOL    HW1 3917   1.677   3.596   1.310
 1079SOL    HW2 3918   1.615   3.679   1.419
 1080SOL     OW 3919   1.840   2.035   0.966
 1080SOL    HW1 3920   1.868   1.948   0.939
 1080SOL    HW2 3921   1.753   2.046   0.927
 1081SOL     OW 3922   0.270   2.179   0.717
 1081SOL    HW1 3923   0.188   2.222   0.697
 1081SOL    HW2 3924   0.269   2.168   0.812
 1082SOL     OW 3925   1.156   3.444   0.051
 1082SOL    HW1 3926   1.174   3.351   0.070
 1082SOL    HW2 3927   1.166   3.452   8.037
 1083SOL     OW 3928   0.824   2.868   1.372
 1083SOL    HW1 3929   0.867   2.864   1.287
 1083SOL    HW2 3930   0.824   2.960   1.395
 1084SOL     OW 3931   0.918   2.775   0.297
 1084SOL    HW1 3932   0.972   2.800   0.222
 1084SOL    HW2 3933   0.965   2.703   0.338
 1085SOL     OW 3934   1.510   3.486   0.060
 1085SOL    HW1 3935   1.415   3.487   0.049
 1085SOL    HW2 3936   1.545   3.486   8.051
 1086SOL     OW 3937   0.368   3.165   1.493
 1086SOL    HW1 3938   0.359   3.240   1.434
 1086SOL    HW2 3939   0.292   3.110   1.474
 1087SOL     OW 3940   1.611   3.145   1.281
 1087SOL    HW1 3941   1.671   3.136   1.354
 1087SOL    HW2 3942   1.551   3.214   1.307
 1088SOL     OW 3943   1.050   2.968   0.706
 1088SOL    HW1 3944   0.980   2.917   0.746
 1088SOL    HW2 3945   1.112   2.903   0.673
 1089SOL     OW 3946   1.021   2.102   0.966
 1089SOL    HW1 3947   1.016   2.054   0.883
 1089SOL    HW2 3948   1.015   2.034   1.033
 1090SOL     OW 3949   0.602   3.349   0.480
 1090SOL    HW1 3950   0.644   3.300   0.410
 1090SOL    HW2 3951   0.535   3.402   0.436
 1091SOL     OW 3952   1.721   2.254   1.380
 1091SOL    HW1 3953   1.793   2.318   1.378
 1091SOL    HW2 3954   1.751   2.183   1.324
 1092SOL     OW 3955   0.268   3.188   0.299
 1092SOL    HW1 3956   0.182   3.199   0.258
 1092SOL    HW2 3957   0.260   3.234   0.383
 1093SOL     OW 3958   0.115   2.878   1.719
 1093SOL    HW1 3959   0.044   2.843   1.772
 1093SOL    HW2 3960   0.195   2.847   1.761
 1094SOL     OW 3961   0.674   2.058   1.499
 1094SOL    HW1 3962   0.757   2.039   1.457
 1094SOL    HW2 3963   0.697   2.089   1.587
 1095SOL     OW 3964   0.041   2.256   0.028
 1095SOL    HW1 3965   0.019   2.167   0.056
 1095SOL    HW2 3966   0.120   2.246   8.056
 1096SOL     OW 3967   1.431   2.720   1.401
 1096SOL    HW1 3968   1.382   2.781   1.345
 1096SOL    HW2 3969   1.520   2.723   1.367
 1097SOL     OW 3970   0.051   1.997   0.220
 1097SOL    HW1 3971   0.053   2.085   0.256
 1097SOL    HW2 3972   0.144   1.974   0.210
 1098SOL     OW 3973   1.184   3.181   0.122
 1098SOL    HW1 3974   1.089   3.171   0.122
 1098SOL    HW2 3975   1.208   3.184   0.214
 1099SOL     OW 3976   0.619   2.693   1.435
 1099SOL    HW1 3977   0.675   2.769   1.419
 1099SOL    HW2 3978   0.680   2.620   1.443
 1100SOL     OW 3979   1.484   3.637   0.977
 1100SOL    HW1 3980   1.509   3.696   0.906
 1100SOL    HW2 3981   1.566   3.620   1.024
 1101SOL     OW 3982   0.717   2.427   1.705
 1101SOL    HW1 3983   0.757   2.490   1.765
 1101SOL    HW2 3984   0.748   2.341   1.736
 1102SOL     OW 3985   1.471   3.063   1.632
 1102SOL    HW1 3986   1.458   3.077   1.726
 1102SOL    HW2 3987   1.564   3.077   1.618
 1103SOL     OW 3988   0.379   3.604   1.564
 1103SOL    HW1 3989   0.296   3.649   1.549
 1103SOL    HW2 3990   0.354   3.523   1.609
 1104SOL     OW 3991   1.671   2.744   1.255
 1104SOL    HW1 3992   1.662   2.658   1.212
 1104SOL    HW2 3993   1.661   2.807   1.185
 1105SOL     OW 3994   1.218   2.180   0.460
 1105SOL    HW1 3995   1.283   2.110   0.452
 1105SOL    HW2 3996   1.245   2.230   0.536
 1106SOL     OW 3997   0.590   2.599   0.668
 1106SOL    HW1 3998   0.629   2.685   0.654
 1106SOL    HW2 3999   0.519   2.595   0.604
 1107SOL     OW 4000   1.764   2.223   1.649
 1107SOL    HW1 4001   1.745   2.238   1.557
 1107SOL    HW2 4002   1.693   2.166   1.679
 1108SOL     OW 4003   1.745   2.795   1.512
 1108SOL    HW1 4004   1.744   2.890   1.526
 1108SOL    HW2 4005   1.729   2.784   1.419
 1109SOL     OW 4006   0.892   3.235   0.033
 1109SOL    HW1 4007   0.829   3.227   0.105
 1109SOL    HW2 4008   0.879   3.323   8.079
 1110SOL     OW 4009   0.662   3.656   0.945
 1110SOL    HW1 4010   0.641   3.747   0.922
 1110SOL    HW2 4011   0.758   3.652   0.938
 1111SOL     OW 4012   0.867   2.828   0.855
 1111SOL    HW1 4013   0.917   2.757   0.895
 1111SOL    HW2 4014   0.833   2.878   0.929
 1112SOL     OW 4015   1.076   2.839   0.085
 1112SOL    HW1 4016   1.067   2.903   0.015
 1112SOL    HW2 4017   1.154   2.789   0.062
 1113SOL     OW 4018   1.855   3.417   0.844
 1113SOL    HW1 4019   1.777   3.406   0.791
 1113SOL    HW2 4020   1.846   3.351   0.913
 1114SOL     OW 4021   0.224   3.167   1.859
 1114SOL    HW1 4022   0.157   3.105   1.833
 1114SOL    HW2 4023   0.213   3.178   1.954
 1115SOL     OW 4024   0.092   3.094   0.659
 1115SOL    HW1 4025   0.098   3.050   0.744
 1115SOL    HW2 4026   0.169   3.064   0.611
 1116SOL     OW 4027   0.681   3.263   1.628
 1116SOL    HW1 4028   0.600   3.221   1.657
 1116SOL    HW2 4029   0.676   3.352   1.664
 1117SOL     OW 4030   1.815   2.047   1.238
 1117SOL    HW1 4031   1.822   1.953   1.253
 1117SOL    HW2 4032   1.823   2.057   1.143
 1118SOL     OW 4033   0.431   2.300   0.523
 1118SOL    HW1 4034   0.461   2.227   0.469
 1118SOL    HW2 4035   0.387   2.258   0.597
 1119SOL     OW 4036   1.701   3.352   1.097
 1119SOL    HW1 4037   1.620   3.328   1.053
 1119SOL    HW2 4038   1.714   3.283   1.163
 1120SOL     OW 4039   0.335   2.420   1.291
 1120SOL    HW1 4040   0.388   2.361   1.345
 1120SOL    HW2 4041   0.350   2.391   1.201
 1121SOL     OW 4042   0.827   3.439   0.678
 1121SOL    HW1 4043   0.817   3.491   0.599
 1121SOL    HW2 4044   0.750   3.383   0.681
 1122SOL     OW 4045   1.432   2.087   1.118
 1122SOL    HW1 4046   1.457   2.007   1.165
 1122SOL    HW2 4047   1.380   2.136   1.181
 1123SOL     OW 4048   1.009   1.881   1.143
 1123SOL    HW1 4049   0.954   1.813   1.104
 1123SOL    HW2 4050   1.096   1.843   1.145
 1124SOL     OW 4051   0.770   3.189   0.307
 1124SOL    HW1 4052   0.739   3.100   0.322
 1124SOL    HW2 4053   0.852   3.194   0.357
 1125SOL     OW 4054   0.622   3.419   1.287
 1125SOL    HW1 4055   0.624   3.501   1.336
 1125SOL    HW2 4056   0.709   3.413   1.247
 1126SOL     OW 4057   1.356   1.917   0.183
 1126SOL    HW1 4058   1.378   1.868   0.104
 1126SOL    HW2 4059   1.270   1.882   0.209
 1127SOL     OW 4060   1.297   2.323   0.682
 1127SOL    HW1 4061   1.244   2.402   0.689
 1127SOL    HW2 4062   1.293   2.283   0.769
 1128SOL     OW 4063   1.587   2.066   0.877
 1128SOL    HW1 4064   1.525   2.085   0.948
 1128SOL    HW2 4065   1.586   2.144   0.823
 1129SOL     OW 4066   0.045   2.939   0.315
 1129SOL    HW1 4067   0.134   2.915   0.291
 1129SOL    HW2 4068   5.298   2.856   0.320
 1130SOL     OW 4069   0.882   3.514   0.347
 1130SOL    HW1 4070   0.814   3.497   0.282
 1130SOL    HW2 4071   0.851   3.590   0.396
 1131SOL     OW 4072   0.233   2.495   1.977
 1131SOL    HW1 4073   0.158   2.463   2.028
 1131SOL    HW2 4074   0.220   2.459   1.890
 1132SOL     OW 4075   0.241   2.138   2.852
 1132SOL    HW1 4076   0.255   2.103   2.940
 1132SOL    HW2 4077   0.157   2.099   2.825
 1133SOL     OW 4078   5.299   2.259   2.514
 1133SOL    HW1 4079   5.206   2.281   2.522
 1133SOL    HW2 4080   5.299   2.168   2.484
 1134SOL     OW 4081   0.573   3.144   3.042
 1134SOL    HW1 4082   0.490   3.152   2.995
 1134SOL    HW2 4083   0.589   3.232   3.077
 1135SOL     OW 4084   1.560   3.373   2.568
 1135SOL    HW1 4085   1.516   3.355   2.651
 1135SOL    HW2 4086   1.488   3.378   2.504
 1136SOL     OW 4087   1.130   2.560   2.564
 1136SOL    HW1 4088   1.179   2.641   2.550
 1136SOL    HW2 4089   1.083   2.575   2.646
 1137SOL     OW 4090   1.768   2.467   2.091
 1137SOL    HW1 4091   1.747   2.460   1.998
 1137SOL    HW2 4092   1.730   2.389   2.131
 1138SOL     OW 4093   0.757   3.004   2.900
 1138SOL    HW1 4094   0.689   3.038   2.959
 1138SOL    HW2 4095   0.791   3.082   2.856
 1139SOL     OW 4096   0.864   2.639   3.683
 1139SOL    HW1 4097   0.856   2.712   3.746
 1139SOL    HW2 4098   0.888   2.682   3.601
 1140SOL     OW 4099   0.685   2.866   2.510
 1140SOL    HW1 4100   0.751   2.853   2.579
 1140SOL    HW2 4101   0.617   2.918   2.552
 1141SOL     OW 4102   0.709   3.013   3.674
 1141SOL    HW1 4103   0.757   3.091   3.699
 1141SOL    HW2 4104   0.626   3.046   3.638
 1142SOL     OW 4105   0.358   3.268   2.922
 1142SOL    HW1 4106   0.270   3.267   2.884
 1142SOL    HW2 4107   0.407   3.330   2.868
 1143SOL     OW 4108   1.462   3.358   3.215
 1143SOL    HW1 4109   1.509   3.441   3.223
 1143SOL    HW2 4110   1.399   3.359   3.287
 1144SOL     OW 4111   0.450   2.262   3.356
 1144SOL    HW1 4112   0.524   2.202   3.357
 1144SOL    HW2 4113   0.373   2.206   3.364
 1145SOL     OW 4114   1.613   2.311   2.602
 1145SOL    HW1 4115   1.537   2.333   2.548
 1145SOL    HW2 4116   1.627   2.388   2.657
 1146SOL     OW 4117   0.230   3.576   2.340
 1146SOL    HW1 4118   0.265   3.645   2.397
 1146SOL    HW2 4119   0.292   3.573   2.266
 1147SOL     OW 4120   1.137   3.203   3.554
 1147SOL    HW1 4121   1.175   3.199   3.641
 1147SOL    HW2 4122   1.084   3.123   3.547
 1148SOL     OW 4123   0.222   3.305   2.401
 1148SOL    HW1 4124   0.214   3.400   2.399
 1148SOL    HW2 4125   0.152   3.276   2.460
 1149SOL     OW 4126   0.249   2.940   2.738
 1149SOL    HW1 4127   0.260   2.856   2.781
 1149SOL    HW2 4128   0.197   2.992   2.800
 1150SOL     OW 4129   0.615   3.652   3.296
 1150SOL    HW1 4130   0.531   3.635   3.337
 1150SOL    HW2 4131   0.635   3.743   3.317
 1151SOL     OW 4132   0.585   2.844   1.996
 1151SOL    HW1 4133   0.630   2.893   1.927
 1151SOL    HW2 4134   0.626   2.873   2.077
 1152SOL     OW 4135   1.596   1.981   3.335
 1152SOL    HW1 4136   1.601   2.058   3.279
 1152SOL    HW2 4137   1.581   2.016   3.423
 1153SOL     OW 4138   0.126   2.497   2.440
 1153SOL    HW1 4139   0.089   2.413   2.469
 1153SOL    HW2 4140   0.098   2.559   2.507
 1154SOL     OW 4141   1.842   3.622   2.198
 1154SOL    HW1 4142   1.905   3.593   2.264
 1154SOL    HW2 4143   1.867   3.712   2.179
 1155SOL     OW 4144   0.037   3.460   1.993
 1155SOL    HW1 4145   0.024   3.369   2.018
 1155SOL    HW2 4146   5.284   3.510   2.054
 1156SOL     OW 4147   1.688   2.780   2.501
 1156SOL    HW1 4148   1.773   2.741   2.481
 1156SOL    HW2 4149   1.667   2.831   2.423
 1157SOL     OW 4150   1.646   2.969   2.292
 1157SOL    HW1 4151   1.731   2.976   2.249
 1157SOL    HW2 4152   1.651   3.030   2.365
 1158SOL     OW 4153   0.130   2.610   3.448
 1158SOL    HW1 4154   0.224   2.623   3.452
 1158SOL    HW2 4155   0.092   2.697   3.462
 1159SOL     OW 4156   0.615   3.246   2.597
 1159SOL    HW1 4157   0.567   3.164   2.607
 1159SOL    HW2 4158   0.597   3.273   2.506
 1160SOL     OW 4159   1.289   3.101   3.284
 1160SOL    HW1 4160   1.319   3.032   3.226
 1160SOL    HW2 4161   1.343   3.092   3.363
 1161SOL     OW 4162   0.821   1.860   2.370
 1161SOL    HW1 4163   0.861   1.945   2.352
 1161SOL    HW2 4164   0.727   1.879   2.377
 1162SOL     OW 4165   0.179   2.810   3.139
 1162SOL    HW1 4166   0.269   2.781   3.129
 1162SOL    HW2 4167   0.135   2.781   3.060
 1163SOL     OW 4168   1.532   2.854   2.060
 1163SOL    HW1 4169   1.462   2.797   2.091
 1163SOL    HW2 4170   1.572   2.889   2.139
 1164SOL     OW 4171   1.186   3.667   3.484
 1164SOL    HW1 4172   1.197   3.726   3.409
 1164SOL    HW2 4173   1.202   3.580   3.448
 1165SOL     OW 4174   0.334   2.115   3.676
 1165SOL    HW1 4175   0.383   2.196   3.689
 1165SOL    HW2 4176   0.247   2.133   3.713
 1166SOL     OW 4177   1.465   3.281   2.814
 1166SOL    HW1 4178   1.397   3.296   2.879
 1166SOL    HW2 4179   1.453   3.190   2.787
 1167SOL     OW 4180   1.658   3.600   2.440
 1167SOL    HW1 4181   1.639   3.570   2.351
 1167SOL    HW2 4182   1.635   3.526   2.496
 1168SOL     OW 4183   0.596   2.584   2.127
 1168SOL    HW1 4184   0.604   2.664   2.076
 1168SOL    HW2 4185   0.531   2.605   2.194
 1169SOL     OW 4186   1.279   2.213   2.794
 1169SOL    HW1 4187   1.190   2.180   2.803
 1169SOL    HW2 4188   1.330   2.160   2.855
 1170SOL     OW 4189   1.581   3.531   2.171
 1170SOL    HW1 4190   1.671   3.564   2.165
 1170SOL    HW2 4191   1.555   3.514   2.080
 1171SOL     OW 4192   0.792   2.479   3.314
 1171SOL    HW1 4193   0.765   2.456   3.403
 1171SOL    HW2 4194   0.751   2.413   3.258
 1172SOL     OW 4195   1.395   2.337   3.538
 1172SOL    HW1 4196   1.395   2.381   3.623
 1172SOL    HW2 4197   1.458   2.266   3.548
 1173SOL     OW 4198   0.956   2.750   3.444
 1173SOL    HW1 4199   1.010   2.679   3.409
 1173SOL    HW2 4200   0.908   2.783   3.368
 1174SOL     OW 4201   0.992   2.275   3.101
 1174SOL    HW1 4202   0.907   2.297   3.139
 1174SOL    HW2 4203   0.971   2.228   3.021
 1175SOL     OW 4204   1.050   2.561   2.288
 1175SOL    HW1 4205   1.066   2.554   2.383
 1175SOL    HW2 4206   0.968   2.513   2.274
 1176SOL     OW 4207   0.072   2.649   2.674
 1176SOL    HW1 4208   0.155   2.654   2.722
 1176SOL    HW2 4209   0.061   2.736   2.636
 1177SOL     OW 4210   0.131   3.743   3.446
 1177SOL    HW1 4211   0.133   3.712   3.536
 1177SOL    HW2 4212   0.058   3.697   3.406
 1178SOL     OW 4213   0.891   2.210   2.056
 1178SOL    HW1 4214   0.932   2.271   1.995
 1178SOL    HW2 4215   0.908   2.124   2.018
 1179SOL     OW 4216   1.662   2.436   3.692
 1179SOL    HW1 4217   1.669   2.514   3.637
 1179SOL    HW2 4218   1.710   2.369   3.644
 1180SOL     OW 4219   1.376   3.004   2.403
 1180SOL    HW1 4220   1.455   2.991   2.351
 1180SOL    HW2 4221   1.324   3.066   2.353
 1181SOL     OW 4222   0.554   2.046   2.755
 1181SOL    HW1 4223   0.552   2.073   2.847
 1181SOL    HW2 4224   0.551   2.128   2.705
 1182SOL     OW 4225   1.006   3.306   2.335
 1182SOL    HW1 4226   0.968   3.379   2.285
 1182SOL    HW2 4227   0.991   3.329   2.426
 1183SOL     OW 4228   0.356   3.664   2.731
 1183SOL    HW1 4229   0.397   3.578   2.744
 1183SOL    HW2 4230   0.423   3.727   2.758
 1184SOL     OW 4231   1.798   2.919   2.730
 1184SOL    HW1 4232   1.743   2.904   2.653
 1184SOL    HW2 4233   1.736   2.926   2.802
 1185SOL     OW 4234   1.229   3.400   3.374
 1185SOL    HW1 4235   1.214   3.328   3.434
 1185SOL    HW2 4236   1.165   3.387   3.304
 1186SOL     OW 4237   0.317   2.814   2.109
 1186SOL    HW1 4238   0.398   2.838   2.065
 1186SOL    HW2 4239   0.293   2.729   2.072
 1187SOL     OW 4240   1.477   2.603   2.589
 1187SOL    HW1 4241   1.468   2.559   2.674
 1187SOL    HW2 4242   1.554   2.658   2.599
 1188SOL     OW 4243   0.464   3.125   3.599
 1188SOL    HW1 4244   0.437   3.132   3.508
 1188SOL    HW2 4245   0.382   3.126   3.649
 1189SOL     OW 4246   1.121   3.640   2.093
 1189SOL    HW1 4247   1.049   3.597   2.139
 1189SOL    HW2 4248   1.144   3.579   2.023
 1190SOL     OW 4249   0.204   2.144   3.359
 1190SOL    HW1 4250   0.125   2.195   3.344
 1190SOL    HW2 4251   0.175   2.066   3.407
 1191SOL     OW 4252   1.629   3.241   1.949
 1191SOL    HW1 4253   1.588   3.326   1.934
 1191SOL    HW2 4254   1.559   3.178   1.930
 1192SOL     OW 4255   0.471   3.597   2.182
 1192SOL    HW1 4256   0.513   3.655   2.246
 1192SOL    HW2 4257   0.543   3.568   2.126
 1193SOL     OW 4258   1.401   1.970   2.294
 1193SOL    HW1 4259   1.390   1.945   2.202
 1193SOL    HW2 4260   1.496   1.976   2.306
 1194SOL     OW 4261   0.275   3.663   3.078
 1194SOL    HW1 4262   0.307   3.586   3.126
 1194SOL    HW2 4263   0.226   3.626   3.004
 1195SOL     OW 4264   0.939   3.560   2.762
 1195SOL    HW1 4265   1.016   3.508   2.782
 1195SOL    HW2 4266   0.894   3.511   2.693
 1196SOL     OW 4267   0.386   2.558   2.341
 1196SOL    HW1 4268   0.415   2.467   2.349
 1196SOL    HW2 4269   0.292   2.555   2.362
 1197SOL     OW 4270   1.534   2.085   3.588
 1197SOL    HW1 4271   1.545   2.107   3.680
 1197SOL    HW2 4272   1.465   2.018   3.588
 1198SOL     OW 4273   0.631   1.985   1.968
 1198SOL    HW1 4274   0.704   1.924   1.979
 1198SOL    HW2 4275   0.584   1.953   1.891
 1199SOL     OW 4276   0.767   2.139   3.615
 1199SOL    HW1 4277   0.842   2.079   3.618
 1199SOL    HW2 4278   0.719   2.121   3.695
 1200SOL     OW 4279   0.877   3.383   3.055
 1200SOL    HW1 4280   0.861   3.348   2.968
 1200SOL    HW2 4281   0.946   3.329   3.092
 1201SOL     OW 4282   1.341   2.451   3.293
 1201SOL    HW1 4283   1.370   2.419   3.379
 1201SOL    HW2 4284   1.375   2.540   3.288
 1202SOL     OW 4285   0.815   3.257   2.800
 1202SOL    HW1 4286   0.899   3.247   2.756
 1202SOL    HW2 4287   0.750   3.258   2.730
 1203SOL     OW 4288   0.928   2.371   2.765
 1203SOL    HW1 4289   0.904   2.363   2.673
 1203SOL    HW2 4290   0.959   2.285   2.790
 1204SOL     OW 4291   0.559   1.923   2.359
 1204SOL    HW1 4292   0.485   1.924   2.419
 1204SOL    HW2 4293   0.549   2.003   2.307
 1205SOL     OW 4294   1.428   3.060   1.903
 1205SOL    HW1 4295   1.458   2.984   1.953
 1205SOL    HW2 4296   1.343   3.081   1.941
 1206SOL     OW 4297   0.305   1.909   2.042
 1206SOL    HW1 4298   0.367   1.973   2.007
 1206SOL    HW2 4299   0.360   1.844   2.086
 1207SOL     OW 4300   0.938   2.108   2.323
 1207SOL    HW1 4301   0.911   2.150   2.242
 1207SOL    HW2 4302   1.033   2.122   2.326
 1208SOL     OW 4303   1.079   2.542   3.321
 1208SOL    HW1 4304   1.010   2.476   3.327
 1208SOL    HW2 4305   1.160   2.491   3.315
 1209SOL     OW 4306   1.224   3.432   2.656
 1209SOL    HW1 4307   1.240   3.499   2.589
 1209SOL    HW2 4308   1.292   3.446   2.721
 1210SOL     OW 4309   0.467   3.011   2.595
 1210SOL    HW1 4310   0.397   2.992   2.658
 1210SOL    HW2 4311   0.427   2.993   2.509
 1211SOL     OW 4312   1.270   3.656   2.469
 1211SOL    HW1 4313   1.315   3.717   2.411
 1211SOL    HW2 4314   1.204   3.710   2.514
 1212SOL     OW 4315   1.024   2.405   1.884
 1212SOL    HW1 4316   0.982   2.489   1.863
 1212SOL    HW2 4317   1.089   2.427   1.950
 1213SOL     OW 4318   0.086   2.408   3.260
 1213SOL    HW1 4319   0.174   2.415   3.222
 1213SOL    HW2 4320   0.079   2.484   3.318
 1214SOL     OW 4321   0.560   2.089   3.027
 1214SOL    HW1 4322   0.598   2.009   3.064
 1214SOL    HW2 4323   0.469   2.088   3.056
 1215SOL     OW 4324   0.868   2.321   2.502
 1215SOL    HW1 4325   0.822   2.375   2.437
 1215SOL    HW2 4326   0.889   2.240   2.455
 1216SOL     OW 4327   1.015   1.915   2.614
 1216SOL    HW1 4328   0.956   1.907   2.539
 1216SOL    HW2 4329   0.994   1.839   2.669
 1217SOL     OW 4330   1.436   3.025   2.720
 1217SOL    HW1 4331   1.368   2.958   2.717
 1217SOL    HW2 4332   1.461   3.037   2.628
 1218SOL     OW 4333   1.466   2.466   2.839
 1218SOL    HW1 4334   1.416   2.384   2.844
 1218SOL    HW2 4335   1.527   2.460   2.913
 1219SOL     OW 4336   1.847   2.679   2.244
 1219SOL    HW1 4337   1.904   2.628   2.302
 1219SOL    HW2 4338   1.818   2.616   2.178
 1220SOL     OW 4339   0.492   3.278   2.021
 1220SOL    HW1 4340   0.417   3.250   2.073
 1220SOL    HW2 4341   0.473   3.246   1.933
 1221SOL     OW 4342   1.669   3.126   2.510
 1221SOL    HW1 4343   1.764   3.129   2.522
 1221SOL    HW2 4344   1.639   3.214   2.530
 1222SOL     OW 4345   1.394   2.434   1.933
 1222SOL    HW1 4346   1.333   2.415   2.005
 1222SOL    HW2 4347   1.478   2.401   1.965
 1223SOL     OW 4348   0.524   2.125   2.180
 1223SOL    HW1 4349   0.568   2.077   2.110
 1223SOL    HW2 4350   0.503   2.210   2.142
 1224SOL     OW 4351   1.059   3.216   3.195
 1224SOL    HW1 4352   0.984   3.184   3.247
 1224SOL    HW2 4353   1.135   3.175   3.236
 1225SOL     OW 4354   1.604   3.486   3.513
 1225SOL    HW1 4355   1.604   3.518   3.423
 1225SOL    HW2 4356   1.691   3.450   3.526
 1226SOL     OW 4357   1.127   3.065   2.968
 1226SOL    HW1 4358   1.068   3.103   3.033
 1226SOL    HW2 4359   1.094   3.097   2.884
 1227SOL     OW 4360   1.629   2.965   2.937
 1227SOL    HW1 4361   1.625   3.027   3.011
 1227SOL    HW2 4362   1.549   2.981   2.888
 1228SOL     OW 4363   0.918   1.959   3.260
 1228SOL    HW1 4364   0.941   1.940   3.168
 1228SOL    HW2 4365   0.997   1.999   3.296
 1229SOL     OW 4366   0.984   2.977   3.584
 1229SOL    HW1 4367   0.892   2.992   3.604
 1229SOL    HW2 4368   0.984   2.899   3.528
 1230SOL     OW 4369   0.707   2.922   2.235
 1230SOL    HW1 4370   0.696   2.907   2.328
 1230SOL    HW2 4371   0.784   2.869   2.211
 1231SOL     OW 4372   0.420   2.680   3.114
 1231SOL    HW1 4373   0.489   2.687   3.180
 1231SOL    HW2 4374   0.385   2.591   3.125
 1232SOL     OW 4375   1.266   2.239   3.136
 1232SOL    HW1 4376   1.299   2.317   3.182
 1232SOL    HW2 4377   1.176   2.262   3.113
 1233SOL     OW 4378   0.100   3.485   3.229
 1233SOL    HW1 4379   0.078   3.495   3.137
 1233SOL    HW2 4380   0.186   3.443   3.229
 1234SOL     OW 4381   0.344   2.967   2.350
 1234SOL    HW1 4382   0.354   3.046   2.297
 1234SOL    HW2 4383   0.355   2.895   2.288
 1235SOL     OW 4384   0.555   2.399   2.721
 1235SOL    HW1 4385   0.571   2.457   2.647
 1235SOL    HW2 4386   0.619   2.426   2.788
 1236SOL     OW 4387   1.248   3.210   2.251
 1236SOL    HW1 4388   1.303   3.282   2.282
 1236SOL    HW2 4389   1.161   3.231   2.285
 1237SOL     OW 4390   1.279   3.318   3.009
 1237SOL    HW1 4391   1.334   3.320   3.087
 1237SOL    HW2 4392   1.223   3.242   3.021
 1238SOL     OW 4393   1.583   2.486   2.339
 1238SOL    HW1 4394   1.536   2.539   2.404
 1238SOL    HW2 4395   1.627   2.550   2.283
 1239SOL     OW 4396   0.351   3.381   3.173
 1239SOL    HW1 4397   0.342   3.338   3.088
 1239SOL    HW2 4398   0.445   3.399   3.180
 1240SOL     OW 4399   0.413   2.605   3.464
 1240SOL    HW1 4400   0.473   2.651   3.406
 1240SOL    HW2 4401   0.454   2.519   3.477
 1241SOL     OW 4402   0.996   1.983   3.618
 1241SOL    HW1 4403   1.050   2.056   3.588
 1241SOL    HW2 4404   1.045   1.905   3.591
 1242SOL     OW 4405   0.497   1.904   3.609
 1242SOL    HW1 4406   0.456   1.850   3.542
 1242SOL    HW2 4407   0.437   1.977   3.621
 1243SOL     OW 4408   0.585   2.736   2.894
 1243SOL    HW1 4409   0.616   2.826   2.893
 1243SOL    HW2 4410   0.528   2.730   2.971
 1244SOL     OW 4411   1.359   2.721   2.893
 1244SOL    HW1 4412   1.276   2.713   2.845
 1244SOL    HW2 4413   1.398   2.634   2.889
 1245SOL     OW 4414   1.206   2.391   2.130
 1245SOL    HW1 4415   1.213   2.313   2.184
 1245SOL    HW2 4416   1.163   2.455   2.186
 1246SOL     OW 4417   0.302   2.065   3.110
 1246SOL    HW1 4418   0.267   2.091   3.195
 1246SOL    HW2 4419   0.288   1.971   3.106
 1247SOL     OW 4420   0.070   3.181   3.143
 1247SOL    HW1 4421   0.090   3.121   3.215
 1247SOL    HW2 4422   0.003   3.239   3.179
 1248SOL     OW 4423   0.725   2.494   2.921
 1248SOL    HW1 4424   0.799   2.476   2.863
 1248SOL    HW2 4425   0.697   2.583   2.899
 1249SOL     OW 4426   0.327   1.924   2.496
 1249SOL    HW1 4427   0.307   2.013   2.524
 1249SOL    HW2 4428   0.330   1.873   2.578
 1250SOL     OW 4429   1.615   2.236   2.230
 1250SOL    HW1 4430   1.642   2.172   2.296
 1250SOL    HW2 4431   1.593   2.314   2.280
 1251SOL     OW 4432   1.028   2.621   2.823
 1251SOL    HW1 4433   1.025   2.639   2.917
 1251SOL    HW2 4434   1.001   2.530   2.815
 1252SOL     OW 4435   0.982   3.428   3.578
 1252SOL    HW1 4436   0.967   3.473   3.495
 1252SOL    HW2 4437   1.025   3.346   3.554
 1253SOL     OW 4438   0.353   2.780   3.668
 1253SOL    HW1 4439   0.435   2.799   3.715
 1253SOL    HW2 4440   0.378   2.715   3.602
 1254SOL     OW 4441   1.530   2.135   1.989
 1254SOL    HW1 4442   1.465   2.070   2.016
 1254SOL    HW2 4443   1.563   2.171   2.072
 1255SOL     OW 4444   1.292   2.688   1.894
 1255SOL    HW1 4445   1.335   2.603   1.897
 1255SOL    HW2 4446   1.324   2.728   1.812
 1256SOL     OW 4447   1.066   3.197   2.715
 1256SOL    HW1 4448   1.069   3.125   2.653
 1256SOL    HW2 4449   1.127   3.262   2.681
 1257SOL     OW 4450   0.314   2.672   2.812
 1257SOL    HW1 4451   0.408   2.690   2.808
 1257SOL    HW2 4452   0.309   2.582   2.844
 1258SOL     OW 4453   0.335   2.387   2.876
 1258SOL    HW1 4454   0.300   2.299   2.862
 1258SOL    HW2 4455   0.410   2.393   2.817
 1259SOL     OW 4456   1.135   2.239   3.543
 1259SOL    HW1 4457   1.088   2.294   3.606
 1259SOL    HW2 4458   1.223   2.276   3.540
 1260SOL     OW 4459   1.160   2.066   3.332
 1260SOL    HW1 4460   1.151   2.128   3.404
 1260SOL    HW2 4461   1.200   2.116   3.261
 1261SOL     OW 4462   0.001   3.193   2.072
 1261SOL    HW1 4463   5.226   3.183   2.014
 1261SOL    HW2 4464   0.012   3.106   2.112
 1262SOL     OW 4465   0.092   3.644   2.812
 1262SOL    HW1 4466   0.059   3.573   2.757
 1262SOL    HW2 4467   0.179   3.662   2.777
 1263SOL     OW 4468   0.505   3.435   2.769
 1263SOL    HW1 4469   0.573   3.500   2.790
 1263SOL    HW2 4470   0.549   3.374   2.710
 1264SOL     OW 4471   0.985   2.655   3.089
 1264SOL    HW1 4472   1.040   2.631   3.164
 1264SOL    HW2 4473   0.899   2.618   3.110
 1265SOL     OW 4474   0.034   2.422   2.977
 1265SOL    HW1 4475   0.120   2.396   2.944
 1265SOL    HW2 4476   0.038   2.404   3.071
 1266SOL     OW 4477   0.175   2.375   3.574
 1266SOL    HW1 4478   0.242   2.340   3.515
 1266SOL    HW2 4479   0.145   2.455   3.532
 1267SOL     OW 4480   1.374   2.802   3.523
 1267SOL    HW1 4481   1.397   2.895   3.516
 1267SOL    HW2 4482   1.385   2.768   3.434
 1268SOL     OW 4483   0.816   2.431   2.220
 1268SOL    HW1 4484   0.820   2.356   2.161
 1268SOL    HW2 4485   0.742   2.483   2.189
 1269SOL     OW 4486   1.643   2.460   3.045
 1269SOL    HW1 4487   1.626   2.404   3.121
 1269SOL    HW2 4488   1.730   2.433   3.014
 1270SOL     OW 4489   0.257   3.418   3.597
 1270SOL    HW1 4490   0.233   3.481   3.666
 1270SOL    HW2 4491   0.249   3.332   3.639
 1271SOL     OW 4492   0.699   2.313   3.123
 1271SOL    HW1 4493   0.647   2.239   3.092
 1271SOL    HW2 4494   0.696   2.376   3.050
 1272SOL     OW 4495   0.930   3.541   3.329
 1272SOL    HW1 4496   0.902   3.507   3.243
 1272SOL    HW2 4497   0.925   3.636   3.320
 1273SOL     OW 4498   0.466   2.355   2.048
 1273SOL    HW1 4499   0.525   2.427   2.069
 1273SOL    HW2 4500   0.380   2.397   2.038
 1274SOL     OW 4501   0.148   3.000   3.333
 1274SOL    HW1 4502   0.147   2.950   3.415
 1274SOL    HW2 4503   0.162   2.934   3.265
 1275SOL     OW 4504   1.327   2.913   3.084
 1275SOL    HW1 4505   1.351   2.848   3.018
 1275SOL    HW2 4506   1.255   2.962   3.045
 1276SOL     OW 4507   1.311   2.718   2.168
 1276SOL    HW1 4508   1.234   2.689   2.218
 1276SOL    HW2 4509   1.286   2.705   2.077
 1277SOL     OW 4510   1.768   3.610   3.010
 1277SOL    HW1 4511   1.831   3.636   2.943
 1277SOL    HW2 4512   1.745   3.520   2.989
 1278SOL     OW 4513   1.242   3.595   2.977
 1278SOL    HW1 4514   1.323   3.615   2.931
 1278SOL    HW2 4515   1.246   3.501   2.994
 1279SOL     OW 4516   0.083   3.081   2.889
 1279SOL    HW1 4517   0.070   3.106   2.981
 1279SOL    HW2 4518   5.294   3.069   2.855
 1280SOL     OW 4519   0.678   3.527   3.590
 1280SOL    HW1 4520   0.623   3.606   3.585
 1280SOL    HW2 4521   0.741   3.538   3.518
 1281SOL     OW 4522   1.720   2.007   2.373
 1281SOL    HW1 4523   1.792   1.992   2.312
 1281SOL    HW2 4524   1.703   1.922   2.413
 1282SOL     OW 4525   1.390   3.430   2.346
 1282SOL    HW1 4526   1.451   3.461   2.279
 1282SOL    HW2 4527   1.342   3.508   2.374
 1283SOL     OW 4528   0.144   3.660   3.705
 1283SOL    HW1 4529   0.089   3.597   3.751
 1283SOL    HW2 4530   0.189   3.708   3.774
 1284SOL     OW 4531   1.277   2.787   2.533
 1284SOL    HW1 4532   1.351   2.726   2.539
 1284SOL    HW2 4533   1.311   2.860   2.481
 1285SOL     OW 4534   0.816   3.135   3.293
 1285SOL    HW1 4535   0.788   3.174   3.375
 1285SOL    HW2 4536   0.746   3.156   3.231
 1286SOL     OW 4537   0.672   3.480   2.017
 1286SOL    HW1 4538   0.682   3.492   1.923
 1286SOL    HW2 4539   0.618   3.402   2.026
 1287SOL     OW 4540   1.627   3.588   3.254
 1287SOL    HW1 4541   1.677   3.595   3.173
 1287SOL    HW2 4542   1.614   3.679   3.281
 1288SOL     OW 4543   1.853   2.047   2.822
 1288SOL    HW1 4544   1.883   1.958   2.803
 1288SOL    HW2 4545   1.766   2.052   2.784
 1289SOL     OW 4546   0.272   2.179   2.580
 1289SOL    HW1 4547   0.188   2.218   2.558
 1289SOL    HW2 4548   0.270   2.168   2.675
 1290SOL     OW 4549   1.207   3.469   1.893
 1290SOL    HW1 4550   1.198   3.377   1.920
 1290SOL    HW2 4551   1.142   3.480   1.824
 1291SOL     OW 4552   0.824   2.868   3.234
 1291SOL    HW1 4553   0.868   2.863   3.149
 1291SOL    HW2 4554   0.824   2.961   3.257
 1292SOL     OW 4555   0.915   2.772   2.152
 1292SOL    HW1 4556   0.976   2.804   2.085
 1292SOL    HW2 4557   0.963   2.703   2.197
 1293SOL     OW 4558   1.493   3.486   1.904
 1293SOL    HW1 4559   1.398   3.482   1.891
 1293SOL    HW2 4560   1.529   3.493   1.816
 1294SOL     OW 4561   0.368   3.165   3.355
 1294SOL    HW1 4562   0.359   3.240   3.296
 1294SOL    HW2 4563   0.292   3.110   3.336
 1295SOL     OW 4564   1.628   3.155   3.141
 1295SOL    HW1 4565   1.677   3.143   3.222
 1295SOL    HW2 4566   1.559   3.217   3.162
 1296SOL     OW 4567   1.050   2.968   2.568
 1296SOL    HW1 4568   0.980   2.917   2.608
 1296SOL    HW2 4569   1.113   2.903   2.536
 1297SOL     OW 4570   1.020   2.102   2.828
 1297SOL    HW1 4571   1.016   2.054   2.745
 1297SOL    HW2 4572   1.016   2.035   2.895
 1298SOL     OW 4573   0.601   3.349   2.344
 1298SOL    HW1 4574   0.645   3.301   2.274
 1298SOL    HW2 4575   0.535   3.402   2.299
 1299SOL     OW 4576   1.710   2.252   3.238
 1299SOL    HW1 4577   1.784   2.312   3.230
 1299SOL    HW2 4578   1.729   2.181   3.176
 1300SOL     OW 4579   0.260   3.210   2.154
 1300SOL    HW1 4580   0.167   3.213   2.131
 1300SOL    HW2 4581   0.264   3.247   2.242
 1301SOL     OW 4582   0.115   2.878   3.581
 1301SOL    HW1 4583   0.044   2.842   3.634
 1301SOL    HW2 4584   0.195   2.847   3.623
 1302SOL     OW 4585   0.673   2.058   3.361
 1302SOL    HW1 4586   0.757   2.039   3.319
 1302SOL    HW2 4587   0.697   2.089   3.448
 1303SOL     OW 4588   0.081   2.214   1.903
 1303SOL    HW1 4589   0.002   2.164   1.879
 1303SOL    HW2 4590   0.098   2.270   1.828
 1304SOL     OW 4591   1.429   2.722   3.261
 1304SOL    HW1 4592   1.376   2.782   3.208
 1304SOL    HW2 4593   1.516   2.727   3.223
 1305SOL     OW 4594   0.055   1.995   2.104
 1305SOL    HW1 4595   0.054   2.091   2.099
 1305SOL    HW2 4596   0.146   1.971   2.085
 1306SOL     OW 4597   1.179   3.202   1.979
 1306SOL    HW1 4598   1.088   3.173   1.982
 1306SOL    HW2 4599   1.208   3.202   2.070
 1307SOL     OW 4600   0.619   2.693   3.297
 1307SOL    HW1 4601   0.675   2.769   3.281
 1307SOL    HW2 4602   0.679   2.619   3.305
 1308SOL     OW 4603   1.485   3.637   2.840
 1308SOL    HW1 4604   1.509   3.696   2.768
 1308SOL    HW2 4605   1.567   3.619   2.885
 1309SOL     OW 4606   0.717   2.427   3.568
 1309SOL    HW1 4607   0.757   2.490   3.627
 1309SOL    HW2 4608   0.748   2.342   3.598
 1310SOL     OW 4609   1.464   3.065   3.497
 1310SOL    HW1 4610   1.446   3.075   3.591
 1310SOL    HW2 4611   1.558   3.081   3.490
 1311SOL     OW 4612   0.379   3.604   3.426
 1311SOL    HW1 4613   0.297   3.649   3.411
 1311SOL    HW2 4614   0.354   3.523   3.471
 1312SOL     OW 4615   1.659   2.743   3.106
 1312SOL    HW1 4616   1.655   2.659   3.060
 1312SOL    HW2 4617   1.656   2.809   3.036
 1313SOL     OW 4618   1.217   2.181   2.320
 1313SOL    HW1 4619   1.281   2.110   2.311
 1313SOL    HW2 4620   1.246   2.230   2.397
 1314SOL     OW 4621   0.591   2.600   2.530
 1314SOL    HW1 4622   0.630   2.686   2.515
 1314SOL    HW2 4623   0.521   2.593   2.465
 1315SOL     OW 4624   1.748   2.238   3.511
 1315SOL    HW1 4625   1.731   2.235   3.417
 1315SOL    HW2 4626   1.691   2.169   3.547
 1316SOL     OW 4627   0.863   3.229   1.895
 1316SOL    HW1 4628   0.824   3.258   1.977
 1316SOL    HW2 4629   0.881   3.311   1.848
 1317SOL     OW 4630   0.662   3.656   2.807
 1317SOL    HW1 4631   0.641   3.747   2.784
 1317SOL    HW2 4632   0.758   3.652   2.800
 1318SOL     OW 4633   0.867   2.828   2.717
 1318SOL    HW1 4634   0.917   2.757   2.757
 1318SOL    HW2 4635   0.833   2.878   2.791
 1319SOL     OW 4636   1.078   2.849   1.950
 1319SOL    HW1 4637   1.057   2.901   1.872
 1319SOL    HW2 4638   1.154   2.797   1.925
 1320SOL     OW 4639   1.855   3.418   2.705
 1320SOL    HW1 4640   1.775   3.403   2.654
 1320SOL    HW2 4641   1.851   3.353   2.775
 1321SOL     OW 4642   0.224   3.167   3.721
 1321SOL    HW1 4643   0.157   3.104   3.695
 1321SOL    HW2 4644   0.213   3.178   3.815
 1322SOL     OW 4645   0.086   3.084   2.517
 1322SOL    HW1 4646   0.098   3.051   2.606
 1322SOL    HW2 4647   0.172   3.074   2.475
 1323SOL     OW 4648   0.681   3.263   3.490
 1323SOL    HW1 4649   0.600   3.221   3.519
 1323SOL    HW2 4650   0.676   3.352   3.526
 1324SOL     OW 4651   1.758   2.039   3.080
 1324SOL    HW1 4652   1.788   1.950   3.101
 1324SOL    HW2 4653   1.791   2.056   2.992
 1325SOL     OW 4654   0.434   2.298   2.386
 1325SOL    HW1 4655   0.462   2.225   2.330
 1325SOL    HW2 4656   0.387   2.256   2.458
 1326SOL     OW 4657   1.697   3.358   2.955
 1326SOL    HW1 4658   1.618   3.329   2.910
 1326SOL    HW2 4659   1.708   3.294   3.026
 1327SOL     OW 4660   0.335   2.420   3.153
 1327SOL    HW1 4661   0.388   2.361   3.207
 1327SOL    HW2 4662   0.350   2.391   3.063
 1328SOL     OW 4663   0.827   3.439   2.541
 1328SOL    HW1 4664   0.817   3.492   2.461
 1328SOL    HW2 4665   0.750   3.383   2.543
 1329SOL     OW 4666   1.431   2.086   2.978
 1329SOL    HW1 4667   1.472   2.015   3.027
 1329SOL    HW2 4668   1.379   2.133   3.043
 1330SOL     OW 4669   1.009   1.881   3.005
 1330SOL    HW1 4670   0.954   1.813   2.966
 1330SOL    HW2 4671   1.097   1.844   3.007
 1331SOL     OW 4672   0.771   3.194   2.176
 1331SOL    HW1 4673   0.740   3.104   2.182
 1331SOL    HW2 4674   0.854   3.195   2.224
 1332SOL     OW 4675   0.622   3.419   3.149
 1332SOL    HW1 4676   0.624   3.501   3.198
 1332SOL    HW2 4677   0.709   3.413   3.109
 1333SOL     OW 4678   1.352   1.916   2.026
 1333SOL    HW1 4679   1.379   1.853   1.959
 1333SOL    HW2 4680   1.265   1.886   2.053
 1334SOL     OW 4681   1.297   2.322   2.544
 1334SOL    HW1 4682   1.244   2.401   2.551
 1334SOL    HW2 4683   1.293   2.282   2.630
 1335SOL     OW 4684   1.592   2.065   2.741
 1335SOL    HW1 4685   1.528   2.083   2.811
 1335SOL    HW2 4686   1.588   2.143   2.686
 1336SOL     OW 4687   0.047   2.931   2.153
 1336SOL    HW1 4688   0.137   2.900   2.141
 1336SOL    HW2 4689   5.300   2.855   2.186
 1337SOL     OW 4690   0.883   3.512   2.205
 1337SOL    HW1 4691   0.811   3.497   2.144
 1337SOL    HW2 4692   0.856   3.588   2.256
 1338SOL     OW 4693   0.233   2.495   3.840
 1338SOL    HW1 4694   0.158   2.463   3.890
 1338SOL    HW2 4695   0.220   2.459   3.752
 1339SOL     OW 4696   0.241   2.138   4.714
 1339SOL    HW1 4697   0.255   2.103   4.802
 1339SOL    HW2 4698   0.157   2.100   4.687
 1340SOL     OW 4699   5.299   2.259   4.376
 1340SOL    HW1 4700   5.206   2.281   4.384
 1340SOL    HW2 4701   5.299   2.168   4.346
 1341SOL     OW 4702   0.573   3.144   4.904
 1341SOL    HW1 4703   0.490   3.152   4.857
 1341SOL    HW2 4704   0.589   3.232   4.939
 1342SOL     OW 4705   1.551   3.385   4.434
 1342SOL    HW1 4706   1.510   3.361   4.517
 1342SOL    HW2 4707   1.478   3.387   4.371
 1343SOL     OW 4708   1.129   2.560   4.427
 1343SOL    HW1 4709   1.176   2.642   4.411
 1343SOL    HW2 4710   1.082   2.575   4.509
 1344SOL     OW 4711   0.757   3.004   4.762
 1344SOL    HW1 4712   0.689   3.038   4.821
 1344SOL    HW2 4713   0.791   3.082   4.718
 1345SOL     OW 4714   0.865   2.639   5.546
 1345SOL    HW1 4715   0.855   2.711   5.608
 1345SOL    HW2 4716   0.888   2.682   5.463
 1346SOL     OW 4717   0.685   2.866   4.372
 1346SOL    HW1 4718   0.751   2.853   4.441
 1346SOL    HW2 4719   0.617   2.918   4.414
 1347SOL     OW 4720   0.709   3.013   5.536
 1347SOL    HW1 4721   0.757   3.091   5.561
 1347SOL    HW2 4722   0.626   3.046   5.500
 1348SOL     OW 4723   0.358   3.268   4.784
 1348SOL    HW1 4724   0.270   3.267   4.746
 1348SOL    HW2 4725   0.406   3.330   4.730
 1349SOL     OW 4726   1.462   3.359   5.076
 1349SOL    HW1 4727   1.509   3.442   5.085
 1349SOL    HW2 4728   1.402   3.357   5.150
 1350SOL     OW 4729   0.450   2.262   5.218
 1350SOL    HW1 4730   0.524   2.202   5.219
 1350SOL    HW2 4731   0.373   2.206   5.226
 1351SOL     OW 4732   1.604   2.304   4.470
 1351SOL    HW1 4733   1.531   2.329   4.413
 1351SOL    HW2 4734   1.624   2.383   4.520
 1352SOL     OW 4735   0.230   3.576   4.202
 1352SOL    HW1 4736   0.265   3.645   4.259
 1352SOL    HW2 4737   0.291   3.573   4.128
 1353SOL     OW 4738   1.136   3.203   5.416
 1353SOL    HW1 4739   1.177   3.199   5.503
 1353SOL    HW2 4740   1.084   3.123   5.410
 1354SOL     OW 4741   0.222   3.305   4.263
 1354SOL    HW1 4742   0.214   3.400   4.261
 1354SOL    HW2 4743   0.153   3.276   4.322
 1355SOL     OW 4744   0.249   2.940   4.600
 1355SOL    HW1 4745   0.260   2.856   4.643
 1355SOL    HW2 4746   0.197   2.992   4.662
 1356SOL     OW 4747   0.615   3.652   5.157
 1356SOL    HW1 4748   0.531   3.635   5.199
 1356SOL    HW2 4749   0.635   3.743   5.179
 1357SOL     OW 4750   0.585   2.844   3.858
 1357SOL    HW1 4751   0.630   2.893   3.789
 1357SOL    HW2 4752   0.626   2.873   3.939
 1358SOL     OW 4753   1.596   1.984   5.194
 1358SOL    HW1 4754   1.598   2.063   5.141
 1358SOL    HW2 4755   1.583   2.015   5.283
 1359SOL     OW 4756   0.126   2.497   4.302
 1359SOL    HW1 4757   0.089   2.413   4.331
 1359SOL    HW2 4758   0.098   2.559   4.369
 1360SOL     OW 4759   1.828   3.632   4.059
 1360SOL    HW1 4760   1.900   3.603   4.114
 1360SOL    HW2 4761   1.851   3.721   4.033
 1361SOL     OW 4762   0.037   3.461   3.855
 1361SOL    HW1 4763   0.024   3.369   3.880
 1361SOL    HW2 4764   5.283   3.510   3.916
 1362SOL     OW 4765   1.673   2.788   4.353
 1362SOL    HW1 4766   1.748   2.748   4.309
 1362SOL    HW2 4767   1.636   2.848   4.287
 1363SOL     OW 4768   1.628   2.978   4.153
 1363SOL    HW1 4769   1.698   3.012   4.097
 1363SOL    HW2 4770   1.625   3.038   4.227
 1364SOL     OW 4771   0.130   2.610   5.310
 1364SOL    HW1 4772   0.224   2.623   5.314
 1364SOL    HW2 4773   0.092   2.697   5.324
 1365SOL     OW 4774   0.615   3.246   4.459
 1365SOL    HW1 4775   0.567   3.164   4.469
 1365SOL    HW2 4776   0.597   3.273   4.368
 1366SOL     OW 4777   1.290   3.101   5.148
 1366SOL    HW1 4778   1.319   3.032   5.089
 1366SOL    HW2 4779   1.347   3.093   5.224
 1367SOL     OW 4780   0.821   1.860   4.233
 1367SOL    HW1 4781   0.861   1.945   4.214
 1367SOL    HW2 4782   0.728   1.879   4.239
 1368SOL     OW 4783   0.179   2.810   5.001
 1368SOL    HW1 4784   0.269   2.781   4.991
 1368SOL    HW2 4785   0.135   2.781   4.922
 1369SOL     OW 4786   1.527   2.857   3.926
 1369SOL    HW1 4787   1.458   2.794   3.948
 1369SOL    HW2 4788   1.559   2.888   4.010
 1370SOL     OW 4789   1.185   3.667   5.346
 1370SOL    HW1 4790   1.197   3.726   5.271
 1370SOL    HW2 4791   1.201   3.580   5.310
 1371SOL     OW 4792   0.334   2.115   5.538
 1371SOL    HW1 4793   0.382   2.196   5.551
 1371SOL    HW2 4794   0.247   2.132   5.575
 1372SOL     OW 4795   1.467   3.282   4.678
 1372SOL    HW1 4796   1.397   3.296   4.742
 1372SOL    HW2 4797   1.455   3.191   4.650
 1373SOL     OW 4798   1.659   3.601   4.305
 1373SOL    HW1 4799   1.642   3.571   4.216
 1373SOL    HW2 4800   1.630   3.529   4.360
 1374SOL     OW 4801   0.596   2.584   3.989
 1374SOL    HW1 4802   0.604   2.664   3.937
 1374SOL    HW2 4803   0.531   2.605   4.056
 1375SOL     OW 4804   1.279   2.215   4.658
 1375SOL    HW1 4805   1.190   2.180   4.665
 1375SOL    HW2 4806   1.331   2.160   4.716
 1376SOL     OW 4807   1.577   3.528   4.033
 1376SOL    HW1 4808   1.664   3.567   4.028
 1376SOL    HW2 4809   1.553   3.513   3.941
 1377SOL     OW 4810   0.793   2.479   5.176
 1377SOL    HW1 4811   0.765   2.456   5.265
 1377SOL    HW2 4812   0.752   2.413   5.120
 1378SOL     OW 4813   1.394   2.336   5.402
 1378SOL    HW1 4814   1.395   2.380   5.487
 1378SOL    HW2 4815   1.455   2.263   5.411
 1379SOL     OW 4816   0.956   2.750   5.306
 1379SOL    HW1 4817   1.010   2.679   5.271
 1379SOL    HW2 4818   0.908   2.783   5.230
 1380SOL     OW 4819   0.992   2.275   4.963
 1380SOL    HW1 4820   0.907   2.297   5.001
 1380SOL    HW2 4821   0.971   2.228   4.882
 1381SOL     OW 4822   1.050   2.561   4.151
 1381SOL    HW1 4823   1.065   2.553   4.245
 1381SOL    HW2 4824   0.968   2.514   4.136
 1382SOL     OW 4825   0.072   2.649   4.536
 1382SOL    HW1 4826   0.155   2.654   4.584
 1382SOL    HW2 4827   0.061   2.735   4.497
 1383SOL     OW 4828   0.131   3.743   5.308
 1383SOL    HW1 4829   0.133   3.712   5.398
 1383SOL    HW2 4830   0.058   3.697   5.268
 1384SOL     OW 4831   0.891   2.210   3.918
 1384SOL    HW1 4832   0.932   2.272   3.858
 1384SOL    HW2 4833   0.909   2.124   3.880
 1385SOL     OW 4834   1.710   2.438   5.552
 1385SOL    HW1 4835   1.672   2.512   5.505
 1385SOL    HW2 4836   1.735   2.377   5.483
 1386SOL     OW 4837   1.368   3.003   4.263
 1386SOL    HW1 4838   1.448   2.992   4.211
 1386SOL    HW2 4839   1.317   3.068   4.215
 1387SOL     OW 4840   0.554   2.046   4.617
 1387SOL    HW1 4841   0.552   2.073   4.709
 1387SOL    HW2 4842   0.551   2.127   4.567
 1388SOL     OW 4843   1.007   3.306   4.197
 1388SOL    HW1 4844   0.968   3.379   4.147
 1388SOL    HW2 4845   0.990   3.329   4.288
 1389SOL     OW 4846   0.356   3.664   4.593
 1389SOL    HW1 4847   0.397   3.578   4.606
 1389SOL    HW2 4848   0.423   3.727   4.620
 1390SOL     OW 4849   1.749   2.989   4.572
 1390SOL    HW1 4850   1.699   2.928   4.517
 1390SOL    HW2 4851   1.724   2.966   4.662
 1391SOL     OW 4852   1.229   3.401   5.236
 1391SOL    HW1 4853   1.214   3.328   5.297
 1391SOL    HW2 4854   1.165   3.387   5.166
 1392SOL     OW 4855   0.317   2.814   3.971
 1392SOL    HW1 4856   0.398   2.838   3.927
 1392SOL    HW2 4857   0.293   2.729   3.934
 1393SOL     OW 4858   1.457   2.604   4.440
 1393SOL    HW1 4859   1.446   2.556   4.522
 1393SOL    HW2 4860   1.533   2.660   4.454
 1394SOL     OW 4861   0.464   3.125   5.461
 1394SOL    HW1 4862   0.437   3.131   5.370
 1394SOL    HW2 4863   0.382   3.126   5.511
 1395SOL     OW 4864   1.121   3.639   3.955
 1395SOL    HW1 4865   1.049   3.597   4.001
 1395SOL    HW2 4866   1.144   3.579   3.885
 1396SOL     OW 4867   0.204   2.144   5.221
 1396SOL    HW1 4868   0.125   2.195   5.206
 1396SOL    HW2 4869   0.174   2.066   5.269
 1397SOL     OW 4870   1.631   3.240   3.809
 1397SOL    HW1 4871   1.591   3.326   3.797
 1397SOL    HW2 4872   1.560   3.178   3.793
 1398SOL     OW 4873   0.471   3.597   4.044
 1398SOL    HW1 4874   0.513   3.655   4.108
 1398SOL    HW2 4875   0.543   3.567   3.988
 1399SOL     OW 4876   1.400   1.967   4.157
 1399SOL    HW1 4877   1.390   1.944   4.064
 1399SOL    HW2 4878   1.494   1.985   4.167
 1400SOL     OW 4879   0.275   3.663   4.940
 1400SOL    HW1 4880   0.307   3.586   4.988
 1400SOL    HW2 4881   0.226   3.626   4.866
 1401SOL     OW 4882   0.939   3.560   4.624
 1401SOL    HW1 4883   1.016   3.508   4.644
 1401SOL    HW2 4884   0.894   3.511   4.555
 1402SOL     OW 4885   0.386   2.558   4.203
 1402SOL    HW1 4886   0.415   2.468   4.211
 1402SOL    HW2 4887   0.292   2.555   4.224
 1403SOL     OW 4888   1.536   2.088   5.449
 1403SOL    HW1 4889   1.545   2.109   5.542
 1403SOL    HW2 4890   1.468   2.021   5.446
 1404SOL     OW 4891   0.631   1.985   3.831
 1404SOL    HW1 4892   0.705   1.925   3.841
 1404SOL    HW2 4893   0.584   1.953   3.753
 1405SOL     OW 4894   0.768   2.140   5.477
 1405SOL    HW1 4895   0.842   2.079   5.481
 1405SOL    HW2 4896   0.718   2.121   5.557
 1406SOL     OW 4897   0.877   3.383   4.917
 1406SOL    HW1 4898   0.861   3.347   4.830
 1406SOL    HW2 4899   0.947   3.329   4.954
 1407SOL     OW 4900   1.342   2.450   5.156
 1407SOL    HW1 4901   1.372   2.419   5.241
 1407SOL    HW2 4902   1.374   2.540   5.150
 1408SOL     OW 4903   0.815   3.257   4.662
 1408SOL    HW1 4904   0.899   3.247   4.618
 1408SOL    HW2 4905   0.750   3.258   4.592
 1409SOL     OW 4906   0.928   2.371   4.627
 1409SOL    HW1 4907   0.904   2.363   4.535
 1409SOL    HW2 4908   0.959   2.285   4.652
 1410SOL     OW 4909   0.559   1.923   4.221
 1410SOL    HW1 4910   0.485   1.924   4.281
 1410SOL    HW2 4911   0.549   2.003   4.169
 1411SOL     OW 4912   1.429   3.060   3.767
 1411SOL    HW1 4913   1.459   2.983   3.814
 1411SOL    HW2 4914   1.343   3.079   3.803
 1412SOL     OW 4915   0.305   1.909   3.904
 1412SOL    HW1 4916   0.367   1.972   3.868
 1412SOL    HW2 4917   0.360   1.844   3.948
 1413SOL     OW 4918   0.939   2.108   4.185
 1413SOL    HW1 4919   0.911   2.150   4.104
 1413SOL    HW2 4920   1.033   2.122   4.189
 1414SOL     OW 4921   1.080   2.542   5.184
 1414SOL    HW1 4922   1.010   2.477   5.188
 1414SOL    HW2 4923   1.160   2.490   5.176
 1415SOL     OW 4924   1.225   3.431   4.517
 1415SOL    HW1 4925   1.240   3.499   4.452
 1415SOL    HW2 4926   1.291   3.447   4.584
 1416SOL     OW 4927   0.467   3.011   4.457
 1416SOL    HW1 4928   0.397   2.992   4.520
 1416SOL    HW2 4929   0.427   2.993   4.371
 1417SOL     OW 4930   1.270   3.656   4.332
 1417SOL    HW1 4931   1.315   3.717   4.273
 1417SOL    HW2 4932   1.204   3.710   4.376
 1418SOL     OW 4933   1.024   2.404   3.747
 1418SOL    HW1 4934   0.983   2.489   3.726
 1418SOL    HW2 4935   1.091   2.425   3.811
 1419SOL     OW 4936   0.086   2.408   5.122
 1419SOL    HW1 4937   0.174   2.415   5.084
 1419SOL    HW2 4938   0.079   2.484   5.180
 1420SOL     OW 4939   0.561   2.089   4.890
 1420SOL    HW1 4940   0.598   2.009   4.925
 1420SOL    HW2 4941   0.469   2.088   4.918
 1421SOL     OW 4942   0.868   2.321   4.364
 1421SOL    HW1 4943   0.823   2.375   4.299
 1421SOL    HW2 4944   0.889   2.240   4.317
 1422SOL     OW 4945   1.014   1.915   4.477
 1422SOL    HW1 4946   0.957   1.907   4.401
 1422SOL    HW2 4947   0.993   1.839   4.531
 1423SOL     OW 4948   1.434   3.026   4.584
 1423SOL    HW1 4949   1.365   2.960   4.577
 1423SOL    HW2 4950   1.461   3.041   4.493
 1424SOL     OW 4951   1.459   2.462   4.708
 1424SOL    HW1 4952   1.411   2.379   4.707
 1424SOL    HW2 4953   1.521   2.453   4.781
 1425SOL     OW 4954   1.802   2.626   4.122
 1425SOL    HW1 4955   1.886   2.592   4.153
 1425SOL    HW2 4956   1.810   2.625   4.027
 1426SOL     OW 4957   0.492   3.278   3.883
 1426SOL    HW1 4958   0.417   3.250   3.935
 1426SOL    HW2 4959   0.474   3.246   3.795
 1427SOL     OW 4960   1.634   3.143   4.354
 1427SOL    HW1 4961   1.728   3.141   4.371
 1427SOL    HW2 4962   1.606   3.229   4.383
 1428SOL     OW 4963   1.388   2.436   3.792
 1428SOL    HW1 4964   1.339   2.411   3.870
 1428SOL    HW2 4965   1.478   2.410   3.812
 1429SOL     OW 4966   0.524   2.125   4.043
 1429SOL    HW1 4967   0.568   2.077   3.973
 1429SOL    HW2 4968   0.503   2.210   4.004
 1430SOL     OW 4969   1.754   3.100   5.292
 1430SOL    HW1 4970   1.842   3.065   5.282
 1430SOL    HW2 4971   1.768   3.189   5.325
 1431SOL     OW 4972   1.059   3.215   5.057
 1431SOL    HW1 4973   0.984   3.184   5.109
 1431SOL    HW2 4974   1.135   3.174   5.099
 1432SOL     OW 4975   1.607   3.487   5.376
 1432SOL    HW1 4976   1.602   3.521   5.287
 1432SOL    HW2 4977   1.690   3.440   5.379
 1433SOL     OW 4978   1.127   3.064   4.830
 1433SOL    HW1 4979   1.068   3.103   4.895
 1433SOL    HW2 4980   1.094   3.096   4.746
 1434SOL     OW 4981   1.619   2.955   4.814
 1434SOL    HW1 4982   1.624   3.024   4.880
 1434SOL    HW2 4983   1.545   2.979   4.759
 1435SOL     OW 4984   0.919   1.959   5.122
 1435SOL    HW1 4985   0.940   1.940   5.031
 1435SOL    HW2 4986   0.998   1.999   5.158
 1436SOL     OW 4987   0.984   2.976   5.446
 1436SOL    HW1 4988   0.892   2.993   5.466
 1436SOL    HW2 4989   0.983   2.899   5.390
 1437SOL     OW 4990   0.707   2.922   4.097
 1437SOL    HW1 4991   0.696   2.907   4.190
 1437SOL    HW2 4992   0.784   2.869   4.073
 1438SOL     OW 4993   0.420   2.680   4.976
 1438SOL    HW1 4994   0.489   2.687   5.042
 1438SOL    HW2 4995   0.385   2.591   4.987
 1439SOL     OW 4996   1.266   2.239   4.999
 1439SOL    HW1 4997   1.298   2.316   5.045
 1439SOL    HW2 4998   1.176   2.261   4.975
 1440SOL     OW 4999   0.100   3.485   5.091
 1440SOL    HW1 5000   0.078   3.495   4.999
 1440SOL    HW2 5001   0.186   3.443   5.091
 1441SOL     OW 5002   0.344   2.967   4.212
 1441SOL    HW1 5003   0.354   3.046   4.159
 1441SOL    HW2 5004   0.355   2.895   4.150
 1442SOL     OW 5005   0.555   2.399   4.583
 1442SOL    HW1 5006   0.571   2.457   4.509
 1442SOL    HW2 5007   0.619   2.426   4.650
 1443SOL     OW 5008   1.248   3.211   4.113
 1443SOL    HW1 5009   1.303   3.282   4.144
 1443SOL    HW2 5010   1.160   3.232   4.146
 1444SOL     OW 5011   1.279   3.318   4.870
 1444SOL    HW1 5012   1.334   3.321   4.949
 1444SOL    HW2 5013   1.223   3.242   4.883
 1445SOL     OW 5014   1.579   2.482   4.201
 1445SOL    HW1 5015   1.523   2.537   4.255
 1445SOL    HW2 5016   1.646   2.542   4.167
 1446SOL     OW 5017   0.351   3.381   5.035
 1446SOL    HW1 5018   0.342   3.338   4.950
 1446SOL    HW2 5019   0.445   3.399   5.042
 1447SOL     OW 5020   0.413   2.605   5.326
 1447SOL    HW1 5021   0.473   2.651   5.268
 1447SOL    HW2 5022   0.453   2.519   5.339
 1448SOL     OW 5023   1.601   2.640   5.405
 1448SOL    HW1 5024   1.515   2.682   5.397
 1448SOL    HW2 5025   1.653   2.682   5.336
 1449SOL     OW 5026   0.996   1.983   5.480
 1449SOL    HW1 5027   1.050   2.056   5.450
 1449SOL    HW2 5028   1.045   1.905   5.454
 1450SOL     OW 5029   0.498   1.904   5.471
 1450SOL    HW1 5030   0.456   1.850   5.404
 1450SOL    HW2 5031   0.437   1.978   5.483
 1451SOL     OW 5032   0.585   2.735   4.756
 1451SOL    HW1 5033   0.615   2.826   4.755
 1451SOL    HW2 5034   0.528   2.730   4.833
 1452SOL     OW 5035   1.360   2.720   4.754
 1452SOL    HW1 5036   1.275   2.714   4.709
 1452SOL    HW2 5037   1.394   2.631   4.751
 1453SOL     OW 5038   1.205   2.389   3.993
 1453SOL    HW1 5039   1.213   2.311   4.048
 1453SOL    HW2 5040   1.163   2.454   4.050
 1454SOL     OW 5041   0.302   2.065   4.972
 1454SOL    HW1 5042   0.267   2.091   5.058
 1454SOL    HW2 5043   0.289   1.971   4.968
 1455SOL     OW 5044   0.070   3.181   5.005
 1455SOL    HW1 5045   0.090   3.121   5.077
 1455SOL    HW2 5046   0.003   3.239   5.041
 1456SOL     OW 5047   0.725   2.494   4.783
 1456SOL    HW1 5048   0.799   2.477   4.724
 1456SOL    HW2 5049   0.697   2.583   4.761
 1457SOL     OW 5050   1.733   2.822   5.575
 1457SOL    HW1 5051   1.687   2.761   5.518
 1457SOL    HW2 5052   1.674   2.835   5.650
 1458SOL     OW 5053   0.327   1.924   4.358
 1458SOL    HW1 5054   0.307   2.013   4.386
 1458SOL    HW2 5055   0.330   1.873   4.440
 1459SOL     OW 5056   1.600   2.226   4.096
 1459SOL    HW1 5057   1.641   2.175   4.166
 1459SOL    HW2 5058   1.589   2.314   4.133
 1460SOL     OW 5059   1.028   2.621   4.686
 1460SOL    HW1 5060   1.025   2.639   4.780
 1460SOL    HW2 5061   1.001   2.530   4.678
 1461SOL     OW 5062   0.982   3.428   5.440
 1461SOL    HW1 5063   0.967   3.472   5.357
 1461SOL    HW2 5064   1.025   3.346   5.416
 1462SOL     OW 5065   1.854   3.368   5.330
 1462SOL    HW1 5066   1.871   3.390   5.238
 1462SOL    HW2 5067   1.935   3.390   5.375
 1463SOL     OW 5068   0.353   2.780   5.530
 1463SOL    HW1 5069   0.435   2.799   5.577
 1463SOL    HW2 5070   0.378   2.715   5.464
 1464SOL     OW 5071   1.529   2.132   3.851
 1464SOL    HW1 5072   1.463   2.068   3.878
 1464SOL    HW2 5073   1.559   2.172   3.933
 1465SOL     OW 5074   1.294   2.690   3.757
 1465SOL    HW1 5075   1.332   2.602   3.760
 1465SOL    HW2 5076   1.325   2.728   3.675
 1466SOL     OW 5077   1.066   3.197   4.578
 1466SOL    HW1 5078   1.068   3.125   4.515
 1466SOL    HW2 5079   1.128   3.261   4.543
 1467SOL     OW 5080   0.314   2.672   4.674
 1467SOL    HW1 5081   0.408   2.690   4.670
 1467SOL    HW2 5082   0.309   2.582   4.706
 1468SOL     OW 5083   0.335   2.387   4.738
 1468SOL    HW1 5084   0.300   2.299   4.724
 1468SOL    HW2 5085   0.410   2.393   4.679
 1469SOL     OW 5086   1.134   2.239   5.405
 1469SOL    HW1 5087   1.087   2.294   5.468
 1469SOL    HW2 5088   1.222   2.277   5.401
 1470SOL     OW 5089   1.161   2.065   5.194
 1470SOL    HW1 5090   1.150   2.128   5.266
 1470SOL    HW2 5091   1.199   2.116   5.123
 1471SOL     OW 5092   0.001   3.193   3.934
 1471SOL    HW1 5093   5.226   3.183   3.876
 1471SOL    HW2 5094   0.012   3.106   3.974
 1472SOL     OW 5095   0.092   3.644   4.674
 1472SOL    HW1 5096   0.059   3.573   4.619
 1472SOL    HW2 5097   0.179   3.662   4.639
 1473SOL     OW 5098   0.505   3.435   4.631
 1473SOL    HW1 5099   0.573   3.500   4.652
 1473SOL    HW2 5100   0.549   3.374   4.572
 1474SOL     OW 5101   0.985   2.655   4.951
 1474SOL    HW1 5102   1.039   2.631   5.026
 1474SOL    HW2 5103   0.899   2.618   4.971
 1475SOL     OW 5104   0.034   2.422   4.839
 1475SOL    HW1 5105   0.120   2.396   4.806
 1475SOL    HW2 5106   0.038   2.404   4.933
 1476SOL     OW 5107   0.175   2.375   5.436
 1476SOL    HW1 5108   0.242   2.340   5.376
 1476SOL    HW2 5109   0.145   2.455   5.394
 1477SOL     OW 5110   1.377   2.802   5.385
 1477SOL    HW1 5111   1.398   2.896   5.383
 1477SOL    HW2 5112   1.372   2.776   5.293
 1478SOL     OW 5113   0.816   2.430   4.083
 1478SOL    HW1 5114   0.820   2.356   4.023
 1478SOL    HW2 5115   0.742   2.482   4.051
 1479SOL     OW 5116   1.648   2.459   4.915
 1479SOL    HW1 5117   1.630   2.404   4.991
 1479SOL    HW2 5118   1.739   2.441   4.892
 1480SOL     OW 5119   0.257   3.418   5.459
 1480SOL    HW1 5120   0.233   3.481   5.528
 1480SOL    HW2 5121   0.249   3.332   5.501
 1481SOL     OW 5122   0.699   2.313   4.985
 1481SOL    HW1 5123   0.647   2.239   4.955
 1481SOL    HW2 5124   0.696   2.376   4.913
 1482SOL     OW 5125   0.930   3.541   5.191
 1482SOL    HW1 5126   0.902   3.508   5.105
 1482SOL    HW2 5127   0.925   3.636   5.182
 1483SOL     OW 5128   0.465   2.355   3.910
 1483SOL    HW1 5129   0.525   2.427   3.931
 1483SOL    HW2 5130   0.380   2.397   3.900
 1484SOL     OW 5131   0.148   3.000   5.195
 1484SOL    HW1 5132   0.147   2.950   5.277
 1484SOL    HW2 5133   0.161   2.934   5.127
 1485SOL     OW 5134   1.325   2.910   4.949
 1485SOL    HW1 5135   1.353   2.849   4.881
 1485SOL    HW2 5136   1.254   2.960   4.908
 1486SOL     OW 5137   1.307   2.718   4.032
 1486SOL    HW1 5138   1.231   2.686   4.080
 1486SOL    HW2 5139   1.286   2.704   3.940
 1487SOL     OW 5140   1.770   3.606   4.874
 1487SOL    HW1 5141   1.830   3.634   4.804
 1487SOL    HW2 5142   1.747   3.516   4.851
 1488SOL     OW 5143   1.241   3.595   4.838
 1488SOL    HW1 5144   1.323   3.615   4.793
 1488SOL    HW2 5145   1.246   3.501   4.856
 1489SOL     OW 5146   0.083   3.081   4.751
 1489SOL    HW1 5147   0.070   3.106   4.843
 1489SOL    HW2 5148   5.294   3.069   4.717
 1490SOL     OW 5149   0.678   3.527   5.452
 1490SOL    HW1 5150   0.623   3.606   5.447
 1490SOL    HW2 5151   0.741   3.538   5.381
 1491SOL     OW 5152   1.712   1.989   4.234
 1491SOL    HW1 5153   1.784   1.973   4.173
 1491SOL    HW2 5154   1.695   1.904   4.274
 1492SOL     OW 5155   1.388   3.430   4.208
 1492SOL    HW1 5156   1.450   3.461   4.142
 1492SOL    HW2 5157   1.341   3.508   4.235
 1493SOL     OW 5158   0.144   3.660   5.567
 1493SOL    HW1 5159   0.089   3.597   5.613
 1493SOL    HW2 5160   0.189   3.708   5.636
 1494SOL     OW 5161   1.268   2.792   4.394
 1494SOL    HW1 5162   1.339   2.728   4.397
 1494SOL    HW2 5163   1.303   2.864   4.341
 1495SOL     OW 5164   0.816   3.135   5.155
 1495SOL    HW1 5165   0.788   3.174   5.237
 1495SOL    HW2 5166   0.746   3.156   5.093
 1496SOL     OW 5167   0.673   3.480   3.879
 1496SOL    HW1 5168   0.682   3.493   3.785
 1496SOL    HW2 5169   0.618   3.402   3.888
 1497SOL     OW 5170   1.626   3.588   5.115
 1497SOL    HW1 5171   1.677   3.596   5.034
 1497SOL    HW2 5172   1.613   3.679   5.143
 1498SOL     OW 5173   0.272   2.179   4.442
 1498SOL    HW1 5174   0.188   2.218   4.420
 1498SOL    HW2 5175   0.270   2.168   4.537
 1499SOL     OW 5176   1.207   3.469   3.755
 1499SOL    HW1 5177   1.197   3.377   3.782
 1499SOL    HW2 5178   1.142   3.480   3.686
 1500SOL     OW 5179   0.824   2.868   5.096
 1500SOL    HW1 5180   0.867   2.864   5.011
 1500SOL    HW2 5181   0.824   2.961   5.119
 1501SOL     OW 5182   0.915   2.773   4.013
 1501SOL    HW1 5183   0.976   2.804   3.947
 1501SOL    HW2 5184   0.963   2.703   4.059
 1502SOL     OW 5185   1.492   3.484   3.766
 1502SOL    HW1 5186   1.396   3.480   3.756
 1502SOL    HW2 5187   1.525   3.492   3.676
 1503SOL     OW 5188   0.368   3.165   5.217
 1503SOL    HW1 5189   0.359   3.240   5.158
 1503SOL    HW2 5190   0.292   3.110   5.198
 1504SOL     OW 5191   1.633   3.156   5.011
 1504SOL    HW1 5192   1.674   3.136   5.095
 1504SOL    HW2 5193   1.564   3.218   5.032
 1505SOL     OW 5194   1.049   2.969   4.429
 1505SOL    HW1 5195   0.979   2.917   4.469
 1505SOL    HW2 5196   1.112   2.905   4.399
 1506SOL     OW 5197   1.021   2.102   4.690
 1506SOL    HW1 5198   1.016   2.055   4.607
 1506SOL    HW2 5199   1.015   2.034   4.757
 1507SOL     OW 5200   0.601   3.349   4.206
 1507SOL    HW1 5201   0.645   3.301   4.136
 1507SOL    HW2 5202   0.535   3.402   4.160
 1508SOL     OW 5203   1.720   2.251   5.104
 1508SOL    HW1 5204   1.793   2.313   5.102
 1508SOL    HW2 5205   1.748   2.178   5.049
 1509SOL     OW 5206   0.260   3.210   4.016
 1509SOL    HW1 5207   0.167   3.213   3.993
 1509SOL    HW2 5208   0.264   3.247   4.104
 1510SOL     OW 5209   0.115   2.878   5.443
 1510SOL    HW1 5210   0.044   2.842   5.496
 1510SOL    HW2 5211   0.195   2.847   5.485
 1511SOL     OW 5212   0.674   2.058   5.223
 1511SOL    HW1 5213   0.757   2.039   5.181
 1511SOL    HW2 5214   0.697   2.089   5.310
 1512SOL     OW 5215   0.080   2.214   3.766
 1512SOL    HW1 5216   0.002   2.164   3.741
 1512SOL    HW2 5217   0.098   2.270   3.690
 1513SOL     OW 5218   1.420   2.720   5.129
 1513SOL    HW1 5219   1.370   2.780   5.073
 1513SOL    HW2 5220   1.509   2.722   5.093
 1514SOL     OW 5221   0.055   1.995   3.966
 1514SOL    HW1 5222   0.054   2.091   3.961
 1514SOL    HW2 5223   0.146   1.971   3.947
 1515SOL     OW 5224   1.179   3.202   3.840
 1515SOL    HW1 5225   1.088   3.172   3.843
 1515SOL    HW2 5226   1.207   3.202   3.932
 1516SOL     OW 5227   0.619   2.693   5.159
 1516SOL    HW1 5228   0.675   2.769   5.143
 1516SOL    HW2 5229   0.680   2.619   5.167
 1517SOL     OW 5230   1.484   3.637   4.702
 1517SOL    HW1 5231   1.507   3.695   4.629
 1517SOL    HW2 5232   1.567   3.622   4.747
 1518SOL     OW 5233   0.717   2.427   5.429
 1518SOL    HW1 5234   0.757   2.490   5.489
 1518SOL    HW2 5235   0.748   2.341   5.460
 1519SOL     OW 5236   1.471   3.063   5.356
 1519SOL    HW1 5237   1.458   3.077   5.450
 1519SOL    HW2 5238   1.565   3.077   5.343
 1520SOL     OW 5239   0.379   3.604   5.288
 1520SOL    HW1 5240   0.296   3.649   5.273
 1520SOL    HW2 5241   0.354   3.523   5.333
 1521SOL     OW 5242   1.649   2.743   4.988
 1521SOL    HW1 5243   1.651   2.659   4.941
 1521SOL    HW2 5244   1.647   2.809   4.918
 1522SOL     OW 5245   1.217   2.180   4.183
 1522SOL    HW1 5246   1.281   2.110   4.173
 1522SOL    HW2 5247   1.247   2.230   4.259
 1523SOL     OW 5248   0.591   2.600   4.392
 1523SOL    HW1 5249   0.630   2.686   4.376
 1523SOL    HW2 5250   0.521   2.593   4.327
 1524SOL     OW 5251   1.764   2.223   5.374
 1524SOL    HW1 5252   1.745   2.238   5.281
 1524SOL    HW2 5253   1.692   2.167   5.403
 1525SOL     OW 5254   1.747   2.796   5.236
 1525SOL    HW1 5255   1.743   2.890   5.251
 1525SOL    HW2 5256   1.721   2.785   5.145
 1526SOL     OW 5257   0.863   3.230   3.757
 1526SOL    HW1 5258   0.824   3.258   3.839
 1526SOL    HW2 5259   0.881   3.311   3.710
 1527SOL     OW 5260   0.662   3.656   4.669
 1527SOL    HW1 5261   0.641   3.747   4.646
 1527SOL    HW2 5262   0.758   3.652   4.662
 1528SOL     OW 5263   0.867   2.827   4.579
 1528SOL    HW1 5264   0.917   2.757   4.619
 1528SOL    HW2 5265   0.833   2.878   4.653
 1529SOL     OW 5266   1.079   2.849   3.812
 1529SOL    HW1 5267   1.058   2.900   3.733
 1529SOL    HW2 5268   1.155   2.797   3.787
 1530SOL     OW 5269   1.856   3.419   4.575
 1530SOL    HW1 5270   1.798   3.404   4.500
 1530SOL    HW2 5271   1.823   3.361   4.643
 1531SOL     OW 5272   0.224   3.167   5.583
 1531SOL    HW1 5273   0.157   3.104   5.557
 1531SOL    HW2 5274   0.213   3.178   5.677
 1532SOL     OW 5275   0.086   3.084   4.379
 1532SOL    HW1 5276   0.099   3.051   4.468
 1532SOL    HW2 5277   0.172   3.073   4.337
 1533SOL     OW 5278   0.681   3.263   5.352
 1533SOL    HW1 5279   0.600   3.221   5.381
 1533SOL    HW2 5280   0.676   3.352   5.388
 1534SOL     OW 5281   1.803   2.039   4.961
 1534SOL    HW1 5282   1.825   1.949   4.986
 1534SOL    HW2 5283   1.817   2.042   4.867
 1535SOL     OW 5284   0.434   2.298   4.248
 1535SOL    HW1 5285   0.462   2.225   4.192
 1535SOL    HW2 5286   0.387   2.256   4.320
 1536SOL     OW 5287   1.703   3.349   4.816
 1536SOL    HW1 5288   1.622   3.329   4.770
 1536SOL    HW2 5289   1.705   3.288   4.889
 1537SOL     OW 5290   0.335   2.420   5.015
 1537SOL    HW1 5291   0.388   2.361   5.068
 1537SOL    HW2 5292   0.350   2.391   4.925
 1538SOL     OW 5293   0.827   3.439   4.402
 1538SOL    HW1 5294   0.817   3.492   4.323
 1538SOL    HW2 5295   0.750   3.383   4.405
 1539SOL     OW 5296   1.433   2.088   4.843
 1539SOL    HW1 5297   1.457   2.007   4.888
 1539SOL    HW2 5298   1.379   2.136   4.906
 1540SOL     OW 5299   1.009   1.881   4.868
 1540SOL    HW1 5300   0.954   1.813   4.827
 1540SOL    HW2 5301   1.097   1.843   4.870
 1541SOL     OW 5302   0.771   3.194   4.038
 1541SOL    HW1 5303   0.740   3.104   4.044
 1541SOL    HW2 5304   0.854   3.195   4.086
 1542SOL     OW 5305   0.622   3.419   5.011
 1542SOL    HW1 5306   0.624   3.501   5.060
 1542SOL    HW2 5307   0.709   3.413   4.971
 1543SOL     OW 5308   1.351   1.915   3.890
 1543SOL    HW1 5309   1.378   1.855   3.820
 1543SOL    HW2 5310   1.264   1.884   3.916
 1544SOL     OW 5311   1.296   2.324   4.406
 1544SOL    HW1 5312   1.241   2.401   4.414
 1544SOL    HW2 5313   1.293   2.283   4.493
 1545SOL     OW 5314   1.594   2.058   4.609
 1545SOL    HW1 5315   1.533   2.082   4.679
 1545SOL    HW2 5316   1.599   2.136   4.554
 1546SOL     OW 5317   0.047   2.931   4.015
 1546SOL    HW1 5318   0.137   2.900   4.003
 1546SOL    HW2 5319   5.300   2.855   4.048
 1547SOL     OW 5320   0.884   3.513   4.067
 1547SOL    HW1 5321   0.811   3.497   4.006
 1547SOL    HW2 5322   0.856   3.588   4.118
 1548SOL     OW 5323   0.233   2.495   5.701
 1548SOL    HW1 5324   0.158   2.463   5.752
 1548SOL    HW2 5325   0.220   2.459   5.614
 1549SOL     OW 5326   0.241   2.138   6.576
 1549SOL    HW1 5327   0.255   2.103   6.664
 1549SOL    HW2 5328   0.157   2.100   6.549
 1550SOL     OW 5329   5.299   2.259   6.238
 1550SOL    HW1 5330   5.206   2.281   6.246
 1550SOL    HW2 5331   5.299   2.168   6.208
 1551SOL     OW 5332   0.573   3.144   6.766
 1551SOL    HW1 5333   0.490   3.153   6.719
 1551SOL    HW2 5334   0.589   3.232   6.801
 1552SOL     OW 5335   1.560   3.373   6.292
 1552SOL    HW1 5336   1.517   3.355   6.376
 1552SOL    HW2 5337   1.488   3.378   6.229
 1553SOL     OW 5338   1.130   2.560   6.288
 1553SOL    HW1 5339   1.179   2.641   6.274
 1553SOL    HW2 5340   1.083   2.575   6.370
 1554SOL     OW 5341   1.767   2.468   5.815
 1554SOL    HW1 5342   1.746   2.460   5.722
 1554SOL    HW2 5343   1.731   2.389   5.855
 1555SOL     OW 5344   0.757   3.004   6.624
 1555SOL    HW1 5345   0.689   3.038   6.683
 1555SOL    HW2 5346   0.791   3.082   6.580
 1556SOL     OW 5347   0.864   2.641   7.406
 1556SOL    HW1 5348   0.853   2.716   7.465
 1556SOL    HW2 5349   0.889   2.679   7.322
 1557SOL     OW 5350   0.685   2.866   6.234
 1557SOL    HW1 5351   0.751   2.853   6.303
 1557SOL    HW2 5352   0.617   2.918   6.276
 1558SOL     OW 5353   0.708   3.013   7.398
 1558SOL    HW1 5354   0.757   3.092   7.423
 1558SOL    HW2 5355   0.626   3.047   7.362
 1559SOL     OW 5356   0.358   3.268   6.646
 1559SOL    HW1 5357   0.270   3.267   6.608
 1559SOL    HW2 5358   0.406   3.330   6.592
 1560SOL     OW 5359   1.461   3.361   6.939
 1560SOL    HW1 5360   1.510   3.443   6.948
 1560SOL    HW2 5361   1.402   3.359   7.014
 1561SOL     OW 5362   0.450   2.263   7.081
 1561SOL    HW1 5363   0.524   2.202   7.081
 1561SOL    HW2 5364   0.373   2.206   7.089
 1562SOL     OW 5365   1.613   2.311   6.326
 1562SOL    HW1 5366   1.537   2.334   6.272
 1562SOL    HW2 5367   1.629   2.388   6.379
 1563SOL     OW 5368   0.230   3.576   6.063
 1563SOL    HW1 5369   0.265   3.645   6.121
 1563SOL    HW2 5370   0.292   3.573   5.990
 1564SOL     OW 5371   1.136   3.203   7.276
 1564SOL    HW1 5372   1.176   3.200   7.363
 1564SOL    HW2 5373   1.084   3.123   7.271
 1565SOL     OW 5374   0.222   3.305   6.125
 1565SOL    HW1 5375   0.214   3.401   6.123
 1565SOL    HW2 5376   0.153   3.276   6.183
 1566SOL     OW 5377   0.249   2.940   6.462
 1566SOL    HW1 5378   0.260   2.856   6.505
 1566SOL    HW2 5379   0.197   2.992   6.524
 1567SOL     OW 5380   0.615   3.652   7.018
 1567SOL    HW1 5381   0.531   3.635   7.061
 1567SOL    HW2 5382   0.635   3.743   7.041
 1568SOL     OW 5383   0.585   2.844   5.720
 1568SOL    HW1 5384   0.630   2.893   5.651
 1568SOL    HW2 5385   0.626   2.873   5.801
 1569SOL     OW 5386   1.596   1.984   7.055
 1569SOL    HW1 5387   1.599   2.065   7.003
 1569SOL    HW2 5388   1.583   2.014   7.145
 1570SOL     OW 5389   0.126   2.497   6.164
 1570SOL    HW1 5390   0.089   2.413   6.193
 1570SOL    HW2 5391   0.098   2.559   6.231
 1571SOL     OW 5392   1.842   3.622   5.922
 1571SOL    HW1 5393   1.905   3.593   5.988
 1571SOL    HW2 5394   1.867   3.712   5.903
 1572SOL     OW 5395   0.037   3.460   5.717
 1572SOL    HW1 5396   0.024   3.369   5.742
 1572SOL    HW2 5397   5.284   3.510   5.779
 1573SOL     OW 5398   1.688   2.780   6.225
 1573SOL    HW1 5399   1.773   2.740   6.206
 1573SOL    HW2 5400   1.667   2.831   6.147
 1574SOL     OW 5401   1.646   2.969   6.015
 1574SOL    HW1 5402   1.731   2.976   5.973
 1574SOL    HW2 5403   1.651   3.030   6.089
 1575SOL     OW 5404   0.130   2.608   7.174
 1575SOL    HW1 5405   0.224   2.623   7.176
 1575SOL    HW2 5406   0.092   2.695   7.187
 1576SOL     OW 5407   0.615   3.246   6.321
 1576SOL    HW1 5408   0.567   3.164   6.331
 1576SOL    HW2 5409   0.597   3.273   6.230
 1577SOL     OW 5410   1.289   3.100   7.010
 1577SOL    HW1 5411   1.322   3.033   6.950
 1577SOL    HW2 5412   1.346   3.094   7.087
 1578SOL     OW 5413   0.821   1.860   6.095
 1578SOL    HW1 5414   0.861   1.945   6.076
 1578SOL    HW2 5415   0.727   1.879   6.101
 1579SOL     OW 5416   0.179   2.810   6.863
 1579SOL    HW1 5417   0.269   2.781   6.853
 1579SOL    HW2 5418   0.135   2.781   6.783
 1580SOL     OW 5419   1.532   2.855   5.784
 1580SOL    HW1 5420   1.462   2.797   5.815
 1580SOL    HW2 5421   1.572   2.889   5.863
 1581SOL     OW 5422   1.185   3.667   7.207
 1581SOL    HW1 5423   1.197   3.725   7.132
 1581SOL    HW2 5424   1.201   3.580   7.173
 1582SOL     OW 5425   0.335   2.114   7.399
 1582SOL    HW1 5426   0.383   2.196   7.412
 1582SOL    HW2 5427   0.248   2.132   7.436
 1583SOL     OW 5428   1.466   3.282   6.538
 1583SOL    HW1 5429   1.398   3.297   6.604
 1583SOL    HW2 5430   1.454   3.191   6.511
 1584SOL     OW 5431   1.659   3.599   6.164
 1584SOL    HW1 5432   1.639   3.570   6.075
 1584SOL    HW2 5433   1.634   3.526   6.220
 1585SOL     OW 5434   0.596   2.584   5.851
 1585SOL    HW1 5435   0.604   2.664   5.800
 1585SOL    HW2 5436   0.531   2.605   5.918
 1586SOL     OW 5437   1.279   2.213   6.518
 1586SOL    HW1 5438   1.190   2.180   6.527
 1586SOL    HW2 5439   1.330   2.160   6.580
 1587SOL     OW 5440   1.581   3.531   5.895
 1587SOL    HW1 5441   1.671   3.564   5.889
 1587SOL    HW2 5442   1.555   3.514   5.804
 1588SOL     OW 5443   0.792   2.479   7.038
 1588SOL    HW1 5444   0.765   2.456   7.127
 1588SOL    HW2 5445   0.751   2.413   6.983
 1589SOL     OW 5446   1.394   2.336   7.263
 1589SOL    HW1 5447   1.395   2.381   7.348
 1589SOL    HW2 5448   1.456   2.263   7.273
 1590SOL     OW 5449   0.956   2.749   7.168
 1590SOL    HW1 5450   1.010   2.679   7.132
 1590SOL    HW2 5451   0.908   2.784   7.092
 1591SOL     OW 5452   0.992   2.275   6.825
 1591SOL    HW1 5453   0.907   2.297   6.864
 1591SOL    HW2 5454   0.971   2.228   6.745
 1592SOL     OW 5455   1.050   2.561   6.012
 1592SOL    HW1 5456   1.066   2.554   6.107
 1592SOL    HW2 5457   0.968   2.513   5.998
 1593SOL     OW 5458   0.072   2.648   6.398
 1593SOL    HW1 5459   0.155   2.654   6.446
 1593SOL    HW2 5460   0.061   2.735   6.360
 1594SOL     OW 5461   0.130   3.744   7.170
 1594SOL    HW1 5462   0.131   3.713   7.261
 1594SOL    HW2 5463   0.058   3.696   7.129
 1595SOL     OW 5464   0.891   2.210   5.780
 1595SOL    HW1 5465   0.932   2.271   5.719
 1595SOL    HW2 5466   0.908   2.124   5.742
 1596SOL     OW 5467   1.709   2.438   7.415
 1596SOL    HW1 5468   1.672   2.513   7.369
 1596SOL    HW2 5469   1.736   2.378   7.346
 1597SOL     OW 5470   1.376   3.004   6.127
 1597SOL    HW1 5471   1.455   2.991   6.075
 1597SOL    HW2 5472   1.324   3.066   6.077
 1598SOL     OW 5473   0.555   2.046   6.479
 1598SOL    HW1 5474   0.552   2.073   6.571
 1598SOL    HW2 5475   0.551   2.127   6.429
 1599SOL     OW 5476   1.006   3.306   6.059
 1599SOL    HW1 5477   0.968   3.379   6.009
 1599SOL    HW2 5478   0.991   3.328   6.150
 1600SOL     OW 5479   0.356   3.664   6.455
 1600SOL    HW1 5480   0.397   3.578   6.468
 1600SOL    HW2 5481   0.423   3.727   6.482
 1601SOL     OW 5482   1.798   2.919   6.454
 1601SOL    HW1 5483   1.742   2.904   6.378
 1601SOL    HW2 5484   1.737   2.925   6.528
 1602SOL     OW 5485   1.228   3.401   7.099
 1602SOL    HW1 5486   1.214   3.328   7.159
 1602SOL    HW2 5487   1.165   3.386   7.028
 1603SOL     OW 5488   0.317   2.814   5.833
 1603SOL    HW1 5489   0.398   2.838   5.789
 1603SOL    HW2 5490   0.293   2.729   5.796
 1604SOL     OW 5491   1.477   2.603   6.313
 1604SOL    HW1 5492   1.468   2.559   6.398
 1604SOL    HW2 5493   1.554   2.659   6.323
 1605SOL     OW 5494   0.464   3.124   7.323
 1605SOL    HW1 5495   0.437   3.131   7.232
 1605SOL    HW2 5496   0.382   3.126   7.373
 1606SOL     OW 5497   1.121   3.640   5.817
 1606SOL    HW1 5498   1.049   3.597   5.863
 1606SOL    HW2 5499   1.144   3.579   5.747
 1607SOL     OW 5500   0.204   2.144   7.084
 1607SOL    HW1 5501   0.125   2.194   7.067
 1607SOL    HW2 5502   0.174   2.065   7.130
 1608SOL     OW 5503   1.629   3.241   5.673
 1608SOL    HW1 5504   1.588   3.326   5.658
 1608SOL    HW2 5505   1.559   3.178   5.654
 1609SOL     OW 5506   0.471   3.597   5.906
 1609SOL    HW1 5507   0.513   3.655   5.970
 1609SOL    HW2 5508   0.543   3.567   5.850
 1610SOL     OW 5509   1.401   1.970   6.018
 1610SOL    HW1 5510   1.390   1.945   5.926
 1610SOL    HW2 5511   1.496   1.976   6.030
 1611SOL     OW 5512   0.275   3.663   6.802
 1611SOL    HW1 5513   0.307   3.587   6.850
 1611SOL    HW2 5514   0.226   3.627   6.728
 1612SOL     OW 5515   0.939   3.561   6.486
 1612SOL    HW1 5516   1.016   3.508   6.506
 1612SOL    HW2 5517   0.894   3.511   6.417
 1613SOL     OW 5518   0.386   2.558   6.065
 1613SOL    HW1 5519   0.415   2.467   6.073
 1613SOL    HW2 5520   0.292   2.555   6.086
 1614SOL     OW 5521   1.536   2.087   7.312
 1614SOL    HW1 5522   1.545   2.108   7.404
 1614SOL    HW2 5523   1.467   2.021   7.309
 1615SOL     OW 5524   0.631   1.985   5.692
 1615SOL    HW1 5525   0.704   1.924   5.703
 1615SOL    HW2 5526   0.584   1.953   5.615
 1616SOL     OW 5527   0.766   2.137   7.338
 1616SOL    HW1 5528   0.842   2.079   7.342
 1616SOL    HW2 5529   0.723   2.127   7.423
 1617SOL     OW 5530   0.877   3.383   6.779
 1617SOL    HW1 5531   0.861   3.347   6.692
 1617SOL    HW2 5532   0.947   3.329   6.816
 1618SOL     OW 5533   1.341   2.451   7.018
 1618SOL    HW1 5534   1.372   2.419   7.103
 1618SOL    HW2 5535   1.377   2.539   7.010
 1619SOL     OW 5536   0.815   3.257   6.524
 1619SOL    HW1 5537   0.899   3.247   6.480
 1619SOL    HW2 5538   0.750   3.258   6.454
 1620SOL     OW 5539   0.928   2.371   6.489
 1620SOL    HW1 5540   0.904   2.363   6.397
 1620SOL    HW2 5541   0.959   2.284   6.514
 1621SOL     OW 5542   0.559   1.923   6.083
 1621SOL    HW1 5543   0.485   1.924   6.143
 1621SOL    HW2 5544   0.549   2.003   6.031
 1622SOL     OW 5545   1.428   3.060   5.627
 1622SOL    HW1 5546   1.458   2.984   5.677
 1622SOL    HW2 5547   1.342   3.081   5.665
 1623SOL     OW 5548   0.305   1.909   5.766
 1623SOL    HW1 5549   0.367   1.973   5.730
 1623SOL    HW2 5550   0.360   1.844   5.810
 1624SOL     OW 5551   0.938   2.108   6.047
 1624SOL    HW1 5552   0.911   2.150   5.966
 1624SOL    HW2 5553   1.033   2.122   6.050
 1625SOL     OW 5554   1.080   2.542   7.046
 1625SOL    HW1 5555   1.011   2.476   7.051
 1625SOL    HW2 5556   1.161   2.492   7.039
 1626SOL     OW 5557   1.224   3.431   6.379
 1626SOL    HW1 5558   1.241   3.499   6.314
 1626SOL    HW2 5559   1.292   3.445   6.446
 1627SOL     OW 5560   0.467   3.011   6.319
 1627SOL    HW1 5561   0.397   2.992   6.382
 1627SOL    HW2 5562   0.427   2.993   6.233
 1628SOL     OW 5563   1.270   3.656   6.193
 1628SOL    HW1 5564   1.315   3.717   6.135
 1628SOL    HW2 5565   1.204   3.709   6.238
 1629SOL     OW 5566   1.024   2.405   5.608
 1629SOL    HW1 5567   0.982   2.489   5.587
 1629SOL    HW2 5568   1.089   2.426   5.675
 1630SOL     OW 5569   0.087   2.408   6.984
 1630SOL    HW1 5570   0.174   2.415   6.947
 1630SOL    HW2 5571   0.079   2.484   7.042
 1631SOL     OW 5572   0.561   2.089   6.751
 1631SOL    HW1 5573   0.598   2.009   6.788
 1631SOL    HW2 5574   0.469   2.088   6.779
 1632SOL     OW 5575   0.868   2.321   6.226
 1632SOL    HW1 5576   0.822   2.375   6.161
 1632SOL    HW2 5577   0.889   2.240   6.179
 1633SOL     OW 5578   1.015   1.915   6.338
 1633SOL    HW1 5579   0.956   1.907   6.263
 1633SOL    HW2 5580   0.994   1.839   6.393
 1634SOL     OW 5581   1.437   3.025   6.444
 1634SOL    HW1 5582   1.368   2.958   6.442
 1634SOL    HW2 5583   1.461   3.037   6.352
 1635SOL     OW 5584   1.467   2.466   6.564
 1635SOL    HW1 5585   1.417   2.384   6.568
 1635SOL    HW2 5586   1.527   2.461   6.639
 1636SOL     OW 5587   1.847   2.679   5.968
 1636SOL    HW1 5588   1.903   2.627   6.026
 1636SOL    HW2 5589   1.817   2.616   5.902
 1637SOL     OW 5590   0.492   3.278   5.745
 1637SOL    HW1 5591   0.417   3.250   5.797
 1637SOL    HW2 5592   0.473   3.246   5.657
 1638SOL     OW 5593   1.669   3.126   6.233
 1638SOL    HW1 5594   1.764   3.130   6.246
 1638SOL    HW2 5595   1.639   3.214   6.254
 1639SOL     OW 5596   1.394   2.434   5.657
 1639SOL    HW1 5597   1.333   2.415   5.729
 1639SOL    HW2 5598   1.478   2.401   5.688
 1640SOL     OW 5599   0.524   2.125   5.905
 1640SOL    HW1 5600   0.568   2.077   5.834
 1640SOL    HW2 5601   0.503   2.210   5.866
 1641SOL     OW 5602   1.753   3.100   7.161
 1641SOL    HW1 5603   1.840   3.062   7.155
 1641SOL    HW2 5604   1.767   3.190   7.191
 1642SOL     OW 5605   1.059   3.215   6.919
 1642SOL    HW1 5606   0.985   3.184   6.971
 1642SOL    HW2 5607   1.135   3.174   6.961
 1643SOL     OW 5608   1.607   3.487   7.237
 1643SOL    HW1 5609   1.603   3.521   7.148
 1643SOL    HW2 5610   1.690   3.440   7.242
 1644SOL     OW 5611   1.127   3.064   6.692
 1644SOL    HW1 5612   1.069   3.103   6.757
 1644SOL    HW2 5613   1.094   3.097   6.608
 1645SOL     OW 5614   1.629   2.961   6.664
 1645SOL    HW1 5615   1.625   3.022   6.737
 1645SOL    HW2 5616   1.549   2.978   6.613
 1646SOL     OW 5617   0.918   1.959   6.984
 1646SOL    HW1 5618   0.941   1.941   6.892
 1646SOL    HW2 5619   0.997   1.999   7.020
 1647SOL     OW 5620   0.984   2.976   7.310
 1647SOL    HW1 5621   0.892   2.993   7.328
 1647SOL    HW2 5622   0.984   2.898   7.254
 1648SOL     OW 5623   0.707   2.922   5.959
 1648SOL    HW1 5624   0.696   2.907   6.052
 1648SOL    HW2 5625   0.784   2.869   5.935
 1649SOL     OW 5626   0.420   2.680   6.838
 1649SOL    HW1 5627   0.489   2.687   6.904
 1649SOL    HW2 5628   0.385   2.591   6.849
 1650SOL     OW 5629   1.266   2.240   6.860
 1650SOL    HW1 5630   1.299   2.317   6.906
 1650SOL    HW2 5631   1.176   2.262   6.837
 1651SOL     OW 5632   0.101   3.485   6.953
 1651SOL    HW1 5633   0.078   3.495   6.861
 1651SOL    HW2 5634   0.187   3.443   6.953
 1652SOL     OW 5635   0.344   2.967   6.074
 1652SOL    HW1 5636   0.354   3.046   6.021
 1652SOL    HW2 5637   0.355   2.895   6.012
 1653SOL     OW 5638   0.555   2.399   6.445
 1653SOL    HW1 5639   0.571   2.457   6.371
 1653SOL    HW2 5640   0.619   2.426   6.512
 1654SOL     OW 5641   1.248   3.210   5.975
 1654SOL    HW1 5642   1.304   3.282   6.006
 1654SOL    HW2 5643   1.161   3.231   6.009
 1655SOL     OW 5644   1.280   3.319   6.733
 1655SOL    HW1 5645   1.335   3.322   6.810
 1655SOL    HW2 5646   1.224   3.242   6.746
 1656SOL     OW 5647   1.582   2.486   6.064
 1656SOL    HW1 5648   1.536   2.540   6.128
 1656SOL    HW2 5649   1.627   2.549   6.007
 1657SOL     OW 5650   0.352   3.381   6.897
 1657SOL    HW1 5651   0.342   3.338   6.812
 1657SOL    HW2 5652   0.445   3.399   6.904
 1658SOL     OW 5653   0.413   2.605   7.188
 1658SOL    HW1 5654   0.473   2.652   7.130
 1658SOL    HW2 5655   0.453   2.519   7.200
 1659SOL     OW 5656   1.599   2.640   7.267
 1659SOL    HW1 5657   1.513   2.681   7.260
 1659SOL    HW2 5658   1.652   2.682   7.199
 1660SOL     OW 5659   0.996   1.983   7.341
 1660SOL    HW1 5660   1.051   2.056   7.312
 1660SOL    HW2 5661   1.045   1.905   7.316
 1661SOL     OW 5662   0.498   1.904   7.333
 1661SOL    HW1 5663   0.457   1.849   7.266
 1661SOL    HW2 5664   0.438   1.977   7.344
 1662SOL     OW 5665   0.585   2.736   6.618
 1662SOL    HW1 5666   0.616   2.826   6.617
 1662SOL    HW2 5667   0.528   2.730   6.695
 1663SOL     OW 5668   1.359   2.721   6.617
 1663SOL    HW1 5669   1.276   2.712   6.569
 1663SOL    HW2 5670   1.398   2.634   6.612
 1664SOL     OW 5671   1.206   2.391   5.854
 1664SOL    HW1 5672   1.213   2.312   5.908
 1664SOL    HW2 5673   1.163   2.455   5.910
 1665SOL     OW 5674   0.302   2.066   6.834
 1665SOL    HW1 5675   0.267   2.091   6.920
 1665SOL    HW2 5676   0.289   1.971   6.830
 1666SOL     OW 5677   0.070   3.181   6.867
 1666SOL    HW1 5678   0.090   3.121   6.939
 1666SOL    HW2 5679   0.003   3.239   6.902
 1667SOL     OW 5680   0.725   2.494   6.645
 1667SOL    HW1 5681   0.799   2.477   6.587
 1667SOL    HW2 5682   0.697   2.583   6.623
 1668SOL     OW 5683   1.734   2.821   7.438
 1668SOL    HW1 5684   1.685   2.762   7.380
 1668SOL    HW2 5685   1.677   2.835   7.513
 1669SOL     OW 5686   0.327   1.924   6.220
 1669SOL    HW1 5687   0.307   2.013   6.248
 1669SOL    HW2 5688   0.330   1.874   6.302
 1670SOL     OW 5689   1.615   2.235   5.954
 1670SOL    HW1 5690   1.642   2.172   6.020
 1670SOL    HW2 5691   1.592   2.314   6.004
 1671SOL     OW 5692   1.027   2.621   6.547
 1671SOL    HW1 5693   1.025   2.639   6.641
 1671SOL    HW2 5694   1.001   2.530   6.539
 1672SOL     OW 5695   0.981   3.427   7.302
 1672SOL    HW1 5696   0.967   3.472   7.218
 1672SOL    HW2 5697   1.026   3.346   7.278
 1673SOL     OW 5698   1.855   3.370   7.191
 1673SOL    HW1 5699   1.873   3.395   7.101
 1673SOL    HW2 5700   1.936   3.388   7.238
 1674SOL     OW 5701   0.353   2.777   7.394
 1674SOL    HW1 5702   0.436   2.799   7.438
 1674SOL    HW2 5703   0.378   2.714   7.327
 1675SOL     OW 5704   1.530   2.135   5.713
 1675SOL    HW1 5705   1.465   2.070   5.740
 1675SOL    HW2 5706   1.563   2.171   5.796
 1676SOL     OW 5707   1.292   2.688   5.618
 1676SOL    HW1 5708   1.335   2.603   5.621
 1676SOL    HW2 5709   1.324   2.728   5.537
 1677SOL     OW 5710   1.066   3.197   6.439
 1677SOL    HW1 5711   1.069   3.125   6.377
 1677SOL    HW2 5712   1.127   3.261   6.405
 1678SOL     OW 5713   0.314   2.672   6.536
 1678SOL    HW1 5714   0.408   2.690   6.532
 1678SOL    HW2 5715   0.309   2.582   6.568
 1679SOL     OW 5716   0.336   2.387   6.600
 1679SOL    HW1 5717   0.300   2.299   6.586
 1679SOL    HW2 5718   0.410   2.393   6.541
 1680SOL     OW 5719   1.135   2.238   7.266
 1680SOL    HW1 5720   1.087   2.293   7.329
 1680SOL    HW2 5721   1.222   2.276   7.262
 1681SOL     OW 5722   1.161   2.065   7.055
 1681SOL    HW1 5723   1.150   2.128   7.127
 1681SOL    HW2 5724   1.199   2.117   6.984
 1682SOL     OW 5725   0.001   3.193   5.796
 1682SOL    HW1 5726   5.226   3.183   5.738
 1682SOL    HW2 5727   0.012   3.106   5.836
 1683SOL     OW 5728   0.092   3.644   6.536
 1683SOL    HW1 5729   0.059   3.573   6.481
 1683SOL    HW2 5730   0.179   3.662   6.501
 1684SOL     OW 5731   0.505   3.435   6.493
 1684SOL    HW1 5732   0.572   3.500   6.514
 1684SOL    HW2 5733   0.549   3.373   6.434
 1685SOL     OW 5734   0.985   2.655   6.813
 1685SOL    HW1 5735   1.040   2.631   6.888
 1685SOL    HW2 5736   0.899   2.618   6.834
 1686SOL     OW 5737   0.034   2.422   6.701
 1686SOL    HW1 5738   0.120   2.396   6.668
 1686SOL    HW2 5739   0.038   2.404   6.795
 1687SOL     OW 5740   0.176   2.374   7.302
 1687SOL    HW1 5741   0.240   2.337   7.242
 1687SOL    HW2 5742   0.145   2.454   7.259
 1688SOL     OW 5743   1.376   2.802   7.245
 1688SOL    HW1 5744   1.397   2.895   7.245
 1688SOL    HW2 5745   1.374   2.777   7.153
 1689SOL     OW 5746   0.816   2.431   5.944
 1689SOL    HW1 5747   0.820   2.356   5.885
 1689SOL    HW2 5748   0.742   2.483   5.913
 1690SOL     OW 5749   1.642   2.463   6.773
 1690SOL    HW1 5750   1.631   2.404   6.848
 1690SOL    HW2 5751   1.729   2.442   6.739
 1691SOL     OW 5752   0.256   3.418   7.322
 1691SOL    HW1 5753   0.232   3.479   7.392
 1691SOL    HW2 5754   0.249   3.332   7.362
 1692SOL     OW 5755   0.699   2.313   6.847
 1692SOL    HW1 5756   0.647   2.239   6.816
 1692SOL    HW2 5757   0.696   2.376   6.774
 1693SOL     OW 5758   0.929   3.541   7.053
 1693SOL    HW1 5759   0.902   3.508   6.967
 1693SOL    HW2 5760   0.925   3.636   7.045
 1694SOL     OW 5761   0.466   2.355   5.772
 1694SOL    HW1 5762   0.525   2.427   5.793
 1694SOL    HW2 5763   0.380   2.397   5.762
 1695SOL     OW 5764   0.149   3.000   7.057
 1695SOL    HW1 5765   0.147   2.950   7.139
 1695SOL    HW2 5766   0.162   2.934   6.989
 1696SOL     OW 5767   1.327   2.909   6.810
 1696SOL    HW1 5768   1.351   2.847   6.742
 1696SOL    HW2 5769   1.256   2.961   6.771
 1697SOL     OW 5770   1.311   2.718   5.893
 1697SOL    HW1 5771   1.234   2.689   5.942
 1697SOL    HW2 5772   1.286   2.705   5.801
 1698SOL     OW 5773   1.770   3.608   6.735
 1698SOL    HW1 5774   1.831   3.633   6.666
 1698SOL    HW2 5775   1.747   3.517   6.714
 1699SOL     OW 5776   1.241   3.595   6.700
 1699SOL    HW1 5777   1.323   3.615   6.655
 1699SOL    HW2 5778   1.246   3.501   6.718
 1700SOL     OW 5779   0.083   3.081   6.613
 1700SOL    HW1 5780   0.070   3.106   6.705
 1700SOL    HW2 5781   5.294   3.069   6.579
 1701SOL     OW 5782   0.677   3.526   7.312
 1701SOL    HW1 5783   0.625   3.606   7.310
 1701SOL    HW2 5784   0.742   3.538   7.243
 1702SOL     OW 5785   1.719   2.007   6.097
 1702SOL    HW1 5786   1.792   1.992   6.036
 1702SOL    HW2 5787   1.703   1.922   6.137
 1703SOL     OW 5788   1.390   3.430   6.070
 1703SOL    HW1 5789   1.451   3.462   6.003
 1703SOL    HW2 5790   1.342   3.508   6.098
 1704SOL     OW 5791   0.140   3.661   7.429
 1704SOL    HW1 5792   0.089   3.597   7.477
 1704SOL    HW2 5793   0.193   3.705   7.496
 1705SOL     OW 5794   1.277   2.787   6.257
 1705SOL    HW1 5795   1.351   2.726   6.263
 1705SOL    HW2 5796   1.311   2.860   6.205
 1706SOL     OW 5797   0.816   3.134   7.017
 1706SOL    HW1 5798   0.788   3.174   7.099
 1706SOL    HW2 5799   0.746   3.156   6.955
 1707SOL     OW 5800   0.672   3.480   5.741
 1707SOL    HW1 5801   0.682   3.492   5.647
 1707SOL    HW2 5802   0.618   3.402   5.750
 1708SOL     OW 5803   1.628   3.588   6.977
 1708SOL    HW1 5804   1.678   3.596   6.895
 1708SOL    HW2 5805   1.615   3.679   7.005
 1709SOL     OW 5806   1.840   2.035   6.553
 1709SOL    HW1 5807   1.869   1.948   6.525
 1709SOL    HW2 5808   1.754   2.046   6.513
 1710SOL     OW 5809   0.272   2.179   6.304
 1710SOL    HW1 5810   0.188   2.218   6.282
 1710SOL    HW2 5811   0.270   2.168   6.399
 1711SOL     OW 5812   1.207   3.469   5.617
 1711SOL    HW1 5813   1.197   3.377   5.644
 1711SOL    HW2 5814   1.142   3.480   5.548
 1712SOL     OW 5815   0.824   2.868   6.958
 1712SOL    HW1 5816   0.868   2.864   6.873
 1712SOL    HW2 5817   0.824   2.961   6.981
 1713SOL     OW 5818   0.915   2.772   5.876
 1713SOL    HW1 5819   0.976   2.804   5.809
 1713SOL    HW2 5820   0.963   2.703   5.921
 1714SOL     OW 5821   1.493   3.486   5.628
 1714SOL    HW1 5822   1.398   3.482   5.615
 1714SOL    HW2 5823   1.529   3.493   5.540
 1715SOL     OW 5824   0.368   3.166   7.079
 1715SOL    HW1 5825   0.359   3.240   7.020
 1715SOL    HW2 5826   0.292   3.111   7.060
 1716SOL     OW 5827   1.610   3.144   6.867
 1716SOL    HW1 5828   1.671   3.136   6.940
 1716SOL    HW2 5829   1.551   3.214   6.893
 1717SOL     OW 5830   1.050   2.968   6.291
 1717SOL    HW1 5831   0.980   2.917   6.332
 1717SOL    HW2 5832   1.113   2.903   6.260
 1718SOL     OW 5833   1.021   2.102   6.552
 1718SOL    HW1 5834   1.016   2.054   6.469
 1718SOL    HW2 5835   1.015   2.035   6.619
 1719SOL     OW 5836   0.601   3.349   6.067
 1719SOL    HW1 5837   0.645   3.301   5.997
 1719SOL    HW2 5838   0.535   3.402   6.022
 1720SOL     OW 5839   1.721   2.254   6.966
 1720SOL    HW1 5840   1.793   2.318   6.965
 1720SOL    HW2 5841   1.751   2.183   6.910
 1721SOL     OW 5842   0.260   3.210   5.878
 1721SOL    HW1 5843   0.167   3.212   5.855
 1721SOL    HW2 5844   0.264   3.247   5.966
 1722SOL     OW 5845   0.115   2.876   7.303
 1722SOL    HW1 5846   0.043   2.846   7.358
 1722SOL    HW2 5847   0.194   2.846   7.348
 1723SOL     OW 5848   0.673   2.058   7.085
 1723SOL    HW1 5849   0.757   2.039   7.043
 1723SOL    HW2 5850   0.696   2.088   7.173
 1724SOL     OW 5851   0.081   2.214   5.627
 1724SOL    HW1 5852   0.002   2.164   5.603
 1724SOL    HW2 5853   0.098   2.270   5.552
 1725SOL     OW 5854   1.430   2.720   6.987
 1725SOL    HW1 5855   1.382   2.781   6.931
 1725SOL    HW2 5856   1.520   2.723   6.954
 1726SOL     OW 5857   0.055   1.995   5.828
 1726SOL    HW1 5858   0.054   2.091   5.823
 1726SOL    HW2 5859   0.146   1.971   5.809
 1727SOL     OW 5860   1.179   3.202   5.703
 1727SOL    HW1 5861   1.088   3.173   5.706
 1727SOL    HW2 5862   1.208   3.202   5.794
 1728SOL     OW 5863   0.619   2.693   7.021
 1728SOL    HW1 5864   0.675   2.769   7.005
 1728SOL    HW2 5865   0.680   2.620   7.029
 1729SOL     OW 5866   1.484   3.637   6.563
 1729SOL    HW1 5867   1.509   3.696   6.492
 1729SOL    HW2 5868   1.566   3.620   6.609
 1730SOL     OW 5869   0.717   2.426   7.292
 1730SOL    HW1 5870   0.757   2.489   7.352
 1730SOL    HW2 5871   0.748   2.341   7.322
 1731SOL     OW 5872   1.470   3.063   7.218
 1731SOL    HW1 5873   1.458   3.076   7.312
 1731SOL    HW2 5874   1.564   3.077   7.204
 1732SOL     OW 5875   0.379   3.604   7.150
 1732SOL    HW1 5876   0.296   3.649   7.135
 1732SOL    HW2 5877   0.354   3.523   7.194
 1733SOL     OW 5878   1.671   2.743   6.841
 1733SOL    HW1 5879   1.663   2.658   6.798
 1733SOL    HW2 5880   1.661   2.807   6.770
 1734SOL     OW 5881   1.217   2.181   6.044
 1734SOL    HW1 5882   1.281   2.110   6.035
 1734SOL    HW2 5883   1.246   2.230   6.121
 1735SOL     OW 5884   0.591   2.600   6.254
 1735SOL    HW1 5885   0.630   2.686   6.239
 1735SOL    HW2 5886   0.521   2.593   6.189
 1736SOL     OW 5887   1.764   2.223   7.236
 1736SOL    HW1 5888   1.746   2.238   7.143
 1736SOL    HW2 5889   1.692   2.166   7.265
 1737SOL     OW 5890   1.743   2.795   7.099
 1737SOL    HW1 5891   1.744   2.890   7.112
 1737SOL    HW2 5892   1.729   2.785   7.005
 1738SOL     OW 5893   0.863   3.229   5.619
 1738SOL    HW1 5894   0.824   3.258   5.701
 1738SOL    HW2 5895   0.881   3.311   5.572
 1739SOL     OW 5896   0.662   3.656   6.531
 1739SOL    HW1 5897   0.641   3.747   6.508
 1739SOL    HW2 5898   0.758   3.652   6.524
 1740SOL     OW 5899   0.867   2.828   6.441
 1740SOL    HW1 5900   0.917   2.757   6.481
 1740SOL    HW2 5901   0.833   2.878   6.515
 1741SOL     OW 5902   1.078   2.849   5.674
 1741SOL    HW1 5903   1.057   2.901   5.596
 1741SOL    HW2 5904   1.154   2.796   5.649
 1742SOL     OW 5905   1.855   3.417   6.430
 1742SOL    HW1 5906   1.777   3.405   6.376
 1742SOL    HW2 5907   1.848   3.350   6.498
 1743SOL     OW 5908   0.224   3.167   7.445
 1743SOL    HW1 5909   0.155   3.106   7.419
 1743SOL    HW2 5910   0.212   3.179   7.539
 1744SOL     OW 5911   0.086   3.084   6.241
 1744SOL    HW1 5912   0.098   3.051   6.330
 1744SOL    HW2 5913   0.172   3.073   6.199
 1745SOL     OW 5914   0.680   3.263   7.213
 1745SOL    HW1 5915   0.599   3.221   7.243
 1745SOL    HW2 5916   0.676   3.352   7.249
 1746SOL     OW 5917   1.814   2.047   6.824
 1746SOL    HW1 5918   1.823   1.953   6.839
 1746SOL    HW2 5919   1.823   2.057   6.729
 1747SOL     OW 5920   0.434   2.298   6.110
 1747SOL    HW1 5921   0.462   2.225   6.054
 1747SOL    HW2 5922   0.387   2.256   6.182
 1748SOL     OW 5923   1.701   3.352   6.684
 1748SOL    HW1 5924   1.620   3.328   6.639
 1748SOL    HW2 5925   1.715   3.283   6.749
 1749SOL     OW 5926   0.335   2.420   6.877
 1749SOL    HW1 5927   0.388   2.361   6.930
 1749SOL    HW2 5928   0.350   2.391   6.787
 1750SOL     OW 5929   0.827   3.439   6.264
 1750SOL    HW1 5930   0.817   3.491   6.185
 1750SOL    HW2 5931   0.750   3.383   6.267
 1751SOL     OW 5932   1.432   2.087   6.704
 1751SOL    HW1 5933   1.458   2.007   6.751
 1751SOL    HW2 5934   1.380   2.136   6.768
 1752SOL     OW 5935   1.009   1.881   6.729
 1752SOL    HW1 5936   0.954   1.813   6.690
 1752SOL    HW2 5937   1.097   1.844   6.731
 1753SOL     OW 5938   0.771   3.194   5.899
 1753SOL    HW1 5939   0.740   3.104   5.906
 1753SOL    HW2 5940   0.854   3.195   5.948
 1754SOL     OW 5941   0.622   3.419   6.873
 1754SOL    HW1 5942   0.624   3.501   6.922
 1754SOL    HW2 5943   0.709   3.413   6.833
 1755SOL     OW 5944   1.352   1.916   5.751
 1755SOL    HW1 5945   1.379   1.853   5.683
 1755SOL    HW2 5946   1.265   1.885   5.777
 1756SOL     OW 5947   1.297   2.322   6.268
 1756SOL    HW1 5948   1.244   2.401   6.275
 1756SOL    HW2 5949   1.293   2.282   6.355
 1757SOL     OW 5950   1.587   2.065   6.464
 1757SOL    HW1 5951   1.525   2.085   6.534
 1757SOL    HW2 5952   1.586   2.144   6.408
 1758SOL     OW 5953   0.047   2.931   5.877
 1758SOL    HW1 5954   0.137   2.900   5.865
 1758SOL    HW2 5955   5.300   2.855   5.910
 1759SOL     OW 5956   0.884   3.512   5.929
 1759SOL    HW1 5957   0.811   3.497   5.868
 1759SOL    HW2 5958   0.856   3.588   5.980
 1760SOL     OW 5959   0.230   2.493   7.566
 1760SOL    HW1 5960   0.153   2.456   7.609
 1760SOL    HW2 5961   0.224   2.463   7.475
 1761SOL     OW 5962   1.767   2.461   7.680
 1761SOL    HW1 5963   1.748   2.457   7.586
 1761SOL    HW2 5964   1.725   2.383   7.717
 1762SOL     OW 5965   0.228   3.571   7.920
 1762SOL    HW1 5966   0.264   3.614   7.998
 1762SOL    HW2 5967   0.299   3.575   7.856
 1763SOL     OW 5968   0.218   3.298   7.990
 1763SOL    HW1 5969   0.208   3.393   7.985
 1763SOL    HW2 5970   0.154   3.271   8.057
 1764SOL     OW 5971   0.585   2.845   7.580
 1764SOL    HW1 5972   0.629   2.894   7.511
 1764SOL    HW2 5973   0.626   2.875   7.661
 1765SOL     OW 5974   1.836   3.622   7.798
 1765SOL    HW1 5975   1.906   3.591   7.855
 1765SOL    HW2 5976   1.864   3.710   7.772
 1766SOL     OW 5977   0.036   3.463   7.581
 1766SOL    HW1 5978   0.027   3.370   7.601
 1766SOL    HW2 5979   5.279   3.507   7.643
 1767SOL     OW 5980   1.682   2.731   8.038
 1767SOL    HW1 5981   1.765   2.741   0.004
 1767SOL    HW2 5982   1.671   2.813   7.990
 1768SOL     OW 5983   1.655   2.961   7.876
 1768SOL    HW1 5984   1.742   2.986   7.845
 1768SOL    HW2 5985   1.628   3.032   7.935
 1769SOL     OW 5986   0.800   1.856   7.938
 1769SOL    HW1 5987   0.849   1.937   7.923
 1769SOL    HW2 5988   0.709   1.885   7.949
 1770SOL     OW 5989   1.532   2.856   7.648
 1770SOL    HW1 5990   1.466   2.795   7.682
 1770SOL    HW2 5991   1.576   2.890   7.726
 1771SOL     OW 5992   0.589   2.586   7.708
 1771SOL    HW1 5993   0.598   2.667   7.657
 1771SOL    HW2 5994   0.532   2.609   7.781
 1772SOL     OW 5995   1.575   3.533   7.757
 1772SOL    HW1 5996   1.665   3.562   7.766
 1772SOL    HW2 5997   1.563   3.519   7.663
 1773SOL     OW 5998   0.058   2.685   0.205
 1773SOL    HW1 5999   0.125   2.626   0.168
 1773SOL    HW2 6000   0.031   2.739   0.131
 1774SOL     OW 6001   0.879   2.208   7.636
 1774SOL    HW1 6002   0.926   2.268   7.579
 1774SOL    HW2 6003   0.915   2.122   7.614
 1775SOL     OW 6004   0.319   2.810   7.694
 1775SOL    HW1 6005   0.400   2.838   7.650
 1775SOL    HW2 6006   0.296   2.728   7.652
 1776SOL     OW 6007   1.123   3.638   7.682
 1776SOL    HW1 6008   1.047   3.597   7.724
 1776SOL    HW2 6009   1.146   3.578   7.611
 1777SOL     OW 6010   1.628   3.242   7.533
 1777SOL    HW1 6011   1.587   3.327   7.520
 1777SOL    HW2 6012   1.559   3.178   7.515
 1778SOL     OW 6013   0.470   3.599   7.769
 1778SOL    HW1 6014   0.515   3.653   7.834
 1778SOL    HW2 6015   0.539   3.566   7.713
 1779SOL     OW 6016   1.415   1.992   7.864
 1779SOL    HW1 6017   1.402   1.958   7.776
 1779SOL    HW2 6018   1.509   1.990   7.877
 1780SOL     OW 6019   0.380   2.562   7.922
 1780SOL    HW1 6020   0.401   2.469   7.926
 1780SOL    HW2 6021   0.286   2.566   7.942
 1781SOL     OW 6022   0.625   1.981   7.560
 1781SOL    HW1 6023   0.704   1.928   7.568
 1781SOL    HW2 6024   0.584   1.951   7.479
 1782SOL     OW 6025   0.527   1.935   7.960
 1782SOL    HW1 6026   0.441   1.941   8.001
 1782SOL    HW2 6027   0.528   2.006   7.896
 1783SOL     OW 6028   1.428   3.059   7.489
 1783SOL    HW1 6029   1.459   2.986   7.541
 1783SOL    HW2 6030   1.344   3.083   7.528
 1784SOL     OW 6031   0.306   1.906   7.620
 1784SOL    HW1 6032   0.368   1.970   7.585
 1784SOL    HW2 6033   0.360   1.843   7.667
 1785SOL     OW 6034   0.944   2.087   7.911
 1785SOL    HW1 6035   0.899   2.153   7.857
 1785SOL    HW2 6036   1.035   2.117   7.914
 1786SOL     OW 6037   0.448   3.020   0.091
 1786SOL    HW1 6038   0.375   3.040   0.151
 1786SOL    HW2 6039   0.406   3.002   0.007
 1787SOL     OW 6040   1.290   3.672   8.014
 1787SOL    HW1 6041   1.325   3.742   7.958
 1787SOL    HW2 6042   1.208   3.708   8.049
 1788SOL     OW 6043   1.026   2.405   7.466
 1788SOL    HW1 6044   0.982   2.488   7.448
 1788SOL    HW2 6045   1.087   2.425   7.537
 1789SOL     OW 6046   1.866   2.681   7.802
 1789SOL    HW1 6047   1.876   2.646   7.890
 1789SOL    HW2 6048   1.828   2.609   7.751
 1790SOL     OW 6049   0.491   3.276   7.607
 1790SOL    HW1 6050   0.416   3.248   7.659
 1790SOL    HW2 6051   0.471   3.246   7.518
 1791SOL     OW 6052   1.394   2.433   7.519
 1791SOL    HW1 6053   1.333   2.414   7.591
 1791SOL    HW2 6054   1.478   2.401   7.549
 1792SOL     OW 6055   0.527   2.127   7.771
 1792SOL    HW1 6056   0.569   2.076   7.702
 1792SOL    HW2 6057   0.505   2.211   7.729
 1793SOL     OW 6058   0.709   2.922   7.814
 1793SOL    HW1 6059   0.693   2.913   7.908
 1793SOL    HW2 6060   0.788   2.870   7.798
 1794SOL     OW 6061   0.347   2.956   7.929
 1794SOL    HW1 6062   0.347   3.040   7.884
 1794SOL    HW2 6063   0.350   2.891   7.859
 1795SOL     OW 6064   1.225   3.218   7.821
 1795SOL    HW1 6065   1.288   3.285   7.847
 1795SOL    HW2 6066   1.181   3.193   7.903
 1796SOL     OW 6067   1.588   2.491   7.921
 1796SOL    HW1 6068   1.572   2.550   7.995
 1796SOL    HW2 6069   1.628   2.546   7.854
 1797SOL     OW 6070   1.204   2.388   7.716
 1797SOL    HW1 6071   1.207   2.305   7.764
 1797SOL    HW2 6072   1.182   2.454   7.782
 1798SOL     OW 6073   1.617   2.240   7.815
 1798SOL    HW1 6074   1.639   2.173   7.881
 1798SOL    HW2 6075   1.593   2.317   7.867
 1799SOL     OW 6076   1.531   2.136   7.575
 1799SOL    HW1 6077   1.465   2.071   7.601
 1799SOL    HW2 6078   1.563   2.172   7.658
 1800SOL     OW 6079   1.295   2.690   7.482
 1800SOL    HW1 6080   1.336   2.604   7.483
 1800SOL    HW2 6081   1.325   2.730   7.400
 1801SOL     OW 6082   0.003   3.195   7.656
 1801SOL    HW1 6083   5.220   3.193   7.608
 1801SOL    HW2 6084   0.013   3.107   7.691
 1802SOL     OW 6085   0.836   2.457   7.764
 1802SOL    HW1 6086   0.828   2.367   7.734
 1802SOL    HW2 6087   0.747   2.492   7.763
 1803SOL     OW 6088   0.463   2.355   7.639
 1803SOL    HW1 6089   0.524   2.427   7.654
 1803SOL    HW2 6090   0.378   2.397   7.625
 1804SOL     OW 6091   1.310   2.710   7.755
 1804SOL    HW1 6092   1.222   2.718   7.794
 1804SOL    HW2 6093   1.294   2.703   7.661
 1805SOL     OW 6094   1.712   2.007   7.949
 1805SOL    HW1 6095   1.790   1.999   7.894
 1805SOL    HW2 6096   1.713   1.929   8.004
 1806SOL     OW 6097   1.365   3.438   7.897
 1806SOL    HW1 6098   1.440   3.459   7.841
 1806SOL    HW2 6099   1.333   3.523   7.927
 1807SOL     OW 6100   0.668   3.480   7.604
 1807SOL    HW1 6101   0.680   3.492   7.509
 1807SOL    HW2 6102   0.617   3.400   7.612
 1808SOL     OW 6103   1.208   3.470   7.478
 1808SOL    HW1 6104   1.199   3.378   7.506
 1808SOL    HW2 6105   1.142   3.481   7.410
 1809SOL     OW 6106   0.925   2.773   7.754
 1809SOL    HW1 6107   0.979   2.798   7.679
 1809SOL    HW2 6108   0.924   2.678   7.752
 1810SOL     OW 6109   1.494   3.488   7.488
 1810SOL    HW1 6110   1.399   3.481   7.477
 1810SOL    HW2 6111   1.529   3.493   7.399
 1811SOL     OW 6112   0.604   3.367   7.936
 1811SOL    HW1 6113   0.648   3.307   7.876
 1811SOL    HW2 6114   0.534   3.406   7.884
 1812SOL     OW 6115   0.260   3.209   7.741
 1812SOL    HW1 6116   0.167   3.213   7.717
 1812SOL    HW2 6117   0.263   3.245   7.829
 1813SOL     OW 6118   0.079   2.205   7.488
 1813SOL    HW1 6119   5.297   2.164   7.462
 1813SOL    HW2 6120   0.099   2.267   7.418
 1814SOL     OW 6121   0.080   1.998   7.737
 1814SOL    HW1 6122   0.065   2.086   7.703
 1814SOL    HW2 6123   0.153   1.964   7.685
 1815SOL     OW 6124   1.177   3.201   7.556
 1815SOL    HW1 6125   1.085   3.176   7.558
 1815SOL    HW2 6126   1.202   3.207   7.649
 1816SOL     OW 6127   1.215   2.180   7.904
 1816SOL    HW1 6128   1.288   2.119   7.892
 1816SOL    HW2 6129   1.237   2.228   7.983
 1817SOL     OW 6130   0.621   2.599   8.053
 1817SOL    HW1 6131   0.629   2.680   0.023
 1817SOL    HW2 6132   0.531   2.598   8.021
 1818SOL     OW 6133   0.862   3.229   7.481
 1818SOL    HW1 6134   0.824   3.258   7.564
 1818SOL    HW2 6135   0.882   3.311   7.434
 1819SOL     OW 6136   1.073   2.841   7.537
 1819SOL    HW1 6137   1.054   2.898   7.463
 1819SOL    HW2 6138   1.152   2.793   7.511
 1820SOL     OW 6139   0.393   2.292   7.978
 1820SOL    HW1 6140   0.439   2.233   7.917
 1820SOL    HW2 6141   0.434   2.275   8.062
 1821SOL     OW 6142   0.766   3.197   7.759
 1821SOL    HW1 6143   0.735   3.106   7.761
 1821SOL    HW2 6144   0.847   3.195   7.810
 1822SOL     OW 6145   1.352   1.915   7.610
 1822SOL    HW1 6146   1.380   1.850   7.545
 1822SOL    HW2 6147   1.266   1.884   7.638
 1823SOL     OW 6148   0.047   2.932   7.722
 1823SOL    HW1 6149   0.137   2.899   7.723
 1823SOL    HW2 6150   5.299   2.871   7.778
 1824SOL     OW 6151   0.892   3.512   7.781
 1824SOL    HW1 6152   0.816   3.489   7.728
 1824SOL    HW2 6153   0.858   3.576   7.845
 1825SOL     OW 6154   0.227   4.349   0.112
 1825SOL    HW1 6155   0.155   4.313   0.164
 1825SOL    HW2 6156   0.232   4.294   0.034
 1826SOL     OW 6157   0.240   3.999   0.989
 1826SOL    HW1 6158   0.255   3.966   1.078
 1826SOL    HW2 6159   0.157   3.961   0.963
 1827SOL     OW 6160   5.297   4.119   0.649
 1827SOL    HW1 6161   5.206   4.147   0.659
 1827SOL    HW2 6162   5.291   4.027   0.627
 1828SOL     OW 6163   0.572   4.998   1.182
 1828SOL    HW1 6164   0.493   5.005   1.128
 1828SOL    HW2 6165   0.591   5.089   1.208
 1829SOL     OW 6166   1.555   5.232   0.688
 1829SOL    HW1 6167   1.530   5.229   0.781
 1829SOL    HW2 6168   1.478   5.268   0.644
 1830SOL     OW 6169   1.130   4.422   0.702
 1830SOL    HW1 6170   1.179   4.503   0.688
 1830SOL    HW2 6171   1.083   4.437   0.784
 1831SOL     OW 6172   1.769   4.325   0.233
 1831SOL    HW1 6173   1.732   4.324   0.145
 1831SOL    HW2 6174   1.729   4.249   0.276
 1832SOL     OW 6175   0.759   4.868   1.036
 1832SOL    HW1 6176   0.691   4.897   1.097
 1832SOL    HW2 6177   0.787   4.948   0.991
 1833SOL     OW 6178   0.865   4.501   1.822
 1833SOL    HW1 6179   0.854   4.573   1.884
 1833SOL    HW2 6180   0.888   4.544   1.739
 1834SOL     OW 6181   0.684   4.726   0.651
 1834SOL    HW1 6182   0.750   4.715   0.720
 1834SOL    HW2 6183   0.617   4.782   0.691
 1835SOL     OW 6184   0.707   4.873   1.811
 1835SOL    HW1 6185   0.756   4.952   1.835
 1835SOL    HW2 6186   0.624   4.905   1.776
 1836SOL     OW 6187   0.376   5.145   1.053
 1836SOL    HW1 6188   0.282   5.153   1.040
 1836SOL    HW2 6189   0.414   5.200   0.985
 1837SOL     OW 6190   1.455   5.220   1.347
 1837SOL    HW1 6191   1.509   5.293   1.379
 1837SOL    HW2 6192   1.389   5.207   1.415
 1838SOL     OW 6193   0.450   4.124   1.494
 1838SOL    HW1 6194   0.524   4.063   1.495
 1838SOL    HW2 6195   0.373   4.068   1.502
 1839SOL     OW 6196   1.613   4.172   0.740
 1839SOL    HW1 6197   1.537   4.196   0.687
 1839SOL    HW2 6198   1.629   4.250   0.794
 1840SOL     OW 6199   1.133   5.072   1.700
 1840SOL    HW1 6200   1.164   5.072   1.790
 1840SOL    HW2 6201   1.080   4.993   1.693
 1841SOL     OW 6202   0.211   5.150   0.529
 1841SOL    HW1 6203   0.250   5.230   0.562
 1841SOL    HW2 6204   0.132   5.138   0.582
 1842SOL     OW 6205   0.252   4.801   0.877
 1842SOL    HW1 6206   0.262   4.714   0.916
 1842SOL    HW2 6207   0.196   4.848   0.938
 1843SOL     OW 6208   0.624   4.685   0.134
 1843SOL    HW1 6209   0.580   4.765   0.105
 1843SOL    HW2 6210   0.676   4.712   0.210
 1844SOL     OW 6211   1.596   3.846   1.469
 1844SOL    HW1 6212   1.600   3.927   1.417
 1844SOL    HW2 6213   1.583   3.877   1.559
 1845SOL     OW 6214   0.132   4.355   0.581
 1845SOL    HW1 6215   0.086   4.275   0.608
 1845SOL    HW2 6216   0.100   4.423   0.641
 1846SOL     OW 6217   0.016   5.296   0.071
 1846SOL    HW1 6218   0.022   5.211   0.115
 1846SOL    HW2 6219   0.042   0.060   0.137
 1847SOL     OW 6220   1.687   4.642   0.642
 1847SOL    HW1 6221   1.771   4.601   0.621
 1847SOL    HW2 6222   1.666   4.694   0.564
 1848SOL     OW 6223   1.646   4.830   0.434
 1848SOL    HW1 6224   1.727   4.843   0.385
 1848SOL    HW2 6225   1.652   4.891   0.507
 1849SOL     OW 6226   0.129   4.471   1.587
 1849SOL    HW1 6227   0.224   4.486   1.590
 1849SOL    HW2 6228   0.091   4.558   1.598
 1850SOL     OW 6229   0.626   5.095   0.734
 1850SOL    HW1 6230   0.569   5.019   0.735
 1850SOL    HW2 6231   0.600   5.145   0.656
 1851SOL     OW 6232   1.289   4.955   1.426
 1851SOL    HW1 6233   1.324   4.890   1.365
 1851SOL    HW2 6234   1.348   4.952   1.501
 1852SOL     OW 6235   0.822   3.725   0.511
 1852SOL    HW1 6236   0.861   3.809   0.490
 1852SOL    HW2 6237   0.728   3.742   0.516
 1853SOL     OW 6238   0.178   4.669   1.281
 1853SOL    HW1 6239   0.268   4.639   1.267
 1853SOL    HW2 6240   0.134   4.653   1.197
 1854SOL     OW 6241   1.511   4.733   0.209
 1854SOL    HW1 6242   1.451   4.665   0.240
 1854SOL    HW2 6243   1.563   4.756   0.286
 1855SOL     OW 6244   0.334   3.977   1.814
 1855SOL    HW1 6245   0.382   4.059   1.827
 1855SOL    HW2 6246   0.247   3.994   1.850
 1856SOL     OW 6247   1.476   5.146   0.963
 1856SOL    HW1 6248   1.403   5.158   1.023
 1856SOL    HW2 6249   1.463   5.057   0.928
 1857SOL     OW 6250   0.597   4.438   0.279
 1857SOL    HW1 6251   0.618   4.517   0.229
 1857SOL    HW2 6252   0.535   4.468   0.346
 1858SOL     OW 6253   1.279   4.074   0.932
 1858SOL    HW1 6254   1.190   4.042   0.940
 1858SOL    HW2 6255   1.330   4.022   0.994
 1859SOL     OW 6256   0.793   4.341   1.452
 1859SOL    HW1 6257   0.765   4.318   1.541
 1859SOL    HW2 6258   0.751   4.275   1.396
 1860SOL     OW 6259   1.394   4.198   1.678
 1860SOL    HW1 6260   1.395   4.242   1.763
 1860SOL    HW2 6261   1.456   4.126   1.687
 1861SOL     OW 6262   0.956   4.612   1.582
 1861SOL    HW1 6263   1.010   4.541   1.547
 1861SOL    HW2 6264   0.908   4.646   1.506
 1862SOL     OW 6265   0.992   4.136   1.239
 1862SOL    HW1 6266   0.907   4.159   1.278
 1862SOL    HW2 6267   0.971   4.090   1.159
 1863SOL     OW 6268   1.052   4.423   0.427
 1863SOL    HW1 6269   1.066   4.416   0.522
 1863SOL    HW2 6270   0.969   4.376   0.413
 1864SOL     OW 6271   0.069   4.511   0.818
 1864SOL    HW1 6272   0.154   4.516   0.861
 1864SOL    HW2 6273   0.060   4.594   0.771
 1865SOL     OW 6274   0.884   4.081   0.201
 1865SOL    HW1 6275   0.929   4.129   0.132
 1865SOL    HW2 6276   0.884   3.990   0.170
 1866SOL     OW 6277   1.709   4.299   1.828
 1866SOL    HW1 6278   1.672   4.374   1.781
 1866SOL    HW2 6279   1.736   4.239   1.759
 1867SOL     OW 6280   1.376   4.864   0.540
 1867SOL    HW1 6281   1.456   4.850   0.490
 1867SOL    HW2 6282   1.325   4.926   0.488
 1868SOL     OW 6283   0.554   3.908   0.893
 1868SOL    HW1 6284   0.552   3.935   0.985
 1868SOL    HW2 6285   0.552   3.990   0.844
 1869SOL     OW 6286   1.020   5.165   0.469
 1869SOL    HW1 6287   0.945   5.224   0.465
 1869SOL    HW2 6288   1.039   5.158   0.563
 1870SOL     OW 6289   1.799   4.781   0.866
 1870SOL    HW1 6290   1.742   4.765   0.792
 1870SOL    HW2 6291   1.741   4.788   0.942
 1871SOL     OW 6292   1.250   5.240   1.523
 1871SOL    HW1 6293   1.213   5.173   1.582
 1871SOL    HW2 6294   1.180   5.257   1.460
 1872SOL     OW 6295   0.328   4.673   0.244
 1872SOL    HW1 6296   0.412   4.687   0.200
 1872SOL    HW2 6297   0.316   4.578   0.244
 1873SOL     OW 6298   1.477   4.464   0.727
 1873SOL    HW1 6299   1.468   4.421   0.812
 1873SOL    HW2 6300   1.554   4.520   0.737
 1874SOL     OW 6301   0.463   4.988   1.741
 1874SOL    HW1 6302   0.437   4.991   1.649
 1874SOL    HW2 6303   0.381   4.988   1.790
 1875SOL     OW 6304   1.156   0.162   0.238
 1875SOL    HW1 6305   1.071   0.175   0.280
 1875SOL    HW2 6306   1.134   0.143   0.146
 1876SOL     OW 6307   0.205   4.006   1.497
 1876SOL    HW1 6308   0.125   4.057   1.481
 1876SOL    HW2 6309   0.174   3.929   1.545
 1877SOL     OW 6310   1.630   5.095   0.076
 1877SOL    HW1 6311   1.592   5.181   0.092
 1877SOL    HW2 6312   1.555   5.037   0.062
 1878SOL     OW 6313   1.407   3.835   0.442
 1878SOL    HW1 6314   1.397   3.814   0.349
 1878SOL    HW2 6315   1.501   3.842   0.455
 1879SOL     OW 6316   0.382   4.423   0.476
 1879SOL    HW1 6317   0.414   4.333   0.485
 1879SOL    HW2 6318   0.290   4.419   0.501
 1880SOL     OW 6319   1.537   3.949   1.725
 1880SOL    HW1 6320   1.545   3.970   1.818
 1880SOL    HW2 6321   1.467   3.883   1.722
 1881SOL     OW 6322   0.628   3.835   0.135
 1881SOL    HW1 6323   0.723   3.823   0.141
 1881SOL    HW2 6324   0.607   3.816   0.044
 1882SOL     OW 6325   0.768   4.002   1.753
 1882SOL    HW1 6326   0.842   3.941   1.757
 1882SOL    HW2 6327   0.718   3.983   1.833
 1883SOL     OW 6328   1.341   4.312   1.432
 1883SOL    HW1 6329   1.372   4.281   1.517
 1883SOL    HW2 6330   1.377   4.401   1.424
 1884SOL     OW 6331   0.812   5.121   0.935
 1884SOL    HW1 6332   0.893   5.105   0.886
 1884SOL    HW2 6333   0.744   5.126   0.868
 1885SOL     OW 6334   0.928   4.233   0.903
 1885SOL    HW1 6335   0.904   4.225   0.810
 1885SOL    HW2 6336   0.959   4.146   0.928
 1886SOL     OW 6337   0.560   3.786   0.501
 1886SOL    HW1 6338   0.485   3.786   0.560
 1886SOL    HW2 6339   0.549   3.865   0.448
 1887SOL     OW 6340   1.426   4.925   0.036
 1887SOL    HW1 6341   1.456   4.851   0.089
 1887SOL    HW2 6342   1.340   4.946   0.071
 1888SOL     OW 6343   0.313   3.769   0.173
 1888SOL    HW1 6344   0.376   3.841   0.178
 1888SOL    HW2 6345   0.357   3.696   0.218
 1889SOL     OW 6346   0.940   3.970   0.460
 1889SOL    HW1 6347   0.911   4.012   0.378
 1889SOL    HW2 6348   1.034   3.986   0.463
 1890SOL     OW 6349   1.080   4.404   1.460
 1890SOL    HW1 6350   1.010   4.339   1.465
 1890SOL    HW2 6351   1.160   4.353   1.453
 1891SOL     OW 6352   1.263   5.266   0.781
 1891SOL    HW1 6353   1.225   0.047   0.747
 1891SOL    HW2 6354   1.306   5.292   0.862
 1892SOL     OW 6355   0.465   4.873   0.731
 1892SOL    HW1 6356   0.397   4.853   0.794
 1892SOL    HW2 6357   0.425   4.855   0.646
 1893SOL     OW 6358   1.033   4.255   0.029
 1893SOL    HW1 6359   0.989   4.335   0.000
 1893SOL    HW2 6360   1.094   4.283   0.097
 1894SOL     OW 6361   0.086   4.270   1.398
 1894SOL    HW1 6362   0.174   4.277   1.361
 1894SOL    HW2 6363   0.078   4.346   1.455
 1895SOL     OW 6364   0.560   3.951   1.165
 1895SOL    HW1 6365   0.598   3.871   1.202
 1895SOL    HW2 6366   0.469   3.950   1.193
 1896SOL     OW 6367   0.868   4.183   0.639
 1896SOL    HW1 6368   0.824   4.238   0.575
 1896SOL    HW2 6369   0.889   4.102   0.592
 1897SOL     OW 6370   1.016   3.776   0.751
 1897SOL    HW1 6371   0.956   3.769   0.677
 1897SOL    HW2 6372   0.994   3.701   0.806
 1898SOL     OW 6373   1.437   4.889   0.859
 1898SOL    HW1 6374   1.370   4.821   0.855
 1898SOL    HW2 6375   1.461   4.904   0.767
 1899SOL     OW 6376   1.467   4.328   0.978
 1899SOL    HW1 6377   1.417   4.246   0.982
 1899SOL    HW2 6378   1.527   4.323   1.053
 1900SOL     OW 6379   1.849   4.540   0.388
 1900SOL    HW1 6380   1.900   4.486   0.448
 1900SOL    HW2 6381   1.817   4.478   0.322
 1901SOL     OW 6382   0.474   5.158   0.159
 1901SOL    HW1 6383   0.421   5.107   0.220
 1901SOL    HW2 6384   0.499   5.097   0.090
 1902SOL     OW 6385   1.669   4.988   0.648
 1902SOL    HW1 6386   1.763   4.996   0.666
 1902SOL    HW2 6387   1.635   5.076   0.665
 1903SOL     OW 6388   1.398   4.304   0.087
 1903SOL    HW1 6389   1.336   4.284   0.157
 1903SOL    HW2 6390   1.456   4.228   0.083
 1904SOL     OW 6391   0.516   3.987   0.324
 1904SOL    HW1 6392   0.565   3.935   0.260
 1904SOL    HW2 6393   0.503   4.071   0.281
 1905SOL     OW 6394   1.752   4.959   1.577
 1905SOL    HW1 6395   1.838   4.918   1.576
 1905SOL    HW2 6396   1.770   5.052   1.591
 1906SOL     OW 6397   1.065   5.075   1.332
 1906SOL    HW1 6398   0.986   5.049   1.381
 1906SOL    HW2 6399   1.137   5.035   1.380
 1907SOL     OW 6400   1.125   4.926   1.108
 1907SOL    HW1 6401   1.074   4.967   1.177
 1907SOL    HW2 6402   1.082   4.952   1.027
 1908SOL     OW 6403   1.630   4.823   1.077
 1908SOL    HW1 6404   1.625   4.884   1.150
 1908SOL    HW2 6405   1.551   4.841   1.026
 1909SOL     OW 6406   0.919   3.821   1.398
 1909SOL    HW1 6407   0.940   3.803   1.307
 1909SOL    HW2 6408   0.998   3.861   1.434
 1910SOL     OW 6409   0.984   4.839   1.725
 1910SOL    HW1 6410   0.892   4.854   1.742
 1910SOL    HW2 6411   0.985   4.762   1.667
 1911SOL     OW 6412   0.707   4.780   0.381
 1911SOL    HW1 6413   0.694   4.766   0.475
 1911SOL    HW2 6414   0.788   4.732   0.361
 1912SOL     OW 6415   0.421   4.541   1.251
 1912SOL    HW1 6416   0.489   4.548   1.318
 1912SOL    HW2 6417   0.385   4.453   1.263
 1913SOL     OW 6418   1.266   4.101   1.274
 1913SOL    HW1 6419   1.299   4.179   1.320
 1913SOL    HW2 6420   1.176   4.124   1.251
 1914SOL     OW 6421   0.113   5.286   1.321
 1914SOL    HW1 6422   0.055   0.054   1.356
 1914SOL    HW2 6423   0.192   5.290   1.376
 1915SOL     OW 6424   0.347   4.828   0.488
 1915SOL    HW1 6425   0.344   4.907   0.434
 1915SOL    HW2 6426   0.360   4.757   0.426
 1916SOL     OW 6427   0.555   4.260   0.859
 1916SOL    HW1 6428   0.571   4.319   0.785
 1916SOL    HW2 6429   0.618   4.288   0.926
 1917SOL     OW 6430   1.258   5.072   0.386
 1917SOL    HW1 6431   1.312   5.146   0.412
 1917SOL    HW2 6432   1.169   5.096   0.413
 1918SOL     OW 6433   1.268   5.181   1.142
 1918SOL    HW1 6434   1.327   5.194   1.216
 1918SOL    HW2 6435   1.224   5.098   1.160
 1919SOL     OW 6436   1.583   4.348   0.480
 1919SOL    HW1 6437   1.535   4.400   0.545
 1919SOL    HW2 6438   1.620   4.414   0.420
 1920SOL     OW 6439   0.380   5.233   1.316
 1920SOL    HW1 6440   0.362   5.193   1.231
 1920SOL    HW2 6441   0.473   5.256   1.312
 1921SOL     OW 6442   0.413   4.467   1.602
 1921SOL    HW1 6443   0.473   4.513   1.544
 1921SOL    HW2 6444   0.453   4.381   1.615
 1922SOL     OW 6445   1.600   4.502   1.681
 1922SOL    HW1 6446   1.514   4.543   1.674
 1922SOL    HW2 6447   1.652   4.544   1.613
 1923SOL     OW 6448   0.996   3.845   1.756
 1923SOL    HW1 6449   1.050   3.918   1.726
 1923SOL    HW2 6450   1.045   3.767   1.730
 1924SOL     OW 6451   0.498   3.766   1.747
 1924SOL    HW1 6452   0.456   3.712   1.680
 1924SOL    HW2 6453   0.437   3.839   1.759
 1925SOL     OW 6454   0.586   4.596   1.032
 1925SOL    HW1 6455   0.613   4.688   1.029
 1925SOL    HW2 6456   0.529   4.591   1.109
 1926SOL     OW 6457   1.359   4.582   1.030
 1926SOL    HW1 6458   1.276   4.574   0.983
 1926SOL    HW2 6459   1.398   4.495   1.026
 1927SOL     OW 6460   1.204   4.252   0.271
 1927SOL    HW1 6461   1.212   4.173   0.325
 1927SOL    HW2 6462   1.162   4.316   0.328
 1928SOL     OW 6463   0.302   3.928   1.248
 1928SOL    HW1 6464   0.267   3.953   1.333
 1928SOL    HW2 6465   0.289   3.833   1.243
 1929SOL     OW 6466   0.044   5.022   1.277
 1929SOL    HW1 6467   0.075   4.971   1.352
 1929SOL    HW2 6468   0.045   5.113   1.307
 1930SOL     OW 6469   0.725   4.355   1.059
 1930SOL    HW1 6470   0.799   4.339   1.000
 1930SOL    HW2 6471   0.697   4.444   1.038
 1931SOL     OW 6472   1.734   4.684   1.851
 1931SOL    HW1 6473   1.687   4.623   1.793
 1931SOL    HW2 6474   1.674   4.696   1.925
 1932SOL     OW 6475   0.325   3.787   0.635
 1932SOL    HW1 6476   0.309   3.877   0.665
 1932SOL    HW2 6477   0.330   3.736   0.716
 1933SOL     OW 6478   1.619   4.098   0.370
 1933SOL    HW1 6479   1.644   4.034   0.436
 1933SOL    HW2 6480   1.594   4.175   0.420
 1934SOL     OW 6481   1.028   4.483   0.961
 1934SOL    HW1 6482   1.025   4.501   1.055
 1934SOL    HW2 6483   1.001   4.392   0.953
 1935SOL     OW 6484   1.855   5.214   1.586
 1935SOL    HW1 6485   1.852   5.288   1.525
 1935SOL    HW2 6486   1.924   5.238   1.648
 1936SOL     OW 6487   0.354   4.642   1.806
 1936SOL    HW1 6488   0.435   4.660   1.853
 1936SOL    HW2 6489   0.378   4.577   1.740
 1937SOL     OW 6490   1.520   4.022   0.126
 1937SOL    HW1 6491   1.470   3.942   0.142
 1937SOL    HW2 6492   1.559   4.044   0.211
 1938SOL     OW 6493   1.294   4.549   0.020
 1938SOL    HW1 6494   1.333   4.463   0.040
 1938SOL    HW2 6495   1.354   4.588   8.036
 1939SOL     OW 6496   1.059   5.076   0.830
 1939SOL    HW1 6497   1.064   4.992   0.784
 1939SOL    HW2 6498   1.144   5.117   0.814
 1940SOL     OW 6499   0.316   4.534   0.949
 1940SOL    HW1 6500   0.410   4.551   0.946
 1940SOL    HW2 6501   0.309   4.444   0.982
 1941SOL     OW 6502   0.336   4.249   1.015
 1941SOL    HW1 6503   0.300   4.161   1.000
 1941SOL    HW2 6504   0.410   4.254   0.955
 1942SOL     OW 6505   1.134   4.100   1.681
 1942SOL    HW1 6506   1.087   4.156   1.744
 1942SOL    HW2 6507   1.222   4.138   1.677
 1943SOL     OW 6508   1.161   3.927   1.470
 1943SOL    HW1 6509   1.151   3.990   1.541
 1943SOL    HW2 6510   1.199   3.978   1.399
 1944SOL     OW 6511   0.011   5.052   0.196
 1944SOL    HW1 6512   5.220   5.059   0.168
 1944SOL    HW2 6513   0.017   4.968   0.241
 1945SOL     OW 6514   0.985   4.516   1.227
 1945SOL    HW1 6515   1.039   4.493   1.302
 1945SOL    HW2 6516   0.899   4.480   1.248
 1946SOL     OW 6517   0.033   4.277   1.114
 1946SOL    HW1 6518   0.121   4.259   1.083
 1946SOL    HW2 6519   0.038   4.266   1.209
 1947SOL     OW 6520   0.175   4.237   1.712
 1947SOL    HW1 6521   0.241   4.202   1.652
 1947SOL    HW2 6522   0.145   4.317   1.670
 1948SOL     OW 6523   1.376   4.664   1.659
 1948SOL    HW1 6524   1.397   4.757   1.657
 1948SOL    HW2 6525   1.373   4.638   1.567
 1949SOL     OW 6526   0.818   4.294   0.364
 1949SOL    HW1 6527   0.827   4.222   0.302
 1949SOL    HW2 6528   0.741   4.342   0.334
 1950SOL     OW 6529   1.642   4.325   1.187
 1950SOL    HW1 6530   1.632   4.266   1.261
 1950SOL    HW2 6531   1.729   4.305   1.153
 1951SOL     OW 6532   0.211   5.280   1.732
 1951SOL    HW1 6533   0.179   0.023   1.812
 1951SOL    HW2 6534   0.214   5.187   1.755
 1952SOL     OW 6535   0.699   4.175   1.261
 1952SOL    HW1 6536   0.647   4.101   1.230
 1952SOL    HW2 6537   0.696   4.238   1.189
 1953SOL     OW 6538   0.467   4.214   0.181
 1953SOL    HW1 6539   0.532   4.281   0.201
 1953SOL    HW2 6540   0.383   4.259   0.185
 1954SOL     OW 6541   0.152   4.861   1.472
 1954SOL    HW1 6542   0.148   4.811   1.554
 1954SOL    HW2 6543   0.162   4.795   1.404
 1955SOL     OW 6544   1.328   4.770   1.223
 1955SOL    HW1 6545   1.351   4.708   1.154
 1955SOL    HW2 6546   1.256   4.822   1.186
 1956SOL     OW 6547   1.306   4.573   0.307
 1956SOL    HW1 6548   1.229   4.545   0.357
 1956SOL    HW2 6549   1.281   4.562   0.216
 1957SOL     OW 6550   0.076   4.922   1.030
 1957SOL    HW1 6551   0.064   4.961   1.116
 1957SOL    HW2 6552   5.290   4.927   0.989
 1958SOL     OW 6553   0.750   0.040   1.709
 1958SOL    HW1 6554   0.658   0.062   1.718
 1958SOL    HW2 6555   0.771   0.061   1.618
 1959SOL     OW 6556   0.905   3.815   0.133
 1959SOL    HW1 6557   0.926   3.800   0.041
 1959SOL    HW2 6558   0.968   3.762   0.182
 1960SOL     OW 6559   1.718   3.868   0.510
 1960SOL    HW1 6560   1.791   3.852   0.450
 1960SOL    HW2 6561   1.703   3.783   0.552
 1961SOL     OW 6562   1.277   4.649   0.671
 1961SOL    HW1 6563   1.351   4.587   0.677
 1961SOL    HW2 6564   1.311   4.721   0.619
 1962SOL     OW 6565   0.820   4.994   1.423
 1962SOL    HW1 6566   0.790   5.030   1.506
 1962SOL    HW2 6567   0.744   5.003   1.365
 1963SOL     OW 6568   1.840   3.897   0.967
 1963SOL    HW1 6569   1.869   3.810   0.939
 1963SOL    HW2 6570   1.754   3.907   0.927
 1964SOL     OW 6571   0.270   4.040   0.717
 1964SOL    HW1 6572   0.188   4.085   0.697
 1964SOL    HW2 6573   0.269   4.030   0.812
 1965SOL     OW 6574   1.141   0.020   0.006
 1965SOL    HW1 6575   1.156   5.230   0.035
 1965SOL    HW2 6576   1.143   0.014   7.990
 1966SOL     OW 6577   0.825   4.728   1.371
 1966SOL    HW1 6578   0.869   4.722   1.286
 1966SOL    HW2 6579   0.828   4.821   1.394
 1967SOL     OW 6580   0.917   4.638   0.297
 1967SOL    HW1 6581   0.973   4.665   0.224
 1967SOL    HW2 6582   0.965   4.566   0.338
 1968SOL     OW 6583   0.366   5.028   1.499
 1968SOL    HW1 6584   0.364   5.099   1.435
 1968SOL    HW2 6585   0.291   4.973   1.476
 1969SOL     OW 6586   1.613   5.004   1.282
 1969SOL    HW1 6587   1.669   4.999   1.359
 1969SOL    HW2 6588   1.550   5.074   1.304
 1970SOL     OW 6589   1.053   4.833   0.711
 1970SOL    HW1 6590   0.981   4.781   0.747
 1970SOL    HW2 6591   1.113   4.767   0.675
 1971SOL     OW 6592   1.021   3.964   0.966
 1971SOL    HW1 6593   1.016   3.916   0.883
 1971SOL    HW2 6594   1.015   3.897   1.033
 1972SOL     OW 6595   1.721   4.116   1.380
 1972SOL    HW1 6596   1.793   4.179   1.379
 1972SOL    HW2 6597   1.751   4.045   1.324
 1973SOL     OW 6598   0.269   5.036   0.294
 1973SOL    HW1 6599   0.186   5.051   0.248
 1973SOL    HW2 6600   0.258   5.083   0.377
 1974SOL     OW 6601   0.115   4.741   1.720
 1974SOL    HW1 6602   0.044   4.704   1.771
 1974SOL    HW2 6603   0.195   4.709   1.762
 1975SOL     OW 6604   0.674   3.920   1.499
 1975SOL    HW1 6605   0.757   3.901   1.457
 1975SOL    HW2 6606   0.697   3.951   1.586
 1976SOL     OW 6607   0.041   4.117   0.028
 1976SOL    HW1 6608   0.019   4.029   0.057
 1976SOL    HW2 6609   0.121   4.106   8.056
 1977SOL     OW 6610   1.431   4.582   1.401
 1977SOL    HW1 6611   1.382   4.642   1.345
 1977SOL    HW2 6612   1.520   4.585   1.367
 1978SOL     OW 6613   0.051   3.859   0.219
 1978SOL    HW1 6614   0.052   3.947   0.256
 1978SOL    HW2 6615   0.144   3.836   0.210
 1979SOL     OW 6616   1.182   5.064   0.113
 1979SOL    HW1 6617   1.087   5.048   0.112
 1979SOL    HW2 6618   1.206   5.060   0.206
 1980SOL     OW 6619   0.619   4.555   1.435
 1980SOL    HW1 6620   0.675   4.631   1.419
 1980SOL    HW2 6621   0.680   4.481   1.443
 1981SOL     OW 6622   0.717   4.289   1.705
 1981SOL    HW1 6623   0.757   4.352   1.765
 1981SOL    HW2 6624   0.748   4.203   1.736
 1982SOL     OW 6625   1.472   4.924   1.632
 1982SOL    HW1 6626   1.459   4.936   1.726
 1982SOL    HW2 6627   1.566   4.937   1.619
 1983SOL     OW 6628   1.671   4.606   1.255
 1983SOL    HW1 6629   1.663   4.520   1.212
 1983SOL    HW2 6630   1.660   4.669   1.184
 1984SOL     OW 6631   1.218   4.042   0.459
 1984SOL    HW1 6632   1.283   3.972   0.452
 1984SOL    HW2 6633   1.245   4.093   0.536
 1985SOL     OW 6634   0.590   4.461   0.668
 1985SOL    HW1 6635   0.629   4.548   0.654
 1985SOL    HW2 6636   0.519   4.457   0.604
 1986SOL     OW 6637   1.764   4.085   1.650
 1986SOL    HW1 6638   1.746   4.099   1.557
 1986SOL    HW2 6639   1.692   4.028   1.679
 1987SOL     OW 6640   1.744   4.657   1.512
 1987SOL    HW1 6641   1.742   4.752   1.525
 1987SOL    HW2 6642   1.729   4.646   1.418
 1988SOL     OW 6643   0.906   5.096   0.034
 1988SOL    HW1 6644   0.848   5.079   0.108
 1988SOL    HW2 6645   0.860   5.161   8.061
 1989SOL     OW 6646   0.867   4.690   0.855
 1989SOL    HW1 6647   0.917   4.619   0.896
 1989SOL    HW2 6648   0.833   4.741   0.929
 1990SOL     OW 6649   1.079   4.703   0.088
 1990SOL    HW1 6650   1.061   4.759   0.012
 1990SOL    HW2 6651   1.156   4.652   0.063
 1991SOL     OW 6652   0.220   5.026   1.854
 1991SOL    HW1 6653   0.155   4.959   1.834
 1991SOL    HW2 6654   0.216   5.037   1.949
 1992SOL     OW 6655   0.080   4.931   0.657
 1992SOL    HW1 6656   0.102   4.906   0.746
 1992SOL    HW2 6657   0.165   4.941   0.613
 1993SOL     OW 6658   0.670   5.108   1.609
 1993SOL    HW1 6659   0.594   5.073   1.656
 1993SOL    HW2 6660   0.701   5.181   1.664
 1994SOL     OW 6661   1.813   3.909   1.238
 1994SOL    HW1 6662   1.824   3.815   1.253
 1994SOL    HW2 6663   1.822   3.919   1.143
 1995SOL     OW 6664   0.432   4.162   0.523
 1995SOL    HW1 6665   0.461   4.089   0.469
 1995SOL    HW2 6666   0.386   4.121   0.596
 1996SOL     OW 6667   1.707   5.223   1.119
 1996SOL    HW1 6668   1.633   5.206   1.060
 1996SOL    HW2 6669   1.714   5.143   1.172
 1997SOL     OW 6670   0.335   4.282   1.291
 1997SOL    HW1 6671   0.388   4.223   1.345
 1997SOL    HW2 6672   0.350   4.253   1.201
 1998SOL     OW 6673   1.432   3.949   1.118
 1998SOL    HW1 6674   1.459   3.870   1.165
 1998SOL    HW2 6675   1.380   3.998   1.181
 1999SOL     OW 6676   1.009   3.743   1.143
 1999SOL    HW1 6677   0.954   3.675   1.104
 1999SOL    HW2 6678   1.096   3.706   1.145
 2000SOL     OW 6679   0.796   5.039   0.282
 2000SOL    HW1 6680   0.737   4.969   0.308
 2000SOL    HW2 6681   0.852   5.054   0.359
 2001SOL     OW 6682   0.638   0.002   1.286
 2001SOL    HW1 6683   0.643   0.057   1.364
 2001SOL    HW2 6684   0.729   5.285   1.263
 2002SOL     OW 6685   1.356   3.779   0.183
 2002SOL    HW1 6686   1.379   3.730   0.104
 2002SOL    HW2 6687   1.271   3.744   0.209
 2003SOL     OW 6688   1.297   4.185   0.682
 2003SOL    HW1 6689   1.243   4.264   0.689
 2003SOL    HW2 6690   1.293   4.145   0.769
 2004SOL     OW 6691   1.587   3.927   0.877
 2004SOL    HW1 6692   1.525   3.947   0.948
 2004SOL    HW2 6693   1.586   4.006   0.823
 2005SOL     OW 6694   0.041   4.801   0.304
 2005SOL    HW1 6695   0.133   4.777   0.293
 2005SOL    HW2 6696   5.297   4.718   0.323
 2006SOL     OW 6697   0.234   4.357   1.977
 2006SOL    HW1 6698   0.158   4.326   2.028
 2006SOL    HW2 6699   0.220   4.321   1.890
 2007SOL     OW 6700   0.241   3.999   2.852
 2007SOL    HW1 6701   0.255   3.965   2.940
 2007SOL    HW2 6702   0.157   3.962   2.825
 2008SOL     OW 6703   5.299   4.121   2.515
 2008SOL    HW1 6704   5.206   4.143   2.522
 2008SOL    HW2 6705   5.299   4.030   2.484
 2009SOL     OW 6706   0.572   4.998   3.044
 2009SOL    HW1 6707   0.493   5.005   2.990
 2009SOL    HW2 6708   0.590   5.088   3.071
 2010SOL     OW 6709   1.555   5.232   2.551
 2010SOL    HW1 6710   1.533   5.229   2.644
 2010SOL    HW2 6711   1.476   5.267   2.509
 2011SOL     OW 6712   1.130   4.422   2.564
 2011SOL    HW1 6713   1.179   4.503   2.550
 2011SOL    HW2 6714   1.083   4.437   2.646
 2012SOL     OW 6715   1.766   4.330   2.091
 2012SOL    HW1 6716   1.746   4.322   1.998
 2012SOL    HW2 6717   1.731   4.250   2.131
 2013SOL     OW 6718   0.759   4.868   2.898
 2013SOL    HW1 6719   0.691   4.897   2.959
 2013SOL    HW2 6720   0.787   4.948   2.853
 2014SOL     OW 6721   0.865   4.501   3.684
 2014SOL    HW1 6722   0.854   4.573   3.746
 2014SOL    HW2 6723   0.888   4.544   3.601
 2015SOL     OW 6724   0.686   4.728   2.511
 2015SOL    HW1 6725   0.751   4.715   2.580
 2015SOL    HW2 6726   0.618   4.782   2.551
 2016SOL     OW 6727   0.708   4.873   3.673
 2016SOL    HW1 6728   0.756   4.952   3.697
 2016SOL    HW2 6729   0.624   4.905   3.638
 2017SOL     OW 6730   0.376   5.145   2.915
 2017SOL    HW1 6731   0.281   5.153   2.902
 2017SOL    HW2 6732   0.414   5.200   2.847
 2018SOL     OW 6733   1.455   5.220   3.209
 2018SOL    HW1 6734   1.508   5.293   3.240
 2018SOL    HW2 6735   1.389   5.207   3.277
 2019SOL     OW 6736   0.450   4.124   3.356
 2019SOL    HW1 6737   0.524   4.063   3.357
 2019SOL    HW2 6738   0.373   4.069   3.364
 2020SOL     OW 6739   1.612   4.172   2.602
 2020SOL    HW1 6740   1.537   4.196   2.548
 2020SOL    HW2 6741   1.630   4.250   2.655
 2021SOL     OW 6742   1.133   5.072   3.562
 2021SOL    HW1 6743   1.164   5.072   3.652
 2021SOL    HW2 6744   1.080   4.993   3.555
 2022SOL     OW 6745   0.212   5.151   2.393
 2022SOL    HW1 6746   0.249   5.232   2.428
 2022SOL    HW2 6747   0.134   5.135   2.446
 2023SOL     OW 6748   0.251   4.800   2.738
 2023SOL    HW1 6749   0.263   4.714   2.778
 2023SOL    HW2 6750   0.196   4.848   2.799
 2024SOL     OW 6751   0.584   4.706   1.996
 2024SOL    HW1 6752   0.631   4.754   1.927
 2024SOL    HW2 6753   0.625   4.735   2.077
 2025SOL     OW 6754   1.596   3.846   3.331
 2025SOL    HW1 6755   1.601   3.926   3.278
 2025SOL    HW2 6756   1.582   3.878   3.421
 2026SOL     OW 6757   0.126   4.357   2.440
 2026SOL    HW1 6758   0.088   4.274   2.470
 2026SOL    HW2 6759   0.099   4.421   2.505
 2027SOL     OW 6760   5.300   0.000   1.945
 2027SOL    HW1 6761   0.016   5.212   1.979
 2027SOL    HW2 6762   0.025   0.059   2.016
 2028SOL     OW 6763   1.689   4.642   2.501
 2028SOL    HW1 6764   1.773   4.601   2.482
 2028SOL    HW2 6765   1.668   4.693   2.423
 2029SOL     OW 6766   1.645   4.831   2.292
 2029SOL    HW1 6767   1.730   4.837   2.248
 2029SOL    HW2 6768   1.651   4.892   2.365
 2030SOL     OW 6769   0.130   4.471   3.449
 2030SOL    HW1 6770   0.224   4.486   3.452
 2030SOL    HW2 6771   0.091   4.558   3.460
 2031SOL     OW 6772   0.626   5.095   2.596
 2031SOL    HW1 6773   0.569   5.019   2.597
 2031SOL    HW2 6774   0.600   5.143   2.517
 2032SOL     OW 6775   1.289   4.955   3.288
 2032SOL    HW1 6776   1.324   4.890   3.227
 2032SOL    HW2 6777   1.348   4.952   3.363
 2033SOL     OW 6778   0.821   3.722   2.371
 2033SOL    HW1 6779   0.861   3.807   2.352
 2033SOL    HW2 6780   0.727   3.741   2.377
 2034SOL     OW 6781   0.178   4.669   3.143
 2034SOL    HW1 6782   0.268   4.640   3.129
 2034SOL    HW2 6783   0.134   4.652   3.060
 2035SOL     OW 6784   1.531   4.718   2.059
 2035SOL    HW1 6785   1.462   4.660   2.090
 2035SOL    HW2 6786   1.572   4.752   2.138
 2036SOL     OW 6787   0.334   3.977   3.676
 2036SOL    HW1 6788   0.382   4.059   3.688
 2036SOL    HW2 6789   0.247   3.994   3.712
 2037SOL     OW 6790   1.475   5.146   2.824
 2037SOL    HW1 6791   1.403   5.158   2.885
 2037SOL    HW2 6792   1.463   5.058   2.790
 2038SOL     OW 6793   0.596   4.446   2.127
 2038SOL    HW1 6794   0.604   4.526   2.076
 2038SOL    HW2 6795   0.531   4.466   2.195
 2039SOL     OW 6796   1.279   4.075   2.794
 2039SOL    HW1 6797   1.190   4.042   2.802
 2039SOL    HW2 6798   1.330   4.022   2.856
 2040SOL     OW 6799   0.792   4.341   3.314
 2040SOL    HW1 6800   0.765   4.318   3.403
 2040SOL    HW2 6801   0.751   4.275   3.258
 2041SOL     OW 6802   1.393   4.198   3.540
 2041SOL    HW1 6803   1.395   4.242   3.625
 2041SOL    HW2 6804   1.456   4.126   3.549
 2042SOL     OW 6805   0.956   4.612   3.444
 2042SOL    HW1 6806   1.010   4.541   3.409
 2042SOL    HW2 6807   0.908   4.645   3.368
 2043SOL     OW 6808   0.992   4.137   3.101
 2043SOL    HW1 6809   0.907   4.159   3.139
 2043SOL    HW2 6810   0.971   4.090   3.020
 2044SOL     OW 6811   1.050   4.423   2.288
 2044SOL    HW1 6812   1.066   4.416   2.383
 2044SOL    HW2 6813   0.968   4.376   2.274
 2045SOL     OW 6814   0.073   4.510   2.673
 2045SOL    HW1 6815   0.155   4.515   2.722
 2045SOL    HW2 6816   0.059   4.598   2.639
 2046SOL     OW 6817   0.891   4.072   2.056
 2046SOL    HW1 6818   0.932   4.133   1.995
 2046SOL    HW2 6819   0.908   3.986   2.018
 2047SOL     OW 6820   1.709   4.299   3.690
 2047SOL    HW1 6821   1.671   4.374   3.643
 2047SOL    HW2 6822   1.736   4.239   3.621
 2048SOL     OW 6823   1.376   4.864   2.402
 2048SOL    HW1 6824   1.457   4.850   2.353
 2048SOL    HW2 6825   1.326   4.925   2.348
 2049SOL     OW 6826   0.555   3.908   2.755
 2049SOL    HW1 6827   0.552   3.935   2.847
 2049SOL    HW2 6828   0.551   3.989   2.705
 2050SOL     OW 6829   1.024   5.170   2.332
 2050SOL    HW1 6830   0.945   5.225   2.325
 2050SOL    HW2 6831   1.038   5.160   2.426
 2051SOL     OW 6832   1.800   4.782   2.728
 2051SOL    HW1 6833   1.742   4.765   2.653
 2051SOL    HW2 6834   1.740   4.788   2.803
 2052SOL     OW 6835   1.250   5.240   3.385
 2052SOL    HW1 6836   1.213   5.173   3.444
 2052SOL    HW2 6837   1.179   5.257   3.323
 2053SOL     OW 6838   0.317   4.676   2.109
 2053SOL    HW1 6839   0.399   4.699   2.065
 2053SOL    HW2 6840   0.293   4.591   2.072
 2054SOL     OW 6841   1.477   4.465   2.590
 2054SOL    HW1 6842   1.468   4.421   2.674
 2054SOL    HW2 6843   1.555   4.520   2.600
 2055SOL     OW 6844   0.463   4.988   3.603
 2055SOL    HW1 6845   0.437   4.991   3.511
 2055SOL    HW2 6846   0.381   4.988   3.652
 2056SOL     OW 6847   1.072   0.182   2.070
 2056SOL    HW1 6848   1.077   0.107   2.130
 2056SOL    HW2 6849   1.108   0.149   1.988
 2057SOL     OW 6850   0.205   4.006   3.359
 2057SOL    HW1 6851   0.125   4.057   3.344
 2057SOL    HW2 6852   0.174   3.928   3.407
 2058SOL     OW 6853   1.624   5.100   1.968
 2058SOL    HW1 6854   1.618   5.178   1.914
 2058SOL    HW2 6855   1.555   5.042   1.935
 2059SOL     OW 6856   1.401   3.832   2.294
 2059SOL    HW1 6857   1.391   3.807   2.202
 2059SOL    HW2 6858   1.496   3.838   2.306
 2060SOL     OW 6859   0.386   4.420   2.341
 2060SOL    HW1 6860   0.415   4.329   2.350
 2060SOL    HW2 6861   0.293   4.417   2.362
 2061SOL     OW 6862   1.537   3.950   3.587
 2061SOL    HW1 6863   1.545   3.971   3.680
 2061SOL    HW2 6864   1.467   3.884   3.584
 2062SOL     OW 6865   0.631   3.847   1.968
 2062SOL    HW1 6866   0.704   3.786   1.979
 2062SOL    HW2 6867   0.584   3.815   1.891
 2063SOL     OW 6868   0.768   4.002   3.615
 2063SOL    HW1 6869   0.842   3.941   3.619
 2063SOL    HW2 6870   0.718   3.983   3.695
 2064SOL     OW 6871   1.341   4.313   3.294
 2064SOL    HW1 6872   1.372   4.281   3.379
 2064SOL    HW2 6873   1.377   4.401   3.286
 2065SOL     OW 6874   0.812   5.121   2.797
 2065SOL    HW1 6875   0.893   5.105   2.748
 2065SOL    HW2 6876   0.744   5.126   2.730
 2066SOL     OW 6877   0.928   4.233   2.765
 2066SOL    HW1 6878   0.904   4.225   2.673
 2066SOL    HW2 6879   0.959   4.147   2.790
 2067SOL     OW 6880   0.559   3.785   2.359
 2067SOL    HW1 6881   0.485   3.786   2.419
 2067SOL    HW2 6882   0.549   3.865   2.307
 2068SOL     OW 6883   1.428   4.924   1.901
 2068SOL    HW1 6884   1.459   4.848   1.951
 2068SOL    HW2 6885   1.340   4.940   1.935
 2069SOL     OW 6886   0.305   3.771   2.042
 2069SOL    HW1 6887   0.367   3.835   2.006
 2069SOL    HW2 6888   0.360   3.706   2.086
 2070SOL     OW 6889   0.938   3.970   2.323
 2070SOL    HW1 6890   0.911   4.012   2.242
 2070SOL    HW2 6891   1.033   3.984   2.326
 2071SOL     OW 6892   1.080   4.404   3.322
 2071SOL    HW1 6893   1.010   4.338   3.326
 2071SOL    HW2 6894   1.160   4.353   3.314
 2072SOL     OW 6895   1.264   5.267   2.641
 2072SOL    HW1 6896   1.223   0.049   2.612
 2072SOL    HW2 6897   1.307   5.290   2.723
 2073SOL     OW 6898   0.465   4.873   2.592
 2073SOL    HW1 6899   0.397   4.853   2.656
 2073SOL    HW2 6900   0.425   4.853   2.507
 2074SOL     OW 6901   1.024   4.267   1.884
 2074SOL    HW1 6902   0.982   4.351   1.863
 2074SOL    HW2 6903   1.089   4.289   1.950
 2075SOL     OW 6904   0.087   4.270   3.260
 2075SOL    HW1 6905   0.174   4.277   3.222
 2075SOL    HW2 6906   0.079   4.346   3.317
 2076SOL     OW 6907   0.561   3.951   3.028
 2076SOL    HW1 6908   0.598   3.871   3.064
 2076SOL    HW2 6909   0.469   3.950   3.055
 2077SOL     OW 6910   0.868   4.183   2.502
 2077SOL    HW1 6911   0.822   4.237   2.438
 2077SOL    HW2 6912   0.889   4.102   2.455
 2078SOL     OW 6913   1.015   3.777   2.614
 2078SOL    HW1 6914   0.956   3.769   2.539
 2078SOL    HW2 6915   0.994   3.701   2.669
 2079SOL     OW 6916   1.436   4.890   2.721
 2079SOL    HW1 6917   1.371   4.820   2.717
 2079SOL    HW2 6918   1.462   4.903   2.630
 2080SOL     OW 6919   1.467   4.328   2.840
 2080SOL    HW1 6920   1.417   4.246   2.844
 2080SOL    HW2 6921   1.527   4.323   2.915
 2081SOL     OW 6922   1.846   4.541   2.244
 2081SOL    HW1 6923   1.902   4.489   2.302
 2081SOL    HW2 6924   1.817   4.479   2.177
 2082SOL     OW 6925   0.484   5.142   2.018
 2082SOL    HW1 6926   0.420   5.093   2.069
 2082SOL    HW2 6927   0.479   5.105   1.930
 2083SOL     OW 6928   1.669   4.987   2.509
 2083SOL    HW1 6929   1.763   4.994   2.526
 2083SOL    HW2 6930   1.635   5.075   2.526
 2084SOL     OW 6931   1.394   4.296   1.933
 2084SOL    HW1 6932   1.333   4.276   2.005
 2084SOL    HW2 6933   1.479   4.263   1.964
 2085SOL     OW 6934   0.524   3.987   2.181
 2085SOL    HW1 6935   0.568   3.939   2.110
 2085SOL    HW2 6936   0.503   4.072   2.142
 2086SOL     OW 6937   1.752   4.959   3.439
 2086SOL    HW1 6938   1.838   4.918   3.439
 2086SOL    HW2 6939   1.770   5.052   3.453
 2087SOL     OW 6940   1.065   5.075   3.194
 2087SOL    HW1 6941   0.986   5.049   3.242
 2087SOL    HW2 6942   1.137   5.035   3.242
 2088SOL     OW 6943   1.125   4.926   2.970
 2088SOL    HW1 6944   1.074   4.966   3.039
 2088SOL    HW2 6945   1.081   4.951   2.889
 2089SOL     OW 6946   1.630   4.823   2.939
 2089SOL    HW1 6947   1.625   4.884   3.012
 2089SOL    HW2 6948   1.551   4.841   2.888
 2090SOL     OW 6949   0.919   3.821   3.260
 2090SOL    HW1 6950   0.940   3.802   3.169
 2090SOL    HW2 6951   0.998   3.861   3.296
 2091SOL     OW 6952   0.984   4.839   3.587
 2091SOL    HW1 6953   0.892   4.854   3.604
 2091SOL    HW2 6954   0.985   4.762   3.529
 2092SOL     OW 6955   0.703   4.780   2.235
 2092SOL    HW1 6956   0.694   4.766   2.329
 2092SOL    HW2 6957   0.782   4.731   2.211
 2093SOL     OW 6958   0.421   4.541   3.113
 2093SOL    HW1 6959   0.489   4.548   3.180
 2093SOL    HW2 6960   0.385   4.453   3.124
 2094SOL     OW 6961   1.266   4.101   3.137
 2094SOL    HW1 6962   1.298   4.179   3.182
 2094SOL    HW2 6963   1.176   4.124   3.113
 2095SOL     OW 6964   0.113   5.289   3.181
 2095SOL    HW1 6965   0.053   0.051   3.222
 2095SOL    HW2 6966   0.190   5.290   3.238
 2096SOL     OW 6967   0.345   4.827   2.350
 2096SOL    HW1 6968   0.352   4.906   2.296
 2096SOL    HW2 6969   0.354   4.755   2.288
 2097SOL     OW 6970   0.555   4.260   2.721
 2097SOL    HW1 6971   0.571   4.319   2.647
 2097SOL    HW2 6972   0.619   4.288   2.788
 2098SOL     OW 6973   1.260   5.076   2.247
 2098SOL    HW1 6974   1.316   5.143   2.286
 2098SOL    HW2 6975   1.171   5.098   2.277
 2099SOL     OW 6976   1.268   5.181   3.003
 2099SOL    HW1 6977   1.327   5.194   3.078
 2099SOL    HW2 6978   1.224   5.098   3.022
 2100SOL     OW 6979   1.582   4.348   2.340
 2100SOL    HW1 6980   1.536   4.403   2.404
 2100SOL    HW2 6981   1.628   4.409   2.283
 2101SOL     OW 6982   0.380   5.232   3.178
 2101SOL    HW1 6983   0.362   5.192   3.093
 2101SOL    HW2 6984   0.473   5.256   3.174
 2102SOL     OW 6985   0.413   4.467   3.464
 2102SOL    HW1 6986   0.473   4.513   3.406
 2102SOL    HW2 6987   0.453   4.381   3.477
 2103SOL     OW 6988   1.600   4.502   3.543
 2103SOL    HW1 6989   1.514   4.543   3.536
 2103SOL    HW2 6990   1.652   4.544   3.475
 2104SOL     OW 6991   0.996   3.845   3.618
 2104SOL    HW1 6992   1.050   3.918   3.588
 2104SOL    HW2 6993   1.045   3.767   3.592
 2105SOL     OW 6994   0.498   3.766   3.609
 2105SOL    HW1 6995   0.456   3.712   3.542
 2105SOL    HW2 6996   0.437   3.839   3.621
 2106SOL     OW 6997   0.585   4.597   2.894
 2106SOL    HW1 6998   0.613   4.688   2.891
 2106SOL    HW2 6999   0.528   4.591   2.971
 2107SOL     OW 7000   1.359   4.582   2.892
 2107SOL    HW1 7001   1.276   4.573   2.845
 2107SOL    HW2 7002   1.398   4.495   2.888
 2108SOL     OW 7003   1.206   4.253   2.130
 2108SOL    HW1 7004   1.214   4.174   2.184
 2108SOL    HW2 7005   1.163   4.317   2.186
 2109SOL     OW 7006   0.302   3.927   3.110
 2109SOL    HW1 7007   0.267   3.953   3.195
 2109SOL    HW2 7008   0.289   3.833   3.106
 2110SOL     OW 7009   0.045   5.022   3.139
 2110SOL    HW1 7010   0.075   4.972   3.214
 2110SOL    HW2 7011   0.045   5.113   3.168
 2111SOL     OW 7012   0.725   4.356   2.921
 2111SOL    HW1 7013   0.799   4.339   2.862
 2111SOL    HW2 7014   0.697   4.444   2.899
 2112SOL     OW 7015   1.734   4.684   3.713
 2112SOL    HW1 7016   1.688   4.623   3.655
 2112SOL    HW2 7017   1.674   4.696   3.787
 2113SOL     OW 7018   0.327   3.786   2.496
 2113SOL    HW1 7019   0.307   3.875   2.524
 2113SOL    HW2 7020   0.330   3.736   2.578
 2114SOL     OW 7021   1.615   4.097   2.230
 2114SOL    HW1 7022   1.643   4.034   2.296
 2114SOL    HW2 7023   1.593   4.176   2.280
 2115SOL     OW 7024   1.027   4.483   2.823
 2115SOL    HW1 7025   1.025   4.501   2.917
 2115SOL    HW2 7026   1.001   4.392   2.815
 2116SOL     OW 7027   1.855   5.214   3.448
 2116SOL    HW1 7028   1.852   5.288   3.387
 2116SOL    HW2 7029   1.924   5.238   3.510
 2117SOL     OW 7030   0.354   4.642   3.668
 2117SOL    HW1 7031   0.435   4.660   3.715
 2117SOL    HW2 7032   0.378   4.577   3.602
 2118SOL     OW 7033   1.530   3.997   1.989
 2118SOL    HW1 7034   1.465   3.932   2.016
 2118SOL    HW2 7035   1.563   4.033   2.072
 2119SOL     OW 7036   1.293   4.551   1.894
 2119SOL    HW1 7037   1.335   4.465   1.897
 2119SOL    HW2 7038   1.324   4.590   1.812
 2120SOL     OW 7039   1.059   5.077   2.690
 2120SOL    HW1 7040   1.064   4.992   2.646
 2120SOL    HW2 7041   1.145   5.116   2.676
 2121SOL     OW 7042   0.315   4.534   2.811
 2121SOL    HW1 7043   0.409   4.551   2.808
 2121SOL    HW2 7044   0.309   4.444   2.844
 2122SOL     OW 7045   0.336   4.249   2.876
 2122SOL    HW1 7046   0.300   4.161   2.862
 2122SOL    HW2 7047   0.410   4.255   2.817
 2123SOL     OW 7048   1.134   4.100   3.543
 2123SOL    HW1 7049   1.087   4.156   3.606
 2123SOL    HW2 7050   1.222   4.138   3.539
 2124SOL     OW 7051   1.161   3.927   3.332
 2124SOL    HW1 7052   1.150   3.990   3.404
 2124SOL    HW2 7053   1.199   3.978   3.261
 2125SOL     OW 7054   0.003   5.049   2.070
 2125SOL    HW1 7055   5.225   5.040   2.015
 2125SOL    HW2 7056   0.013   4.964   2.111
 2126SOL     OW 7057   0.985   4.517   3.089
 2126SOL    HW1 7058   1.039   4.493   3.164
 2126SOL    HW2 7059   0.899   4.479   3.110
 2127SOL     OW 7060   0.033   4.282   2.976
 2127SOL    HW1 7061   0.120   4.258   2.944
 2127SOL    HW2 7062   0.038   4.266   3.071
 2128SOL     OW 7063   0.175   4.237   3.574
 2128SOL    HW1 7064   0.241   4.202   3.514
 2128SOL    HW2 7065   0.145   4.317   3.532
 2129SOL     OW 7066   1.376   4.664   3.521
 2129SOL    HW1 7067   1.397   4.757   3.518
 2129SOL    HW2 7068   1.373   4.638   3.429
 2130SOL     OW 7069   0.816   4.293   2.220
 2130SOL    HW1 7070   0.820   4.218   2.161
 2130SOL    HW2 7071   0.742   4.345   2.189
 2131SOL     OW 7072   1.642   4.325   3.049
 2131SOL    HW1 7073   1.632   4.266   3.123
 2131SOL    HW2 7074   1.729   4.305   3.015
 2132SOL     OW 7075   0.211   5.280   3.594
 2132SOL    HW1 7076   0.179   0.024   3.673
 2132SOL    HW2 7077   0.214   5.187   3.617
 2133SOL     OW 7078   0.699   4.175   3.123
 2133SOL    HW1 7079   0.647   4.101   3.093
 2133SOL    HW2 7080   0.696   4.238   3.051
 2134SOL     OW 7081   0.466   4.217   2.048
 2134SOL    HW1 7082   0.525   4.289   2.069
 2134SOL    HW2 7083   0.380   4.259   2.037
 2135SOL     OW 7084   0.151   4.861   3.334
 2135SOL    HW1 7085   0.148   4.811   3.415
 2135SOL    HW2 7086   0.162   4.795   3.266
 2136SOL     OW 7087   1.328   4.770   3.085
 2136SOL    HW1 7088   1.351   4.708   3.016
 2136SOL    HW2 7089   1.256   4.822   3.048
 2137SOL     OW 7090   1.310   4.582   2.169
 2137SOL    HW1 7091   1.234   4.550   2.218
 2137SOL    HW2 7092   1.286   4.567   2.077
 2138SOL     OW 7093   0.077   4.922   2.892
 2138SOL    HW1 7094   0.065   4.961   2.978
 2138SOL    HW2 7095   5.290   4.926   2.852
 2139SOL     OW 7096   0.750   0.040   3.571
 2139SOL    HW1 7097   0.658   0.062   3.580
 2139SOL    HW2 7098   0.771   0.061   3.480
 2140SOL     OW 7099   1.718   3.869   2.372
 2140SOL    HW1 7100   1.792   3.855   2.313
 2140SOL    HW2 7101   1.703   3.784   2.412
 2141SOL     OW 7102   1.277   4.649   2.533
 2141SOL    HW1 7103   1.350   4.588   2.540
 2141SOL    HW2 7104   1.311   4.721   2.481
 2142SOL     OW 7105   0.820   4.994   3.285
 2142SOL    HW1 7106   0.791   5.030   3.368
 2142SOL    HW2 7107   0.744   5.002   3.227
 2143SOL     OW 7108   1.840   3.897   2.829
 2143SOL    HW1 7109   1.870   3.810   2.802
 2143SOL    HW2 7110   1.754   3.907   2.789
 2144SOL     OW 7111   0.272   4.041   2.580
 2144SOL    HW1 7112   0.188   4.080   2.558
 2144SOL    HW2 7113   0.270   4.030   2.675
 2145SOL     OW 7114   0.825   4.728   3.233
 2145SOL    HW1 7115   0.869   4.722   3.149
 2145SOL    HW2 7116   0.828   4.821   3.255
 2146SOL     OW 7117   0.915   4.635   2.152
 2146SOL    HW1 7118   0.977   4.668   2.086
 2146SOL    HW2 7119   0.963   4.565   2.196
 2147SOL     OW 7120   0.366   5.028   3.361
 2147SOL    HW1 7121   0.365   5.099   3.297
 2147SOL    HW2 7122   0.291   4.973   3.338
 2148SOL     OW 7123   1.612   5.004   3.144
 2148SOL    HW1 7124   1.669   4.999   3.221
 2148SOL    HW2 7125   1.550   5.074   3.166
 2149SOL     OW 7126   1.053   4.833   2.572
 2149SOL    HW1 7127   0.981   4.781   2.609
 2149SOL    HW2 7128   1.114   4.767   2.538
 2150SOL     OW 7129   1.021   3.964   2.828
 2150SOL    HW1 7130   1.016   3.916   2.745
 2150SOL    HW2 7131   1.015   3.897   2.895
 2151SOL     OW 7132   1.721   4.116   3.242
 2151SOL    HW1 7133   1.793   4.179   3.241
 2151SOL    HW2 7134   1.751   4.044   3.186
 2152SOL     OW 7135   0.259   5.060   2.147
 2152SOL    HW1 7136   0.166   5.064   2.124
 2152SOL    HW2 7137   0.262   5.097   2.236
 2153SOL     OW 7138   0.115   4.741   3.582
 2153SOL    HW1 7139   0.044   4.704   3.633
 2153SOL    HW2 7140   0.195   4.709   3.624
 2154SOL     OW 7141   0.674   3.920   3.361
 2154SOL    HW1 7142   0.757   3.901   3.319
 2154SOL    HW2 7143   0.697   3.951   3.448
 2155SOL     OW 7144   0.081   4.075   1.903
 2155SOL    HW1 7145   0.002   4.027   1.879
 2155SOL    HW2 7146   0.098   4.132   1.828
 2156SOL     OW 7147   1.431   4.582   3.263
 2156SOL    HW1 7148   1.382   4.642   3.207
 2156SOL    HW2 7149   1.520   4.584   3.229
 2157SOL     OW 7150   0.055   3.857   2.105
 2157SOL    HW1 7151   0.054   3.953   2.099
 2157SOL    HW2 7152   0.146   3.833   2.085
 2158SOL     OW 7153   1.182   5.065   1.982
 2158SOL    HW1 7154   1.091   5.036   1.982
 2158SOL    HW2 7155   1.210   5.057   2.073
 2159SOL     OW 7156   0.619   4.555   3.297
 2159SOL    HW1 7157   0.675   4.631   3.281
 2159SOL    HW2 7158   0.679   4.481   3.305
 2160SOL     OW 7159   0.717   4.289   3.567
 2160SOL    HW1 7160   0.757   4.352   3.627
 2160SOL    HW2 7161   0.748   4.203   3.598
 2161SOL     OW 7162   1.472   4.924   3.494
 2161SOL    HW1 7163   1.459   4.936   3.588
 2161SOL    HW2 7164   1.566   4.937   3.481
 2162SOL     OW 7165   1.670   4.606   3.117
 2162SOL    HW1 7166   1.663   4.520   3.075
 2162SOL    HW2 7167   1.661   4.669   3.046
 2163SOL     OW 7168   1.217   4.043   2.320
 2163SOL    HW1 7169   1.281   3.972   2.311
 2163SOL    HW2 7170   1.246   4.092   2.397
 2164SOL     OW 7171   0.591   4.462   2.530
 2164SOL    HW1 7172   0.629   4.549   2.515
 2164SOL    HW2 7173   0.521   4.455   2.465
 2165SOL     OW 7174   1.764   4.084   3.512
 2165SOL    HW1 7175   1.746   4.100   3.419
 2165SOL    HW2 7176   1.692   4.029   3.541
 2166SOL     OW 7177   1.744   4.657   3.374
 2166SOL    HW1 7178   1.742   4.752   3.387
 2166SOL    HW2 7179   1.729   4.646   3.280
 2167SOL     OW 7180   0.849   5.095   1.881
 2167SOL    HW1 7181   0.830   5.096   1.974
 2167SOL    HW2 7182   0.869   5.186   1.859
 2168SOL     OW 7183   0.868   4.691   2.717
 2168SOL    HW1 7184   0.917   4.619   2.758
 2168SOL    HW2 7185   0.833   4.741   2.791
 2169SOL     OW 7186   1.080   4.713   1.951
 2169SOL    HW1 7187   1.057   4.763   1.873
 2169SOL    HW2 7188   1.155   4.659   1.925
 2170SOL     OW 7189   0.220   5.026   3.716
 2170SOL    HW1 7190   0.155   4.959   3.697
 2170SOL    HW2 7191   0.216   5.037   3.811
 2171SOL     OW 7192   0.081   4.931   2.518
 2171SOL    HW1 7193   0.100   4.909   2.609
 2171SOL    HW2 7194   0.168   4.937   2.477
 2172SOL     OW 7195   0.670   5.108   3.471
 2172SOL    HW1 7196   0.594   5.073   3.518
 2172SOL    HW2 7197   0.701   5.181   3.525
 2173SOL     OW 7198   1.813   3.908   3.100
 2173SOL    HW1 7199   1.824   3.814   3.114
 2173SOL    HW2 7200   1.822   3.919   3.005
 2174SOL     OW 7201   0.434   4.160   2.386
 2174SOL    HW1 7202   0.461   4.087   2.330
 2174SOL    HW2 7203   0.387   4.118   2.458
 2175SOL     OW 7204   1.707   5.223   2.981
 2175SOL    HW1 7205   1.633   5.206   2.922
 2175SOL    HW2 7206   1.714   5.143   3.034
 2176SOL     OW 7207   0.335   4.282   3.153
 2176SOL    HW1 7208   0.388   4.223   3.206
 2176SOL    HW2 7209   0.350   4.253   3.063
 2177SOL     OW 7210   1.432   3.949   2.980
 2177SOL    HW1 7211   1.459   3.870   3.026
 2177SOL    HW2 7212   1.380   3.997   3.044
 2178SOL     OW 7213   1.009   3.743   3.006
 2178SOL    HW1 7214   0.954   3.675   2.966
 2178SOL    HW2 7215   1.097   3.706   3.007
 2179SOL     OW 7216   0.803   5.047   2.146
 2179SOL    HW1 7217   0.740   4.977   2.165
 2179SOL    HW2 7218   0.856   5.053   2.225
 2180SOL     OW 7219   0.638   0.002   3.148
 2180SOL    HW1 7220   0.643   0.057   3.226
 2180SOL    HW2 7221   0.729   5.285   3.126
 2181SOL     OW 7222   1.352   3.778   2.027
 2181SOL    HW1 7223   1.379   3.716   1.959
 2181SOL    HW2 7224   1.265   3.747   2.053
 2182SOL     OW 7225   1.297   4.184   2.544
 2182SOL    HW1 7226   1.243   4.263   2.551
 2182SOL    HW2 7227   1.293   4.145   2.631
 2183SOL     OW 7228   1.587   3.927   2.739
 2183SOL    HW1 7229   1.525   3.947   2.810
 2183SOL    HW2 7230   1.586   4.006   2.684
 2184SOL     OW 7231   0.047   4.791   2.152
 2184SOL    HW1 7232   0.137   4.761   2.143
 2184SOL    HW2 7233   0.000   4.716   2.189
 2185SOL     OW 7234   0.234   4.357   3.839
 2185SOL    HW1 7235   0.158   4.326   3.890
 2185SOL    HW2 7236   0.220   4.321   3.752
 2186SOL     OW 7237   0.241   3.999   4.714
 2186SOL    HW1 7238   0.255   3.965   4.802
 2186SOL    HW2 7239   0.157   3.962   4.687
 2187SOL     OW 7240   5.299   4.121   4.377
 2187SOL    HW1 7241   5.206   4.143   4.384
 2187SOL    HW2 7242   5.299   4.030   4.346
 2188SOL     OW 7243   0.572   4.998   4.906
 2188SOL    HW1 7244   0.493   5.005   4.852
 2188SOL    HW2 7245   0.590   5.088   4.933
 2189SOL     OW 7246   1.554   5.232   4.413
 2189SOL    HW1 7247   1.533   5.229   4.506
 2189SOL    HW2 7248   1.476   5.267   4.371
 2190SOL     OW 7249   1.130   4.422   4.426
 2190SOL    HW1 7250   1.179   4.503   4.412
 2190SOL    HW2 7251   1.083   4.437   4.508
 2191SOL     OW 7252   1.765   4.330   3.953
 2191SOL    HW1 7253   1.745   4.322   3.860
 2191SOL    HW2 7254   1.731   4.250   3.992
 2192SOL     OW 7255   0.759   4.868   4.760
 2192SOL    HW1 7256   0.691   4.897   4.821
 2192SOL    HW2 7257   0.787   4.948   4.715
 2193SOL     OW 7258   0.865   4.501   5.546
 2193SOL    HW1 7259   0.854   4.573   5.608
 2193SOL    HW2 7260   0.888   4.544   5.463
 2194SOL     OW 7261   0.686   4.728   4.373
 2194SOL    HW1 7262   0.751   4.715   4.442
 2194SOL    HW2 7263   0.618   4.782   4.413
 2195SOL     OW 7264   0.708   4.873   5.535
 2195SOL    HW1 7265   0.756   4.952   5.559
 2195SOL    HW2 7266   0.624   4.905   5.500
 2196SOL     OW 7267   0.376   5.145   4.777
 2196SOL    HW1 7268   0.281   5.153   4.764
 2196SOL    HW2 7269   0.414   5.201   4.709
 2197SOL     OW 7270   1.455   5.220   5.071
 2197SOL    HW1 7271   1.508   5.293   5.102
 2197SOL    HW2 7272   1.389   5.207   5.139
 2198SOL     OW 7273   0.450   4.124   5.218
 2198SOL    HW1 7274   0.524   4.063   5.219
 2198SOL    HW2 7275   0.373   4.069   5.226
 2199SOL     OW 7276   1.612   4.172   4.464
 2199SOL    HW1 7277   1.537   4.196   4.410
 2199SOL    HW2 7278   1.630   4.250   4.517
 2200SOL     OW 7279   1.133   5.072   5.424
 2200SOL    HW1 7280   1.164   5.072   5.514
 2200SOL    HW2 7281   1.080   4.993   5.417
 2201SOL     OW 7282   0.212   5.151   4.255
 2201SOL    HW1 7283   0.249   5.232   4.290
 2201SOL    HW2 7284   0.134   5.135   4.308
 2202SOL     OW 7285   0.251   4.800   4.600
 2202SOL    HW1 7286   0.263   4.714   4.640
 2202SOL    HW2 7287   0.196   4.848   4.661
 2203SOL     OW 7288   0.584   4.706   3.858
 2203SOL    HW1 7289   0.631   4.754   3.789
 2203SOL    HW2 7290   0.625   4.735   3.939
 2204SOL     OW 7291   1.596   3.846   5.193
 2204SOL    HW1 7292   1.600   3.927   5.141
 2204SOL    HW2 7293   1.583   3.877   5.283
 2205SOL     OW 7294   0.126   4.357   4.302
 2205SOL    HW1 7295   0.088   4.274   4.332
 2205SOL    HW2 7296   0.099   4.421   4.367
 2206SOL     OW 7297   5.299   0.000   3.807
 2206SOL    HW1 7298   0.016   5.212   3.841
 2206SOL    HW2 7299   0.025   0.059   3.878
 2207SOL     OW 7300   1.689   4.642   4.363
 2207SOL    HW1 7301   1.773   4.601   4.343
 2207SOL    HW2 7302   1.668   4.693   4.285
 2208SOL     OW 7303   1.645   4.831   4.154
 2208SOL    HW1 7304   1.730   4.837   4.110
 2208SOL    HW2 7305   1.651   4.892   4.227
 2209SOL     OW 7306   0.130   4.471   5.311
 2209SOL    HW1 7307   0.224   4.486   5.314
 2209SOL    HW2 7308   0.091   4.558   5.322
 2210SOL     OW 7309   0.626   5.095   4.458
 2210SOL    HW1 7310   0.569   5.019   4.459
 2210SOL    HW2 7311   0.600   5.143   4.379
 2211SOL     OW 7312   1.289   4.955   5.150
 2211SOL    HW1 7313   1.324   4.890   5.089
 2211SOL    HW2 7314   1.348   4.952   5.225
 2212SOL     OW 7315   0.821   3.722   4.233
 2212SOL    HW1 7316   0.861   3.807   4.214
 2212SOL    HW2 7317   0.728   3.741   4.239
 2213SOL     OW 7318   0.178   4.669   5.005
 2213SOL    HW1 7319   0.268   4.640   4.991
 2213SOL    HW2 7320   0.134   4.652   4.922
 2214SOL     OW 7321   1.531   4.718   3.921
 2214SOL    HW1 7322   1.461   4.660   3.952
 2214SOL    HW2 7323   1.572   4.752   4.000
 2215SOL     OW 7324   0.334   3.977   5.538
 2215SOL    HW1 7325   0.382   4.059   5.551
 2215SOL    HW2 7326   0.247   3.994   5.574
 2216SOL     OW 7327   1.475   5.146   4.686
 2216SOL    HW1 7328   1.403   5.158   4.747
 2216SOL    HW2 7329   1.463   5.058   4.652
 2217SOL     OW 7330   0.596   4.446   3.989
 2217SOL    HW1 7331   0.604   4.526   3.938
 2217SOL    HW2 7332   0.531   4.467   4.057
 2218SOL     OW 7333   1.279   4.075   4.656
 2218SOL    HW1 7334   1.190   4.042   4.664
 2218SOL    HW2 7335   1.330   4.022   4.718
 2219SOL     OW 7336   0.792   4.341   5.176
 2219SOL    HW1 7337   0.765   4.318   5.265
 2219SOL    HW2 7338   0.751   4.275   5.120
 2220SOL     OW 7339   1.394   4.198   5.402
 2220SOL    HW1 7340   1.395   4.242   5.487
 2220SOL    HW2 7341   1.456   4.126   5.411
 2221SOL     OW 7342   0.956   4.612   5.306
 2221SOL    HW1 7343   1.010   4.541   5.271
 2221SOL    HW2 7344   0.908   4.645   5.230
 2222SOL     OW 7345   0.992   4.137   4.963
 2222SOL    HW1 7346   0.907   4.159   5.001
 2222SOL    HW2 7347   0.971   4.090   4.882
 2223SOL     OW 7348   1.050   4.423   4.150
 2223SOL    HW1 7349   1.066   4.416   4.245
 2223SOL    HW2 7350   0.968   4.376   4.136
 2224SOL     OW 7351   0.073   4.510   4.535
 2224SOL    HW1 7352   0.155   4.515   4.584
 2224SOL    HW2 7353   0.059   4.598   4.501
 2225SOL     OW 7354   0.891   4.072   3.918
 2225SOL    HW1 7355   0.932   4.133   3.857
 2225SOL    HW2 7356   0.908   3.986   3.880
 2226SOL     OW 7357   1.709   4.299   5.552
 2226SOL    HW1 7358   1.672   4.374   5.505
 2226SOL    HW2 7359   1.736   4.239   5.483
 2227SOL     OW 7360   1.376   4.864   4.264
 2227SOL    HW1 7361   1.457   4.850   4.215
 2227SOL    HW2 7362   1.326   4.925   4.210
 2228SOL     OW 7363   0.555   3.908   4.617
 2228SOL    HW1 7364   0.552   3.935   4.709
 2228SOL    HW2 7365   0.551   3.989   4.567
 2229SOL     OW 7366   1.024   5.170   4.194
 2229SOL    HW1 7367   0.945   5.225   4.187
 2229SOL    HW2 7368   1.038   5.160   4.288
 2230SOL     OW 7369   1.800   4.782   4.590
 2230SOL    HW1 7370   1.742   4.765   4.515
 2230SOL    HW2 7371   1.740   4.788   4.665
 2231SOL     OW 7372   1.250   5.240   5.247
 2231SOL    HW1 7373   1.213   5.173   5.306
 2231SOL    HW2 7374   1.179   5.257   5.184
 2232SOL     OW 7375   0.317   4.676   3.970
 2232SOL    HW1 7376   0.399   4.699   3.927
 2232SOL    HW2 7377   0.293   4.591   3.934
 2233SOL     OW 7378   1.477   4.465   4.452
 2233SOL    HW1 7379   1.468   4.421   4.536
 2233SOL    HW2 7380   1.555   4.520   4.462
 2234SOL     OW 7381   0.463   4.988   5.465
 2234SOL    HW1 7382   0.437   4.991   5.373
 2234SOL    HW2 7383   0.381   4.988   5.514
 2235SOL     OW 7384   1.071   0.182   3.932
 2235SOL    HW1 7385   1.078   0.108   3.993
 2235SOL    HW2 7386   1.110   0.150   3.851
 2236SOL     OW 7387   0.205   4.006   5.221
 2236SOL    HW1 7388   0.125   4.057   5.206
 2236SOL    HW2 7389   0.174   3.928   5.269
 2237SOL     OW 7390   1.623   5.100   3.830
 2237SOL    HW1 7391   1.618   5.178   3.775
 2237SOL    HW2 7392   1.555   5.042   3.797
 2238SOL     OW 7393   1.401   3.831   4.156
 2238SOL    HW1 7394   1.391   3.807   4.064
 2238SOL    HW2 7395   1.496   3.839   4.168
 2239SOL     OW 7396   0.386   4.420   4.203
 2239SOL    HW1 7397   0.415   4.329   4.212
 2239SOL    HW2 7398   0.293   4.417   4.224
 2240SOL     OW 7399   1.537   3.949   5.449
 2240SOL    HW1 7400   1.545   3.970   5.542
 2240SOL    HW2 7401   1.467   3.883   5.446
 2241SOL     OW 7402   0.631   3.847   3.830
 2241SOL    HW1 7403   0.704   3.786   3.841
 2241SOL    HW2 7404   0.584   3.815   3.753
 2242SOL     OW 7405   0.768   4.002   5.477
 2242SOL    HW1 7406   0.842   3.941   5.481
 2242SOL    HW2 7407   0.718   3.983   5.557
 2243SOL     OW 7408   1.341   4.312   5.156
 2243SOL    HW1 7409   1.372   4.281   5.241
 2243SOL    HW2 7410   1.377   4.401   5.148
 2244SOL     OW 7411   0.812   5.121   4.659
 2244SOL    HW1 7412   0.893   5.105   4.610
 2244SOL    HW2 7413   0.744   5.126   4.592
 2245SOL     OW 7414   0.928   4.234   4.627
 2245SOL    HW1 7415   0.904   4.225   4.535
 2245SOL    HW2 7416   0.959   4.147   4.652
 2246SOL     OW 7417   0.559   3.785   4.221
 2246SOL    HW1 7418   0.485   3.785   4.281
 2246SOL    HW2 7419   0.549   3.865   4.169
 2247SOL     OW 7420   1.428   4.923   3.763
 2247SOL    HW1 7421   1.459   4.848   3.813
 2247SOL    HW2 7422   1.340   4.940   3.797
 2248SOL     OW 7423   0.305   3.771   3.904
 2248SOL    HW1 7424   0.367   3.835   3.868
 2248SOL    HW2 7425   0.360   3.706   3.948
 2249SOL     OW 7426   0.939   3.970   4.185
 2249SOL    HW1 7427   0.911   4.012   4.104
 2249SOL    HW2 7428   1.033   3.984   4.188
 2250SOL     OW 7429   1.080   4.404   5.184
 2250SOL    HW1 7430   1.010   4.338   5.188
 2250SOL    HW2 7431   1.160   4.353   5.177
 2251SOL     OW 7432   1.264   5.267   4.503
 2251SOL    HW1 7433   1.224   0.049   4.474
 2251SOL    HW2 7434   1.307   5.290   4.585
 2252SOL     OW 7435   0.465   4.873   4.454
 2252SOL    HW1 7436   0.397   4.853   4.518
 2252SOL    HW2 7437   0.425   4.853   4.369
 2253SOL     OW 7438   1.024   4.267   3.746
 2253SOL    HW1 7439   0.982   4.351   3.725
 2253SOL    HW2 7440   1.089   4.289   3.812
 2254SOL     OW 7441   0.086   4.270   5.122
 2254SOL    HW1 7442   0.174   4.277   5.085
 2254SOL    HW2 7443   0.079   4.346   5.179
 2255SOL     OW 7444   0.561   3.951   4.890
 2255SOL    HW1 7445   0.598   3.871   4.926
 2255SOL    HW2 7446   0.469   3.950   4.917
 2256SOL     OW 7447   0.869   4.183   4.364
 2256SOL    HW1 7448   0.822   4.237   4.300
 2256SOL    HW2 7449   0.889   4.102   4.317
 2257SOL     OW 7450   1.015   3.777   4.476
 2257SOL    HW1 7451   0.956   3.769   4.401
 2257SOL    HW2 7452   0.993   3.701   4.531
 2258SOL     OW 7453   1.436   4.890   4.583
 2258SOL    HW1 7454   1.371   4.820   4.579
 2258SOL    HW2 7455   1.462   4.904   4.492
 2259SOL     OW 7456   1.467   4.328   4.702
 2259SOL    HW1 7457   1.417   4.246   4.706
 2259SOL    HW2 7458   1.527   4.323   4.777
 2260SOL     OW 7459   1.846   4.541   4.106
 2260SOL    HW1 7460   1.902   4.489   4.164
 2260SOL    HW2 7461   1.817   4.479   4.039
 2261SOL     OW 7462   0.484   5.142   3.880
 2261SOL    HW1 7463   0.420   5.093   3.930
 2261SOL    HW2 7464   0.479   5.105   3.792
 2262SOL     OW 7465   1.669   4.987   4.371
 2262SOL    HW1 7466   1.763   4.994   4.388
 2262SOL    HW2 7467   1.635   5.075   4.388
 2263SOL     OW 7468   1.394   4.296   3.795
 2263SOL    HW1 7469   1.334   4.276   3.867
 2263SOL    HW2 7470   1.479   4.263   3.826
 2264SOL     OW 7471   0.524   3.987   4.043
 2264SOL    HW1 7472   0.568   3.939   3.972
 2264SOL    HW2 7473   0.503   4.072   4.004
 2265SOL     OW 7474   1.752   4.959   5.301
 2265SOL    HW1 7475   1.838   4.918   5.300
 2265SOL    HW2 7476   1.770   5.052   5.315
 2266SOL     OW 7477   1.065   5.075   5.056
 2266SOL    HW1 7478   0.986   5.049   5.104
 2266SOL    HW2 7479   1.137   5.035   5.104
 2267SOL     OW 7480   1.125   4.926   4.832
 2267SOL    HW1 7481   1.074   4.966   4.902
 2267SOL    HW2 7482   1.081   4.951   4.751
 2268SOL     OW 7483   1.630   4.823   4.801
 2268SOL    HW1 7484   1.625   4.884   4.874
 2268SOL    HW2 7485   1.551   4.841   4.750
 2269SOL     OW 7486   0.919   3.821   5.122
 2269SOL    HW1 7487   0.940   3.803   5.031
 2269SOL    HW2 7488   0.998   3.861   5.158
 2270SOL     OW 7489   0.984   4.839   5.449
 2270SOL    HW1 7490   0.892   4.854   5.466
 2270SOL    HW2 7491   0.985   4.762   5.391
 2271SOL     OW 7492   0.703   4.780   4.097
 2271SOL    HW1 7493   0.694   4.766   4.191
 2271SOL    HW2 7494   0.782   4.731   4.073
 2272SOL     OW 7495   0.421   4.541   4.975
 2272SOL    HW1 7496   0.489   4.548   5.042
 2272SOL    HW2 7497   0.385   4.453   4.986
 2273SOL     OW 7498   1.266   4.101   4.998
 2273SOL    HW1 7499   1.298   4.179   5.044
 2273SOL    HW2 7500   1.176   4.124   4.975
 2274SOL     OW 7501   0.113   5.289   5.043
 2274SOL    HW1 7502   0.053   0.051   5.084
 2274SOL    HW2 7503   0.190   5.290   5.100
 2275SOL     OW 7504   0.345   4.827   4.212
 2275SOL    HW1 7505   0.352   4.906   4.158
 2275SOL    HW2 7506   0.354   4.755   4.150
 2276SOL     OW 7507   0.556   4.260   4.583
 2276SOL    HW1 7508   0.571   4.319   4.509
 2276SOL    HW2 7509   0.619   4.288   4.650
 2277SOL     OW 7510   1.260   5.076   4.109
 2277SOL    HW1 7511   1.316   5.143   4.148
 2277SOL    HW2 7512   1.171   5.098   4.139
 2278SOL     OW 7513   1.268   5.181   4.865
 2278SOL    HW1 7514   1.327   5.194   4.940
 2278SOL    HW2 7515   1.224   5.098   4.884
 2279SOL     OW 7516   1.582   4.347   4.202
 2279SOL    HW1 7517   1.536   4.403   4.266
 2279SOL    HW2 7518   1.628   4.409   4.145
 2280SOL     OW 7519   0.381   5.232   5.040
 2280SOL    HW1 7520   0.362   5.192   4.955
 2280SOL    HW2 7521   0.473   5.256   5.036
 2281SOL     OW 7522   0.413   4.467   5.326
 2281SOL    HW1 7523   0.473   4.513   5.268
 2281SOL    HW2 7524   0.453   4.381   5.339
 2282SOL     OW 7525   1.600   4.502   5.405
 2282SOL    HW1 7526   1.514   4.543   5.398
 2282SOL    HW2 7527   1.652   4.544   5.337
 2283SOL     OW 7528   0.996   3.845   5.480
 2283SOL    HW1 7529   1.050   3.918   5.450
 2283SOL    HW2 7530   1.045   3.767   5.454
 2284SOL     OW 7531   0.498   3.766   5.471
 2284SOL    HW1 7532   0.456   3.712   5.404
 2284SOL    HW2 7533   0.437   3.839   5.483
 2285SOL     OW 7534   0.585   4.597   4.756
 2285SOL    HW1 7535   0.614   4.688   4.753
 2285SOL    HW2 7536   0.529   4.591   4.833
 2286SOL     OW 7537   1.359   4.582   4.754
 2286SOL    HW1 7538   1.276   4.573   4.707
 2286SOL    HW2 7539   1.398   4.495   4.750
 2287SOL     OW 7540   1.206   4.253   3.992
 2287SOL    HW1 7541   1.214   4.174   4.046
 2287SOL    HW2 7542   1.163   4.317   4.048
 2288SOL     OW 7543   0.302   3.927   4.972
 2288SOL    HW1 7544   0.267   3.953   5.057
 2288SOL    HW2 7545   0.289   3.833   4.968
 2289SOL     OW 7546   0.045   5.022   5.001
 2289SOL    HW1 7547   0.075   4.972   5.076
 2289SOL    HW2 7548   0.045   5.113   5.030
 2290SOL     OW 7549   0.725   4.356   4.783
 2290SOL    HW1 7550   0.799   4.339   4.724
 2290SOL    HW2 7551   0.697   4.444   4.761
 2291SOL     OW 7552   1.734   4.684   5.575
 2291SOL    HW1 7553   1.687   4.623   5.517
 2291SOL    HW2 7554   1.674   4.696   5.649
 2292SOL     OW 7555   0.328   3.786   4.358
 2292SOL    HW1 7556   0.307   3.875   4.386
 2292SOL    HW2 7557   0.330   3.736   4.440
 2293SOL     OW 7558   1.614   4.097   4.092
 2293SOL    HW1 7559   1.643   4.034   4.158
 2293SOL    HW2 7560   1.592   4.175   4.142
 2294SOL     OW 7561   1.027   4.483   4.685
 2294SOL    HW1 7562   1.025   4.501   4.779
 2294SOL    HW2 7563   1.001   4.392   4.677
 2295SOL     OW 7564   1.855   5.214   5.310
 2295SOL    HW1 7565   1.852   5.288   5.249
 2295SOL    HW2 7566   1.924   5.238   5.372
 2296SOL     OW 7567   0.354   4.642   5.530
 2296SOL    HW1 7568   0.435   4.660   5.577
 2296SOL    HW2 7569   0.378   4.577   5.464
 2297SOL     OW 7570   1.530   3.997   3.851
 2297SOL    HW1 7571   1.465   3.932   3.878
 2297SOL    HW2 7572   1.563   4.033   3.934
 2298SOL     OW 7573   1.293   4.551   3.756
 2298SOL    HW1 7574   1.335   4.465   3.759
 2298SOL    HW2 7575   1.324   4.590   3.674
 2299SOL     OW 7576   1.059   5.077   4.552
 2299SOL    HW1 7577   1.064   4.992   4.508
 2299SOL    HW2 7578   1.145   5.116   4.538
 2300SOL     OW 7579   0.315   4.534   4.673
 2300SOL    HW1 7580   0.409   4.551   4.670
 2300SOL    HW2 7581   0.309   4.444   4.706
 2301SOL     OW 7582   0.336   4.249   4.738
 2301SOL    HW1 7583   0.300   4.161   4.724
 2301SOL    HW2 7584   0.410   4.255   4.679
 2302SOL     OW 7585   1.134   4.100   5.405
 2302SOL    HW1 7586   1.087   4.155   5.468
 2302SOL    HW2 7587   1.222   4.138   5.401
 2303SOL     OW 7588   1.161   3.927   5.194
 2303SOL    HW1 7589   1.150   3.990   5.266
 2303SOL    HW2 7590   1.199   3.978   5.123
 2304SOL     OW 7591   0.003   5.049   3.932
 2304SOL    HW1 7592   5.224   5.040   3.877
 2304SOL    HW2 7593   0.013   4.964   3.973
 2305SOL     OW 7594   0.985   4.517   4.951
 2305SOL    HW1 7595   1.039   4.493   5.026
 2305SOL    HW2 7596   0.899   4.479   4.972
 2306SOL     OW 7597   0.033   4.282   4.839
 2306SOL    HW1 7598   0.120   4.258   4.806
 2306SOL    HW2 7599   0.038   4.266   4.933
 2307SOL     OW 7600   0.175   4.236   5.436
 2307SOL    HW1 7601   0.241   4.202   5.376
 2307SOL    HW2 7602   0.145   4.317   5.394
 2308SOL     OW 7603   1.376   4.664   5.383
 2308SOL    HW1 7604   1.397   4.757   5.381
 2308SOL    HW2 7605   1.373   4.638   5.291
 2309SOL     OW 7606   0.816   4.293   4.082
 2309SOL    HW1 7607   0.820   4.218   4.023
 2309SOL    HW2 7608   0.742   4.345   4.051
 2310SOL     OW 7609   1.642   4.325   4.911
 2310SOL    HW1 7610   1.632   4.266   4.985
 2310SOL    HW2 7611   1.729   4.305   4.877
 2311SOL     OW 7612   0.211   5.280   5.456
 2311SOL    HW1 7613   0.179   0.024   5.535
 2311SOL    HW2 7614   0.214   5.187   5.479
 2312SOL     OW 7615   0.699   4.175   4.985
 2312SOL    HW1 7616   0.647   4.101   4.955
 2312SOL    HW2 7617   0.696   4.238   4.913
 2313SOL     OW 7618   0.466   4.217   3.910
 2313SOL    HW1 7619   0.525   4.289   3.931
 2313SOL    HW2 7620   0.380   4.259   3.899
 2314SOL     OW 7621   0.151   4.861   5.196
 2314SOL    HW1 7622   0.148   4.811   5.277
 2314SOL    HW2 7623   0.162   4.795   5.128
 2315SOL     OW 7624   1.328   4.770   4.947
 2315SOL    HW1 7625   1.351   4.708   4.878
 2315SOL    HW2 7626   1.256   4.822   4.910
 2316SOL     OW 7627   1.310   4.581   4.031
 2316SOL    HW1 7628   1.234   4.550   4.080
 2316SOL    HW2 7629   1.286   4.567   3.939
 2317SOL     OW 7630   0.077   4.922   4.754
 2317SOL    HW1 7631   0.065   4.961   4.840
 2317SOL    HW2 7632   5.290   4.926   4.714
 2318SOL     OW 7633   0.750   0.040   5.433
 2318SOL    HW1 7634   0.658   0.062   5.442
 2318SOL    HW2 7635   0.771   0.061   5.342
 2319SOL     OW 7636   1.720   3.870   4.236
 2319SOL    HW1 7637   1.792   3.855   4.175
 2319SOL    HW2 7638   1.704   3.784   4.275
 2320SOL     OW 7639   1.277   4.649   4.395
 2320SOL    HW1 7640   1.350   4.588   4.402
 2320SOL    HW2 7641   1.311   4.721   4.343
 2321SOL     OW 7642   0.820   4.994   5.147
 2321SOL    HW1 7643   0.791   5.030   5.230
 2321SOL    HW2 7644   0.744   5.002   5.089
 2322SOL     OW 7645   1.840   3.898   4.692
 2322SOL    HW1 7646   1.869   3.811   4.664
 2322SOL    HW2 7647   1.754   3.909   4.651
 2323SOL     OW 7648   0.272   4.041   4.442
 2323SOL    HW1 7649   0.188   4.080   4.420
 2323SOL    HW2 7650   0.270   4.030   4.537
 2324SOL     OW 7651   0.825   4.728   5.095
 2324SOL    HW1 7652   0.869   4.722   5.011
 2324SOL    HW2 7653   0.828   4.821   5.117
 2325SOL     OW 7654   0.915   4.635   4.014
 2325SOL    HW1 7655   0.977   4.668   3.948
 2325SOL    HW2 7656   0.963   4.565   4.058
 2326SOL     OW 7657   0.366   5.028   5.223
 2326SOL    HW1 7658   0.365   5.099   5.159
 2326SOL    HW2 7659   0.291   4.973   5.200
 2327SOL     OW 7660   1.612   5.004   5.006
 2327SOL    HW1 7661   1.670   4.999   5.083
 2327SOL    HW2 7662   1.550   5.074   5.028
 2328SOL     OW 7663   1.053   4.833   4.434
 2328SOL    HW1 7664   0.981   4.781   4.471
 2328SOL    HW2 7665   1.114   4.767   4.400
 2329SOL     OW 7666   1.021   3.964   4.690
 2329SOL    HW1 7667   1.016   3.916   4.607
 2329SOL    HW2 7668   1.015   3.897   4.757
 2330SOL     OW 7669   1.721   4.116   5.104
 2330SOL    HW1 7670   1.793   4.179   5.103
 2330SOL    HW2 7671   1.751   4.045   5.048
 2331SOL     OW 7672   0.259   5.060   4.009
 2331SOL    HW1 7673   0.166   5.064   3.985
 2331SOL    HW2 7674   0.262   5.097   4.098
 2332SOL     OW 7675   0.115   4.741   5.444
 2332SOL    HW1 7676   0.044   4.704   5.495
 2332SOL    HW2 7677   0.195   4.709   5.486
 2333SOL     OW 7678   0.674   3.920   5.223
 2333SOL    HW1 7679   0.757   3.901   5.181
 2333SOL    HW2 7680   0.697   3.951   5.310
 2334SOL     OW 7681   0.081   4.075   3.765
 2334SOL    HW1 7682   0.002   4.027   3.741
 2334SOL    HW2 7683   0.098   4.132   3.690
 2335SOL     OW 7684   1.431   4.582   5.125
 2335SOL    HW1 7685   1.382   4.642   5.069
 2335SOL    HW2 7686   1.520   4.585   5.091
 2336SOL     OW 7687   0.055   3.857   3.967
 2336SOL    HW1 7688   0.054   3.953   3.961
 2336SOL    HW2 7689   0.146   3.833   3.947
 2337SOL     OW 7690   1.182   5.065   3.844
 2337SOL    HW1 7691   1.091   5.036   3.844
 2337SOL    HW2 7692   1.210   5.057   3.935
 2338SOL     OW 7693   0.619   4.555   5.159
 2338SOL    HW1 7694   0.675   4.631   5.143
 2338SOL    HW2 7695   0.679   4.481   5.167
 2339SOL     OW 7696   0.717   4.289   5.429
 2339SOL    HW1 7697   0.757   4.351   5.489
 2339SOL    HW2 7698   0.748   4.203   5.460
 2340SOL     OW 7699   1.472   4.924   5.356
 2340SOL    HW1 7700   1.459   4.936   5.450
 2340SOL    HW2 7701   1.566   4.937   5.343
 2341SOL     OW 7702   1.671   4.606   4.979
 2341SOL    HW1 7703   1.663   4.520   4.936
 2341SOL    HW2 7704   1.661   4.669   4.908
 2342SOL     OW 7705   1.217   4.043   4.182
 2342SOL    HW1 7706   1.281   3.972   4.173
 2342SOL    HW2 7707   1.246   4.092   4.259
 2343SOL     OW 7708   0.591   4.462   4.392
 2343SOL    HW1 7709   0.629   4.549   4.377
 2343SOL    HW2 7710   0.521   4.455   4.327
 2344SOL     OW 7711   1.764   4.085   5.374
 2344SOL    HW1 7712   1.746   4.100   5.281
 2344SOL    HW2 7713   1.692   4.028   5.403
 2345SOL     OW 7714   1.744   4.657   5.236
 2345SOL    HW1 7715   1.742   4.752   5.249
 2345SOL    HW2 7716   1.729   4.646   5.142
 2346SOL     OW 7717   0.849   5.095   3.743
 2346SOL    HW1 7718   0.830   5.096   3.836
 2346SOL    HW2 7719   0.869   5.186   3.721
 2347SOL     OW 7720   0.868   4.691   4.579
 2347SOL    HW1 7721   0.917   4.619   4.620
 2347SOL    HW2 7722   0.833   4.741   4.653
 2348SOL     OW 7723   1.080   4.713   3.813
 2348SOL    HW1 7724   1.057   4.763   3.735
 2348SOL    HW2 7725   1.155   4.659   3.787
 2349SOL     OW 7726   0.220   5.026   5.578
 2349SOL    HW1 7727   0.155   4.959   5.559
 2349SOL    HW2 7728   0.216   5.037   5.673
 2350SOL     OW 7729   0.081   4.931   4.380
 2350SOL    HW1 7730   0.099   4.909   4.471
 2350SOL    HW2 7731   0.168   4.937   4.339
 2351SOL     OW 7732   0.670   5.108   5.333
 2351SOL    HW1 7733   0.594   5.073   5.380
 2351SOL    HW2 7734   0.701   5.181   5.387
 2352SOL     OW 7735   1.813   3.909   4.962
 2352SOL    HW1 7736   1.824   3.815   4.977
 2352SOL    HW2 7737   1.822   3.919   4.867
 2353SOL     OW 7738   0.434   4.160   4.248
 2353SOL    HW1 7739   0.461   4.087   4.192
 2353SOL    HW2 7740   0.387   4.118   4.320
 2354SOL     OW 7741   1.707   5.223   4.843
 2354SOL    HW1 7742   1.633   5.206   4.784
 2354SOL    HW2 7743   1.714   5.143   4.896
 2355SOL     OW 7744   0.335   4.282   5.015
 2355SOL    HW1 7745   0.388   4.223   5.068
 2355SOL    HW2 7746   0.350   4.253   4.925
 2356SOL     OW 7747   1.432   3.949   4.842
 2356SOL    HW1 7748   1.458   3.869   4.889
 2356SOL    HW2 7749   1.380   3.998   4.906
 2357SOL     OW 7750   1.009   3.743   4.867
 2357SOL    HW1 7751   0.954   3.675   4.828
 2357SOL    HW2 7752   1.096   3.706   4.870
 2358SOL     OW 7753   0.803   5.047   4.008
 2358SOL    HW1 7754   0.740   4.977   4.027
 2358SOL    HW2 7755   0.856   5.053   4.087
 2359SOL     OW 7756   0.638   0.002   5.010
 2359SOL    HW1 7757   0.642   0.057   5.088
 2359SOL    HW2 7758   0.730   5.285   4.988
 2360SOL     OW 7759   1.352   3.778   3.889
 2360SOL    HW1 7760   1.378   3.717   3.820
 2360SOL    HW2 7761   1.265   3.747   3.916
 2361SOL     OW 7762   1.297   4.184   4.406
 2361SOL    HW1 7763   1.243   4.263   4.413
 2361SOL    HW2 7764   1.293   4.145   4.493
 2362SOL     OW 7765   1.587   3.928   4.602
 2362SOL    HW1 7766   1.524   3.947   4.671
 2362SOL    HW2 7767   1.586   4.006   4.546
 2363SOL     OW 7768   0.047   4.791   4.014
 2363SOL    HW1 7769   0.137   4.761   4.005
 2363SOL    HW2 7770   0.000   4.716   4.051
 2364SOL     OW 7771   0.233   4.357   5.701
 2364SOL    HW1 7772   0.158   4.326   5.752
 2364SOL    HW2 7773   0.220   4.321   5.614
 2365SOL     OW 7774   0.241   3.999   6.576
 2365SOL    HW1 7775   0.255   3.965   6.664
 2365SOL    HW2 7776   0.157   3.962   6.549
 2366SOL     OW 7777   5.299   4.121   6.239
 2366SOL    HW1 7778   5.206   4.143   6.246
 2366SOL    HW2 7779   5.299   4.030   6.208
 2367SOL     OW 7780   0.572   4.998   6.768
 2367SOL    HW1 7781   0.493   5.005   6.714
 2367SOL    HW2 7782   0.591   5.089   6.795
 2368SOL     OW 7783   1.555   5.232   6.275
 2368SOL    HW1 7784   1.533   5.229   6.368
 2368SOL    HW2 7785   1.476   5.267   6.233
 2369SOL     OW 7786   1.130   4.422   6.288
 2369SOL    HW1 7787   1.179   4.503   6.274
 2369SOL    HW2 7788   1.083   4.437   6.370
 2370SOL     OW 7789   1.766   4.330   5.815
 2370SOL    HW1 7790   1.746   4.322   5.722
 2370SOL    HW2 7791   1.731   4.250   5.855
 2371SOL     OW 7792   0.759   4.868   6.622
 2371SOL    HW1 7793   0.691   4.897   6.683
 2371SOL    HW2 7794   0.787   4.948   6.577
 2372SOL     OW 7795   0.864   4.503   7.406
 2372SOL    HW1 7796   0.851   4.578   7.464
 2372SOL    HW2 7797   0.890   4.541   7.322
 2373SOL     OW 7798   0.686   4.728   6.235
 2373SOL    HW1 7799   0.751   4.715   6.304
 2373SOL    HW2 7800   0.618   4.782   6.275
 2374SOL     OW 7801   0.707   4.873   7.397
 2374SOL    HW1 7802   0.756   4.952   7.420
 2374SOL    HW2 7803   0.624   4.905   7.362
 2375SOL     OW 7804   0.376   5.145   6.639
 2375SOL    HW1 7805   0.282   5.153   6.626
 2375SOL    HW2 7806   0.414   5.200   6.571
 2376SOL     OW 7807   1.455   5.220   6.933
 2376SOL    HW1 7808   1.508   5.293   6.964
 2376SOL    HW2 7809   1.389   5.207   7.001
 2377SOL     OW 7810   0.450   4.125   7.081
 2377SOL    HW1 7811   0.524   4.064   7.081
 2377SOL    HW2 7812   0.373   4.068   7.089
 2378SOL     OW 7813   1.612   4.172   6.326
 2378SOL    HW1 7814   1.537   4.196   6.272
 2378SOL    HW2 7815   1.630   4.250   6.379
 2379SOL     OW 7816   1.133   5.071   7.285
 2379SOL    HW1 7817   1.166   5.070   7.374
 2379SOL    HW2 7818   1.079   4.992   7.278
 2380SOL     OW 7819   0.212   5.151   6.117
 2380SOL    HW1 7820   0.249   5.232   6.152
 2380SOL    HW2 7821   0.134   5.135   6.170
 2381SOL     OW 7822   0.251   4.800   6.462
 2381SOL    HW1 7823   0.263   4.714   6.502
 2381SOL    HW2 7824   0.196   4.848   6.523
 2382SOL     OW 7825   0.584   4.706   5.720
 2382SOL    HW1 7826   0.631   4.754   5.651
 2382SOL    HW2 7827   0.625   4.735   5.801
 2383SOL     OW 7828   1.596   3.846   7.055
 2383SOL    HW1 7829   1.600   3.927   7.003
 2383SOL    HW2 7830   1.583   3.877   7.145
 2384SOL     OW 7831   0.126   4.357   6.164
 2384SOL    HW1 7832   0.088   4.275   6.194
 2384SOL    HW2 7833   0.099   4.421   6.229
 2385SOL     OW 7834   5.299   0.000   5.669
 2385SOL    HW1 7835   0.016   5.212   5.703
 2385SOL    HW2 7836   0.025   0.059   5.740
 2386SOL     OW 7837   1.689   4.642   6.225
 2386SOL    HW1 7838   1.773   4.601   6.206
 2386SOL    HW2 7839   1.668   4.693   6.147
 2387SOL     OW 7840   1.645   4.831   6.016
 2387SOL    HW1 7841   1.730   4.837   5.972
 2387SOL    HW2 7842   1.651   4.892   6.089
 2388SOL     OW 7843   0.130   4.470   7.175
 2388SOL    HW1 7844   0.224   4.485   7.176
 2388SOL    HW2 7845   0.091   4.557   7.184
 2389SOL     OW 7846   0.626   5.095   6.320
 2389SOL    HW1 7847   0.569   5.019   6.321
 2389SOL    HW2 7848   0.600   5.143   6.241
 2390SOL     OW 7849   1.289   4.955   7.012
 2390SOL    HW1 7850   1.324   4.890   6.951
 2390SOL    HW2 7851   1.348   4.952   7.087
 2391SOL     OW 7852   0.821   3.722   6.094
 2391SOL    HW1 7853   0.861   3.807   6.076
 2391SOL    HW2 7854   0.727   3.741   6.101
 2392SOL     OW 7855   0.178   4.669   6.867
 2392SOL    HW1 7856   0.268   4.639   6.853
 2392SOL    HW2 7857   0.134   4.652   6.784
 2393SOL     OW 7858   1.531   4.718   5.783
 2393SOL    HW1 7859   1.461   4.660   5.814
 2393SOL    HW2 7860   1.572   4.752   5.862
 2394SOL     OW 7861   0.335   3.976   7.399
 2394SOL    HW1 7862   0.383   4.058   7.412
 2394SOL    HW2 7863   0.248   3.994   7.436
 2395SOL     OW 7864   1.475   5.146   6.548
 2395SOL    HW1 7865   1.403   5.158   6.609
 2395SOL    HW2 7866   1.463   5.058   6.514
 2396SOL     OW 7867   0.596   4.446   5.851
 2396SOL    HW1 7868   0.604   4.526   5.800
 2396SOL    HW2 7869   0.531   4.467   5.919
 2397SOL     OW 7870   1.279   4.075   6.518
 2397SOL    HW1 7871   1.190   4.042   6.527
 2397SOL    HW2 7872   1.330   4.022   6.580
 2398SOL     OW 7873   0.792   4.341   7.038
 2398SOL    HW1 7874   0.765   4.318   7.127
 2398SOL    HW2 7875   0.751   4.275   6.982
 2399SOL     OW 7876   1.394   4.198   7.263
 2399SOL    HW1 7877   1.396   4.242   7.348
 2399SOL    HW2 7878   1.455   4.125   7.273
 2400SOL     OW 7879   0.956   4.612   7.168
 2400SOL    HW1 7880   1.010   4.541   7.133
 2400SOL    HW2 7881   0.908   4.645   7.092
 2401SOL     OW 7882   0.992   4.137   6.825
 2401SOL    HW1 7883   0.907   4.158   6.863
 2401SOL    HW2 7884   0.971   4.090   6.745
 2402SOL     OW 7885   1.050   4.423   6.012
 2402SOL    HW1 7886   1.066   4.416   6.107
 2402SOL    HW2 7887   0.968   4.376   5.998
 2403SOL     OW 7888   0.073   4.510   6.397
 2403SOL    HW1 7889   0.155   4.515   6.446
 2403SOL    HW2 7890   0.059   4.598   6.363
 2404SOL     OW 7891   0.891   4.072   5.780
 2404SOL    HW1 7892   0.932   4.133   5.719
 2404SOL    HW2 7893   0.908   3.986   5.742
 2405SOL     OW 7894   1.710   4.301   7.415
 2405SOL    HW1 7895   1.672   4.375   7.368
 2405SOL    HW2 7896   1.736   4.239   7.347
 2406SOL     OW 7897   1.376   4.864   6.126
 2406SOL    HW1 7898   1.457   4.850   6.077
 2406SOL    HW2 7899   1.326   4.925   6.072
 2407SOL     OW 7900   0.555   3.908   6.479
 2407SOL    HW1 7901   0.552   3.935   6.571
 2407SOL    HW2 7902   0.551   3.989   6.429
 2408SOL     OW 7903   1.024   5.170   6.056
 2408SOL    HW1 7904   0.945   5.225   6.049
 2408SOL    HW2 7905   1.038   5.160   6.150
 2409SOL     OW 7906   1.800   4.782   6.452
 2409SOL    HW1 7907   1.743   4.765   6.377
 2409SOL    HW2 7908   1.740   4.788   6.527
 2410SOL     OW 7909   1.250   5.240   7.109
 2410SOL    HW1 7910   1.213   5.173   7.168
 2410SOL    HW2 7911   1.180   5.258   7.046
 2411SOL     OW 7912   0.317   4.676   5.832
 2411SOL    HW1 7913   0.399   4.699   5.789
 2411SOL    HW2 7914   0.293   4.591   5.796
 2412SOL     OW 7915   1.477   4.465   6.314
 2412SOL    HW1 7916   1.468   4.421   6.398
 2412SOL    HW2 7917   1.555   4.520   6.324
 2413SOL     OW 7918   0.462   4.988   7.328
 2413SOL    HW1 7919   0.437   4.991   7.236
 2413SOL    HW2 7920   0.380   4.988   7.377
 2414SOL     OW 7921   1.071   0.182   5.794
 2414SOL    HW1 7922   1.078   0.108   5.855
 2414SOL    HW2 7923   1.110   0.150   5.713
 2415SOL     OW 7924   0.204   4.006   7.084
 2415SOL    HW1 7925   0.125   4.056   7.067
 2415SOL    HW2 7926   0.174   3.927   7.129
 2416SOL     OW 7927   1.623   5.100   5.692
 2416SOL    HW1 7928   1.618   5.178   5.637
 2416SOL    HW2 7929   1.555   5.042   5.659
 2417SOL     OW 7930   1.401   3.832   6.018
 2417SOL    HW1 7931   1.391   3.807   5.926
 2417SOL    HW2 7932   1.496   3.838   6.030
 2418SOL     OW 7933   0.386   4.420   6.065
 2418SOL    HW1 7934   0.415   4.329   6.074
 2418SOL    HW2 7935   0.293   4.417   6.086
 2419SOL     OW 7936   1.536   3.949   7.312
 2419SOL    HW1 7937   1.545   3.971   7.405
 2419SOL    HW2 7938   1.468   3.882   7.309
 2420SOL     OW 7939   0.631   3.847   5.692
 2420SOL    HW1 7940   0.704   3.786   5.703
 2420SOL    HW2 7941   0.584   3.815   5.615
 2421SOL     OW 7942   0.766   4.000   7.339
 2421SOL    HW1 7943   0.842   3.941   7.342
 2421SOL    HW2 7944   0.722   3.988   7.422
 2422SOL     OW 7945   1.341   4.313   7.018
 2422SOL    HW1 7946   1.372   4.281   7.103
 2422SOL    HW2 7947   1.377   4.401   7.010
 2423SOL     OW 7948   0.812   5.121   6.521
 2423SOL    HW1 7949   0.893   5.106   6.472
 2423SOL    HW2 7950   0.744   5.126   6.454
 2424SOL     OW 7951   0.928   4.234   6.489
 2424SOL    HW1 7952   0.904   4.225   6.397
 2424SOL    HW2 7953   0.959   4.147   6.514
 2425SOL     OW 7954   0.559   3.785   6.083
 2425SOL    HW1 7955   0.485   3.785   6.143
 2425SOL    HW2 7956   0.549   3.865   6.031
 2426SOL     OW 7957   1.428   4.923   5.625
 2426SOL    HW1 7958   1.459   4.848   5.675
 2426SOL    HW2 7959   1.340   4.940   5.659
 2427SOL     OW 7960   0.305   3.771   5.766
 2427SOL    HW1 7961   0.367   3.835   5.730
 2427SOL    HW2 7962   0.360   3.706   5.810
 2428SOL     OW 7963   0.938   3.970   6.047
 2428SOL    HW1 7964   0.911   4.012   5.966
 2428SOL    HW2 7965   1.033   3.984   6.050
 2429SOL     OW 7966   1.080   4.404   7.046
 2429SOL    HW1 7967   1.010   4.338   7.051
 2429SOL    HW2 7968   1.161   4.354   7.039
 2430SOL     OW 7969   1.264   5.267   6.365
 2430SOL    HW1 7970   1.224   0.049   6.336
 2430SOL    HW2 7971   1.307   5.290   6.447
 2431SOL     OW 7972   0.465   4.873   6.316
 2431SOL    HW1 7973   0.397   4.853   6.380
 2431SOL    HW2 7974   0.425   4.853   6.231
 2432SOL     OW 7975   1.024   4.267   5.608
 2432SOL    HW1 7976   0.982   4.351   5.587
 2432SOL    HW2 7977   1.089   4.289   5.674
 2433SOL     OW 7978   0.087   4.269   6.984
 2433SOL    HW1 7979   0.174   4.277   6.947
 2433SOL    HW2 7980   0.079   4.346   7.042
 2434SOL     OW 7981   0.561   3.951   6.751
 2434SOL    HW1 7982   0.598   3.871   6.788
 2434SOL    HW2 7983   0.469   3.950   6.779
 2435SOL     OW 7984   0.868   4.183   6.226
 2435SOL    HW1 7985   0.822   4.237   6.161
 2435SOL    HW2 7986   0.889   4.102   6.179
 2436SOL     OW 7987   1.015   3.777   6.338
 2436SOL    HW1 7988   0.956   3.769   6.263
 2436SOL    HW2 7989   0.994   3.701   6.393
 2437SOL     OW 7990   1.436   4.890   6.445
 2437SOL    HW1 7991   1.371   4.820   6.441
 2437SOL    HW2 7992   1.462   4.904   6.354
 2438SOL     OW 7993   1.467   4.328   6.564
 2438SOL    HW1 7994   1.417   4.246   6.568
 2438SOL    HW2 7995   1.527   4.323   6.639
 2439SOL     OW 7996   1.846   4.541   5.968
 2439SOL    HW1 7997   1.902   4.489   6.026
 2439SOL    HW2 7998   1.817   4.479   5.901
 2440SOL     OW 7999   0.484   5.142   5.742
 2440SOL    HW1 8000   0.420   5.093   5.792
 2440SOL    HW2 8001   0.479   5.105   5.654
 2441SOL     OW 8002   1.669   4.987   6.233
 2441SOL    HW1 8003   1.763   4.994   6.250
 2441SOL    HW2 8004   1.635   5.075   6.250
 2442SOL     OW 8005   1.394   4.296   5.657
 2442SOL    HW1 8006   1.333   4.276   5.729
 2442SOL    HW2 8007   1.479   4.263   5.688
 2443SOL     OW 8008   0.524   3.987   5.904
 2443SOL    HW1 8009   0.568   3.939   5.834
 2443SOL    HW2 8010   0.503   4.072   5.866
 2444SOL     OW 8011   1.751   4.959   7.163
 2444SOL    HW1 8012   1.838   4.918   7.162
 2444SOL    HW2 8013   1.769   5.052   7.177
 2445SOL     OW 8014   1.065   5.075   6.918
 2445SOL    HW1 8015   0.987   5.049   6.967
 2445SOL    HW2 8016   1.137   5.035   6.966
 2446SOL     OW 8017   1.125   4.926   6.694
 2446SOL    HW1 8018   1.074   4.966   6.763
 2446SOL    HW2 8019   1.081   4.951   6.613
 2447SOL     OW 8020   1.630   4.823   6.663
 2447SOL    HW1 8021   1.625   4.884   6.736
 2447SOL    HW2 8022   1.551   4.841   6.612
 2448SOL     OW 8023   0.918   3.821   6.984
 2448SOL    HW1 8024   0.940   3.803   6.892
 2448SOL    HW2 8025   0.997   3.861   7.020
 2449SOL     OW 8026   0.984   4.838   7.312
 2449SOL    HW1 8027   0.892   4.854   7.328
 2449SOL    HW2 8028   0.986   4.762   7.254
 2450SOL     OW 8029   0.703   4.780   5.959
 2450SOL    HW1 8030   0.694   4.766   6.053
 2450SOL    HW2 8031   0.782   4.731   5.935
 2451SOL     OW 8032   0.421   4.542   6.837
 2451SOL    HW1 8033   0.489   4.548   6.904
 2451SOL    HW2 8034   0.385   4.453   6.848
 2452SOL     OW 8035   1.266   4.101   6.860
 2452SOL    HW1 8036   1.298   4.179   6.906
 2452SOL    HW2 8037   1.176   4.124   6.837
 2453SOL     OW 8038   0.114   5.289   6.905
 2453SOL    HW1 8039   0.053   0.051   6.945
 2453SOL    HW2 8040   0.191   5.290   6.962
 2454SOL     OW 8041   0.345   4.827   6.074
 2454SOL    HW1 8042   0.352   4.906   6.020
 2454SOL    HW2 8043   0.354   4.755   6.012
 2455SOL     OW 8044   0.555   4.261   6.445
 2455SOL    HW1 8045   0.571   4.319   6.371
 2455SOL    HW2 8046   0.619   4.288   6.512
 2456SOL     OW 8047   1.260   5.076   5.971
 2456SOL    HW1 8048   1.316   5.143   6.010
 2456SOL    HW2 8049   1.172   5.098   6.001
 2457SOL     OW 8050   1.268   5.181   6.727
 2457SOL    HW1 8051   1.327   5.194   6.802
 2457SOL    HW2 8052   1.224   5.098   6.746
 2458SOL     OW 8053   1.582   4.348   6.064
 2458SOL    HW1 8054   1.536   4.403   6.128
 2458SOL    HW2 8055   1.628   4.409   6.007
 2459SOL     OW 8056   0.381   5.232   6.902
 2459SOL    HW1 8057   0.362   5.192   6.817
 2459SOL    HW2 8058   0.473   5.256   6.898
 2460SOL     OW 8059   0.413   4.467   7.188
 2460SOL    HW1 8060   0.473   4.513   7.130
 2460SOL    HW2 8061   0.453   4.381   7.200
 2461SOL     OW 8062   1.600   4.503   7.267
 2461SOL    HW1 8063   1.513   4.543   7.259
 2461SOL    HW2 8064   1.652   4.544   7.199
 2462SOL     OW 8065   0.996   3.845   7.341
 2462SOL    HW1 8066   1.051   3.918   7.311
 2462SOL    HW2 8067   1.045   3.767   7.316
 2463SOL     OW 8068   0.498   3.766   7.333
 2463SOL    HW1 8069   0.457   3.711   7.266
 2463SOL    HW2 8070   0.438   3.839   7.344
 2464SOL     OW 8071   0.585   4.597   6.618
 2464SOL    HW1 8072   0.614   4.688   6.615
 2464SOL    HW2 8073   0.528   4.591   6.695
 2465SOL     OW 8074   1.359   4.582   6.616
 2465SOL    HW1 8075   1.276   4.573   6.569
 2465SOL    HW2 8076   1.398   4.495   6.612
 2466SOL     OW 8077   1.206   4.253   5.854
 2466SOL    HW1 8078   1.214   4.174   5.908
 2466SOL    HW2 8079   1.163   4.317   5.910
 2467SOL     OW 8080   0.302   3.928   6.834
 2467SOL    HW1 8081   0.267   3.952   6.920
 2467SOL    HW2 8082   0.289   3.833   6.830
 2468SOL     OW 8083   0.045   5.022   6.863
 2468SOL    HW1 8084   0.075   4.972   6.939
 2468SOL    HW2 8085   0.044   5.113   6.892
 2469SOL     OW 8086   0.725   4.356   6.645
 2469SOL    HW1 8087   0.799   4.339   6.586
 2469SOL    HW2 8088   0.697   4.444   6.623
 2470SOL     OW 8089   1.734   4.684   7.437
 2470SOL    HW1 8090   1.687   4.624   7.380
 2470SOL    HW2 8091   1.677   4.697   7.512
 2471SOL     OW 8092   0.327   3.786   6.220
 2471SOL    HW1 8093   0.307   3.875   6.248
 2471SOL    HW2 8094   0.330   3.735   6.302
 2472SOL     OW 8095   1.615   4.097   5.954
 2472SOL    HW1 8096   1.643   4.034   6.020
 2472SOL    HW2 8097   1.592   4.176   6.004
 2473SOL     OW 8098   1.027   4.483   6.547
 2473SOL    HW1 8099   1.025   4.501   6.641
 2473SOL    HW2 8100   1.001   4.392   6.539
 2474SOL     OW 8101   1.854   5.214   7.172
 2474SOL    HW1 8102   1.851   5.287   7.110
 2474SOL    HW2 8103   1.924   5.237   7.233
 2475SOL     OW 8104   0.354   4.641   7.393
 2475SOL    HW1 8105   0.436   4.660   7.439
 2475SOL    HW2 8106   0.378   4.577   7.326
 2476SOL     OW 8107   1.530   3.997   5.713
 2476SOL    HW1 8108   1.465   3.932   5.740
 2476SOL    HW2 8109   1.563   4.033   5.796
 2477SOL     OW 8110   1.293   4.551   5.618
 2477SOL    HW1 8111   1.335   4.465   5.621
 2477SOL    HW2 8112   1.324   4.590   5.536
 2478SOL     OW 8113   1.059   5.077   6.414
 2478SOL    HW1 8114   1.064   4.992   6.370
 2478SOL    HW2 8115   1.145   5.116   6.400
 2479SOL     OW 8116   0.315   4.534   6.535
 2479SOL    HW1 8117   0.409   4.551   6.532
 2479SOL    HW2 8118   0.308   4.444   6.568
 2480SOL     OW 8119   0.336   4.249   6.601
 2480SOL    HW1 8120   0.300   4.161   6.586
 2480SOL    HW2 8121   0.410   4.255   6.541
 2481SOL     OW 8122   1.135   4.101   7.266
 2481SOL    HW1 8123   1.088   4.156   7.329
 2481SOL    HW2 8124   1.222   4.138   7.262
 2482SOL     OW 8125   1.161   3.927   7.055
 2482SOL    HW1 8126   1.150   3.990   7.127
 2482SOL    HW2 8127   1.200   3.978   6.984
 2483SOL     OW 8128   0.003   5.049   5.794
 2483SOL    HW1 8129   5.224   5.040   5.739
 2483SOL    HW2 8130   0.013   4.964   5.835
 2484SOL     OW 8131   0.984   4.517   6.813
 2484SOL    HW1 8132   1.039   4.493   6.888
 2484SOL    HW2 8133   0.899   4.479   6.833
 2485SOL     OW 8134   0.033   4.283   6.701
 2485SOL    HW1 8135   0.120   4.258   6.668
 2485SOL    HW2 8136   0.038   4.266   6.795
 2486SOL     OW 8137   0.176   4.236   7.302
 2486SOL    HW1 8138   0.240   4.199   7.241
 2486SOL    HW2 8139   0.145   4.316   7.259
 2487SOL     OW 8140   1.376   4.664   7.245
 2487SOL    HW1 8141   1.397   4.757   7.243
 2487SOL    HW2 8142   1.373   4.638   7.153
 2488SOL     OW 8143   0.816   4.293   5.944
 2488SOL    HW1 8144   0.820   4.218   5.885
 2488SOL    HW2 8145   0.742   4.345   5.913
 2489SOL     OW 8146   1.642   4.325   6.773
 2489SOL    HW1 8147   1.632   4.266   6.847
 2489SOL    HW2 8148   1.729   4.305   6.739
 2490SOL     OW 8149   0.211   5.279   7.319
 2490SOL    HW1 8150   0.167   0.020   7.394
 2490SOL    HW2 8151   0.216   5.186   7.341
 2491SOL     OW 8152   0.699   4.175   6.847
 2491SOL    HW1 8153   0.647   4.101   6.817
 2491SOL    HW2 8154   0.696   4.238   6.774
 2492SOL     OW 8155   0.466   4.217   5.772
 2492SOL    HW1 8156   0.525   4.289   5.793
 2492SOL    HW2 8157   0.380   4.259   5.761
 2493SOL     OW 8158   0.152   4.861   7.058
 2493SOL    HW1 8159   0.148   4.811   7.139
 2493SOL    HW2 8160   0.162   4.795   6.989
 2494SOL     OW 8161   1.328   4.770   6.809
 2494SOL    HW1 8162   1.351   4.708   6.741
 2494SOL    HW2 8163   1.256   4.822   6.772
 2495SOL     OW 8164   1.309   4.582   5.893
 2495SOL    HW1 8165   1.234   4.550   5.942
 2495SOL    HW2 8166   1.286   4.567   5.801
 2496SOL     OW 8167   0.077   4.922   6.616
 2496SOL    HW1 8168   0.065   4.961   6.702
 2496SOL    HW2 8169   5.290   4.926   6.576
 2497SOL     OW 8170   0.750   0.038   7.296
 2497SOL    HW1 8171   0.658   0.062   7.304
 2497SOL    HW2 8172   0.773   0.062   7.206
 2498SOL     OW 8173   1.719   3.869   6.096
 2498SOL    HW1 8174   1.792   3.855   6.036
 2498SOL    HW2 8175   1.703   3.783   6.137
 2499SOL     OW 8176   1.277   4.649   6.257
 2499SOL    HW1 8177   1.350   4.588   6.264
 2499SOL    HW2 8178   1.311   4.721   6.205
 2500SOL     OW 8179   0.820   4.994   7.009
 2500SOL    HW1 8180   0.790   5.030   7.092
 2500SOL    HW2 8181   0.744   5.002   6.951
 2501SOL     OW 8182   1.840   3.897   6.553
 2501SOL    HW1 8183   1.869   3.810   6.526
 2501SOL    HW2 8184   1.754   3.907   6.513
 2502SOL     OW 8185   0.272   4.041   6.304
 2502SOL    HW1 8186   0.188   4.080   6.282
 2502SOL    HW2 8187   0.270   4.030   6.399
 2503SOL     OW 8188   0.824   4.728   6.957
 2503SOL    HW1 8189   0.869   4.721   6.873
 2503SOL    HW2 8190   0.828   4.821   6.979
 2504SOL     OW 8191   0.915   4.635   5.876
 2504SOL    HW1 8192   0.977   4.668   5.810
 2504SOL    HW2 8193   0.963   4.565   5.921
 2505SOL     OW 8194   0.365   5.028   7.086
 2505SOL    HW1 8195   0.365   5.099   7.021
 2505SOL    HW2 8196   0.291   4.973   7.062
 2506SOL     OW 8197   1.612   5.004   6.868
 2506SOL    HW1 8198   1.669   4.998   6.945
 2506SOL    HW2 8199   1.550   5.074   6.890
 2507SOL     OW 8200   1.052   4.833   6.296
 2507SOL    HW1 8201   0.981   4.781   6.333
 2507SOL    HW2 8202   1.114   4.767   6.262
 2508SOL     OW 8203   1.021   3.964   6.552
 2508SOL    HW1 8204   1.016   3.916   6.469
 2508SOL    HW2 8205   1.015   3.897   6.619
 2509SOL     OW 8206   1.721   4.116   6.967
 2509SOL    HW1 8207   1.793   4.179   6.965
 2509SOL    HW2 8208   1.751   4.044   6.911
 2510SOL     OW 8209   0.259   5.060   5.871
 2510SOL    HW1 8210   0.166   5.064   5.847
 2510SOL    HW2 8211   0.262   5.097   5.960
 2511SOL     OW 8212   0.116   4.742   7.306
 2511SOL    HW1 8213   0.043   4.705   7.357
 2511SOL    HW2 8214   0.195   4.708   7.348
 2512SOL     OW 8215   0.673   3.920   7.085
 2512SOL    HW1 8216   0.757   3.901   7.043
 2512SOL    HW2 8217   0.696   3.950   7.173
 2513SOL     OW 8218   0.081   4.076   5.627
 2513SOL    HW1 8219   0.002   4.026   5.603
 2513SOL    HW2 8220   0.098   4.132   5.552
 2514SOL     OW 8221   1.431   4.582   6.987
 2514SOL    HW1 8222   1.382   4.643   6.931
 2514SOL    HW2 8223   1.520   4.585   6.953
 2515SOL     OW 8224   0.055   3.857   5.828
 2515SOL    HW1 8225   0.054   3.953   5.823
 2515SOL    HW2 8226   0.146   3.833   5.809
 2516SOL     OW 8227   1.182   5.065   5.706
 2516SOL    HW1 8228   1.091   5.036   5.706
 2516SOL    HW2 8229   1.210   5.057   5.797
 2517SOL     OW 8230   0.619   4.555   7.021
 2517SOL    HW1 8231   0.675   4.631   7.004
 2517SOL    HW2 8232   0.679   4.481   7.029
 2518SOL     OW 8233   0.717   4.288   7.292
 2518SOL    HW1 8234   0.757   4.350   7.353
 2518SOL    HW2 8235   0.748   4.203   7.322
 2519SOL     OW 8236   1.472   4.924   7.218
 2519SOL    HW1 8237   1.459   4.936   7.312
 2519SOL    HW2 8238   1.566   4.937   7.205
 2520SOL     OW 8239   1.670   4.606   6.841
 2520SOL    HW1 8240   1.663   4.520   6.799
 2520SOL    HW2 8241   1.661   4.669   6.770
 2521SOL     OW 8242   1.217   4.043   6.044
 2521SOL    HW1 8243   1.281   3.972   6.035
 2521SOL    HW2 8244   1.246   4.092   6.121
 2522SOL     OW 8245   0.591   4.462   6.254
 2522SOL    HW1 8246   0.629   4.549   6.239
 2522SOL    HW2 8247   0.521   4.455   6.189
 2523SOL     OW 8248   1.763   4.085   7.237
 2523SOL    HW1 8249   1.746   4.100   7.144
 2523SOL    HW2 8250   1.692   4.028   7.265
 2524SOL     OW 8251   1.745   4.657   7.098
 2524SOL    HW1 8252   1.742   4.752   7.111
 2524SOL    HW2 8253   1.729   4.646   7.005
 2525SOL     OW 8254   0.849   5.095   5.605
 2525SOL    HW1 8255   0.830   5.096   5.698
 2525SOL    HW2 8256   0.869   5.186   5.583
 2526SOL     OW 8257   0.868   4.691   6.441
 2526SOL    HW1 8258   0.917   4.619   6.482
 2526SOL    HW2 8259   0.833   4.741   6.515
 2527SOL     OW 8260   1.080   4.713   5.675
 2527SOL    HW1 8261   1.057   4.763   5.597
 2527SOL    HW2 8262   1.155   4.659   5.649
 2528SOL     OW 8263   0.220   5.026   7.442
 2528SOL    HW1 8264   0.155   4.959   7.419
 2528SOL    HW2 8265   0.210   5.037   7.537
 2529SOL     OW 8266   0.081   4.932   6.242
 2529SOL    HW1 8267   0.100   4.909   6.333
 2529SOL    HW2 8268   0.168   4.937   6.201
 2530SOL     OW 8269   0.670   5.107   7.195
 2530SOL    HW1 8270   0.593   5.073   7.242
 2530SOL    HW2 8271   0.700   5.180   7.248
 2531SOL     OW 8272   1.813   3.909   6.824
 2531SOL    HW1 8273   1.824   3.815   6.839
 2531SOL    HW2 8274   1.822   3.919   6.729
 2532SOL     OW 8275   0.434   4.160   6.110
 2532SOL    HW1 8276   0.461   4.087   6.054
 2532SOL    HW2 8277   0.387   4.118   6.182
 2533SOL     OW 8278   1.707   5.223   6.705
 2533SOL    HW1 8279   1.633   5.206   6.647
 2533SOL    HW2 8280   1.714   5.143   6.758
 2534SOL     OW 8281   0.335   4.282   6.877
 2534SOL    HW1 8282   0.388   4.223   6.930
 2534SOL    HW2 8283   0.349   4.253   6.787
 2535SOL     OW 8284   1.432   3.949   6.704
 2535SOL    HW1 8285   1.459   3.869   6.751
 2535SOL    HW2 8286   1.380   3.998   6.768
 2536SOL     OW 8287   1.009   3.743   6.729
 2536SOL    HW1 8288   0.954   3.675   6.690
 2536SOL    HW2 8289   1.097   3.706   6.731
 2537SOL     OW 8290   0.803   5.047   5.870
 2537SOL    HW1 8291   0.740   4.977   5.889
 2537SOL    HW2 8292   0.856   5.053   5.949
 2538SOL     OW 8293   0.638   0.002   6.872
 2538SOL    HW1 8294   0.643   0.057   6.951
 2538SOL    HW2 8295   0.730   5.285   6.850
 2539SOL     OW 8296   1.352   3.778   5.751
 2539SOL    HW1 8297   1.379   3.716   5.683
 2539SOL    HW2 8298   1.265   3.747   5.777
 2540SOL     OW 8299   1.297   4.184   6.268
 2540SOL    HW1 8300   1.243   4.263   6.275
 2540SOL    HW2 8301   1.293   4.144   6.355
 2541SOL     OW 8302   1.587   3.927   6.463
 2541SOL    HW1 8303   1.525   3.947   6.534
 2541SOL    HW2 8304   1.586   4.005   6.408
 2542SOL     OW 8305   0.047   4.791   5.876
 2542SOL    HW1 8306   0.137   4.761   5.867
 2542SOL    HW2 8307   0.000   4.716   5.912
 2543SOL     OW 8308   0.230   4.356   7.566
 2543SOL    HW1 8309   0.154   4.318   7.610
 2543SOL    HW2 8310   0.223   4.324   7.475
 2544SOL     OW 8311   1.766   4.323   7.680
 2544SOL    HW1 8312   1.747   4.318   7.586
 2544SOL    HW2 8313   1.726   4.245   7.717
 2545SOL     OW 8314   0.279   0.133   7.956
 2545SOL    HW1 8315   0.244   0.212   7.998
 2545SOL    HW2 8316   0.287   0.156   7.864
 2546SOL     OW 8317   0.225   5.157   7.990
 2546SOL    HW1 8318   0.231   5.252   7.995
 2546SOL    HW2 8319   0.157   5.134   8.053
 2547SOL     OW 8320   0.584   4.707   7.580
 2547SOL    HW1 8321   0.630   4.755   7.511
 2547SOL    HW2 8322   0.625   4.735   7.661
 2548SOL     OW 8323   0.003   5.298   7.524
 2548SOL    HW1 8324   0.018   5.211   7.562
 2548SOL    HW2 8325   0.019   0.058   7.597
 2549SOL     OW 8326   1.683   4.593   8.036
 2549SOL    HW1 8327   1.764   4.604   0.005
 2549SOL    HW2 8328   1.672   4.676   7.990
 2550SOL     OW 8329   1.655   4.826   7.875
 2550SOL    HW1 8330   1.743   4.845   7.843
 2550SOL    HW2 8331   1.637   4.895   7.939
 2551SOL     OW 8332   0.800   3.718   7.938
 2551SOL    HW1 8333   0.849   3.799   7.923
 2551SOL    HW2 8334   0.709   3.747   7.949
 2552SOL     OW 8335   1.532   4.720   7.647
 2552SOL    HW1 8336   1.466   4.659   7.680
 2552SOL    HW2 8337   1.575   4.754   7.725
 2553SOL     OW 8338   0.589   4.448   7.708
 2553SOL    HW1 8339   0.597   4.529   7.658
 2553SOL    HW2 8340   0.533   4.471   7.782
 2554SOL     OW 8341   0.054   4.540   0.204
 2554SOL    HW1 8342   0.126   4.490   0.166
 2554SOL    HW2 8343   0.031   4.605   0.137
 2555SOL     OW 8344   0.880   4.070   7.637
 2555SOL    HW1 8345   0.926   4.130   7.579
 2555SOL    HW2 8346   0.914   3.983   7.614
 2556SOL     OW 8347   0.319   4.673   7.693
 2556SOL    HW1 8348   0.400   4.698   7.650
 2556SOL    HW2 8349   0.295   4.589   7.653
 2557SOL     OW 8350   1.086   0.192   7.649
 2557SOL    HW1 8351   1.066   0.126   7.714
 2557SOL    HW2 8352   1.100   0.143   7.568
 2558SOL     OW 8353   1.626   5.100   7.550
 2558SOL    HW1 8354   1.611   5.181   7.501
 2558SOL    HW2 8355   1.557   5.041   7.521
 2559SOL     OW 8356   1.415   3.854   7.864
 2559SOL    HW1 8357   1.402   3.820   7.776
 2559SOL    HW2 8358   1.509   3.851   7.878
 2560SOL     OW 8359   0.380   4.424   7.922
 2560SOL    HW1 8360   0.401   4.331   7.926
 2560SOL    HW2 8361   0.287   4.428   7.944
 2561SOL     OW 8362   0.626   3.844   7.559
 2561SOL    HW1 8363   0.704   3.789   7.568
 2561SOL    HW2 8364   0.584   3.813   7.479
 2562SOL     OW 8365   0.527   3.797   7.960
 2562SOL    HW1 8366   0.441   3.803   8.001
 2562SOL    HW2 8367   0.528   3.868   7.896
 2563SOL     OW 8368   1.428   4.924   7.488
 2563SOL    HW1 8369   1.459   4.849   7.539
 2563SOL    HW2 8370   1.340   4.942   7.521
 2564SOL     OW 8371   0.306   3.768   7.620
 2564SOL    HW1 8372   0.368   3.832   7.586
 2564SOL    HW2 8373   0.360   3.705   7.667
 2565SOL     OW 8374   0.944   3.950   7.911
 2565SOL    HW1 8375   0.899   4.014   7.857
 2565SOL    HW2 8376   1.035   3.979   7.914
 2566SOL     OW 8377   0.448   4.883   0.091
 2566SOL    HW1 8378   0.375   4.900   0.151
 2566SOL    HW2 8379   0.405   4.863   0.007
 2567SOL     OW 8380   1.026   4.267   7.466
 2567SOL    HW1 8381   0.982   4.350   7.449
 2567SOL    HW2 8382   1.087   4.287   7.537
 2568SOL     OW 8383   1.868   4.542   7.802
 2568SOL    HW1 8384   1.873   4.509   7.892
 2568SOL    HW2 8385   1.829   4.471   7.752
 2569SOL     OW 8386   0.479   5.146   7.604
 2569SOL    HW1 8387   0.417   5.095   7.657
 2569SOL    HW2 8388   0.478   5.102   7.518
 2570SOL     OW 8389   1.394   4.296   7.519
 2570SOL    HW1 8390   1.333   4.276   7.591
 2570SOL    HW2 8391   1.478   4.262   7.549
 2571SOL     OW 8392   0.527   3.989   7.771
 2571SOL    HW1 8393   0.569   3.939   7.702
 2571SOL    HW2 8394   0.504   4.072   7.729
 2572SOL     OW 8395   0.705   4.780   7.815
 2572SOL    HW1 8396   0.691   4.771   7.910
 2572SOL    HW2 8397   0.786   4.732   7.799
 2573SOL     OW 8398   0.348   4.818   7.929
 2573SOL    HW1 8399   0.345   4.902   7.884
 2573SOL    HW2 8400   0.350   4.752   7.859
 2574SOL     OW 8401   1.226   5.114   7.831
 2574SOL    HW1 8402   1.311   5.125   7.874
 2574SOL    HW2 8403   1.175   5.061   7.892
 2575SOL     OW 8404   1.587   4.353   7.921
 2575SOL    HW1 8405   1.572   4.412   7.995
 2575SOL    HW2 8406   1.628   4.408   7.855
 2576SOL     OW 8407   1.204   4.251   7.717
 2576SOL    HW1 8408   1.208   4.167   7.763
 2576SOL    HW2 8409   1.177   4.314   7.783
 2577SOL     OW 8410   1.618   4.102   7.815
 2577SOL    HW1 8411   1.639   4.035   7.880
 2577SOL    HW2 8412   1.592   4.178   7.867
 2578SOL     OW 8413   1.530   3.999   7.575
 2578SOL    HW1 8414   1.465   3.933   7.601
 2578SOL    HW2 8415   1.563   4.034   7.658
 2579SOL     OW 8416   1.295   4.552   7.482
 2579SOL    HW1 8417   1.336   4.465   7.483
 2579SOL    HW2 8418   1.325   4.591   7.399
 2580SOL     OW 8419   0.004   5.052   7.655
 2580SOL    HW1 8420   5.223   5.046   7.604
 2580SOL    HW2 8421   0.016   4.965   7.692
 2581SOL     OW 8422   0.837   4.320   7.763
 2581SOL    HW1 8423   0.829   4.230   7.734
 2581SOL    HW2 8424   0.747   4.354   7.763
 2582SOL     OW 8425   0.463   4.217   7.639
 2582SOL    HW1 8426   0.523   4.289   7.654
 2582SOL    HW2 8427   0.378   4.258   7.626
 2583SOL     OW 8428   1.309   4.577   7.755
 2583SOL    HW1 8429   1.222   4.574   7.795
 2583SOL    HW2 8430   1.294   4.566   7.661
 2584SOL     OW 8431   1.712   3.869   7.949
 2584SOL    HW1 8432   1.789   3.861   7.893
 2584SOL    HW2 8433   1.713   3.791   8.004
 2585SOL     OW 8434   0.927   4.636   7.756
 2585SOL    HW1 8435   0.980   4.661   7.680
 2585SOL    HW2 8436   0.923   4.540   7.752
 2586SOL     OW 8437   0.259   5.062   7.744
 2586SOL    HW1 8438   0.166   5.068   7.720
 2586SOL    HW2 8439   0.264   5.100   7.831
 2587SOL     OW 8440   0.079   4.068   7.489
 2587SOL    HW1 8441   5.297   4.026   7.462
 2587SOL    HW2 8442   0.099   4.129   7.418
 2588SOL     OW 8443   0.080   3.860   7.737
 2588SOL    HW1 8444   0.065   3.948   7.703
 2588SOL    HW2 8445   0.153   3.826   7.685
 2589SOL     OW 8446   1.182   5.059   7.564
 2589SOL    HW1 8447   1.089   5.034   7.562
 2589SOL    HW2 8448   1.201   5.073   7.657
 2590SOL     OW 8449   1.215   4.042   7.903
 2590SOL    HW1 8450   1.288   3.981   7.892
 2590SOL    HW2 8451   1.237   4.090   7.984
 2591SOL     OW 8452   0.623   4.463   8.050
 2591SOL    HW1 8453   0.629   4.542   0.023
 2591SOL    HW2 8454   0.531   4.460   8.022
 2592SOL     OW 8455   0.851   5.094   7.465
 2592SOL    HW1 8456   0.832   5.095   7.559
 2592SOL    HW2 8457   0.868   5.186   7.444
 2593SOL     OW 8458   1.075   4.704   7.538
 2593SOL    HW1 8459   1.054   4.759   7.462
 2593SOL    HW2 8460   1.152   4.655   7.511
 2594SOL     OW 8461   0.393   4.154   7.977
 2594SOL    HW1 8462   0.439   4.095   7.917
 2594SOL    HW2 8463   0.434   4.137   8.062
 2595SOL     OW 8464   0.805   5.047   7.730
 2595SOL    HW1 8465   0.744   4.975   7.749
 2595SOL    HW2 8466   0.828   5.082   7.816
 2596SOL     OW 8467   1.352   3.777   7.610
 2596SOL    HW1 8468   1.380   3.712   7.545
 2596SOL    HW2 8469   1.266   3.746   7.638
 2597SOL     OW 8470   0.048   4.793   7.725
 2597SOL    HW1 8471   0.138   4.760   7.724
 2597SOL    HW2 8472   0.000   4.730   7.779
 2598SOL     OW 8473   2.082   0.625   0.119
 2598SOL    HW1 8474   2.002   0.591   0.161
 2598SOL    HW2 8475   2.106   0.558   0.056
 2599SOL     OW 8476   2.080   0.283   0.993
 2599SOL    HW1 8477   2.110   0.249   1.077
 2599SOL    HW2 8478   1.995   0.242   0.978
 2600SOL     OW 8479   1.867   0.385   0.638
 2600SOL    HW1 8480   1.782   0.407   0.678
 2600SOL    HW2 8481   1.849   0.307   0.586
 2601SOL     OW 8482   2.429   1.286   1.174
 2601SOL    HW1 8483   2.341   1.289   1.136
 2601SOL    HW2 8484   2.443   1.374   1.207
 2602SOL     OW 8485   3.422   1.512   0.707
 2602SOL    HW1 8486   3.379   1.492   0.790
 2602SOL    HW2 8487   3.350   1.515   0.643
 2603SOL     OW 8488   2.993   0.698   0.703
 2603SOL    HW1 8489   3.042   0.779   0.688
 2603SOL    HW2 8490   2.945   0.713   0.785
 2604SOL     OW 8491   3.633   0.600   0.231
 2604SOL    HW1 8492   3.590   0.603   0.146
 2604SOL    HW2 8493   3.591   0.526   0.276
 2605SOL     OW 8494   2.619   1.143   1.039
 2605SOL    HW1 8495   2.550   1.177   1.096
 2605SOL    HW2 8496   2.654   1.220   0.995
 2606SOL     OW 8497   2.726   0.779   1.822
 2606SOL    HW1 8498   2.715   0.851   1.884
 2606SOL    HW2 8499   2.751   0.822   1.740
 2607SOL     OW 8500   2.547   1.004   0.650
 2607SOL    HW1 8501   2.612   0.991   0.718
 2607SOL    HW2 8502   2.478   1.055   0.691
 2608SOL     OW 8503   2.571   1.151   1.811
 2608SOL    HW1 8504   2.619   1.230   1.837
 2608SOL    HW2 8505   2.488   1.184   1.777
 2609SOL     OW 8506   2.192   1.427   1.068
 2609SOL    HW1 8507   2.120   1.389   1.017
 2609SOL    HW2 8508   2.243   1.477   1.004
 2610SOL     OW 8509   3.323   1.499   1.353
 2610SOL    HW1 8510   3.372   1.581   1.362
 2610SOL    HW2 8511   3.264   1.497   1.428
 2611SOL     OW 8512   2.305   0.398   1.488
 2611SOL    HW1 8513   2.380   0.339   1.485
 2611SOL    HW2 8514   2.230   0.341   1.502
 2612SOL     OW 8515   3.473   0.452   0.738
 2612SOL    HW1 8516   3.395   0.474   0.687
 2612SOL    HW2 8517   3.492   0.530   0.790
 2613SOL     OW 8518   2.082   1.715   0.472
 2613SOL    HW1 8519   2.104   1.791   0.526
 2613SOL    HW2 8520   2.155   1.705   0.412
 2614SOL     OW 8521   2.998   1.341   1.692
 2614SOL    HW1 8522   3.039   1.337   1.779
 2614SOL    HW2 8523   2.946   1.262   1.686
 2615SOL     OW 8524   2.089   1.441   0.531
 2615SOL    HW1 8525   2.074   1.535   0.536
 2615SOL    HW2 8526   2.030   1.404   0.596
 2616SOL     OW 8527   2.118   1.090   0.891
 2616SOL    HW1 8528   2.115   1.004   0.932
 2616SOL    HW2 8529   2.060   1.144   0.944
 2617SOL     OW 8530   2.474   1.791   1.428
 2617SOL    HW1 8531   2.393   1.773   1.476
 2617SOL    HW2 8532   2.497   1.880   1.454
 2618SOL     OW 8533   2.492   0.961   0.132
 2618SOL    HW1 8534   2.442   1.039   0.106
 2618SOL    HW2 8535   2.541   0.989   0.209
 2619SOL     OW 8536   3.448   0.134   1.457
 2619SOL    HW1 8537   3.468   0.219   1.418
 2619SOL    HW2 8538   3.447   0.151   1.551
 2620SOL     OW 8539   1.976   0.651   0.561
 2620SOL    HW1 8540   1.948   0.562   0.582
 2620SOL    HW2 8541   1.968   0.698   0.644
 2621SOL     OW 8542   3.706   1.759   0.333
 2621SOL    HW1 8543   3.770   1.729   0.398
 2621SOL    HW2 8544   3.732   1.849   0.315
 2622SOL     OW 8545   1.890   1.596   0.111
 2622SOL    HW1 8546   1.877   1.508   0.145
 2622SOL    HW2 8547   1.874   1.653   0.187
 2623SOL     OW 8548   3.551   0.919   0.643
 2623SOL    HW1 8549   3.633   0.877   0.621
 2623SOL    HW2 8550   3.528   0.970   0.565
 2624SOL     OW 8551   3.508   1.105   0.434
 2624SOL    HW1 8552   3.588   1.120   0.384
 2624SOL    HW2 8553   3.513   1.167   0.507
 2625SOL     OW 8554   1.984   0.743   1.585
 2625SOL    HW1 8555   2.076   0.767   1.595
 2625SOL    HW2 8556   1.937   0.826   1.593
 2626SOL     OW 8557   2.475   1.385   0.735
 2626SOL    HW1 8558   2.429   1.301   0.744
 2626SOL    HW2 8559   2.459   1.411   0.644
 2627SOL     OW 8560   3.151   1.239   1.424
 2627SOL    HW1 8561   3.184   1.171   1.364
 2627SOL    HW2 8562   3.208   1.232   1.500
 2628SOL     OW 8563   2.672   0.025   0.528
 2628SOL    HW1 8564   2.701   0.112   0.499
 2628SOL    HW2 8565   2.576   0.029   0.522
 2629SOL     OW 8566   2.053   0.968   1.269
 2629SOL    HW1 8567   2.137   0.925   1.255
 2629SOL    HW2 8568   1.989   0.911   1.225
 2630SOL     OW 8569   3.374   1.005   0.211
 2630SOL    HW1 8570   3.312   0.940   0.243
 2630SOL    HW2 8571   3.425   1.030   0.288
 2631SOL     OW 8572   3.047   1.805   1.621
 2631SOL    HW1 8573   3.060   1.864   1.546
 2631SOL    HW2 8574   3.063   1.718   1.586
 2632SOL     OW 8575   2.188   0.265   1.810
 2632SOL    HW1 8576   2.240   0.341   1.836
 2632SOL    HW2 8577   2.102   0.280   1.849
 2633SOL     OW 8578   3.328   1.420   0.952
 2633SOL    HW1 8579   3.260   1.434   1.017
 2633SOL    HW2 8580   3.316   1.329   0.925
 2634SOL     OW 8581   3.521   1.738   0.581
 2634SOL    HW1 8582   3.501   1.710   0.492
 2634SOL    HW2 8583   3.496   1.664   0.636
 2635SOL     OW 8584   2.460   0.715   0.282
 2635SOL    HW1 8585   2.478   0.791   0.227
 2635SOL    HW2 8586   2.394   0.746   0.345
 2636SOL     OW 8587   3.140   0.345   0.931
 2636SOL    HW1 8588   3.049   0.317   0.943
 2636SOL    HW2 8589   3.190   0.296   0.996
 2637SOL     OW 8590   3.448   1.671   0.318
 2637SOL    HW1 8591   3.539   1.701   0.312
 2637SOL    HW2 8592   3.422   1.653   0.228
 2638SOL     OW 8593   2.656   0.618   1.451
 2638SOL    HW1 8594   2.629   0.597   1.540
 2638SOL    HW2 8595   2.613   0.552   1.396
 2639SOL     OW 8596   3.257   0.475   1.678
 2639SOL    HW1 8597   3.258   0.519   1.763
 2639SOL    HW2 8598   3.320   0.404   1.687
 2640SOL     OW 8599   2.818   0.888   1.582
 2640SOL    HW1 8600   2.872   0.817   1.547
 2640SOL    HW2 8601   2.770   0.921   1.506
 2641SOL     OW 8602   2.856   0.417   1.236
 2641SOL    HW1 8603   2.771   0.438   1.276
 2641SOL    HW2 8604   2.833   0.367   1.157
 2642SOL     OW 8605   2.914   0.698   0.427
 2642SOL    HW1 8606   2.928   0.691   0.522
 2642SOL    HW2 8607   2.831   0.652   0.412
 2643SOL     OW 8608   1.951   0.821   0.776
 2643SOL    HW1 8609   2.032   0.813   0.826
 2643SOL    HW2 8610   1.908   0.899   0.811
 2644SOL     OW 8611   1.989   1.846   1.577
 2644SOL    HW1 8612   1.989   1.826   1.671
 2644SOL    HW2 8613   1.897   1.840   1.551
 2645SOL     OW 8614   2.748   0.358   0.202
 2645SOL    HW1 8615   2.791   0.406   0.131
 2645SOL    HW2 8616   2.730   0.272   0.166
 2646SOL     OW 8617   3.571   0.576   1.828
 2646SOL    HW1 8618   3.533   0.650   1.780
 2646SOL    HW2 8619   3.599   0.515   1.760
 2647SOL     OW 8620   3.238   1.142   0.542
 2647SOL    HW1 8621   3.316   1.128   0.488
 2647SOL    HW2 8622   3.185   1.204   0.492
 2648SOL     OW 8623   2.389   0.201   0.884
 2648SOL    HW1 8624   2.411   0.216   0.975
 2648SOL    HW2 8625   2.411   0.282   0.839
 2649SOL     OW 8626   2.869   1.446   0.473
 2649SOL    HW1 8627   2.829   1.517   0.424
 2649SOL    HW2 8628   2.851   1.467   0.565
 2650SOL     OW 8629   2.217   1.808   0.860
 2650SOL    HW1 8630   2.260   1.723   0.868
 2650SOL    HW2 8631   2.286   1.871   0.877
 2651SOL     OW 8632   3.661   1.058   0.868
 2651SOL    HW1 8633   3.606   1.040   0.792
 2651SOL    HW2 8634   3.600   1.063   0.941
 2652SOL     OW 8635   3.090   1.539   1.513
 2652SOL    HW1 8636   3.076   1.466   1.573
 2652SOL    HW2 8637   3.028   1.523   1.442
 2653SOL     OW 8638   2.190   0.943   0.252
 2653SOL    HW1 8639   2.262   0.981   0.203
 2653SOL    HW2 8640   2.186   0.852   0.223
 2654SOL     OW 8641   3.339   0.742   0.727
 2654SOL    HW1 8642   3.330   0.697   0.811
 2654SOL    HW2 8643   3.417   0.797   0.738
 2655SOL     OW 8644   2.327   1.264   1.738
 2655SOL    HW1 8645   2.300   1.269   1.646
 2655SOL    HW2 8646   2.246   1.262   1.787
 2656SOL     OW 8647   2.969   1.781   0.225
 2656SOL    HW1 8648   2.914   1.739   0.291
 2656SOL    HW2 8649   2.990   1.710   0.164
 2657SOL     OW 8650   2.059   0.278   1.502
 2657SOL    HW1 8651   1.980   0.332   1.497
 2657SOL    HW2 8652   2.050   0.230   1.584
 2658SOL     OW 8653   3.495   1.373   0.082
 2658SOL    HW1 8654   3.454   1.460   0.081
 2658SOL    HW2 8655   3.424   1.313   0.064
 2659SOL     OW 8656   2.327   1.739   0.323
 2659SOL    HW1 8657   2.369   1.796   0.386
 2659SOL    HW2 8658   2.397   1.711   0.264
 2660SOL     OW 8659   3.276   0.099   0.445
 2660SOL    HW1 8660   3.266   0.079   0.352
 2660SOL    HW2 8661   3.367   0.127   0.454
 2661SOL     OW 8662   2.118   1.792   1.232
 2661SOL    HW1 8663   2.169   1.727   1.280
 2661SOL    HW2 8664   2.107   1.755   1.144
 2662SOL     OW 8665   2.799   1.698   0.900
 2662SOL    HW1 8666   2.877   1.646   0.920
 2662SOL    HW2 8667   2.755   1.649   0.831
 2663SOL     OW 8668   2.247   0.698   0.477
 2663SOL    HW1 8669   2.273   0.606   0.486
 2663SOL    HW2 8670   2.155   0.699   0.500
 2664SOL     OW 8671   3.402   0.228   1.724
 2664SOL    HW1 8672   3.409   0.246   1.818
 2664SOL    HW2 8673   3.327   0.169   1.716
 2665SOL     OW 8674   2.487   0.136   0.124
 2665SOL    HW1 8675   2.578   0.108   0.134
 2665SOL    HW2 8676   2.459   0.098   0.041
 2666SOL     OW 8677   2.645   0.313   1.767
 2666SOL    HW1 8678   2.702   0.235   1.768
 2666SOL    HW2 8679   2.594   0.306   1.848
 2667SOL     OW 8680   2.738   1.521   1.194
 2667SOL    HW1 8681   2.723   1.485   1.106
 2667SOL    HW2 8682   2.808   1.467   1.230
 2668SOL     OW 8683   3.203   0.589   1.432
 2668SOL    HW1 8684   3.234   0.557   1.517
 2668SOL    HW2 8685   3.239   0.677   1.425
 2669SOL     OW 8686   2.676   1.396   0.938
 2669SOL    HW1 8687   2.760   1.385   0.894
 2669SOL    HW2 8688   2.612   1.396   0.867
 2670SOL     OW 8689   2.789   0.510   0.903
 2670SOL    HW1 8690   2.765   0.502   0.810
 2670SOL    HW2 8691   2.821   0.423   0.927
 2671SOL     OW 8692   2.403   0.062   0.512
 2671SOL    HW1 8693   2.317   0.061   0.552
 2671SOL    HW2 8694   2.398   0.131   0.446
 2672SOL     OW 8695   3.296   1.199   0.037
 2672SOL    HW1 8696   3.320   1.125   0.092
 2672SOL    HW2 8697   3.207   1.222   0.065
 2673SOL     OW 8698   2.162   0.067   0.204
 2673SOL    HW1 8699   2.218   0.137   0.171
 2673SOL    HW2 8700   2.215   5.288   0.198
 2674SOL     OW 8701   2.805   0.255   0.455
 2674SOL    HW1 8702   2.778   0.302   0.376
 2674SOL    HW2 8703   2.898   0.277   0.465
 2675SOL     OW 8704   2.942   0.681   1.460
 2675SOL    HW1 8705   2.873   0.615   1.465
 2675SOL    HW2 8706   3.023   0.630   1.453
 2676SOL     OW 8707   3.085   1.570   0.794
 2676SOL    HW1 8708   3.103   1.637   0.728
 2676SOL    HW2 8709   3.154   1.582   0.860
 2677SOL     OW 8710   2.329   1.150   0.735
 2677SOL    HW1 8711   2.260   1.130   0.798
 2677SOL    HW2 8712   2.289   1.133   0.650
 2678SOL     OW 8713   3.131   1.794   0.606
 2678SOL    HW1 8714   3.180   1.857   0.552
 2678SOL    HW2 8715   3.066   1.847   0.652
 2679SOL     OW 8716   2.892   0.530   0.030
 2679SOL    HW1 8717   2.851   0.612   0.000
 2679SOL    HW2 8718   2.955   0.558   0.097
 2680SOL     OW 8719   1.940   0.554   1.393
 2680SOL    HW1 8720   2.031   0.553   1.364
 2680SOL    HW2 8721   1.935   0.624   1.457
 2681SOL     OW 8722   2.419   0.238   1.158
 2681SOL    HW1 8723   2.449   0.151   1.186
 2681SOL    HW2 8724   2.326   0.240   1.184
 2682SOL     OW 8725   2.729   0.460   0.639
 2682SOL    HW1 8726   2.686   0.514   0.573
 2682SOL    HW2 8727   2.751   0.379   0.594
 2683SOL     OW 8728   2.839   0.061   0.762
 2683SOL    HW1 8729   2.775   0.054   0.691
 2683SOL    HW2 8730   2.850   5.271   0.793
 2684SOL     OW 8731   3.298   1.163   0.857
 2684SOL    HW1 8732   3.230   1.096   0.856
 2684SOL    HW2 8733   3.322   1.175   0.765
 2685SOL     OW 8734   3.329   0.605   0.979
 2685SOL    HW1 8735   3.280   0.522   0.983
 2685SOL    HW2 8736   3.390   0.600   1.053
 2686SOL     OW 8737   3.710   0.816   0.387
 2686SOL    HW1 8738   3.762   0.763   0.448
 2686SOL    HW2 8739   3.679   0.754   0.321
 2687SOL     OW 8740   2.344   1.439   0.172
 2687SOL    HW1 8741   2.272   1.396   0.219
 2687SOL    HW2 8742   2.350   1.391   0.089
 2688SOL     OW 8743   3.532   1.265   0.648
 2688SOL    HW1 8744   3.627   1.269   0.661
 2688SOL    HW2 8745   3.501   1.354   0.669
 2689SOL     OW 8746   3.261   0.580   0.087
 2689SOL    HW1 8747   3.198   0.560   0.156
 2689SOL    HW2 8748   3.318   0.503   0.083
 2690SOL     OW 8749   2.385   0.268   0.329
 2690SOL    HW1 8750   2.426   0.212   0.262
 2690SOL    HW2 8751   2.370   0.351   0.284
 2691SOL     OW 8752   3.615   1.238   1.574
 2691SOL    HW1 8753   3.702   1.199   1.571
 2691SOL    HW2 8754   3.630   1.328   1.603
 2692SOL     OW 8755   2.921   1.354   1.334
 2692SOL    HW1 8756   2.847   1.323   1.385
 2692SOL    HW2 8757   2.997   1.312   1.375
 2693SOL     OW 8758   3.469   1.625   1.653
 2693SOL    HW1 8759   3.464   1.659   1.563
 2693SOL    HW2 8760   3.552   1.578   1.656
 2694SOL     OW 8761   2.990   1.203   1.106
 2694SOL    HW1 8762   2.931   1.241   1.171
 2694SOL    HW2 8763   2.956   1.234   1.022
 2695SOL     OW 8764   3.491   1.099   1.078
 2695SOL    HW1 8765   3.487   1.161   1.151
 2695SOL    HW2 8766   3.411   1.115   1.027
 2696SOL     OW 8767   2.767   0.106   1.391
 2696SOL    HW1 8768   2.797   0.072   1.307
 2696SOL    HW2 8769   2.844   0.148   1.429
 2697SOL     OW 8770   2.846   1.115   1.722
 2697SOL    HW1 8771   2.754   1.130   1.743
 2697SOL    HW2 8772   2.845   1.037   1.666
 2698SOL     OW 8773   2.575   1.062   0.380
 2698SOL    HW1 8774   2.558   1.045   0.472
 2698SOL    HW2 8775   2.653   1.010   0.359
 2699SOL     OW 8776   2.280   0.815   1.252
 2699SOL    HW1 8777   2.349   0.824   1.317
 2699SOL    HW2 8778   2.245   0.727   1.266
 2700SOL     OW 8779   3.130   0.379   1.272
 2700SOL    HW1 8780   3.162   0.456   1.319
 2700SOL    HW2 8781   3.039   0.401   1.249
 2701SOL     OW 8782   1.932   1.573   1.352
 2701SOL    HW1 8783   1.901   1.646   1.298
 2701SOL    HW2 8784   2.027   1.577   1.347
 2702SOL     OW 8785   2.208   1.109   0.492
 2702SOL    HW1 8786   2.215   1.182   0.430
 2702SOL    HW2 8787   2.217   1.031   0.438
 2703SOL     OW 8788   2.416   0.538   0.861
 2703SOL    HW1 8789   2.432   0.596   0.786
 2703SOL    HW2 8790   2.481   0.565   0.926
 2704SOL     OW 8791   3.109   1.347   0.393
 2704SOL    HW1 8792   3.165   1.419   0.422
 2704SOL    HW2 8793   3.022   1.370   0.425
 2705SOL     OW 8794   3.142   1.457   1.146
 2705SOL    HW1 8795   3.197   1.459   1.224
 2705SOL    HW2 8796   3.087   1.379   1.159
 2706SOL     OW 8797   3.445   0.626   0.480
 2706SOL    HW1 8798   3.396   0.676   0.545
 2706SOL    HW2 8799   3.481   0.692   0.420
 2707SOL     OW 8800   2.208   1.527   1.316
 2707SOL    HW1 8801   2.196   1.484   1.231
 2707SOL    HW2 8802   2.303   1.539   1.323
 2708SOL     OW 8803   2.275   0.744   1.602
 2708SOL    HW1 8804   2.337   0.790   1.544
 2708SOL    HW2 8805   2.317   0.660   1.620
 2709SOL     OW 8806   3.462   0.778   1.681
 2709SOL    HW1 8807   3.376   0.819   1.674
 2709SOL    HW2 8808   3.514   0.820   1.613
 2710SOL     OW 8809   2.904   0.115   1.783
 2710SOL    HW1 8810   2.928   0.195   1.736
 2710SOL    HW2 8811   2.911   0.045   1.718
 2711SOL     OW 8812   2.344   0.056   1.739
 2711SOL    HW1 8813   2.288   5.292   1.696
 2711SOL    HW2 8814   2.286   0.129   1.760
 2712SOL     OW 8815   2.445   0.872   1.031
 2712SOL    HW1 8816   2.476   0.963   1.030
 2712SOL    HW2 8817   2.388   0.867   1.108
 2713SOL     OW 8818   3.221   0.859   1.031
 2713SOL    HW1 8819   3.139   0.851   0.982
 2713SOL    HW2 8820   3.260   0.772   1.027
 2714SOL     OW 8821   3.067   0.527   0.270
 2714SOL    HW1 8822   3.073   0.447   0.322
 2714SOL    HW2 8823   3.024   0.590   0.329
 2715SOL     OW 8824   2.159   0.205   1.247
 2715SOL    HW1 8825   2.121   0.243   1.325
 2715SOL    HW2 8826   2.157   0.110   1.263
 2716SOL     OW 8827   1.908   1.311   1.276
 2716SOL    HW1 8828   1.941   1.256   1.348
 2716SOL    HW2 8829   1.915   1.400   1.309
 2717SOL     OW 8830   2.588   0.632   1.060
 2717SOL    HW1 8831   2.661   0.614   1.001
 2717SOL    HW2 8832   2.560   0.721   1.037
 2718SOL     OW 8833   3.596   0.960   1.852
 2718SOL    HW1 8834   3.549   0.899   1.793
 2718SOL    HW2 8835   3.536   0.972   1.925
 2719SOL     OW 8836   2.161   0.072   0.649
 2719SOL    HW1 8837   2.147   0.166   0.658
 2719SOL    HW2 8838   2.204   0.046   0.730
 2720SOL     OW 8839   3.481   0.377   0.368
 2720SOL    HW1 8840   3.509   0.311   0.432
 2720SOL    HW2 8841   3.456   0.452   0.421
 2721SOL     OW 8842   2.889   0.760   0.961
 2721SOL    HW1 8843   2.887   0.777   1.055
 2721SOL    HW2 8844   2.863   0.668   0.953
 2722SOL     OW 8845   2.844   1.566   1.716
 2722SOL    HW1 8846   2.829   1.610   1.633
 2722SOL    HW2 8847   2.887   1.484   1.692
 2723SOL     OW 8848   3.717   1.507   1.605
 2723SOL    HW1 8849   3.735   1.533   1.515
 2723SOL    HW2 8850   3.798   1.526   1.652
 2724SOL     OW 8851   2.215   0.916   1.808
 2724SOL    HW1 8852   2.297   0.935   1.854
 2724SOL    HW2 8853   2.239   0.854   1.740
 2725SOL     OW 8854   3.385   0.299   0.126
 2725SOL    HW1 8855   3.345   0.213   0.142
 2725SOL    HW2 8856   3.424   0.323   0.210
 2726SOL     OW 8857   3.156   0.825   0.022
 2726SOL    HW1 8858   3.195   0.739   0.040
 2726SOL    HW2 8859   3.215   0.865   8.037
 2727SOL     OW 8860   2.927   1.335   0.853
 2727SOL    HW1 8861   2.930   1.263   0.792
 2727SOL    HW2 8862   2.989   1.399   0.819
 2728SOL     OW 8863   2.171   0.809   0.947
 2728SOL    HW1 8864   2.264   0.831   0.941
 2728SOL    HW2 8865   2.170   0.719   0.980
 2729SOL     OW 8866   2.195   0.525   1.012
 2729SOL    HW1 8867   2.158   0.438   0.996
 2729SOL    HW2 8868   2.271   0.530   0.955
 2730SOL     OW 8869   2.998   0.378   1.687
 2730SOL    HW1 8870   2.950   0.433   1.750
 2730SOL    HW2 8871   3.085   0.417   1.683
 2731SOL     OW 8872   2.996   0.223   1.465
 2731SOL    HW1 8873   3.001   0.281   1.541
 2731SOL    HW2 8874   3.051   0.264   1.399
 2732SOL     OW 8875   1.872   1.325   0.191
 2732SOL    HW1 8876   1.785   1.338   0.153
 2732SOL    HW2 8877   1.871   1.234   0.222
 2733SOL     OW 8878   1.952   1.788   0.937
 2733SOL    HW1 8879   1.922   1.708   0.894
 2733SOL    HW2 8880   2.042   1.799   0.906
 2734SOL     OW 8881   2.359   1.574   0.905
 2734SOL    HW1 8882   2.428   1.635   0.930
 2734SOL    HW2 8883   2.403   1.509   0.850
 2735SOL     OW 8884   2.847   0.793   1.227
 2735SOL    HW1 8885   2.902   0.769   1.302
 2735SOL    HW2 8886   2.761   0.756   1.248
 2736SOL     OW 8887   1.897   0.544   1.117
 2736SOL    HW1 8888   1.978   0.528   1.067
 2736SOL    HW2 8889   1.927   0.548   1.208
 2737SOL     OW 8890   2.049   0.521   1.726
 2737SOL    HW1 8891   2.112   0.486   1.663
 2737SOL    HW2 8892   2.007   0.594   1.681
 2738SOL     OW 8893   3.238   0.940   1.659
 2738SOL    HW1 8894   3.260   1.033   1.657
 2738SOL    HW2 8895   3.236   0.914   1.567
 2739SOL     OW 8896   2.680   0.570   0.366
 2739SOL    HW1 8897   2.689   0.499   0.303
 2739SOL    HW2 8898   2.603   0.620   0.336
 2740SOL     OW 8899   3.505   0.602   1.187
 2740SOL    HW1 8900   3.493   0.542   1.261
 2740SOL    HW2 8901   3.592   0.581   1.153
 2741SOL     OW 8902   2.106   1.552   1.728
 2741SOL    HW1 8903   2.083   1.615   1.796
 2741SOL    HW2 8904   2.107   1.468   1.774
 2742SOL     OW 8905   2.559   0.453   1.262
 2742SOL    HW1 8906   2.509   0.379   1.227
 2742SOL    HW2 8907   2.559   0.516   1.190
 2743SOL     OW 8908   2.790   1.679   1.467
 2743SOL    HW1 8909   2.765   1.646   1.381
 2743SOL    HW2 8910   2.787   1.774   1.458
 2744SOL     OW 8911   2.330   0.492   0.177
 2744SOL    HW1 8912   2.397   0.557   0.196
 2744SOL    HW2 8913   2.247   0.538   0.193
 2745SOL     OW 8914   2.009   1.140   1.472
 2745SOL    HW1 8915   2.012   1.088   1.552
 2745SOL    HW2 8916   2.026   1.077   1.402
 2746SOL     OW 8917   3.189   1.048   1.224
 2746SOL    HW1 8918   3.213   0.984   1.156
 2746SOL    HW2 8919   3.118   1.099   1.185
 2747SOL     OW 8920   3.168   0.849   0.308
 2747SOL    HW1 8921   3.090   0.820   0.356
 2747SOL    HW2 8922   3.144   0.838   0.216
 2748SOL     OW 8923   3.632   1.745   1.149
 2748SOL    HW1 8924   3.693   1.771   1.080
 2748SOL    HW2 8925   3.609   1.655   1.128
 2749SOL     OW 8926   3.103   1.733   1.114
 2749SOL    HW1 8927   3.185   1.753   1.069
 2749SOL    HW2 8928   3.108   1.639   1.132
 2750SOL     OW 8929   1.945   1.267   1.012
 2750SOL    HW1 8930   1.932   1.279   1.106
 2750SOL    HW2 8931   1.872   1.212   0.984
 2751SOL     OW 8932   2.538   1.665   1.727
 2751SOL    HW1 8933   2.488   1.746   1.726
 2751SOL    HW2 8934   2.604   1.677   1.658
 2752SOL     OW 8935   2.756   0.086   0.139
 2752SOL    HW1 8936   2.803   0.079   0.056
 2752SOL    HW2 8937   2.777   0.005   0.185
 2753SOL     OW 8938   3.575   0.148   0.505
 2753SOL    HW1 8939   3.650   0.126   0.449
 2753SOL    HW2 8940   3.567   0.072   0.563
 2754SOL     OW 8941   3.251   1.568   0.485
 2754SOL    HW1 8942   3.315   1.600   0.421
 2754SOL    HW2 8943   3.204   1.646   0.513
 2755SOL     OW 8944   1.997   1.798   1.843
 2755SOL    HW1 8945   1.947   1.732   1.892
 2755SOL    HW2 8946   2.046   1.845   1.911
 2756SOL     OW 8947   3.139   0.925   0.672
 2756SOL    HW1 8948   3.213   0.864   0.677
 2756SOL    HW2 8949   3.172   0.998   0.619
 2757SOL     OW 8950   2.678   1.273   1.430
 2757SOL    HW1 8951   2.651   1.312   1.513
 2757SOL    HW2 8952   2.608   1.295   1.369
 2758SOL     OW 8953   2.538   1.620   0.156
 2758SOL    HW1 8954   2.543   1.626   0.060
 2758SOL    HW2 8955   2.478   1.547   0.172
 2759SOL     OW 8956   3.490   1.726   1.391
 2759SOL    HW1 8957   3.539   1.734   1.310
 2759SOL    HW2 8958   3.476   1.817   1.419
 2760SOL     OW 8959   3.707   0.158   0.958
 2760SOL    HW1 8960   3.709   0.064   0.941
 2760SOL    HW2 8961   3.620   0.186   0.930
 2761SOL     OW 8962   2.125   0.329   0.720
 2761SOL    HW1 8963   2.037   0.360   0.698
 2761SOL    HW2 8964   2.122   0.316   0.815
 2762SOL     OW 8965   3.019   1.582   0.052
 2762SOL    HW1 8966   3.035   1.490   0.071
 2762SOL    HW2 8967   3.028   1.589   8.037
 2763SOL     OW 8968   2.686   1.006   1.372
 2763SOL    HW1 8969   2.730   1.001   1.287
 2763SOL    HW2 8970   2.687   1.099   1.395
 2764SOL     OW 8971   2.781   0.915   0.298
 2764SOL    HW1 8972   2.835   0.939   0.223
 2764SOL    HW2 8973   2.827   0.841   0.338
 2765SOL     OW 8974   3.372   1.625   0.060
 2765SOL    HW1 8975   3.277   1.625   0.050
 2765SOL    HW2 8976   3.406   1.624   8.051
 2766SOL     OW 8977   2.231   1.302   1.492
 2766SOL    HW1 8978   2.217   1.380   1.437
 2766SOL    HW2 8979   2.154   1.247   1.475
 2767SOL     OW 8980   3.473   1.283   1.281
 2767SOL    HW1 8981   3.533   1.273   1.355
 2767SOL    HW2 8982   3.413   1.352   1.307
 2768SOL     OW 8983   2.912   1.107   0.707
 2768SOL    HW1 8984   2.842   1.055   0.745
 2768SOL    HW2 8985   2.974   1.042   0.673
 2769SOL     OW 8986   2.881   0.243   0.968
 2769SOL    HW1 8987   2.862   0.197   0.886
 2769SOL    HW2 8988   2.874   0.175   1.035
 2770SOL     OW 8989   2.465   1.488   0.480
 2770SOL    HW1 8990   2.508   1.437   0.412
 2770SOL    HW2 8991   2.395   1.536   0.435
 2771SOL     OW 8992   3.585   0.387   1.378
 2771SOL    HW1 8993   3.655   0.452   1.378
 2771SOL    HW2 8994   3.617   0.317   1.321
 2772SOL     OW 8995   2.128   1.321   0.294
 2772SOL    HW1 8996   2.042   1.333   0.254
 2772SOL    HW2 8997   2.122   1.367   0.378
 2773SOL     OW 8998   1.974   1.021   1.719
 2773SOL    HW1 8999   1.898   0.998   1.772
 2773SOL    HW2 9000   2.049   0.984   1.766
 2774SOL     OW 9001   2.534   0.210   1.487
 2774SOL    HW1 9002   2.617   0.193   1.444
 2774SOL    HW2 9003   2.557   0.259   1.566
 2775SOL     OW 9004   1.930   0.362   0.035
 2775SOL    HW1 9005   1.858   0.300   0.022
 2775SOL    HW2 9006   1.946   0.398   8.028
 2776SOL     OW 9007   3.293   0.858   1.401
 2776SOL    HW1 9008   3.244   0.919   1.345
 2776SOL    HW2 9009   3.382   0.861   1.367
 2777SOL     OW 9010   1.931   0.165   0.314
 2777SOL    HW1 9011   1.936   0.252   0.275
 2777SOL    HW2 9012   2.016   0.125   0.296
 2778SOL     OW 9013   3.047   1.320   0.121
 2778SOL    HW1 9014   2.952   1.308   0.121
 2778SOL    HW2 9015   3.070   1.321   0.214
 2779SOL     OW 9016   2.481   0.831   1.433
 2779SOL    HW1 9017   2.536   0.907   1.418
 2779SOL    HW2 9018   2.542   0.758   1.442
 2780SOL     OW 9019   3.346   1.775   0.977
 2780SOL    HW1 9020   3.371   1.835   0.906
 2780SOL    HW2 9021   3.428   1.758   1.024
 2781SOL     OW 9022   2.578   0.572   1.703
 2781SOL    HW1 9023   2.617   0.635   1.763
 2781SOL    HW2 9024   2.610   0.487   1.734
 2782SOL     OW 9025   3.332   1.201   1.632
 2782SOL    HW1 9026   3.320   1.215   1.726
 2782SOL    HW2 9027   3.426   1.215   1.618
 2783SOL     OW 9028   2.242   1.739   1.562
 2783SOL    HW1 9029   2.156   1.780   1.550
 2783SOL    HW2 9030   2.223   1.655   1.605
 2784SOL     OW 9031   3.532   0.882   1.255
 2784SOL    HW1 9032   3.525   0.796   1.213
 2784SOL    HW2 9033   3.523   0.945   1.184
 2785SOL     OW 9034   3.078   0.328   0.474
 2785SOL    HW1 9035   3.136   0.254   0.457
 2785SOL    HW2 9036   3.117   0.374   0.547
 2786SOL     OW 9037   2.450   0.739   0.669
 2786SOL    HW1 9038   2.491   0.824   0.653
 2786SOL    HW2 9039   2.382   0.732   0.603
 2787SOL     OW 9040   3.629   0.361   1.648
 2787SOL    HW1 9041   3.609   0.375   1.556
 2787SOL    HW2 9042   3.558   0.305   1.680
 2788SOL     OW 9043   3.606   0.934   1.512
 2788SOL    HW1 9044   3.605   1.028   1.525
 2788SOL    HW2 9045   3.591   0.922   1.419
 2789SOL     OW 9046   2.756   1.373   0.034
 2789SOL    HW1 9047   2.691   1.365   0.104
 2789SOL    HW2 9048   2.740   1.460   8.078
 2790SOL     OW 9049   2.522   1.792   0.947
 2790SOL    HW1 9050   2.503   1.882   0.921
 2790SOL    HW2 9051   2.617   1.785   0.939
 2791SOL     OW 9052   2.728   0.966   0.856
 2791SOL    HW1 9053   2.779   0.895   0.895
 2791SOL    HW2 9054   2.695   1.016   0.930
 2792SOL     OW 9055   2.939   0.978   0.086
 2792SOL    HW1 9056   2.927   1.039   0.013
 2792SOL    HW2 9057   3.017   0.927   0.063
 2793SOL     OW 9058   3.717   1.555   0.845
 2793SOL    HW1 9059   3.639   1.544   0.790
 2793SOL    HW2 9060   3.709   1.488   0.913
 2794SOL     OW 9061   2.086   1.304   1.856
 2794SOL    HW1 9062   2.019   1.242   1.827
 2794SOL    HW2 9063   2.070   1.316   1.949
 2795SOL     OW 9064   1.947   1.234   0.664
 2795SOL    HW1 9065   1.949   1.184   0.746
 2795SOL    HW2 9066   2.018   1.197   0.612
 2796SOL     OW 9067   2.542   1.402   1.626
 2796SOL    HW1 9068   2.463   1.359   1.658
 2796SOL    HW2 9069   2.538   1.490   1.664
 2797SOL     OW 9070   3.677   0.179   1.233
 2797SOL    HW1 9071   3.646   0.088   1.241
 2797SOL    HW2 9072   3.693   0.190   1.140
 2798SOL     OW 9073   2.287   0.438   0.522
 2798SOL    HW1 9074   2.324   0.366   0.471
 2798SOL    HW2 9075   2.245   0.395   0.596
 2799SOL     OW 9076   3.563   1.490   1.097
 2799SOL    HW1 9077   3.482   1.465   1.053
 2799SOL    HW2 9078   3.576   1.421   1.163
 2800SOL     OW 9079   2.190   0.555   1.290
 2800SOL    HW1 9080   2.246   0.500   1.345
 2800SOL    HW2 9081   2.210   0.528   1.201
 2801SOL     OW 9082   2.688   1.578   0.678
 2801SOL    HW1 9083   2.678   1.627   0.596
 2801SOL    HW2 9084   2.611   1.521   0.682
 2802SOL     OW 9085   3.290   0.218   1.117
 2802SOL    HW1 9086   3.327   0.144   1.164
 2802SOL    HW2 9087   3.242   0.267   1.183
 2803SOL     OW 9088   2.864   0.022   1.142
 2803SOL    HW1 9089   2.814   5.252   1.100
 2803SOL    HW2 9090   2.951   5.284   1.154
 2804SOL     OW 9091   2.631   1.328   0.309
 2804SOL    HW1 9092   2.599   1.238   0.322
 2804SOL    HW2 9093   2.714   1.331   0.356
 2805SOL     OW 9094   2.481   1.557   1.284
 2805SOL    HW1 9095   2.484   1.639   1.334
 2805SOL    HW2 9096   2.569   1.549   1.247
 2806SOL     OW 9097   3.254   0.042   0.170
 2806SOL    HW1 9098   3.248   0.027   0.076
 2806SOL    HW2 9099   3.166   0.067   0.196
 2807SOL     OW 9100   3.170   0.467   0.690
 2807SOL    HW1 9101   3.111   0.542   0.693
 2807SOL    HW2 9102   3.159   0.424   0.775
 2808SOL     OW 9103   3.456   0.216   0.882
 2808SOL    HW1 9104   3.389   0.227   0.948
 2808SOL    HW2 9105   3.449   0.294   0.827
 2809SOL     OW 9106   1.905   1.068   0.303
 2809SOL    HW1 9107   2.000   1.067   0.305
 2809SOL    HW2 9108   1.878   0.985   0.344
 2810SOL     OW 9109   2.743   1.653   0.348
 2810SOL    HW1 9110   2.676   1.635   0.283
 2810SOL    HW2 9111   2.711   1.729   0.396
 2811SOL     OW 9112   2.091   0.625   1.984
 2811SOL    HW1 9113   2.002   0.622   2.019
 2811SOL    HW2 9114   2.082   0.598   1.893
 2812SOL     OW 9115   2.081   0.283   2.854
 2812SOL    HW1 9116   2.110   0.249   2.939
 2812SOL    HW2 9117   1.995   0.243   2.840
 2813SOL     OW 9118   1.867   0.385   2.500
 2813SOL    HW1 9119   1.782   0.406   2.540
 2813SOL    HW2 9120   1.849   0.307   2.447
 2814SOL     OW 9121   2.429   1.285   3.036
 2814SOL    HW1 9122   2.341   1.286   2.998
 2814SOL    HW2 9123   2.442   1.374   3.069
 2815SOL     OW 9124   3.422   1.511   2.568
 2815SOL    HW1 9125   3.379   1.493   2.651
 2815SOL    HW2 9126   3.351   1.516   2.504
 2816SOL     OW 9127   2.993   0.698   2.565
 2816SOL    HW1 9128   3.042   0.779   2.550
 2816SOL    HW2 9129   2.945   0.713   2.646
 2817SOL     OW 9130   3.627   0.607   2.091
 2817SOL    HW1 9131   3.608   0.598   1.998
 2817SOL    HW2 9132   3.593   0.526   2.130
 2818SOL     OW 9133   2.620   1.144   2.902
 2818SOL    HW1 9134   2.550   1.177   2.958
 2818SOL    HW2 9135   2.654   1.221   2.857
 2819SOL     OW 9136   2.726   0.779   3.684
 2819SOL    HW1 9137   2.715   0.851   3.746
 2819SOL    HW2 9138   2.751   0.822   3.602
 2820SOL     OW 9139   2.549   1.004   2.509
 2820SOL    HW1 9140   2.613   0.991   2.579
 2820SOL    HW2 9141   2.478   1.055   2.550
 2821SOL     OW 9142   2.572   1.151   3.672
 2821SOL    HW1 9143   2.619   1.230   3.699
 2821SOL    HW2 9144   2.488   1.183   3.639
 2822SOL     OW 9145   2.194   1.425   2.929
 2822SOL    HW1 9146   2.120   1.389   2.880
 2822SOL    HW2 9147   2.243   1.476   2.864
 2823SOL     OW 9148   3.324   1.498   3.216
 2823SOL    HW1 9149   3.367   1.583   3.224
 2823SOL    HW2 9150   3.260   1.497   3.287
 2824SOL     OW 9151   2.305   0.398   3.350
 2824SOL    HW1 9152   2.380   0.339   3.347
 2824SOL    HW2 9153   2.230   0.341   3.364
 2825SOL     OW 9154   3.473   0.452   2.600
 2825SOL    HW1 9155   3.397   0.476   2.547
 2825SOL    HW2 9156   3.493   0.530   2.651
 2826SOL     OW 9157   2.081   1.714   2.334
 2826SOL    HW1 9158   2.104   1.791   2.387
 2826SOL    HW2 9159   2.154   1.705   2.272
 2827SOL     OW 9160   2.996   1.343   3.554
 2827SOL    HW1 9161   3.039   1.337   3.640
 2827SOL    HW2 9162   2.944   1.263   3.548
 2828SOL     OW 9163   2.092   1.441   2.397
 2828SOL    HW1 9164   2.074   1.535   2.401
 2828SOL    HW2 9165   2.031   1.402   2.460
 2829SOL     OW 9166   2.118   1.090   2.753
 2829SOL    HW1 9167   2.115   1.004   2.794
 2829SOL    HW2 9168   2.061   1.144   2.806
 2830SOL     OW 9169   2.449   0.981   1.995
 2830SOL    HW1 9170   2.493   1.031   1.927
 2830SOL    HW2 9171   2.489   1.011   2.077
 2831SOL     OW 9172   3.448   0.134   3.319
 2831SOL    HW1 9173   3.468   0.219   3.280
 2831SOL    HW2 9174   3.447   0.151   3.413
 2832SOL     OW 9175   1.976   0.653   2.421
 2832SOL    HW1 9176   1.948   0.564   2.442
 2832SOL    HW2 9177   1.969   0.701   2.504
 2833SOL     OW 9178   3.704   1.760   2.198
 2833SOL    HW1 9179   3.767   1.731   2.264
 2833SOL    HW2 9180   3.729   1.850   2.179
 2834SOL     OW 9181   1.893   1.596   1.986
 2834SOL    HW1 9182   1.876   1.504   2.005
 2834SOL    HW2 9183   1.869   1.642   2.066
 2835SOL     OW 9184   3.552   0.919   2.502
 2835SOL    HW1 9185   3.635   0.877   2.481
 2835SOL    HW2 9186   3.530   0.969   2.423
 2836SOL     OW 9187   3.507   1.107   2.292
 2836SOL    HW1 9188   3.593   1.114   2.249
 2836SOL    HW2 9189   3.512   1.168   2.365
 2837SOL     OW 9190   1.984   0.743   3.447
 2837SOL    HW1 9191   2.076   0.768   3.457
 2837SOL    HW2 9192   1.936   0.826   3.455
 2838SOL     OW 9193   2.474   1.384   2.597
 2838SOL    HW1 9194   2.429   1.301   2.607
 2838SOL    HW2 9195   2.458   1.411   2.507
 2839SOL     OW 9196   3.150   1.237   3.285
 2839SOL    HW1 9197   3.184   1.170   3.226
 2839SOL    HW2 9198   3.208   1.232   3.362
 2840SOL     OW 9199   2.671   0.025   2.388
 2840SOL    HW1 9200   2.700   0.113   2.364
 2840SOL    HW2 9201   2.576   0.029   2.382
 2841SOL     OW 9202   2.053   0.967   3.133
 2841SOL    HW1 9203   2.137   0.925   3.117
 2841SOL    HW2 9204   1.989   0.912   3.087
 2842SOL     OW 9205   3.394   0.993   2.060
 2842SOL    HW1 9206   3.324   0.935   2.091
 2842SOL    HW2 9207   3.434   1.027   2.139
 2843SOL     OW 9208   2.188   0.265   3.672
 2843SOL    HW1 9209   2.240   0.341   3.698
 2843SOL    HW2 9210   2.102   0.280   3.710
 2844SOL     OW 9211   3.328   1.419   2.813
 2844SOL    HW1 9212   3.260   1.433   2.880
 2844SOL    HW2 9213   3.317   1.328   2.786
 2845SOL     OW 9214   3.521   1.737   2.440
 2845SOL    HW1 9215   3.501   1.708   2.351
 2845SOL    HW2 9216   3.496   1.664   2.496
 2846SOL     OW 9217   2.457   0.722   2.127
 2846SOL    HW1 9218   2.464   0.803   2.076
 2846SOL    HW2 9219   2.392   0.741   2.194
 2847SOL     OW 9220   3.140   0.345   2.792
 2847SOL    HW1 9221   3.050   0.317   2.805
 2847SOL    HW2 9222   3.190   0.296   2.858
 2848SOL     OW 9223   3.443   1.669   2.171
 2848SOL    HW1 9224   3.533   1.702   2.165
 2848SOL    HW2 9225   3.417   1.652   2.081
 2849SOL     OW 9226   2.656   0.618   3.313
 2849SOL    HW1 9227   2.629   0.597   3.402
 2849SOL    HW2 9228   2.613   0.552   3.258
 2850SOL     OW 9229   3.257   0.475   3.540
 2850SOL    HW1 9230   3.258   0.519   3.625
 2850SOL    HW2 9231   3.320   0.404   3.549
 2851SOL     OW 9232   2.818   0.888   3.444
 2851SOL    HW1 9233   2.872   0.817   3.409
 2851SOL    HW2 9234   2.770   0.921   3.368
 2852SOL     OW 9235   2.856   0.417   3.098
 2852SOL    HW1 9236   2.772   0.439   3.138
 2852SOL    HW2 9237   2.833   0.368   3.019
 2853SOL     OW 9238   2.912   0.698   2.289
 2853SOL    HW1 9239   2.927   0.691   2.383
 2853SOL    HW2 9240   2.830   0.652   2.274
 2854SOL     OW 9241   1.950   0.820   2.639
 2854SOL    HW1 9242   2.032   0.813   2.688
 2854SOL    HW2 9243   1.908   0.899   2.673
 2855SOL     OW 9244   1.997   1.837   3.437
 2855SOL    HW1 9245   1.993   1.821   3.531
 2855SOL    HW2 9246   1.905   1.848   3.411
 2856SOL     OW 9247   2.734   0.362   2.051
 2856SOL    HW1 9248   2.779   0.422   1.991
 2856SOL    HW2 9249   2.783   0.281   2.046
 2857SOL     OW 9250   3.571   0.576   3.690
 2857SOL    HW1 9251   3.533   0.650   3.642
 2857SOL    HW2 9252   3.599   0.515   3.622
 2858SOL     OW 9253   3.238   1.142   2.404
 2858SOL    HW1 9254   3.317   1.129   2.351
 2858SOL    HW2 9255   3.186   1.204   2.353
 2859SOL     OW 9256   2.390   0.201   2.745
 2859SOL    HW1 9257   2.412   0.216   2.837
 2859SOL    HW2 9258   2.411   0.284   2.702
 2860SOL     OW 9259   2.869   1.445   2.335
 2860SOL    HW1 9260   2.830   1.517   2.285
 2860SOL    HW2 9261   2.852   1.467   2.426
 2861SOL     OW 9262   2.217   1.808   2.722
 2861SOL    HW1 9263   2.257   1.721   2.730
 2861SOL    HW2 9264   2.289   1.869   2.741
 2862SOL     OW 9265   3.661   1.058   2.730
 2862SOL    HW1 9266   3.606   1.041   2.653
 2862SOL    HW2 9267   3.599   1.063   2.803
 2863SOL     OW 9268   3.093   1.530   3.367
 2863SOL    HW1 9269   3.076   1.465   3.436
 2863SOL    HW2 9270   3.031   1.509   3.298
 2864SOL     OW 9271   2.183   0.957   2.111
 2864SOL    HW1 9272   2.265   0.976   2.066
 2864SOL    HW2 9273   2.152   0.875   2.073
 2865SOL     OW 9274   3.339   0.742   2.590
 2865SOL    HW1 9275   3.330   0.697   2.674
 2865SOL    HW2 9276   3.417   0.797   2.600
 2866SOL     OW 9277   2.328   1.264   3.599
 2866SOL    HW1 9278   2.300   1.269   3.508
 2866SOL    HW2 9279   2.246   1.262   3.649
 2867SOL     OW 9280   2.983   1.778   2.093
 2867SOL    HW1 9281   2.911   1.736   2.139
 2867SOL    HW2 9282   3.006   1.717   2.023
 2868SOL     OW 9283   2.059   0.278   3.364
 2868SOL    HW1 9284   1.980   0.332   3.359
 2868SOL    HW2 9285   2.050   0.230   3.446
 2869SOL     OW 9286   3.491   1.379   1.949
 2869SOL    HW1 9287   3.450   1.465   1.934
 2869SOL    HW2 9288   3.422   1.316   1.930
 2870SOL     OW 9289   2.329   1.736   2.185
 2870SOL    HW1 9290   2.371   1.795   2.247
 2870SOL    HW2 9291   2.399   1.709   2.126
 2871SOL     OW 9292   3.269   0.099   2.293
 2871SOL    HW1 9293   3.260   0.082   2.199
 2871SOL    HW2 9294   3.361   0.122   2.305
 2872SOL     OW 9295   2.099   1.781   3.097
 2872SOL    HW1 9296   2.164   1.731   3.147
 2872SOL    HW2 9297   2.112   1.754   3.006
 2873SOL     OW 9298   2.799   1.694   2.759
 2873SOL    HW1 9299   2.879   1.644   2.774
 2873SOL    HW2 9300   2.754   1.647   2.689
 2874SOL     OW 9301   2.254   0.696   2.339
 2874SOL    HW1 9302   2.276   0.603   2.349
 2874SOL    HW2 9303   2.160   0.701   2.357
 2875SOL     OW 9304   3.402   0.228   3.586
 2875SOL    HW1 9305   3.409   0.246   3.680
 2875SOL    HW2 9306   3.327   0.169   3.578
 2876SOL     OW 9307   2.486   0.133   1.969
 2876SOL    HW1 9308   2.552   0.067   1.992
 2876SOL    HW2 9309   2.435   0.092   1.899
 2877SOL     OW 9310   2.645   0.313   3.629
 2877SOL    HW1 9311   2.701   0.235   3.630
 2877SOL    HW2 9312   2.594   0.306   3.710
 2878SOL     OW 9313   2.739   1.523   3.058
 2878SOL    HW1 9314   2.723   1.490   2.970
 2878SOL    HW2 9315   2.808   1.467   3.094
 2879SOL     OW 9316   3.203   0.589   3.294
 2879SOL    HW1 9317   3.234   0.557   3.379
 2879SOL    HW2 9318   3.239   0.677   3.287
 2880SOL     OW 9319   2.676   1.397   2.801
 2880SOL    HW1 9320   2.760   1.385   2.757
 2880SOL    HW2 9321   2.611   1.396   2.730
 2881SOL     OW 9322   2.789   0.510   2.765
 2881SOL    HW1 9323   2.766   0.502   2.673
 2881SOL    HW2 9324   2.821   0.423   2.790
 2882SOL     OW 9325   2.404   0.063   2.371
 2882SOL    HW1 9326   2.318   0.062   2.414
 2882SOL    HW2 9327   2.397   0.133   2.306
 2883SOL     OW 9328   3.290   1.198   1.903
 2883SOL    HW1 9329   3.321   1.122   1.953
 2883SOL    HW2 9330   3.204   1.218   1.940
 2884SOL     OW 9331   2.163   0.061   2.052
 2884SOL    HW1 9332   2.222   0.130   2.022
 2884SOL    HW2 9333   2.219   5.285   2.065
 2885SOL     OW 9334   2.801   0.259   2.324
 2885SOL    HW1 9335   2.772   0.299   2.241
 2885SOL    HW2 9336   2.896   0.271   2.325
 2886SOL     OW 9337   2.942   0.681   3.321
 2886SOL    HW1 9338   2.873   0.615   3.327
 2886SOL    HW2 9339   3.023   0.630   3.315
 2887SOL     OW 9340   3.084   1.572   2.657
 2887SOL    HW1 9341   3.102   1.637   2.590
 2887SOL    HW2 9342   3.155   1.583   2.720
 2888SOL     OW 9343   2.330   1.149   2.597
 2888SOL    HW1 9344   2.260   1.130   2.659
 2888SOL    HW2 9345   2.291   1.132   2.511
 2889SOL     OW 9346   3.132   1.794   2.469
 2889SOL    HW1 9347   3.177   1.855   2.411
 2889SOL    HW2 9348   3.066   1.848   2.514
 2890SOL     OW 9349   2.889   0.547   1.883
 2890SOL    HW1 9350   2.846   0.631   1.865
 2890SOL    HW2 9351   2.952   0.567   1.952
 2891SOL     OW 9352   1.940   0.554   3.255
 2891SOL    HW1 9353   2.031   0.553   3.227
 2891SOL    HW2 9354   1.935   0.624   3.319
 2892SOL     OW 9355   2.418   0.237   3.020
 2892SOL    HW1 9356   2.449   0.151   3.048
 2892SOL    HW2 9357   2.326   0.240   3.046
 2893SOL     OW 9358   2.730   0.462   2.503
 2893SOL    HW1 9359   2.684   0.515   2.438
 2893SOL    HW2 9360   2.752   0.381   2.456
 2894SOL     OW 9361   2.840   0.061   2.624
 2894SOL    HW1 9362   2.775   0.054   2.554
 2894SOL    HW2 9363   2.850   5.271   2.656
 2895SOL     OW 9364   3.298   1.163   2.719
 2895SOL    HW1 9365   3.230   1.096   2.717
 2895SOL    HW2 9366   3.323   1.175   2.627
 2896SOL     OW 9367   3.329   0.605   2.841
 2896SOL    HW1 9368   3.280   0.522   2.845
 2896SOL    HW2 9369   3.390   0.600   2.915
 2897SOL     OW 9370   3.708   0.817   2.244
 2897SOL    HW1 9371   3.764   0.766   2.302
 2897SOL    HW2 9372   3.679   0.755   2.177
 2898SOL     OW 9373   2.353   1.417   2.020
 2898SOL    HW1 9374   2.278   1.387   2.072
 2898SOL    HW2 9375   2.337   1.381   1.933
 2899SOL     OW 9376   3.531   1.264   2.509
 2899SOL    HW1 9377   3.626   1.268   2.522
 2899SOL    HW2 9378   3.500   1.352   2.530
 2900SOL     OW 9379   3.256   0.572   1.933
 2900SOL    HW1 9380   3.195   0.553   2.005
 2900SOL    HW2 9381   3.340   0.540   1.965
 2901SOL     OW 9382   2.386   0.264   2.183
 2901SOL    HW1 9383   2.430   0.215   2.114
 2901SOL    HW2 9384   2.366   0.349   2.144
 2902SOL     OW 9385   3.615   1.238   3.436
 2902SOL    HW1 9386   3.702   1.199   3.433
 2902SOL    HW2 9387   3.630   1.328   3.465
 2903SOL     OW 9388   2.921   1.357   3.200
 2903SOL    HW1 9389   2.846   1.322   3.249
 2903SOL    HW2 9390   2.997   1.312   3.238
 2904SOL     OW 9391   3.470   1.627   3.515
 2904SOL    HW1 9392   3.465   1.658   3.425
 2904SOL    HW2 9393   3.553   1.579   3.519
 2905SOL     OW 9394   2.990   1.205   2.969
 2905SOL    HW1 9395   2.927   1.240   3.032
 2905SOL    HW2 9396   2.957   1.234   2.884
 2906SOL     OW 9397   3.491   1.099   2.940
 2906SOL    HW1 9398   3.487   1.160   3.013
 2906SOL    HW2 9399   3.411   1.115   2.889
 2907SOL     OW 9400   2.767   0.106   3.253
 2907SOL    HW1 9401   2.797   0.072   3.169
 2907SOL    HW2 9402   2.844   0.148   3.291
 2908SOL     OW 9403   2.846   1.115   3.584
 2908SOL    HW1 9404   2.754   1.130   3.605
 2908SOL    HW2 9405   2.845   1.037   3.528
 2909SOL     OW 9406   2.571   1.061   2.233
 2909SOL    HW1 9407   2.557   1.045   2.327
 2909SOL    HW2 9408   2.646   1.007   2.211
 2910SOL     OW 9409   2.280   0.814   3.113
 2910SOL    HW1 9410   2.349   0.824   3.179
 2910SOL    HW2 9411   2.244   0.727   3.128
 2911SOL     OW 9412   3.130   0.379   3.134
 2911SOL    HW1 9413   3.162   0.456   3.181
 2911SOL    HW2 9414   3.039   0.402   3.111
 2912SOL     OW 9415   1.929   1.571   3.212
 2912SOL    HW1 9416   1.899   1.647   3.162
 2912SOL    HW2 9417   2.025   1.578   3.212
 2913SOL     OW 9418   2.213   1.108   2.353
 2913SOL    HW1 9419   2.217   1.181   2.292
 2913SOL    HW2 9420   2.211   1.030   2.298
 2914SOL     OW 9421   2.416   0.538   2.723
 2914SOL    HW1 9422   2.432   0.596   2.648
 2914SOL    HW2 9423   2.481   0.565   2.788
 2915SOL     OW 9424   3.110   1.348   2.251
 2915SOL    HW1 9425   3.166   1.420   2.282
 2915SOL    HW2 9426   3.023   1.369   2.285
 2916SOL     OW 9427   3.144   1.451   3.009
 2916SOL    HW1 9428   3.197   1.453   3.088
 2916SOL    HW2 9429   3.088   1.373   3.019
 2917SOL     OW 9430   3.445   0.623   2.340
 2917SOL    HW1 9431   3.398   0.679   2.403
 2917SOL    HW2 9432   3.489   0.685   2.282
 2918SOL     OW 9433   2.208   1.518   3.180
 2918SOL    HW1 9434   2.195   1.480   3.093
 2918SOL    HW2 9435   2.303   1.535   3.185
 2919SOL     OW 9436   2.275   0.744   3.464
 2919SOL    HW1 9437   2.337   0.790   3.406
 2919SOL    HW2 9438   2.317   0.660   3.481
 2920SOL     OW 9439   3.462   0.778   3.543
 2920SOL    HW1 9440   3.376   0.819   3.536
 2920SOL    HW2 9441   3.514   0.821   3.475
 2921SOL     OW 9442   2.904   0.115   3.645
 2921SOL    HW1 9443   2.928   0.195   3.598
 2921SOL    HW2 9444   2.911   0.045   3.580
 2922SOL     OW 9445   2.344   0.056   3.601
 2922SOL    HW1 9446   2.288   5.292   3.558
 2922SOL    HW2 9447   2.286   0.129   3.622
 2923SOL     OW 9448   2.446   0.872   2.894
 2923SOL    HW1 9449   2.475   0.963   2.891
 2923SOL    HW2 9450   2.388   0.867   2.970
 2924SOL     OW 9451   3.221   0.859   2.893
 2924SOL    HW1 9452   3.139   0.850   2.844
 2924SOL    HW2 9453   3.260   0.772   2.889
 2925SOL     OW 9454   3.069   0.529   2.130
 2925SOL    HW1 9455   3.073   0.448   2.181
 2925SOL    HW2 9456   3.026   0.592   2.189
 2926SOL     OW 9457   2.159   0.205   3.109
 2926SOL    HW1 9458   2.121   0.243   3.187
 2926SOL    HW2 9459   2.157   0.110   3.125
 2927SOL     OW 9460   1.907   1.310   3.139
 2927SOL    HW1 9461   1.942   1.257   3.211
 2927SOL    HW2 9462   1.915   1.400   3.169
 2928SOL     OW 9463   2.588   0.632   2.923
 2928SOL    HW1 9464   2.661   0.615   2.863
 2928SOL    HW2 9465   2.559   0.720   2.900
 2929SOL     OW 9466   3.596   0.960   3.714
 2929SOL    HW1 9467   3.549   0.899   3.655
 2929SOL    HW2 9468   3.536   0.972   3.787
 2930SOL     OW 9469   2.163   0.073   2.510
 2930SOL    HW1 9470   2.148   0.167   2.520
 2930SOL    HW2 9471   2.202   0.046   2.593
 2931SOL     OW 9472   3.473   0.374   2.228
 2931SOL    HW1 9473   3.507   0.311   2.292
 2931SOL    HW2 9474   3.453   0.452   2.280
 2932SOL     OW 9475   2.889   0.760   2.823
 2932SOL    HW1 9476   2.887   0.777   2.917
 2932SOL    HW2 9477   2.863   0.668   2.815
 2933SOL     OW 9478   2.847   1.570   3.577
 2933SOL    HW1 9479   2.821   1.608   3.493
 2933SOL    HW2 9480   2.889   1.487   3.554
 2934SOL     OW 9481   3.717   1.507   3.467
 2934SOL    HW1 9482   3.736   1.533   3.377
 2934SOL    HW2 9483   3.798   1.526   3.515
 2935SOL     OW 9484   2.215   0.916   3.670
 2935SOL    HW1 9485   2.298   0.934   3.716
 2935SOL    HW2 9486   2.239   0.854   3.602
 2936SOL     OW 9487   3.389   0.273   1.988
 2936SOL    HW1 9488   3.326   0.208   2.019
 2936SOL    HW2 9489   3.425   0.311   2.069
 2937SOL     OW 9490   3.155   0.827   1.894
 2937SOL    HW1 9491   3.197   0.741   1.897
 2937SOL    HW2 9492   3.186   0.866   1.812
 2938SOL     OW 9493   2.927   1.335   2.716
 2938SOL    HW1 9494   2.930   1.263   2.654
 2938SOL    HW2 9495   2.989   1.399   2.681
 2939SOL     OW 9496   2.171   0.809   2.810
 2939SOL    HW1 9497   2.264   0.831   2.802
 2939SOL    HW2 9498   2.170   0.719   2.843
 2940SOL     OW 9499   2.195   0.525   2.874
 2940SOL    HW1 9500   2.158   0.438   2.858
 2940SOL    HW2 9501   2.271   0.530   2.817
 2941SOL     OW 9502   2.998   0.378   3.549
 2941SOL    HW1 9503   2.950   0.433   3.612
 2941SOL    HW2 9504   3.085   0.417   3.545
 2942SOL     OW 9505   2.996   0.223   3.327
 2942SOL    HW1 9506   3.001   0.281   3.403
 2942SOL    HW2 9507   3.051   0.264   3.261
 2943SOL     OW 9508   1.867   1.322   2.057
 2943SOL    HW1 9509   1.780   1.336   2.019
 2943SOL    HW2 9510   1.864   1.232   2.090
 2944SOL     OW 9511   1.950   1.792   2.796
 2944SOL    HW1 9512   1.919   1.711   2.755
 2944SOL    HW2 9513   2.041   1.799   2.768
 2945SOL     OW 9514   2.359   1.574   2.766
 2945SOL    HW1 9515   2.428   1.635   2.791
 2945SOL    HW2 9516   2.403   1.509   2.711
 2946SOL     OW 9517   2.847   0.794   3.089
 2946SOL    HW1 9518   2.902   0.769   3.164
 2946SOL    HW2 9519   2.761   0.756   3.109
 2947SOL     OW 9520   1.897   0.543   2.979
 2947SOL    HW1 9521   1.977   0.529   2.929
 2947SOL    HW2 9522   1.927   0.548   3.070
 2948SOL     OW 9523   2.049   0.521   3.588
 2948SOL    HW1 9524   2.112   0.487   3.525
 2948SOL    HW2 9525   2.007   0.594   3.543
 2949SOL     OW 9526   3.238   0.940   3.521
 2949SOL    HW1 9527   3.260   1.033   3.519
 2949SOL    HW2 9528   3.236   0.914   3.429
 2950SOL     OW 9529   2.676   0.572   2.223
 2950SOL    HW1 9530   2.679   0.497   2.163
 2950SOL    HW2 9531   2.602   0.624   2.192
 2951SOL     OW 9532   3.505   0.601   3.049
 2951SOL    HW1 9533   3.493   0.542   3.123
 2951SOL    HW2 9534   3.592   0.581   3.015
 2952SOL     OW 9535   2.109   1.550   3.590
 2952SOL    HW1 9536   2.083   1.614   3.656
 2952SOL    HW2 9537   2.108   1.466   3.636
 2953SOL     OW 9538   2.559   0.453   3.123
 2953SOL    HW1 9539   2.509   0.379   3.089
 2953SOL    HW2 9540   2.559   0.516   3.052
 2954SOL     OW 9541   2.761   1.684   3.335
 2954SOL    HW1 9542   2.767   1.649   3.247
 2954SOL    HW2 9543   2.822   1.758   3.337
 2955SOL     OW 9544   2.326   0.493   2.046
 2955SOL    HW1 9545   2.386   0.564   2.069
 2955SOL    HW2 9546   2.241   0.535   2.037
 2956SOL     OW 9547   2.008   1.140   3.334
 2956SOL    HW1 9548   2.011   1.088   3.414
 2956SOL    HW2 9549   2.026   1.077   3.264
 2957SOL     OW 9550   3.189   1.048   3.086
 2957SOL    HW1 9551   3.213   0.984   3.018
 2957SOL    HW2 9552   3.118   1.099   3.047
 2958SOL     OW 9553   3.172   0.857   2.169
 2958SOL    HW1 9554   3.096   0.825   2.218
 2958SOL    HW2 9555   3.149   0.843   2.077
 2959SOL     OW 9556   3.634   1.744   3.012
 2959SOL    HW1 9557   3.693   1.770   2.942
 2959SOL    HW2 9558   3.609   1.654   2.991
 2960SOL     OW 9559   3.122   1.723   2.983
 2960SOL    HW1 9560   3.200   1.743   2.932
 2960SOL    HW2 9561   3.125   1.628   2.995
 2961SOL     OW 9562   1.947   1.266   2.875
 2961SOL    HW1 9563   1.932   1.279   2.969
 2961SOL    HW2 9564   1.872   1.213   2.846
 2962SOL     OW 9565   2.541   1.663   3.584
 2962SOL    HW1 9566   2.487   1.741   3.570
 2962SOL    HW2 9567   2.613   1.672   3.521
 2963SOL     OW 9568   3.575   0.147   2.366
 2963SOL    HW1 9569   3.650   0.127   2.311
 2963SOL    HW2 9570   3.567   0.072   2.425
 2964SOL     OW 9571   3.252   1.568   2.346
 2964SOL    HW1 9572   3.313   1.599   2.279
 2964SOL    HW2 9573   3.204   1.646   2.374
 2965SOL     OW 9574   2.000   1.794   3.706
 2965SOL    HW1 9575   1.948   1.728   3.751
 2965SOL    HW2 9576   2.042   1.844   3.776
 2966SOL     OW 9577   3.139   0.925   2.533
 2966SOL    HW1 9578   3.213   0.864   2.539
 2966SOL    HW2 9579   3.173   0.998   2.481
 2967SOL     OW 9580   2.678   1.273   3.292
 2967SOL    HW1 9581   2.650   1.311   3.375
 2967SOL    HW2 9582   2.606   1.292   3.231
 2968SOL     OW 9583   2.535   1.617   2.018
 2968SOL    HW1 9584   2.543   1.631   1.924
 2968SOL    HW2 9585   2.479   1.540   2.026
 2969SOL     OW 9586   3.491   1.735   3.254
 2969SOL    HW1 9587   3.542   1.731   3.173
 2969SOL    HW2 9588   3.479   1.828   3.271
 2970SOL     OW 9589   3.707   0.158   2.820
 2970SOL    HW1 9590   3.709   0.064   2.803
 2970SOL    HW2 9591   3.620   0.186   2.792
 2971SOL     OW 9592   2.125   0.329   2.582
 2971SOL    HW1 9593   2.037   0.360   2.559
 2971SOL    HW2 9594   2.122   0.317   2.677
 2972SOL     OW 9595   3.069   1.607   1.893
 2972SOL    HW1 9596   3.059   1.515   1.920
 2972SOL    HW2 9597   3.004   1.618   1.824
 2973SOL     OW 9598   2.686   1.005   3.234
 2973SOL    HW1 9599   2.730   1.001   3.149
 2973SOL    HW2 9600   2.687   1.099   3.256
 2974SOL     OW 9601   2.778   0.911   2.152
 2974SOL    HW1 9602   2.839   0.942   2.086
 2974SOL    HW2 9603   2.825   0.840   2.197
 2975SOL     OW 9604   3.355   1.625   1.904
 2975SOL    HW1 9605   3.260   1.619   1.891
 2975SOL    HW2 9606   3.391   1.631   1.816
 2976SOL     OW 9607   2.232   1.300   3.354
 2976SOL    HW1 9608   2.218   1.378   3.300
 2976SOL    HW2 9609   2.154   1.246   3.338
 2977SOL     OW 9610   3.473   1.282   3.143
 2977SOL    HW1 9611   3.534   1.272   3.216
 2977SOL    HW2 9612   3.413   1.352   3.170
 2978SOL     OW 9613   2.913   1.107   2.569
 2978SOL    HW1 9614   2.842   1.055   2.607
 2978SOL    HW2 9615   2.974   1.041   2.535
 2979SOL     OW 9616   2.882   0.243   2.830
 2979SOL    HW1 9617   2.862   0.197   2.748
 2979SOL    HW2 9618   2.874   0.175   2.897
 2980SOL     OW 9619   2.464   1.488   2.344
 2980SOL    HW1 9620   2.508   1.438   2.275
 2980SOL    HW2 9621   2.397   1.538   2.298
 2981SOL     OW 9622   3.585   0.387   3.240
 2981SOL    HW1 9623   3.655   0.452   3.240
 2981SOL    HW2 9624   3.617   0.317   3.183
 2982SOL     OW 9625   2.121   1.346   2.150
 2982SOL    HW1 9626   2.028   1.344   2.127
 2982SOL    HW2 9627   2.123   1.382   2.238
 2983SOL     OW 9628   1.974   1.020   3.581
 2983SOL    HW1 9629   1.898   0.998   3.635
 2983SOL    HW2 9630   2.049   0.983   3.629
 2984SOL     OW 9631   2.534   0.210   3.349
 2984SOL    HW1 9632   2.617   0.193   3.306
 2984SOL    HW2 9633   2.557   0.259   3.428
 2985SOL     OW 9634   1.939   0.340   1.903
 2985SOL    HW1 9635   1.856   0.307   1.869
 2985SOL    HW2 9636   1.961   0.413   1.845
 2986SOL     OW 9637   3.293   0.858   3.263
 2986SOL    HW1 9638   3.244   0.919   3.207
 2986SOL    HW2 9639   3.382   0.861   3.229
 2987SOL     OW 9640   1.934   0.167   2.178
 2987SOL    HW1 9641   1.934   0.250   2.130
 2987SOL    HW2 9642   2.019   0.127   2.158
 2988SOL     OW 9643   3.041   1.340   1.979
 2988SOL    HW1 9644   2.951   1.310   1.982
 2988SOL    HW2 9645   3.070   1.340   2.070
 2989SOL     OW 9646   2.481   0.830   3.295
 2989SOL    HW1 9647   2.536   0.907   3.280
 2989SOL    HW2 9648   2.542   0.758   3.304
 2990SOL     OW 9649   3.349   1.772   2.836
 2990SOL    HW1 9650   3.369   1.835   2.767
 2990SOL    HW2 9651   3.432   1.760   2.882
 2991SOL     OW 9652   2.578   0.572   3.565
 2991SOL    HW1 9653   2.617   0.635   3.625
 2991SOL    HW2 9654   2.610   0.487   3.596
 2992SOL     OW 9655   3.332   1.201   3.494
 2992SOL    HW1 9656   3.320   1.215   3.588
 2992SOL    HW2 9657   3.426   1.215   3.479
 2993SOL     OW 9658   2.255   1.738   3.420
 2993SOL    HW1 9659   2.171   1.783   3.410
 2993SOL    HW2 9660   2.234   1.657   3.466
 2994SOL     OW 9661   3.532   0.881   3.117
 2994SOL    HW1 9662   3.525   0.796   3.075
 2994SOL    HW2 9663   3.523   0.945   3.046
 2995SOL     OW 9664   3.082   0.320   2.328
 2995SOL    HW1 9665   3.145   0.248   2.320
 2995SOL    HW2 9666   3.114   0.371   2.403
 2996SOL     OW 9667   2.452   0.739   2.531
 2996SOL    HW1 9668   2.491   0.825   2.514
 2996SOL    HW2 9669   2.384   0.731   2.465
 2997SOL     OW 9670   3.629   0.361   3.510
 2997SOL    HW1 9671   3.609   0.375   3.418
 2997SOL    HW2 9672   3.558   0.305   3.542
 2998SOL     OW 9673   3.606   0.934   3.374
 2998SOL    HW1 9674   3.605   1.028   3.387
 2998SOL    HW2 9675   3.591   0.922   3.280
 2999SOL     OW 9676   2.723   1.368   1.894
 2999SOL    HW1 9677   2.685   1.396   1.978
 2999SOL    HW2 9678   2.743   1.450   1.848
 3000SOL     OW 9679   2.524   1.791   2.809
 3000SOL    HW1 9680   2.506   1.882   2.786
 3000SOL    HW2 9681   2.619   1.782   2.801
 3001SOL     OW 9682   2.728   0.966   2.718
 3001SOL    HW1 9683   2.779   0.895   2.757
 3001SOL    HW2 9684   2.695   1.016   2.792
 3002SOL     OW 9685   2.941   0.988   1.950
 3002SOL    HW1 9686   2.920   1.038   1.872
 3002SOL    HW2 9687   3.016   0.935   1.925
 3003SOL     OW 9688   3.717   1.555   2.707
 3003SOL    HW1 9689   3.639   1.544   2.652
 3003SOL    HW2 9690   3.709   1.487   2.773
 3004SOL     OW 9691   2.087   1.303   3.718
 3004SOL    HW1 9692   2.019   1.242   3.688
 3004SOL    HW2 9693   2.069   1.315   3.811
 3005SOL     OW 9694   1.946   1.234   2.526
 3005SOL    HW1 9695   1.950   1.185   2.608
 3005SOL    HW2 9696   2.014   1.195   2.472
 3006SOL     OW 9697   2.541   1.403   3.487
 3006SOL    HW1 9698   2.463   1.357   3.518
 3006SOL    HW2 9699   2.535   1.490   3.525
 3007SOL     OW 9700   3.678   0.178   3.095
 3007SOL    HW1 9701   3.646   0.088   3.103
 3007SOL    HW2 9702   3.694   0.190   3.002
 3008SOL     OW 9703   2.291   0.435   2.385
 3008SOL    HW1 9704   2.323   0.362   2.332
 3008SOL    HW2 9705   2.246   0.393   2.458
 3009SOL     OW 9706   3.562   1.490   2.961
 3009SOL    HW1 9707   3.481   1.466   2.915
 3009SOL    HW2 9708   3.575   1.420   3.025
 3010SOL     OW 9709   2.190   0.555   3.152
 3010SOL    HW1 9710   2.246   0.500   3.207
 3010SOL    HW2 9711   2.210   0.528   3.063
 3011SOL     OW 9712   2.688   1.577   2.539
 3011SOL    HW1 9713   2.678   1.629   2.459
 3011SOL    HW2 9714   2.610   1.521   2.541
 3012SOL     OW 9715   3.290   0.218   2.978
 3012SOL    HW1 9716   3.327   0.144   3.026
 3012SOL    HW2 9717   3.242   0.267   3.044
 3013SOL     OW 9718   2.865   0.022   3.003
 3013SOL    HW1 9719   2.814   5.252   2.962
 3013SOL    HW2 9720   2.951   5.284   3.016
 3014SOL     OW 9721   2.633   1.332   2.176
 3014SOL    HW1 9722   2.601   1.242   2.182
 3014SOL    HW2 9723   2.716   1.332   2.224
 3015SOL     OW 9724   2.480   1.559   3.147
 3015SOL    HW1 9725   2.486   1.633   3.207
 3015SOL    HW2 9726   2.568   1.552   3.110
 3016SOL     OW 9727   3.219   0.040   2.023
 3016SOL    HW1 9728   3.248   5.296   1.944
 3016SOL    HW2 9729   3.137   5.295   2.047
 3017SOL     OW 9730   3.164   0.464   2.548
 3017SOL    HW1 9731   3.108   0.541   2.553
 3017SOL    HW2 9732   3.157   0.423   2.634
 3018SOL     OW 9733   3.456   0.216   2.743
 3018SOL    HW1 9734   3.389   0.227   2.811
 3018SOL    HW2 9735   3.449   0.294   2.689
 3019SOL     OW 9736   1.906   1.072   2.167
 3019SOL    HW1 9737   1.999   1.063   2.150
 3019SOL    HW2 9738   1.877   0.983   2.190
 3020SOL     OW 9739   2.745   1.651   2.205
 3020SOL    HW1 9740   2.673   1.634   2.144
 3020SOL    HW2 9741   2.715   1.726   2.256
 3021SOL     OW 9742   2.091   0.625   3.846
 3021SOL    HW1 9743   2.002   0.622   3.881
 3021SOL    HW2 9744   2.082   0.598   3.755
 3022SOL     OW 9745   2.081   0.283   4.716
 3022SOL    HW1 9746   2.110   0.249   4.801
 3022SOL    HW2 9747   1.995   0.243   4.702
 3023SOL     OW 9748   1.867   0.385   4.362
 3023SOL    HW1 9749   1.782   0.406   4.403
 3023SOL    HW2 9750   1.849   0.307   4.309
 3024SOL     OW 9751   2.427   1.284   4.898
 3024SOL    HW1 9752   2.340   1.289   4.859
 3024SOL    HW2 9753   2.445   1.373   4.928
 3025SOL     OW 9754   3.420   1.512   4.430
 3025SOL    HW1 9755   3.378   1.490   4.514
 3025SOL    HW2 9756   3.348   1.517   4.368
 3026SOL     OW 9757   2.993   0.698   4.427
 3026SOL    HW1 9758   3.042   0.779   4.412
 3026SOL    HW2 9759   2.945   0.713   4.508
 3027SOL     OW 9760   3.627   0.607   3.953
 3027SOL    HW1 9761   3.608   0.598   3.860
 3027SOL    HW2 9762   3.593   0.526   3.992
 3028SOL     OW 9763   2.618   1.142   4.764
 3028SOL    HW1 9764   2.549   1.176   4.821
 3028SOL    HW2 9765   2.653   1.219   4.720
 3029SOL     OW 9766   2.726   0.779   5.546
 3029SOL    HW1 9767   2.715   0.851   5.608
 3029SOL    HW2 9768   2.751   0.822   5.464
 3030SOL     OW 9769   2.548   1.004   4.372
 3030SOL    HW1 9770   2.613   0.992   4.441
 3030SOL    HW2 9771   2.479   1.056   4.413
 3031SOL     OW 9772   2.571   1.151   5.535
 3031SOL    HW1 9773   2.619   1.230   5.561
 3031SOL    HW2 9774   2.488   1.184   5.500
 3032SOL     OW 9775   2.191   1.427   4.793
 3032SOL    HW1 9776   2.120   1.392   4.741
 3032SOL    HW2 9777   2.244   1.478   4.731
 3033SOL     OW 9778   3.323   1.499   5.077
 3033SOL    HW1 9779   3.371   1.581   5.086
 3033SOL    HW2 9780   3.264   1.497   5.152
 3034SOL     OW 9781   2.305   0.398   5.212
 3034SOL    HW1 9782   2.380   0.339   5.209
 3034SOL    HW2 9783   2.230   0.341   5.226
 3035SOL     OW 9784   3.473   0.452   4.462
 3035SOL    HW1 9785   3.397   0.476   4.409
 3035SOL    HW2 9786   3.492   0.530   4.514
 3036SOL     OW 9787   2.083   1.726   4.195
 3036SOL    HW1 9788   2.127   1.764   4.271
 3036SOL    HW2 9789   2.155   1.701   4.136
 3037SOL     OW 9790   2.999   1.341   5.416
 3037SOL    HW1 9791   3.038   1.337   5.503
 3037SOL    HW2 9792   2.946   1.262   5.410
 3038SOL     OW 9793   2.087   1.444   4.258
 3038SOL    HW1 9794   2.063   1.535   4.271
 3038SOL    HW2 9795   2.032   1.395   4.320
 3039SOL     OW 9796   2.117   1.090   4.614
 3039SOL    HW1 9797   2.115   1.004   4.656
 3039SOL    HW2 9798   2.061   1.144   4.668
 3040SOL     OW 9799   2.475   1.790   5.172
 3040SOL    HW1 9800   2.389   1.768   5.209
 3040SOL    HW2 9801   2.489   1.881   5.197
 3041SOL     OW 9802   2.449   0.981   3.857
 3041SOL    HW1 9803   2.493   1.031   3.789
 3041SOL    HW2 9804   2.489   1.011   3.939
 3042SOL     OW 9805   3.448   0.134   5.181
 3042SOL    HW1 9806   3.468   0.219   5.142
 3042SOL    HW2 9807   3.447   0.151   5.275
 3043SOL     OW 9808   1.976   0.653   4.283
 3043SOL    HW1 9809   1.949   0.564   4.305
 3043SOL    HW2 9810   1.969   0.701   4.366
 3044SOL     OW 9811   3.704   1.761   4.060
 3044SOL    HW1 9812   3.767   1.732   4.126
 3044SOL    HW2 9813   3.729   1.851   4.040
 3045SOL     OW 9814   1.896   1.595   3.848
 3045SOL    HW1 9815   1.877   1.502   3.865
 3045SOL    HW2 9816   1.867   1.640   3.928
 3046SOL     OW 9817   3.552   0.919   4.364
 3046SOL    HW1 9818   3.635   0.877   4.344
 3046SOL    HW2 9819   3.530   0.969   4.285
 3047SOL     OW 9820   3.507   1.107   4.153
 3047SOL    HW1 9821   3.593   1.114   4.111
 3047SOL    HW2 9822   3.513   1.168   4.227
 3048SOL     OW 9823   1.984   0.743   5.309
 3048SOL    HW1 9824   2.076   0.767   5.319
 3048SOL    HW2 9825   1.937   0.826   5.317
 3049SOL     OW 9826   2.475   1.385   4.456
 3049SOL    HW1 9827   2.429   1.301   4.467
 3049SOL    HW2 9828   2.457   1.411   4.366
 3050SOL     OW 9829   3.152   1.238   5.148
 3050SOL    HW1 9830   3.184   1.171   5.088
 3050SOL    HW2 9831   3.209   1.231   5.225
 3051SOL     OW 9832   2.671   0.025   4.250
 3051SOL    HW1 9833   2.700   0.113   4.226
 3051SOL    HW2 9834   2.576   0.029   4.244
 3052SOL     OW 9835   2.052   0.967   4.994
 3052SOL    HW1 9836   2.137   0.925   4.979
 3052SOL    HW2 9837   1.990   0.911   4.948
 3053SOL     OW 9838   3.394   0.993   3.921
 3053SOL    HW1 9839   3.324   0.935   3.953
 3053SOL    HW2 9840   3.434   1.027   4.001
 3054SOL     OW 9841   3.038   1.801   5.343
 3054SOL    HW1 9842   3.059   1.866   5.276
 3054SOL    HW2 9843   3.066   1.718   5.305
 3055SOL     OW 9844   2.188   0.265   5.534
 3055SOL    HW1 9845   2.240   0.341   5.560
 3055SOL    HW2 9846   2.102   0.280   5.573
 3056SOL     OW 9847   3.328   1.419   4.676
 3056SOL    HW1 9848   3.261   1.433   4.742
 3056SOL    HW2 9849   3.317   1.328   4.648
 3057SOL     OW 9850   3.523   1.736   4.304
 3057SOL    HW1 9851   3.500   1.712   4.214
 3057SOL    HW2 9852   3.497   1.660   4.357
 3058SOL     OW 9853   2.457   0.722   3.989
 3058SOL    HW1 9854   2.463   0.803   3.938
 3058SOL    HW2 9855   2.392   0.741   4.057
 3059SOL     OW 9856   3.141   0.345   4.654
 3059SOL    HW1 9857   3.050   0.317   4.667
 3059SOL    HW2 9858   3.190   0.296   4.720
 3060SOL     OW 9859   3.447   1.661   4.031
 3060SOL    HW1 9860   3.535   1.699   4.026
 3060SOL    HW2 9861   3.421   1.650   3.940
 3061SOL     OW 9862   2.657   0.617   5.175
 3061SOL    HW1 9863   2.629   0.597   5.264
 3061SOL    HW2 9864   2.613   0.552   5.120
 3062SOL     OW 9865   3.257   0.475   5.402
 3062SOL    HW1 9866   3.258   0.519   5.487
 3062SOL    HW2 9867   3.321   0.404   5.411
 3063SOL     OW 9868   2.818   0.888   5.306
 3063SOL    HW1 9869   2.872   0.817   5.271
 3063SOL    HW2 9870   2.770   0.922   5.230
 3064SOL     OW 9871   2.856   0.416   4.960
 3064SOL    HW1 9872   2.772   0.439   5.000
 3064SOL    HW2 9873   2.832   0.368   4.881
 3065SOL     OW 9874   2.912   0.698   4.151
 3065SOL    HW1 9875   2.927   0.691   4.245
 3065SOL    HW2 9876   2.830   0.652   4.136
 3066SOL     OW 9877   1.950   0.820   4.501
 3066SOL    HW1 9878   2.032   0.813   4.550
 3066SOL    HW2 9879   1.908   0.899   4.535
 3067SOL     OW 9880   1.988   1.847   5.302
 3067SOL    HW1 9881   1.988   1.826   5.396
 3067SOL    HW2 9882   1.896   1.838   5.276
 3068SOL     OW 9883   2.734   0.362   3.913
 3068SOL    HW1 9884   2.779   0.422   3.854
 3068SOL    HW2 9885   2.783   0.280   3.908
 3069SOL     OW 9886   3.571   0.576   5.552
 3069SOL    HW1 9887   3.533   0.650   5.504
 3069SOL    HW2 9888   3.599   0.515   5.483
 3070SOL     OW 9889   3.239   1.142   4.266
 3070SOL    HW1 9890   3.317   1.128   4.213
 3070SOL    HW2 9891   3.186   1.204   4.215
 3071SOL     OW 9892   2.390   0.201   4.607
 3071SOL    HW1 9893   2.412   0.216   4.699
 3071SOL    HW2 9894   2.411   0.284   4.564
 3072SOL     OW 9895   2.871   1.446   4.198
 3072SOL    HW1 9896   2.830   1.516   4.147
 3072SOL    HW2 9897   2.848   1.466   4.289
 3073SOL     OW 9898   3.661   1.058   4.592
 3073SOL    HW1 9899   3.605   1.040   4.515
 3073SOL    HW2 9900   3.599   1.063   4.665
 3074SOL     OW 9901   3.089   1.538   5.236
 3074SOL    HW1 9902   3.075   1.467   5.297
 3074SOL    HW2 9903   3.031   1.519   5.163
 3075SOL     OW 9904   2.183   0.957   3.973
 3075SOL    HW1 9905   2.265   0.976   3.928
 3075SOL    HW2 9906   2.152   0.875   3.934
 3076SOL     OW 9907   3.340   0.741   4.451
 3076SOL    HW1 9908   3.330   0.698   4.536
 3076SOL    HW2 9909   3.417   0.797   4.462
 3077SOL     OW 9910   2.327   1.264   5.462
 3077SOL    HW1 9911   2.300   1.269   5.370
 3077SOL    HW2 9912   2.245   1.263   5.512
 3078SOL     OW 9913   2.985   1.771   3.952
 3078SOL    HW1 9914   2.908   1.731   3.993
 3078SOL    HW2 9915   3.007   1.711   3.880
 3079SOL     OW 9916   2.059   0.278   5.226
 3079SOL    HW1 9917   1.980   0.332   5.221
 3079SOL    HW2 9918   2.050   0.230   5.308
 3080SOL     OW 9919   3.491   1.379   3.811
 3080SOL    HW1 9920   3.450   1.464   3.796
 3080SOL    HW2 9921   3.422   1.316   3.792
 3081SOL     OW 9922   2.331   1.704   4.063
 3081SOL    HW1 9923   2.367   1.778   4.112
 3081SOL    HW2 9924   2.394   1.690   3.992
 3082SOL     OW 9925   3.269   0.099   4.155
 3082SOL    HW1 9926   3.260   0.082   4.061
 3082SOL    HW2 9927   3.361   0.122   4.167
 3083SOL     OW 9928   2.100   1.783   4.962
 3083SOL    HW1 9929   2.159   1.732   5.018
 3083SOL    HW2 9930   2.114   1.749   4.874
 3084SOL     OW 9931   2.792   1.682   4.635
 3084SOL    HW1 9932   2.882   1.649   4.639
 3084SOL    HW2 9933   2.759   1.651   4.551
 3085SOL     OW 9934   2.254   0.696   4.201
 3085SOL    HW1 9935   2.276   0.603   4.211
 3085SOL    HW2 9936   2.160   0.701   4.219
 3086SOL     OW 9937   3.402   0.228   5.448
 3086SOL    HW1 9938   3.409   0.246   5.542
 3086SOL    HW2 9939   3.327   0.169   5.440
 3087SOL     OW 9940   2.486   0.133   3.831
 3087SOL    HW1 9941   2.552   0.067   3.854
 3087SOL    HW2 9942   2.435   0.092   3.761
 3088SOL     OW 9943   2.645   0.313   5.491
 3088SOL    HW1 9944   2.702   0.235   5.492
 3088SOL    HW2 9945   2.594   0.307   5.572
 3089SOL     OW 9946   2.731   1.514   4.926
 3089SOL    HW1 9947   2.726   1.496   4.832
 3089SOL    HW2 9948   2.808   1.465   4.955
 3090SOL     OW 9949   3.204   0.588   5.156
 3090SOL    HW1 9950   3.234   0.557   5.241
 3090SOL    HW2 9951   3.239   0.677   5.149
 3091SOL     OW 9952   2.673   1.390   4.661
 3091SOL    HW1 9953   2.759   1.388   4.618
 3091SOL    HW2 9954   2.611   1.394   4.588
 3092SOL     OW 9955   2.789   0.510   4.628
 3092SOL    HW1 9956   2.766   0.502   4.535
 3092SOL    HW2 9957   2.821   0.423   4.652
 3093SOL     OW 9958   2.404   0.063   4.233
 3093SOL    HW1 9959   2.318   0.062   4.276
 3093SOL    HW2 9960   2.397   0.133   4.168
 3094SOL     OW 9961   3.290   1.198   3.765
 3094SOL    HW1 9962   3.321   1.122   3.815
 3094SOL    HW2 9963   3.204   1.218   3.803
 3095SOL     OW 9964   2.163   0.061   3.914
 3095SOL    HW1 9965   2.222   0.130   3.884
 3095SOL    HW2 9966   2.219   5.285   3.927
 3096SOL     OW 9967   2.801   0.259   4.186
 3096SOL    HW1 9968   2.772   0.299   4.103
 3096SOL    HW2 9969   2.896   0.271   4.187
 3097SOL     OW 9970   2.943   0.681   5.184
 3097SOL    HW1 9971   2.873   0.615   5.189
 3097SOL    HW2 9972   3.023   0.629   5.177
 3098SOL     OW 9973   3.089   1.559   4.521
 3098SOL    HW1 9974   3.103   1.637   4.467
 3098SOL    HW2 9975   3.150   1.570   4.595
 3099SOL     OW 9976   2.330   1.149   4.458
 3099SOL    HW1 9977   2.260   1.130   4.521
 3099SOL    HW2 9978   2.290   1.132   4.373
 3100SOL     OW 9979   2.889   0.547   3.745
 3100SOL    HW1 9980   2.846   0.631   3.727
 3100SOL    HW2 9981   2.952   0.567   3.814
 3101SOL     OW 9982   1.940   0.554   5.117
 3101SOL    HW1 9983   2.031   0.553   5.089
 3101SOL    HW2 9984   1.935   0.624   5.181
 3102SOL     OW 9985   2.418   0.237   4.882
 3102SOL    HW1 9986   2.449   0.151   4.910
 3102SOL    HW2 9987   2.326   0.240   4.908
 3103SOL     OW 9988   2.730   0.462   4.365
 3103SOL    HW1 9989   2.684   0.515   4.300
 3103SOL    HW2 9990   2.752   0.381   4.318
 3104SOL     OW 9991   2.840   0.061   4.486
 3104SOL    HW1 9992   2.775   0.054   4.416
 3104SOL    HW2 9993   2.850   5.271   4.518
 3105SOL     OW 9994   3.299   1.163   4.581
 3105SOL    HW1 9995   3.230   1.097   4.581
 3105SOL    HW2 9996   3.322   1.174   4.489
 3106SOL     OW 9997   3.329   0.605   4.703
 3106SOL    HW1 9998   3.280   0.522   4.707
 3106SOL    HW2 9999   3.389   0.600   4.777
 3107SOL     OW10000   3.708   0.817   4.106
 3107SOL    HW110001   3.764   0.766   4.164
 3107SOL    HW210002   3.679   0.755   4.039
 3108SOL     OW10003   2.353   1.415   3.880
 3108SOL    HW110004   2.279   1.387   3.934
 3108SOL    HW210005   2.334   1.379   3.793
 3109SOL     OW10006   3.531   1.265   4.370
 3109SOL    HW110007   3.626   1.268   4.384
 3109SOL    HW210008   3.501   1.353   4.392
 3110SOL     OW10009   3.256   0.572   3.795
 3110SOL    HW110010   3.195   0.553   3.867
 3110SOL    HW210011   3.340   0.540   3.827
 3111SOL     OW10012   2.386   0.264   4.045
 3111SOL    HW110013   2.430   0.215   3.976
 3111SOL    HW210014   2.366   0.349   4.006
 3112SOL     OW10015   3.615   1.238   5.299
 3112SOL    HW110016   3.702   1.199   5.295
 3112SOL    HW210017   3.630   1.328   5.327
 3113SOL     OW10018   2.924   1.354   5.059
 3113SOL    HW110019   2.848   1.323   5.109
 3113SOL    HW210020   2.999   1.311   5.100
 3114SOL     OW10021   3.469   1.625   5.377
 3114SOL    HW110022   3.464   1.660   5.288
 3114SOL    HW210023   3.552   1.578   5.380
 3115SOL     OW10024   2.988   1.202   4.830
 3115SOL    HW110025   2.930   1.240   4.895
 3115SOL    HW210026   2.956   1.234   4.746
 3116SOL     OW10027   3.491   1.099   4.802
 3116SOL    HW110028   3.487   1.161   4.875
 3116SOL    HW210029   3.412   1.115   4.752
 3117SOL     OW10030   2.767   0.106   5.115
 3117SOL    HW110031   2.797   0.072   5.030
 3117SOL    HW210032   2.844   0.148   5.153
 3118SOL     OW10033   2.846   1.114   5.447
 3118SOL    HW110034   2.754   1.131   5.466
 3118SOL    HW210035   2.845   1.037   5.390
 3119SOL     OW10036   2.570   1.061   4.095
 3119SOL    HW110037   2.557   1.045   4.189
 3119SOL    HW210038   2.646   1.007   4.073
 3120SOL     OW10039   2.280   0.815   4.976
 3120SOL    HW110040   2.349   0.824   5.041
 3120SOL    HW210041   2.245   0.727   4.990
 3121SOL     OW10042   3.130   0.379   4.996
 3121SOL    HW110043   3.162   0.456   5.043
 3121SOL    HW210044   3.039   0.401   4.973
 3122SOL     OW10045   1.931   1.571   5.076
 3122SOL    HW110046   1.902   1.644   5.022
 3122SOL    HW210047   2.026   1.574   5.072
 3123SOL     OW10048   2.211   1.109   4.215
 3123SOL    HW110049   2.218   1.181   4.153
 3123SOL    HW210050   2.210   1.030   4.160
 3124SOL     OW10051   2.416   0.538   4.585
 3124SOL    HW110052   2.432   0.596   4.510
 3124SOL    HW210053   2.481   0.565   4.650
 3125SOL     OW10054   3.111   1.350   4.114
 3125SOL    HW110055   3.166   1.423   4.145
 3125SOL    HW210056   3.024   1.370   4.148
 3126SOL     OW10057   3.144   1.454   4.869
 3126SOL    HW110058   3.197   1.458   4.948
 3126SOL    HW210059   3.085   1.380   4.883
 3127SOL     OW10060   3.444   0.623   4.202
 3127SOL    HW110061   3.398   0.678   4.265
 3127SOL    HW210062   3.489   0.685   4.144
 3128SOL     OW10063   2.210   1.523   5.042
 3128SOL    HW110064   2.196   1.482   4.956
 3128SOL    HW210065   2.304   1.538   5.047
 3129SOL     OW10066   2.275   0.744   5.326
 3129SOL    HW110067   2.336   0.790   5.268
 3129SOL    HW210068   2.318   0.660   5.344
 3130SOL     OW10069   3.462   0.778   5.405
 3130SOL    HW110070   3.376   0.819   5.398
 3130SOL    HW210071   3.514   0.820   5.337
 3131SOL     OW10072   2.904   0.115   5.507
 3131SOL    HW110073   2.928   0.195   5.460
 3131SOL    HW210074   2.911   0.046   5.442
 3132SOL     OW10075   2.344   0.056   5.463
 3132SOL    HW110076   2.288   5.292   5.420
 3132SOL    HW210077   2.286   0.129   5.484
 3133SOL     OW10078   2.445   0.872   4.755
 3133SOL    HW110079   2.476   0.963   4.753
 3133SOL    HW210080   2.388   0.868   4.832
 3134SOL     OW10081   3.221   0.859   4.755
 3134SOL    HW110082   3.138   0.851   4.708
 3134SOL    HW210083   3.260   0.772   4.750
 3135SOL     OW10084   3.069   0.529   3.992
 3135SOL    HW110085   3.073   0.448   4.043
 3135SOL    HW210086   3.026   0.592   4.051
 3136SOL     OW10087   2.159   0.204   4.971
 3136SOL    HW110088   2.121   0.244   5.049
 3136SOL    HW210089   2.157   0.110   4.987
 3137SOL     OW10090   1.906   1.310   5.001
 3137SOL    HW110091   1.941   1.256   5.072
 3137SOL    HW210092   1.914   1.400   5.032
 3138SOL     OW10093   2.588   0.632   4.784
 3138SOL    HW110094   2.661   0.615   4.725
 3138SOL    HW210095   2.559   0.721   4.762
 3139SOL     OW10096   3.596   0.959   5.576
 3139SOL    HW110097   3.549   0.900   5.517
 3139SOL    HW210098   3.536   0.972   5.649
 3140SOL     OW10099   2.163   0.073   4.372
 3140SOL    HW110100   2.148   0.167   4.382
 3140SOL    HW210101   2.202   0.046   4.455
 3141SOL     OW10102   3.473   0.374   4.090
 3141SOL    HW110103   3.507   0.311   4.154
 3141SOL    HW210104   3.453   0.452   4.142
 3142SOL     OW10105   2.890   0.759   4.685
 3142SOL    HW110106   2.887   0.777   4.779
 3142SOL    HW210107   2.863   0.668   4.677
 3143SOL     OW10108   2.842   1.564   5.442
 3143SOL    HW110109   2.824   1.609   5.359
 3143SOL    HW210110   2.887   1.483   5.416
 3144SOL     OW10111   3.717   1.507   5.329
 3144SOL    HW110112   3.734   1.533   5.239
 3144SOL    HW210113   3.798   1.526   5.376
 3145SOL     OW10114   2.215   0.916   5.532
 3145SOL    HW110115   2.297   0.935   5.578
 3145SOL    HW210116   2.239   0.854   5.464
 3146SOL     OW10117   3.389   0.273   3.850
 3146SOL    HW110118   3.326   0.208   3.881
 3146SOL    HW210119   3.425   0.311   3.931
 3147SOL     OW10120   3.155   0.827   3.756
 3147SOL    HW110121   3.197   0.741   3.759
 3147SOL    HW210122   3.186   0.866   3.674
 3148SOL     OW10123   2.928   1.333   4.579
 3148SOL    HW110124   2.930   1.261   4.515
 3148SOL    HW210125   2.989   1.398   4.544
 3149SOL     OW10126   2.171   0.809   4.672
 3149SOL    HW110127   2.264   0.831   4.665
 3149SOL    HW210128   2.170   0.719   4.705
 3150SOL     OW10129   2.195   0.525   4.736
 3150SOL    HW110130   2.158   0.438   4.720
 3150SOL    HW210131   2.271   0.530   4.679
 3151SOL     OW10132   2.998   0.378   5.411
 3151SOL    HW110133   2.950   0.433   5.474
 3151SOL    HW210134   3.085   0.417   5.407
 3152SOL     OW10135   2.996   0.222   5.189
 3152SOL    HW110136   3.001   0.281   5.265
 3152SOL    HW210137   3.051   0.265   5.123
 3153SOL     OW10138   1.867   1.322   3.919
 3153SOL    HW110139   1.780   1.336   3.881
 3153SOL    HW210140   1.865   1.232   3.952
 3154SOL     OW10141   2.364   1.566   4.634
 3154SOL    HW110142   2.431   1.633   4.647
 3154SOL    HW210143   2.404   1.503   4.575
 3155SOL     OW10144   2.847   0.792   4.951
 3155SOL    HW110145   2.902   0.769   5.026
 3155SOL    HW210146   2.761   0.757   4.972
 3156SOL     OW10147   1.897   0.543   4.841
 3156SOL    HW110148   1.978   0.529   4.791
 3156SOL    HW210149   1.927   0.548   4.932
 3157SOL     OW10150   2.049   0.521   5.450
 3157SOL    HW110151   2.112   0.487   5.387
 3157SOL    HW210152   2.008   0.594   5.405
 3158SOL     OW10153   3.239   0.940   5.383
 3158SOL    HW110154   3.260   1.033   5.382
 3158SOL    HW210155   3.236   0.914   5.291
 3159SOL     OW10156   2.676   0.572   4.084
 3159SOL    HW110157   2.679   0.497   4.024
 3159SOL    HW210158   2.602   0.624   4.054
 3160SOL     OW10159   3.505   0.601   4.911
 3160SOL    HW110160   3.493   0.542   4.985
 3160SOL    HW210161   3.592   0.581   4.877
 3161SOL     OW10162   2.105   1.552   5.453
 3161SOL    HW110163   2.083   1.615   5.521
 3161SOL    HW210164   2.107   1.467   5.498
 3162SOL     OW10165   2.558   0.453   4.985
 3162SOL    HW110166   2.508   0.379   4.951
 3162SOL    HW210167   2.559   0.517   4.914
 3163SOL     OW10168   2.787   1.676   5.193
 3163SOL    HW110169   2.765   1.649   5.104
 3163SOL    HW210170   2.830   1.761   5.182
 3164SOL     OW10171   2.326   0.493   3.908
 3164SOL    HW110172   2.386   0.564   3.931
 3164SOL    HW210173   2.241   0.535   3.899
 3165SOL     OW10174   2.008   1.140   5.196
 3165SOL    HW110175   2.012   1.088   5.276
 3165SOL    HW210176   2.026   1.077   5.126
 3166SOL     OW10177   3.189   1.048   4.948
 3166SOL    HW110178   3.212   0.985   4.880
 3166SOL    HW210179   3.117   1.099   4.909
 3167SOL     OW10180   3.172   0.857   4.031
 3167SOL    HW110181   3.096   0.826   4.080
 3167SOL    HW210182   3.148   0.843   3.939
 3168SOL     OW10183   3.631   1.746   4.871
 3168SOL    HW110184   3.694   1.770   4.803
 3168SOL    HW210185   3.609   1.655   4.852
 3169SOL     OW10186   3.114   1.732   4.839
 3169SOL    HW110187   3.197   1.748   4.794
 3169SOL    HW210188   3.114   1.637   4.855
 3170SOL     OW10189   1.946   1.266   4.737
 3170SOL    HW110190   1.932   1.278   4.831
 3170SOL    HW210191   1.872   1.212   4.708
 3171SOL     OW10192   2.540   1.664   5.451
 3171SOL    HW110193   2.487   1.744   5.450
 3171SOL    HW210194   2.601   1.676   5.378
 3172SOL     OW10195   3.575   0.147   4.228
 3172SOL    HW110196   3.650   0.127   4.173
 3172SOL    HW210197   3.567   0.072   4.287
 3173SOL     OW10198   3.252   1.579   4.204
 3173SOL    HW110199   3.322   1.592   4.140
 3173SOL    HW210200   3.207   1.663   4.208
 3174SOL     OW10201   1.997   1.798   5.568
 3174SOL    HW110202   1.947   1.732   5.616
 3174SOL    HW210203   2.046   1.844   5.635
 3175SOL     OW10204   3.139   0.925   4.395
 3175SOL    HW110205   3.213   0.864   4.401
 3175SOL    HW210206   3.173   0.998   4.343
 3176SOL     OW10207   2.679   1.272   5.155
 3176SOL    HW110208   2.650   1.311   5.237
 3176SOL    HW210209   2.613   1.297   5.091
 3177SOL     OW10210   2.534   1.615   3.879
 3177SOL    HW110211   2.542   1.632   3.785
 3177SOL    HW210212   2.479   1.537   3.884
 3178SOL     OW10213   3.491   1.726   5.115
 3178SOL    HW110214   3.539   1.735   5.033
 3178SOL    HW210215   3.475   1.816   5.143
 3179SOL     OW10216   3.707   0.158   4.682
 3179SOL    HW110217   3.708   0.064   4.665
 3179SOL    HW210218   3.620   0.186   4.654
 3180SOL     OW10219   2.125   0.329   4.444
 3180SOL    HW110220   2.038   0.360   4.421
 3180SOL    HW210221   2.122   0.317   4.539
 3181SOL     OW10222   3.068   1.606   3.750
 3181SOL    HW110223   3.062   1.516   3.781
 3181SOL    HW210224   3.001   1.612   3.682
 3182SOL     OW10225   2.686   1.006   5.096
 3182SOL    HW110226   2.729   1.003   5.010
 3182SOL    HW210227   2.686   1.098   5.119
 3183SOL     OW10228   2.778   0.911   4.014
 3183SOL    HW110229   2.839   0.942   3.947
 3183SOL    HW210230   2.825   0.840   4.058
 3184SOL     OW10231   3.354   1.625   3.766
 3184SOL    HW110232   3.260   1.619   3.751
 3184SOL    HW210233   3.392   1.632   3.678
 3185SOL     OW10234   2.230   1.302   5.217
 3185SOL    HW110235   2.220   1.378   5.161
 3185SOL    HW210236   2.154   1.248   5.199
 3186SOL     OW10237   3.473   1.283   5.005
 3186SOL    HW110238   3.533   1.274   5.079
 3186SOL    HW210239   3.413   1.352   5.031
 3187SOL     OW10240   2.912   1.106   4.428
 3187SOL    HW110241   2.842   1.056   4.469
 3187SOL    HW210242   2.974   1.040   4.397
 3188SOL     OW10243   2.882   0.243   4.691
 3188SOL    HW110244   2.862   0.197   4.610
 3188SOL    HW210245   2.874   0.176   4.759
 3189SOL     OW10246   2.462   1.488   4.204
 3189SOL    HW110247   2.506   1.438   4.135
 3189SOL    HW210248   2.401   1.544   4.156
 3190SOL     OW10249   3.585   0.387   5.102
 3190SOL    HW110250   3.655   0.452   5.102
 3190SOL    HW210251   3.617   0.317   5.045
 3191SOL     OW10252   2.121   1.346   4.012
 3191SOL    HW110253   2.028   1.343   3.990
 3191SOL    HW210254   2.124   1.384   4.100
 3192SOL     OW10255   1.974   1.020   5.443
 3192SOL    HW110256   1.898   0.997   5.497
 3192SOL    HW210257   2.049   0.983   5.491
 3193SOL     OW10258   2.534   0.210   5.211
 3193SOL    HW110259   2.618   0.193   5.168
 3193SOL    HW210260   2.557   0.259   5.290
 3194SOL     OW10261   1.939   0.340   3.765
 3194SOL    HW110262   1.855   0.307   3.731
 3194SOL    HW210263   1.961   0.413   3.707
 3195SOL     OW10264   3.292   0.858   5.125
 3195SOL    HW110265   3.244   0.919   5.069
 3195SOL    HW210266   3.382   0.861   5.091
 3196SOL     OW10267   1.934   0.167   4.040
 3196SOL    HW110268   1.934   0.250   3.992
 3196SOL    HW210269   2.019   0.127   4.020
 3197SOL     OW10270   3.042   1.342   3.842
 3197SOL    HW110271   2.951   1.310   3.844
 3197SOL    HW210272   3.070   1.341   3.933
 3198SOL     OW10273   2.481   0.831   5.157
 3198SOL    HW110274   2.536   0.907   5.142
 3198SOL    HW210275   2.543   0.758   5.166
 3199SOL     OW10276   3.351   1.781   4.694
 3199SOL    HW110277   3.392   1.818   4.616
 3199SOL    HW210278   3.424   1.761   4.753
 3200SOL     OW10279   2.578   0.572   5.427
 3200SOL    HW110280   2.617   0.636   5.487
 3200SOL    HW210281   2.610   0.487   5.458
 3201SOL     OW10282   3.333   1.201   5.356
 3201SOL    HW110283   3.320   1.215   5.450
 3201SOL    HW210284   3.426   1.215   5.342
 3202SOL     OW10285   2.238   1.737   5.287
 3202SOL    HW110286   2.153   1.779   5.276
 3202SOL    HW210287   2.218   1.654   5.330
 3203SOL     OW10288   3.532   0.882   4.979
 3203SOL    HW110289   3.525   0.796   4.936
 3203SOL    HW210290   3.523   0.945   4.908
 3204SOL     OW10291   3.082   0.320   4.190
 3204SOL    HW110292   3.145   0.248   4.182
 3204SOL    HW210293   3.113   0.371   4.265
 3205SOL     OW10294   2.452   0.739   4.393
 3205SOL    HW110295   2.491   0.825   4.377
 3205SOL    HW210296   2.384   0.731   4.326
 3206SOL     OW10297   3.629   0.361   5.372
 3206SOL    HW110298   3.609   0.375   5.280
 3206SOL    HW210299   3.558   0.305   5.404
 3207SOL     OW10300   3.606   0.934   5.236
 3207SOL    HW110301   3.605   1.028   5.250
 3207SOL    HW210302   3.591   0.922   5.143
 3208SOL     OW10303   2.723   1.369   3.756
 3208SOL    HW110304   2.685   1.393   3.841
 3208SOL    HW210305   2.742   1.452   3.713
 3209SOL     OW10306   2.729   0.966   4.579
 3209SOL    HW110307   2.779   0.896   4.620
 3209SOL    HW210308   2.695   1.017   4.653
 3210SOL     OW10309   2.942   0.989   3.812
 3210SOL    HW110310   2.920   1.039   3.733
 3210SOL    HW210311   3.017   0.935   3.787
 3211SOL     OW10312   3.717   1.555   4.569
 3211SOL    HW110313   3.640   1.542   4.514
 3211SOL    HW210314   3.709   1.488   4.637
 3212SOL     OW10315   2.086   1.304   5.580
 3212SOL    HW110316   2.019   1.242   5.551
 3212SOL    HW210317   2.070   1.316   5.673
 3213SOL     OW10318   1.948   1.235   4.387
 3213SOL    HW110319   1.951   1.187   4.470
 3213SOL    HW210320   2.015   1.192   4.333
 3214SOL     OW10321   2.542   1.402   5.350
 3214SOL    HW110322   2.463   1.359   5.382
 3214SOL    HW210323   2.539   1.490   5.388
 3215SOL     OW10324   3.678   0.178   4.957
 3215SOL    HW110325   3.646   0.088   4.965
 3215SOL    HW210326   3.694   0.190   4.864
 3216SOL     OW10327   2.291   0.435   4.247
 3216SOL    HW110328   2.323   0.362   4.194
 3216SOL    HW210329   2.246   0.393   4.320
 3217SOL     OW10330   3.563   1.490   4.821
 3217SOL    HW110331   3.482   1.464   4.777
 3217SOL    HW210332   3.576   1.422   4.887
 3218SOL     OW10333   2.189   0.554   5.014
 3218SOL    HW110334   2.246   0.500   5.069
 3218SOL    HW210335   2.210   0.528   4.925
 3219SOL     OW10336   2.690   1.576   4.396
 3219SOL    HW110337   2.676   1.623   4.314
 3219SOL    HW210338   2.613   1.519   4.404
 3220SOL     OW10339   3.290   0.218   4.840
 3220SOL    HW110340   3.327   0.144   4.889
 3220SOL    HW210341   3.242   0.268   4.906
 3221SOL     OW10342   2.864   0.022   4.865
 3221SOL    HW110343   2.814   5.252   4.824
 3221SOL    HW210344   2.951   5.284   4.878
 3222SOL     OW10345   2.634   1.331   4.037
 3222SOL    HW110346   2.601   1.242   4.043
 3222SOL    HW210347   2.716   1.331   4.086
 3223SOL     OW10348   2.479   1.564   5.009
 3223SOL    HW110349   2.487   1.642   5.064
 3223SOL    HW210350   2.567   1.549   4.974
 3224SOL     OW10351   3.219   0.040   3.885
 3224SOL    HW110352   3.248   5.296   3.806
 3224SOL    HW210353   3.137   5.295   3.909
 3225SOL     OW10354   3.163   0.464   4.409
 3225SOL    HW110355   3.108   0.541   4.415
 3225SOL    HW210356   3.157   0.423   4.496
 3226SOL     OW10357   3.456   0.216   4.605
 3226SOL    HW110358   3.389   0.227   4.673
 3226SOL    HW210359   3.449   0.294   4.551
 3227SOL     OW10360   1.906   1.072   4.030
 3227SOL    HW110361   1.999   1.063   4.012
 3227SOL    HW210362   1.877   0.983   4.052
 3228SOL     OW10363   2.746   1.646   4.061
 3228SOL    HW110364   2.674   1.628   4.000
 3228SOL    HW210365   2.718   1.725   4.108
 3229SOL     OW10366   2.091   0.625   5.708
 3229SOL    HW110367   2.002   0.622   5.743
 3229SOL    HW210368   2.082   0.598   5.617
 3230SOL     OW10369   2.081   0.283   6.578
 3230SOL    HW110370   2.110   0.249   6.663
 3230SOL    HW210371   1.995   0.243   6.564
 3231SOL     OW10372   1.867   0.385   6.225
 3231SOL    HW110373   1.782   0.406   6.265
 3231SOL    HW210374   1.849   0.308   6.171
 3232SOL     OW10375   2.429   1.286   6.760
 3232SOL    HW110376   2.341   1.289   6.722
 3232SOL    HW210377   2.444   1.374   6.793
 3233SOL     OW10378   3.422   1.511   6.292
 3233SOL    HW110379   3.378   1.492   6.375
 3233SOL    HW210380   3.350   1.516   6.229
 3234SOL     OW10381   2.993   0.698   6.289
 3234SOL    HW110382   3.042   0.779   6.274
 3234SOL    HW210383   2.945   0.713   6.371
 3235SOL     OW10384   3.628   0.607   5.815
 3235SOL    HW110385   3.608   0.598   5.722
 3235SOL    HW210386   3.593   0.526   5.854
 3236SOL     OW10387   2.619   1.143   6.626
 3236SOL    HW110388   2.549   1.177   6.682
 3236SOL    HW210389   2.653   1.220   6.581
 3237SOL     OW10390   2.725   0.780   7.407
 3237SOL    HW110391   2.713   0.855   7.465
 3237SOL    HW210392   2.752   0.819   7.323
 3238SOL     OW10393   2.548   1.004   6.233
 3238SOL    HW110394   2.613   0.991   6.303
 3238SOL    HW210395   2.479   1.055   6.274
 3239SOL     OW10396   2.571   1.151   7.397
 3239SOL    HW110397   2.619   1.230   7.423
 3239SOL    HW210398   2.488   1.184   7.362
 3240SOL     OW10399   2.192   1.427   6.654
 3240SOL    HW110400   2.121   1.389   6.603
 3240SOL    HW210401   2.243   1.477   6.590
 3241SOL     OW10402   3.323   1.499   6.939
 3241SOL    HW110403   3.372   1.581   6.948
 3241SOL    HW210404   3.264   1.497   7.014
 3242SOL     OW10405   2.305   0.399   7.075
 3242SOL    HW110406   2.381   0.339   7.072
 3242SOL    HW210407   2.230   0.341   7.088
 3243SOL     OW10408   3.473   0.452   6.324
 3243SOL    HW110409   3.397   0.476   6.271
 3243SOL    HW210410   3.493   0.530   6.375
 3244SOL     OW10411   2.081   1.714   6.059
 3244SOL    HW110412   2.104   1.791   6.112
 3244SOL    HW210413   2.154   1.706   5.997
 3245SOL     OW10414   2.998   1.341   7.276
 3245SOL    HW110415   3.038   1.338   7.363
 3245SOL    HW210416   2.946   1.261   7.271
 3246SOL     OW10417   2.092   1.441   6.120
 3246SOL    HW110418   2.075   1.535   6.125
 3246SOL    HW210419   2.031   1.403   6.184
 3247SOL     OW10420   2.118   1.090   6.477
 3247SOL    HW110421   2.115   1.004   6.518
 3247SOL    HW210422   2.060   1.144   6.530
 3248SOL     OW10423   2.474   1.791   7.014
 3248SOL    HW110424   2.393   1.773   7.062
 3248SOL    HW210425   2.498   1.880   7.040
 3249SOL     OW10426   2.449   0.981   5.719
 3249SOL    HW110427   2.493   1.031   5.651
 3249SOL    HW210428   2.489   1.011   5.801
 3250SOL     OW10429   3.448   0.134   7.043
 3250SOL    HW110430   3.468   0.219   7.004
 3250SOL    HW210431   3.447   0.151   7.138
 3251SOL     OW10432   1.976   0.653   6.145
 3251SOL    HW110433   1.949   0.564   6.167
 3251SOL    HW210434   1.969   0.701   6.228
 3252SOL     OW10435   3.704   1.760   5.922
 3252SOL    HW110436   3.767   1.731   5.988
 3252SOL    HW210437   3.729   1.850   5.903
 3253SOL     OW10438   1.893   1.596   5.710
 3253SOL    HW110439   1.876   1.504   5.730
 3253SOL    HW210440   1.869   1.642   5.790
 3254SOL     OW10441   3.551   0.919   6.226
 3254SOL    HW110442   3.635   0.877   6.205
 3254SOL    HW210443   3.529   0.969   6.147
 3255SOL     OW10444   3.507   1.107   6.016
 3255SOL    HW110445   3.593   1.114   5.973
 3255SOL    HW210446   3.512   1.168   6.089
 3256SOL     OW10447   1.984   0.743   7.172
 3256SOL    HW110448   2.076   0.767   7.181
 3256SOL    HW210449   1.936   0.825   7.180
 3257SOL     OW10450   2.474   1.384   6.321
 3257SOL    HW110451   2.429   1.301   6.330
 3257SOL    HW210452   2.459   1.411   6.231
 3258SOL     OW10453   3.151   1.238   7.010
 3258SOL    HW110454   3.184   1.171   6.950
 3258SOL    HW210455   3.208   1.232   7.087
 3259SOL     OW10456   2.671   0.025   6.112
 3259SOL    HW110457   2.700   0.113   6.088
 3259SOL    HW210458   2.576   0.029   6.106
 3260SOL     OW10459   2.053   0.967   6.856
 3260SOL    HW110460   2.137   0.925   6.841
 3260SOL    HW210461   1.989   0.912   6.810
 3261SOL     OW10462   3.394   0.993   5.784
 3261SOL    HW110463   3.324   0.935   5.815
 3261SOL    HW210464   3.434   1.027   5.864
 3262SOL     OW10465   3.047   1.805   7.207
 3262SOL    HW110466   3.059   1.864   7.132
 3262SOL    HW210467   3.063   1.718   7.172
 3263SOL     OW10468   2.187   0.262   7.401
 3263SOL    HW110469   2.239   0.340   7.421
 3263SOL    HW210470   2.100   0.281   7.436
 3264SOL     OW10471   3.328   1.420   6.538
 3264SOL    HW110472   3.260   1.434   6.604
 3264SOL    HW210473   3.316   1.329   6.511
 3265SOL     OW10474   3.521   1.737   6.164
 3265SOL    HW110475   3.501   1.708   6.075
 3265SOL    HW210476   3.496   1.664   6.220
 3266SOL     OW10477   2.457   0.722   5.851
 3266SOL    HW110478   2.464   0.803   5.800
 3266SOL    HW210479   2.392   0.741   5.918
 3267SOL     OW10480   3.141   0.345   6.516
 3267SOL    HW110481   3.050   0.317   6.529
 3267SOL    HW210482   3.190   0.296   6.582
 3268SOL     OW10483   3.443   1.670   5.895
 3268SOL    HW110484   3.533   1.702   5.888
 3268SOL    HW210485   3.417   1.652   5.805
 3269SOL     OW10486   2.656   0.617   7.037
 3269SOL    HW110487   2.629   0.597   7.126
 3269SOL    HW210488   2.613   0.552   6.983
 3270SOL     OW10489   3.257   0.475   7.264
 3270SOL    HW110490   3.258   0.519   7.348
 3270SOL    HW210491   3.320   0.404   7.273
 3271SOL     OW10492   2.818   0.888   7.168
 3271SOL    HW110493   2.872   0.817   7.132
 3271SOL    HW210494   2.770   0.922   7.092
 3272SOL     OW10495   2.856   0.416   6.822
 3272SOL    HW110496   2.772   0.439   6.862
 3272SOL    HW210497   2.832   0.368   6.743
 3273SOL     OW10498   2.912   0.698   6.013
 3273SOL    HW110499   2.927   0.691   6.107
 3273SOL    HW210500   2.830   0.652   5.998
 3274SOL     OW10501   1.950   0.820   6.363
 3274SOL    HW110502   2.032   0.813   6.412
 3274SOL    HW210503   1.908   0.899   6.397
 3275SOL     OW10504   1.989   1.846   7.164
 3275SOL    HW110505   1.989   1.825   7.257
 3275SOL    HW210506   1.897   1.840   7.137
 3276SOL     OW10507   2.734   0.362   5.775
 3276SOL    HW110508   2.779   0.422   5.715
 3276SOL    HW210509   2.784   0.281   5.770
 3277SOL     OW10510   3.572   0.576   7.415
 3277SOL    HW110511   3.534   0.651   7.368
 3277SOL    HW210512   3.598   0.516   7.346
 3278SOL     OW10513   3.238   1.142   6.128
 3278SOL    HW110514   3.317   1.129   6.075
 3278SOL    HW210515   3.185   1.204   6.077
 3279SOL     OW10516   2.390   0.201   6.469
 3279SOL    HW110517   2.412   0.216   6.561
 3279SOL    HW210518   2.411   0.284   6.425
 3280SOL     OW10519   2.869   1.445   6.059
 3280SOL    HW110520   2.830   1.517   6.009
 3280SOL    HW210521   2.852   1.467   6.150
 3281SOL     OW10522   2.217   1.808   6.447
 3281SOL    HW110523   2.260   1.723   6.455
 3281SOL    HW210524   2.286   1.872   6.463
 3282SOL     OW10525   3.661   1.058   6.454
 3282SOL    HW110526   3.606   1.041   6.377
 3282SOL    HW210527   3.599   1.063   6.527
 3283SOL     OW10528   3.090   1.539   7.099
 3283SOL    HW110529   3.076   1.466   7.159
 3283SOL    HW210530   3.027   1.524   7.028
 3284SOL     OW10531   2.183   0.957   5.835
 3284SOL    HW110532   2.265   0.976   5.790
 3284SOL    HW210533   2.152   0.875   5.796
 3285SOL     OW10534   3.340   0.741   6.313
 3285SOL    HW110535   3.330   0.698   6.398
 3285SOL    HW210536   3.417   0.797   6.323
 3286SOL     OW10537   2.327   1.263   7.323
 3286SOL    HW110538   2.300   1.269   7.232
 3286SOL    HW210539   2.245   1.262   7.373
 3287SOL     OW10540   2.984   1.778   5.817
 3287SOL    HW110541   2.911   1.736   5.863
 3287SOL    HW210542   3.005   1.717   5.746
 3288SOL     OW10543   2.059   0.278   7.087
 3288SOL    HW110544   1.981   0.332   7.081
 3288SOL    HW210545   2.048   0.229   7.169
 3289SOL     OW10546   3.491   1.379   5.674
 3289SOL    HW110547   3.450   1.465   5.658
 3289SOL    HW210548   3.422   1.316   5.654
 3290SOL     OW10549   2.328   1.736   5.908
 3290SOL    HW110550   2.370   1.795   5.971
 3290SOL    HW210551   2.399   1.709   5.850
 3291SOL     OW10552   3.269   0.099   6.017
 3291SOL    HW110553   3.260   0.082   5.923
 3291SOL    HW210554   3.361   0.122   6.029
 3292SOL     OW10555   2.117   1.792   6.818
 3292SOL    HW110556   2.169   1.727   6.866
 3292SOL    HW210557   2.108   1.755   6.730
 3293SOL     OW10558   2.799   1.698   6.486
 3293SOL    HW110559   2.877   1.647   6.506
 3293SOL    HW210560   2.755   1.649   6.416
 3294SOL     OW10561   2.254   0.696   6.063
 3294SOL    HW110562   2.275   0.603   6.073
 3294SOL    HW210563   2.160   0.701   6.081
 3295SOL     OW10564   3.402   0.228   7.311
 3295SOL    HW110565   3.408   0.246   7.404
 3295SOL    HW210566   3.327   0.169   7.303
 3296SOL     OW10567   2.486   0.133   5.693
 3296SOL    HW110568   2.552   0.067   5.716
 3296SOL    HW210569   2.435   0.092   5.623
 3297SOL     OW10570   2.643   0.312   7.350
 3297SOL    HW110571   2.703   0.237   7.352
 3297SOL    HW210572   2.599   0.311   7.434
 3298SOL     OW10573   2.738   1.521   6.780
 3298SOL    HW110574   2.723   1.485   6.692
 3298SOL    HW210575   2.808   1.467   6.816
 3299SOL     OW10576   3.204   0.589   7.018
 3299SOL    HW110577   3.234   0.558   7.103
 3299SOL    HW210578   3.239   0.677   7.011
 3300SOL     OW10579   2.676   1.396   6.524
 3300SOL    HW110580   2.760   1.385   6.480
 3300SOL    HW210581   2.612   1.396   6.453
 3301SOL     OW10582   2.789   0.510   6.490
 3301SOL    HW110583   2.765   0.502   6.397
 3301SOL    HW210584   2.821   0.423   6.514
 3302SOL     OW10585   2.404   0.063   6.095
 3302SOL    HW110586   2.318   0.062   6.138
 3302SOL    HW210587   2.398   0.133   6.030
 3303SOL     OW10588   3.290   1.198   5.627
 3303SOL    HW110589   3.321   1.122   5.677
 3303SOL    HW210590   3.204   1.219   5.664
 3304SOL     OW10591   2.163   0.061   5.776
 3304SOL    HW110592   2.222   0.130   5.746
 3304SOL    HW210593   2.219   5.285   5.789
 3305SOL     OW10594   2.801   0.259   6.048
 3305SOL    HW110595   2.772   0.299   5.965
 3305SOL    HW210596   2.896   0.271   6.049
 3306SOL     OW10597   2.943   0.681   7.045
 3306SOL    HW110598   2.873   0.615   7.052
 3306SOL    HW210599   3.023   0.630   7.039
 3307SOL     OW10600   3.086   1.570   6.380
 3307SOL    HW110601   3.103   1.637   6.314
 3307SOL    HW210602   3.154   1.583   6.446
 3308SOL     OW10603   2.330   1.149   6.321
 3308SOL    HW110604   2.260   1.130   6.383
 3308SOL    HW210605   2.291   1.132   6.235
 3309SOL     OW10606   3.132   1.794   6.193
 3309SOL    HW110607   3.177   1.855   6.135
 3309SOL    HW210608   3.066   1.848   6.238
 3310SOL     OW10609   2.889   0.547   5.607
 3310SOL    HW110610   2.845   0.631   5.589
 3310SOL    HW210611   2.952   0.568   5.676
 3311SOL     OW10612   1.940   0.553   6.979
 3311SOL    HW110613   2.031   0.553   6.951
 3311SOL    HW210614   1.935   0.624   7.043
 3312SOL     OW10615   2.418   0.237   6.744
 3312SOL    HW110616   2.449   0.151   6.772
 3312SOL    HW210617   2.326   0.239   6.770
 3313SOL     OW10618   2.729   0.462   6.227
 3313SOL    HW110619   2.684   0.515   6.162
 3313SOL    HW210620   2.752   0.381   6.180
 3314SOL     OW10621   2.840   0.061   6.348
 3314SOL    HW110622   2.775   0.054   6.278
 3314SOL    HW210623   2.850   5.271   6.380
 3315SOL     OW10624   3.299   1.163   6.443
 3315SOL    HW110625   3.230   1.097   6.442
 3315SOL    HW210626   3.323   1.175   6.352
 3316SOL     OW10627   3.329   0.605   6.565
 3316SOL    HW110628   3.280   0.522   6.569
 3316SOL    HW210629   3.389   0.600   6.639
 3317SOL     OW10630   3.708   0.817   5.968
 3317SOL    HW110631   3.764   0.766   6.026
 3317SOL    HW210632   3.679   0.755   5.901
 3318SOL     OW10633   2.353   1.417   5.744
 3318SOL    HW110634   2.278   1.387   5.796
 3318SOL    HW210635   2.337   1.381   5.657
 3319SOL     OW10636   3.531   1.264   6.233
 3319SOL    HW110637   3.626   1.268   6.246
 3319SOL    HW210638   3.500   1.353   6.254
 3320SOL     OW10639   3.256   0.572   5.657
 3320SOL    HW110640   3.195   0.553   5.728
 3320SOL    HW210641   3.340   0.541   5.689
 3321SOL     OW10642   2.386   0.264   5.908
 3321SOL    HW110643   2.430   0.215   5.838
 3321SOL    HW210644   2.366   0.349   5.868
 3322SOL     OW10645   3.615   1.238   7.160
 3322SOL    HW110646   3.703   1.199   7.156
 3322SOL    HW210647   3.629   1.327   7.190
 3323SOL     OW10648   2.921   1.353   6.920
 3323SOL    HW110649   2.847   1.322   6.971
 3323SOL    HW210650   2.997   1.312   6.961
 3324SOL     OW10651   3.469   1.625   7.238
 3324SOL    HW110652   3.465   1.659   7.148
 3324SOL    HW210653   3.552   1.578   7.241
 3325SOL     OW10654   2.989   1.202   6.692
 3325SOL    HW110655   2.931   1.241   6.757
 3325SOL    HW210656   2.956   1.234   6.608
 3326SOL     OW10657   3.491   1.099   6.664
 3326SOL    HW110658   3.487   1.161   6.737
 3326SOL    HW210659   3.412   1.115   6.613
 3327SOL     OW10660   2.767   0.106   6.977
 3327SOL    HW110661   2.797   0.072   6.893
 3327SOL    HW210662   2.844   0.148   7.015
 3328SOL     OW10663   2.846   1.114   7.310
 3328SOL    HW110664   2.754   1.131   7.328
 3328SOL    HW210665   2.846   1.037   7.254
 3329SOL     OW10666   2.570   1.061   5.957
 3329SOL    HW110667   2.557   1.045   6.051
 3329SOL    HW210668   2.646   1.007   5.935
 3330SOL     OW10669   2.280   0.815   6.838
 3330SOL    HW110670   2.349   0.824   6.903
 3330SOL    HW210671   2.245   0.727   6.852
 3331SOL     OW10672   3.130   0.379   6.858
 3331SOL    HW110673   3.162   0.456   6.905
 3331SOL    HW210674   3.039   0.401   6.835
 3332SOL     OW10675   1.932   1.573   6.938
 3332SOL    HW110676   1.901   1.646   6.884
 3332SOL    HW210677   2.027   1.577   6.933
 3333SOL     OW10678   2.212   1.108   6.077
 3333SOL    HW110679   2.218   1.181   6.016
 3333SOL    HW210680   2.211   1.030   6.021
 3334SOL     OW10681   2.416   0.538   6.447
 3334SOL    HW110682   2.432   0.596   6.372
 3334SOL    HW210683   2.481   0.565   6.512
 3335SOL     OW10684   3.110   1.348   5.975
 3335SOL    HW110685   3.166   1.420   6.006
 3335SOL    HW210686   3.023   1.369   6.009
 3336SOL     OW10687   3.142   1.457   6.733
 3336SOL    HW110688   3.197   1.459   6.811
 3336SOL    HW210689   3.086   1.380   6.745
 3337SOL     OW10690   3.445   0.623   6.064
 3337SOL    HW110691   3.398   0.678   6.127
 3337SOL    HW210692   3.489   0.685   6.006
 3338SOL     OW10693   2.209   1.526   6.902
 3338SOL    HW110694   2.196   1.484   6.817
 3338SOL    HW210695   2.303   1.539   6.909
 3339SOL     OW10696   2.276   0.745   7.188
 3339SOL    HW110697   2.336   0.790   7.130
 3339SOL    HW210698   2.318   0.660   7.205
 3340SOL     OW10699   3.462   0.778   7.267
 3340SOL    HW110700   3.376   0.819   7.260
 3340SOL    HW210701   3.514   0.820   7.199
 3341SOL     OW10702   2.902   0.115   7.370
 3341SOL    HW110703   2.929   0.195   7.324
 3341SOL    HW210704   2.911   0.046   7.305
 3342SOL     OW10705   2.345   0.056   7.325
 3342SOL    HW110706   2.288   5.292   7.282
 3342SOL    HW210707   2.286   0.129   7.347
 3343SOL     OW10708   2.445   0.872   6.618
 3343SOL    HW110709   2.476   0.963   6.615
 3343SOL    HW210710   2.388   0.868   6.694
 3344SOL     OW10711   3.221   0.859   6.617
 3344SOL    HW110712   3.139   0.851   6.569
 3344SOL    HW210713   3.260   0.772   6.612
 3345SOL     OW10714   3.069   0.529   5.854
 3345SOL    HW110715   3.072   0.448   5.905
 3345SOL    HW210716   3.026   0.592   5.912
 3346SOL     OW10717   2.159   0.204   6.833
 3346SOL    HW110718   2.120   0.243   6.911
 3346SOL    HW210719   2.157   0.110   6.849
 3347SOL     OW10720   1.907   1.311   6.863
 3347SOL    HW110721   1.941   1.257   6.934
 3347SOL    HW210722   1.915   1.400   6.895
 3348SOL     OW10723   2.588   0.632   6.647
 3348SOL    HW110724   2.661   0.615   6.587
 3348SOL    HW210725   2.559   0.720   6.624
 3349SOL     OW10726   3.597   0.959   7.437
 3349SOL    HW110727   3.548   0.900   7.380
 3349SOL    HW210728   3.539   0.973   7.513
 3350SOL     OW10729   2.163   0.073   6.234
 3350SOL    HW110730   2.148   0.167   6.244
 3350SOL    HW210731   2.203   0.046   6.317
 3351SOL     OW10732   3.473   0.374   5.952
 3351SOL    HW110733   3.507   0.311   6.016
 3351SOL    HW210734   3.453   0.452   6.004
 3352SOL     OW10735   2.889   0.759   6.547
 3352SOL    HW110736   2.887   0.777   6.641
 3352SOL    HW210737   2.863   0.668   6.539
 3353SOL     OW10738   2.843   1.565   7.302
 3353SOL    HW110739   2.829   1.610   7.218
 3353SOL    HW210740   2.888   1.484   7.278
 3354SOL     OW10741   3.717   1.507   7.191
 3354SOL    HW110742   3.735   1.533   7.101
 3354SOL    HW210743   3.799   1.526   7.238
 3355SOL     OW10744   2.215   0.914   7.396
 3355SOL    HW110745   2.298   0.935   7.439
 3355SOL    HW210746   2.239   0.853   7.326
 3356SOL     OW10747   3.390   0.273   5.712
 3356SOL    HW110748   3.326   0.208   5.743
 3356SOL    HW210749   3.425   0.311   5.793
 3357SOL     OW10750   3.155   0.827   5.618
 3357SOL    HW110751   3.197   0.741   5.621
 3357SOL    HW210752   3.186   0.866   5.536
 3358SOL     OW10753   2.927   1.335   6.440
 3358SOL    HW110754   2.930   1.263   6.377
 3358SOL    HW210755   2.989   1.399   6.405
 3359SOL     OW10756   2.171   0.809   6.534
 3359SOL    HW110757   2.264   0.831   6.527
 3359SOL    HW210758   2.170   0.719   6.566
 3360SOL     OW10759   2.195   0.525   6.599
 3360SOL    HW110760   2.158   0.438   6.582
 3360SOL    HW210761   2.271   0.530   6.541
 3361SOL     OW10762   2.998   0.377   7.273
 3361SOL    HW110763   2.950   0.432   7.335
 3361SOL    HW210764   3.085   0.416   7.268
 3362SOL     OW10765   2.996   0.222   7.051
 3362SOL    HW110766   3.001   0.281   7.127
 3362SOL    HW210767   3.051   0.264   6.985
 3363SOL     OW10768   1.867   1.322   5.781
 3363SOL    HW110769   1.780   1.336   5.743
 3363SOL    HW210770   1.864   1.232   5.814
 3364SOL     OW10771   1.952   1.788   6.523
 3364SOL    HW110772   1.922   1.708   6.480
 3364SOL    HW210773   2.042   1.800   6.492
 3365SOL     OW10774   2.359   1.573   6.491
 3365SOL    HW110775   2.428   1.635   6.516
 3365SOL    HW210776   2.403   1.509   6.436
 3366SOL     OW10777   2.847   0.793   6.813
 3366SOL    HW110778   2.902   0.769   6.888
 3366SOL    HW210779   2.761   0.756   6.834
 3367SOL     OW10780   1.897   0.543   6.703
 3367SOL    HW110781   1.977   0.529   6.652
 3367SOL    HW210782   1.927   0.548   6.794
 3368SOL     OW10783   2.050   0.520   7.312
 3368SOL    HW110784   2.113   0.487   7.247
 3368SOL    HW210785   2.008   0.593   7.268
 3369SOL     OW10786   3.238   0.940   7.245
 3369SOL    HW110787   3.259   1.033   7.245
 3369SOL    HW210788   3.236   0.915   7.153
 3370SOL     OW10789   2.676   0.572   5.947
 3370SOL    HW110790   2.679   0.497   5.887
 3370SOL    HW210791   2.602   0.624   5.916
 3371SOL     OW10792   3.504   0.601   6.773
 3371SOL    HW110793   3.493   0.542   6.847
 3371SOL    HW210794   3.591   0.581   6.739
 3372SOL     OW10795   2.105   1.552   7.314
 3372SOL    HW110796   2.084   1.616   7.382
 3372SOL    HW210797   2.107   1.468   7.360
 3373SOL     OW10798   2.558   0.453   6.848
 3373SOL    HW110799   2.508   0.379   6.813
 3373SOL    HW210800   2.559   0.517   6.776
 3374SOL     OW10801   2.790   1.679   7.053
 3374SOL    HW110802   2.764   1.646   6.967
 3374SOL    HW210803   2.788   1.774   7.044
 3375SOL     OW10804   2.326   0.493   5.770
 3375SOL    HW110805   2.386   0.564   5.793
 3375SOL    HW210806   2.241   0.535   5.761
 3376SOL     OW10807   2.008   1.140   7.058
 3376SOL    HW110808   2.012   1.088   7.138
 3376SOL    HW210809   2.026   1.077   6.988
 3377SOL     OW10810   3.189   1.048   6.810
 3377SOL    HW110811   3.213   0.984   6.742
 3377SOL    HW210812   3.118   1.099   6.771
 3378SOL     OW10813   3.172   0.856   5.893
 3378SOL    HW110814   3.096   0.826   5.942
 3378SOL    HW210815   3.149   0.843   5.801
 3379SOL     OW10816   3.632   1.745   6.735
 3379SOL    HW110817   3.693   1.771   6.666
 3379SOL    HW210818   3.609   1.655   6.714
 3380SOL     OW10819   3.103   1.733   6.700
 3380SOL    HW110820   3.185   1.753   6.655
 3380SOL    HW210821   3.108   1.639   6.718
 3381SOL     OW10822   1.945   1.267   6.598
 3381SOL    HW110823   1.932   1.279   6.692
 3381SOL    HW210824   1.872   1.212   6.570
 3382SOL     OW10825   2.538   1.664   7.312
 3382SOL    HW110826   2.489   1.746   7.312
 3382SOL    HW210827   2.605   1.676   7.244
 3383SOL     OW10828   3.575   0.147   6.090
 3383SOL    HW110829   3.650   0.127   6.035
 3383SOL    HW210830   3.567   0.072   6.149
 3384SOL     OW10831   3.252   1.568   6.070
 3384SOL    HW110832   3.313   1.599   6.003
 3384SOL    HW210833   3.204   1.645   6.098
 3385SOL     OW10834   1.997   1.797   7.430
 3385SOL    HW110835   1.947   1.732   7.480
 3385SOL    HW210836   2.046   1.845   7.497
 3386SOL     OW10837   3.139   0.925   6.257
 3386SOL    HW110838   3.213   0.864   6.263
 3386SOL    HW210839   3.173   0.998   6.205
 3387SOL     OW10840   2.678   1.272   7.017
 3387SOL    HW110841   2.650   1.312   7.099
 3387SOL    HW210842   2.608   1.295   6.955
 3388SOL     OW10843   2.534   1.618   5.742
 3388SOL    HW110844   2.544   1.631   5.648
 3388SOL    HW210845   2.479   1.540   5.750
 3389SOL     OW10846   3.490   1.727   6.977
 3389SOL    HW110847   3.540   1.734   6.895
 3389SOL    HW210848   3.477   1.817   7.005
 3390SOL     OW10849   3.707   0.158   6.544
 3390SOL    HW110850   3.709   0.064   6.527
 3390SOL    HW210851   3.620   0.186   6.516
 3391SOL     OW10852   2.125   0.329   6.306
 3391SOL    HW110853   2.038   0.360   6.283
 3391SOL    HW210854   2.122   0.317   6.401
 3392SOL     OW10855   3.069   1.607   5.617
 3392SOL    HW110856   3.059   1.516   5.644
 3392SOL    HW210857   3.004   1.618   5.547
 3393SOL     OW10858   2.686   1.006   6.958
 3393SOL    HW110859   2.730   1.002   6.873
 3393SOL    HW210860   2.686   1.099   6.981
 3394SOL     OW10861   2.778   0.911   5.876
 3394SOL    HW110862   2.839   0.942   5.810
 3394SOL    HW210863   2.825   0.840   5.921
 3395SOL     OW10864   3.355   1.625   5.628
 3395SOL    HW110865   3.260   1.619   5.615
 3395SOL    HW210866   3.391   1.631   5.540
 3396SOL     OW10867   2.231   1.302   7.078
 3396SOL    HW110868   2.218   1.379   7.023
 3396SOL    HW210869   2.154   1.248   7.061
 3397SOL     OW10870   3.473   1.283   6.867
 3397SOL    HW110871   3.533   1.273   6.941
 3397SOL    HW210872   3.413   1.352   6.893
 3398SOL     OW10873   2.913   1.106   6.292
 3398SOL    HW110874   2.842   1.055   6.331
 3398SOL    HW210875   2.974   1.041   6.259
 3399SOL     OW10876   2.882   0.243   6.553
 3399SOL    HW110877   2.862   0.197   6.472
 3399SOL    HW210878   2.874   0.175   6.621
 3400SOL     OW10879   2.464   1.488   6.068
 3400SOL    HW110880   2.508   1.438   5.999
 3400SOL    HW210881   2.397   1.539   6.022
 3401SOL     OW10882   3.585   0.387   6.965
 3401SOL    HW110883   3.655   0.452   6.964
 3401SOL    HW210884   3.617   0.317   6.907
 3402SOL     OW10885   2.121   1.345   5.873
 3402SOL    HW110886   2.028   1.344   5.851
 3402SOL    HW210887   2.124   1.382   5.962
 3403SOL     OW10888   1.975   1.019   7.305
 3403SOL    HW110889   1.898   0.998   7.358
 3403SOL    HW210890   2.049   0.983   7.353
 3404SOL     OW10891   2.534   0.210   7.074
 3404SOL    HW110892   2.618   0.193   7.031
 3404SOL    HW210893   2.557   0.259   7.153
 3405SOL     OW10894   1.939   0.340   5.627
 3405SOL    HW110895   1.855   0.307   5.593
 3405SOL    HW210896   1.961   0.413   5.569
 3406SOL     OW10897   3.293   0.858   6.987
 3406SOL    HW110898   3.244   0.919   6.931
 3406SOL    HW210899   3.382   0.861   6.953
 3407SOL     OW10900   1.934   0.167   5.902
 3407SOL    HW110901   1.934   0.250   5.854
 3407SOL    HW210902   2.019   0.127   5.882
 3408SOL     OW10903   3.041   1.340   5.703
 3408SOL    HW110904   2.951   1.310   5.706
 3408SOL    HW210905   3.069   1.340   5.794
 3409SOL     OW10906   2.481   0.831   7.019
 3409SOL    HW110907   2.536   0.907   7.004
 3409SOL    HW210908   2.543   0.758   7.028
 3410SOL     OW10909   3.346   1.775   6.563
 3410SOL    HW110910   3.370   1.834   6.492
 3410SOL    HW210911   3.428   1.758   6.609
 3411SOL     OW10912   2.577   0.572   7.290
 3411SOL    HW110913   2.617   0.635   7.350
 3411SOL    HW210914   2.609   0.487   7.319
 3412SOL     OW10915   3.332   1.201   7.218
 3412SOL    HW110916   3.320   1.214   7.312
 3412SOL    HW210917   3.426   1.215   7.204
 3413SOL     OW10918   2.242   1.739   7.149
 3413SOL    HW110919   2.156   1.780   7.136
 3413SOL    HW210920   2.223   1.655   7.191
 3414SOL     OW10921   3.532   0.882   6.841
 3414SOL    HW110922   3.525   0.796   6.798
 3414SOL    HW210923   3.523   0.945   6.770
 3415SOL     OW10924   3.082   0.320   6.052
 3415SOL    HW110925   3.145   0.248   6.044
 3415SOL    HW210926   3.113   0.371   6.127
 3416SOL     OW10927   2.452   0.739   6.255
 3416SOL    HW110928   2.492   0.825   6.239
 3416SOL    HW210929   2.384   0.731   6.189
 3417SOL     OW10930   3.629   0.360   7.235
 3417SOL    HW110931   3.610   0.375   7.143
 3417SOL    HW210932   3.557   0.305   7.266
 3418SOL     OW10933   3.606   0.933   7.098
 3418SOL    HW110934   3.605   1.028   7.112
 3418SOL    HW210935   3.591   0.922   7.005
 3419SOL     OW10936   2.724   1.367   5.619
 3419SOL    HW110937   2.685   1.396   5.701
 3419SOL    HW210938   2.743   1.449   5.572
 3420SOL     OW10939   2.522   1.791   6.533
 3420SOL    HW110940   2.502   1.881   6.507
 3420SOL    HW210941   2.617   1.785   6.525
 3421SOL     OW10942   2.728   0.966   6.442
 3421SOL    HW110943   2.779   0.895   6.481
 3421SOL    HW210944   2.695   1.016   6.516
 3422SOL     OW10945   2.941   0.988   5.675
 3422SOL    HW110946   2.919   1.038   5.596
 3422SOL    HW210947   3.016   0.935   5.649
 3423SOL     OW10948   3.717   1.555   6.431
 3423SOL    HW110949   3.639   1.544   6.376
 3423SOL    HW210950   3.708   1.488   6.499
 3424SOL     OW10951   2.087   1.304   7.443
 3424SOL    HW110952   2.019   1.243   7.413
 3424SOL    HW210953   2.068   1.317   7.536
 3425SOL     OW10954   1.945   1.234   6.250
 3425SOL    HW110955   1.950   1.185   6.332
 3425SOL    HW210956   2.014   1.196   6.195
 3426SOL     OW10957   2.542   1.402   7.212
 3426SOL    HW110958   2.462   1.359   7.244
 3426SOL    HW210959   2.538   1.490   7.249
 3427SOL     OW10960   3.678   0.178   6.819
 3427SOL    HW110961   3.646   0.088   6.827
 3427SOL    HW210962   3.694   0.190   6.726
 3428SOL     OW10963   2.291   0.435   6.109
 3428SOL    HW110964   2.323   0.362   6.056
 3428SOL    HW210965   2.246   0.393   6.182
 3429SOL     OW10966   3.563   1.490   6.683
 3429SOL    HW110967   3.482   1.466   6.639
 3429SOL    HW210968   3.575   1.421   6.749
 3430SOL     OW10969   2.189   0.554   6.876
 3430SOL    HW110970   2.246   0.500   6.931
 3430SOL    HW210971   2.210   0.528   6.787
 3431SOL     OW10972   2.689   1.578   6.264
 3431SOL    HW110973   2.678   1.630   6.184
 3431SOL    HW210974   2.611   1.522   6.266
 3432SOL     OW10975   3.290   0.218   6.703
 3432SOL    HW110976   3.327   0.144   6.751
 3432SOL    HW210977   3.242   0.268   6.768
 3433SOL     OW10978   2.864   0.022   6.727
 3433SOL    HW110979   2.814   5.252   6.686
 3433SOL    HW210980   2.951   5.284   6.740
 3434SOL     OW10981   2.633   1.332   5.900
 3434SOL    HW110982   2.602   1.242   5.906
 3434SOL    HW210983   2.716   1.332   5.948
 3435SOL     OW10984   2.481   1.557   6.870
 3435SOL    HW110985   2.484   1.639   6.920
 3435SOL    HW210986   2.569   1.549   6.833
 3436SOL     OW10987   3.219   0.040   5.748
 3436SOL    HW110988   3.248   5.296   5.668
 3436SOL    HW210989   3.137   5.295   5.771
 3437SOL     OW10990   3.163   0.463   6.271
 3437SOL    HW110991   3.108   0.541   6.277
 3437SOL    HW210992   3.157   0.423   6.358
 3438SOL     OW10993   3.456   0.216   6.467
 3438SOL    HW110994   3.389   0.227   6.535
 3438SOL    HW210995   3.450   0.294   6.413
 3439SOL     OW10996   1.905   1.072   5.892
 3439SOL    HW110997   1.999   1.063   5.874
 3439SOL    HW210998   1.877   0.983   5.914
 3440SOL     OW10999   2.745   1.651   5.929
 3440SOL    HW111000   2.673   1.634   5.868
 3440SOL    HW211001   2.715   1.726   5.980
 3441SOL     OW11002   2.090   0.620   7.571
 3441SOL    HW111003   1.999   0.628   7.602
 3441SOL    HW211004   2.082   0.597   7.479
 3442SOL     OW11005   3.630   0.599   7.680
 3442SOL    HW111006   3.609   0.594   7.586
 3442SOL    HW211007   3.587   0.522   7.717
 3443SOL     OW11008   2.082   1.718   7.918
 3443SOL    HW111009   2.112   1.761   7.999
 3443SOL    HW211010   2.160   1.715   7.863
 3444SOL     OW11011   2.080   1.438   7.990
 3444SOL    HW111012   2.065   1.532   7.991
 3444SOL    HW211013   2.021   1.403   8.056
 3445SOL     OW11014   2.449   0.981   7.579
 3445SOL    HW111015   2.493   1.032   7.510
 3445SOL    HW211016   2.488   1.013   7.660
 3446SOL     OW11017   3.699   1.760   7.798
 3446SOL    HW111018   3.769   1.729   7.855
 3446SOL    HW211019   3.726   1.848   7.772
 3447SOL     OW11020   1.891   1.599   7.577
 3447SOL    HW111021   1.876   1.506   7.592
 3447SOL    HW211022   1.864   1.642   7.659
 3448SOL     OW11023   3.546   0.868   8.035
 3448SOL    HW111024   3.627   0.880   0.005
 3448SOL    HW211025   3.533   0.952   7.990
 3449SOL     OW11026   3.516   1.099   7.876
 3449SOL    HW111027   3.603   1.125   7.846
 3449SOL    HW211028   3.490   1.170   7.935
 3450SOL     OW11029   2.672   5.291   7.945
 3450SOL    HW111030   2.713   0.077   7.931
 3450SOL    HW211031   2.578   0.009   7.943
 3451SOL     OW11032   3.395   0.994   7.648
 3451SOL    HW111033   3.328   0.934   7.681
 3451SOL    HW211034   3.437   1.028   7.727
 3452SOL     OW11035   2.453   0.725   7.708
 3452SOL    HW111036   2.458   0.806   7.658
 3452SOL    HW211037   2.392   0.745   7.779
 3453SOL     OW11038   3.437   1.670   7.757
 3453SOL    HW111039   3.528   1.700   7.765
 3453SOL    HW211040   3.425   1.657   7.663
 3454SOL     OW11041   1.924   0.862   0.091
 3454SOL    HW111042   1.988   0.798   0.120
 3454SOL    HW211043   1.916   0.923   0.165
 3455SOL     OW11044   2.729   0.355   7.631
 3455SOL    HW111045   2.777   0.419   7.579
 3455SOL    HW211046   2.788   0.280   7.637
 3456SOL     OW11047   2.185   0.956   7.697
 3456SOL    HW111048   2.266   0.974   7.648
 3456SOL    HW211049   2.150   0.877   7.657
 3457SOL     OW11050   2.985   1.775   7.682
 3457SOL    HW111051   2.909   1.735   7.724
 3457SOL    HW211052   3.008   1.716   7.611
 3458SOL     OW11053   3.491   1.380   7.533
 3458SOL    HW111054   3.449   1.465   7.520
 3458SOL    HW211055   3.422   1.316   7.516
 3459SOL     OW11056   2.329   1.737   7.770
 3459SOL    HW111057   2.377   1.791   7.833
 3459SOL    HW211058   2.396   1.704   7.710
 3460SOL     OW11059   3.270   0.106   7.882
 3460SOL    HW111060   3.264   0.083   7.789
 3460SOL    HW211061   3.364   0.112   7.899
 3461SOL     OW11062   2.251   0.696   7.918
 3461SOL    HW111063   2.261   0.601   7.926
 3461SOL    HW211064   2.161   0.714   7.943
 3462SOL     OW11065   2.481   0.132   7.559
 3462SOL    HW111066   2.554   0.073   7.578
 3462SOL    HW211067   2.434   0.089   7.487
 3463SOL     OW11068   2.408   0.064   7.953
 3463SOL    HW111069   2.316   0.048   7.975
 3463SOL    HW211070   2.406   0.137   7.891
 3464SOL     OW11071   3.290   1.197   7.489
 3464SOL    HW111072   3.321   1.123   7.541
 3464SOL    HW211073   3.206   1.221   7.528
 3465SOL     OW11074   2.166   0.071   7.658
 3465SOL    HW111075   2.218   0.128   7.601
 3465SOL    HW211076   2.215   5.289   7.660
 3466SOL     OW11077   2.812   0.228   7.907
 3466SOL    HW111078   2.761   0.298   7.866
 3466SOL    HW211079   2.900   0.264   7.917
 3467SOL     OW11080   2.305   1.151   0.099
 3467SOL    HW111081   2.228   1.182   0.147
 3467SOL    HW211082   2.273   1.136   0.010
 3468SOL     OW11083   3.152   1.811   8.014
 3468SOL    HW111084   3.187   1.880   7.958
 3468SOL    HW211085   3.069   1.846   8.047
 3469SOL     OW11086   2.890   0.547   7.466
 3469SOL    HW111087   2.845   0.631   7.451
 3469SOL    HW211088   2.949   0.565   7.539
 3470SOL     OW11089   3.733   0.817   7.802
 3470SOL    HW111090   3.731   0.787   7.893
 3470SOL    HW211091   3.692   0.747   7.752
 3471SOL     OW11092   2.351   1.415   7.606
 3471SOL    HW111093   2.277   1.386   7.659
 3471SOL    HW211094   2.334   1.380   7.519
 3472SOL     OW11095   3.255   0.572   7.519
 3472SOL    HW111096   3.194   0.552   7.590
 3472SOL    HW211097   3.339   0.539   7.551
 3473SOL     OW11098   2.387   0.270   7.773
 3473SOL    HW111099   2.427   0.217   7.705
 3473SOL    HW211100   2.366   0.353   7.730
 3474SOL     OW11101   2.573   1.062   7.812
 3474SOL    HW111102   2.550   1.049   7.904
 3474SOL    HW211103   2.652   1.009   7.799
 3475SOL     OW11104   2.228   1.100   7.928
 3475SOL    HW111105   2.210   1.180   7.878
 3475SOL    HW211106   2.214   1.029   7.866
 3476SOL     OW11107   3.087   1.356   7.821
 3476SOL    HW111108   3.150   1.423   7.847
 3476SOL    HW211109   3.044   1.331   7.902
 3477SOL     OW11110   3.451   0.628   7.922
 3477SOL    HW111111   3.433   0.685   7.996
 3477SOL    HW211112   3.489   0.685   7.855
 3478SOL     OW11113   3.066   0.526   7.716
 3478SOL    HW111114   3.068   0.439   7.756
 3478SOL    HW211115   3.042   0.585   7.788
 3479SOL     OW11116   3.478   0.376   7.815
 3479SOL    HW111117   3.498   0.308   7.879
 3479SOL    HW211118   3.453   0.452   7.867
 3480SOL     OW11119   3.391   0.273   7.575
 3480SOL    HW111120   3.328   0.207   7.605
 3480SOL    HW211121   3.426   0.311   7.656
 3481SOL     OW11122   3.157   0.828   7.482
 3481SOL    HW111123   3.197   0.741   7.483
 3481SOL    HW211124   3.187   0.867   7.400
 3482SOL     OW11125   1.867   1.324   7.640
 3482SOL    HW111126   1.780   1.337   7.603
 3482SOL    HW211127   1.867   1.235   7.674
 3483SOL     OW11128   2.697   0.598   7.767
 3483SOL    HW111129   2.688   0.508   7.734
 3483SOL    HW211130   2.608   0.634   7.764
 3484SOL     OW11131   2.323   0.494   7.638
 3484SOL    HW111132   2.383   0.567   7.654
 3484SOL    HW211133   2.239   0.536   7.622
 3485SOL     OW11134   3.173   0.851   7.755
 3485SOL    HW111135   3.086   0.852   7.795
 3485SOL    HW211136   3.156   0.841   7.662
 3486SOL     OW11137   3.571   0.130   7.946
 3486SOL    HW111138   3.646   0.130   7.887
 3486SOL    HW211139   3.601   0.083   8.023
 3487SOL     OW11140   3.228   1.576   7.898
 3487SOL    HW111141   3.302   1.597   7.841
 3487SOL    HW211142   3.195   1.661   7.927
 3488SOL     OW11143   2.529   1.618   7.604
 3488SOL    HW111144   2.541   1.630   7.510
 3488SOL    HW211145   2.478   1.538   7.612
 3489SOL     OW11146   3.070   1.608   7.478
 3489SOL    HW111147   3.060   1.517   7.506
 3489SOL    HW211148   3.004   1.620   7.410
 3490SOL     OW11149   2.789   0.911   7.756
 3490SOL    HW111150   2.842   0.935   7.680
 3490SOL    HW211151   2.786   0.815   7.753
 3491SOL     OW11152   3.356   1.625   7.489
 3491SOL    HW111153   3.261   1.619   7.477
 3491SOL    HW211154   3.391   1.631   7.399
 3492SOL     OW11155   2.468   1.507   7.936
 3492SOL    HW111156   2.511   1.444   7.878
 3492SOL    HW211157   2.395   1.542   7.884
 3493SOL     OW11158   2.120   1.347   7.740
 3493SOL    HW111159   2.027   1.345   7.715
 3493SOL    HW211160   2.120   1.383   7.829
 3494SOL     OW11161   1.937   0.339   7.489
 3494SOL    HW111162   1.854   0.308   7.452
 3494SOL    HW211163   1.961   0.414   7.435
 3495SOL     OW11164   1.925   0.182   7.746
 3495SOL    HW111165   1.923   0.257   7.688
 3495SOL    HW211166   2.006   0.135   7.723
 3496SOL     OW11167   3.039   1.339   7.556
 3496SOL    HW111168   2.947   1.313   7.558
 3496SOL    HW211169   3.064   1.345   7.649
 3497SOL     OW11170   3.085   0.320   7.916
 3497SOL    HW111171   3.150   0.250   7.909
 3497SOL    HW211172   3.109   0.367   7.996
 3498SOL     OW11173   2.484   0.734   8.058
 3498SOL    HW111174   2.492   0.818   0.024
 3498SOL    HW211175   2.397   0.737   8.018
 3499SOL     OW11176   2.723   1.368   7.480
 3499SOL    HW111177   2.686   1.395   7.564
 3499SOL    HW211178   2.744   1.449   7.435
 3500SOL     OW11179   2.935   0.979   7.537
 3500SOL    HW111180   2.916   1.036   7.462
 3500SOL    HW211181   3.014   0.931   7.512
 3501SOL     OW11182   2.250   0.420   7.984
 3501SOL    HW111183   2.303   0.369   7.922
 3501SOL    HW211184   2.299   0.416   8.066
 3502SOL     OW11185   2.628   1.334   7.759
 3502SOL    HW111186   2.596   1.244   7.761
 3502SOL    HW211187   2.710   1.332   7.809
 3503SOL     OW11188   3.227   0.038   7.610
 3503SOL    HW111189   3.239   5.291   7.527
 3503SOL    HW211190   3.143   0.007   7.644
 3504SOL     OW11191   1.912   1.079   7.750
 3504SOL    HW111192   2.006   1.068   7.736
 3504SOL    HW211193   1.880   0.990   7.766
 3505SOL     OW11194   2.754   1.651   7.782
 3505SOL    HW111195   2.678   1.627   7.729
 3505SOL    HW211196   2.720   1.714   7.845
 3506SOL     OW11197   2.088   2.482   0.124
 3506SOL    HW111198   2.003   2.456   0.161
 3506SOL    HW211199   2.099   2.426   0.047
 3507SOL     OW11200   2.086   2.140   0.991
 3507SOL    HW111201   2.114   2.106   1.076
 3507SOL    HW211202   1.996   2.109   0.981
 3508SOL     OW11203   1.866   2.243   0.638
 3508SOL    HW111204   1.784   2.270   0.680
 3508SOL    HW211205   1.845   2.164   0.590
 3509SOL     OW11206   2.428   3.148   1.175
 3509SOL    HW111207   2.341   3.153   1.135
 3509SOL    HW211208   2.443   3.236   1.210
 3510SOL     OW11209   3.421   3.373   0.706
 3510SOL    HW111210   3.378   3.355   0.790
 3510SOL    HW211211   3.349   3.378   0.643
 3511SOL     OW11212   3.025   2.541   0.736
 3511SOL    HW111213   3.045   2.629   0.705
 3511SOL    HW211214   2.940   2.550   0.780
 3512SOL     OW11215   3.629   2.463   0.234
 3512SOL    HW111216   3.594   2.463   0.144
 3512SOL    HW211217   3.591   2.386   0.274
 3513SOL     OW11218   2.633   3.021   1.038
 3513SOL    HW111219   2.555   3.039   1.091
 3513SOL    HW211220   2.653   3.105   0.996
 3514SOL     OW11221   2.568   3.023   1.821
 3514SOL    HW111222   2.621   3.102   1.834
 3514SOL    HW211223   2.490   3.054   1.774
 3515SOL     OW11224   2.191   3.291   1.068
 3515SOL    HW111225   2.120   3.252   1.016
 3515SOL    HW211226   2.243   3.340   1.004
 3516SOL     OW11227   3.323   3.361   1.353
 3516SOL    HW111228   3.371   3.443   1.363
 3516SOL    HW211229   3.262   3.360   1.427
 3517SOL     OW11230   2.311   2.264   1.501
 3517SOL    HW111231   2.387   2.206   1.496
 3517SOL    HW211232   2.236   2.206   1.508
 3518SOL     OW11233   3.475   2.311   0.740
 3518SOL    HW111234   3.398   2.334   0.687
 3518SOL    HW211235   3.490   2.387   0.795
 3519SOL     OW11236   2.082   3.576   0.472
 3519SOL    HW111237   2.104   3.652   0.526
 3519SOL    HW211238   2.155   3.568   0.411
 3520SOL     OW11239   3.000   3.204   1.694
 3520SOL    HW111240   3.039   3.199   1.781
 3520SOL    HW211241   2.948   3.125   1.686
 3521SOL     OW11242   2.087   3.304   0.534
 3521SOL    HW111243   2.074   3.399   0.537
 3521SOL    HW211244   2.027   3.269   0.600
 3522SOL     OW11245   2.114   2.952   0.887
 3522SOL    HW111246   2.112   2.868   0.932
 3522SOL    HW211247   2.060   3.009   0.942
 3523SOL     OW11248   2.475   3.654   1.430
 3523SOL    HW111249   2.393   3.636   1.476
 3523SOL    HW211250   2.497   3.743   1.455
 3524SOL     OW11251   2.469   2.854   0.104
 3524SOL    HW111252   2.422   2.937   0.093
 3524SOL    HW211253   2.506   2.860   0.192
 3525SOL     OW11254   3.458   1.984   1.469
 3525SOL    HW111255   3.462   2.065   1.417
 3525SOL    HW211256   3.445   2.015   1.558
 3526SOL     OW11257   1.978   2.510   0.563
 3526SOL    HW111258   1.943   2.423   0.584
 3526SOL    HW211259   1.968   2.560   0.644
 3527SOL     OW11260   3.707   3.621   0.333
 3527SOL    HW111261   3.770   3.591   0.398
 3527SOL    HW211262   3.732   3.711   0.315
 3528SOL     OW11263   1.889   3.459   0.111
 3528SOL    HW111264   1.877   3.370   0.145
 3528SOL    HW211265   1.874   3.515   0.187
 3529SOL     OW11266   3.550   2.780   0.642
 3529SOL    HW111267   3.634   2.739   0.622
 3529SOL    HW211268   3.529   2.832   0.564
 3530SOL     OW11269   3.508   2.967   0.435
 3530SOL    HW111270   3.587   2.982   0.384
 3530SOL    HW211271   3.514   3.029   0.508
 3531SOL     OW11272   1.981   2.604   1.586
 3531SOL    HW111273   2.072   2.629   1.602
 3531SOL    HW211274   1.932   2.686   1.593
 3532SOL     OW11275   2.478   3.246   0.735
 3532SOL    HW111276   2.433   3.162   0.745
 3532SOL    HW211277   2.458   3.272   0.645
 3533SOL     OW11278   3.151   3.099   1.426
 3533SOL    HW111279   3.184   3.033   1.365
 3533SOL    HW211280   3.210   3.093   1.501
 3534SOL     OW11281   2.677   1.865   0.510
 3534SOL    HW111282   2.715   1.950   0.489
 3534SOL    HW211283   2.583   1.882   0.518
 3535SOL     OW11284   2.046   2.833   1.269
 3535SOL    HW111285   2.130   2.789   1.256
 3535SOL    HW211286   1.983   2.776   1.226
 3536SOL     OW11287   3.370   2.869   0.212
 3536SOL    HW111288   3.321   2.792   0.242
 3536SOL    HW211289   3.424   2.893   0.288
 3537SOL     OW11290   3.048   3.667   1.621
 3537SOL    HW111291   3.059   3.726   1.547
 3537SOL    HW211292   3.063   3.579   1.586
 3538SOL     OW11293   2.191   2.111   1.808
 3538SOL    HW111294   2.238   2.193   1.822
 3538SOL    HW211295   2.103   2.126   1.842
 3539SOL     OW11296   3.329   3.282   0.953
 3539SOL    HW111297   3.260   3.297   1.018
 3539SOL    HW211298   3.317   3.191   0.926
 3540SOL     OW11299   3.522   3.600   0.581
 3540SOL    HW111300   3.501   3.572   0.492
 3540SOL    HW211301   3.497   3.526   0.636
 3541SOL     OW11302   3.143   2.210   0.932
 3541SOL    HW111303   3.054   2.178   0.941
 3541SOL    HW211304   3.194   2.158   0.995
 3542SOL     OW11305   3.449   3.532   0.319
 3542SOL    HW111306   3.539   3.563   0.312
 3542SOL    HW211307   3.422   3.515   0.228
 3543SOL     OW11308   3.256   2.336   1.677
 3543SOL    HW111309   3.257   2.380   1.762
 3543SOL    HW211310   3.318   2.264   1.688
 3544SOL     OW11311   2.851   2.272   1.247
 3544SOL    HW111312   2.763   2.285   1.283
 3544SOL    HW211313   2.836   2.238   1.159
 3545SOL     OW11314   1.951   2.682   0.776
 3545SOL    HW111315   2.032   2.677   0.826
 3545SOL    HW211316   1.907   2.760   0.810
 3546SOL     OW11317   1.989   3.706   1.577
 3546SOL    HW111318   1.989   3.686   1.670
 3546SOL    HW211319   1.897   3.704   1.551
 3547SOL     OW11320   2.748   2.219   0.208
 3547SOL    HW111321   2.796   2.268   0.141
 3547SOL    HW211322   2.746   2.129   0.176
 3548SOL     OW11323   3.570   2.437   1.828
 3548SOL    HW111324   3.533   2.512   1.781
 3548SOL    HW211325   3.598   2.377   1.759
 3549SOL     OW11326   3.235   3.000   0.538
 3549SOL    HW111327   3.316   2.991   0.489
 3549SOL    HW211328   3.186   3.067   0.491
 3550SOL     OW11329   2.410   2.041   0.889
 3550SOL    HW111330   2.411   2.065   0.981
 3550SOL    HW211331   2.409   2.125   0.842
 3551SOL     OW11332   2.867   3.307   0.474
 3551SOL    HW111333   2.829   3.379   0.423
 3551SOL    HW211334   2.850   3.330   0.565
 3552SOL     OW11335   2.217   3.670   0.860
 3552SOL    HW111336   2.260   3.585   0.868
 3552SOL    HW211337   2.285   3.734   0.878
 3553SOL     OW11338   3.661   2.919   0.868
 3553SOL    HW111339   3.605   2.903   0.792
 3553SOL    HW211340   3.600   2.925   0.942
 3554SOL     OW11341   3.089   3.401   1.512
 3554SOL    HW111342   3.076   3.328   1.573
 3554SOL    HW211343   3.027   3.384   1.441
 3555SOL     OW11344   2.195   2.810   0.244
 3555SOL    HW111345   2.274   2.831   0.194
 3555SOL    HW211346   2.190   2.714   0.241
 3556SOL     OW11347   3.337   2.607   0.727
 3556SOL    HW111348   3.328   2.561   0.810
 3556SOL    HW211349   3.416   2.660   0.737
 3557SOL     OW11350   2.326   3.127   1.737
 3557SOL    HW111351   2.298   3.132   1.646
 3557SOL    HW211352   2.244   3.125   1.787
 3558SOL     OW11353   2.970   3.643   0.225
 3558SOL    HW111354   2.913   3.602   0.291
 3558SOL    HW211355   2.991   3.572   0.164
 3559SOL     OW11356   2.063   2.146   1.501
 3559SOL    HW111357   1.979   2.191   1.494
 3559SOL    HW211358   2.047   2.076   1.564
 3560SOL     OW11359   3.495   3.235   0.083
 3560SOL    HW111360   3.455   3.322   0.081
 3560SOL    HW211361   3.423   3.175   0.064
 3561SOL     OW11362   2.327   3.601   0.323
 3561SOL    HW111363   2.368   3.659   0.387
 3561SOL    HW211364   2.397   3.575   0.264
 3562SOL     OW11365   3.268   1.973   0.442
 3562SOL    HW111366   3.259   1.952   0.349
 3562SOL    HW211367   3.363   1.980   0.456
 3563SOL     OW11368   2.116   3.653   1.232
 3563SOL    HW111369   2.169   3.589   1.279
 3563SOL    HW211370   2.108   3.617   1.144
 3564SOL     OW11371   2.799   3.562   0.899
 3564SOL    HW111372   2.873   3.508   0.924
 3564SOL    HW211373   2.755   3.511   0.831
 3565SOL     OW11374   2.243   2.552   0.466
 3565SOL    HW111375   2.275   2.465   0.488
 3565SOL    HW211376   2.153   2.554   0.498
 3566SOL     OW11377   3.399   2.087   1.726
 3566SOL    HW111378   3.407   2.109   1.818
 3566SOL    HW211379   3.330   2.021   1.722
 3567SOL     OW11380   2.491   1.977   0.134
 3567SOL    HW111381   2.585   1.963   0.142
 3567SOL    HW211382   2.470   1.954   0.044
 3568SOL     OW11383   2.619   2.115   1.745
 3568SOL    HW111384   2.702   2.068   1.753
 3568SOL    HW211385   2.601   2.146   1.834
 3569SOL     OW11386   2.739   3.386   1.194
 3569SOL    HW111387   2.722   3.349   1.107
 3569SOL    HW211388   2.805   3.328   1.232
 3570SOL     OW11389   3.211   2.450   1.428
 3570SOL    HW111390   3.237   2.418   1.515
 3570SOL    HW211391   3.246   2.539   1.423
 3571SOL     OW11392   2.677   3.270   0.935
 3571SOL    HW111393   2.761   3.253   0.892
 3571SOL    HW211394   2.612   3.263   0.865
 3572SOL     OW11395   2.781   2.352   0.899
 3572SOL    HW111396   2.765   2.339   0.806
 3572SOL    HW211397   2.828   2.274   0.927
 3573SOL     OW11398   2.411   1.925   0.506
 3573SOL    HW111399   2.331   1.924   0.557
 3573SOL    HW211400   2.404   2.004   0.452
 3574SOL     OW11401   3.295   3.061   0.036
 3574SOL    HW111402   3.319   2.987   0.092
 3574SOL    HW211403   3.207   3.085   0.064
 3575SOL     OW11404   2.172   1.916   0.168
 3575SOL    HW111405   2.236   1.985   0.184
 3575SOL    HW211406   2.208   1.838   0.211
 3576SOL     OW11407   2.800   2.111   0.459
 3576SOL    HW111408   2.774   2.150   0.376
 3576SOL    HW211409   2.895   2.121   0.462
 3577SOL     OW11410   2.944   2.524   1.460
 3577SOL    HW111411   2.896   2.443   1.441
 3577SOL    HW211412   3.036   2.502   1.441
 3578SOL     OW11413   3.088   3.429   0.792
 3578SOL    HW111414   3.103   3.498   0.728
 3578SOL    HW211415   3.153   3.445   0.860
 3579SOL     OW11416   2.329   3.017   0.733
 3579SOL    HW111417   2.261   2.993   0.796
 3579SOL    HW211418   2.293   2.992   0.648
 3580SOL     OW11419   3.131   3.656   0.606
 3580SOL    HW111420   3.179   3.719   0.553
 3580SOL    HW211421   3.065   3.709   0.652
 3581SOL     OW11422   2.918   2.374   0.024
 3581SOL    HW111423   2.869   2.453   0.003
 3581SOL    HW211424   2.976   2.399   0.096
 3582SOL     OW11425   1.941   2.417   1.390
 3582SOL    HW111426   2.033   2.415   1.366
 3582SOL    HW211427   1.935   2.488   1.455
 3583SOL     OW11428   2.418   2.077   1.160
 3583SOL    HW111429   2.460   2.001   1.201
 3583SOL    HW211430   2.328   2.076   1.192
 3584SOL     OW11431   2.719   2.307   0.641
 3584SOL    HW111432   2.722   2.381   0.580
 3584SOL    HW211433   2.745   2.232   0.589
 3585SOL     OW11434   2.876   1.914   0.751
 3585SOL    HW111435   2.817   1.905   0.676
 3585SOL    HW211436   2.855   1.838   0.806
 3586SOL     OW11437   3.300   3.026   0.858
 3586SOL    HW111438   3.233   2.958   0.855
 3586SOL    HW211439   3.325   3.038   0.767
 3587SOL     OW11440   3.331   2.466   0.977
 3587SOL    HW111441   3.278   2.386   0.981
 3587SOL    HW211442   3.390   2.460   1.052
 3588SOL     OW11443   3.709   2.678   0.388
 3588SOL    HW111444   3.762   2.625   0.448
 3588SOL    HW211445   3.679   2.616   0.322
 3589SOL     OW11446   2.341   3.306   0.175
 3589SOL    HW111447   2.272   3.262   0.224
 3589SOL    HW211448   2.351   3.254   0.095
 3590SOL     OW11449   3.531   3.127   0.649
 3590SOL    HW111450   3.626   3.131   0.661
 3590SOL    HW211451   3.500   3.215   0.669
 3591SOL     OW11452   3.260   2.441   0.087
 3591SOL    HW111453   3.198   2.418   0.156
 3591SOL    HW211454   3.318   2.366   0.081
 3592SOL     OW11455   2.378   2.127   0.324
 3592SOL    HW111456   2.427   2.074   0.262
 3592SOL    HW211457   2.368   2.212   0.282
 3593SOL     OW11458   3.615   3.100   1.575
 3593SOL    HW111459   3.703   3.061   1.571
 3593SOL    HW211460   3.630   3.190   1.603
 3594SOL     OW11461   2.924   3.219   1.335
 3594SOL    HW111462   2.847   3.187   1.382
 3594SOL    HW211463   2.998   3.175   1.376
 3595SOL     OW11464   3.469   3.487   1.653
 3595SOL    HW111465   3.464   3.521   1.564
 3595SOL    HW211466   3.552   3.440   1.656
 3596SOL     OW11467   2.990   3.063   1.105
 3596SOL    HW111468   2.927   3.091   1.172
 3596SOL    HW211469   2.952   3.095   1.022
 3597SOL     OW11470   3.492   2.961   1.078
 3597SOL    HW111471   3.488   3.023   1.151
 3597SOL    HW211472   3.412   2.978   1.028
 3598SOL     OW11473   2.780   1.959   1.397
 3598SOL    HW111474   2.803   1.940   1.306
 3598SOL    HW211475   2.859   1.999   1.434
 3599SOL     OW11476   2.851   2.973   1.717
 3599SOL    HW111477   2.759   2.986   1.739
 3599SOL    HW211478   2.849   2.919   1.638
 3600SOL     OW11479   2.568   2.946   0.363
 3600SOL    HW111480   2.524   2.934   0.447
 3600SOL    HW211481   2.613   2.863   0.348
 3601SOL     OW11482   2.266   2.674   1.255
 3601SOL    HW111483   2.356   2.683   1.288
 3601SOL    HW211484   2.242   2.584   1.276
 3602SOL     OW11485   3.129   2.239   1.274
 3602SOL    HW111486   3.163   2.316   1.319
 3602SOL    HW211487   3.039   2.263   1.252
 3603SOL     OW11488   1.932   3.435   1.351
 3603SOL    HW111489   1.902   3.508   1.298
 3603SOL    HW211490   2.027   3.439   1.347
 3604SOL     OW11491   2.219   2.967   0.485
 3604SOL    HW111492   2.212   3.043   0.427
 3604SOL    HW211493   2.217   2.892   0.427
 3605SOL     OW11494   2.410   2.378   0.869
 3605SOL    HW111495   2.412   2.406   0.778
 3605SOL    HW211496   2.499   2.392   0.900
 3606SOL     OW11497   3.109   3.208   0.396
 3606SOL    HW111498   3.164   3.282   0.422
 3606SOL    HW211499   3.021   3.233   0.426
 3607SOL     OW11500   3.141   3.318   1.146
 3607SOL    HW111501   3.195   3.320   1.225
 3607SOL    HW211502   3.082   3.245   1.159
 3608SOL     OW11503   3.443   2.487   0.480
 3608SOL    HW111504   3.397   2.541   0.544
 3608SOL    HW211505   3.484   2.549   0.421
 3609SOL     OW11506   2.209   3.388   1.316
 3609SOL    HW111507   2.196   3.346   1.231
 3609SOL    HW211508   2.304   3.400   1.323
 3610SOL     OW11509   2.266   2.604   1.610
 3610SOL    HW111510   2.320   2.655   1.550
 3610SOL    HW211511   2.298   2.514   1.600
 3611SOL     OW11512   3.462   2.641   1.681
 3611SOL    HW111513   3.375   2.681   1.673
 3611SOL    HW211514   3.514   2.682   1.613
 3612SOL     OW11515   2.862   1.985   1.759
 3612SOL    HW111516   2.915   2.057   1.725
 3612SOL    HW211517   2.909   1.906   1.732
 3613SOL     OW11518   2.359   1.902   1.746
 3613SOL    HW111519   2.316   1.848   1.679
 3613SOL    HW211520   2.300   1.976   1.758
 3614SOL     OW11521   3.225   2.721   1.031
 3614SOL    HW111522   3.145   2.711   0.980
 3614SOL    HW211523   3.266   2.635   1.031
 3615SOL     OW11524   3.060   2.390   0.272
 3615SOL    HW111525   3.065   2.308   0.322
 3615SOL    HW211526   3.072   2.459   0.338
 3616SOL     OW11527   2.161   2.061   1.247
 3616SOL    HW111528   2.124   2.094   1.329
 3616SOL    HW211529   2.142   1.968   1.247
 3617SOL     OW11530   1.907   3.173   1.277
 3617SOL    HW111531   1.941   3.119   1.348
 3617SOL    HW211532   1.915   3.263   1.308
 3618SOL     OW11533   3.596   2.821   1.852
 3618SOL    HW111534   3.549   2.762   1.793
 3618SOL    HW211535   3.537   2.834   1.925
 3619SOL     OW11536   2.164   1.928   0.623
 3619SOL    HW111537   2.145   2.019   0.648
 3619SOL    HW211538   2.171   1.881   0.706
 3620SOL     OW11539   3.481   2.236   0.371
 3620SOL    HW111540   3.506   2.171   0.436
 3620SOL    HW211541   3.456   2.313   0.421
 3621SOL     OW11542   2.843   3.428   1.715
 3621SOL    HW111543   2.828   3.473   1.632
 3621SOL    HW211544   2.887   3.346   1.691
 3622SOL     OW11545   3.717   3.369   1.605
 3622SOL    HW111546   3.735   3.395   1.515
 3622SOL    HW211547   3.798   3.388   1.652
 3623SOL     OW11548   2.210   2.780   1.813
 3623SOL    HW111549   2.290   2.808   1.856
 3623SOL    HW211550   2.238   2.715   1.749
 3624SOL     OW11551   3.381   2.162   0.127
 3624SOL    HW111552   3.333   2.080   0.142
 3624SOL    HW211553   3.421   2.182   0.211
 3625SOL     OW11554   3.158   2.688   0.022
 3625SOL    HW111555   3.195   2.601   0.038
 3625SOL    HW211556   3.213   2.725   8.034
 3626SOL     OW11557   2.926   3.199   0.849
 3626SOL    HW111558   2.931   3.129   0.784
 3626SOL    HW211559   2.989   3.264   0.819
 3627SOL     OW11560   2.169   2.673   0.949
 3627SOL    HW111561   2.259   2.706   0.957
 3627SOL    HW211562   2.171   2.587   0.989
 3628SOL     OW11563   2.188   2.385   1.019
 3628SOL    HW111564   2.151   2.298   1.003
 3628SOL    HW211565   2.265   2.389   0.962
 3629SOL     OW11566   2.999   2.236   1.678
 3629SOL    HW111567   2.954   2.290   1.744
 3629SOL    HW211568   3.086   2.275   1.672
 3630SOL     OW11569   3.023   2.064   1.469
 3630SOL    HW111570   3.013   2.127   1.541
 3630SOL    HW211571   3.061   2.116   1.398
 3631SOL     OW11572   1.872   3.187   0.191
 3631SOL    HW111573   1.785   3.201   0.153
 3631SOL    HW211574   1.871   3.097   0.222
 3632SOL     OW11575   1.952   3.650   0.937
 3632SOL    HW111576   1.922   3.570   0.894
 3632SOL    HW211577   2.042   3.662   0.906
 3633SOL     OW11578   2.359   3.435   0.905
 3633SOL    HW111579   2.428   3.497   0.930
 3633SOL    HW211580   2.404   3.370   0.851
 3634SOL     OW11581   1.897   2.405   1.117
 3634SOL    HW111582   1.979   2.394   1.068
 3634SOL    HW211583   1.924   2.411   1.208
 3635SOL     OW11584   2.053   2.381   1.726
 3635SOL    HW111585   2.104   2.339   1.657
 3635SOL    HW211586   2.009   2.453   1.682
 3636SOL     OW11587   3.237   2.802   1.659
 3636SOL    HW111588   3.260   2.895   1.657
 3636SOL    HW211589   3.236   2.776   1.567
 3637SOL     OW11590   3.504   2.464   1.187
 3637SOL    HW111591   3.493   2.405   1.262
 3637SOL    HW211592   3.591   2.443   1.153
 3638SOL     OW11593   2.106   3.414   1.729
 3638SOL    HW111594   2.083   3.478   1.796
 3638SOL    HW211595   2.107   3.330   1.774
 3639SOL     OW11596   2.544   2.295   1.256
 3639SOL    HW111597   2.497   2.216   1.229
 3639SOL    HW211598   2.551   2.347   1.177
 3640SOL     OW11599   2.790   3.542   1.468
 3640SOL    HW111600   2.766   3.506   1.383
 3640SOL    HW211601   2.786   3.637   1.456
 3641SOL     OW11602   2.333   2.360   0.190
 3641SOL    HW111603   2.393   2.434   0.201
 3641SOL    HW211604   2.246   2.400   0.191
 3642SOL     OW11605   2.007   3.003   1.473
 3642SOL    HW111606   2.010   2.950   1.552
 3642SOL    HW211607   2.023   2.941   1.402
 3643SOL     OW11608   3.190   2.910   1.224
 3643SOL    HW111609   3.213   2.847   1.156
 3643SOL    HW211610   3.120   2.962   1.185
 3644SOL     OW11611   3.166   2.692   0.305
 3644SOL    HW111612   3.087   2.729   0.345
 3644SOL    HW211613   3.151   2.700   0.211
 3645SOL     OW11614   3.631   3.607   1.149
 3645SOL    HW111615   3.693   3.633   1.080
 3645SOL    HW211616   3.609   3.517   1.128
 3646SOL     OW11617   3.103   3.595   1.114
 3646SOL    HW111618   3.185   3.614   1.069
 3646SOL    HW211619   3.108   3.501   1.133
 3647SOL     OW11620   1.945   3.129   1.012
 3647SOL    HW111621   1.932   3.141   1.106
 3647SOL    HW211622   1.872   3.074   0.985
 3648SOL     OW11623   2.539   3.527   1.727
 3648SOL    HW111624   2.487   3.607   1.723
 3648SOL    HW211625   2.604   3.537   1.658
 3649SOL     OW11626   2.767   1.955   0.135
 3649SOL    HW111627   2.785   1.940   0.043
 3649SOL    HW211628   2.830   1.900   0.182
 3650SOL     OW11629   3.580   2.006   0.510
 3650SOL    HW111630   3.653   1.990   0.450
 3650SOL    HW211631   3.565   1.921   0.552
 3651SOL     OW11632   3.251   3.430   0.484
 3651SOL    HW111633   3.315   3.463   0.420
 3651SOL    HW211634   3.204   3.508   0.513
 3652SOL     OW11635   1.997   3.659   1.843
 3652SOL    HW111636   1.947   3.594   1.892
 3652SOL    HW211637   2.046   3.706   1.911
 3653SOL     OW11638   3.131   2.788   0.670
 3653SOL    HW111639   3.203   2.726   0.678
 3653SOL    HW211640   3.167   2.860   0.619
 3654SOL     OW11641   2.689   3.139   1.436
 3654SOL    HW111642   2.648   3.181   1.512
 3654SOL    HW211643   2.617   3.126   1.374
 3655SOL     OW11644   2.539   3.483   0.155
 3655SOL    HW111645   2.544   3.488   0.059
 3655SOL    HW211646   2.477   3.412   0.172
 3656SOL     OW11647   3.490   3.589   1.391
 3656SOL    HW111648   3.539   3.596   1.310
 3656SOL    HW211649   3.477   3.679   1.419
 3657SOL     OW11650   3.702   2.035   0.967
 3657SOL    HW111651   3.731   1.948   0.939
 3657SOL    HW211652   3.616   2.045   0.927
 3658SOL     OW11653   2.125   2.182   0.717
 3658SOL    HW111654   2.038   2.214   0.693
 3658SOL    HW211655   2.120   2.170   0.812
 3659SOL     OW11656   3.019   3.445   0.052
 3659SOL    HW111657   3.036   3.352   0.070
 3659SOL    HW211658   3.027   3.452   8.037
 3660SOL     OW11659   3.372   3.486   0.060
 3660SOL    HW111660   3.277   3.487   0.050
 3660SOL    HW211661   3.406   3.487   8.050
 3661SOL     OW11662   2.230   3.165   1.493
 3661SOL    HW111663   2.219   3.241   1.436
 3661SOL    HW211664   2.153   3.111   1.475
 3662SOL     OW11665   3.473   3.145   1.281
 3662SOL    HW111666   3.533   3.136   1.355
 3662SOL    HW211667   3.413   3.214   1.307
 3663SOL     OW11668   2.909   2.965   0.701
 3663SOL    HW111669   2.845   2.917   0.753
 3663SOL    HW211670   2.977   2.901   0.681
 3664SOL     OW11671   2.887   2.098   0.966
 3664SOL    HW111672   2.881   2.048   0.884
 3664SOL    HW211673   2.880   2.031   1.034
 3665SOL     OW11674   2.463   3.350   0.480
 3665SOL    HW111675   2.507   3.304   0.409
 3665SOL    HW211676   2.394   3.401   0.437
 3666SOL     OW11677   3.583   2.254   1.380
 3666SOL    HW111678   3.655   2.317   1.379
 3666SOL    HW211679   3.613   2.182   1.324
 3667SOL     OW11680   2.125   3.181   0.301
 3667SOL    HW111681   2.042   3.196   0.257
 3667SOL    HW211682   2.119   3.230   0.383
 3668SOL     OW11683   1.973   2.881   1.718
 3668SOL    HW111684   1.897   2.860   1.772
 3668SOL    HW211685   2.047   2.846   1.767
 3669SOL     OW11686   2.533   2.057   1.494
 3669SOL    HW111687   2.618   2.039   1.455
 3669SOL    HW211688   2.553   2.079   1.585
 3670SOL     OW11689   1.921   2.220   0.039
 3670SOL    HW111690   1.845   2.167   0.015
 3670SOL    HW211691   1.961   2.244   8.035
 3671SOL     OW11692   3.293   2.720   1.402
 3671SOL    HW111693   3.244   2.780   1.346
 3671SOL    HW211694   3.383   2.724   1.367
 3672SOL     OW11695   1.934   2.017   0.307
 3672SOL    HW111696   1.917   2.100   0.262
 3672SOL    HW211697   2.017   1.987   0.271
 3673SOL     OW11698   3.048   3.183   0.121
 3673SOL    HW111699   2.953   3.170   0.120
 3673SOL    HW211700   3.070   3.184   0.214
 3674SOL     OW11701   3.347   3.637   0.977
 3674SOL    HW111702   3.371   3.697   0.906
 3674SOL    HW211703   3.428   3.621   1.024
 3675SOL     OW11704   3.333   3.062   1.632
 3675SOL    HW111705   3.321   3.077   1.726
 3675SOL    HW211706   3.427   3.077   1.618
 3676SOL     OW11707   2.243   3.601   1.564
 3676SOL    HW111708   2.157   3.642   1.550
 3676SOL    HW211709   2.223   3.517   1.605
 3677SOL     OW11710   3.532   2.744   1.256
 3677SOL    HW111711   3.525   2.658   1.213
 3677SOL    HW211712   3.523   2.807   1.184
 3678SOL     OW11713   3.080   2.180   0.459
 3678SOL    HW111714   3.145   2.110   0.450
 3678SOL    HW211715   3.108   2.229   0.536
 3679SOL     OW11716   3.626   2.223   1.650
 3679SOL    HW111717   3.608   2.238   1.557
 3679SOL    HW211718   3.554   2.166   1.679
 3680SOL     OW11719   3.606   2.795   1.513
 3680SOL    HW111720   3.606   2.890   1.526
 3680SOL    HW211721   3.591   2.784   1.419
 3681SOL     OW11722   2.757   3.236   0.035
 3681SOL    HW111723   2.693   3.230   0.106
 3681SOL    HW211724   2.739   3.321   8.074
 3682SOL     OW11725   2.521   3.655   0.946
 3682SOL    HW111726   2.502   3.745   0.922
 3682SOL    HW211727   2.616   3.648   0.939
 3683SOL     OW11728   2.961   2.864   0.091
 3683SOL    HW111729   2.943   2.917   0.014
 3683SOL    HW211730   3.029   2.803   0.063
 3684SOL     OW11731   3.717   3.416   0.844
 3684SOL    HW111732   3.639   3.406   0.790
 3684SOL    HW211733   3.707   3.351   0.914
 3685SOL     OW11734   2.086   3.166   1.856
 3685SOL    HW111735   2.018   3.106   1.828
 3685SOL    HW211736   2.070   3.178   1.950
 3686SOL     OW11737   1.945   3.094   0.665
 3686SOL    HW111738   1.950   3.046   0.747
 3686SOL    HW211739   2.019   3.063   0.614
 3687SOL     OW11740   2.541   3.264   1.627
 3687SOL    HW111741   2.461   3.221   1.656
 3687SOL    HW211742   2.537   3.352   1.663
 3688SOL     OW11743   3.675   2.047   1.238
 3688SOL    HW111744   3.686   1.953   1.253
 3688SOL    HW211745   3.684   2.057   1.143
 3689SOL     OW11746   2.305   2.296   0.539
 3689SOL    HW111747   2.324   2.229   0.473
 3689SOL    HW211748   2.244   2.254   0.599
 3690SOL     OW11749   3.563   3.352   1.097
 3690SOL    HW111750   3.482   3.328   1.053
 3690SOL    HW211751   3.576   3.283   1.163
 3691SOL     OW11752   2.195   2.413   1.296
 3691SOL    HW111753   2.250   2.354   1.348
 3691SOL    HW211754   2.208   2.384   1.206
 3692SOL     OW11755   2.690   3.440   0.676
 3692SOL    HW111756   2.677   3.491   0.596
 3692SOL    HW211757   2.612   3.384   0.681
 3693SOL     OW11758   3.295   2.086   1.119
 3693SOL    HW111759   3.322   2.007   1.166
 3693SOL    HW211760   3.242   2.135   1.182
 3694SOL     OW11761   2.870   1.880   1.143
 3694SOL    HW111762   2.817   1.811   1.104
 3694SOL    HW211763   2.959   1.843   1.146
 3695SOL     OW11764   2.634   3.203   0.302
 3695SOL    HW111765   2.602   3.113   0.313
 3695SOL    HW211766   2.715   3.205   0.353
 3696SOL     OW11767   2.481   3.421   1.283
 3696SOL    HW111768   2.485   3.503   1.334
 3696SOL    HW211769   2.569   3.411   1.247
 3697SOL     OW11770   3.218   1.916   0.183
 3697SOL    HW111771   3.240   1.868   0.104
 3697SOL    HW211772   3.132   1.882   0.209
 3698SOL     OW11773   3.164   2.316   0.682
 3698SOL    HW111774   3.117   2.399   0.693
 3698SOL    HW211775   3.161   2.274   0.768
 3699SOL     OW11776   3.449   2.065   0.877
 3699SOL    HW111777   3.387   2.084   0.948
 3699SOL    HW211778   3.448   2.144   0.823
 3700SOL     OW11779   1.904   2.929   0.300
 3700SOL    HW111780   1.999   2.930   0.302
 3700SOL    HW211781   1.879   2.847   0.343
 3701SOL     OW11782   2.744   3.514   0.348
 3701SOL    HW111783   2.677   3.497   0.282
 3701SOL    HW211784   2.712   3.590   0.396
 3702SOL     OW11785   2.094   2.480   1.984
 3702SOL    HW111786   2.005   2.486   2.019
 3702SOL    HW211787   2.082   2.457   1.892
 3703SOL     OW11788   1.865   2.243   2.497
 3703SOL    HW111789   1.785   2.269   2.541
 3703SOL    HW211790   1.842   2.163   2.450
 3704SOL     OW11791   3.420   3.372   2.569
 3704SOL    HW111792   3.375   3.357   2.652
 3704SOL    HW211793   3.350   3.378   2.505
 3705SOL     OW11794   3.015   2.541   2.582
 3705SOL    HW111795   3.046   2.630   2.564
 3705SOL    HW211796   2.942   2.552   2.642
 3706SOL     OW11797   3.628   2.468   2.091
 3706SOL    HW111798   3.608   2.460   1.998
 3706SOL    HW211799   3.593   2.389   2.131
 3707SOL     OW11800   2.633   3.018   2.901
 3707SOL    HW111801   2.550   3.034   2.946
 3707SOL    HW211802   2.654   3.101   2.858
 3708SOL     OW11803   2.175   3.329   2.938
 3708SOL    HW111804   2.121   3.266   2.890
 3708SOL    HW211805   2.242   3.356   2.876
 3709SOL     OW11806   3.475   2.311   2.602
 3709SOL    HW111807   3.398   2.334   2.550
 3709SOL    HW211808   3.489   2.386   2.660
 3710SOL     OW11809   2.081   3.576   2.335
 3710SOL    HW111810   2.104   3.652   2.388
 3710SOL    HW211811   2.154   3.569   2.273
 3711SOL     OW11812   2.089   3.303   2.396
 3711SOL    HW111813   2.075   3.397   2.401
 3711SOL    HW211814   2.031   3.265   2.462
 3712SOL     OW11815   2.111   2.952   2.750
 3712SOL    HW111816   2.110   2.869   2.798
 3712SOL    HW211817   2.061   3.012   2.805
 3713SOL     OW11818   2.491   3.661   3.309
 3713SOL    HW111819   2.403   3.645   3.343
 3713SOL    HW211820   2.506   3.754   3.324
 3714SOL     OW11821   2.430   2.862   1.988
 3714SOL    HW111822   2.476   2.919   1.927
 3714SOL    HW211823   2.491   2.850   2.060
 3715SOL     OW11824   1.977   2.512   2.423
 3715SOL    HW111825   1.942   2.426   2.444
 3715SOL    HW211826   1.968   2.562   2.504
 3716SOL     OW11827   3.704   3.622   2.198
 3716SOL    HW111828   3.767   3.593   2.264
 3716SOL    HW211829   3.729   3.712   2.179
 3717SOL     OW11830   1.893   3.458   1.986
 3717SOL    HW111831   1.876   3.366   2.006
 3717SOL    HW211832   1.869   3.504   2.066
 3718SOL     OW11833   3.551   2.781   2.501
 3718SOL    HW111834   3.636   2.740   2.482
 3718SOL    HW211835   3.531   2.830   2.421
 3719SOL     OW11836   3.507   2.970   2.291
 3719SOL    HW111837   3.593   2.976   2.248
 3719SOL    HW211838   3.513   3.030   2.365
 3720SOL     OW11839   2.475   3.244   2.589
 3720SOL    HW111840   2.429   3.160   2.600
 3720SOL    HW211841   2.454   3.271   2.500
 3721SOL     OW11842   2.675   1.858   2.371
 3721SOL    HW111843   2.719   1.940   2.350
 3721SOL    HW211844   2.582   1.881   2.379
 3722SOL     OW11845   2.063   2.869   3.082
 3722SOL    HW111846   2.139   2.810   3.087
 3722SOL    HW211847   1.990   2.816   3.112
 3723SOL     OW11848   3.394   2.855   2.060
 3723SOL    HW111849   3.328   2.793   2.091
 3723SOL    HW211850   3.434   2.890   2.139
 3724SOL     OW11851   3.052   3.679   3.484
 3724SOL    HW111852   3.057   3.733   3.405
 3724SOL    HW211853   3.015   3.596   3.455
 3725SOL     OW11854   3.329   3.278   2.826
 3725SOL    HW111855   3.246   3.297   2.871
 3725SOL    HW211856   3.317   3.190   2.791
 3726SOL     OW11857   3.521   3.599   2.440
 3726SOL    HW111858   3.501   3.570   2.351
 3726SOL    HW211859   3.496   3.525   2.496
 3727SOL     OW11860   3.143   2.208   2.789
 3727SOL    HW111861   3.053   2.178   2.801
 3727SOL    HW211862   3.193   2.158   2.853
 3728SOL     OW11863   3.443   3.531   2.171
 3728SOL    HW111864   3.533   3.564   2.164
 3728SOL    HW211865   3.417   3.514   2.080
 3729SOL     OW11866   2.862   2.278   3.107
 3729SOL    HW111867   2.778   2.275   3.152
 3729SOL    HW211868   2.842   2.247   3.018
 3730SOL     OW11869   1.950   2.681   2.639
 3730SOL    HW111870   2.032   2.676   2.688
 3730SOL    HW211871   1.907   2.761   2.672
 3731SOL     OW11872   1.981   3.694   3.439
 3731SOL    HW111873   1.979   3.681   3.534
 3731SOL    HW211874   1.890   3.706   3.414
 3732SOL     OW11875   2.744   2.189   2.008
 3732SOL    HW111876   2.799   2.252   1.961
 3732SOL    HW211877   2.792   2.106   2.001
 3733SOL     OW11878   3.236   3.000   2.401
 3733SOL    HW111879   3.318   2.992   2.352
 3733SOL    HW211880   3.186   3.067   2.353
 3734SOL     OW11881   2.406   2.044   2.766
 3734SOL    HW111882   2.405   2.079   2.856
 3734SOL    HW211883   2.418   2.121   2.711
 3735SOL     OW11884   2.867   3.305   2.335
 3735SOL    HW111885   2.830   3.379   2.287
 3735SOL    HW211886   2.853   3.327   2.427
 3736SOL     OW11887   2.217   3.669   2.722
 3736SOL    HW111888   2.259   3.584   2.731
 3736SOL    HW211889   2.286   3.732   2.741
 3737SOL     OW11890   3.664   2.917   2.726
 3737SOL    HW111891   3.607   2.899   2.651
 3737SOL    HW211892   3.604   2.931   2.799
 3738SOL     OW11893   2.177   2.824   2.112
 3738SOL    HW111894   2.258   2.846   2.066
 3738SOL    HW211895   2.152   2.739   2.076
 3739SOL     OW11896   3.338   2.606   2.589
 3739SOL    HW111897   3.328   2.561   2.673
 3739SOL    HW211898   3.416   2.660   2.600
 3740SOL     OW11899   2.983   3.639   2.093
 3740SOL    HW111900   2.911   3.597   2.139
 3740SOL    HW211901   3.006   3.579   2.023
 3741SOL     OW11902   3.491   3.241   1.949
 3741SOL    HW111903   3.450   3.327   1.934
 3741SOL    HW211904   3.421   3.178   1.930
 3742SOL     OW11905   2.329   3.599   2.183
 3742SOL    HW111906   2.369   3.657   2.248
 3742SOL    HW211907   2.401   3.571   2.127
 3743SOL     OW11908   3.263   1.969   2.294
 3743SOL    HW111909   3.253   1.944   2.202
 3743SOL    HW211910   3.358   1.977   2.306
 3744SOL     OW11911   2.113   3.652   3.090
 3744SOL    HW111912   2.181   3.598   3.132
 3744SOL    HW211913   2.100   3.610   3.004
 3745SOL     OW11914   2.800   3.559   2.763
 3745SOL    HW111915   2.870   3.499   2.788
 3745SOL    HW211916   2.752   3.511   2.695
 3746SOL     OW11917   2.250   2.552   2.335
 3746SOL    HW111918   2.276   2.462   2.354
 3746SOL    HW211919   2.157   2.555   2.359
 3747SOL     OW11920   2.479   1.975   1.980
 3747SOL    HW111921   2.568   1.940   1.979
 3747SOL    HW211922   2.444   1.952   1.894
 3748SOL     OW11923   2.669   3.260   2.779
 3748SOL    HW111924   2.757   3.248   2.744
 3748SOL    HW211925   2.611   3.250   2.703
 3749SOL     OW11926   2.787   2.355   2.759
 3749SOL    HW111927   2.766   2.341   2.667
 3749SOL    HW211928   2.828   2.273   2.788
 3750SOL     OW11929   2.411   1.927   2.366
 3750SOL    HW111930   2.329   1.926   2.415
 3750SOL    HW211931   2.405   2.005   2.310
 3751SOL     OW11932   3.290   3.060   1.903
 3751SOL    HW111933   3.320   2.985   1.953
 3751SOL    HW211934   3.204   3.081   1.940
 3752SOL     OW11935   2.155   1.910   2.047
 3752SOL    HW111936   2.215   1.971   2.004
 3752SOL    HW211937   2.213   1.845   2.088
 3753SOL     OW11938   2.807   2.094   2.326
 3753SOL    HW111939   2.768   2.164   2.273
 3753SOL    HW211940   2.900   2.112   2.325
 3754SOL     OW11941   2.967   2.521   3.337
 3754SOL    HW111942   2.885   2.471   3.336
 3754SOL    HW211943   3.026   2.471   3.281
 3755SOL     OW11944   3.098   3.431   2.650
 3755SOL    HW111945   3.107   3.500   2.585
 3755SOL    HW211946   3.156   3.458   2.722
 3756SOL     OW11947   2.327   3.015   2.598
 3756SOL    HW111948   2.256   2.993   2.658
 3756SOL    HW211949   2.295   2.989   2.511
 3757SOL     OW11950   3.132   3.657   2.470
 3757SOL    HW111951   3.177   3.717   2.412
 3757SOL    HW211952   3.065   3.710   2.513
 3758SOL     OW11953   2.906   2.392   1.884
 3758SOL    HW111954   2.844   2.465   1.879
 3758SOL    HW211955   2.964   2.414   1.958
 3759SOL     OW11956   2.729   2.300   2.509
 3759SOL    HW111957   2.709   2.366   2.442
 3759SOL    HW211958   2.754   2.222   2.459
 3760SOL     OW11959   2.875   1.914   2.613
 3760SOL    HW111960   2.819   1.903   2.537
 3760SOL    HW211961   2.854   1.839   2.669
 3761SOL     OW11962   3.289   3.032   2.716
 3761SOL    HW111963   3.235   2.953   2.721
 3761SOL    HW211964   3.314   3.038   2.624
 3762SOL     OW11965   3.329   2.466   2.841
 3762SOL    HW111966   3.278   2.385   2.845
 3762SOL    HW211967   3.389   2.460   2.915
 3763SOL     OW11968   3.708   2.679   2.244
 3763SOL    HW111969   3.764   2.628   2.302
 3763SOL    HW211970   3.680   2.617   2.177
 3764SOL     OW11971   2.355   3.276   2.022
 3764SOL    HW111972   2.279   3.249   2.073
 3764SOL    HW211973   2.338   3.243   1.934
 3765SOL     OW11974   3.531   3.126   2.507
 3765SOL    HW111975   3.625   3.130   2.522
 3765SOL    HW211976   3.499   3.214   2.530
 3766SOL     OW11977   3.256   2.433   1.934
 3766SOL    HW111978   3.197   2.413   2.006
 3766SOL    HW211979   3.342   2.401   1.963
 3767SOL     OW11980   2.386   2.129   2.184
 3767SOL    HW111981   2.423   2.075   2.115
 3767SOL    HW211982   2.368   2.213   2.142
 3768SOL     OW11983   3.621   3.094   3.466
 3768SOL    HW111984   3.699   3.057   3.424
 3768SOL    HW211985   3.639   3.187   3.474
 3769SOL     OW11986   3.470   3.485   3.512
 3769SOL    HW111987   3.463   3.520   3.423
 3769SOL    HW211988   3.552   3.436   3.513
 3770SOL     OW11989   3.501   2.987   2.932
 3770SOL    HW111990   3.489   3.001   3.026
 3770SOL    HW211991   3.413   2.966   2.900
 3771SOL     OW11992   2.268   2.674   3.111
 3771SOL    HW111993   2.346   2.708   3.155
 3771SOL    HW211994   2.242   2.598   3.163
 3772SOL     OW11995   3.131   2.250   3.103
 3772SOL    HW111996   3.159   2.315   3.168
 3772SOL    HW211997   3.036   2.258   3.100
 3773SOL     OW11998   1.913   3.420   3.204
 3773SOL    HW111999   1.883   3.498   3.157
 3773SOL    HW212000   2.009   3.424   3.199
 3774SOL     OW12001   2.218   2.967   2.351
 3774SOL    HW112002   2.213   3.042   2.291
 3774SOL    HW212003   2.209   2.890   2.294
 3775SOL     OW12004   2.408   2.384   2.737
 3775SOL    HW112005   2.414   2.412   2.646
 3775SOL    HW212006   2.496   2.398   2.773
 3776SOL     OW12007   3.110   3.210   2.253
 3776SOL    HW112008   3.165   3.282   2.282
 3776SOL    HW212009   3.023   3.232   2.286
 3777SOL     OW12010   3.098   3.332   2.984
 3777SOL    HW112011   3.129   3.325   3.074
 3777SOL    HW212012   3.027   3.269   2.977
 3778SOL     OW12013   3.442   2.486   2.338
 3778SOL    HW112014   3.399   2.541   2.405
 3778SOL    HW212015   3.490   2.549   2.284
 3779SOL     OW12016   2.294   2.608   3.401
 3779SOL    HW112017   2.342   2.686   3.429
 3779SOL    HW212018   2.304   2.546   3.473
 3780SOL     OW12019   3.226   2.729   2.876
 3780SOL    HW112020   3.140   2.708   2.839
 3780SOL    HW212021   3.268   2.644   2.889
 3781SOL     OW12022   3.063   2.390   2.131
 3781SOL    HW112023   3.069   2.308   2.180
 3781SOL    HW212024   3.058   2.457   2.199
 3782SOL     OW12025   3.609   2.818   3.714
 3782SOL    HW112026   3.561   2.839   3.633
 3782SOL    HW212027   3.553   2.850   3.784
 3783SOL     OW12028   2.165   1.928   2.484
 3783SOL    HW112029   2.144   2.018   2.509
 3783SOL    HW212030   2.171   1.881   2.567
 3784SOL     OW12031   3.476   2.235   2.230
 3784SOL    HW112032   3.504   2.172   2.296
 3784SOL    HW212033   3.454   2.314   2.280
 3785SOL     OW12034   3.718   3.370   3.468
 3785SOL    HW112035   3.733   3.395   3.376
 3785SOL    HW212036   3.800   3.389   3.512
 3786SOL     OW12037   3.391   2.136   1.989
 3786SOL    HW112038   3.327   2.070   2.016
 3786SOL    HW212039   3.424   2.171   2.072
 3787SOL     OW12040   3.154   2.687   1.891
 3787SOL    HW112041   3.198   2.602   1.895
 3787SOL    HW212042   3.186   2.727   1.810
 3788SOL     OW12043   2.922   3.212   2.700
 3788SOL    HW112044   2.933   3.132   2.648
 3788SOL    HW212045   2.994   3.269   2.671
 3789SOL     OW12046   2.171   2.671   2.807
 3789SOL    HW112047   2.259   2.706   2.821
 3789SOL    HW212048   2.172   2.585   2.850
 3790SOL     OW12049   2.172   2.382   2.865
 3790SOL    HW112050   2.151   2.289   2.856
 3790SOL    HW212051   2.255   2.393   2.819
 3791SOL     OW12052   1.867   3.184   2.057
 3791SOL    HW112053   1.780   3.197   2.019
 3791SOL    HW212054   1.865   3.094   2.090
 3792SOL     OW12055   1.952   3.651   2.798
 3792SOL    HW112056   1.922   3.571   2.756
 3792SOL    HW212057   2.042   3.661   2.769
 3793SOL     OW12058   2.363   3.435   2.765
 3793SOL    HW112059   2.433   3.496   2.790
 3793SOL    HW212060   2.408   3.368   2.713
 3794SOL     OW12061   1.899   2.386   2.986
 3794SOL    HW112062   1.971   2.387   2.923
 3794SOL    HW212063   1.941   2.405   3.070
 3795SOL     OW12064   2.706   2.333   2.231
 3795SOL    HW112065   2.705   2.290   2.145
 3795SOL    HW212066   2.637   2.400   2.226
 3796SOL     OW12067   3.499   2.443   3.050
 3796SOL    HW112068   3.506   2.394   3.132
 3796SOL    HW212069   3.587   2.439   3.013
 3797SOL     OW12070   2.821   3.579   3.321
 3797SOL    HW112071   2.753   3.543   3.264
 3797SOL    HW212072   2.801   3.672   3.327
 3798SOL     OW12073   2.331   2.365   2.058
 3798SOL    HW112074   2.380   2.446   2.070
 3798SOL    HW212075   2.241   2.393   2.044
 3799SOL     OW12076   3.176   2.709   2.165
 3799SOL    HW112077   3.093   2.726   2.210
 3799SOL    HW212078   3.153   2.704   2.072
 3800SOL     OW12079   3.627   3.612   3.007
 3800SOL    HW112080   3.691   3.634   2.939
 3800SOL    HW212081   3.606   3.520   2.991
 3801SOL     OW12082   3.104   3.608   2.976
 3801SOL    HW112083   3.188   3.624   2.931
 3801SOL    HW212084   3.098   3.513   2.981
 3802SOL     OW12085   1.944   3.129   2.881
 3802SOL    HW112086   1.946   3.116   2.976
 3802SOL    HW212087   1.873   3.073   2.850
 3803SOL     OW12088   2.552   3.555   3.620
 3803SOL    HW112089   2.495   3.627   3.592
 3803SOL    HW212090   2.607   3.538   3.543
 3804SOL     OW12091   3.581   2.007   2.372
 3804SOL    HW112092   3.654   1.993   2.312
 3804SOL    HW212093   3.565   1.921   2.412
 3805SOL     OW12094   3.252   3.430   2.345
 3805SOL    HW112095   3.313   3.462   2.278
 3805SOL    HW212096   3.204   3.507   2.374
 3806SOL     OW12097   1.988   3.662   3.705
 3806SOL    HW112098   1.945   3.591   3.752
 3806SOL    HW212099   2.044   3.704   3.770
 3807SOL     OW12100   3.131   2.785   2.530
 3807SOL    HW112101   3.205   2.725   2.540
 3807SOL    HW212102   3.167   2.859   2.481
 3808SOL     OW12103   2.533   3.481   2.017
 3808SOL    HW112104   2.543   3.493   1.922
 3808SOL    HW212105   2.479   3.402   2.026
 3809SOL     OW12106   3.511   3.593   3.261
 3809SOL    HW112107   3.542   3.598   3.171
 3809SOL    HW212108   3.485   3.683   3.283
 3810SOL     OW12109   3.702   2.036   2.826
 3810SOL    HW112110   3.731   1.949   2.798
 3810SOL    HW212111   3.616   2.047   2.787
 3811SOL     OW12112   2.117   2.179   2.583
 3811SOL    HW112113   2.038   2.216   2.545
 3811SOL    HW212114   2.093   2.157   2.673
 3812SOL     OW12115   3.068   3.469   1.893
 3812SOL    HW112116   3.059   3.377   1.920
 3812SOL    HW212117   3.004   3.480   1.823
 3813SOL     OW12118   3.355   3.486   1.904
 3813SOL    HW112119   3.260   3.482   1.891
 3813SOL    HW212120   3.391   3.493   1.816
 3814SOL     OW12121   2.913   2.970   2.564
 3814SOL    HW112122   2.840   2.925   2.606
 3814SOL    HW212123   2.976   2.901   2.544
 3815SOL     OW12124   2.887   2.100   2.824
 3815SOL    HW112125   2.881   2.055   2.740
 3815SOL    HW212126   2.895   2.030   2.889
 3816SOL     OW12127   2.462   3.354   2.340
 3816SOL    HW112128   2.506   3.307   2.269
 3816SOL    HW212129   2.393   3.404   2.296
 3817SOL     OW12130   3.616   2.254   3.239
 3817SOL    HW112131   3.688   2.317   3.230
 3817SOL    HW212132   3.640   2.181   3.182
 3818SOL     OW12133   2.121   3.208   2.149
 3818SOL    HW112134   2.028   3.206   2.127
 3818SOL    HW212135   2.123   3.245   2.238
 3819SOL     OW12136   1.940   2.197   1.898
 3819SOL    HW112137   1.852   2.176   1.865
 3819SOL    HW212138   1.968   2.272   1.846
 3820SOL     OW12139   1.932   2.019   2.173
 3820SOL    HW112140   1.917   2.098   2.122
 3820SOL    HW212141   2.017   1.986   2.142
 3821SOL     OW12142   3.042   3.203   1.979
 3821SOL    HW112143   2.951   3.172   1.981
 3821SOL    HW212144   3.070   3.202   2.071
 3822SOL     OW12145   3.347   3.636   2.839
 3822SOL    HW112146   3.371   3.696   2.768
 3822SOL    HW212147   3.428   3.621   2.886
 3823SOL     OW12148   2.243   3.628   3.430
 3823SOL    HW112149   2.150   3.649   3.425
 3823SOL    HW212150   2.245   3.535   3.454
 3824SOL     OW12151   3.080   2.181   2.318
 3824SOL    HW112152   3.143   2.109   2.310
 3824SOL    HW212153   3.108   2.228   2.396
 3825SOL     OW12154   3.632   2.190   3.506
 3825SOL    HW112155   3.622   2.222   3.416
 3825SOL    HW212156   3.544   2.192   3.542
 3826SOL     OW12157   2.729   3.233   1.895
 3826SOL    HW112158   2.689   3.263   1.976
 3826SOL    HW212159   2.746   3.314   1.846
 3827SOL     OW12160   2.522   3.657   2.811
 3827SOL    HW112161   2.502   3.747   2.785
 3827SOL    HW212162   2.617   3.649   2.799
 3828SOL     OW12163   2.955   2.860   1.953
 3828SOL    HW112164   2.923   2.902   1.873
 3828SOL    HW212165   3.024   2.801   1.922
 3829SOL     OW12166   3.717   3.417   2.707
 3829SOL    HW112167   3.639   3.406   2.652
 3829SOL    HW212168   3.713   3.346   2.771
 3830SOL     OW12169   1.945   3.094   2.527
 3830SOL    HW112170   1.952   3.047   2.610
 3830SOL    HW212171   2.016   3.059   2.473
 3831SOL     OW12172   3.683   2.034   3.097
 3831SOL    HW112173   3.697   1.939   3.104
 3831SOL    HW212174   3.687   2.052   3.004
 3832SOL     OW12175   2.303   2.293   2.401
 3832SOL    HW112176   2.324   2.228   2.334
 3832SOL    HW212177   2.243   2.247   2.460
 3833SOL     OW12178   3.561   3.354   2.969
 3833SOL    HW112179   3.485   3.319   2.923
 3833SOL    HW212180   3.591   3.283   3.025
 3834SOL     OW12181   2.686   3.445   2.537
 3834SOL    HW112182   2.673   3.491   2.454
 3834SOL    HW212183   2.610   3.387   2.545
 3835SOL     OW12184   3.297   2.082   2.975
 3835SOL    HW112185   3.325   2.011   3.033
 3835SOL    HW212186   3.242   2.138   3.031
 3836SOL     OW12187   2.903   1.872   2.971
 3836SOL    HW112188   2.843   1.801   2.947
 3836SOL    HW212189   2.987   1.829   2.983
 3837SOL     OW12190   2.636   3.204   2.174
 3837SOL    HW112191   2.606   3.113   2.169
 3837SOL    HW212192   2.717   3.200   2.224
 3838SOL     OW12193   3.214   1.916   2.026
 3838SOL    HW112194   3.242   1.853   1.959
 3838SOL    HW212195   3.127   1.885   2.053
 3839SOL     OW12196   3.164   2.317   2.542
 3839SOL    HW112197   3.114   2.398   2.551
 3839SOL    HW212198   3.160   2.275   2.628
 3840SOL     OW12199   3.449   2.064   2.738
 3840SOL    HW112200   3.388   2.083   2.809
 3840SOL    HW212201   3.448   2.143   2.684
 3841SOL     OW12202   1.906   2.933   2.167
 3841SOL    HW112203   1.999   2.924   2.148
 3841SOL    HW212204   1.877   2.845   2.191
 3842SOL     OW12205   2.746   3.514   2.205
 3842SOL    HW112206   2.673   3.496   2.145
 3842SOL    HW212207   2.717   3.589   2.256
 3843SOL     OW12208   1.821   2.220   4.315
 3843SOL    HW112209   1.765   2.253   4.385
 3843SOL    HW212210   1.788   2.131   4.298
 3844SOL     OW12211   3.643   2.468   3.935
 3844SOL    HW112212   3.595   2.467   3.852
 3844SOL    HW212213   3.607   2.395   3.985
 3845SOL     OW12214   2.569   3.024   5.542
 3845SOL    HW112215   2.621   3.103   5.557
 3845SOL    HW212216   2.490   3.056   5.498
 3846SOL     OW12217   3.328   3.367   5.066
 3846SOL    HW112218   3.371   3.449   5.088
 3846SOL    HW212219   3.261   3.356   5.135
 3847SOL     OW12220   2.303   2.272   5.236
 3847SOL    HW112221   2.379   2.215   5.229
 3847SOL    HW212222   2.228   2.213   5.233
 3848SOL     OW12223   2.074   3.604   4.160
 3848SOL    HW112224   2.096   3.669   4.226
 3848SOL    HW212225   2.155   3.592   4.110
 3849SOL     OW12226   3.001   3.205   5.420
 3849SOL    HW112227   3.039   3.198   5.507
 3849SOL    HW212228   2.949   3.126   5.409
 3850SOL     OW12229   2.484   3.648   5.159
 3850SOL    HW112230   2.399   3.629   5.197
 3850SOL    HW212231   2.500   3.741   5.179
 3851SOL     OW12232   3.456   1.981   5.195
 3851SOL    HW112233   3.471   2.060   5.143
 3851SOL    HW212234   3.445   2.014   5.285
 3852SOL     OW12235   3.708   3.624   4.063
 3852SOL    HW112236   3.775   3.595   4.126
 3852SOL    HW212237   3.733   3.714   4.042
 3853SOL     OW12238   1.870   3.465   3.853
 3853SOL    HW112239   1.865   3.374   3.883
 3853SOL    HW212240   1.853   3.517   3.932
 3854SOL     OW12241   3.530   2.951   4.187
 3854SOL    HW112242   3.604   2.968   4.129
 3854SOL    HW212243   3.521   3.031   4.239
 3855SOL     OW12244   1.981   2.602   5.306
 3855SOL    HW112245   2.072   2.626   5.324
 3855SOL    HW212246   1.932   2.683   5.319
 3856SOL     OW12247   3.154   3.100   5.146
 3856SOL    HW112248   3.196   3.032   5.093
 3856SOL    HW212249   3.204   3.100   5.228
 3857SOL     OW12250   2.669   1.856   4.206
 3857SOL    HW112251   2.723   1.922   4.249
 3857SOL    HW212252   2.579   1.880   4.229
 3858SOL     OW12253   3.046   3.667   5.345
 3858SOL    HW112254   3.062   3.725   5.271
 3858SOL    HW212255   3.064   3.579   5.311
 3859SOL     OW12256   2.192   2.109   5.536
 3859SOL    HW112257   2.237   2.193   5.543
 3859SOL    HW212258   2.104   2.127   5.568
 3860SOL     OW12259   3.516   3.588   4.305
 3860SOL    HW112260   3.497   3.568   4.213
 3860SOL    HW212261   3.480   3.514   4.354
 3861SOL     OW12262   3.454   3.542   4.036
 3861SOL    HW112263   3.545   3.572   4.036
 3861SOL    HW212264   3.437   3.520   3.944
 3862SOL     OW12265   3.257   2.329   5.409
 3862SOL    HW112266   3.260   2.374   5.493
 3862SOL    HW212267   3.321   2.259   5.417
 3863SOL     OW12268   2.923   2.546   4.137
 3863SOL    HW112269   2.917   2.568   4.231
 3863SOL    HW212270   2.832   2.547   4.107
 3864SOL     OW12271   1.991   3.706   5.301
 3864SOL    HW112272   1.989   3.687   5.395
 3864SOL    HW212273   1.899   3.702   5.274
 3865SOL     OW12274   3.571   2.439   5.553
 3865SOL    HW112275   3.533   2.512   5.503
 3865SOL    HW212276   3.597   2.376   5.486
 3866SOL     OW12277   2.882   3.335   4.194
 3866SOL    HW112278   2.831   3.393   4.138
 3866SOL    HW212279   2.857   3.358   4.283
 3867SOL     OW12280   2.223   3.681   4.596
 3867SOL    HW112281   2.279   3.603   4.592
 3867SOL    HW212282   2.284   3.753   4.610
 3868SOL     OW12283   3.653   2.981   4.610
 3868SOL    HW112284   3.620   2.969   4.522
 3868SOL    HW212285   3.593   2.932   4.666
 3869SOL     OW12286   3.095   3.400   5.238
 3869SOL    HW112287   3.081   3.327   5.299
 3869SOL    HW212288   3.038   3.380   5.164
 3870SOL     OW12289   2.327   3.127   5.460
 3870SOL    HW112290   2.298   3.131   5.369
 3870SOL    HW212291   2.246   3.125   5.511
 3871SOL     OW12292   2.981   3.639   3.954
 3871SOL    HW112293   2.926   3.605   4.024
 3871SOL    HW212294   2.953   3.591   3.876
 3872SOL     OW12295   2.060   2.148   5.233
 3872SOL    HW112296   1.976   2.194   5.224
 3872SOL    HW212297   2.041   2.077   5.295
 3873SOL     OW12298   3.489   3.228   3.814
 3873SOL    HW112299   3.461   3.318   3.798
 3873SOL    HW212300   3.413   3.175   3.790
 3874SOL     OW12301   2.326   3.608   4.041
 3874SOL    HW112302   2.371   3.658   4.108
 3874SOL    HW212303   2.396   3.567   3.991
 3875SOL     OW12304   3.288   1.941   4.162
 3875SOL    HW112305   3.268   1.934   4.069
 3875SOL    HW212306   3.378   1.972   4.165
 3876SOL     OW12307   2.115   3.655   4.958
 3876SOL    HW112308   2.168   3.587   5.001
 3876SOL    HW212309   2.105   3.624   4.868
 3877SOL     OW12310   3.400   2.085   5.451
 3877SOL    HW112311   3.406   2.106   5.545
 3877SOL    HW212312   3.330   2.020   5.446
 3878SOL     OW12313   2.627   2.122   5.483
 3878SOL    HW112314   2.708   2.071   5.490
 3878SOL    HW212315   2.605   2.144   5.574
 3879SOL     OW12316   3.194   2.455   5.177
 3879SOL    HW112317   3.230   2.412   5.255
 3879SOL    HW212318   3.243   2.537   5.171
 3880SOL     OW12319   2.393   1.912   4.224
 3880SOL    HW112320   2.348   1.907   4.308
 3880SOL    HW212321   2.390   2.005   4.201
 3881SOL     OW12322   2.935   2.523   5.168
 3881SOL    HW112323   2.899   2.442   5.203
 3881SOL    HW212324   3.029   2.506   5.159
 3882SOL     OW12325   3.107   3.568   4.547
 3882SOL    HW112326   3.130   3.571   4.454
 3882SOL    HW212327   3.122   3.476   4.572
 3883SOL     OW12328   3.131   3.667   4.298
 3883SOL    HW112329   3.179   3.733   4.247
 3883SOL    HW212330   3.082   3.718   4.362
 3884SOL     OW12331   1.933   2.415   5.109
 3884SOL    HW112332   2.020   2.413   5.068
 3884SOL    HW212333   1.938   2.485   5.174
 3885SOL     OW12334   3.724   2.680   4.094
 3885SOL    HW112335   3.763   2.627   4.164
 3885SOL    HW212336   3.685   2.615   4.034
 3886SOL     OW12337   2.361   3.292   3.923
 3886SOL    HW112338   2.275   3.277   3.962
 3886SOL    HW212339   2.372   3.222   3.859
 3887SOL     OW12340   3.552   3.160   4.359
 3887SOL    HW112341   3.645   3.145   4.379
 3887SOL    HW212342   3.511   3.178   4.444
 3888SOL     OW12343   3.617   3.098   5.301
 3888SOL    HW112344   3.705   3.063   5.294
 3888SOL    HW212345   3.629   3.189   5.329
 3889SOL     OW12346   3.470   3.488   5.378
 3889SOL    HW112347   3.465   3.522   5.288
 3889SOL    HW212348   3.553   3.440   5.381
 3890SOL     OW12349   2.851   2.975   5.441
 3890SOL    HW112350   2.759   2.986   5.465
 3890SOL    HW212351   2.850   2.914   5.368
 3891SOL     OW12352   2.270   2.676   4.982
 3891SOL    HW112353   2.353   2.679   5.030
 3891SOL    HW212354   2.236   2.587   4.998
 3892SOL     OW12355   1.929   3.437   5.078
 3892SOL    HW112356   1.894   3.505   5.020
 3892SOL    HW212357   2.024   3.444   5.068
 3893SOL     OW12358   2.412   2.384   4.661
 3893SOL    HW112359   2.372   2.430   4.587
 3893SOL    HW212360   2.499   2.423   4.671
 3894SOL     OW12361   3.106   3.239   4.078
 3894SOL    HW112362   3.164   3.306   4.115
 3894SOL    HW212363   3.022   3.254   4.122
 3895SOL     OW12364   2.228   3.398   5.034
 3895SOL    HW112365   2.239   3.322   4.977
 3895SOL    HW212366   2.315   3.412   5.072
 3896SOL     OW12367   2.262   2.603   5.332
 3896SOL    HW112368   2.320   2.651   5.272
 3896SOL    HW212369   2.291   2.512   5.325
 3897SOL     OW12370   3.462   2.644   5.407
 3897SOL    HW112371   3.374   2.680   5.401
 3897SOL    HW212372   3.509   2.682   5.333
 3898SOL     OW12373   2.864   1.984   5.483
 3898SOL    HW112374   2.915   2.054   5.444
 3898SOL    HW212375   2.909   1.904   5.455
 3899SOL     OW12376   2.358   1.900   5.472
 3899SOL    HW112377   2.315   1.847   5.405
 3899SOL    HW212378   2.300   1.975   5.484
 3900SOL     OW12379   2.150   2.087   4.978
 3900SOL    HW112380   2.117   2.104   5.067
 3900SOL    HW212381   2.137   1.992   4.966
 3901SOL     OW12382   3.595   2.822   5.574
 3901SOL    HW112383   3.548   2.760   5.519
 3901SOL    HW212384   3.537   2.836   5.649
 3902SOL     OW12385   2.843   3.428   5.439
 3902SOL    HW112386   2.832   3.473   5.355
 3902SOL    HW212387   2.888   3.346   5.416
 3903SOL     OW12388   3.717   3.368   5.329
 3903SOL    HW112389   3.735   3.395   5.239
 3903SOL    HW212390   3.798   3.388   5.376
 3904SOL     OW12391   2.211   2.781   5.537
 3904SOL    HW112392   2.292   2.808   5.580
 3904SOL    HW212393   2.238   2.715   5.473
 3905SOL     OW12394   3.411   2.127   3.866
 3905SOL    HW112395   3.344   2.059   3.870
 3905SOL    HW212396   3.387   2.188   3.936
 3906SOL     OW12397   2.285   2.639   4.700
 3906SOL    HW112398   2.300   2.704   4.769
 3906SOL    HW212399   2.217   2.581   4.736
 3907SOL     OW12400   2.994   2.244   5.396
 3907SOL    HW112401   2.954   2.293   5.467
 3907SOL    HW212402   3.085   2.276   5.393
 3908SOL     OW12403   3.030   2.051   5.205
 3908SOL    HW112404   3.016   2.123   5.266
 3908SOL    HW212405   3.029   2.092   5.118
 3909SOL     OW12406   1.861   3.180   3.931
 3909SOL    HW112407   1.777   3.205   3.892
 3909SOL    HW212408   1.873   3.089   3.904
 3910SOL     OW12409   1.955   3.652   4.665
 3910SOL    HW112410   1.925   3.572   4.621
 3910SOL    HW212411   2.045   3.664   4.635
 3911SOL     OW12412   2.054   2.380   5.449
 3911SOL    HW112413   2.105   2.337   5.381
 3911SOL    HW212414   2.008   2.451   5.404
 3912SOL     OW12415   3.232   2.809   5.395
 3912SOL    HW112416   3.257   2.901   5.390
 3912SOL    HW212417   3.234   2.779   5.304
 3913SOL     OW12418   3.561   2.477   4.985
 3913SOL    HW112419   3.481   2.425   4.979
 3913SOL    HW212420   3.609   2.457   4.905
 3914SOL     OW12421   2.109   3.414   5.452
 3914SOL    HW112422   2.083   3.479   5.518
 3914SOL    HW212423   2.108   3.330   5.498
 3915SOL     OW12424   2.508   2.301   4.978
 3915SOL    HW112425   2.497   2.212   4.946
 3915SOL    HW212426   2.554   2.347   4.907
 3916SOL     OW12427   2.798   3.547   5.189
 3916SOL    HW112428   2.729   3.527   5.126
 3916SOL    HW212429   2.802   3.642   5.191
 3917SOL     OW12430   2.011   2.996   5.195
 3917SOL    HW112431   2.009   2.941   5.273
 3917SOL    HW212432   2.020   2.935   5.122
 3918SOL     OW12433   3.191   2.894   4.956
 3918SOL    HW112434   3.231   2.880   4.871
 3918SOL    HW212435   3.116   2.952   4.938
 3919SOL     OW12436   3.629   3.608   4.869
 3919SOL    HW112437   3.693   3.633   4.803
 3919SOL    HW212438   3.608   3.517   4.849
 3920SOL     OW12439   3.133   3.627   4.866
 3920SOL    HW112440   3.197   3.635   4.795
 3920SOL    HW212441   3.142   3.537   4.896
 3921SOL     OW12442   2.538   3.527   5.455
 3921SOL    HW112443   2.485   3.607   5.450
 3921SOL    HW212444   2.600   3.535   5.383
 3922SOL     OW12445   3.596   2.005   4.250
 3922SOL    HW112446   3.659   1.992   4.179
 3922SOL    HW212447   3.574   1.917   4.279
 3923SOL     OW12448   3.243   3.446   4.176
 3923SOL    HW112449   3.314   3.479   4.122
 3923SOL    HW212450   3.199   3.525   4.209
 3924SOL     OW12451   1.998   3.658   5.567
 3924SOL    HW112452   1.947   3.593   5.616
 3924SOL    HW212453   2.046   3.706   5.634
 3925SOL     OW12454   2.535   3.495   3.886
 3925SOL    HW112455   2.547   3.506   3.791
 3925SOL    HW212456   2.481   3.416   3.894
 3926SOL     OW12457   3.494   3.590   5.117
 3926SOL    HW112458   3.540   3.598   5.033
 3926SOL    HW212459   3.479   3.681   5.144
 3927SOL     OW12460   3.707   2.036   4.689
 3927SOL    HW112461   3.734   1.948   4.663
 3927SOL    HW212462   3.621   2.047   4.649
 3928SOL     OW12463   3.403   3.494   3.774
 3928SOL    HW112464   3.308   3.484   3.766
 3928SOL    HW212465   3.434   3.499   3.683
 3929SOL     OW12466   2.223   3.165   5.218
 3929SOL    HW112467   2.202   3.249   5.178
 3929SOL    HW212468   2.145   3.111   5.204
 3930SOL     OW12469   3.467   3.140   5.012
 3930SOL    HW112470   3.532   3.137   5.082
 3930SOL    HW212471   3.410   3.214   5.035
 3931SOL     OW12472   3.583   2.230   5.120
 3931SOL    HW112473   3.624   2.314   5.100
 3931SOL    HW212474   3.620   2.169   5.057
 3932SOL     OW12475   2.112   3.240   4.026
 3932SOL    HW112476   2.024   3.222   3.991
 3932SOL    HW212477   2.097   3.298   4.100
 3933SOL     OW12478   1.973   2.877   5.440
 3933SOL    HW112479   1.897   2.858   5.495
 3933SOL    HW212480   2.047   2.845   5.491
 3934SOL     OW12481   2.515   2.071   5.249
 3934SOL    HW112482   2.593   2.091   5.196
 3934SOL    HW212483   2.543   2.086   5.339
 3935SOL     OW12484   3.292   2.727   5.150
 3935SOL    HW112485   3.250   2.781   5.083
 3935SOL    HW212486   3.385   2.732   5.130
 3936SOL     OW12487   1.930   2.012   4.035
 3936SOL    HW112488   1.894   2.096   4.005
 3936SOL    HW212489   2.025   2.022   4.025
 3937SOL     OW12490   3.369   3.629   4.708
 3937SOL    HW112491   3.375   3.690   4.634
 3937SOL    HW212492   3.452   3.640   4.754
 3938SOL     OW12493   3.332   3.065   5.358
 3938SOL    HW112494   3.321   3.079   5.452
 3938SOL    HW212495   3.425   3.078   5.342
 3939SOL     OW12496   2.244   3.599   5.286
 3939SOL    HW112497   2.159   3.642   5.272
 3939SOL    HW212498   2.222   3.519   5.334
 3940SOL     OW12499   3.627   2.222   5.385
 3940SOL    HW112500   3.617   2.233   5.290
 3940SOL    HW212501   3.553   2.166   5.410
 3941SOL     OW12502   3.582   2.801   5.219
 3941SOL    HW112503   3.598   2.888   5.256
 3941SOL    HW212504   3.625   2.802   5.134
 3942SOL     OW12505   2.528   3.668   4.687
 3942SOL    HW112506   2.493   3.752   4.659
 3942SOL    HW212507   2.605   3.654   4.631
 3943SOL     OW12508   3.726   3.419   4.576
 3943SOL    HW112509   3.668   3.395   4.504
 3943SOL    HW212510   3.716   3.349   4.640
 3944SOL     OW12511   2.087   3.166   5.580
 3944SOL    HW112512   2.018   3.106   5.551
 3944SOL    HW212513   2.071   3.178   5.673
 3945SOL     OW12514   1.897   3.151   4.384
 3945SOL    HW112515   1.882   3.099   4.463
 3945SOL    HW212516   1.976   3.113   4.345
 3946SOL     OW12517   2.534   3.271   5.336
 3946SOL    HW112518   2.461   3.220   5.373
 3946SOL    HW212519   2.534   3.352   5.386
 3947SOL     OW12520   3.679   2.042   4.958
 3947SOL    HW112521   3.684   1.948   4.972
 3947SOL    HW212522   3.690   2.054   4.864
 3948SOL     OW12523   3.566   3.347   4.827
 3948SOL    HW112524   3.471   3.336   4.828
 3948SOL    HW212525   3.598   3.282   4.889
 3949SOL     OW12526   2.196   2.407   5.009
 3949SOL    HW112527   2.244   2.363   5.079
 3949SOL    HW212528   2.212   2.353   4.932
 3950SOL     OW12529   2.693   3.488   4.389
 3950SOL    HW112530   2.670   3.492   4.297
 3950SOL    HW212531   2.625   3.433   4.429
 3951SOL     OW12532   3.216   1.920   3.892
 3951SOL    HW112533   3.246   1.857   3.827
 3951SOL    HW212534   3.129   1.888   3.919
 3952SOL     OW12535   3.460   2.071   4.591
 3952SOL    HW112536   3.379   2.056   4.640
 3952SOL    HW212537   3.433   2.125   4.517
 3953SOL     OW12538   2.733   3.515   4.069
 3953SOL    HW112539   2.666   3.505   4.002
 3953SOL    HW212540   2.710   3.596   4.114
 3954SOL     OW12541   2.094   2.482   5.707
 3954SOL    HW112542   2.005   2.486   5.743
 3954SOL    HW212543   2.082   2.457   5.615
 3955SOL     OW12544   2.087   2.141   6.577
 3955SOL    HW112545   2.115   2.107   6.662
 3955SOL    HW212546   1.997   2.110   6.567
 3956SOL     OW12547   1.867   2.243   6.225
 3956SOL    HW112548   1.784   2.269   6.266
 3956SOL    HW212549   1.845   2.164   6.175
 3957SOL     OW12550   2.427   3.147   6.760
 3957SOL    HW112551   2.340   3.153   6.721
 3957SOL    HW212552   2.443   3.235   6.796
 3958SOL     OW12553   3.421   3.373   6.292
 3958SOL    HW112554   3.378   3.355   6.376
 3958SOL    HW212555   3.349   3.379   6.229
 3959SOL     OW12556   3.016   2.541   6.305
 3959SOL    HW112557   3.045   2.630   6.288
 3959SOL    HW212558   2.940   2.552   6.363
 3960SOL     OW12559   3.627   2.468   5.816
 3960SOL    HW112560   3.608   2.460   5.722
 3960SOL    HW212561   3.593   2.388   5.854
 3961SOL     OW12562   2.637   3.025   6.628
 3961SOL    HW112563   2.556   3.040   6.678
 3961SOL    HW212564   2.653   3.108   6.583
 3962SOL     OW12565   2.573   3.016   7.395
 3962SOL    HW112566   2.621   3.094   7.419
 3962SOL    HW212567   2.490   3.049   7.359
 3963SOL     OW12568   2.191   3.292   6.654
 3963SOL    HW112569   2.121   3.252   6.602
 3963SOL    HW212570   2.243   3.340   6.590
 3964SOL     OW12571   3.323   3.360   6.939
 3964SOL    HW112572   3.371   3.443   6.950
 3964SOL    HW212573   3.262   3.359   7.013
 3965SOL     OW12574   2.310   2.265   7.088
 3965SOL    HW112575   2.387   2.208   7.081
 3965SOL    HW212576   2.236   2.205   7.094
 3966SOL     OW12577   3.475   2.310   6.326
 3966SOL    HW112578   3.398   2.333   6.273
 3966SOL    HW212579   3.490   2.387   6.380
 3967SOL     OW12580   2.081   3.576   6.059
 3967SOL    HW112581   2.103   3.652   6.112
 3967SOL    HW212582   2.154   3.569   5.997
 3968SOL     OW12583   2.997   3.201   7.277
 3968SOL    HW112584   3.035   3.199   7.365
 3968SOL    HW212585   2.946   3.121   7.271
 3969SOL     OW12586   2.090   3.303   6.120
 3969SOL    HW112587   2.075   3.397   6.125
 3969SOL    HW212588   2.031   3.265   6.185
 3970SOL     OW12589   2.113   2.951   6.473
 3970SOL    HW112590   2.112   2.867   6.518
 3970SOL    HW212591   2.060   3.009   6.528
 3971SOL     OW12592   2.474   3.655   7.015
 3971SOL    HW112593   2.393   3.636   7.062
 3971SOL    HW212594   2.497   3.744   7.041
 3972SOL     OW12595   2.430   2.863   5.711
 3972SOL    HW112596   2.478   2.920   5.649
 3972SOL    HW212597   2.488   2.857   5.787
 3973SOL     OW12598   3.458   1.985   7.055
 3973SOL    HW112599   3.462   2.065   7.003
 3973SOL    HW212600   3.445   2.014   7.145
 3974SOL     OW12601   1.977   2.512   6.147
 3974SOL    HW112602   1.944   2.425   6.168
 3974SOL    HW212603   1.967   2.562   6.228
 3975SOL     OW12604   3.704   3.622   5.922
 3975SOL    HW112605   3.767   3.593   5.988
 3975SOL    HW212606   3.729   3.712   5.903
 3976SOL     OW12607   1.893   3.457   5.710
 3976SOL    HW112608   1.876   3.365   5.730
 3976SOL    HW212609   1.869   3.504   5.790
 3977SOL     OW12610   3.551   2.780   6.225
 3977SOL    HW112611   3.636   2.740   6.207
 3977SOL    HW212612   3.531   2.830   6.146
 3978SOL     OW12613   3.507   2.970   6.015
 3978SOL    HW112614   3.593   2.976   5.973
 3978SOL    HW212615   3.513   3.030   6.089
 3979SOL     OW12616   1.976   2.603   7.173
 3979SOL    HW112617   2.068   2.625   7.185
 3979SOL    HW212618   1.930   2.687   7.181
 3980SOL     OW12619   2.478   3.246   6.321
 3980SOL    HW112620   2.434   3.162   6.332
 3980SOL    HW212621   2.458   3.272   6.231
 3981SOL     OW12622   3.152   3.100   7.011
 3981SOL    HW112623   3.185   3.033   6.951
 3981SOL    HW212624   3.209   3.093   7.087
 3982SOL     OW12625   2.674   1.857   6.095
 3982SOL    HW112626   2.718   1.940   6.074
 3982SOL    HW212627   2.582   1.880   6.103
 3983SOL     OW12628   2.045   2.834   6.853
 3983SOL    HW112629   2.129   2.789   6.844
 3983SOL    HW212630   1.982   2.777   6.811
 3984SOL     OW12631   3.394   2.855   5.784
 3984SOL    HW112632   3.328   2.793   5.815
 3984SOL    HW212633   3.434   2.890   5.863
 3985SOL     OW12634   3.048   3.668   7.207
 3985SOL    HW112635   3.059   3.725   7.131
 3985SOL    HW212636   3.062   3.579   7.173
 3986SOL     OW12637   2.192   2.110   7.396
 3986SOL    HW112638   2.238   2.193   7.408
 3986SOL    HW212639   2.103   2.127   7.428
 3987SOL     OW12640   3.329   3.282   6.539
 3987SOL    HW112641   3.260   3.297   6.604
 3987SOL    HW212642   3.317   3.191   6.512
 3988SOL     OW12643   3.521   3.599   6.164
 3988SOL    HW112644   3.501   3.570   6.075
 3988SOL    HW212645   3.496   3.525   6.220
 3989SOL     OW12646   3.143   2.211   6.518
 3989SOL    HW112647   3.053   2.179   6.527
 3989SOL    HW212648   3.193   2.159   6.581
 3990SOL     OW12649   3.443   3.531   5.895
 3990SOL    HW112650   3.533   3.564   5.889
 3990SOL    HW212651   3.417   3.514   5.804
 3991SOL     OW12652   3.257   2.336   7.262
 3991SOL    HW112653   3.256   2.381   7.346
 3991SOL    HW212654   3.318   2.264   7.274
 3992SOL     OW12655   2.852   2.272   6.834
 3992SOL    HW112656   2.765   2.290   6.869
 3992SOL    HW212657   2.836   2.239   6.746
 3993SOL     OW12658   1.950   2.682   6.362
 3993SOL    HW112659   2.031   2.676   6.412
 3993SOL    HW212660   1.907   2.761   6.396
 3994SOL     OW12661   1.989   3.708   7.164
 3994SOL    HW112662   1.989   3.687   7.257
 3994SOL    HW212663   1.898   3.701   7.137
 3995SOL     OW12664   2.746   2.193   5.737
 3995SOL    HW112665   2.798   2.255   5.686
 3995SOL    HW212666   2.794   2.110   5.729
 3996SOL     OW12667   3.573   2.439   7.415
 3996SOL    HW112668   3.534   2.513   7.369
 3996SOL    HW212669   3.598   2.377   7.346
 3997SOL     OW12670   3.235   3.000   6.125
 3997SOL    HW112671   3.317   2.992   6.076
 3997SOL    HW212672   3.186   3.067   6.077
 3998SOL     OW12673   2.410   2.040   6.475
 3998SOL    HW112674   2.411   2.065   6.567
 3998SOL    HW212675   2.412   2.123   6.427
 3999SOL     OW12676   2.867   3.305   6.059
 3999SOL    HW112677   2.830   3.378   6.010
 3999SOL    HW212678   2.853   3.328   6.151
 4000SOL     OW12679   2.217   3.670   6.447
 4000SOL    HW112680   2.260   3.585   6.455
 4000SOL    HW212681   2.286   3.734   6.465
 4001SOL     OW12682   3.661   2.919   6.454
 4001SOL    HW112683   3.605   2.903   6.378
 4001SOL    HW212684   3.600   2.925   6.527
 4002SOL     OW12685   3.089   3.400   7.098
 4002SOL    HW112686   3.076   3.328   7.160
 4002SOL    HW212687   3.026   3.383   7.028
 4003SOL     OW12688   2.177   2.825   5.836
 4003SOL    HW112689   2.257   2.846   5.789
 4003SOL    HW212690   2.152   2.739   5.802
 4004SOL     OW12691   3.336   2.608   6.314
 4004SOL    HW112692   3.329   2.560   6.396
 4004SOL    HW212693   3.417   2.659   6.323
 4005SOL     OW12694   2.327   3.126   7.324
 4005SOL    HW112695   2.299   3.131   7.232
 4005SOL    HW212696   2.245   3.124   7.374
 4006SOL     OW12697   2.983   3.640   5.817
 4006SOL    HW112698   2.911   3.598   5.863
 4006SOL    HW212699   3.006   3.579   5.747
 4007SOL     OW12700   2.063   2.145   7.086
 4007SOL    HW112701   1.979   2.192   7.080
 4007SOL    HW212702   2.046   2.075   7.150
 4008SOL     OW12703   3.491   3.241   5.673
 4008SOL    HW112704   3.450   3.327   5.658
 4008SOL    HW212705   3.421   3.178   5.654
 4009SOL     OW12706   2.328   3.599   5.907
 4009SOL    HW112707   2.369   3.657   5.972
 4009SOL    HW212708   2.401   3.571   5.852
 4010SOL     OW12709   3.263   1.970   6.018
 4010SOL    HW112710   3.253   1.944   5.926
 4010SOL    HW212711   3.358   1.976   6.030
 4011SOL     OW12712   2.116   3.653   6.818
 4011SOL    HW112713   2.170   3.589   6.865
 4011SOL    HW212714   2.108   3.617   6.730
 4012SOL     OW12715   2.799   3.562   6.485
 4012SOL    HW112716   2.872   3.507   6.512
 4012SOL    HW212717   2.755   3.511   6.417
 4013SOL     OW12718   2.250   2.552   6.059
 4013SOL    HW112719   2.276   2.462   6.078
 4013SOL    HW212720   2.157   2.556   6.082
 4014SOL     OW12721   3.398   2.087   7.312
 4014SOL    HW112722   3.407   2.108   7.405
 4014SOL    HW212723   3.329   2.022   7.308
 4015SOL     OW12724   2.482   1.976   5.704
 4015SOL    HW112725   2.567   1.933   5.704
 4015SOL    HW212726   2.444   1.953   5.619
 4016SOL     OW12727   2.620   2.119   7.332
 4016SOL    HW112728   2.702   2.069   7.341
 4016SOL    HW212729   2.595   2.139   7.422
 4017SOL     OW12730   2.740   3.387   6.780
 4017SOL    HW112731   2.722   3.349   6.694
 4017SOL    HW212732   2.805   3.328   6.819
 4018SOL     OW12733   3.216   2.448   7.012
 4018SOL    HW112734   3.241   2.417   7.099
 4018SOL    HW212735   3.248   2.538   7.008
 4019SOL     OW12736   2.676   3.272   6.521
 4019SOL    HW112737   2.760   3.253   6.479
 4019SOL    HW212738   2.612   3.262   6.451
 4020SOL     OW12739   2.781   2.356   6.489
 4020SOL    HW112740   2.763   2.341   6.396
 4020SOL    HW212741   2.825   2.276   6.517
 4021SOL     OW12742   2.410   1.926   6.089
 4021SOL    HW112743   2.329   1.926   6.140
 4021SOL    HW212744   2.404   2.004   6.035
 4022SOL     OW12745   3.290   3.061   5.628
 4022SOL    HW112746   3.320   2.985   5.677
 4022SOL    HW212747   3.204   3.081   5.664
 4023SOL     OW12748   2.155   1.910   5.771
 4023SOL    HW112749   2.214   1.971   5.727
 4023SOL    HW212750   2.213   1.845   5.812
 4024SOL     OW12751   2.807   2.093   6.050
 4024SOL    HW112752   2.767   2.164   6.001
 4024SOL    HW212753   2.901   2.112   6.048
 4025SOL     OW12754   2.950   2.518   7.061
 4025SOL    HW112755   2.898   2.444   7.030
 4025SOL    HW212756   3.040   2.494   7.039
 4026SOL     OW12757   3.090   3.428   6.377
 4026SOL    HW112758   3.104   3.499   6.314
 4026SOL    HW212759   3.153   3.445   6.446
 4027SOL     OW12760   2.328   3.017   6.321
 4027SOL    HW112761   2.258   2.994   6.381
 4027SOL    HW212762   2.296   2.991   6.235
 4028SOL     OW12763   3.132   3.656   6.193
 4028SOL    HW112764   3.177   3.718   6.135
 4028SOL    HW212765   3.066   3.709   6.238
 4029SOL     OW12766   2.907   2.395   5.608
 4029SOL    HW112767   2.848   2.470   5.606
 4029SOL    HW212768   2.965   2.411   5.683
 4030SOL     OW12769   1.941   2.417   6.976
 4030SOL    HW112770   2.034   2.416   6.952
 4030SOL    HW212771   1.934   2.487   7.041
 4031SOL     OW12772   2.419   2.076   6.746
 4031SOL    HW112773   2.459   2.000   6.787
 4031SOL    HW212774   2.329   2.075   6.778
 4032SOL     OW12775   2.734   2.294   6.238
 4032SOL    HW112776   2.711   2.361   6.173
 4032SOL    HW212777   2.756   2.217   6.186
 4033SOL     OW12778   2.877   1.915   6.339
 4033SOL    HW112779   2.820   1.907   6.262
 4033SOL    HW212780   2.855   1.839   6.392
 4034SOL     OW12781   3.301   3.025   6.444
 4034SOL    HW112782   3.231   2.960   6.442
 4034SOL    HW212783   3.325   3.038   6.352
 4035SOL     OW12784   3.329   2.466   6.563
 4035SOL    HW112785   3.279   2.385   6.567
 4035SOL    HW212786   3.389   2.461   6.638
 4036SOL     OW12787   3.708   2.679   5.968
 4036SOL    HW112788   3.764   2.628   6.026
 4036SOL    HW212789   3.679   2.617   5.901
 4037SOL     OW12790   2.355   3.276   5.746
 4037SOL    HW112791   2.279   3.249   5.797
 4037SOL    HW212792   2.337   3.243   5.657
 4038SOL     OW12793   3.530   3.126   6.233
 4038SOL    HW112794   3.625   3.130   6.246
 4038SOL    HW212795   3.500   3.215   6.254
 4039SOL     OW12796   3.258   2.434   5.661
 4039SOL    HW112797   3.198   2.413   5.732
 4039SOL    HW212798   3.343   2.401   5.690
 4040SOL     OW12799   2.386   2.129   5.908
 4040SOL    HW112800   2.424   2.075   5.839
 4040SOL    HW212801   2.368   2.213   5.866
 4041SOL     OW12802   3.615   3.100   7.160
 4041SOL    HW112803   3.703   3.061   7.156
 4041SOL    HW212804   3.629   3.189   7.190
 4042SOL     OW12805   2.924   3.220   6.922
 4042SOL    HW112806   2.847   3.188   6.968
 4042SOL    HW212807   2.998   3.175   6.963
 4043SOL     OW12808   3.469   3.488   7.238
 4043SOL    HW112809   3.465   3.521   7.149
 4043SOL    HW212810   3.552   3.440   7.242
 4044SOL     OW12811   2.990   3.064   6.691
 4044SOL    HW112812   2.927   3.089   6.758
 4044SOL    HW212813   2.951   3.094   6.609
 4045SOL     OW12814   3.492   2.961   6.664
 4045SOL    HW112815   3.488   3.023   6.737
 4045SOL    HW212816   3.412   2.978   6.614
 4046SOL     OW12817   2.780   1.959   6.983
 4046SOL    HW112818   2.803   1.940   6.892
 4046SOL    HW212819   2.858   1.999   7.020
 4047SOL     OW12820   2.848   2.964   7.308
 4047SOL    HW112821   2.756   2.985   7.326
 4047SOL    HW212822   2.845   2.911   7.228
 4048SOL     OW12823   2.262   2.675   6.847
 4048SOL    HW112824   2.355   2.681   6.869
 4048SOL    HW212825   2.240   2.583   6.863
 4049SOL     OW12826   3.129   2.238   6.859
 4049SOL    HW112827   3.165   2.315   6.904
 4049SOL    HW212828   3.039   2.263   6.838
 4050SOL     OW12829   1.932   3.435   6.937
 4050SOL    HW112830   1.903   3.508   6.884
 4050SOL    HW212831   2.028   3.439   6.933
 4051SOL     OW12832   2.218   2.967   6.075
 4051SOL    HW112833   2.212   3.041   6.015
 4051SOL    HW212834   2.210   2.890   6.019
 4052SOL     OW12835   2.414   2.393   6.463
 4052SOL    HW112836   2.416   2.414   6.370
 4052SOL    HW212837   2.505   2.402   6.492
 4053SOL     OW12838   3.109   3.210   5.977
 4053SOL    HW112839   3.165   3.282   6.006
 4053SOL    HW212840   3.022   3.232   6.010
 4054SOL     OW12841   3.141   3.318   6.731
 4054SOL    HW112842   3.194   3.320   6.811
 4054SOL    HW212843   3.081   3.245   6.744
 4055SOL     OW12844   3.442   2.486   6.063
 4055SOL    HW112845   3.399   2.542   6.128
 4055SOL    HW212846   3.490   2.547   6.007
 4056SOL     OW12847   2.209   3.388   6.902
 4056SOL    HW112848   2.196   3.346   6.817
 4056SOL    HW212849   2.304   3.400   6.909
 4057SOL     OW12850   2.251   2.599   7.189
 4057SOL    HW112851   2.309   2.655   7.137
 4057SOL    HW212852   2.293   2.513   7.188
 4058SOL     OW12853   3.462   2.640   7.267
 4058SOL    HW112854   3.376   2.681   7.260
 4058SOL    HW212855   3.514   2.682   7.199
 4059SOL     OW12856   2.861   1.984   7.343
 4059SOL    HW112857   2.915   2.057   7.312
 4059SOL    HW212858   2.909   1.906   7.316
 4060SOL     OW12859   2.359   1.901   7.334
 4060SOL    HW112860   2.317   1.848   7.266
 4060SOL    HW212861   2.300   1.976   7.345
 4061SOL     OW12862   3.225   2.721   6.618
 4061SOL    HW112863   3.147   2.712   6.564
 4061SOL    HW212864   3.266   2.635   6.616
 4062SOL     OW12865   3.063   2.390   5.855
 4062SOL    HW112866   3.068   2.307   5.904
 4062SOL    HW212867   3.058   2.457   5.923
 4063SOL     OW12868   2.161   2.061   6.833
 4063SOL    HW112869   2.124   2.094   6.915
 4063SOL    HW212870   2.141   1.968   6.833
 4064SOL     OW12871   1.906   3.173   6.863
 4064SOL    HW112872   1.940   3.119   6.934
 4064SOL    HW212873   1.915   3.263   6.894
 4065SOL     OW12874   3.597   2.821   7.438
 4065SOL    HW112875   3.548   2.762   7.380
 4065SOL    HW212876   3.539   2.835   7.512
 4066SOL     OW12877   2.164   1.928   6.209
 4066SOL    HW112878   2.145   2.018   6.234
 4066SOL    HW212879   2.171   1.882   6.293
 4067SOL     OW12880   3.477   2.235   5.954
 4067SOL    HW112881   3.505   2.172   6.020
 4067SOL    HW212882   3.454   2.314   6.005
 4068SOL     OW12883   2.845   3.428   7.301
 4068SOL    HW112884   2.829   3.472   7.218
 4068SOL    HW212885   2.886   3.345   7.277
 4069SOL     OW12886   3.717   3.369   7.191
 4069SOL    HW112887   3.735   3.395   7.101
 4069SOL    HW212888   3.799   3.388   7.238
 4070SOL     OW12889   2.211   2.780   7.397
 4070SOL    HW112890   2.292   2.803   7.443
 4070SOL    HW212891   2.238   2.713   7.334
 4071SOL     OW12892   3.390   2.136   5.714
 4071SOL    HW112893   3.326   2.069   5.741
 4071SOL    HW212894   3.424   2.171   5.797
 4072SOL     OW12895   3.152   2.685   5.619
 4072SOL    HW112896   3.197   2.601   5.621
 4072SOL    HW212897   3.184   2.728   5.540
 4073SOL     OW12898   2.925   3.200   6.436
 4073SOL    HW112899   2.931   3.129   6.373
 4073SOL    HW212900   2.989   3.265   6.404
 4074SOL     OW12901   2.169   2.673   6.535
 4074SOL    HW112902   2.259   2.705   6.541
 4074SOL    HW212903   2.172   2.585   6.574
 4075SOL     OW12904   2.190   2.386   6.605
 4075SOL    HW112905   2.155   2.299   6.586
 4075SOL    HW212906   2.270   2.391   6.552
 4076SOL     OW12907   3.000   2.233   7.264
 4076SOL    HW112908   2.953   2.286   7.329
 4076SOL    HW212909   3.086   2.274   7.257
 4077SOL     OW12910   3.023   2.063   7.054
 4077SOL    HW112911   3.013   2.125   7.126
 4077SOL    HW212912   3.061   2.115   6.983
 4078SOL     OW12913   1.867   3.183   5.781
 4078SOL    HW112914   1.780   3.197   5.743
 4078SOL    HW212915   1.865   3.094   5.814
 4079SOL     OW12916   1.952   3.650   6.523
 4079SOL    HW112917   1.922   3.570   6.480
 4079SOL    HW212918   2.042   3.662   6.493
 4080SOL     OW12919   2.359   3.435   6.490
 4080SOL    HW112920   2.428   3.496   6.516
 4080SOL    HW212921   2.404   3.369   6.437
 4081SOL     OW12922   1.897   2.405   6.703
 4081SOL    HW112923   1.979   2.393   6.654
 4081SOL    HW212924   1.924   2.410   6.794
 4082SOL     OW12925   2.053   2.380   7.312
 4082SOL    HW112926   2.105   2.339   7.243
 4082SOL    HW212927   2.008   2.453   7.269
 4083SOL     OW12928   3.238   2.802   7.245
 4083SOL    HW112929   3.259   2.895   7.244
 4083SOL    HW212930   3.235   2.776   7.153
 4084SOL     OW12931   2.701   2.330   5.961
 4084SOL    HW112932   2.704   2.289   5.874
 4084SOL    HW212933   2.632   2.396   5.954
 4085SOL     OW12934   3.504   2.464   6.773
 4085SOL    HW112935   3.492   2.406   6.848
 4085SOL    HW212936   3.591   2.442   6.739
 4086SOL     OW12937   2.105   3.414   7.314
 4086SOL    HW112938   2.083   3.477   7.383
 4086SOL    HW212939   2.108   3.330   7.360
 4087SOL     OW12940   2.538   2.298   6.849
 4087SOL    HW112941   2.497   2.219   6.814
 4087SOL    HW212942   2.560   2.350   6.772
 4088SOL     OW12943   2.790   3.542   7.054
 4088SOL    HW112944   2.766   3.506   6.969
 4088SOL    HW212945   2.786   3.637   7.042
 4089SOL     OW12946   2.331   2.364   5.782
 4089SOL    HW112947   2.380   2.445   5.794
 4089SOL    HW212948   2.241   2.393   5.767
 4090SOL     OW12949   2.007   3.003   7.059
 4090SOL    HW112950   2.010   2.950   7.138
 4090SOL    HW212951   2.023   2.941   6.987
 4091SOL     OW12952   3.190   2.910   6.811
 4091SOL    HW112953   3.213   2.848   6.742
 4091SOL    HW212954   3.120   2.963   6.772
 4092SOL     OW12955   3.176   2.710   5.890
 4092SOL    HW112956   3.092   2.725   5.934
 4092SOL    HW212957   3.154   2.703   5.797
 4093SOL     OW12958   3.632   3.607   6.735
 4093SOL    HW112959   3.693   3.633   6.666
 4093SOL    HW212960   3.609   3.517   6.714
 4094SOL     OW12961   3.103   3.595   6.700
 4094SOL    HW112962   3.186   3.614   6.655
 4094SOL    HW212963   3.108   3.501   6.719
 4095SOL     OW12964   1.945   3.129   6.598
 4095SOL    HW112965   1.932   3.141   6.692
 4095SOL    HW212966   1.873   3.073   6.571
 4096SOL     OW12967   2.539   3.526   7.312
 4096SOL    HW112968   2.489   3.607   7.309
 4096SOL    HW212969   2.605   3.536   7.243
 4097SOL     OW12970   3.581   2.007   6.096
 4097SOL    HW112971   3.654   1.993   6.036
 4097SOL    HW212972   3.565   1.921   6.136
 4098SOL     OW12973   3.252   3.430   6.069
 4098SOL    HW112974   3.313   3.462   6.003
 4098SOL    HW212975   3.204   3.507   6.098
 4099SOL     OW12976   1.996   3.659   7.430
 4099SOL    HW112977   1.946   3.594   7.479
 4099SOL    HW212978   2.046   3.707   7.497
 4100SOL     OW12979   3.132   2.786   6.256
 4100SOL    HW112980   3.205   2.725   6.264
 4100SOL    HW212981   3.167   2.860   6.205
 4101SOL     OW12982   2.690   3.141   7.022
 4101SOL    HW112983   2.646   3.182   7.097
 4101SOL    HW212984   2.619   3.121   6.961
 4102SOL     OW12985   2.533   3.481   5.741
 4102SOL    HW112986   2.543   3.493   5.647
 4102SOL    HW212987   2.479   3.402   5.750
 4103SOL     OW12988   3.491   3.589   6.977
 4103SOL    HW112989   3.540   3.596   6.895
 4103SOL    HW212990   3.477   3.679   7.005
 4104SOL     OW12991   3.702   2.035   6.553
 4104SOL    HW112992   3.731   1.948   6.525
 4104SOL    HW212993   3.616   2.046   6.513
 4105SOL     OW12994   2.125   2.181   6.304
 4105SOL    HW112995   2.038   2.214   6.279
 4105SOL    HW212996   2.120   2.169   6.398
 4106SOL     OW12997   3.068   3.469   5.617
 4106SOL    HW112998   3.060   3.377   5.643
 4106SOL    HW212999   3.004   3.480   5.547
 4107SOL     OW13000   3.355   3.486   5.628
 4107SOL    HW113001   3.260   3.481   5.615
 4107SOL    HW213002   3.391   3.493   5.540
 4108SOL     OW13003   2.229   3.165   7.080
 4108SOL    HW113004   2.219   3.241   7.022
 4108SOL    HW213005   2.152   3.111   7.061
 4109SOL     OW13006   3.474   3.145   6.867
 4109SOL    HW113007   3.532   3.135   6.942
 4109SOL    HW213008   3.413   3.214   6.893
 4110SOL     OW13009   2.912   2.969   6.288
 4110SOL    HW113010   2.838   2.922   6.327
 4110SOL    HW213011   2.976   2.901   6.267
 4111SOL     OW13012   2.886   2.100   6.552
 4111SOL    HW113013   2.880   2.051   6.470
 4111SOL    HW213014   2.879   2.033   6.620
 4112SOL     OW13015   2.463   3.353   6.067
 4112SOL    HW113016   2.507   3.306   5.996
 4112SOL    HW213017   2.394   3.403   6.024
 4113SOL     OW13018   3.583   2.254   6.967
 4113SOL    HW113019   3.655   2.317   6.965
 4113SOL    HW213020   3.613   2.182   6.910
 4114SOL     OW13021   2.121   3.208   5.873
 4114SOL    HW113022   2.028   3.205   5.851
 4114SOL    HW213023   2.123   3.245   5.962
 4115SOL     OW13024   1.973   2.881   7.304
 4115SOL    HW113025   1.897   2.859   7.358
 4115SOL    HW213026   2.048   2.846   7.352
 4116SOL     OW13027   2.533   2.055   7.081
 4116SOL    HW113028   2.618   2.039   7.041
 4116SOL    HW213029   2.553   2.080   7.171
 4117SOL     OW13030   1.940   2.198   5.622
 4117SOL    HW113031   1.853   2.176   5.588
 4117SOL    HW213032   1.968   2.272   5.569
 4118SOL     OW13033   3.293   2.720   6.987
 4118SOL    HW113034   3.244   2.781   6.932
 4118SOL    HW213035   3.383   2.724   6.953
 4119SOL     OW13036   1.932   2.019   5.897
 4119SOL    HW113037   1.917   2.098   5.846
 4119SOL    HW213038   2.016   1.986   5.867
 4120SOL     OW13039   3.042   3.202   5.704
 4120SOL    HW113040   2.951   3.172   5.706
 4120SOL    HW213041   3.070   3.202   5.795
 4121SOL     OW13042   3.347   3.637   6.563
 4121SOL    HW113043   3.371   3.697   6.492
 4121SOL    HW213044   3.428   3.620   6.609
 4122SOL     OW13045   3.333   3.062   7.219
 4122SOL    HW113046   3.320   3.076   7.313
 4122SOL    HW213047   3.426   3.077   7.205
 4123SOL     OW13048   2.242   3.602   7.150
 4123SOL    HW113049   2.157   3.642   7.137
 4123SOL    HW213050   2.224   3.517   7.191
 4124SOL     OW13051   3.532   2.744   6.842
 4124SOL    HW113052   3.525   2.658   6.799
 4124SOL    HW213053   3.523   2.807   6.770
 4125SOL     OW13054   3.081   2.181   6.042
 4125SOL    HW113055   3.143   2.109   6.034
 4125SOL    HW213056   3.109   2.228   6.121
 4126SOL     OW13057   3.625   2.223   7.237
 4126SOL    HW113058   3.608   2.238   7.144
 4126SOL    HW213059   3.553   2.166   7.265
 4127SOL     OW13060   3.607   2.795   7.098
 4127SOL    HW113061   3.605   2.890   7.112
 4127SOL    HW213062   3.592   2.784   7.005
 4128SOL     OW13063   2.726   3.234   5.617
 4128SOL    HW113064   2.688   3.264   5.700
 4128SOL    HW213065   2.746   3.315   5.570
 4129SOL     OW13066   2.521   3.655   6.531
 4129SOL    HW113067   2.502   3.746   6.508
 4129SOL    HW213068   2.616   3.648   6.525
 4130SOL     OW13069   2.949   2.855   5.678
 4130SOL    HW113070   2.922   2.902   5.599
 4130SOL    HW213071   3.020   2.799   5.649
 4131SOL     OW13072   3.717   3.417   6.430
 4131SOL    HW113073   3.639   3.406   6.376
 4131SOL    HW213074   3.708   3.351   6.500
 4132SOL     OW13075   2.086   3.166   7.443
 4132SOL    HW113076   2.019   3.105   7.414
 4132SOL    HW213077   2.070   3.178   7.536
 4133SOL     OW13078   1.945   3.095   6.251
 4133SOL    HW113079   1.951   3.048   6.334
 4133SOL    HW213080   2.016   3.059   6.197
 4134SOL     OW13081   2.540   3.264   7.211
 4134SOL    HW113082   2.461   3.221   7.243
 4134SOL    HW213083   2.537   3.352   7.250
 4135SOL     OW13084   3.676   2.047   6.824
 4135SOL    HW113085   3.685   1.953   6.838
 4135SOL    HW213086   3.685   2.057   6.729
 4136SOL     OW13087   2.304   2.294   6.124
 4136SOL    HW113088   2.325   2.228   6.058
 4136SOL    HW213089   2.244   2.250   6.183
 4137SOL     OW13090   3.563   3.352   6.683
 4137SOL    HW113091   3.482   3.328   6.639
 4137SOL    HW213092   3.575   3.284   6.749
 4138SOL     OW13093   2.196   2.413   6.881
 4138SOL    HW113094   2.250   2.354   6.934
 4138SOL    HW213095   2.208   2.384   6.791
 4139SOL     OW13096   2.689   3.440   6.262
 4139SOL    HW113097   2.675   3.490   6.182
 4139SOL    HW213098   2.612   3.384   6.269
 4140SOL     OW13099   3.295   2.086   6.704
 4140SOL    HW113100   3.321   2.007   6.752
 4140SOL    HW213101   3.242   2.135   6.767
 4141SOL     OW13102   2.870   1.880   6.729
 4141SOL    HW113103   2.817   1.812   6.690
 4141SOL    HW213104   2.959   1.843   6.732
 4142SOL     OW13105   2.636   3.203   5.898
 4142SOL    HW113106   2.605   3.113   5.895
 4142SOL    HW213107   2.717   3.200   5.949
 4143SOL     OW13108   2.480   3.422   6.868
 4143SOL    HW113109   2.485   3.503   6.919
 4143SOL    HW213110   2.569   3.410   6.834
 4144SOL     OW13111   3.214   1.916   5.751
 4144SOL    HW113112   3.242   1.854   5.684
 4144SOL    HW213113   3.127   1.885   5.777
 4145SOL     OW13114   3.165   2.316   6.267
 4145SOL    HW113115   3.114   2.397   6.276
 4145SOL    HW213116   3.159   2.276   6.354
 4146SOL     OW13117   3.449   2.065   6.463
 4146SOL    HW113118   3.387   2.084   6.534
 4146SOL    HW213119   3.448   2.143   6.408
 4147SOL     OW13120   1.906   2.933   5.891
 4147SOL    HW113121   1.999   2.924   5.872
 4147SOL    HW213122   1.877   2.845   5.915
 4148SOL     OW13123   2.746   3.514   5.929
 4148SOL    HW113124   2.673   3.497   5.868
 4148SOL    HW213125   2.717   3.589   5.980
 4149SOL     OW13126   2.094   2.478   7.570
 4149SOL    HW113127   2.004   2.492   7.602
 4149SOL    HW213128   2.083   2.457   7.478
 4150SOL     OW13129   3.628   2.462   7.680
 4150SOL    HW113130   3.609   2.457   7.586
 4150SOL    HW213131   3.587   2.383   7.716
 4151SOL     OW13132   2.082   3.582   7.919
 4151SOL    HW113133   2.113   3.623   7.999
 4151SOL    HW213134   2.160   3.577   7.863
 4152SOL     OW13135   2.079   3.301   7.988
 4152SOL    HW113136   2.063   3.395   7.991
 4152SOL    HW213137   2.024   3.264   8.057
 4153SOL     OW13138   2.429   2.859   7.569
 4153SOL    HW113139   2.481   2.909   7.506
 4153SOL    HW213140   2.471   2.877   7.653
 4154SOL     OW13141   3.699   3.622   7.797
 4154SOL    HW113142   3.769   3.591   7.855
 4154SOL    HW213143   3.726   3.710   7.772
 4155SOL     OW13144   1.891   3.462   7.577
 4155SOL    HW113145   1.876   3.368   7.592
 4155SOL    HW213146   1.864   3.503   7.659
 4156SOL     OW13147   3.545   2.731   8.038
 4156SOL    HW113148   3.627   2.742   0.005
 4156SOL    HW213149   3.532   2.813   7.991
 4157SOL     OW13150   3.516   2.960   7.877
 4157SOL    HW113151   3.602   2.986   7.845
 4157SOL    HW213152   3.489   3.032   7.934
 4158SOL     OW13153   2.665   1.857   7.942
 4158SOL    HW113154   2.712   1.939   7.923
 4158SOL    HW213155   2.573   1.884   7.948
 4159SOL     OW13156   3.395   2.855   7.648
 4159SOL    HW113157   3.328   2.794   7.680
 4159SOL    HW213158   3.436   2.889   7.727
 4160SOL     OW13159   3.437   3.532   7.757
 4160SOL    HW113160   3.527   3.562   7.765
 4160SOL    HW213161   3.424   3.519   7.663
 4161SOL     OW13162   1.924   2.720   0.093
 4161SOL    HW113163   1.996   2.665   0.125
 4161SOL    HW213164   1.913   2.786   0.161
 4162SOL     OW13165   2.743   2.204   7.641
 4162SOL    HW113166   2.786   2.273   7.590
 4162SOL    HW213167   2.783   2.123   7.610
 4163SOL     OW13168   2.178   2.823   7.695
 4163SOL    HW113169   2.260   2.839   7.649
 4163SOL    HW213170   2.150   2.737   7.664
 4164SOL     OW13171   2.985   3.637   7.682
 4164SOL    HW113172   2.909   3.597   7.723
 4164SOL    HW213173   3.008   3.577   7.611
 4165SOL     OW13174   3.491   3.242   7.533
 4165SOL    HW113175   3.449   3.327   7.520
 4165SOL    HW213176   3.422   3.178   7.516
 4166SOL     OW13177   2.328   3.601   7.769
 4166SOL    HW113178   2.377   3.652   7.833
 4166SOL    HW213179   2.396   3.565   7.711
 4167SOL     OW13180   3.277   1.993   7.864
 4167SOL    HW113181   3.264   1.958   7.776
 4167SOL    HW213182   3.372   1.990   7.877
 4168SOL     OW13183   2.242   2.549   7.903
 4168SOL    HW113184   2.252   2.457   7.927
 4168SOL    HW213185   2.168   2.580   7.955
 4169SOL     OW13186   2.482   1.977   7.567
 4169SOL    HW113187   2.567   1.934   7.569
 4169SOL    HW213188   2.445   1.953   7.482
 4170SOL     OW13189   2.394   1.934   7.959
 4170SOL    HW113190   2.308   1.936   7.999
 4170SOL    HW213191   2.392   2.005   7.895
 4171SOL     OW13192   3.291   3.060   7.490
 4171SOL    HW113193   3.320   2.985   7.541
 4171SOL    HW213194   3.204   3.081   7.526
 4172SOL     OW13195   2.155   1.911   7.633
 4172SOL    HW113196   2.214   1.971   7.586
 4172SOL    HW213197   2.213   1.845   7.671
 4173SOL     OW13198   2.802   2.092   7.909
 4173SOL    HW113199   2.763   2.147   7.841
 4173SOL    HW213200   2.893   2.121   7.914
 4174SOL     OW13201   2.290   3.043   0.092
 4174SOL    HW113202   2.212   3.037   0.148
 4174SOL    HW213203   2.261   3.012   0.007
 4175SOL     OW13204   3.153   3.673   8.015
 4175SOL    HW113205   3.187   3.742   7.958
 4175SOL    HW213206   3.070   3.708   8.047
 4176SOL     OW13207   2.908   2.386   7.470
 4176SOL    HW113208   2.862   2.470   7.465
 4176SOL    HW213209   2.970   2.397   7.542
 4177SOL     OW13210   3.732   2.680   7.803
 4177SOL    HW113211   3.733   2.647   7.893
 4177SOL    HW213212   3.691   2.610   7.752
 4178SOL     OW13213   2.351   3.278   7.606
 4178SOL    HW113214   2.276   3.248   7.658
 4178SOL    HW213215   2.336   3.241   7.519
 4179SOL     OW13216   3.256   2.432   7.519
 4179SOL    HW113217   3.195   2.414   7.590
 4179SOL    HW213218   3.340   2.399   7.549
 4180SOL     OW13219   2.386   2.130   7.772
 4180SOL    HW113220   2.426   2.077   7.704
 4180SOL    HW213221   2.369   2.214   7.730
 4181SOL     OW13222   2.575   2.944   7.823
 4181SOL    HW113223   2.521   2.944   7.902
 4181SOL    HW213224   2.606   2.854   7.815
 4182SOL     OW13225   2.231   2.961   7.926
 4182SOL    HW113226   2.209   3.038   7.875
 4182SOL    HW213227   2.217   2.887   7.867
 4183SOL     OW13228   3.088   3.217   7.822
 4183SOL    HW113229   3.151   3.285   7.847
 4183SOL    HW213230   3.042   3.196   7.902
 4184SOL     OW13231   3.449   2.491   7.922
 4184SOL    HW113232   3.436   2.552   7.995
 4184SOL    HW213233   3.489   2.544   7.853
 4185SOL     OW13234   3.064   2.388   7.715
 4185SOL    HW113235   3.066   2.307   7.766
 4185SOL    HW213236   3.059   2.457   7.781
 4186SOL     OW13237   3.480   2.240   7.816
 4186SOL    HW113238   3.501   2.173   7.881
 4186SOL    HW213239   3.455   2.317   7.867
 4187SOL     OW13240   3.393   2.136   7.576
 4187SOL    HW113241   3.327   2.071   7.601
 4187SOL    HW213242   3.425   2.172   7.658
 4188SOL     OW13243   3.158   2.689   7.482
 4188SOL    HW113244   3.197   2.602   7.481
 4188SOL    HW213245   3.186   2.729   7.399
 4189SOL     OW13246   1.867   3.187   7.641
 4189SOL    HW113247   1.780   3.199   7.603
 4189SOL    HW213248   1.867   3.097   7.674
 4190SOL     OW13249   2.331   2.363   7.644
 4190SOL    HW113250   2.385   2.441   7.657
 4190SOL    HW213251   2.243   2.398   7.631
 4191SOL     OW13252   3.167   2.704   7.755
 4191SOL    HW113253   3.079   2.724   7.788
 4191SOL    HW213254   3.156   2.702   7.660
 4192SOL     OW13255   3.574   2.007   7.950
 4192SOL    HW113256   3.652   1.999   7.894
 4192SOL    HW213257   3.575   1.928   8.004
 4193SOL     OW13258   3.228   3.438   7.898
 4193SOL    HW113259   3.302   3.459   7.841
 4193SOL    HW213260   3.195   3.523   7.927
 4194SOL     OW13261   2.529   3.482   7.604
 4194SOL    HW113262   2.542   3.492   7.509
 4194SOL    HW213263   2.478   3.401   7.613
 4195SOL     OW13264   3.070   3.470   7.478
 4195SOL    HW113265   3.060   3.379   7.506
 4195SOL    HW213266   3.004   3.481   7.410
 4196SOL     OW13267   3.356   3.488   7.489
 4196SOL    HW113268   3.261   3.481   7.477
 4196SOL    HW213269   3.391   3.493   7.400
 4197SOL     OW13270   2.470   3.370   7.935
 4197SOL    HW113271   2.512   3.308   7.877
 4197SOL    HW213272   2.394   3.402   7.887
 4198SOL     OW13273   2.120   3.209   7.739
 4198SOL    HW113274   2.027   3.206   7.714
 4198SOL    HW213275   2.120   3.244   7.828
 4199SOL     OW13276   1.939   2.196   7.484
 4199SOL    HW113277   1.852   2.176   7.448
 4199SOL    HW213278   1.969   2.272   7.434
 4200SOL     OW13279   1.933   2.020   7.759
 4200SOL    HW113280   1.916   2.096   7.704
 4200SOL    HW213281   2.016   1.984   7.727
 4201SOL     OW13282   3.039   3.203   7.556
 4201SOL    HW113283   2.950   3.169   7.558
 4201SOL    HW213284   3.065   3.207   7.649
 4202SOL     OW13285   3.076   2.181   7.901
 4202SOL    HW113286   3.150   2.120   7.892
 4202SOL    HW213287   3.094   2.228   7.982
 4203SOL     OW13288   2.724   3.230   7.479
 4203SOL    HW113289   2.687   3.256   7.563
 4203SOL    HW213290   2.745   3.312   7.435
 4204SOL     OW13291   2.960   2.871   7.545
 4204SOL    HW113292   2.923   2.905   7.464
 4204SOL    HW213293   3.023   2.804   7.516
 4205SOL     OW13294   2.254   2.285   7.982
 4205SOL    HW113295   2.302   2.235   7.915
 4205SOL    HW213296   2.295   2.260   8.065
 4206SOL     OW13297   2.632   3.205   7.756
 4206SOL    HW113298   2.601   3.115   7.762
 4206SOL    HW213299   2.714   3.206   7.805
 4207SOL     OW13300   3.214   1.915   7.610
 4207SOL    HW113301   3.242   1.851   7.545
 4207SOL    HW213302   3.128   1.884   7.639
 4208SOL     OW13303   1.913   2.941   7.750
 4208SOL    HW113304   2.006   2.929   7.733
 4208SOL    HW213305   1.880   2.853   7.766
 4209SOL     OW13306   2.755   3.513   7.782
 4209SOL    HW113307   2.678   3.488   7.730
 4209SOL    HW213308   2.720   3.576   7.845
 4210SOL     OW13309   2.083   4.348   0.121
 4210SOL    HW113310   2.002   4.315   0.160
 4210SOL    HW213311   2.104   4.285   0.051
 4211SOL     OW13312   2.087   4.004   0.991
 4211SOL    HW113313   2.115   3.971   1.076
 4211SOL    HW213314   1.997   3.972   0.982
 4212SOL     OW13315   1.867   4.107   0.638
 4212SOL    HW113316   1.784   4.132   0.679
 4212SOL    HW213317   1.846   4.027   0.590
 4213SOL     OW13318   2.428   5.004   1.177
 4213SOL    HW113319   2.343   5.003   1.134
 4213SOL    HW213320   2.439   5.095   1.205
 4214SOL     OW13321   3.417   5.232   0.688
 4214SOL    HW113322   3.392   5.229   0.780
 4214SOL    HW213323   3.340   5.268   0.644
 4215SOL     OW13324   2.992   4.422   0.702
 4215SOL    HW113325   3.041   4.503   0.688
 4215SOL    HW213326   2.945   4.437   0.785
 4216SOL     OW13327   3.631   4.325   0.233
 4216SOL    HW113328   3.593   4.325   0.145
 4216SOL    HW213329   3.591   4.249   0.276
 4217SOL     OW13330   2.619   4.869   1.037
 4217SOL    HW113331   2.551   4.900   1.097
 4217SOL    HW213332   2.649   4.947   0.991
 4218SOL     OW13333   2.727   4.501   1.822
 4218SOL    HW113334   2.714   4.572   1.884
 4218SOL    HW213335   2.751   4.544   1.740
 4219SOL     OW13336   2.547   4.727   0.651
 4219SOL    HW113337   2.612   4.715   0.720
 4219SOL    HW213338   2.478   4.780   0.691
 4220SOL     OW13339   2.570   4.873   1.810
 4220SOL    HW113340   2.618   4.952   1.835
 4220SOL    HW213341   2.486   4.905   1.776
 4221SOL     OW13342   2.199   5.153   1.061
 4221SOL    HW113343   2.122   5.109   1.023
 4221SOL    HW213344   2.240   5.197   0.986
 4222SOL     OW13345   3.317   5.220   1.347
 4222SOL    HW113346   3.371   5.293   1.378
 4222SOL    HW213347   3.251   5.207   1.414
 4223SOL     OW13348   2.310   4.122   1.488
 4223SOL    HW113349   2.385   4.063   1.493
 4223SOL    HW213350   2.234   4.066   1.501
 4224SOL     OW13351   3.475   4.172   0.740
 4224SOL    HW113352   3.399   4.196   0.687
 4224SOL    HW213353   3.491   4.250   0.794
 4225SOL     OW13354   2.995   5.072   1.699
 4225SOL    HW113355   3.026   5.072   1.790
 4225SOL    HW213356   2.942   4.993   1.693
 4226SOL     OW13357   2.070   5.155   0.516
 4226SOL    HW113358   2.097   5.238   0.555
 4226SOL    HW213359   2.017   5.112   0.584
 4227SOL     OW13360   2.118   4.811   0.891
 4227SOL    HW113361   2.116   4.725   0.931
 4227SOL    HW213362   2.061   4.865   0.946
 4228SOL     OW13363   2.493   4.686   0.131
 4228SOL    HW113364   2.442   4.763   0.105
 4228SOL    HW213365   2.540   4.713   0.209
 4229SOL     OW13366   3.458   3.846   1.469
 4229SOL    HW113367   3.462   3.927   1.417
 4229SOL    HW213368   3.445   3.877   1.559
 4230SOL     OW13369   1.977   4.374   0.561
 4230SOL    HW113370   1.946   4.285   0.583
 4230SOL    HW213371   1.968   4.422   0.644
 4231SOL     OW13372   1.840   0.018   0.096
 4231SOL    HW113373   1.857   5.229   0.124
 4231SOL    HW213374   1.869   0.072   0.170
 4232SOL     OW13375   3.549   4.642   0.642
 4232SOL    HW113376   3.633   4.601   0.621
 4232SOL    HW213377   3.528   4.694   0.564
 4233SOL     OW13378   3.508   4.830   0.434
 4233SOL    HW113379   3.589   4.843   0.385
 4233SOL    HW213380   3.514   4.891   0.507
 4234SOL     OW13381   1.985   4.466   1.586
 4234SOL    HW113382   2.077   4.490   1.596
 4234SOL    HW213383   1.937   4.549   1.594
 4235SOL     OW13384   2.483   5.098   0.736
 4235SOL    HW113385   2.429   5.019   0.735
 4235SOL    HW213386   2.465   5.141   0.653
 4236SOL     OW13387   3.151   4.955   1.426
 4236SOL    HW113388   3.186   4.890   1.365
 4236SOL    HW213389   3.210   4.952   1.501
 4237SOL     OW13390   2.677   3.725   0.509
 4237SOL    HW113391   2.716   3.810   0.489
 4237SOL    HW213392   2.583   3.744   0.518
 4238SOL     OW13393   2.053   4.691   1.269
 4238SOL    HW113394   2.137   4.648   1.254
 4238SOL    HW213395   1.989   4.635   1.225
 4239SOL     OW13396   3.373   4.733   0.209
 4239SOL    HW113397   3.313   4.665   0.240
 4239SOL    HW213398   3.425   4.756   0.286
 4240SOL     OW13399   2.194   3.975   1.809
 4240SOL    HW113400   2.239   4.057   1.826
 4240SOL    HW213401   2.105   3.989   1.842
 4241SOL     OW13402   3.338   5.146   0.963
 4241SOL    HW113403   3.264   5.158   1.023
 4241SOL    HW213404   3.325   5.058   0.928
 4242SOL     OW13405   2.460   4.439   0.282
 4242SOL    HW113406   2.479   4.515   0.227
 4242SOL    HW213407   2.395   4.470   0.345
 4243SOL     OW13408   3.141   4.074   0.932
 4243SOL    HW113409   3.052   4.042   0.941
 4243SOL    HW213410   3.192   4.022   0.994
 4244SOL     OW13411   2.654   4.341   1.452
 4244SOL    HW113412   2.628   4.318   1.541
 4244SOL    HW213413   2.613   4.275   1.396
 4245SOL     OW13414   3.255   4.198   1.678
 4245SOL    HW113415   3.257   4.242   1.762
 4245SOL    HW213416   3.318   4.126   1.687
 4246SOL     OW13417   2.818   4.612   1.582
 4246SOL    HW113418   2.872   4.542   1.547
 4246SOL    HW213419   2.770   4.646   1.506
 4247SOL     OW13420   2.854   4.137   1.239
 4247SOL    HW113421   2.770   4.159   1.278
 4247SOL    HW213422   2.833   4.090   1.159
 4248SOL     OW13423   2.914   4.422   0.427
 4248SOL    HW113424   2.928   4.416   0.522
 4248SOL    HW213425   2.831   4.376   0.412
 4249SOL     OW13426   1.951   4.545   0.775
 4249SOL    HW113427   2.032   4.538   0.826
 4249SOL    HW213428   1.907   4.622   0.811
 4250SOL     OW13429   2.746   4.081   0.201
 4250SOL    HW113430   2.791   4.130   0.132
 4250SOL    HW213431   2.746   3.990   0.170
 4251SOL     OW13432   3.571   4.299   1.828
 4251SOL    HW113433   3.533   4.374   1.781
 4251SOL    HW213434   3.598   4.239   1.759
 4252SOL     OW13435   3.237   4.864   0.540
 4252SOL    HW113436   3.318   4.850   0.490
 4252SOL    HW213437   3.187   4.926   0.488
 4253SOL     OW13438   2.411   3.907   0.892
 4253SOL    HW113439   2.414   3.935   0.984
 4253SOL    HW213440   2.414   3.989   0.843
 4254SOL     OW13441   2.880   5.166   0.469
 4254SOL    HW113442   2.805   5.225   0.463
 4254SOL    HW213443   2.900   5.160   0.562
 4255SOL     OW13444   3.661   4.781   0.867
 4255SOL    HW113445   3.603   4.765   0.792
 4255SOL    HW213446   3.603   4.788   0.942
 4256SOL     OW13447   3.112   5.239   1.523
 4256SOL    HW113448   3.075   5.173   1.582
 4256SOL    HW213449   3.041   5.258   1.461
 4257SOL     OW13450   2.190   4.665   0.252
 4257SOL    HW113451   2.261   4.706   0.203
 4257SOL    HW213452   2.188   4.575   0.222
 4258SOL     OW13453   3.339   4.464   0.727
 4258SOL    HW113454   3.330   4.421   0.812
 4258SOL    HW213455   3.416   4.520   0.737
 4259SOL     OW13456   2.326   4.988   1.740
 4259SOL    HW113457   2.299   4.990   1.648
 4259SOL    HW213458   2.244   4.986   1.789
 4260SOL     OW13459   3.018   0.161   0.238
 4260SOL    HW113460   2.933   0.176   0.279
 4260SOL    HW213461   2.997   0.143   0.146
 4261SOL     OW13462   2.062   4.006   1.500
 4261SOL    HW113463   1.980   4.055   1.495
 4261SOL    HW213464   2.046   3.939   1.567
 4262SOL     OW13465   3.492   5.095   0.076
 4262SOL    HW113466   3.454   5.181   0.091
 4262SOL    HW213467   3.417   5.037   0.062
 4263SOL     OW13468   3.269   3.834   0.442
 4263SOL    HW113469   3.259   3.814   0.350
 4263SOL    HW213470   3.363   3.842   0.455
 4264SOL     OW13471   2.248   4.421   0.477
 4264SOL    HW113472   2.273   4.330   0.487
 4264SOL    HW213473   2.155   4.423   0.500
 4265SOL     OW13474   3.399   3.949   1.725
 4265SOL    HW113475   3.407   3.970   1.818
 4265SOL    HW213476   3.329   3.883   1.722
 4266SOL     OW13477   2.491   3.836   0.135
 4266SOL    HW113478   2.585   3.823   0.142
 4266SOL    HW213479   2.471   3.816   0.043
 4267SOL     OW13480   2.629   4.001   1.753
 4267SOL    HW113481   2.704   3.941   1.757
 4267SOL    HW213482   2.580   3.983   1.833
 4268SOL     OW13483   3.203   4.312   1.432
 4268SOL    HW113484   3.234   4.281   1.517
 4268SOL    HW213485   3.239   4.401   1.424
 4269SOL     OW13486   2.673   5.121   0.935
 4269SOL    HW113487   2.754   5.106   0.886
 4269SOL    HW213488   2.605   5.127   0.868
 4270SOL     OW13489   2.789   4.233   0.903
 4270SOL    HW113490   2.766   4.225   0.811
 4270SOL    HW213491   2.821   4.146   0.927
 4271SOL     OW13492   2.411   3.787   0.506
 4271SOL    HW113493   2.330   3.787   0.558
 4271SOL    HW213494   2.405   3.866   0.452
 4272SOL     OW13495   3.289   4.925   0.036
 4272SOL    HW113496   3.318   4.851   0.089
 4272SOL    HW213497   3.202   4.946   0.071
 4273SOL     OW13498   2.171   3.778   0.168
 4273SOL    HW113499   2.236   3.847   0.183
 4273SOL    HW213500   2.209   3.701   0.211
 4274SOL     OW13501   2.801   3.970   0.460
 4274SOL    HW113502   2.773   4.012   0.379
 4274SOL    HW213503   2.895   3.985   0.464
 4275SOL     OW13504   2.942   4.404   1.460
 4275SOL    HW113505   2.873   4.338   1.465
 4275SOL    HW213506   3.023   4.354   1.453
 4276SOL     OW13507   3.124   5.266   0.782
 4276SOL    HW113508   3.089   0.048   0.747
 4276SOL    HW213509   3.169   5.292   0.862
 4277SOL     OW13510   2.326   4.872   0.732
 4277SOL    HW113511   2.258   4.852   0.796
 4277SOL    HW213512   2.286   4.854   0.647
 4278SOL     OW13513   2.894   4.255   0.029
 4278SOL    HW113514   2.851   4.335   8.080
 4278SOL    HW213515   2.956   4.284   0.096
 4279SOL     OW13516   1.940   4.279   1.392
 4279SOL    HW113517   2.032   4.277   1.365
 4279SOL    HW213518   1.935   4.349   1.457
 4280SOL     OW13519   2.422   3.951   1.165
 4280SOL    HW113520   2.463   3.873   1.203
 4280SOL    HW213521   2.331   3.948   1.195
 4281SOL     OW13522   2.729   4.182   0.639
 4281SOL    HW113523   2.687   4.238   0.574
 4281SOL    HW213524   2.751   4.102   0.592
 4282SOL     OW13525   2.878   3.777   0.751
 4282SOL    HW113526   2.818   3.770   0.677
 4282SOL    HW213527   2.855   3.702   0.806
 4283SOL     OW13528   3.299   4.889   0.859
 4283SOL    HW113529   3.232   4.821   0.855
 4283SOL    HW213530   3.323   4.904   0.767
 4284SOL     OW13531   3.329   4.328   0.978
 4284SOL    HW113532   3.279   4.246   0.982
 4284SOL    HW213533   3.389   4.323   1.053
 4285SOL     OW13534   3.710   4.540   0.388
 4285SOL    HW113535   3.762   4.486   0.448
 4285SOL    HW213536   3.679   4.478   0.322
 4286SOL     OW13537   2.329   5.160   0.157
 4286SOL    HW113538   2.281   5.103   0.217
 4286SOL    HW213539   2.364   5.101   0.090
 4287SOL     OW13540   3.531   4.988   0.648
 4287SOL    HW113541   3.625   4.995   0.666
 4287SOL    HW213542   3.497   5.075   0.665
 4288SOL     OW13543   3.260   4.304   0.087
 4288SOL    HW113544   3.198   4.284   0.157
 4288SOL    HW213545   3.318   4.228   0.083
 4289SOL     OW13546   2.380   3.987   0.324
 4289SOL    HW113547   2.429   3.935   0.261
 4289SOL    HW213548   2.368   4.072   0.281
 4290SOL     OW13549   3.614   4.959   1.577
 4290SOL    HW113550   3.700   4.918   1.576
 4290SOL    HW213551   3.632   5.052   1.591
 4291SOL     OW13552   2.927   5.075   1.331
 4291SOL    HW113553   2.849   5.049   1.380
 4291SOL    HW213554   2.999   5.035   1.379
 4292SOL     OW13555   2.987   4.925   1.108
 4292SOL    HW113556   2.936   4.967   1.177
 4292SOL    HW213557   2.944   4.953   1.027
 4293SOL     OW13558   3.492   4.823   1.077
 4293SOL    HW113559   3.487   4.884   1.150
 4293SOL    HW213560   3.413   4.841   1.026
 4294SOL     OW13561   2.780   3.822   1.397
 4294SOL    HW113562   2.803   3.803   1.306
 4294SOL    HW213563   2.859   3.861   1.434
 4295SOL     OW13564   2.846   4.839   1.725
 4295SOL    HW113565   2.754   4.854   1.743
 4295SOL    HW213566   2.847   4.762   1.667
 4296SOL     OW13567   2.571   4.782   0.380
 4296SOL    HW113568   2.556   4.766   0.474
 4296SOL    HW213569   2.650   4.733   0.360
 4297SOL     OW13570   2.280   4.538   1.251
 4297SOL    HW113571   2.349   4.548   1.317
 4297SOL    HW213572   2.245   4.450   1.266
 4298SOL     OW13573   3.128   4.101   1.274
 4298SOL    HW113574   3.161   4.179   1.320
 4298SOL    HW213575   3.038   4.124   1.251
 4299SOL     OW13576   2.207   4.831   0.491
 4299SOL    HW113577   2.211   4.904   0.429
 4299SOL    HW213578   2.217   4.753   0.437
 4300SOL     OW13579   2.415   4.261   0.860
 4300SOL    HW113580   2.431   4.319   0.786
 4300SOL    HW213581   2.480   4.288   0.926
 4301SOL     OW13582   3.119   5.072   0.387
 4301SOL    HW113583   3.173   5.146   0.412
 4301SOL    HW213584   3.030   5.096   0.413
 4302SOL     OW13585   3.130   5.181   1.142
 4302SOL    HW113586   3.190   5.194   1.216
 4302SOL    HW213587   3.086   5.098   1.161
 4303SOL     OW13588   3.445   4.348   0.480
 4303SOL    HW113589   3.397   4.400   0.545
 4303SOL    HW213590   3.482   4.413   0.420
 4304SOL     OW13591   2.210   5.236   1.316
 4304SOL    HW113592   2.199   5.201   1.227
 4304SOL    HW213593   2.303   5.257   1.321
 4305SOL     OW13594   2.276   4.469   1.602
 4305SOL    HW113595   2.337   4.513   1.544
 4305SOL    HW213596   2.316   4.383   1.618
 4306SOL     OW13597   3.462   4.502   1.681
 4306SOL    HW113598   3.376   4.543   1.674
 4306SOL    HW213599   3.514   4.544   1.613
 4307SOL     OW13600   2.858   3.845   1.756
 4307SOL    HW113601   2.912   3.918   1.726
 4307SOL    HW213602   2.907   3.767   1.730
 4308SOL     OW13603   2.360   3.766   1.747
 4308SOL    HW113604   2.318   3.711   1.681
 4308SOL    HW213605   2.300   3.839   1.759
 4309SOL     OW13606   2.444   4.596   1.031
 4309SOL    HW113607   2.475   4.687   1.029
 4309SOL    HW213608   2.388   4.591   1.108
 4310SOL     OW13609   3.221   4.582   1.030
 4310SOL    HW113610   3.138   4.574   0.982
 4310SOL    HW213611   3.260   4.495   1.026
 4311SOL     OW13612   3.067   4.252   0.271
 4311SOL    HW113613   3.074   4.173   0.325
 4311SOL    HW213614   3.024   4.316   0.328
 4312SOL     OW13615   2.161   3.923   1.246
 4312SOL    HW113616   2.124   3.956   1.328
 4312SOL    HW213617   2.142   3.829   1.247
 4313SOL     OW13618   1.914   5.046   1.284
 4313SOL    HW113619   1.939   4.982   1.351
 4313SOL    HW213620   1.948   5.129   1.315
 4314SOL     OW13621   2.586   4.355   1.058
 4314SOL    HW113622   2.661   4.338   1.000
 4314SOL    HW213623   2.559   4.444   1.037
 4315SOL     OW13624   3.596   4.683   1.851
 4315SOL    HW113625   3.549   4.624   1.793
 4315SOL    HW213626   3.536   4.696   1.925
 4316SOL     OW13627   2.164   3.789   0.623
 4316SOL    HW113628   2.146   3.880   0.647
 4316SOL    HW213629   2.171   3.743   0.707
 4317SOL     OW13630   3.481   4.098   0.370
 4317SOL    HW113631   3.506   4.034   0.437
 4317SOL    HW213632   3.456   4.176   0.420
 4318SOL     OW13633   2.889   4.483   0.961
 4318SOL    HW113634   2.887   4.501   1.055
 4318SOL    HW213635   2.863   4.392   0.953
 4319SOL     OW13636   3.716   5.214   1.586
 4319SOL    HW113637   3.714   5.288   1.525
 4319SOL    HW213638   3.785   5.237   1.648
 4320SOL     OW13639   2.215   4.640   1.808
 4320SOL    HW113640   2.297   4.658   1.854
 4320SOL    HW213641   2.239   4.578   1.740
 4321SOL     OW13642   3.383   4.022   0.126
 4321SOL    HW113643   3.332   3.942   0.142
 4321SOL    HW213644   3.421   4.044   0.211
 4322SOL     OW13645   3.156   4.549   0.020
 4322SOL    HW113646   3.195   4.463   0.040
 4322SOL    HW213647   3.215   4.587   8.035
 4323SOL     OW13648   2.920   5.077   0.829
 4323SOL    HW113649   2.926   4.993   0.784
 4323SOL    HW213650   3.006   5.117   0.815
 4324SOL     OW13651   2.171   4.533   0.947
 4324SOL    HW113652   2.264   4.554   0.941
 4324SOL    HW213653   2.169   4.444   0.981
 4325SOL     OW13654   2.194   4.249   1.012
 4325SOL    HW113655   2.159   4.161   0.997
 4325SOL    HW213656   2.270   4.255   0.954
 4326SOL     OW13657   2.996   4.101   1.681
 4326SOL    HW113658   2.949   4.156   1.744
 4326SOL    HW213659   3.084   4.138   1.677
 4327SOL     OW13660   3.023   3.927   1.470
 4327SOL    HW113661   3.012   3.990   1.541
 4327SOL    HW213662   3.061   3.978   1.399
 4328SOL     OW13663   1.872   5.045   0.181
 4328SOL    HW113664   1.784   5.058   0.146
 4328SOL    HW213665   1.871   4.958   0.220
 4329SOL     OW13666   2.846   4.517   1.227
 4329SOL    HW113667   2.902   4.493   1.302
 4329SOL    HW213668   2.761   4.480   1.249
 4330SOL     OW13669   1.898   4.268   1.116
 4330SOL    HW113670   1.979   4.253   1.068
 4330SOL    HW213671   1.925   4.273   1.208
 4331SOL     OW13672   2.053   4.243   1.727
 4331SOL    HW113673   2.110   4.206   1.660
 4331SOL    HW213674   2.009   4.316   1.683
 4332SOL     OW13675   3.238   4.664   1.659
 4332SOL    HW113676   3.259   4.757   1.657
 4332SOL    HW213677   3.235   4.638   1.566
 4333SOL     OW13678   2.680   4.294   0.365
 4333SOL    HW113679   2.689   4.222   0.302
 4333SOL    HW213680   2.604   4.343   0.335
 4334SOL     OW13681   3.504   4.325   1.187
 4334SOL    HW113682   3.494   4.266   1.262
 4334SOL    HW213683   3.591   4.305   1.153
 4335SOL     OW13684   2.069   5.277   1.745
 4335SOL    HW113685   2.056   0.030   1.824
 4335SOL    HW213686   2.081   5.188   1.777
 4336SOL     OW13687   2.561   4.176   1.261
 4336SOL    HW113688   2.509   4.101   1.230
 4336SOL    HW213689   2.558   4.238   1.188
 4337SOL     OW13690   2.330   4.214   0.180
 4337SOL    HW113691   2.397   4.281   0.199
 4337SOL    HW213692   2.247   4.260   0.190
 4338SOL     OW13693   2.008   4.863   1.470
 4338SOL    HW113694   2.011   4.811   1.551
 4338SOL    HW213695   2.025   4.800   1.401
 4339SOL     OW13696   3.190   4.770   1.223
 4339SOL    HW113697   3.213   4.708   1.154
 4339SOL    HW213698   3.118   4.821   1.186
 4340SOL     OW13699   3.169   4.573   0.308
 4340SOL    HW113700   3.091   4.546   0.357
 4340SOL    HW213701   3.144   4.563   0.216
 4341SOL     OW13702   1.954   4.986   1.021
 4341SOL    HW113703   1.934   5.003   1.113
 4341SOL    HW213704   1.875   4.948   0.985
 4342SOL     OW13705   2.613   0.040   1.709
 4342SOL    HW113706   2.520   0.062   1.720
 4342SOL    HW213707   2.632   0.063   1.618
 4343SOL     OW13708   2.767   3.815   0.134
 4343SOL    HW113709   2.786   3.799   0.042
 4343SOL    HW213710   2.830   3.762   0.182
 4344SOL     OW13711   3.580   3.868   0.510
 4344SOL    HW113712   3.653   3.853   0.450
 4344SOL    HW213713   3.565   3.783   0.552
 4345SOL     OW13714   3.139   4.649   0.671
 4345SOL    HW113715   3.213   4.587   0.677
 4345SOL    HW213716   3.173   4.721   0.619
 4346SOL     OW13717   2.682   4.994   1.423
 4346SOL    HW113718   2.653   5.030   1.507
 4346SOL    HW213719   2.607   5.005   1.366
 4347SOL     OW13720   3.702   3.897   0.967
 4347SOL    HW113721   3.731   3.810   0.939
 4347SOL    HW213722   3.616   3.907   0.927
 4348SOL     OW13723   2.125   4.040   0.718
 4348SOL    HW113724   2.039   4.076   0.694
 4348SOL    HW213725   2.121   4.032   0.813
 4349SOL     OW13726   3.004   0.020   0.005
 4349SOL    HW113727   3.019   5.230   0.035
 4349SOL    HW213728   3.005   0.015   7.990
 4350SOL     OW13729   2.687   4.728   1.370
 4350SOL    HW113730   2.733   4.723   1.287
 4350SOL    HW213731   2.690   4.821   1.394
 4351SOL     OW13732   2.781   4.639   0.299
 4351SOL    HW113733   2.836   4.665   0.225
 4351SOL    HW213734   2.828   4.565   0.338
 4352SOL     OW13735   2.228   5.025   1.496
 4352SOL    HW113736   2.217   5.100   1.437
 4352SOL    HW213737   2.152   4.969   1.479
 4353SOL     OW13738   3.474   5.004   1.282
 4353SOL    HW113739   3.532   4.999   1.359
 4353SOL    HW213740   3.412   5.074   1.304
 4354SOL     OW13741   2.914   4.833   0.711
 4354SOL    HW113742   2.842   4.781   0.747
 4354SOL    HW213743   2.975   4.768   0.675
 4355SOL     OW13744   2.882   3.964   0.966
 4355SOL    HW113745   2.878   3.916   0.883
 4355SOL    HW213746   2.877   3.896   1.033
 4356SOL     OW13747   3.583   4.116   1.380
 4356SOL    HW113748   3.655   4.179   1.379
 4356SOL    HW213749   3.613   4.045   1.324
 4357SOL     OW13750   2.126   5.029   0.288
 4357SOL    HW113751   2.044   5.046   0.242
 4357SOL    HW213752   2.118   5.080   0.369
 4358SOL     OW13753   1.974   4.744   1.718
 4358SOL    HW113754   1.898   4.721   1.772
 4358SOL    HW213755   2.049   4.708   1.766
 4359SOL     OW13756   2.536   3.920   1.499
 4359SOL    HW113757   2.620   3.901   1.457
 4359SOL    HW213758   2.559   3.951   1.587
 4360SOL     OW13759   1.919   4.087   0.039
 4360SOL    HW113760   1.846   4.031   0.015
 4360SOL    HW213761   1.966   4.102   8.037
 4361SOL     OW13762   3.293   4.582   1.401
 4361SOL    HW113763   3.244   4.642   1.345
 4361SOL    HW213764   3.382   4.585   1.367
 4362SOL     OW13765   1.933   3.879   0.307
 4362SOL    HW113766   1.918   3.963   0.264
 4362SOL    HW213767   2.017   3.849   0.273
 4363SOL     OW13768   3.044   5.064   0.113
 4363SOL    HW113769   2.949   5.049   0.112
 4363SOL    HW213770   3.067   5.060   0.206
 4364SOL     OW13771   2.481   4.555   1.433
 4364SOL    HW113772   2.537   4.631   1.417
 4364SOL    HW213773   2.542   4.481   1.442
 4365SOL     OW13774   2.580   4.288   1.705
 4365SOL    HW113775   2.618   4.352   1.765
 4365SOL    HW213776   2.610   4.203   1.736
 4366SOL     OW13777   3.334   4.924   1.632
 4366SOL    HW113778   3.321   4.936   1.726
 4366SOL    HW213779   3.428   4.937   1.619
 4367SOL     OW13780   3.533   4.606   1.255
 4367SOL    HW113781   3.525   4.520   1.212
 4367SOL    HW213782   3.523   4.669   1.184
 4368SOL     OW13783   3.079   4.042   0.459
 4368SOL    HW113784   3.145   3.972   0.452
 4368SOL    HW213785   3.107   4.092   0.536
 4369SOL     OW13786   2.451   4.462   0.669
 4369SOL    HW113787   2.491   4.548   0.654
 4369SOL    HW213788   2.382   4.457   0.602
 4370SOL     OW13789   3.626   4.085   1.650
 4370SOL    HW113790   3.608   4.100   1.557
 4370SOL    HW213791   3.554   4.028   1.679
 4371SOL     OW13792   3.606   4.657   1.512
 4371SOL    HW113793   3.604   4.752   1.525
 4371SOL    HW213794   3.591   4.646   1.418
 4372SOL     OW13795   2.769   5.097   0.036
 4372SOL    HW113796   2.709   5.080   0.108
 4372SOL    HW213797   2.723   5.162   8.061
 4373SOL     OW13798   2.729   4.690   0.856
 4373SOL    HW113799   2.779   4.619   0.896
 4373SOL    HW213800   2.695   4.741   0.930
 4374SOL     OW13801   2.942   4.704   0.088
 4374SOL    HW113802   2.922   4.757   0.012
 4374SOL    HW213803   3.019   4.653   0.062
 4375SOL     OW13804   2.085   5.025   1.853
 4375SOL    HW113805   2.017   4.963   1.828
 4375SOL    HW213806   2.074   5.037   1.947
 4376SOL     OW13807   1.948   4.955   0.669
 4376SOL    HW113808   1.946   4.902   0.749
 4376SOL    HW213809   2.017   4.915   0.616
 4377SOL     OW13810   2.531   5.109   1.608
 4377SOL    HW113811   2.457   5.073   1.656
 4377SOL    HW213812   2.562   5.182   1.662
 4378SOL     OW13813   3.674   3.909   1.238
 4378SOL    HW113814   3.686   3.815   1.253
 4378SOL    HW213815   3.684   3.919   1.143
 4379SOL     OW13816   2.287   4.160   0.523
 4379SOL    HW113817   2.320   4.088   0.469
 4379SOL    HW213818   2.243   4.116   0.596
 4380SOL     OW13819   3.569   5.223   1.119
 4380SOL    HW113820   3.495   5.206   1.060
 4380SOL    HW213821   3.576   5.143   1.172
 4381SOL     OW13822   2.191   4.278   1.291
 4381SOL    HW113823   2.246   4.223   1.347
 4381SOL    HW213824   2.211   4.250   1.202
 4382SOL     OW13825   3.294   3.948   1.118
 4382SOL    HW113826   3.321   3.870   1.166
 4382SOL    HW213827   3.242   3.998   1.181
 4383SOL     OW13828   2.871   3.743   1.144
 4383SOL    HW113829   2.816   3.675   1.105
 4383SOL    HW213830   2.958   3.706   1.145
 4384SOL     OW13831   2.656   5.040   0.283
 4384SOL    HW113832   2.600   4.966   0.308
 4384SOL    HW213833   2.715   5.052   0.357
 4385SOL     OW13834   2.483   5.299   1.289
 4385SOL    HW113835   2.491   0.054   1.367
 4385SOL    HW213836   2.574   5.279   1.265
 4386SOL     OW13837   3.218   3.778   0.184
 4386SOL    HW113838   3.240   3.731   0.103
 4386SOL    HW213839   3.133   3.745   0.209
 4387SOL     OW13840   3.159   4.185   0.682
 4387SOL    HW113841   3.106   4.264   0.689
 4387SOL    HW213842   3.155   4.145   0.769
 4388SOL     OW13843   3.449   3.927   0.877
 4388SOL    HW113844   3.387   3.947   0.948
 4388SOL    HW213845   3.448   4.005   0.823
 4389SOL     OW13846   1.903   4.792   0.303
 4389SOL    HW113847   1.998   4.794   0.306
 4389SOL    HW213848   1.879   4.709   0.343
 4390SOL     OW13849   2.092   4.347   1.984
 4390SOL    HW113850   2.002   4.347   2.018
 4390SOL    HW213851   2.083   4.321   1.893
 4391SOL     OW13852   2.086   4.005   2.853
 4391SOL    HW113853   2.115   3.971   2.938
 4391SOL    HW213854   1.997   3.972   2.843
 4392SOL     OW13855   1.867   4.107   2.500
 4392SOL    HW113856   1.784   4.131   2.541
 4392SOL    HW213857   1.847   4.027   2.451
 4393SOL     OW13858   2.428   5.004   3.039
 4393SOL    HW113859   2.343   5.002   2.996
 4393SOL    HW213860   2.439   5.095   3.067
 4394SOL     OW13861   3.417   5.232   2.551
 4394SOL    HW113862   3.395   5.229   2.644
 4394SOL    HW213863   3.338   5.267   2.509
 4395SOL     OW13864   2.992   4.422   2.564
 4395SOL    HW113865   3.041   4.503   2.550
 4395SOL    HW213866   2.945   4.437   2.646
 4396SOL     OW13867   3.628   4.330   2.091
 4396SOL    HW113868   3.608   4.322   1.998
 4396SOL    HW213869   3.593   4.250   2.131
 4397SOL     OW13870   2.620   4.869   2.900
 4397SOL    HW113871   2.551   4.900   2.959
 4397SOL    HW213872   2.649   4.948   2.854
 4398SOL     OW13873   2.727   4.501   3.684
 4398SOL    HW113874   2.714   4.573   3.746
 4398SOL    HW213875   2.751   4.544   3.602
 4399SOL     OW13876   2.548   4.728   2.510
 4399SOL    HW113877   2.612   4.716   2.580
 4399SOL    HW213878   2.479   4.780   2.551
 4400SOL     OW13879   2.570   4.873   3.672
 4400SOL    HW113880   2.618   4.952   3.697
 4400SOL    HW213881   2.486   4.905   3.638
 4401SOL     OW13882   2.199   5.153   2.923
 4401SOL    HW113883   2.122   5.109   2.886
 4401SOL    HW213884   2.240   5.196   2.848
 4402SOL     OW13885   3.317   5.220   3.209
 4402SOL    HW113886   3.370   5.293   3.240
 4402SOL    HW213887   3.251   5.207   3.276
 4403SOL     OW13888   2.310   4.123   3.351
 4403SOL    HW113889   2.386   4.064   3.355
 4403SOL    HW213890   2.235   4.065   3.362
 4404SOL     OW13891   3.474   4.172   2.602
 4404SOL    HW113892   3.399   4.196   2.548
 4404SOL    HW213893   3.492   4.250   2.655
 4405SOL     OW13894   2.995   5.072   3.561
 4405SOL    HW113895   3.026   5.072   3.652
 4405SOL    HW213896   2.942   4.993   3.555
 4406SOL     OW13897   2.072   5.155   2.382
 4406SOL    HW113898   2.097   5.238   2.422
 4406SOL    HW213899   2.020   5.110   2.448
 4407SOL     OW13900   2.119   4.811   2.754
 4407SOL    HW113901   2.116   4.724   2.793
 4407SOL    HW213902   2.061   4.864   2.808
 4408SOL     OW13903   2.449   4.705   1.995
 4408SOL    HW113904   2.494   4.754   1.927
 4408SOL    HW213905   2.488   4.734   2.077
 4409SOL     OW13906   3.454   3.849   3.329
 4409SOL    HW113907   3.461   3.930   3.278
 4409SOL    HW213908   3.444   3.878   3.419
 4410SOL     OW13909   1.977   4.376   2.421
 4410SOL    HW113910   1.948   4.287   2.442
 4410SOL    HW213911   1.968   4.424   2.504
 4411SOL     OW13912   1.849   0.014   1.961
 4411SOL    HW113913   1.865   5.225   1.991
 4411SOL    HW213914   1.871   0.069   2.036
 4412SOL     OW13915   3.551   4.642   2.501
 4412SOL    HW113916   3.635   4.601   2.482
 4412SOL    HW213917   3.530   4.693   2.423
 4413SOL     OW13918   3.507   4.831   2.292
 4413SOL    HW113919   3.592   4.837   2.248
 4413SOL    HW213920   3.513   4.892   2.365
 4414SOL     OW13921   1.985   4.466   3.448
 4414SOL    HW113922   2.077   4.490   3.458
 4414SOL    HW213923   1.937   4.549   3.456
 4415SOL     OW13924   2.484   5.097   2.598
 4415SOL    HW113925   2.429   5.018   2.597
 4415SOL    HW213926   2.464   5.140   2.514
 4416SOL     OW13927   3.151   4.955   3.288
 4416SOL    HW113928   3.186   4.890   3.227
 4416SOL    HW213929   3.210   4.952   3.363
 4417SOL     OW13930   2.675   3.724   2.367
 4417SOL    HW113931   2.716   3.809   2.351
 4417SOL    HW213932   2.582   3.743   2.378
 4418SOL     OW13933   2.053   4.691   3.131
 4418SOL    HW113934   2.137   4.648   3.116
 4418SOL    HW213935   1.989   4.635   3.087
 4419SOL     OW13936   3.393   4.718   2.059
 4419SOL    HW113937   3.323   4.660   2.090
 4419SOL    HW213938   3.434   4.752   2.138
 4420SOL     OW13939   2.192   3.980   3.672
 4420SOL    HW113940   2.236   4.062   3.690
 4420SOL    HW213941   2.103   3.993   3.706
 4421SOL     OW13942   3.337   5.146   2.824
 4421SOL    HW113943   3.265   5.158   2.885
 4421SOL    HW213944   3.325   5.058   2.790
 4422SOL     OW13945   2.458   4.446   2.127
 4422SOL    HW113946   2.465   4.527   2.077
 4422SOL    HW213947   2.393   4.465   2.195
 4423SOL     OW13948   3.141   4.075   2.794
 4423SOL    HW113949   3.052   4.042   2.802
 4423SOL    HW213950   3.192   4.022   2.856
 4424SOL     OW13951   2.654   4.341   3.314
 4424SOL    HW113952   2.628   4.318   3.403
 4424SOL    HW213953   2.613   4.275   3.258
 4425SOL     OW13954   3.255   4.198   3.540
 4425SOL    HW113955   3.257   4.243   3.624
 4425SOL    HW213956   3.318   4.127   3.549
 4426SOL     OW13957   2.818   4.612   3.444
 4426SOL    HW113958   2.872   4.542   3.409
 4426SOL    HW213959   2.770   4.645   3.368
 4427SOL     OW13960   2.855   4.138   3.101
 4427SOL    HW113961   2.770   4.159   3.140
 4427SOL    HW213962   2.833   4.090   3.021
 4428SOL     OW13963   2.912   4.422   2.288
 4428SOL    HW113964   2.928   4.415   2.383
 4428SOL    HW213965   2.830   4.376   2.274
 4429SOL     OW13966   1.950   4.545   2.638
 4429SOL    HW113967   2.031   4.537   2.688
 4429SOL    HW213968   1.907   4.622   2.673
 4430SOL     OW13969   2.753   4.072   2.056
 4430SOL    HW113970   2.794   4.133   1.996
 4430SOL    HW213971   2.770   3.986   2.018
 4431SOL     OW13972   3.571   4.299   3.690
 4431SOL    HW113973   3.533   4.374   3.643
 4431SOL    HW213974   3.598   4.239   3.621
 4432SOL     OW13975   3.238   4.864   2.402
 4432SOL    HW113976   3.319   4.850   2.353
 4432SOL    HW213977   3.188   4.925   2.348
 4433SOL     OW13978   2.413   3.907   2.754
 4433SOL    HW113979   2.414   3.935   2.846
 4433SOL    HW213980   2.413   3.989   2.704
 4434SOL     OW13981   2.884   5.172   2.331
 4434SOL    HW113982   2.805   5.225   2.324
 4434SOL    HW213983   2.898   5.162   2.425
 4435SOL     OW13984   3.662   4.782   2.728
 4435SOL    HW113985   3.604   4.765   2.653
 4435SOL    HW213986   3.602   4.788   2.803
 4436SOL     OW13987   3.112   5.239   3.385
 4436SOL    HW113988   3.075   5.173   3.444
 4436SOL    HW213989   3.041   5.258   3.323
 4437SOL     OW13990   2.183   4.680   2.111
 4437SOL    HW113991   2.265   4.699   2.066
 4437SOL    HW213992   2.152   4.598   2.072
 4438SOL     OW13993   3.339   4.465   2.590
 4438SOL    HW113994   3.330   4.421   2.674
 4438SOL    HW213995   3.417   4.520   2.599
 4439SOL     OW13996   2.326   4.988   3.602
 4439SOL    HW113997   2.299   4.990   3.510
 4439SOL    HW213998   2.244   4.986   3.651
 4440SOL     OW13999   2.938   0.183   2.070
 4440SOL    HW114000   2.937   0.106   2.128
 4440SOL    HW214001   2.968   0.148   1.986
 4441SOL     OW14002   2.062   4.005   3.362
 4441SOL    HW114003   1.980   4.055   3.357
 4441SOL    HW214004   2.048   3.943   3.433
 4442SOL     OW14005   3.485   5.100   1.968
 4442SOL    HW114006   3.480   5.178   1.914
 4442SOL    HW214007   3.416   5.042   1.934
 4443SOL     OW14008   3.263   3.831   2.294
 4443SOL    HW114009   3.252   3.807   2.202
 4443SOL    HW214010   3.358   3.839   2.306
 4444SOL     OW14011   2.254   4.419   2.339
 4444SOL    HW114012   2.276   4.327   2.350
 4444SOL    HW214013   2.160   4.424   2.357
 4445SOL     OW14014   3.399   3.950   3.587
 4445SOL    HW114015   3.407   3.970   3.680
 4445SOL    HW214016   3.329   3.885   3.582
 4446SOL     OW14017   2.494   3.847   1.968
 4446SOL    HW114018   2.567   3.785   1.979
 4446SOL    HW214019   2.447   3.815   1.892
 4447SOL     OW14020   2.631   4.002   3.618
 4447SOL    HW114021   2.704   3.940   3.620
 4447SOL    HW214022   2.578   3.978   3.694
 4448SOL     OW14023   3.203   4.313   3.294
 4448SOL    HW114024   3.234   4.281   3.379
 4448SOL    HW214025   3.239   4.401   3.286
 4449SOL     OW14026   2.674   5.121   2.796
 4449SOL    HW114027   2.754   5.106   2.747
 4449SOL    HW214028   2.605   5.127   2.729
 4450SOL     OW14029   2.789   4.233   2.765
 4450SOL    HW114030   2.766   4.225   2.673
 4450SOL    HW214031   2.822   4.147   2.790
 4451SOL     OW14032   2.410   3.787   2.365
 4451SOL    HW114033   2.330   3.787   2.417
 4451SOL    HW214034   2.404   3.866   2.311
 4452SOL     OW14035   3.290   4.923   1.901
 4452SOL    HW114036   3.321   4.848   1.951
 4452SOL    HW214037   3.202   4.940   1.935
 4453SOL     OW14038   2.154   3.771   2.046
 4453SOL    HW114039   2.213   3.836   2.008
 4453SOL    HW214040   2.212   3.708   2.088
 4454SOL     OW14041   2.799   3.970   2.324
 4454SOL    HW114042   2.772   4.012   2.242
 4454SOL    HW214043   2.894   3.983   2.327
 4455SOL     OW14044   2.942   4.404   3.322
 4455SOL    HW114045   2.872   4.338   3.327
 4455SOL    HW214046   3.023   4.354   3.315
 4456SOL     OW14047   3.126   5.267   2.641
 4456SOL    HW114048   3.087   0.050   2.612
 4456SOL    HW214049   3.169   5.290   2.724
 4457SOL     OW14050   2.327   4.872   2.594
 4457SOL    HW114051   2.258   4.852   2.657
 4457SOL    HW214052   2.288   4.853   2.509
 4458SOL     OW14053   2.886   4.267   1.884
 4458SOL    HW114054   2.844   4.351   1.863
 4458SOL    HW214055   2.951   4.289   1.950
 4459SOL     OW14056   1.940   4.279   3.254
 4459SOL    HW114057   2.032   4.277   3.227
 4459SOL    HW214058   1.936   4.349   3.319
 4460SOL     OW14059   2.422   3.951   3.027
 4460SOL    HW114060   2.463   3.874   3.064
 4460SOL    HW214061   2.331   3.948   3.057
 4461SOL     OW14062   2.730   4.183   2.502
 4461SOL    HW114063   2.684   4.238   2.438
 4461SOL    HW214064   2.751   4.103   2.454
 4462SOL     OW14065   2.877   3.776   2.615
 4462SOL    HW114066   2.819   3.768   2.539
 4462SOL    HW214067   2.856   3.699   2.668
 4463SOL     OW14068   3.298   4.890   2.721
 4463SOL    HW114069   3.233   4.820   2.717
 4463SOL    HW214070   3.324   4.904   2.630
 4464SOL     OW14071   3.329   4.328   2.840
 4464SOL    HW114072   3.279   4.246   2.844
 4464SOL    HW214073   3.389   4.323   2.915
 4465SOL     OW14074   3.708   4.541   2.244
 4465SOL    HW114075   3.764   4.489   2.302
 4465SOL    HW214076   3.679   4.478   2.177
 4466SOL     OW14077   2.344   5.145   2.017
 4466SOL    HW114078   2.281   5.094   2.068
 4466SOL    HW214079   2.342   5.106   1.930
 4467SOL     OW14080   3.531   4.987   2.510
 4467SOL    HW114081   3.625   4.994   2.526
 4467SOL    HW214082   3.497   5.075   2.526
 4468SOL     OW14083   3.256   4.296   1.933
 4468SOL    HW114084   3.195   4.276   2.005
 4468SOL    HW214085   3.341   4.263   1.964
 4469SOL     OW14086   2.387   3.987   2.181
 4469SOL    HW114087   2.431   3.938   2.111
 4469SOL    HW214088   2.366   4.072   2.143
 4470SOL     OW14089   3.614   4.959   3.439
 4470SOL    HW114090   3.700   4.918   3.438
 4470SOL    HW214091   3.632   5.052   3.453
 4471SOL     OW14092   2.927   5.075   3.193
 4471SOL    HW114093   2.849   5.049   3.242
 4471SOL    HW214094   2.999   5.035   3.241
 4472SOL     OW14095   2.987   4.925   2.970
 4472SOL    HW114096   2.936   4.966   3.040
 4472SOL    HW214097   2.943   4.952   2.889
 4473SOL     OW14098   3.492   4.823   2.939
 4473SOL    HW114099   3.487   4.884   3.012
 4473SOL    HW214100   3.413   4.841   2.888
 4474SOL     OW14101   2.777   3.843   3.256
 4474SOL    HW114102   2.798   3.813   3.167
 4474SOL    HW214103   2.859   3.877   3.290
 4475SOL     OW14104   2.846   4.839   3.587
 4475SOL    HW114105   2.754   4.854   3.605
 4475SOL    HW214106   2.847   4.762   3.529
 4476SOL     OW14107   2.567   4.782   2.234
 4476SOL    HW114108   2.555   4.767   2.328
 4476SOL    HW214109   2.644   4.731   2.211
 4477SOL     OW14110   2.280   4.538   3.113
 4477SOL    HW114111   2.349   4.547   3.179
 4477SOL    HW214112   2.245   4.450   3.128
 4478SOL     OW14113   3.128   4.102   3.136
 4478SOL    HW114114   3.161   4.179   3.182
 4478SOL    HW214115   3.038   4.124   3.112
 4479SOL     OW14116   2.211   4.831   2.352
 4479SOL    HW114117   2.214   4.904   2.290
 4479SOL    HW214118   2.210   4.753   2.297
 4480SOL     OW14119   2.416   4.261   2.722
 4480SOL    HW114120   2.431   4.319   2.648
 4480SOL    HW214121   2.480   4.288   2.788
 4481SOL     OW14122   3.121   5.076   2.248
 4481SOL    HW114123   3.177   5.144   2.286
 4481SOL    HW214124   3.033   5.099   2.277
 4482SOL     OW14125   3.130   5.181   3.004
 4482SOL    HW114126   3.190   5.194   3.078
 4482SOL    HW214127   3.086   5.098   3.023
 4483SOL     OW14128   3.444   4.347   2.340
 4483SOL    HW114129   3.398   4.402   2.404
 4483SOL    HW214130   3.490   4.409   2.283
 4484SOL     OW14131   2.210   5.236   3.178
 4484SOL    HW114132   2.199   5.201   3.089
 4484SOL    HW214133   2.303   5.257   3.183
 4485SOL     OW14134   2.276   4.469   3.464
 4485SOL    HW114135   2.337   4.513   3.406
 4485SOL    HW214136   2.315   4.383   3.479
 4486SOL     OW14137   3.462   4.502   3.543
 4486SOL    HW114138   3.376   4.543   3.536
 4486SOL    HW214139   3.514   4.544   3.475
 4487SOL     OW14140   2.861   3.846   3.619
 4487SOL    HW114141   2.911   3.922   3.590
 4487SOL    HW214142   2.911   3.770   3.589
 4488SOL     OW14143   2.363   3.780   3.613
 4488SOL    HW114144   2.322   3.726   3.545
 4488SOL    HW214145   2.302   3.852   3.627
 4489SOL     OW14146   2.445   4.596   2.893
 4489SOL    HW114147   2.475   4.687   2.891
 4489SOL    HW214148   2.388   4.591   2.970
 4490SOL     OW14149   3.221   4.582   2.892
 4490SOL    HW114150   3.138   4.573   2.845
 4490SOL    HW214151   3.260   4.495   2.888
 4491SOL     OW14152   3.068   4.253   2.130
 4491SOL    HW114153   3.076   4.174   2.184
 4491SOL    HW214154   3.025   4.317   2.186
 4492SOL     OW14155   2.161   3.922   3.108
 4492SOL    HW114156   2.125   3.955   3.190
 4492SOL    HW214157   2.139   3.829   3.107
 4493SOL     OW14158   1.913   5.046   3.146
 4493SOL    HW114159   1.939   4.982   3.213
 4493SOL    HW214160   1.949   5.129   3.177
 4494SOL     OW14161   2.587   4.355   2.920
 4494SOL    HW114162   2.661   4.339   2.862
 4494SOL    HW214163   2.559   4.444   2.899
 4495SOL     OW14164   3.596   4.683   3.713
 4495SOL    HW114165   3.549   4.623   3.655
 4495SOL    HW214166   3.536   4.696   3.787
 4496SOL     OW14167   2.164   3.789   2.485
 4496SOL    HW114168   2.146   3.880   2.509
 4496SOL    HW214169   2.171   3.743   2.569
 4497SOL     OW14170   3.477   4.097   2.230
 4497SOL    HW114171   3.505   4.034   2.296
 4497SOL    HW214172   3.454   4.176   2.280
 4498SOL     OW14173   2.889   4.483   2.823
 4498SOL    HW114174   2.887   4.501   2.917
 4498SOL    HW214175   2.863   4.392   2.815
 4499SOL     OW14176   3.716   5.214   3.448
 4499SOL    HW114177   3.714   5.288   3.387
 4499SOL    HW214178   3.785   5.237   3.510
 4500SOL     OW14179   2.215   4.640   3.670
 4500SOL    HW114180   2.297   4.659   3.716
 4500SOL    HW214181   2.239   4.578   3.602
 4501SOL     OW14182   3.392   3.997   1.989
 4501SOL    HW114183   3.327   3.932   2.016
 4501SOL    HW214184   3.425   4.033   2.072
 4502SOL     OW14185   3.155   4.551   1.894
 4502SOL    HW114186   3.198   4.465   1.897
 4502SOL    HW214187   3.186   4.590   1.812
 4503SOL     OW14188   2.920   5.077   2.690
 4503SOL    HW114189   2.925   4.993   2.646
 4503SOL    HW214190   3.006   5.117   2.676
 4504SOL     OW14191   2.171   4.533   2.810
 4504SOL    HW114192   2.264   4.554   2.803
 4504SOL    HW214193   2.169   4.444   2.843
 4505SOL     OW14194   2.194   4.249   2.874
 4505SOL    HW114195   2.159   4.162   2.858
 4505SOL    HW214196   2.270   4.255   2.816
 4506SOL     OW14197   2.996   4.100   3.544
 4506SOL    HW114198   2.949   4.156   3.606
 4506SOL    HW214199   3.084   4.138   3.539
 4507SOL     OW14200   3.023   3.929   3.331
 4507SOL    HW114201   3.014   3.991   3.403
 4507SOL    HW214202   3.063   3.980   3.260
 4508SOL     OW14203   1.868   5.042   2.053
 4508SOL    HW114204   1.778   5.058   2.025
 4508SOL    HW214205   1.866   4.954   2.090
 4509SOL     OW14206   2.846   4.517   3.089
 4509SOL    HW114207   2.902   4.494   3.164
 4509SOL    HW214208   2.761   4.479   3.110
 4510SOL     OW14209   1.898   4.269   2.979
 4510SOL    HW114210   1.978   4.253   2.929
 4510SOL    HW214211   1.926   4.272   3.070
 4511SOL     OW14212   2.053   4.243   3.589
 4511SOL    HW114213   2.110   4.206   3.522
 4511SOL    HW214214   2.009   4.316   3.545
 4512SOL     OW14215   3.238   4.664   3.521
 4512SOL    HW114216   3.259   4.757   3.519
 4512SOL    HW214217   3.235   4.638   3.428
 4513SOL     OW14218   2.678   4.293   2.220
 4513SOL    HW114219   2.681   4.218   2.161
 4513SOL    HW214220   2.604   4.345   2.190
 4514SOL     OW14221   3.504   4.325   3.049
 4514SOL    HW114222   3.494   4.266   3.123
 4514SOL    HW214223   3.591   4.305   3.015
 4515SOL     OW14224   2.069   5.277   3.607
 4515SOL    HW114225   2.056   0.030   3.686
 4515SOL    HW214226   2.081   5.188   3.639
 4516SOL     OW14227   2.560   4.176   3.123
 4516SOL    HW114228   2.509   4.101   3.092
 4516SOL    HW214229   2.558   4.238   3.050
 4517SOL     OW14230   2.327   4.217   2.050
 4517SOL    HW114231   2.385   4.290   2.071
 4517SOL    HW214232   2.241   4.257   2.037
 4518SOL     OW14233   2.008   4.863   3.332
 4518SOL    HW114234   2.011   4.811   3.413
 4518SOL    HW214235   2.025   4.800   3.262
 4519SOL     OW14236   3.190   4.770   3.085
 4519SOL    HW114237   3.213   4.708   3.016
 4519SOL    HW214238   3.118   4.821   3.048
 4520SOL     OW14239   3.172   4.581   2.169
 4520SOL    HW114240   3.096   4.550   2.218
 4520SOL    HW214241   3.148   4.567   2.077
 4521SOL     OW14242   1.954   4.986   2.883
 4521SOL    HW114243   1.933   5.003   2.975
 4521SOL    HW214244   1.875   4.947   2.847
 4522SOL     OW14245   2.613   0.040   3.571
 4522SOL    HW114246   2.520   0.062   3.582
 4522SOL    HW214247   2.632   0.063   3.480
 4523SOL     OW14248   3.581   3.869   2.372
 4523SOL    HW114249   3.654   3.855   2.312
 4523SOL    HW214250   3.565   3.783   2.413
 4524SOL     OW14251   3.139   4.649   2.533
 4524SOL    HW114252   3.212   4.588   2.540
 4524SOL    HW214253   3.173   4.721   2.481
 4525SOL     OW14254   2.682   4.994   3.285
 4525SOL    HW114255   2.654   5.030   3.369
 4525SOL    HW214256   2.606   5.005   3.228
 4526SOL     OW14257   3.702   3.898   2.829
 4526SOL    HW114258   3.731   3.810   2.802
 4526SOL    HW214259   3.616   3.908   2.789
 4527SOL     OW14260   2.125   4.041   2.579
 4527SOL    HW114261   2.039   4.076   2.555
 4527SOL    HW214262   2.121   4.032   2.675
 4528SOL     OW14263   2.686   4.728   3.233
 4528SOL    HW114264   2.732   4.722   3.149
 4528SOL    HW214265   2.690   4.821   3.255
 4529SOL     OW14266   2.778   4.635   2.152
 4529SOL    HW114267   2.839   4.667   2.086
 4529SOL    HW214268   2.826   4.565   2.196
 4530SOL     OW14269   2.228   5.025   3.358
 4530SOL    HW114270   2.216   5.100   3.299
 4530SOL    HW214271   2.152   4.969   3.341
 4531SOL     OW14272   3.474   5.004   3.144
 4531SOL    HW114273   3.532   4.999   3.221
 4531SOL    HW214274   3.412   5.074   3.166
 4532SOL     OW14275   2.914   4.833   2.572
 4532SOL    HW114276   2.842   4.781   2.609
 4532SOL    HW214277   2.976   4.767   2.538
 4533SOL     OW14278   2.883   3.965   2.827
 4533SOL    HW114279   2.878   3.916   2.745
 4533SOL    HW214280   2.877   3.898   2.895
 4534SOL     OW14281   3.583   4.116   3.242
 4534SOL    HW114282   3.655   4.179   3.241
 4534SOL    HW214283   3.613   4.044   3.186
 4535SOL     OW14284   2.120   5.054   2.144
 4535SOL    HW114285   2.028   5.056   2.117
 4535SOL    HW214286   2.121   5.096   2.230
 4536SOL     OW14287   1.974   4.745   3.580
 4536SOL    HW114288   1.898   4.722   3.634
 4536SOL    HW214289   2.049   4.708   3.628
 4537SOL     OW14290   2.535   3.929   3.362
 4537SOL    HW114291   2.619   3.912   3.318
 4537SOL    HW214292   2.559   3.956   3.450
 4538SOL     OW14293   1.940   4.059   1.897
 4538SOL    HW114294   1.853   4.039   1.864
 4538SOL    HW214295   1.969   4.133   1.845
 4539SOL     OW14296   3.293   4.582   3.263
 4539SOL    HW114297   3.244   4.642   3.207
 4539SOL    HW214298   3.382   4.585   3.229
 4540SOL     OW14299   1.931   3.881   2.173
 4540SOL    HW114300   1.917   3.961   2.122
 4540SOL    HW214301   2.016   3.848   2.144
 4541SOL     OW14302   3.044   5.065   1.982
 4541SOL    HW114303   2.953   5.036   1.982
 4541SOL    HW214304   3.072   5.057   2.073
 4542SOL     OW14305   2.481   4.555   3.295
 4542SOL    HW114306   2.537   4.631   3.280
 4542SOL    HW214307   2.541   4.481   3.304
 4543SOL     OW14308   2.580   4.287   3.567
 4543SOL    HW114309   2.619   4.351   3.627
 4543SOL    HW214310   2.609   4.202   3.599
 4544SOL     OW14311   3.334   4.924   3.494
 4544SOL    HW114312   3.321   4.936   3.588
 4544SOL    HW214313   3.428   4.937   3.481
 4545SOL     OW14314   3.532   4.606   3.117
 4545SOL    HW114315   3.525   4.520   3.074
 4545SOL    HW214316   3.523   4.669   3.046
 4546SOL     OW14317   3.079   4.043   2.320
 4546SOL    HW114318   3.143   3.972   2.311
 4546SOL    HW214319   3.108   4.092   2.397
 4547SOL     OW14320   2.453   4.463   2.531
 4547SOL    HW114321   2.491   4.549   2.515
 4547SOL    HW214322   2.384   4.455   2.464
 4548SOL     OW14323   3.626   4.085   3.512
 4548SOL    HW114324   3.609   4.100   3.419
 4548SOL    HW214325   3.554   4.029   3.541
 4549SOL     OW14326   3.606   4.657   3.374
 4549SOL    HW114327   3.604   4.752   3.387
 4549SOL    HW214328   3.591   4.646   3.280
 4550SOL     OW14329   2.712   5.095   1.881
 4550SOL    HW114330   2.691   5.096   1.975
 4550SOL    HW214331   2.730   5.186   1.859
 4551SOL     OW14332   2.729   4.691   2.718
 4551SOL    HW114333   2.779   4.619   2.758
 4551SOL    HW214334   2.695   4.741   2.792
 4552SOL     OW14335   2.942   4.713   1.951
 4552SOL    HW114336   2.920   4.763   1.873
 4552SOL    HW214337   3.017   4.659   1.925
 4553SOL     OW14338   2.085   5.025   3.715
 4553SOL    HW114339   2.017   4.963   3.690
 4553SOL    HW214340   2.074   5.037   3.809
 4554SOL     OW14341   1.947   4.956   2.532
 4554SOL    HW114342   1.946   4.903   2.611
 4554SOL    HW214343   2.011   4.914   2.475
 4555SOL     OW14344   2.531   5.109   3.470
 4555SOL    HW114345   2.457   5.073   3.518
 4555SOL    HW214346   2.562   5.182   3.524
 4556SOL     OW14347   3.675   3.909   3.100
 4556SOL    HW114348   3.683   3.815   3.115
 4556SOL    HW214349   3.684   3.919   3.005
 4557SOL     OW14350   2.291   4.158   2.387
 4557SOL    HW114351   2.321   4.087   2.330
 4557SOL    HW214352   2.244   4.114   2.458
 4558SOL     OW14353   3.569   5.223   2.981
 4558SOL    HW114354   3.495   5.206   2.922
 4558SOL    HW214355   3.576   5.143   3.034
 4559SOL     OW14356   2.191   4.278   3.153
 4559SOL    HW114357   2.246   4.223   3.208
 4559SOL    HW214358   2.211   4.250   3.064
 4560SOL     OW14359   3.294   3.948   2.980
 4560SOL    HW114360   3.322   3.870   3.028
 4560SOL    HW214361   3.242   3.998   3.044
 4561SOL     OW14362   2.868   3.747   3.006
 4561SOL    HW114363   2.817   3.680   2.960
 4561SOL    HW214364   2.957   3.711   3.010
 4562SOL     OW14365   2.664   5.048   2.146
 4562SOL    HW114366   2.602   4.977   2.164
 4562SOL    HW214367   2.719   5.052   2.225
 4563SOL     OW14368   2.483   5.299   3.151
 4563SOL    HW114369   2.491   0.054   3.229
 4563SOL    HW214370   2.574   5.279   3.127
 4564SOL     OW14371   3.214   3.778   2.027
 4564SOL    HW114372   3.241   3.716   1.959
 4564SOL    HW214373   3.127   3.747   2.054
 4565SOL     OW14374   3.159   4.184   2.544
 4565SOL    HW114375   3.105   4.263   2.551
 4565SOL    HW214376   3.155   4.145   2.631
 4566SOL     OW14377   3.449   3.927   2.739
 4566SOL    HW114378   3.387   3.947   2.810
 4566SOL    HW214379   3.448   4.005   2.684
 4567SOL     OW14380   1.904   4.795   2.169
 4567SOL    HW114381   1.998   4.788   2.152
 4567SOL    HW214382   1.877   4.706   2.191
 4568SOL     OW14383   2.092   4.347   3.846
 4568SOL    HW114384   2.002   4.346   3.880
 4568SOL    HW214385   2.083   4.322   3.754
 4569SOL     OW14386   2.087   4.004   4.715
 4569SOL    HW114387   2.115   3.971   4.800
 4569SOL    HW214388   1.997   3.973   4.706
 4570SOL     OW14389   1.867   4.106   4.362
 4570SOL    HW114390   1.784   4.131   4.403
 4570SOL    HW214391   1.846   4.027   4.312
 4571SOL     OW14392   2.428   5.004   4.901
 4571SOL    HW114393   2.343   5.002   4.858
 4571SOL    HW214394   2.439   5.095   4.929
 4572SOL     OW14395   3.416   5.232   4.413
 4572SOL    HW114396   3.395   5.229   4.506
 4572SOL    HW214397   3.338   5.267   4.371
 4573SOL     OW14398   2.992   4.422   4.426
 4573SOL    HW114399   3.041   4.503   4.412
 4573SOL    HW214400   2.945   4.437   4.508
 4574SOL     OW14401   3.628   4.330   3.953
 4574SOL    HW114402   3.608   4.322   3.860
 4574SOL    HW214403   3.593   4.250   3.992
 4575SOL     OW14404   2.620   4.869   4.762
 4575SOL    HW114405   2.551   4.900   4.821
 4575SOL    HW214406   2.649   4.948   4.716
 4576SOL     OW14407   2.727   4.501   5.546
 4576SOL    HW114408   2.714   4.572   5.608
 4576SOL    HW214409   2.751   4.544   5.464
 4577SOL     OW14410   2.548   4.728   4.372
 4577SOL    HW114411   2.613   4.716   4.442
 4577SOL    HW214412   2.479   4.780   4.412
 4578SOL     OW14413   2.570   4.873   5.534
 4578SOL    HW114414   2.618   4.952   5.559
 4578SOL    HW214415   2.486   4.905   5.500
 4579SOL     OW14416   2.199   5.153   4.785
 4579SOL    HW114417   2.122   5.109   4.748
 4579SOL    HW214418   2.240   5.197   4.710
 4580SOL     OW14419   3.317   5.220   5.071
 4580SOL    HW114420   3.371   5.293   5.102
 4580SOL    HW214421   3.251   5.208   5.138
 4581SOL     OW14422   2.310   4.122   5.213
 4581SOL    HW114423   2.385   4.063   5.217
 4581SOL    HW214424   2.234   4.066   5.225
 4582SOL     OW14425   3.474   4.172   4.464
 4582SOL    HW114426   3.399   4.196   4.410
 4582SOL    HW214427   3.492   4.250   4.517
 4583SOL     OW14428   2.995   5.072   5.423
 4583SOL    HW114429   3.026   5.072   5.514
 4583SOL    HW214430   2.942   4.993   5.417
 4584SOL     OW14431   2.072   5.155   4.244
 4584SOL    HW114432   2.097   5.238   4.284
 4584SOL    HW214433   2.020   5.111   4.311
 4585SOL     OW14434   2.119   4.811   4.616
 4585SOL    HW114435   2.116   4.724   4.655
 4585SOL    HW214436   2.061   4.865   4.670
 4586SOL     OW14437   2.448   4.705   3.857
 4586SOL    HW114438   2.494   4.754   3.789
 4586SOL    HW214439   2.488   4.734   3.939
 4587SOL     OW14440   3.458   3.847   5.193
 4587SOL    HW114441   3.461   3.927   5.140
 4587SOL    HW214442   3.445   3.878   5.283
 4588SOL     OW14443   1.977   4.376   4.283
 4588SOL    HW114444   1.947   4.287   4.304
 4588SOL    HW214445   1.968   4.424   4.366
 4589SOL     OW14446   1.849   0.014   3.823
 4589SOL    HW114447   1.865   5.225   3.853
 4589SOL    HW214448   1.871   0.069   3.898
 4590SOL     OW14449   3.551   4.642   4.363
 4590SOL    HW114450   3.635   4.601   4.344
 4590SOL    HW214451   3.530   4.693   4.285
 4591SOL     OW14452   3.507   4.831   4.154
 4591SOL    HW114453   3.592   4.837   4.110
 4591SOL    HW214454   3.513   4.892   4.227
 4592SOL     OW14455   1.985   4.466   5.310
 4592SOL    HW114456   2.077   4.490   5.320
 4592SOL    HW214457   1.937   4.549   5.318
 4593SOL     OW14458   2.484   5.097   4.460
 4593SOL    HW114459   2.429   5.018   4.459
 4593SOL    HW214460   2.464   5.140   4.376
 4594SOL     OW14461   3.151   4.955   5.150
 4594SOL    HW114462   3.186   4.890   5.089
 4594SOL    HW214463   3.210   4.952   5.225
 4595SOL     OW14464   2.673   3.734   4.213
 4595SOL    HW114465   2.715   3.820   4.207
 4595SOL    HW214466   2.582   3.752   4.234
 4596SOL     OW14467   2.053   4.691   4.993
 4596SOL    HW114468   2.137   4.648   4.978
 4596SOL    HW214469   1.989   4.635   4.948
 4597SOL     OW14470   3.393   4.718   3.921
 4597SOL    HW114471   3.323   4.660   3.952
 4597SOL    HW214472   3.434   4.752   4.000
 4598SOL     OW14473   2.194   3.974   5.533
 4598SOL    HW114474   2.240   4.057   5.549
 4598SOL    HW214475   2.105   3.989   5.566
 4599SOL     OW14476   3.337   5.146   4.686
 4599SOL    HW114477   3.265   5.158   4.747
 4599SOL    HW214478   3.325   5.058   4.652
 4600SOL     OW14479   2.458   4.446   3.989
 4600SOL    HW114480   2.465   4.527   3.938
 4600SOL    HW214481   2.393   4.465   4.057
 4601SOL     OW14482   3.142   4.074   4.657
 4601SOL    HW114483   3.052   4.041   4.664
 4601SOL    HW214484   3.192   4.021   4.718
 4602SOL     OW14485   2.654   4.341   5.176
 4602SOL    HW114486   2.628   4.318   5.265
 4602SOL    HW214487   2.613   4.275   5.120
 4603SOL     OW14488   3.255   4.198   5.402
 4603SOL    HW114489   3.257   4.242   5.486
 4603SOL    HW214490   3.318   4.126   5.411
 4604SOL     OW14491   2.818   4.612   5.306
 4604SOL    HW114492   2.872   4.542   5.271
 4604SOL    HW214493   2.770   4.646   5.230
 4605SOL     OW14494   2.854   4.137   4.963
 4605SOL    HW114495   2.769   4.159   5.002
 4605SOL    HW214496   2.832   4.092   4.882
 4606SOL     OW14497   2.913   4.422   4.150
 4606SOL    HW114498   2.928   4.415   4.245
 4606SOL    HW214499   2.830   4.376   4.136
 4607SOL     OW14500   1.950   4.544   4.500
 4607SOL    HW114501   2.031   4.537   4.550
 4607SOL    HW214502   1.907   4.622   4.535
 4608SOL     OW14503   2.754   4.073   3.921
 4608SOL    HW114504   2.795   4.133   3.858
 4608SOL    HW214505   2.759   3.987   3.879
 4609SOL     OW14506   3.571   4.299   5.552
 4609SOL    HW114507   3.534   4.374   5.505
 4609SOL    HW214508   3.598   4.239   5.483
 4610SOL     OW14509   3.238   4.864   4.264
 4610SOL    HW114510   3.319   4.850   4.215
 4610SOL    HW214511   3.188   4.925   4.210
 4611SOL     OW14512   2.405   3.905   4.617
 4611SOL    HW114513   2.412   3.936   4.708
 4611SOL    HW214514   2.412   3.985   4.565
 4612SOL     OW14515   2.884   5.172   4.193
 4612SOL    HW114516   2.805   5.225   4.186
 4612SOL    HW214517   2.898   5.162   4.287
 4613SOL     OW14518   3.662   4.781   4.590
 4613SOL    HW114519   3.604   4.765   4.515
 4613SOL    HW214520   3.602   4.788   4.665
 4614SOL     OW14521   3.112   5.239   5.247
 4614SOL    HW114522   3.075   5.173   5.306
 4614SOL    HW214523   3.041   5.259   5.185
 4615SOL     OW14524   2.183   4.680   3.973
 4615SOL    HW114525   2.265   4.699   3.928
 4615SOL    HW214526   2.152   4.598   3.933
 4616SOL     OW14527   3.339   4.465   4.452
 4616SOL    HW114528   3.330   4.421   4.536
 4616SOL    HW214529   3.417   4.520   4.461
 4617SOL     OW14530   2.326   4.987   5.464
 4617SOL    HW114531   2.299   4.990   5.372
 4617SOL    HW214532   2.244   4.986   5.513
 4618SOL     OW14533   2.938   0.183   3.932
 4618SOL    HW114534   2.937   0.107   3.990
 4618SOL    HW214535   2.968   0.148   3.848
 4619SOL     OW14536   2.062   4.006   5.224
 4619SOL    HW114537   1.980   4.056   5.219
 4619SOL    HW214538   2.045   3.939   5.291
 4620SOL     OW14539   3.486   5.100   3.830
 4620SOL    HW114540   3.479   5.178   3.776
 4620SOL    HW214541   3.417   5.042   3.796
 4621SOL     OW14542   3.271   3.844   4.151
 4621SOL    HW114543   3.259   3.815   4.060
 4621SOL    HW214544   3.366   3.845   4.163
 4622SOL     OW14545   2.254   4.419   4.201
 4622SOL    HW114546   2.276   4.327   4.211
 4622SOL    HW214547   2.160   4.424   4.219
 4623SOL     OW14548   3.399   3.950   5.449
 4623SOL    HW114549   3.407   3.971   5.542
 4623SOL    HW214550   3.330   3.883   5.446
 4624SOL     OW14551   2.502   3.849   3.832
 4624SOL    HW114552   2.564   3.778   3.847
 4624SOL    HW214553   2.451   3.820   3.757
 4625SOL     OW14554   2.629   4.001   5.477
 4625SOL    HW114555   2.703   3.941   5.481
 4625SOL    HW214556   2.580   3.983   5.557
 4626SOL     OW14557   3.203   4.312   5.156
 4626SOL    HW114558   3.234   4.281   5.241
 4626SOL    HW214559   3.239   4.401   5.148
 4627SOL     OW14560   2.673   5.121   4.658
 4627SOL    HW114561   2.754   5.106   4.609
 4627SOL    HW214562   2.605   5.127   4.591
 4628SOL     OW14563   2.789   4.233   4.627
 4628SOL    HW114564   2.766   4.225   4.535
 4628SOL    HW214565   2.822   4.146   4.651
 4629SOL     OW14566   2.408   3.788   4.231
 4629SOL    HW114567   2.326   3.789   4.281
 4629SOL    HW214568   2.403   3.865   4.175
 4630SOL     OW14569   3.290   4.923   3.763
 4630SOL    HW114570   3.321   4.848   3.813
 4630SOL    HW214571   3.202   4.940   3.797
 4631SOL     OW14572   2.153   3.774   3.903
 4631SOL    HW114573   2.212   3.839   3.864
 4631SOL    HW214574   2.212   3.711   3.945
 4632SOL     OW14575   2.801   3.975   4.186
 4632SOL    HW114576   2.774   4.014   4.103
 4632SOL    HW214577   2.896   3.987   4.189
 4633SOL     OW14578   2.942   4.404   5.184
 4633SOL    HW114579   2.873   4.338   5.189
 4633SOL    HW214580   3.023   4.354   5.177
 4634SOL     OW14581   3.126   5.267   4.503
 4634SOL    HW114582   3.087   0.050   4.474
 4634SOL    HW214583   3.169   5.290   4.586
 4635SOL     OW14584   2.327   4.871   4.456
 4635SOL    HW114585   2.258   4.852   4.519
 4635SOL    HW214586   2.288   4.853   4.371
 4636SOL     OW14587   2.886   4.267   3.745
 4636SOL    HW114588   2.844   4.351   3.725
 4636SOL    HW214589   2.951   4.289   3.812
 4637SOL     OW14590   1.940   4.279   5.116
 4637SOL    HW114591   2.032   4.277   5.089
 4637SOL    HW214592   1.936   4.349   5.181
 4638SOL     OW14593   2.422   3.951   4.888
 4638SOL    HW114594   2.463   3.872   4.923
 4638SOL    HW214595   2.332   3.948   4.920
 4639SOL     OW14596   2.729   4.184   4.364
 4639SOL    HW114597   2.684   4.238   4.299
 4639SOL    HW214598   2.751   4.104   4.317
 4640SOL     OW14599   2.851   3.764   4.493
 4640SOL    HW114600   2.806   3.753   4.410
 4640SOL    HW214601   2.885   3.676   4.513
 4641SOL     OW14602   3.298   4.890   4.583
 4641SOL    HW114603   3.232   4.820   4.579
 4641SOL    HW214604   3.324   4.904   4.492
 4642SOL     OW14605   3.329   4.328   4.702
 4642SOL    HW114606   3.279   4.246   4.706
 4642SOL    HW214607   3.389   4.323   4.777
 4643SOL     OW14608   3.708   4.541   4.106
 4643SOL    HW114609   3.764   4.489   4.164
 4643SOL    HW214610   3.679   4.479   4.039
 4644SOL     OW14611   2.344   5.145   3.879
 4644SOL    HW114612   2.281   5.094   3.930
 4644SOL    HW214613   2.342   5.106   3.792
 4645SOL     OW14614   3.531   4.987   4.372
 4645SOL    HW114615   3.625   4.994   4.388
 4645SOL    HW214616   3.497   5.075   4.388
 4646SOL     OW14617   3.256   4.296   3.795
 4646SOL    HW114618   3.196   4.277   3.867
 4646SOL    HW214619   3.341   4.264   3.826
 4647SOL     OW14620   2.387   3.986   4.044
 4647SOL    HW114621   2.433   3.938   3.975
 4647SOL    HW214622   2.366   4.071   4.005
 4648SOL     OW14623   3.614   4.959   5.301
 4648SOL    HW114624   3.700   4.918   5.300
 4648SOL    HW214625   3.632   5.052   5.315
 4649SOL     OW14626   2.927   5.074   5.055
 4649SOL    HW114627   2.849   5.049   5.104
 4649SOL    HW214628   2.999   5.035   5.103
 4650SOL     OW14629   2.987   4.925   4.832
 4650SOL    HW114630   2.937   4.966   4.902
 4650SOL    HW214631   2.943   4.952   4.751
 4651SOL     OW14632   3.492   4.823   4.801
 4651SOL    HW114633   3.487   4.884   4.874
 4651SOL    HW214634   3.413   4.841   4.750
 4652SOL     OW14635   2.781   3.825   5.124
 4652SOL    HW114636   2.803   3.808   5.032
 4652SOL    HW214637   2.860   3.864   5.161
 4653SOL     OW14638   2.846   4.839   5.449
 4653SOL    HW114639   2.754   4.854   5.467
 4653SOL    HW214640   2.847   4.762   5.391
 4654SOL     OW14641   2.566   4.782   4.096
 4654SOL    HW114642   2.555   4.767   4.190
 4654SOL    HW214643   2.644   4.731   4.073
 4655SOL     OW14644   2.280   4.538   4.975
 4655SOL    HW114645   2.349   4.548   5.041
 4655SOL    HW214646   2.245   4.450   4.990
 4656SOL     OW14647   3.128   4.101   4.998
 4656SOL    HW114648   3.161   4.179   5.044
 4656SOL    HW214649   3.038   4.124   4.974
 4657SOL     OW14650   2.211   4.831   4.214
 4657SOL    HW114651   2.214   4.904   4.152
 4657SOL    HW214652   2.210   4.753   4.159
 4658SOL     OW14653   2.415   4.261   4.584
 4658SOL    HW114654   2.431   4.319   4.510
 4658SOL    HW214655   2.480   4.289   4.650
 4659SOL     OW14656   3.121   5.076   4.110
 4659SOL    HW114657   3.177   5.144   4.148
 4659SOL    HW214658   3.033   5.099   4.139
 4660SOL     OW14659   3.130   5.181   4.866
 4660SOL    HW114660   3.190   5.195   4.939
 4660SOL    HW214661   3.086   5.098   4.885
 4661SOL     OW14662   3.444   4.348   4.202
 4661SOL    HW114663   3.398   4.403   4.266
 4661SOL    HW214664   3.490   4.409   4.145
 4662SOL     OW14665   2.210   5.236   5.040
 4662SOL    HW114666   2.199   5.201   4.951
 4662SOL    HW214667   2.303   5.257   5.045
 4663SOL     OW14668   2.276   4.469   5.326
 4663SOL    HW114669   2.337   4.514   5.268
 4663SOL    HW214670   2.316   4.383   5.342
 4664SOL     OW14671   3.462   4.502   5.405
 4664SOL    HW114672   3.376   4.543   5.398
 4664SOL    HW214673   3.514   4.544   5.337
 4665SOL     OW14674   2.858   3.845   5.479
 4665SOL    HW114675   2.912   3.918   5.450
 4665SOL    HW214676   2.908   3.767   5.454
 4666SOL     OW14677   2.360   3.765   5.471
 4666SOL    HW114678   2.319   3.712   5.402
 4666SOL    HW214679   2.300   3.839   5.483
 4667SOL     OW14680   2.445   4.596   4.755
 4667SOL    HW114681   2.475   4.687   4.753
 4667SOL    HW214682   2.388   4.591   4.832
 4668SOL     OW14683   3.221   4.582   4.754
 4668SOL    HW114684   3.138   4.573   4.706
 4668SOL    HW214685   3.260   4.495   4.750
 4669SOL     OW14686   3.068   4.253   3.992
 4669SOL    HW114687   3.075   4.174   4.046
 4669SOL    HW214688   3.025   4.317   4.048
 4670SOL     OW14689   2.162   3.924   4.970
 4670SOL    HW114690   2.125   3.957   5.052
 4670SOL    HW214691   2.142   3.830   4.972
 4671SOL     OW14692   1.913   5.046   5.008
 4671SOL    HW114693   1.939   4.982   5.075
 4671SOL    HW214694   1.949   5.129   5.039
 4672SOL     OW14695   2.587   4.355   4.783
 4672SOL    HW114696   2.661   4.339   4.724
 4672SOL    HW214697   2.559   4.444   4.761
 4673SOL     OW14698   3.596   4.683   5.575
 4673SOL    HW114699   3.549   4.624   5.517
 4673SOL    HW214700   3.536   4.696   5.649
 4674SOL     OW14701   2.162   3.786   4.350
 4674SOL    HW114702   2.144   3.878   4.370
 4674SOL    HW214703   2.171   3.744   4.436
 4675SOL     OW14704   3.478   4.098   4.091
 4675SOL    HW114705   3.504   4.035   4.158
 4675SOL    HW214706   3.455   4.177   4.141
 4676SOL     OW14707   2.889   4.483   4.685
 4676SOL    HW114708   2.887   4.501   4.779
 4676SOL    HW214709   2.863   4.392   4.677
 4677SOL     OW14710   3.717   5.214   5.310
 4677SOL    HW114711   3.714   5.288   5.249
 4677SOL    HW214712   3.785   5.237   5.372
 4678SOL     OW14713   2.215   4.640   5.532
 4678SOL    HW114714   2.297   4.659   5.578
 4678SOL    HW214715   2.239   4.578   5.464
 4679SOL     OW14716   3.392   3.997   3.852
 4679SOL    HW114717   3.327   3.933   3.880
 4679SOL    HW214718   3.426   4.034   3.933
 4680SOL     OW14719   3.155   4.551   3.756
 4680SOL    HW114720   3.197   4.465   3.759
 4680SOL    HW214721   3.186   4.590   3.674
 4681SOL     OW14722   2.920   5.077   4.552
 4681SOL    HW114723   2.925   4.993   4.508
 4681SOL    HW214724   3.006   5.117   4.538
 4682SOL     OW14725   2.171   4.533   4.672
 4682SOL    HW114726   2.264   4.554   4.665
 4682SOL    HW214727   2.169   4.444   4.705
 4683SOL     OW14728   2.194   4.249   4.736
 4683SOL    HW114729   2.159   4.161   4.720
 4683SOL    HW214730   2.270   4.255   4.679
 4684SOL     OW14731   2.996   4.101   5.406
 4684SOL    HW114732   2.949   4.156   5.468
 4684SOL    HW214733   3.084   4.138   5.402
 4685SOL     OW14734   3.023   3.928   5.195
 4685SOL    HW114735   3.013   3.991   5.266
 4685SOL    HW214736   3.062   3.978   5.123
 4686SOL     OW14737   1.868   5.042   3.915
 4686SOL    HW114738   1.778   5.059   3.887
 4686SOL    HW214739   1.866   4.954   3.952
 4687SOL     OW14740   2.846   4.517   4.951
 4687SOL    HW114741   2.902   4.493   5.026
 4687SOL    HW214742   2.761   4.480   4.973
 4688SOL     OW14743   1.898   4.268   4.841
 4688SOL    HW114744   1.978   4.254   4.791
 4688SOL    HW214745   1.926   4.272   4.932
 4689SOL     OW14746   2.053   4.243   5.451
 4689SOL    HW114747   2.110   4.205   5.383
 4689SOL    HW214748   2.009   4.316   5.407
 4690SOL     OW14749   3.238   4.664   5.383
 4690SOL    HW114750   3.259   4.757   5.381
 4690SOL    HW214751   3.235   4.638   5.290
 4691SOL     OW14752   2.678   4.294   4.083
 4691SOL    HW114753   2.682   4.219   4.024
 4691SOL    HW214754   2.604   4.345   4.051
 4692SOL     OW14755   3.504   4.325   4.911
 4692SOL    HW114756   3.494   4.266   4.985
 4692SOL    HW214757   3.591   4.305   4.876
 4693SOL     OW14758   2.069   5.277   5.469
 4693SOL    HW114759   2.057   0.030   5.547
 4693SOL    HW214760   2.081   5.188   5.501
 4694SOL     OW14761   2.561   4.175   4.985
 4694SOL    HW114762   2.509   4.101   4.953
 4694SOL    HW214763   2.558   4.238   4.912
 4695SOL     OW14764   2.327   4.216   3.912
 4695SOL    HW114765   2.385   4.289   3.933
 4695SOL    HW214766   2.241   4.257   3.900
 4696SOL     OW14767   2.008   4.863   5.194
 4696SOL    HW114768   2.011   4.811   5.275
 4696SOL    HW214769   2.025   4.800   5.125
 4697SOL     OW14770   3.190   4.770   4.947
 4697SOL    HW114771   3.213   4.708   4.878
 4697SOL    HW214772   3.118   4.821   4.910
 4698SOL     OW14773   3.172   4.581   4.031
 4698SOL    HW114774   3.096   4.550   4.080
 4698SOL    HW214775   3.148   4.567   3.939
 4699SOL     OW14776   1.954   4.986   4.745
 4699SOL    HW114777   1.933   5.003   4.837
 4699SOL    HW214778   1.875   4.947   4.709
 4700SOL     OW14779   2.613   0.040   5.433
 4700SOL    HW114780   2.520   0.062   5.444
 4700SOL    HW214781   2.632   0.063   5.342
 4701SOL     OW14782   3.579   3.867   4.233
 4701SOL    HW114783   3.653   3.853   4.174
 4701SOL    HW214784   3.566   3.782   4.275
 4702SOL     OW14785   3.139   4.649   4.395
 4702SOL    HW114786   3.212   4.588   4.402
 4702SOL    HW214787   3.173   4.721   4.343
 4703SOL     OW14788   2.682   4.994   5.147
 4703SOL    HW114789   2.654   5.030   5.231
 4703SOL    HW214790   2.606   5.005   5.090
 4704SOL     OW14791   3.702   3.899   4.692
 4704SOL    HW114792   3.732   3.812   4.664
 4704SOL    HW214793   3.615   3.908   4.651
 4705SOL     OW14794   2.125   4.039   4.441
 4705SOL    HW114795   2.040   4.076   4.416
 4705SOL    HW214796   2.121   4.032   4.536
 4706SOL     OW14797   2.687   4.728   5.094
 4706SOL    HW114798   2.732   4.723   5.011
 4706SOL    HW214799   2.690   4.821   5.118
 4707SOL     OW14800   2.778   4.635   4.014
 4707SOL    HW114801   2.839   4.667   3.948
 4707SOL    HW214802   2.825   4.565   4.058
 4708SOL     OW14803   2.228   5.025   5.220
 4708SOL    HW114804   2.217   5.100   5.161
 4708SOL    HW214805   2.152   4.969   5.203
 4709SOL     OW14806   3.474   5.004   5.006
 4709SOL    HW114807   3.532   4.999   5.083
 4709SOL    HW214808   3.412   5.074   5.028
 4710SOL     OW14809   2.914   4.833   4.434
 4710SOL    HW114810   2.842   4.781   4.471
 4710SOL    HW214811   2.975   4.767   4.400
 4711SOL     OW14812   2.882   3.965   4.689
 4711SOL    HW114813   2.869   3.914   4.609
 4711SOL    HW214814   2.879   3.901   4.759
 4712SOL     OW14815   3.583   4.116   5.105
 4712SOL    HW114816   3.655   4.180   5.103
 4712SOL    HW214817   3.612   4.045   5.048
 4713SOL     OW14818   2.120   5.054   4.006
 4713SOL    HW114819   2.028   5.056   3.979
 4713SOL    HW214820   2.121   5.096   4.092
 4714SOL     OW14821   1.974   4.744   5.442
 4714SOL    HW114822   1.898   4.722   5.496
 4714SOL    HW214823   2.049   4.708   5.490
 4715SOL     OW14824   2.534   3.920   5.223
 4715SOL    HW114825   2.619   3.901   5.181
 4715SOL    HW214826   2.557   3.950   5.311
 4716SOL     OW14827   1.939   4.061   3.761
 4716SOL    HW114828   1.852   4.039   3.726
 4716SOL    HW214829   1.968   4.135   3.708
 4717SOL     OW14830   3.293   4.582   5.125
 4717SOL    HW114831   3.244   4.642   5.069
 4717SOL    HW214832   3.382   4.585   5.091
 4718SOL     OW14833   1.930   3.884   4.033
 4718SOL    HW114834   1.920   3.963   3.980
 4718SOL    HW214835   2.013   3.847   4.005
 4719SOL     OW14836   3.044   5.065   3.844
 4719SOL    HW114837   2.953   5.036   3.844
 4719SOL    HW214838   3.072   5.057   3.935
 4720SOL     OW14839   2.481   4.555   5.157
 4720SOL    HW114840   2.537   4.631   5.142
 4720SOL    HW214841   2.542   4.481   5.166
 4721SOL     OW14842   2.580   4.288   5.429
 4721SOL    HW114843   2.618   4.352   5.489
 4721SOL    HW214844   2.610   4.203   5.460
 4722SOL     OW14845   3.334   4.924   5.356
 4722SOL    HW114846   3.321   4.936   5.450
 4722SOL    HW214847   3.428   4.937   5.343
 4723SOL     OW14848   3.532   4.606   4.979
 4723SOL    HW114849   3.525   4.520   4.936
 4723SOL    HW214850   3.523   4.669   4.908
 4724SOL     OW14851   3.079   4.044   4.182
 4724SOL    HW114852   3.146   3.976   4.171
 4724SOL    HW214853   3.108   4.093   4.259
 4725SOL     OW14854   2.452   4.463   4.393
 4725SOL    HW114855   2.491   4.549   4.377
 4725SOL    HW214856   2.384   4.455   4.327
 4726SOL     OW14857   3.626   4.084   5.374
 4726SOL    HW114858   3.608   4.100   5.281
 4726SOL    HW214859   3.554   4.028   5.403
 4727SOL     OW14860   3.606   4.657   5.236
 4727SOL    HW114861   3.604   4.752   5.249
 4727SOL    HW214862   3.591   4.646   5.142
 4728SOL     OW14863   2.712   5.095   3.743
 4728SOL    HW114864   2.691   5.096   3.837
 4728SOL    HW214865   2.730   5.186   3.721
 4729SOL     OW14866   2.729   4.691   4.580
 4729SOL    HW114867   2.779   4.619   4.620
 4729SOL    HW214868   2.695   4.741   4.654
 4730SOL     OW14869   2.943   4.713   3.813
 4730SOL    HW114870   2.920   4.763   3.735
 4730SOL    HW214871   3.017   4.659   3.787
 4731SOL     OW14872   2.085   5.025   5.577
 4731SOL    HW114873   2.017   4.963   5.552
 4731SOL    HW214874   2.074   5.037   5.671
 4732SOL     OW14875   1.947   4.956   4.394
 4732SOL    HW114876   1.946   4.903   4.473
 4732SOL    HW214877   2.011   4.914   4.337
 4733SOL     OW14878   2.531   5.109   5.332
 4733SOL    HW114879   2.457   5.073   5.380
 4733SOL    HW214880   2.562   5.182   5.386
 4734SOL     OW14881   3.675   3.909   4.962
 4734SOL    HW114882   3.687   3.815   4.977
 4734SOL    HW214883   3.684   3.920   4.868
 4735SOL     OW14884   2.292   4.158   4.249
 4735SOL    HW114885   2.321   4.087   4.192
 4735SOL    HW214886   2.244   4.113   4.319
 4736SOL     OW14887   3.569   5.223   4.843
 4736SOL    HW114888   3.495   5.206   4.784
 4736SOL    HW214889   3.576   5.143   4.896
 4737SOL     OW14890   2.191   4.278   5.015
 4737SOL    HW114891   2.247   4.223   5.070
 4737SOL    HW214892   2.211   4.250   4.926
 4738SOL     OW14893   3.294   3.948   4.843
 4738SOL    HW114894   3.315   3.866   4.890
 4738SOL    HW214895   3.242   3.998   4.905
 4739SOL     OW14896   2.877   3.752   4.872
 4739SOL    HW114897   2.825   3.680   4.838
 4739SOL    HW214898   2.967   3.719   4.873
 4740SOL     OW14899   2.664   5.047   4.008
 4740SOL    HW114900   2.602   4.977   4.026
 4740SOL    HW214901   2.719   5.052   4.087
 4741SOL     OW14902   2.483   5.299   5.014
 4741SOL    HW114903   2.491   0.054   5.091
 4741SOL    HW214904   2.574   5.279   4.989
 4742SOL     OW14905   3.213   3.779   3.892
 4742SOL    HW114906   3.237   3.728   3.815
 4742SOL    HW214907   3.128   3.743   3.919
 4743SOL     OW14908   3.158   4.184   4.406
 4743SOL    HW114909   3.105   4.264   4.413
 4743SOL    HW214910   3.155   4.145   4.493
 4744SOL     OW14911   3.448   3.927   4.602
 4744SOL    HW114912   3.387   3.947   4.672
 4744SOL    HW214913   3.448   4.005   4.547
 4745SOL     OW14914   1.904   4.795   4.031
 4745SOL    HW114915   1.998   4.788   4.014
 4745SOL    HW214916   1.877   4.706   4.053
 4746SOL     OW14917   2.092   4.347   5.708
 4746SOL    HW114918   2.002   4.347   5.742
 4746SOL    HW214919   2.083   4.321   5.617
 4747SOL     OW14920   2.086   4.005   6.577
 4747SOL    HW114921   2.115   3.971   6.662
 4747SOL    HW214922   1.997   3.972   6.568
 4748SOL     OW14923   1.867   4.106   6.224
 4748SOL    HW114924   1.784   4.131   6.265
 4748SOL    HW214925   1.847   4.027   6.175
 4749SOL     OW14926   2.428   5.004   6.763
 4749SOL    HW114927   2.343   5.002   6.720
 4749SOL    HW214928   2.439   5.095   6.791
 4750SOL     OW14929   3.417   5.232   6.275
 4750SOL    HW114930   3.395   5.229   6.368
 4750SOL    HW214931   3.338   5.267   6.233
 4751SOL     OW14932   2.991   4.422   6.288
 4751SOL    HW114933   3.041   4.503   6.274
 4751SOL    HW214934   2.945   4.437   6.370
 4752SOL     OW14935   3.628   4.330   5.815
 4752SOL    HW114936   3.608   4.322   5.722
 4752SOL    HW214937   3.593   4.250   5.855
 4753SOL     OW14938   2.620   4.869   6.624
 4753SOL    HW114939   2.551   4.900   6.683
 4753SOL    HW214940   2.649   4.948   6.578
 4754SOL     OW14941   2.727   4.503   7.406
 4754SOL    HW114942   2.711   4.577   7.464
 4754SOL    HW214943   2.752   4.542   7.323
 4755SOL     OW14944   2.548   4.728   6.234
 4755SOL    HW114945   2.613   4.716   6.304
 4755SOL    HW214946   2.479   4.780   6.275
 4756SOL     OW14947   2.570   4.873   7.396
 4756SOL    HW114948   2.618   4.953   7.420
 4756SOL    HW214949   2.486   4.905   7.362
 4757SOL     OW14950   2.199   5.153   6.647
 4757SOL    HW114951   2.122   5.109   6.610
 4757SOL    HW214952   2.240   5.196   6.572
 4758SOL     OW14953   3.317   5.220   6.933
 4758SOL    HW114954   3.371   5.293   6.964
 4758SOL    HW214955   3.251   5.207   7.000
 4759SOL     OW14956   2.310   4.123   7.075
 4759SOL    HW114957   2.386   4.064   7.080
 4759SOL    HW214958   2.234   4.066   7.087
 4760SOL     OW14959   3.474   4.172   6.326
 4760SOL    HW114960   3.399   4.196   6.272
 4760SOL    HW214961   3.492   4.250   6.379
 4761SOL     OW14962   2.995   5.071   7.284
 4761SOL    HW114963   3.028   5.070   7.374
 4761SOL    HW214964   2.941   4.992   7.278
 4762SOL     OW14965   2.072   5.155   6.106
 4762SOL    HW114966   2.097   5.238   6.146
 4762SOL    HW214967   2.020   5.111   6.173
 4763SOL     OW14968   2.119   4.811   6.478
 4763SOL    HW114969   2.116   4.724   6.517
 4763SOL    HW214970   2.061   4.864   6.532
 4764SOL     OW14971   2.449   4.705   5.719
 4764SOL    HW114972   2.494   4.754   5.651
 4764SOL    HW214973   2.488   4.734   5.801
 4765SOL     OW14974   3.458   3.847   7.055
 4765SOL    HW114975   3.461   3.927   7.003
 4765SOL    HW214976   3.445   3.876   7.145
 4766SOL     OW14977   1.977   4.376   6.145
 4766SOL    HW114978   1.948   4.287   6.166
 4766SOL    HW214979   1.968   4.424   6.228
 4767SOL     OW14980   1.848   0.014   5.685
 4767SOL    HW114981   1.865   5.225   5.715
 4767SOL    HW214982   1.871   0.069   5.760
 4768SOL     OW14983   3.551   4.642   6.225
 4768SOL    HW114984   3.635   4.601   6.206
 4768SOL    HW214985   3.530   4.693   6.147
 4769SOL     OW14986   3.507   4.831   6.016
 4769SOL    HW114987   3.592   4.837   5.972
 4769SOL    HW214988   3.513   4.892   6.089
 4770SOL     OW14989   1.985   4.466   7.173
 4770SOL    HW114990   2.077   4.490   7.182
 4770SOL    HW214991   1.937   4.548   7.180
 4771SOL     OW14992   2.483   5.097   6.322
 4771SOL    HW114993   2.429   5.018   6.321
 4771SOL    HW214994   2.464   5.140   6.238
 4772SOL     OW14995   3.151   4.955   7.012
 4772SOL    HW114996   3.186   4.890   6.951
 4772SOL    HW214997   3.210   4.952   7.087
 4773SOL     OW14998   2.675   3.723   6.091
 4773SOL    HW114999   2.716   3.808   6.075
 4773SOL    HW215000   2.582   3.743   6.103
 4774SOL     OW15001   2.053   4.691   6.855
 4774SOL    HW115002   2.137   4.648   6.841
 4774SOL    HW215003   1.989   4.635   6.810
 4775SOL     OW15004   3.393   4.718   5.783
 4775SOL    HW115005   3.323   4.660   5.814
 4775SOL    HW215006   3.434   4.752   5.862
 4776SOL     OW15007   2.193   3.974   7.396
 4776SOL    HW115008   2.239   4.056   7.410
 4776SOL    HW215009   2.105   3.990   7.428
 4777SOL     OW15010   3.337   5.146   6.548
 4777SOL    HW115011   3.265   5.158   6.609
 4777SOL    HW215012   3.325   5.058   6.514
 4778SOL     OW15013   2.458   4.446   5.851
 4778SOL    HW115014   2.465   4.527   5.800
 4778SOL    HW215015   2.393   4.465   5.919
 4779SOL     OW15016   3.141   4.075   6.518
 4779SOL    HW115017   3.052   4.041   6.527
 4779SOL    HW215018   3.192   4.022   6.580
 4780SOL     OW15019   2.654   4.342   7.038
 4780SOL    HW115020   2.628   4.318   7.127
 4780SOL    HW215021   2.613   4.275   6.983
 4781SOL     OW15022   3.256   4.198   7.263
 4781SOL    HW115023   3.258   4.242   7.348
 4781SOL    HW215024   3.317   4.125   7.273
 4782SOL     OW15025   2.818   4.612   7.168
 4782SOL    HW115026   2.872   4.541   7.133
 4782SOL    HW215027   2.770   4.645   7.092
 4783SOL     OW15028   2.855   4.138   6.825
 4783SOL    HW115029   2.770   4.159   6.864
 4783SOL    HW215030   2.833   4.089   6.745
 4784SOL     OW15031   2.912   4.422   6.012
 4784SOL    HW115032   2.928   4.416   6.107
 4784SOL    HW215033   2.830   4.376   5.998
 4785SOL     OW15034   1.950   4.545   6.362
 4785SOL    HW115035   2.031   4.537   6.412
 4785SOL    HW215036   1.907   4.622   6.397
 4786SOL     OW15037   2.753   4.072   5.780
 4786SOL    HW115038   2.794   4.133   5.720
 4786SOL    HW215039   2.770   3.986   5.742
 4787SOL     OW15040   3.572   4.301   7.415
 4787SOL    HW115041   3.534   4.375   7.368
 4787SOL    HW215042   3.598   4.239   7.346
 4788SOL     OW15043   3.238   4.864   6.126
 4788SOL    HW115044   3.319   4.850   6.077
 4788SOL    HW215045   3.188   4.925   6.072
 4789SOL     OW15046   2.412   3.907   6.478
 4789SOL    HW115047   2.414   3.935   6.570
 4789SOL    HW215048   2.413   3.989   6.429
 4790SOL     OW15049   2.884   5.172   6.055
 4790SOL    HW115050   2.805   5.225   6.048
 4790SOL    HW215051   2.898   5.162   6.149
 4791SOL     OW15052   3.662   4.782   6.452
 4791SOL    HW115053   3.604   4.765   6.377
 4791SOL    HW215054   3.602   4.788   6.527
 4792SOL     OW15055   3.112   5.239   7.109
 4792SOL    HW115056   3.075   5.173   7.167
 4792SOL    HW215057   3.041   5.259   7.047
 4793SOL     OW15058   2.183   4.680   5.835
 4793SOL    HW115059   2.265   4.699   5.790
 4793SOL    HW215060   2.152   4.598   5.796
 4794SOL     OW15061   3.339   4.465   6.314
 4794SOL    HW115062   3.330   4.421   6.398
 4794SOL    HW215063   3.417   4.520   6.323
 4795SOL     OW15064   2.326   4.987   7.327
 4795SOL    HW115065   2.298   4.990   7.235
 4795SOL    HW215066   2.243   4.986   7.376
 4796SOL     OW15067   2.939   0.183   5.794
 4796SOL    HW115068   2.936   0.106   5.852
 4796SOL    HW215069   2.968   0.148   5.710
 4797SOL     OW15070   2.062   4.006   7.087
 4797SOL    HW115071   1.980   4.054   7.081
 4797SOL    HW215072   2.045   3.937   7.151
 4798SOL     OW15073   3.486   5.099   5.692
 4798SOL    HW115074   3.479   5.179   5.638
 4798SOL    HW215075   3.417   5.042   5.658
 4799SOL     OW15076   3.263   3.832   6.018
 4799SOL    HW115077   3.253   3.807   5.926
 4799SOL    HW215078   3.358   3.839   6.030
 4800SOL     OW15079   2.254   4.419   6.063
 4800SOL    HW115080   2.275   4.327   6.074
 4800SOL    HW215081   2.160   4.424   6.081
 4801SOL     OW15082   3.398   3.949   7.312
 4801SOL    HW115083   3.407   3.970   7.404
 4801SOL    HW215084   3.330   3.882   7.309
 4802SOL     OW15085   2.494   3.847   5.692
 4802SOL    HW115086   2.566   3.785   5.703
 4802SOL    HW215087   2.447   3.815   5.616
 4803SOL     OW15088   2.628   4.000   7.339
 4803SOL    HW115089   2.704   3.941   7.342
 4803SOL    HW215090   2.584   3.987   7.422
 4804SOL     OW15091   3.203   4.313   7.018
 4804SOL    HW115092   3.234   4.281   7.103
 4804SOL    HW215093   3.239   4.401   7.010
 4805SOL     OW15094   2.673   5.121   6.520
 4805SOL    HW115095   2.754   5.106   6.471
 4805SOL    HW215096   2.605   5.127   6.453
 4806SOL     OW15097   2.789   4.233   6.489
 4806SOL    HW115098   2.766   4.225   6.397
 4806SOL    HW215099   2.821   4.147   6.514
 4807SOL     OW15100   2.410   3.787   6.089
 4807SOL    HW115101   2.330   3.788   6.141
 4807SOL    HW215102   2.404   3.866   6.035
 4808SOL     OW15103   3.289   4.923   5.625
 4808SOL    HW115104   3.321   4.848   5.675
 4808SOL    HW215105   3.202   4.941   5.659
 4809SOL     OW15106   2.154   3.771   5.770
 4809SOL    HW115107   2.213   3.836   5.732
 4809SOL    HW215108   2.212   3.708   5.812
 4810SOL     OW15109   2.799   3.970   6.048
 4810SOL    HW115110   2.772   4.012   5.966
 4810SOL    HW215111   2.894   3.983   6.051
 4811SOL     OW15112   2.942   4.404   7.046
 4811SOL    HW115113   2.873   4.338   7.051
 4811SOL    HW215114   3.023   4.354   7.039
 4812SOL     OW15115   3.126   5.267   6.366
 4812SOL    HW115116   3.087   0.050   6.336
 4812SOL    HW215117   3.169   5.290   6.448
 4813SOL     OW15118   2.327   4.871   6.318
 4813SOL    HW115119   2.258   4.852   6.381
 4813SOL    HW215120   2.288   4.853   6.233
 4814SOL     OW15121   2.886   4.267   5.608
 4814SOL    HW115122   2.844   4.351   5.587
 4814SOL    HW215123   2.951   4.289   5.674
 4815SOL     OW15124   1.940   4.279   6.978
 4815SOL    HW115125   2.032   4.277   6.951
 4815SOL    HW215126   1.936   4.349   7.043
 4816SOL     OW15127   2.422   3.951   6.751
 4816SOL    HW115128   2.463   3.873   6.789
 4816SOL    HW215129   2.331   3.947   6.781
 4817SOL     OW15130   2.730   4.183   6.226
 4817SOL    HW115131   2.685   4.238   6.161
 4817SOL    HW215132   2.751   4.102   6.179
 4818SOL     OW15133   2.878   3.777   6.338
 4818SOL    HW115134   2.819   3.770   6.263
 4818SOL    HW215135   2.856   3.702   6.393
 4819SOL     OW15136   3.298   4.890   6.445
 4819SOL    HW115137   3.233   4.820   6.441
 4819SOL    HW215138   3.324   4.904   6.354
 4820SOL     OW15139   3.329   4.328   6.564
 4820SOL    HW115140   3.279   4.246   6.568
 4820SOL    HW215141   3.389   4.323   6.639
 4821SOL     OW15142   3.708   4.541   5.968
 4821SOL    HW115143   3.764   4.489   6.026
 4821SOL    HW215144   3.679   4.478   5.901
 4822SOL     OW15145   2.344   5.145   5.742
 4822SOL    HW115146   2.281   5.094   5.792
 4822SOL    HW215147   2.342   5.106   5.654
 4823SOL     OW15148   3.531   4.987   6.234
 4823SOL    HW115149   3.625   4.994   6.250
 4823SOL    HW215150   3.497   5.075   6.250
 4824SOL     OW15151   3.256   4.296   5.657
 4824SOL    HW115152   3.195   4.276   5.729
 4824SOL    HW215153   3.341   4.264   5.688
 4825SOL     OW15154   2.387   3.987   5.905
 4825SOL    HW115155   2.431   3.938   5.835
 4825SOL    HW215156   2.367   4.072   5.867
 4826SOL     OW15157   3.613   4.959   7.163
 4826SOL    HW115158   3.700   4.918   7.162
 4826SOL    HW215159   3.631   5.052   7.177
 4827SOL     OW15160   2.927   5.075   6.917
 4827SOL    HW115161   2.849   5.049   6.966
 4827SOL    HW215162   2.999   5.035   6.965
 4828SOL     OW15163   2.987   4.925   6.694
 4828SOL    HW115164   2.937   4.966   6.764
 4828SOL    HW215165   2.943   4.952   6.613
 4829SOL     OW15166   3.492   4.823   6.663
 4829SOL    HW115167   3.487   4.884   6.736
 4829SOL    HW215168   3.413   4.841   6.612
 4830SOL     OW15169   2.780   3.822   6.983
 4830SOL    HW115170   2.803   3.803   6.892
 4830SOL    HW215171   2.859   3.861   7.020
 4831SOL     OW15172   2.846   4.838   7.312
 4831SOL    HW115173   2.753   4.854   7.328
 4831SOL    HW215174   2.847   4.762   7.254
 4832SOL     OW15175   2.566   4.782   5.958
 4832SOL    HW115176   2.555   4.767   6.052
 4832SOL    HW215177   2.644   4.731   5.935
 4833SOL     OW15178   2.280   4.538   6.838
 4833SOL    HW115179   2.349   4.548   6.903
 4833SOL    HW215180   2.245   4.450   6.851
 4834SOL     OW15181   3.128   4.102   6.860
 4834SOL    HW115182   3.161   4.179   6.906
 4834SOL    HW215183   3.038   4.124   6.836
 4835SOL     OW15184   2.211   4.831   6.076
 4835SOL    HW115185   2.214   4.904   6.014
 4835SOL    HW215186   2.210   4.753   6.021
 4836SOL     OW15187   2.416   4.261   6.446
 4836SOL    HW115188   2.431   4.319   6.372
 4836SOL    HW215189   2.480   4.288   6.512
 4837SOL     OW15190   3.121   5.076   5.972
 4837SOL    HW115191   3.177   5.144   6.009
 4837SOL    HW215192   3.033   5.099   6.001
 4838SOL     OW15193   3.130   5.181   6.728
 4838SOL    HW115194   3.190   5.195   6.802
 4838SOL    HW215195   3.086   5.098   6.747
 4839SOL     OW15196   3.444   4.348   6.064
 4839SOL    HW115197   3.398   4.402   6.128
 4839SOL    HW215198   3.490   4.410   6.007
 4840SOL     OW15199   2.210   5.236   6.902
 4840SOL    HW115200   2.199   5.201   6.813
 4840SOL    HW215201   2.303   5.257   6.907
 4841SOL     OW15202   2.276   4.469   7.188
 4841SOL    HW115203   2.337   4.514   7.130
 4841SOL    HW215204   2.315   4.383   7.203
 4842SOL     OW15205   3.462   4.502   7.267
 4842SOL    HW115206   3.376   4.543   7.260
 4842SOL    HW215207   3.514   4.544   7.199
 4843SOL     OW15208   2.858   3.846   7.341
 4843SOL    HW115209   2.913   3.918   7.311
 4843SOL    HW215210   2.906   3.767   7.316
 4844SOL     OW15211   2.360   3.766   7.333
 4844SOL    HW115212   2.318   3.711   7.267
 4844SOL    HW215213   2.301   3.839   7.345
 4845SOL     OW15214   2.445   4.596   6.617
 4845SOL    HW115215   2.475   4.687   6.615
 4845SOL    HW215216   2.388   4.591   6.694
 4846SOL     OW15217   3.221   4.582   6.616
 4846SOL    HW115218   3.138   4.573   6.568
 4846SOL    HW215219   3.260   4.495   6.612
 4847SOL     OW15220   3.068   4.253   5.854
 4847SOL    HW115221   3.076   4.174   5.908
 4847SOL    HW215222   3.025   4.317   5.910
 4848SOL     OW15223   2.161   3.923   6.832
 4848SOL    HW115224   2.125   3.955   6.914
 4848SOL    HW215225   2.142   3.829   6.833
 4849SOL     OW15226   1.913   5.046   6.870
 4849SOL    HW115227   1.939   4.982   6.937
 4849SOL    HW215228   1.949   5.129   6.901
 4850SOL     OW15229   2.587   4.355   6.644
 4850SOL    HW115230   2.661   4.338   6.586
 4850SOL    HW215231   2.559   4.444   6.623
 4851SOL     OW15232   3.597   4.684   7.437
 4851SOL    HW115233   3.549   4.624   7.380
 4851SOL    HW215234   3.539   4.697   7.512
 4852SOL     OW15235   2.164   3.789   6.209
 4852SOL    HW115236   2.146   3.880   6.233
 4852SOL    HW215237   2.172   3.743   6.293
 4853SOL     OW15238   3.477   4.097   5.954
 4853SOL    HW115239   3.505   4.034   6.020
 4853SOL    HW215240   3.454   4.176   6.004
 4854SOL     OW15241   2.889   4.483   6.547
 4854SOL    HW115242   2.887   4.501   6.641
 4854SOL    HW215243   2.863   4.392   6.540
 4855SOL     OW15244   3.716   5.214   7.171
 4855SOL    HW115245   3.713   5.288   7.110
 4855SOL    HW215246   3.786   5.237   7.233
 4856SOL     OW15247   2.216   4.639   7.395
 4856SOL    HW115248   2.298   4.658   7.439
 4856SOL    HW215249   2.239   4.577   7.326
 4857SOL     OW15250   3.392   3.997   5.713
 4857SOL    HW115251   3.327   3.932   5.740
 4857SOL    HW215252   3.425   4.033   5.796
 4858SOL     OW15253   3.155   4.550   5.618
 4858SOL    HW115254   3.198   4.465   5.621
 4858SOL    HW215255   3.186   4.590   5.536
 4859SOL     OW15256   2.920   5.077   6.414
 4859SOL    HW115257   2.925   4.993   6.370
 4859SOL    HW215258   3.006   5.117   6.400
 4860SOL     OW15259   2.171   4.533   6.534
 4860SOL    HW115260   2.264   4.554   6.527
 4860SOL    HW215261   2.169   4.444   6.567
 4861SOL     OW15262   2.194   4.249   6.598
 4861SOL    HW115263   2.159   4.162   6.583
 4861SOL    HW215264   2.270   4.255   6.540
 4862SOL     OW15265   2.997   4.101   7.266
 4862SOL    HW115266   2.950   4.156   7.329
 4862SOL    HW215267   3.085   4.139   7.262
 4863SOL     OW15268   3.022   3.927   7.055
 4863SOL    HW115269   3.012   3.990   7.127
 4863SOL    HW215270   3.062   3.979   6.984
 4864SOL     OW15271   1.868   5.042   5.777
 4864SOL    HW115272   1.778   5.059   5.749
 4864SOL    HW215273   1.866   4.954   5.814
 4865SOL     OW15274   2.846   4.517   6.813
 4865SOL    HW115275   2.902   4.493   6.888
 4865SOL    HW215276   2.761   4.479   6.834
 4866SOL     OW15277   1.898   4.269   6.702
 4866SOL    HW115278   1.978   4.253   6.653
 4866SOL    HW215279   1.926   4.272   6.794
 4867SOL     OW15280   2.054   4.242   7.313
 4867SOL    HW115281   2.110   4.204   7.245
 4867SOL    HW215282   2.010   4.315   7.269
 4868SOL     OW15283   3.238   4.664   7.245
 4868SOL    HW115284   3.259   4.757   7.243
 4868SOL    HW215285   3.235   4.638   7.153
 4869SOL     OW15286   2.678   4.293   5.945
 4869SOL    HW115287   2.681   4.218   5.885
 4869SOL    HW215288   2.604   4.345   5.914
 4870SOL     OW15289   3.504   4.325   6.773
 4870SOL    HW115290   3.494   4.266   6.847
 4870SOL    HW215291   3.591   4.305   6.739
 4871SOL     OW15292   2.070   5.276   7.329
 4871SOL    HW115293   2.043   0.027   7.405
 4871SOL    HW215294   2.082   5.187   7.363
 4872SOL     OW15295   2.560   4.176   6.847
 4872SOL    HW115296   2.509   4.101   6.816
 4872SOL    HW215297   2.558   4.238   6.774
 4873SOL     OW15298   2.327   4.217   5.774
 4873SOL    HW115299   2.385   4.290   5.795
 4873SOL    HW215300   2.241   4.257   5.761
 4874SOL     OW15301   2.008   4.863   7.056
 4874SOL    HW115302   2.011   4.811   7.137
 4874SOL    HW215303   2.025   4.800   6.987
 4875SOL     OW15304   3.190   4.770   6.809
 4875SOL    HW115305   3.213   4.708   6.740
 4875SOL    HW215306   3.118   4.821   6.772
 4876SOL     OW15307   3.172   4.581   5.893
 4876SOL    HW115308   3.096   4.550   5.942
 4876SOL    HW215309   3.148   4.567   5.801
 4877SOL     OW15310   1.954   4.986   6.607
 4877SOL    HW115311   1.933   5.003   6.699
 4877SOL    HW215312   1.875   4.947   6.571
 4878SOL     OW15313   2.613   0.038   7.296
 4878SOL    HW115314   2.520   0.062   7.307
 4878SOL    HW215315   2.633   0.063   7.206
 4879SOL     OW15316   3.581   3.869   6.096
 4879SOL    HW115317   3.654   3.855   6.036
 4879SOL    HW215318   3.565   3.783   6.137
 4880SOL     OW15319   3.139   4.649   6.257
 4880SOL    HW115320   3.212   4.588   6.264
 4880SOL    HW215321   3.173   4.721   6.205
 4881SOL     OW15322   2.682   4.994   7.009
 4881SOL    HW115323   2.653   5.030   7.093
 4881SOL    HW215324   2.607   5.005   6.951
 4882SOL     OW15325   3.702   3.897   6.553
 4882SOL    HW115326   3.731   3.810   6.525
 4882SOL    HW215327   3.616   3.908   6.513
 4883SOL     OW15328   2.125   4.040   6.303
 4883SOL    HW115329   2.039   4.076   6.279
 4883SOL    HW215330   2.121   4.032   6.399
 4884SOL     OW15331   2.686   4.728   6.957
 4884SOL    HW115332   2.733   4.722   6.873
 4884SOL    HW215333   2.690   4.821   6.979
 4885SOL     OW15334   2.778   4.635   5.876
 4885SOL    HW115335   2.839   4.667   5.810
 4885SOL    HW215336   2.826   4.565   5.920
 4886SOL     OW15337   2.228   5.025   7.083
 4886SOL    HW115338   2.217   5.100   7.023
 4886SOL    HW215339   2.152   4.969   7.065
 4887SOL     OW15340   3.474   5.004   6.868
 4887SOL    HW115341   3.531   4.998   6.945
 4887SOL    HW215342   3.412   5.074   6.890
 4888SOL     OW15343   2.914   4.833   6.296
 4888SOL    HW115344   2.842   4.781   6.333
 4888SOL    HW215345   2.976   4.767   6.262
 4889SOL     OW15346   2.882   3.964   6.552
 4889SOL    HW115347   2.878   3.916   6.469
 4889SOL    HW215348   2.877   3.896   6.619
 4890SOL     OW15349   3.583   4.116   6.967
 4890SOL    HW115350   3.655   4.179   6.965
 4890SOL    HW215351   3.613   4.045   6.911
 4891SOL     OW15352   2.120   5.054   5.868
 4891SOL    HW115353   2.028   5.056   5.841
 4891SOL    HW215354   2.121   5.096   5.954
 4892SOL     OW15355   1.975   4.745   7.305
 4892SOL    HW115356   1.898   4.722   7.357
 4892SOL    HW215357   2.049   4.707   7.352
 4893SOL     OW15358   2.535   3.921   7.085
 4893SOL    HW115359   2.619   3.901   7.043
 4893SOL    HW215360   2.558   3.950   7.173
 4894SOL     OW15361   1.940   4.059   5.621
 4894SOL    HW115362   1.853   4.039   5.587
 4894SOL    HW215363   1.969   4.133   5.569
 4895SOL     OW15364   3.293   4.582   6.987
 4895SOL    HW115365   3.244   4.643   6.931
 4895SOL    HW215366   3.382   4.585   6.953
 4896SOL     OW15367   1.931   3.881   5.897
 4896SOL    HW115368   1.917   3.961   5.847
 4896SOL    HW215369   2.016   3.848   5.868
 4897SOL     OW15370   3.044   5.064   5.706
 4897SOL    HW115371   2.953   5.036   5.706
 4897SOL    HW215372   3.072   5.057   5.797
 4898SOL     OW15373   2.481   4.555   7.019
 4898SOL    HW115374   2.537   4.631   7.003
 4898SOL    HW215375   2.541   4.481   7.028
 4899SOL     OW15376   2.580   4.288   7.291
 4899SOL    HW115377   2.618   4.350   7.353
 4899SOL    HW215378   2.610   4.202   7.322
 4900SOL     OW15379   3.334   4.924   7.218
 4900SOL    HW115380   3.321   4.937   7.312
 4900SOL    HW215381   3.428   4.937   7.205
 4901SOL     OW15382   3.532   4.606   6.841
 4901SOL    HW115383   3.525   4.520   6.799
 4901SOL    HW215384   3.523   4.669   6.770
 4902SOL     OW15385   3.079   4.043   6.044
 4902SOL    HW115386   3.143   3.972   6.035
 4902SOL    HW215387   3.108   4.092   6.121
 4903SOL     OW15388   2.452   4.463   6.255
 4903SOL    HW115389   2.491   4.549   6.239
 4903SOL    HW215390   2.384   4.455   6.188
 4904SOL     OW15391   3.625   4.085   7.237
 4904SOL    HW115392   3.608   4.100   7.144
 4904SOL    HW215393   3.553   4.028   7.265
 4905SOL     OW15394   3.607   4.657   7.098
 4905SOL    HW115395   3.604   4.752   7.112
 4905SOL    HW215396   3.591   4.646   7.004
 4906SOL     OW15397   2.712   5.095   5.605
 4906SOL    HW115398   2.691   5.096   5.699
 4906SOL    HW215399   2.730   5.186   5.583
 4907SOL     OW15400   2.729   4.691   6.442
 4907SOL    HW115401   2.779   4.619   6.482
 4907SOL    HW215402   2.695   4.741   6.516
 4908SOL     OW15403   2.942   4.713   5.675
 4908SOL    HW115404   2.920   4.763   5.597
 4908SOL    HW215405   3.017   4.659   5.649
 4909SOL     OW15406   2.085   5.025   7.442
 4909SOL    HW115407   2.018   4.962   7.412
 4909SOL    HW215408   2.065   5.038   7.535
 4910SOL     OW15409   1.947   4.956   6.256
 4910SOL    HW115410   1.946   4.903   6.335
 4910SOL    HW215411   2.011   4.914   6.199
 4911SOL     OW15412   2.531   5.108   7.194
 4911SOL    HW115413   2.456   5.074   7.242
 4911SOL    HW215414   2.562   5.182   7.247
 4912SOL     OW15415   3.675   3.909   6.824
 4912SOL    HW115416   3.685   3.815   6.839
 4912SOL    HW215417   3.684   3.919   6.729
 4913SOL     OW15418   2.291   4.158   6.111
 4913SOL    HW115419   2.321   4.087   6.054
 4913SOL    HW215420   2.244   4.114   6.182
 4914SOL     OW15421   3.569   5.223   6.705
 4914SOL    HW115422   3.495   5.206   6.646
 4914SOL    HW215423   3.576   5.143   6.758
 4915SOL     OW15424   2.191   4.278   6.877
 4915SOL    HW115425   2.247   4.223   6.932
 4915SOL    HW215426   2.211   4.250   6.788
 4916SOL     OW15427   3.294   3.949   6.704
 4916SOL    HW115428   3.320   3.869   6.751
 4916SOL    HW215429   3.242   3.998   6.767
 4917SOL     OW15430   2.871   3.744   6.730
 4917SOL    HW115431   2.816   3.675   6.692
 4917SOL    HW215432   2.958   3.705   6.732
 4918SOL     OW15433   2.664   5.048   5.870
 4918SOL    HW115434   2.602   4.977   5.888
 4918SOL    HW215435   2.719   5.052   5.949
 4919SOL     OW15436   2.483   5.299   6.876
 4919SOL    HW115437   2.491   0.054   6.953
 4919SOL    HW215438   2.574   5.279   6.851
 4920SOL     OW15439   3.214   3.778   5.751
 4920SOL    HW115440   3.241   3.716   5.683
 4920SOL    HW215441   3.127   3.747   5.777
 4921SOL     OW15442   3.159   4.184   6.268
 4921SOL    HW115443   3.105   4.263   6.275
 4921SOL    HW215444   3.155   4.144   6.355
 4922SOL     OW15445   3.449   3.927   6.463
 4922SOL    HW115446   3.387   3.947   6.534
 4922SOL    HW215447   3.448   4.005   6.408
 4923SOL     OW15448   1.904   4.795   5.893
 4923SOL    HW115449   1.998   4.788   5.876
 4923SOL    HW215450   1.877   4.706   5.915
 4924SOL     OW15451   2.091   4.344   7.571
 4924SOL    HW115452   2.000   4.350   7.601
 4924SOL    HW215453   2.084   4.320   7.479
 4925SOL     OW15454   3.629   4.323   7.680
 4925SOL    HW115455   3.609   4.318   7.586
 4925SOL    HW215456   3.587   4.245   7.717
 4926SOL     OW15457   2.139   0.126   7.957
 4926SOL    HW115458   2.114   0.212   7.992
 4926SOL    HW215459   2.145   0.140   7.862
 4927SOL     OW15460   2.080   5.156   7.989
 4927SOL    HW115461   2.091   5.251   7.997
 4927SOL    HW215462   2.022   5.132   8.061
 4928SOL     OW15463   2.448   4.705   7.578
 4928SOL    HW115464   2.493   4.755   7.511
 4928SOL    HW215465   2.487   4.735   7.660
 4929SOL     OW15466   1.860   0.011   7.539
 4929SOL    HW115467   1.866   5.222   7.575
 4929SOL    HW215468   1.861   0.067   7.617
 4930SOL     OW15469   3.545   4.593   8.036
 4930SOL    HW115470   3.626   4.604   0.005
 4930SOL    HW215471   3.534   4.676   7.990
 4931SOL     OW15472   3.517   4.825   7.875
 4931SOL    HW115473   3.605   4.845   7.843
 4931SOL    HW215474   3.498   4.895   7.938
 4932SOL     OW15475   2.664   3.718   7.940
 4932SOL    HW115476   2.712   3.799   7.924
 4932SOL    HW215477   2.573   3.746   7.948
 4933SOL     OW15478   3.394   4.720   7.647
 4933SOL    HW115479   3.328   4.659   7.680
 4933SOL    HW215480   3.437   4.754   7.726
 4934SOL     OW15481   2.453   4.449   7.708
 4934SOL    HW115482   2.459   4.530   7.658
 4934SOL    HW215483   2.393   4.469   7.780
 4935SOL     OW15484   1.924   4.585   0.092
 4935SOL    HW115485   1.989   4.522   0.122
 4935SOL    HW215486   1.916   4.648   0.164
 4936SOL     OW15487   2.742   4.070   7.637
 4936SOL    HW115488   2.788   4.130   7.579
 4936SOL    HW215489   2.775   3.983   7.613
 4937SOL     OW15490   2.185   4.679   7.697
 4937SOL    HW115491   2.266   4.697   7.648
 4937SOL    HW215492   2.150   4.600   7.656
 4938SOL     OW15493   2.955   0.190   7.649
 4938SOL    HW115494   2.923   0.126   7.712
 4938SOL    HW215495   2.957   0.142   7.566
 4939SOL     OW15496   3.489   5.099   7.549
 4939SOL    HW115497   3.472   5.181   7.503
 4939SOL    HW215498   3.419   5.040   7.520
 4940SOL     OW15499   3.277   3.855   7.864
 4940SOL    HW115500   3.264   3.820   7.776
 4940SOL    HW215501   3.371   3.851   7.877
 4941SOL     OW15502   2.252   4.422   7.918
 4941SOL    HW115503   2.260   4.327   7.925
 4941SOL    HW215504   2.161   4.441   7.940
 4942SOL     OW15505   2.489   3.845   7.559
 4942SOL    HW115506   2.566   3.788   7.569
 4942SOL    HW215507   2.446   3.814   7.480
 4943SOL     OW15508   2.394   3.796   7.959
 4943SOL    HW115509   2.309   3.800   8.002
 4943SOL    HW215510   2.393   3.868   7.895
 4944SOL     OW15511   3.290   4.924   7.488
 4944SOL    HW115512   3.320   4.849   7.539
 4944SOL    HW215513   3.202   4.942   7.521
 4945SOL     OW15514   2.155   3.773   7.632
 4945SOL    HW115515   2.214   3.834   7.588
 4945SOL    HW215516   2.213   3.708   7.671
 4946SOL     OW15517   2.805   3.950   7.911
 4946SOL    HW115518   2.762   4.015   7.855
 4946SOL    HW215519   2.897   3.980   7.914
 4947SOL     OW15520   2.304   4.875   0.100
 4947SOL    HW115521   2.227   4.906   0.148
 4947SOL    HW215522   2.272   4.860   0.011
 4948SOL     OW15523   2.888   4.268   7.466
 4948SOL    HW115524   2.843   4.350   7.448
 4948SOL    HW215525   2.949   4.288   7.537
 4949SOL     OW15526   3.731   4.542   7.802
 4949SOL    HW115527   3.734   4.509   7.892
 4949SOL    HW215528   3.691   4.471   7.752
 4950SOL     OW15529   2.337   5.149   7.603
 4950SOL    HW115530   2.278   5.097   7.657
 4950SOL    HW215531   2.340   5.103   7.519
 4951SOL     OW15532   3.256   4.296   7.519
 4951SOL    HW115533   3.195   4.276   7.591
 4951SOL    HW215534   3.340   4.262   7.549
 4952SOL     OW15535   2.388   3.990   7.771
 4952SOL    HW115536   2.431   3.939   7.702
 4952SOL    HW215537   2.366   4.073   7.729
 4953SOL     OW15538   2.569   4.782   7.813
 4953SOL    HW115539   2.548   4.770   7.906
 4953SOL    HW215540   2.650   4.732   7.800
 4954SOL     OW15541   2.228   4.824   7.928
 4954SOL    HW115542   2.207   4.904   7.879
 4954SOL    HW215543   2.215   4.753   7.866
 4955SOL     OW15544   3.087   5.114   7.831
 4955SOL    HW115545   3.172   5.125   7.873
 4955SOL    HW215546   3.037   5.060   7.892
 4956SOL     OW15547   3.449   4.353   7.921
 4956SOL    HW115548   3.434   4.412   7.995
 4956SOL    HW215549   3.490   4.408   7.855
 4957SOL     OW15550   3.067   4.251   7.716
 4957SOL    HW115551   3.070   4.167   7.763
 4957SOL    HW215552   3.039   4.314   7.783
 4958SOL     OW15553   3.480   4.102   7.815
 4958SOL    HW115554   3.501   4.035   7.880
 4958SOL    HW215555   3.454   4.178   7.867
 4959SOL     OW15556   3.392   3.999   7.575
 4959SOL    HW115557   3.327   3.933   7.601
 4959SOL    HW215558   3.425   4.034   7.658
 4960SOL     OW15559   3.157   4.552   7.482
 4960SOL    HW115560   3.198   4.465   7.483
 4960SOL    HW215561   3.187   4.591   7.400
 4961SOL     OW15562   1.870   5.045   7.640
 4961SOL    HW115563   1.780   5.059   7.610
 4961SOL    HW215564   1.871   4.956   7.675
 4962SOL     OW15565   2.699   4.320   7.764
 4962SOL    HW115566   2.690   4.230   7.734
 4962SOL    HW215567   2.609   4.355   7.762
 4963SOL     OW15568   2.324   4.217   7.642
 4963SOL    HW115569   2.383   4.291   7.656
 4963SOL    HW215570   2.239   4.257   7.624
 4964SOL     OW15571   3.171   4.577   7.755
 4964SOL    HW115572   3.084   4.576   7.794
 4964SOL    HW215573   3.156   4.566   7.661
 4965SOL     OW15574   3.574   3.869   7.949
 4965SOL    HW115575   3.652   3.861   7.894
 4965SOL    HW215576   3.575   3.791   8.004
 4966SOL     OW15577   2.791   4.635   7.758
 4966SOL    HW115578   2.843   4.661   7.681
 4966SOL    HW215579   2.785   4.540   7.752
 4967SOL     OW15580   2.120   5.060   7.743
 4967SOL    HW115581   2.028   5.062   7.716
 4967SOL    HW215582   2.119   5.098   7.831
 4968SOL     OW15583   1.939   4.059   7.484
 4968SOL    HW115584   1.853   4.038   7.448
 4968SOL    HW215585   1.969   4.134   7.433
 4969SOL     OW15586   1.933   3.882   7.759
 4969SOL    HW115587   1.916   3.958   7.704
 4969SOL    HW215588   2.016   3.846   7.727
 4970SOL     OW15589   3.044   5.059   7.563
 4970SOL    HW115590   2.951   5.034   7.562
 4970SOL    HW215591   3.063   5.073   7.656
 4971SOL     OW15592   3.077   4.042   7.903
 4971SOL    HW115593   3.150   3.981   7.892
 4971SOL    HW215594   3.099   4.090   7.984
 4972SOL     OW15595   2.485   4.458   8.059
 4972SOL    HW115596   2.492   4.542   0.023
 4972SOL    HW215597   2.398   4.460   8.018
 4973SOL     OW15598   2.713   5.094   7.465
 4973SOL    HW115599   2.694   5.095   7.559
 4973SOL    HW215600   2.729   5.186   7.444
 4974SOL     OW15601   2.937   4.705   7.538
 4974SOL    HW115602   2.916   4.760   7.462
 4974SOL    HW215603   3.014   4.655   7.511
 4975SOL     OW15604   2.250   4.149   7.981
 4975SOL    HW115605   2.301   4.099   7.918
 4975SOL    HW215606   2.298   4.141   8.063
 4976SOL     OW15607   2.666   5.047   7.730
 4976SOL    HW115608   2.607   4.974   7.748
 4976SOL    HW215609   2.690   5.080   7.816
 4977SOL     OW15610   3.214   3.777   7.610
 4977SOL    HW115611   3.242   3.712   7.545
 4977SOL    HW215612   3.128   3.746   7.638
 4978SOL     OW15613   1.911   4.802   7.751
 4978SOL    HW115614   2.005   4.793   7.738
 4978SOL    HW215615   1.880   4.713   7.767
 4979SOL     OW15616   3.944   0.625   0.120
 4979SOL    HW115617   3.864   0.591   0.161
 4979SOL    HW215618   3.968   0.558   0.055
 4980SOL     OW15619   3.942   0.284   0.993
 4980SOL    HW115620   3.972   0.249   1.077
 4980SOL    HW215621   3.857   0.243   0.978
 4981SOL     OW15622   3.729   0.385   0.638
 4981SOL    HW115623   3.644   0.407   0.678
 4981SOL    HW215624   3.711   0.307   0.586
 4982SOL     OW15625   4.291   1.286   1.174
 4982SOL    HW115626   4.203   1.289   1.136
 4982SOL    HW215627   4.306   1.374   1.207
 4983SOL     OW15628   5.282   1.545   0.707
 4983SOL    HW115629   5.246   1.493   0.779
 4983SOL    HW215630   5.223   1.529   0.633
 4984SOL     OW15631   4.858   0.699   0.702
 4984SOL    HW115632   4.908   0.781   0.691
 4984SOL    HW215633   4.809   0.712   0.783
 4985SOL     OW15634   4.481   1.143   1.040
 4985SOL    HW115635   4.411   1.177   1.096
 4985SOL    HW215636   4.515   1.220   0.995
 4986SOL     OW15637   4.591   0.779   1.823
 4986SOL    HW115638   4.574   0.851   1.883
 4986SOL    HW215639   4.613   0.821   1.740
 4987SOL     OW15640   4.409   1.004   0.650
 4987SOL    HW115641   4.474   0.991   0.719
 4987SOL    HW215642   4.340   1.055   0.691
 4988SOL     OW15643   4.434   1.151   1.811
 4988SOL    HW115644   4.481   1.230   1.837
 4988SOL    HW215645   4.351   1.184   1.776
 4989SOL     OW15646   4.054   1.427   1.068
 4989SOL    HW115647   3.982   1.390   1.017
 4989SOL    HW215648   4.105   1.477   1.004
 4990SOL     OW15649   5.160   1.482   1.349
 4990SOL    HW115650   5.204   1.563   1.375
 4990SOL    HW215651   5.109   1.456   1.426
 4991SOL     OW15652   4.167   0.399   1.488
 4991SOL    HW115653   4.243   0.340   1.486
 4991SOL    HW215654   4.093   0.341   1.502
 4992SOL     OW15655   3.944   1.714   0.472
 4992SOL    HW115656   3.966   1.790   0.526
 4992SOL    HW215657   4.018   1.705   0.412
 4993SOL     OW15658   4.860   1.339   1.693
 4993SOL    HW115659   4.898   1.336   1.781
 4993SOL    HW215660   4.806   1.260   1.687
 4994SOL     OW15661   3.951   1.441   0.530
 4994SOL    HW115662   3.937   1.535   0.536
 4994SOL    HW215663   3.891   1.404   0.596
 4995SOL     OW15664   3.980   1.090   0.891
 4995SOL    HW115665   3.977   1.004   0.932
 4995SOL    HW215666   3.922   1.144   0.944
 4996SOL     OW15667   4.335   1.792   1.428
 4996SOL    HW115668   4.254   1.774   1.475
 4996SOL    HW215669   4.359   1.881   1.454
 4997SOL     OW15670   4.355   0.961   0.132
 4997SOL    HW115671   4.303   1.038   0.106
 4997SOL    HW215672   4.404   0.990   0.209
 4998SOL     OW15673   5.249   0.147   1.481
 4998SOL    HW115674   5.298   0.226   1.458
 4998SOL    HW215675   5.279   0.124   1.569
 4999SOL     OW15676   3.838   0.651   0.561
 4999SOL    HW115677   3.810   0.562   0.582
 4999SOL    HW215678   3.830   0.698   0.644
 5000SOL     OW15679   3.751   1.596   0.111
 5000SOL    HW115680   3.739   1.508   0.145
 5000SOL    HW215681   3.736   1.653   0.187
 5001SOL     OW15682   0.114   0.946   0.593
 5001SOL    HW115683   0.201   0.906   0.594
 5001SOL    HW215684   0.120   1.014   0.526
 5002SOL     OW15685   3.846   0.743   1.585
 5002SOL    HW115686   3.938   0.767   1.595
 5002SOL    HW215687   3.799   0.826   1.593
 5003SOL     OW15688   4.337   1.385   0.735
 5003SOL    HW115689   4.291   1.301   0.744
 5003SOL    HW215690   4.321   1.411   0.644
 5004SOL     OW15691   5.008   1.238   1.425
 5004SOL    HW115692   5.041   1.171   1.365
 5004SOL    HW215693   5.063   1.228   1.503
 5005SOL     OW15694   4.534   0.025   0.526
 5005SOL    HW115695   4.563   0.111   0.498
 5005SOL    HW215696   4.438   0.029   0.521
 5006SOL     OW15697   3.915   0.967   1.270
 5006SOL    HW115698   3.999   0.925   1.255
 5006SOL    HW215699   3.851   0.911   1.225
 5007SOL     OW15700   4.898   1.807   1.623
 5007SOL    HW115701   4.920   1.865   1.550
 5007SOL    HW215702   4.918   1.719   1.591
 5008SOL     OW15703   4.048   0.265   1.809
 5008SOL    HW115704   4.102   0.340   1.836
 5008SOL    HW215705   3.963   0.281   1.849
 5009SOL     OW15706   5.169   1.434   0.938
 5009SOL    HW115707   5.107   1.440   1.010
 5009SOL    HW215708   5.163   1.343   0.908
 5010SOL     OW15709   4.321   0.715   0.282
 5010SOL    HW115710   4.339   0.792   0.227
 5010SOL    HW215711   4.256   0.746   0.345
 5011SOL     OW15712   4.997   0.329   0.920
 5011SOL    HW115713   4.908   0.304   0.943
 5011SOL    HW215714   5.050   0.301   0.995
 5012SOL     OW15715   4.518   0.618   1.451
 5012SOL    HW115716   4.490   0.596   1.540
 5012SOL    HW215717   4.475   0.552   1.396
 5013SOL     OW15718   5.117   0.486   1.679
 5013SOL    HW115719   5.118   0.520   1.768
 5013SOL    HW215720   5.182   0.415   1.680
 5014SOL     OW15721   4.680   0.888   1.582
 5014SOL    HW115722   4.732   0.816   1.547
 5014SOL    HW215723   4.632   0.922   1.506
 5015SOL     OW15724   4.718   0.422   1.232
 5015SOL    HW115725   4.634   0.437   1.276
 5015SOL    HW215726   4.696   0.366   1.157
 5016SOL     OW15727   4.776   0.697   0.427
 5016SOL    HW115728   4.791   0.691   0.521
 5016SOL    HW215729   4.693   0.652   0.412
 5017SOL     OW15730   3.813   0.821   0.776
 5017SOL    HW115731   3.894   0.813   0.826
 5017SOL    HW215732   3.770   0.899   0.811
 5018SOL     OW15733   3.851   1.844   1.577
 5018SOL    HW115734   3.851   1.824   1.671
 5018SOL    HW215735   3.759   1.841   1.551
 5019SOL     OW15736   4.605   0.359   0.200
 5019SOL    HW115737   4.653   0.401   0.128
 5019SOL    HW215738   4.589   0.270   0.169
 5020SOL     OW15739   5.094   1.146   0.548
 5020SOL    HW115740   5.177   1.139   0.501
 5020SOL    HW215741   5.041   1.206   0.495
 5021SOL     OW15742   4.250   0.201   0.883
 5021SOL    HW115743   4.273   0.216   0.975
 5021SOL    HW215744   4.273   0.283   0.839
 5022SOL     OW15745   4.731   1.445   0.474
 5022SOL    HW115746   4.691   1.516   0.424
 5022SOL    HW215747   4.713   1.467   0.565
 5023SOL     OW15748   4.079   1.808   0.860
 5023SOL    HW115749   4.122   1.723   0.869
 5023SOL    HW215750   4.147   1.872   0.878
 5024SOL     OW15751   4.940   1.544   1.520
 5024SOL    HW115752   4.928   1.469   1.579
 5024SOL    HW215753   4.887   1.522   1.443
 5025SOL     OW15754   4.051   0.942   0.253
 5025SOL    HW115755   4.122   0.983   0.203
 5025SOL    HW215756   4.048   0.852   0.223
 5026SOL     OW15757   4.189   1.264   1.738
 5026SOL    HW115758   4.162   1.269   1.646
 5026SOL    HW215759   4.107   1.262   1.787
 5027SOL     OW15760   4.826   1.774   0.226
 5027SOL    HW115761   4.771   1.734   0.293
 5027SOL    HW215762   4.842   1.704   0.162
 5028SOL     OW15763   3.921   0.278   1.502
 5028SOL    HW115764   3.842   0.332   1.497
 5028SOL    HW215765   3.913   0.230   1.584
 5029SOL     OW15766   4.189   1.738   0.323
 5029SOL    HW115767   4.230   1.797   0.386
 5029SOL    HW215768   4.260   1.712   0.264
 5030SOL     OW15769   5.102   0.113   0.442
 5030SOL    HW115770   5.092   0.073   0.356
 5030SOL    HW215771   5.196   0.129   0.450
 5031SOL     OW15772   3.978   1.792   1.232
 5031SOL    HW115773   4.031   1.727   1.279
 5031SOL    HW215774   3.970   1.756   1.144
 5032SOL     OW15775   4.662   1.698   0.900
 5032SOL    HW115776   4.742   1.647   0.917
 5032SOL    HW215777   4.617   1.649   0.831
 5033SOL     OW15778   4.110   0.698   0.477
 5033SOL    HW115779   4.135   0.606   0.487
 5033SOL    HW215780   4.017   0.699   0.500
 5034SOL     OW15781   4.348   0.137   0.123
 5034SOL    HW115782   4.438   0.108   0.135
 5034SOL    HW215783   4.320   0.098   0.040
 5035SOL     OW15784   4.509   0.312   1.766
 5035SOL    HW115785   4.571   0.238   1.767
 5035SOL    HW215786   4.458   0.301   1.847
 5036SOL     OW15787   4.600   1.521   1.194
 5036SOL    HW115788   4.585   1.486   1.106
 5036SOL    HW215789   4.670   1.467   1.230
 5037SOL     OW15790   5.060   0.591   1.431
 5037SOL    HW115791   5.091   0.560   1.516
 5037SOL    HW215792   5.099   0.678   1.422
 5038SOL     OW15793   4.538   1.396   0.938
 5038SOL    HW115794   4.622   1.385   0.894
 5038SOL    HW215795   4.474   1.396   0.867
 5039SOL     OW15796   4.651   0.510   0.902
 5039SOL    HW115797   4.628   0.500   0.810
 5039SOL    HW215798   4.682   0.424   0.929
 5040SOL     OW15799   4.265   0.062   0.512
 5040SOL    HW115800   4.179   0.061   0.552
 5040SOL    HW215801   4.260   0.132   0.446
 5041SOL     OW15802   5.141   1.172   0.041
 5041SOL    HW115803   5.143   1.102   0.107
 5041SOL    HW215804   5.056   1.215   0.055
 5042SOL     OW15805   4.024   0.067   0.204
 5042SOL    HW115806   4.080   0.137   0.170
 5042SOL    HW215807   4.077   5.288   0.199
 5043SOL     OW15808   4.667   0.255   0.454
 5043SOL    HW115809   4.639   0.301   0.375
 5043SOL    HW215810   4.759   0.278   0.464
 5044SOL     OW15811   4.802   0.680   1.461
 5044SOL    HW115812   4.732   0.615   1.463
 5044SOL    HW215813   4.883   0.630   1.450
 5045SOL     OW15814   4.941   1.572   0.796
 5045SOL    HW115815   4.964   1.637   0.729
 5045SOL    HW215816   5.021   1.559   0.846
 5046SOL     OW15817   4.191   1.150   0.735
 5046SOL    HW115818   4.122   1.130   0.798
 5046SOL    HW215819   4.151   1.133   0.649
 5047SOL     OW15820   4.993   1.794   0.604
 5047SOL    HW115821   5.038   1.858   0.547
 5047SOL    HW215822   4.928   1.846   0.651
 5048SOL     OW15823   4.765   0.535   0.022
 5048SOL    HW115824   4.709   0.610   0.003
 5048SOL    HW215825   4.814   0.560   0.100
 5049SOL     OW15826   3.802   0.554   1.393
 5049SOL    HW115827   3.893   0.553   1.364
 5049SOL    HW215828   3.797   0.624   1.457
 5050SOL     OW15829   4.281   0.238   1.158
 5050SOL    HW115830   4.312   0.152   1.186
 5050SOL    HW215831   4.189   0.239   1.184
 5051SOL     OW15832   4.593   0.461   0.639
 5051SOL    HW115833   4.548   0.514   0.573
 5051SOL    HW215834   4.613   0.379   0.594
 5052SOL     OW15835   4.697   0.063   0.763
 5052SOL    HW115836   4.635   0.052   0.691
 5052SOL    HW215837   4.716   5.274   0.792
 5053SOL     OW15838   5.158   1.175   0.850
 5053SOL    HW115839   5.102   1.099   0.863
 5053SOL    HW215840   5.168   1.182   0.755
 5054SOL     OW15841   4.207   1.438   0.172
 5054SOL    HW115842   4.135   1.396   0.219
 5054SOL    HW215843   4.212   1.392   0.089
 5055SOL     OW15844   5.122   0.574   0.082
 5055SOL    HW115845   5.049   0.557   0.142
 5055SOL    HW215846   5.200   0.544   0.130
 5056SOL     OW15847   4.247   0.268   0.329
 5056SOL    HW115848   4.287   0.212   0.262
 5056SOL    HW215849   4.232   0.351   0.284
 5057SOL     OW15850   4.782   1.354   1.334
 5057SOL    HW115851   4.707   1.323   1.385
 5057SOL    HW215852   4.857   1.311   1.374
 5058SOL     OW15853   0.006   1.604   1.618
 5058SOL    HW115854   0.040   1.611   1.528
 5058SOL    HW215855   0.083   1.584   1.671
 5059SOL     OW15856   4.852   1.203   1.107
 5059SOL    HW115857   4.791   1.239   1.171
 5059SOL    HW215858   4.818   1.231   1.022
 5060SOL     OW15859   4.625   0.104   1.389
 5060SOL    HW115860   4.658   0.070   1.306
 5060SOL    HW215861   4.701   0.147   1.429
 5061SOL     OW15862   4.708   1.113   1.725
 5061SOL    HW115863   4.616   1.130   1.744
 5061SOL    HW215864   4.707   1.036   1.667
 5062SOL     OW15865   4.437   1.062   0.380
 5062SOL    HW115866   4.420   1.045   0.472
 5062SOL    HW215867   4.515   1.010   0.360
 5063SOL     OW15868   4.142   0.815   1.251
 5063SOL    HW115869   4.211   0.824   1.317
 5063SOL    HW215870   4.107   0.727   1.265
 5064SOL     OW15871   4.992   0.380   1.269
 5064SOL    HW115872   5.025   0.458   1.314
 5064SOL    HW215873   4.901   0.401   1.247
 5065SOL     OW15874   3.794   1.573   1.351
 5065SOL    HW115875   3.764   1.646   1.298
 5065SOL    HW215876   3.889   1.577   1.347
 5066SOL     OW15877   4.070   1.109   0.492
 5066SOL    HW115878   4.077   1.182   0.430
 5066SOL    HW215879   4.079   1.031   0.438
 5067SOL     OW15880   4.278   0.539   0.861
 5067SOL    HW115881   4.294   0.597   0.786
 5067SOL    HW215882   4.343   0.565   0.926
 5068SOL     OW15883   4.971   1.347   0.392
 5068SOL    HW115884   5.027   1.419   0.420
 5068SOL    HW215885   4.884   1.369   0.424
 5069SOL     OW15886   4.993   1.456   1.139
 5069SOL    HW115887   5.048   1.458   1.217
 5069SOL    HW215888   4.940   1.377   1.150
 5070SOL     OW15889   4.071   1.526   1.316
 5070SOL    HW115890   4.058   1.484   1.231
 5070SOL    HW215891   4.166   1.538   1.323
 5071SOL     OW15892   4.138   0.745   1.602
 5071SOL    HW115893   4.199   0.790   1.544
 5071SOL    HW215894   4.179   0.660   1.619
 5072SOL     OW15895   4.753   0.115   1.760
 5072SOL    HW115896   4.793   0.197   1.730
 5072SOL    HW215897   4.791   0.048   1.704
 5073SOL     OW15898   4.204   0.057   1.738
 5073SOL    HW115899   4.147   5.293   1.695
 5073SOL    HW215900   4.145   0.129   1.760
 5074SOL     OW15901   4.307   0.873   1.031
 5074SOL    HW115902   4.338   0.963   1.030
 5074SOL    HW215903   4.250   0.867   1.108
 5075SOL     OW15904   5.085   0.857   1.039
 5075SOL    HW115905   5.010   0.842   0.982
 5075SOL    HW215906   5.137   0.777   1.032
 5076SOL     OW15907   4.930   0.531   0.268
 5076SOL    HW115908   4.934   0.448   0.316
 5076SOL    HW215909   4.886   0.591   0.328
 5077SOL     OW15910   4.021   0.204   1.247
 5077SOL    HW115911   3.983   0.243   1.325
 5077SOL    HW215912   4.019   0.110   1.263
 5078SOL     OW15913   3.769   1.311   1.277
 5078SOL    HW115914   3.803   1.256   1.348
 5078SOL    HW215915   3.777   1.400   1.309
 5079SOL     OW15916   4.450   0.632   1.060
 5079SOL    HW115917   4.523   0.614   1.001
 5079SOL    HW215918   4.422   0.721   1.037
 5080SOL     OW15919   4.024   0.072   0.649
 5080SOL    HW115920   4.009   0.166   0.658
 5080SOL    HW215921   4.066   0.046   0.730
 5081SOL     OW15922   0.037   0.406   0.362
 5081SOL    HW115923   0.062   0.345   0.430
 5081SOL    HW215924   0.002   0.482   0.409
 5082SOL     OW15925   4.750   0.759   0.961
 5082SOL    HW115926   4.750   0.777   1.055
 5082SOL    HW215927   4.724   0.667   0.954
 5083SOL     OW15928   4.698   1.561   1.713
 5083SOL    HW115929   4.687   1.609   1.631
 5083SOL    HW215930   4.747   1.483   1.689
 5084SOL     OW15931   4.077   0.916   1.808
 5084SOL    HW115932   4.160   0.934   1.853
 5084SOL    HW215933   4.101   0.853   1.740
 5085SOL     OW15934   5.030   0.831   0.029
 5085SOL    HW115935   5.059   0.741   0.043
 5085SOL    HW215936   5.058   0.851   8.019
 5086SOL     OW15937   4.788   1.334   0.855
 5086SOL    HW115938   4.792   1.262   0.792
 5086SOL    HW215939   4.848   1.400   0.819
 5087SOL     OW15940   4.033   0.809   0.947
 5087SOL    HW115941   4.126   0.831   0.941
 5087SOL    HW215942   4.032   0.719   0.980
 5088SOL     OW15943   4.056   0.525   1.012
 5088SOL    HW115944   4.020   0.438   0.996
 5088SOL    HW215945   4.133   0.530   0.955
 5089SOL     OW15946   4.862   0.377   1.689
 5089SOL    HW115947   4.812   0.432   1.750
 5089SOL    HW215948   4.946   0.422   1.680
 5090SOL     OW15949   4.848   0.233   1.458
 5090SOL    HW115950   4.860   0.282   1.540
 5090SOL    HW215951   4.913   0.270   1.398
 5091SOL     OW15952   3.734   1.325   0.191
 5091SOL    HW115953   3.647   1.338   0.153
 5091SOL    HW215954   3.733   1.234   0.222
 5092SOL     OW15955   3.814   1.788   0.937
 5092SOL    HW115956   3.784   1.708   0.894
 5092SOL    HW215957   3.904   1.800   0.906
 5093SOL     OW15958   4.221   1.573   0.906
 5093SOL    HW115959   4.290   1.636   0.930
 5093SOL    HW215960   4.266   1.509   0.850
 5094SOL     OW15961   4.708   0.795   1.228
 5094SOL    HW115962   4.763   0.769   1.302
 5094SOL    HW215963   4.623   0.754   1.246
 5095SOL     OW15964   3.760   0.544   1.117
 5095SOL    HW115965   3.840   0.528   1.067
 5095SOL    HW215966   3.789   0.548   1.208
 5096SOL     OW15967   3.911   0.521   1.726
 5096SOL    HW115968   3.974   0.486   1.663
 5096SOL    HW215969   3.870   0.594   1.681
 5097SOL     OW15970   5.111   0.939   1.666
 5097SOL    HW115971   5.120   1.034   1.655
 5097SOL    HW215972   5.114   0.904   1.577
 5098SOL     OW15973   4.542   0.571   0.363
 5098SOL    HW115974   4.548   0.498   0.302
 5098SOL    HW215975   4.465   0.620   0.335
 5099SOL     OW15976   3.968   1.552   1.729
 5099SOL    HW115977   3.945   1.615   1.796
 5099SOL    HW215978   3.969   1.468   1.774
 5100SOL     OW15979   4.419   0.453   1.262
 5100SOL    HW115980   4.370   0.379   1.228
 5100SOL    HW215981   4.421   0.516   1.190
 5101SOL     OW15982   4.646   1.680   1.468
 5101SOL    HW115983   4.624   1.648   1.381
 5101SOL    HW215984   4.648   1.775   1.459
 5102SOL     OW15985   4.192   0.492   0.178
 5102SOL    HW115986   4.259   0.558   0.197
 5102SOL    HW215987   4.109   0.537   0.192
 5103SOL     OW15988   3.871   1.140   1.472
 5103SOL    HW115989   3.874   1.088   1.552
 5103SOL    HW215990   3.888   1.077   1.401
 5104SOL     OW15991   5.054   1.050   1.225
 5104SOL    HW115992   5.076   0.985   1.158
 5104SOL    HW215993   4.982   1.100   1.187
 5105SOL     OW15994   5.024   0.868   0.319
 5105SOL    HW115995   4.946   0.825   0.353
 5105SOL    HW215996   5.022   0.850   0.225
 5106SOL     OW15997   4.960   1.731   1.122
 5106SOL    HW115998   5.046   1.751   1.084
 5106SOL    HW215999   4.960   1.636   1.132
 5107SOL     OW16000   3.807   1.267   1.012
 5107SOL    HW116001   3.793   1.279   1.106
 5107SOL    HW216002   3.734   1.212   0.984
 5108SOL     OW16003   4.401   1.664   1.727
 5108SOL    HW116004   4.350   1.745   1.722
 5108SOL    HW216005   4.469   1.674   1.660
 5109SOL     OW16006   4.615   0.085   0.141
 5109SOL    HW116007   4.661   0.076   0.058
 5109SOL    HW216008   4.632   0.003   0.187
 5110SOL     OW16009   5.108   1.570   0.478
 5110SOL    HW116010   5.162   1.611   0.411
 5110SOL    HW216011   5.061   1.642   0.519
 5111SOL     OW16012   3.859   1.797   1.843
 5111SOL    HW116013   3.809   1.732   1.892
 5111SOL    HW216014   3.908   1.845   1.911
 5112SOL     OW16015   5.016   0.920   0.673
 5112SOL    HW116016   5.092   0.864   0.658
 5112SOL    HW216017   5.034   1.000   0.624
 5113SOL     OW16018   4.540   1.273   1.431
 5113SOL    HW116019   4.512   1.312   1.514
 5113SOL    HW216020   4.470   1.295   1.369
 5114SOL     OW16021   4.400   1.620   0.156
 5114SOL    HW116022   4.406   1.626   0.061
 5114SOL    HW216023   4.340   1.547   0.172
 5115SOL     OW16024   3.987   0.329   0.720
 5115SOL    HW116025   3.899   0.360   0.698
 5115SOL    HW216026   3.984   0.316   0.815
 5116SOL     OW16027   4.861   1.580   0.046
 5116SOL    HW116028   4.902   1.495   0.061
 5116SOL    HW216029   4.897   1.609   8.042
 5117SOL     OW16030   4.548   1.006   1.372
 5117SOL    HW116031   4.592   1.001   1.288
 5117SOL    HW216032   4.548   1.099   1.394
 5118SOL     OW16033   4.643   0.914   0.299
 5118SOL    HW116034   4.696   0.938   0.223
 5118SOL    HW216035   4.689   0.841   0.339
 5119SOL     OW16036   4.093   1.302   1.492
 5119SOL    HW116037   4.080   1.379   1.437
 5119SOL    HW216038   4.016   1.247   1.475
 5120SOL     OW16039   4.774   1.106   0.707
 5120SOL    HW116040   4.704   1.055   0.747
 5120SOL    HW216041   4.832   1.041   0.667
 5121SOL     OW16042   4.739   0.242   0.970
 5121SOL    HW116043   4.720   0.197   0.888
 5121SOL    HW216044   4.733   0.174   1.037
 5122SOL     OW16045   4.326   1.487   0.481
 5122SOL    HW116046   4.369   1.437   0.411
 5122SOL    HW216047   4.258   1.537   0.435
 5123SOL     OW16048   3.990   1.321   0.293
 5123SOL    HW116049   3.904   1.333   0.253
 5123SOL    HW216050   3.984   1.367   0.377
 5124SOL     OW16051   3.836   1.021   1.719
 5124SOL    HW116052   3.760   0.998   1.772
 5124SOL    HW216053   3.911   0.984   1.767
 5125SOL     OW16054   4.396   0.211   1.488
 5125SOL    HW116055   4.479   0.191   1.445
 5125SOL    HW216056   4.421   0.259   1.567
 5126SOL     OW16057   3.793   0.361   0.034
 5126SOL    HW116058   3.720   0.300   0.022
 5126SOL    HW216059   3.807   0.398   8.027
 5127SOL     OW16060   5.163   0.860   1.404
 5127SOL    HW116061   5.109   0.915   1.347
 5127SOL    HW216062   5.252   0.869   1.369
 5128SOL     OW16063   3.793   0.165   0.314
 5128SOL    HW116064   3.798   0.252   0.275
 5128SOL    HW216065   3.878   0.125   0.296
 5129SOL     OW16066   4.914   1.315   0.120
 5129SOL    HW116067   4.819   1.314   0.115
 5129SOL    HW216068   4.933   1.322   0.214
 5130SOL     OW16069   4.343   0.831   1.433
 5130SOL    HW116070   4.398   0.907   1.418
 5130SOL    HW216071   4.404   0.758   1.441
 5131SOL     OW16072   4.440   0.571   1.704
 5131SOL    HW116073   4.479   0.633   1.765
 5131SOL    HW216074   4.471   0.485   1.733
 5132SOL     OW16075   5.182   1.205   1.632
 5132SOL    HW116076   5.173   1.217   1.727
 5132SOL    HW216077   5.277   1.211   1.616
 5133SOL     OW16078   4.104   1.739   1.564
 5133SOL    HW116079   4.019   1.780   1.551
 5133SOL    HW216080   4.085   1.655   1.606
 5134SOL     OW16081   4.937   0.332   0.472
 5134SOL    HW116082   4.991   0.254   0.456
 5134SOL    HW216083   4.976   0.373   0.550
 5135SOL     OW16084   4.313   0.739   0.668
 5135SOL    HW116085   4.353   0.824   0.653
 5135SOL    HW216086   4.244   0.732   0.602
 5136SOL     OW16087   4.618   1.370   0.031
 5136SOL    HW116088   4.554   1.365   0.102
 5136SOL    HW216089   4.614   1.461   0.002
 5137SOL     OW16090   4.383   1.793   0.945
 5137SOL    HW116091   4.364   1.883   0.922
 5137SOL    HW216092   4.479   1.786   0.939
 5138SOL     OW16093   4.591   0.966   0.856
 5138SOL    HW116094   4.641   0.895   0.895
 5138SOL    HW216095   4.557   1.016   0.930
 5139SOL     OW16096   4.801   0.975   0.086
 5139SOL    HW116097   4.790   1.038   0.015
 5139SOL    HW216098   4.883   0.930   0.066
 5140SOL     OW16099   3.948   1.304   1.856
 5140SOL    HW116100   3.881   1.242   1.827
 5140SOL    HW216101   3.931   1.316   1.949
 5141SOL     OW16102   3.808   1.233   0.664
 5141SOL    HW116103   3.811   1.184   0.746
 5141SOL    HW216104   3.880   1.197   0.612
 5142SOL     OW16105   4.404   1.401   1.628
 5142SOL    HW116106   4.324   1.359   1.658
 5142SOL    HW216107   4.400   1.490   1.663
 5143SOL     OW16108   4.150   0.438   0.522
 5143SOL    HW116109   4.186   0.365   0.471
 5143SOL    HW216110   4.107   0.395   0.597
 5144SOL     OW16111   0.095   1.522   1.099
 5144SOL    HW116112   0.028   1.496   1.037
 5144SOL    HW216113   0.107   1.446   1.156
 5145SOL     OW16114   4.052   0.555   1.290
 5145SOL    HW116115   4.108   0.500   1.345
 5145SOL    HW216116   4.073   0.528   1.201
 5146SOL     OW16117   4.551   1.578   0.678
 5146SOL    HW116118   4.541   1.628   0.597
 5146SOL    HW216119   4.473   1.522   0.681
 5147SOL     OW16120   5.152   0.216   1.120
 5147SOL    HW116121   5.159   0.133   1.167
 5147SOL    HW216122   5.105   0.274   1.181
 5148SOL     OW16123   4.725   0.021   1.141
 5148SOL    HW116124   4.674   5.252   1.099
 5148SOL    HW216125   4.813   5.284   1.152
 5149SOL     OW16126   4.493   1.328   0.308
 5149SOL    HW116127   4.461   1.238   0.321
 5149SOL    HW216128   4.576   1.331   0.356
 5150SOL     OW16129   4.344   1.557   1.285
 5150SOL    HW116130   4.346   1.639   1.334
 5150SOL    HW216131   4.431   1.549   1.247
 5151SOL     OW16132   5.074   5.296   0.202
 5151SOL    HW116133   5.138   0.010   0.132
 5151SOL    HW216134   5.001   0.053   0.180
 5152SOL     OW16135   5.034   0.465   0.691
 5152SOL    HW116136   4.974   0.539   0.693
 5152SOL    HW216137   5.020   0.420   0.775
 5153SOL     OW16138   5.296   0.214   0.881
 5153SOL    HW116139   5.236   0.217   0.956
 5153SOL    HW216140   5.279   0.295   0.834
 5154SOL     OW16141   3.767   1.068   0.303
 5154SOL    HW116142   3.862   1.067   0.305
 5154SOL    HW216143   3.740   0.985   0.344
 5155SOL     OW16144   4.604   1.651   0.350
 5155SOL    HW116145   4.537   1.635   0.283
 5155SOL    HW216146   4.572   1.728   0.397
 5156SOL     OW16147   3.953   0.626   1.984
 5156SOL    HW116148   3.864   0.622   2.019
 5156SOL    HW216149   3.944   0.598   1.893
 5157SOL     OW16150   3.943   0.283   2.854
 5157SOL    HW116151   3.972   0.249   2.939
 5157SOL    HW216152   3.857   0.243   2.840
 5158SOL     OW16153   3.729   0.385   2.500
 5158SOL    HW116154   3.644   0.406   2.540
 5158SOL    HW216155   3.711   0.307   2.447
 5159SOL     OW16156   4.291   1.286   3.036
 5159SOL    HW116157   4.203   1.289   2.998
 5159SOL    HW216158   4.306   1.374   3.069
 5160SOL     OW16159   5.284   1.535   2.568
 5160SOL    HW116160   5.245   1.492   2.643
 5160SOL    HW216161   5.219   1.526   2.498
 5161SOL     OW16162   4.859   0.699   2.564
 5161SOL    HW116163   4.908   0.780   2.553
 5161SOL    HW216164   4.809   0.711   2.645
 5162SOL     OW16165   4.481   1.143   2.902
 5162SOL    HW116166   4.411   1.177   2.958
 5162SOL    HW216167   4.515   1.220   2.857
 5163SOL     OW16168   4.591   0.779   3.685
 5163SOL    HW116169   4.573   0.851   3.745
 5163SOL    HW216170   4.613   0.821   3.602
 5164SOL     OW16171   4.411   1.005   2.510
 5164SOL    HW116172   4.475   0.992   2.580
 5164SOL    HW216173   4.340   1.055   2.550
 5165SOL     OW16174   4.434   1.151   3.673
 5165SOL    HW116175   4.481   1.230   3.699
 5165SOL    HW216176   4.351   1.184   3.638
 5166SOL     OW16177   4.054   1.427   2.930
 5166SOL    HW116178   3.983   1.390   2.879
 5166SOL    HW216179   4.105   1.477   2.866
 5167SOL     OW16180   5.160   1.482   3.211
 5167SOL    HW116181   5.205   1.563   3.237
 5167SOL    HW216182   5.109   1.457   3.288
 5168SOL     OW16183   4.168   0.399   3.350
 5168SOL    HW116184   4.243   0.340   3.348
 5168SOL    HW216185   4.093   0.341   3.364
 5169SOL     OW16186   3.943   1.714   2.335
 5169SOL    HW116187   3.966   1.790   2.388
 5169SOL    HW216188   4.015   1.706   2.272
 5170SOL     OW16189   4.860   1.339   3.555
 5170SOL    HW116190   4.898   1.336   3.643
 5170SOL    HW216191   4.806   1.260   3.549
 5171SOL     OW16192   3.954   1.441   2.397
 5171SOL    HW116193   3.937   1.535   2.401
 5171SOL    HW216194   3.893   1.403   2.460
 5172SOL     OW16195   3.980   1.090   2.753
 5172SOL    HW116196   3.977   1.004   2.794
 5172SOL    HW216197   3.922   1.144   2.806
 5173SOL     OW16198   4.335   1.792   3.289
 5173SOL    HW116199   4.254   1.774   3.337
 5173SOL    HW216200   4.359   1.881   3.316
 5174SOL     OW16201   4.311   0.981   1.995
 5174SOL    HW116202   4.355   1.031   1.927
 5174SOL    HW216203   4.351   1.011   2.077
 5175SOL     OW16204   5.250   0.145   3.341
 5175SOL    HW116205   5.297   0.225   3.320
 5175SOL    HW216206   5.278   0.125   3.431
 5176SOL     OW16207   3.838   0.653   2.421
 5176SOL    HW116208   3.811   0.564   2.442
 5176SOL    HW216209   3.831   0.700   2.504
 5177SOL     OW16210   3.755   1.596   1.986
 5177SOL    HW116211   3.738   1.504   2.006
 5177SOL    HW216212   3.731   1.642   2.066
 5178SOL     OW16213   0.112   0.941   2.439
 5178SOL    HW116214   0.199   0.905   2.456
 5178SOL    HW216215   0.129   1.023   2.394
 5179SOL     OW16216   3.846   0.743   3.447
 5179SOL    HW116217   3.938   0.767   3.457
 5179SOL    HW216218   3.799   0.826   3.455
 5180SOL     OW16219   4.337   1.384   2.597
 5180SOL    HW116220   4.291   1.301   2.606
 5180SOL    HW216221   4.321   1.411   2.507
 5181SOL     OW16222   5.008   1.237   3.287
 5181SOL    HW116223   5.041   1.170   3.227
 5181SOL    HW216224   5.063   1.228   3.365
 5182SOL     OW16225   4.534   0.024   2.389
 5182SOL    HW116226   4.562   0.112   2.364
 5182SOL    HW216227   4.438   0.028   2.383
 5183SOL     OW16228   3.915   0.967   3.132
 5183SOL    HW116229   3.999   0.925   3.117
 5183SOL    HW216230   3.851   0.911   3.087
 5184SOL     OW16231   4.898   1.807   3.485
 5184SOL    HW116232   4.920   1.865   3.412
 5184SOL    HW216233   4.918   1.719   3.453
 5185SOL     OW16234   4.049   0.265   3.671
 5185SOL    HW116235   4.102   0.340   3.698
 5185SOL    HW216236   3.963   0.281   3.711
 5186SOL     OW16237   5.169   1.434   2.800
 5186SOL    HW116238   5.107   1.441   2.872
 5186SOL    HW216239   5.163   1.343   2.771
 5187SOL     OW16240   4.319   0.722   2.128
 5187SOL    HW116241   4.325   0.803   2.076
 5187SOL    HW216242   4.253   0.741   2.195
 5188SOL     OW16243   4.997   0.329   2.781
 5188SOL    HW116244   4.908   0.305   2.805
 5188SOL    HW216245   5.050   0.302   2.856
 5189SOL     OW16246   4.518   0.618   3.313
 5189SOL    HW116247   4.490   0.596   3.402
 5189SOL    HW216248   4.475   0.552   3.258
 5190SOL     OW16249   5.117   0.485   3.541
 5190SOL    HW116250   5.117   0.521   3.630
 5190SOL    HW216251   5.183   0.416   3.543
 5191SOL     OW16252   4.680   0.888   3.444
 5191SOL    HW116253   4.732   0.816   3.409
 5191SOL    HW216254   4.632   0.922   3.368
 5192SOL     OW16255   4.718   0.422   3.094
 5192SOL    HW116256   4.634   0.437   3.138
 5192SOL    HW216257   4.696   0.366   3.019
 5193SOL     OW16258   4.774   0.697   2.288
 5193SOL    HW116259   4.789   0.691   2.382
 5193SOL    HW216260   4.692   0.652   2.273
 5194SOL     OW16261   3.812   0.820   2.639
 5194SOL    HW116262   3.894   0.813   2.689
 5194SOL    HW216263   3.770   0.899   2.673
 5195SOL     OW16264   3.853   1.841   3.439
 5195SOL    HW116265   3.852   1.823   3.533
 5195SOL    HW216266   3.761   1.849   3.415
 5196SOL     OW16267   4.596   0.361   2.052
 5196SOL    HW116268   4.636   0.418   1.986
 5196SOL    HW216269   4.646   0.280   2.047
 5197SOL     OW16270   5.092   1.145   2.409
 5197SOL    HW116271   5.179   1.145   2.369
 5197SOL    HW216272   5.041   1.206   2.354
 5198SOL     OW16273   4.251   0.201   2.745
 5198SOL    HW116274   4.274   0.216   2.837
 5198SOL    HW216275   4.273   0.284   2.702
 5199SOL     OW16276   4.731   1.444   2.335
 5199SOL    HW116277   4.692   1.516   2.285
 5199SOL    HW216278   4.715   1.466   2.427
 5200SOL     OW16279   4.078   1.808   2.723
 5200SOL    HW116280   4.122   1.723   2.731
 5200SOL    HW216281   4.147   1.872   2.740
 5201SOL     OW16282   4.940   1.544   3.382
 5201SOL    HW116283   4.928   1.469   3.441
 5201SOL    HW216284   4.887   1.523   3.305
 5202SOL     OW16285   4.045   0.957   2.111
 5202SOL    HW116286   4.127   0.975   2.066
 5202SOL    HW216287   4.014   0.875   2.073
 5203SOL     OW16288   4.189   1.264   3.600
 5203SOL    HW116289   4.162   1.269   3.508
 5203SOL    HW216290   4.107   1.262   3.649
 5204SOL     OW16291   4.833   1.775   2.098
 5204SOL    HW116292   4.762   1.730   2.143
 5204SOL    HW216293   4.858   1.716   2.027
 5205SOL     OW16294   3.921   0.278   3.364
 5205SOL    HW116295   3.842   0.332   3.359
 5205SOL    HW216296   3.913   0.230   3.446
 5206SOL     OW16297   4.190   1.737   2.183
 5206SOL    HW116298   4.232   1.795   2.248
 5206SOL    HW216299   4.262   1.708   2.127
 5207SOL     OW16300   5.100   0.099   2.283
 5207SOL    HW116301   5.085   0.082   2.190
 5207SOL    HW216302   5.194   0.119   2.289
 5208SOL     OW16303   3.977   1.791   3.094
 5208SOL    HW116304   4.030   1.728   3.141
 5208SOL    HW216305   3.970   1.756   3.005
 5209SOL     OW16306   4.662   1.698   2.762
 5209SOL    HW116307   4.741   1.647   2.779
 5209SOL    HW216308   4.617   1.649   2.693
 5210SOL     OW16309   4.116   0.696   2.339
 5210SOL    HW116310   4.138   0.603   2.349
 5210SOL    HW216311   4.022   0.701   2.357
 5211SOL     OW16312   4.346   0.133   1.970
 5211SOL    HW116313   4.419   0.074   1.988
 5211SOL    HW216314   4.298   0.090   1.899
 5212SOL     OW16315   4.509   0.312   3.629
 5212SOL    HW116316   4.570   0.238   3.629
 5212SOL    HW216317   4.458   0.301   3.709
 5213SOL     OW16318   4.600   1.521   3.056
 5213SOL    HW116319   4.585   1.486   2.968
 5213SOL    HW216320   4.670   1.467   3.092
 5214SOL     OW16321   5.061   0.591   3.293
 5214SOL    HW116322   5.091   0.560   3.378
 5214SOL    HW216323   5.099   0.678   3.284
 5215SOL     OW16324   4.538   1.396   2.800
 5215SOL    HW116325   4.622   1.385   2.756
 5215SOL    HW216326   4.473   1.396   2.729
 5216SOL     OW16327   4.651   0.511   2.765
 5216SOL    HW116328   4.628   0.501   2.673
 5216SOL    HW216329   4.682   0.424   2.791
 5217SOL     OW16330   4.266   0.063   2.371
 5217SOL    HW116331   4.180   0.062   2.414
 5217SOL    HW216332   4.260   0.133   2.306
 5218SOL     OW16333   5.138   1.180   1.905
 5218SOL    HW116334   5.148   1.103   1.961
 5218SOL    HW216335   5.050   1.212   1.926
 5219SOL     OW16336   4.025   0.061   2.052
 5219SOL    HW116337   4.085   0.129   2.021
 5219SOL    HW216338   4.082   5.285   2.065
 5220SOL     OW16339   4.661   0.260   2.325
 5220SOL    HW116340   4.632   0.295   2.241
 5220SOL    HW216341   4.756   0.274   2.326
 5221SOL     OW16342   4.802   0.680   3.323
 5221SOL    HW116343   4.732   0.615   3.325
 5221SOL    HW216344   4.882   0.629   3.312
 5222SOL     OW16345   4.941   1.571   2.656
 5222SOL    HW116346   4.964   1.637   2.591
 5222SOL    HW216347   5.020   1.561   2.709
 5223SOL     OW16348   4.192   1.149   2.597
 5223SOL    HW116349   4.122   1.129   2.659
 5223SOL    HW216350   4.153   1.132   2.511
 5224SOL     OW16351   4.996   1.794   2.466
 5224SOL    HW116352   5.038   1.855   2.406
 5224SOL    HW216353   4.930   1.847   2.512
 5225SOL     OW16354   4.754   0.551   1.880
 5225SOL    HW116355   4.706   0.632   1.863
 5225SOL    HW216356   4.808   0.571   1.957
 5226SOL     OW16357   3.802   0.554   3.255
 5226SOL    HW116358   3.893   0.553   3.227
 5226SOL    HW216359   3.797   0.624   3.319
 5227SOL     OW16360   4.281   0.237   3.020
 5227SOL    HW116361   4.312   0.152   3.048
 5227SOL    HW216362   4.189   0.239   3.046
 5228SOL     OW16363   4.593   0.463   2.502
 5228SOL    HW116364   4.544   0.515   2.438
 5228SOL    HW216365   4.613   0.382   2.456
 5229SOL     OW16366   4.699   0.063   2.624
 5229SOL    HW116367   4.635   0.053   2.554
 5229SOL    HW216368   4.714   5.273   2.656
 5230SOL     OW16369   5.158   1.175   2.713
 5230SOL    HW116370   5.101   1.099   2.726
 5230SOL    HW216371   5.169   1.181   2.618
 5231SOL     OW16372   4.215   1.417   2.020
 5231SOL    HW116373   4.140   1.387   2.072
 5231SOL    HW216374   4.199   1.381   1.933
 5232SOL     OW16375   5.127   0.560   1.942
 5232SOL    HW116376   5.052   0.552   2.001
 5232SOL    HW216377   5.202   0.531   1.995
 5233SOL     OW16378   4.248   0.265   2.184
 5233SOL    HW116379   4.291   0.214   2.115
 5233SOL    HW216380   4.228   0.349   2.144
 5234SOL     OW16381   4.782   1.353   3.195
 5234SOL    HW116382   4.707   1.323   3.246
 5234SOL    HW216383   4.857   1.311   3.236
 5235SOL     OW16384   0.006   1.603   3.480
 5235SOL    HW116385   0.039   1.610   3.390
 5235SOL    HW216386   0.083   1.584   3.533
 5236SOL     OW16387   4.852   1.202   2.969
 5236SOL    HW116388   4.791   1.238   3.033
 5236SOL    HW216389   4.817   1.231   2.885
 5237SOL     OW16390   4.626   0.104   3.251
 5237SOL    HW116391   4.658   0.070   3.168
 5237SOL    HW216392   4.701   0.147   3.291
 5238SOL     OW16393   4.708   1.113   3.587
 5238SOL    HW116394   4.616   1.130   3.606
 5238SOL    HW216395   4.707   1.036   3.529
 5239SOL     OW16396   4.432   1.061   2.233
 5239SOL    HW116397   4.418   1.045   2.327
 5239SOL    HW216398   4.508   1.007   2.211
 5240SOL     OW16399   4.142   0.815   3.113
 5240SOL    HW116400   4.211   0.824   3.179
 5240SOL    HW216401   4.107   0.727   3.127
 5241SOL     OW16402   4.992   0.380   3.131
 5241SOL    HW116403   5.025   0.458   3.176
 5241SOL    HW216404   4.901   0.401   3.109
 5242SOL     OW16405   3.794   1.573   3.213
 5242SOL    HW116406   3.766   1.646   3.158
 5242SOL    HW216407   3.890   1.576   3.210
 5243SOL     OW16408   4.075   1.108   2.353
 5243SOL    HW116409   4.079   1.181   2.292
 5243SOL    HW216410   4.072   1.030   2.297
 5244SOL     OW16411   4.278   0.538   2.723
 5244SOL    HW116412   4.294   0.596   2.648
 5244SOL    HW216413   4.343   0.565   2.788
 5245SOL     OW16414   4.972   1.349   2.250
 5245SOL    HW116415   5.026   1.421   2.280
 5245SOL    HW216416   4.884   1.368   2.283
 5246SOL     OW16417   4.993   1.456   3.001
 5246SOL    HW116418   5.048   1.459   3.079
 5246SOL    HW216419   4.939   1.377   3.012
 5247SOL     OW16420   4.071   1.526   3.178
 5247SOL    HW116421   4.058   1.484   3.093
 5247SOL    HW216422   4.166   1.538   3.185
 5248SOL     OW16423   4.138   0.745   3.464
 5248SOL    HW116424   4.199   0.790   3.406
 5248SOL    HW216425   4.179   0.660   3.481
 5249SOL     OW16426   4.753   0.115   3.622
 5249SOL    HW116427   4.793   0.197   3.592
 5249SOL    HW216428   4.790   0.047   3.566
 5250SOL     OW16429   4.204   0.057   3.600
 5250SOL    HW116430   4.147   5.293   3.558
 5250SOL    HW216431   4.145   0.130   3.622
 5251SOL     OW16432   4.307   0.872   2.893
 5251SOL    HW116433   4.337   0.963   2.892
 5251SOL    HW216434   4.250   0.867   2.970
 5252SOL     OW16435   5.086   0.858   2.900
 5252SOL    HW116436   5.009   0.842   2.845
 5252SOL    HW216437   5.135   0.776   2.895
 5253SOL     OW16438   4.931   0.531   2.129
 5253SOL    HW116439   4.934   0.451   2.180
 5253SOL    HW216440   4.886   0.594   2.186
 5254SOL     OW16441   4.021   0.204   3.109
 5254SOL    HW116442   3.983   0.243   3.187
 5254SOL    HW216443   4.019   0.110   3.125
 5255SOL     OW16444   3.769   1.310   3.139
 5255SOL    HW116445   3.803   1.256   3.210
 5255SOL    HW216446   3.777   1.400   3.171
 5256SOL     OW16447   4.450   0.632   2.922
 5256SOL    HW116448   4.523   0.614   2.863
 5256SOL    HW216449   4.421   0.720   2.899
 5257SOL     OW16450   4.025   0.073   2.510
 5257SOL    HW116451   4.010   0.167   2.520
 5257SOL    HW216452   4.065   0.046   2.593
 5258SOL     OW16453   0.028   0.406   2.227
 5258SOL    HW116454   0.060   0.344   2.293
 5258SOL    HW216455   0.003   0.483   2.277
 5259SOL     OW16456   4.751   0.759   2.823
 5259SOL    HW116457   4.750   0.777   2.917
 5259SOL    HW216458   4.725   0.668   2.816
 5260SOL     OW16459   4.698   1.561   3.575
 5260SOL    HW116460   4.687   1.609   3.493
 5260SOL    HW216461   4.747   1.483   3.551
 5261SOL     OW16462   4.077   0.916   3.670
 5261SOL    HW116463   4.160   0.935   3.715
 5261SOL    HW216464   4.101   0.854   3.602
 5262SOL     OW16465   5.028   0.830   1.899
 5262SOL    HW116466   5.063   0.741   1.899
 5262SOL    HW216467   5.054   0.865   1.814
 5263SOL     OW16468   4.789   1.334   2.717
 5263SOL    HW116469   4.792   1.262   2.654
 5263SOL    HW216470   4.848   1.400   2.681
 5264SOL     OW16471   4.033   0.809   2.810
 5264SOL    HW116472   4.126   0.831   2.803
 5264SOL    HW216473   4.032   0.719   2.842
 5265SOL     OW16474   4.057   0.525   2.874
 5265SOL    HW116475   4.020   0.438   2.858
 5265SOL    HW216476   4.133   0.530   2.817
 5266SOL     OW16477   4.861   0.377   3.551
 5266SOL    HW116478   4.812   0.432   3.612
 5266SOL    HW216479   4.946   0.421   3.542
 5267SOL     OW16480   4.848   0.233   3.320
 5267SOL    HW116481   4.860   0.283   3.401
 5267SOL    HW216482   4.913   0.270   3.260
 5268SOL     OW16483   3.729   1.322   2.057
 5268SOL    HW116484   3.642   1.336   2.019
 5268SOL    HW216485   3.726   1.232   2.090
 5269SOL     OW16486   3.814   1.788   2.800
 5269SOL    HW116487   3.784   1.708   2.756
 5269SOL    HW216488   3.904   1.800   2.769
 5270SOL     OW16489   4.221   1.573   2.768
 5270SOL    HW116490   4.290   1.636   2.792
 5270SOL    HW216491   4.266   1.509   2.712
 5271SOL     OW16492   4.709   0.794   3.090
 5271SOL    HW116493   4.763   0.769   3.164
 5271SOL    HW216494   4.623   0.755   3.108
 5272SOL     OW16495   3.759   0.543   2.979
 5272SOL    HW116496   3.839   0.528   2.928
 5272SOL    HW216497   3.789   0.548   3.070
 5273SOL     OW16498   3.911   0.521   3.588
 5273SOL    HW116499   3.974   0.486   3.525
 5273SOL    HW216500   3.870   0.594   3.543
 5274SOL     OW16501   5.111   0.939   3.528
 5274SOL    HW116502   5.120   1.034   3.517
 5274SOL    HW216503   5.113   0.904   3.439
 5275SOL     OW16504   4.539   0.573   2.220
 5275SOL    HW116505   4.541   0.497   2.162
 5275SOL    HW216506   4.464   0.624   2.191
 5276SOL     OW16507   3.969   1.551   3.591
 5276SOL    HW116508   3.945   1.615   3.658
 5276SOL    HW216509   3.969   1.467   3.637
 5277SOL     OW16510   4.419   0.453   3.124
 5277SOL    HW116511   4.370   0.379   3.090
 5277SOL    HW216512   4.421   0.516   3.052
 5278SOL     OW16513   4.646   1.680   3.330
 5278SOL    HW116514   4.624   1.648   3.243
 5278SOL    HW216515   4.648   1.775   3.321
 5279SOL     OW16516   4.188   0.493   2.047
 5279SOL    HW116517   4.247   0.565   2.069
 5279SOL    HW216518   4.103   0.535   2.037
 5280SOL     OW16519   3.871   1.140   3.334
 5280SOL    HW116520   3.874   1.088   3.414
 5280SOL    HW216521   3.888   1.077   3.263
 5281SOL     OW16522   5.054   1.050   3.087
 5281SOL    HW116523   5.076   0.986   3.019
 5281SOL    HW216524   4.982   1.100   3.050
 5282SOL     OW16525   5.034   0.858   2.178
 5282SOL    HW116526   4.952   0.826   2.215
 5282SOL    HW216527   5.022   0.851   2.084
 5283SOL     OW16528   4.960   1.731   2.984
 5283SOL    HW116529   5.046   1.751   2.946
 5283SOL    HW216530   4.960   1.636   2.994
 5284SOL     OW16531   3.807   1.267   2.874
 5284SOL    HW116532   3.793   1.279   2.968
 5284SOL    HW216533   3.735   1.211   2.846
 5285SOL     OW16534   4.401   1.664   3.589
 5285SOL    HW116535   4.350   1.745   3.583
 5285SOL    HW216536   4.469   1.674   3.522
 5286SOL     OW16537   5.111   1.570   2.341
 5286SOL    HW116538   5.180   1.609   2.289
 5286SOL    HW216539   5.062   1.644   2.377
 5287SOL     OW16540   3.860   1.797   3.706
 5287SOL    HW116541   3.809   1.732   3.754
 5287SOL    HW216542   3.908   1.844   3.773
 5288SOL     OW16543   5.015   0.919   2.535
 5288SOL    HW116544   5.092   0.864   2.521
 5288SOL    HW216545   5.034   0.999   2.486
 5289SOL     OW16546   4.540   1.273   3.293
 5289SOL    HW116547   4.512   1.312   3.376
 5289SOL    HW216548   4.470   1.295   3.231
 5290SOL     OW16549   4.395   1.619   2.018
 5290SOL    HW116550   4.406   1.631   1.923
 5290SOL    HW216551   4.341   1.541   2.026
 5291SOL     OW16552   3.987   0.329   2.582
 5291SOL    HW116553   3.899   0.360   2.559
 5291SOL    HW216554   3.984   0.317   2.677
 5292SOL     OW16555   4.909   1.609   1.903
 5292SOL    HW116556   4.920   1.515   1.914
 5292SOL    HW216557   4.855   1.618   1.824
 5293SOL     OW16558   4.548   1.006   3.234
 5293SOL    HW116559   4.591   1.001   3.149
 5293SOL    HW216560   4.548   1.099   3.256
 5294SOL     OW16561   4.640   0.912   2.152
 5294SOL    HW116562   4.702   0.943   2.086
 5294SOL    HW216563   4.686   0.840   2.196
 5295SOL     OW16564   4.093   1.302   3.354
 5295SOL    HW116565   4.080   1.379   3.299
 5295SOL    HW216566   4.016   1.247   3.337
 5296SOL     OW16567   4.775   1.106   2.568
 5296SOL    HW116568   4.704   1.056   2.609
 5296SOL    HW216569   4.832   1.040   2.530
 5297SOL     OW16570   4.739   0.242   2.832
 5297SOL    HW116571   4.721   0.197   2.750
 5297SOL    HW216572   4.733   0.174   2.899
 5298SOL     OW16573   4.326   1.488   2.344
 5298SOL    HW116574   4.369   1.438   2.275
 5298SOL    HW216575   4.258   1.538   2.298
 5299SOL     OW16576   3.983   1.346   2.150
 5299SOL    HW116577   3.890   1.344   2.127
 5299SOL    HW216578   3.985   1.382   2.238
 5300SOL     OW16579   3.836   1.021   3.581
 5300SOL    HW116580   3.760   0.998   3.634
 5300SOL    HW216581   3.911   0.984   3.628
 5301SOL     OW16582   4.396   0.211   3.350
 5301SOL    HW116583   4.479   0.191   3.307
 5301SOL    HW216584   4.420   0.259   3.429
 5302SOL     OW16585   3.801   0.340   1.903
 5302SOL    HW116586   3.718   0.307   1.870
 5302SOL    HW216587   3.822   0.413   1.845
 5303SOL     OW16588   5.163   0.860   3.265
 5303SOL    HW116589   5.110   0.915   3.209
 5303SOL    HW216590   5.252   0.870   3.232
 5304SOL     OW16591   3.796   0.167   2.178
 5304SOL    HW116592   3.796   0.249   2.130
 5304SOL    HW216593   3.881   0.127   2.158
 5305SOL     OW16594   4.907   1.330   1.976
 5305SOL    HW116595   4.813   1.312   1.977
 5305SOL    HW216596   4.931   1.337   2.069
 5306SOL     OW16597   4.343   0.831   3.295
 5306SOL    HW116598   4.398   0.907   3.280
 5306SOL    HW216599   4.404   0.758   3.303
 5307SOL     OW16600   4.440   0.571   3.565
 5307SOL    HW116601   4.479   0.633   3.627
 5307SOL    HW216602   4.471   0.485   3.595
 5308SOL     OW16603   5.182   1.205   3.494
 5308SOL    HW116604   5.173   1.217   3.589
 5308SOL    HW216605   5.276   1.212   3.478
 5309SOL     OW16606   4.105   1.739   3.426
 5309SOL    HW116607   4.020   1.779   3.413
 5309SOL    HW216608   4.086   1.655   3.468
 5310SOL     OW16609   4.942   0.323   2.323
 5310SOL    HW116610   4.999   0.246   2.316
 5310SOL    HW216611   4.973   0.368   2.402
 5311SOL     OW16612   4.315   0.739   2.531
 5311SOL    HW116613   4.353   0.825   2.514
 5311SOL    HW216614   4.246   0.730   2.465
 5312SOL     OW16615   4.590   1.367   1.896
 5312SOL    HW116616   4.549   1.396   1.976
 5312SOL    HW216617   4.607   1.447   1.846
 5313SOL     OW16618   4.383   1.792   2.807
 5313SOL    HW116619   4.363   1.883   2.784
 5313SOL    HW216620   4.479   1.786   2.801
 5314SOL     OW16621   4.591   0.967   2.718
 5314SOL    HW116622   4.641   0.895   2.757
 5314SOL    HW216623   4.557   1.016   2.792
 5315SOL     OW16624   4.807   0.988   1.952
 5315SOL    HW116625   4.782   1.037   1.874
 5315SOL    HW216626   4.881   0.934   1.924
 5316SOL     OW16627   3.948   1.304   3.718
 5316SOL    HW116628   3.881   1.242   3.689
 5316SOL    HW216629   3.931   1.316   3.811
 5317SOL     OW16630   3.807   1.234   2.527
 5317SOL    HW116631   3.812   1.185   2.608
 5317SOL    HW216632   3.876   1.196   2.472
 5318SOL     OW16633   4.404   1.401   3.490
 5318SOL    HW116634   4.324   1.359   3.520
 5318SOL    HW216635   4.400   1.490   3.525
 5319SOL     OW16636   4.154   0.435   2.386
 5319SOL    HW116637   4.185   0.363   2.332
 5319SOL    HW216638   4.108   0.393   2.458
 5320SOL     OW16639   0.096   1.521   2.961
 5320SOL    HW116640   0.028   1.495   2.899
 5320SOL    HW216641   0.106   1.445   3.019
 5321SOL     OW16642   4.052   0.555   3.152
 5321SOL    HW116643   4.108   0.500   3.207
 5321SOL    HW216644   4.073   0.528   3.063
 5322SOL     OW16645   4.551   1.577   2.540
 5322SOL    HW116646   4.541   1.628   2.460
 5322SOL    HW216647   4.473   1.522   2.542
 5323SOL     OW16648   5.151   0.216   2.982
 5323SOL    HW116649   5.160   0.134   3.029
 5323SOL    HW216650   5.105   0.274   3.043
 5324SOL     OW16651   4.725   0.021   3.003
 5324SOL    HW116652   4.674   5.251   2.962
 5324SOL    HW216653   4.812   5.284   3.014
 5325SOL     OW16654   4.494   1.332   2.176
 5325SOL    HW116655   4.463   1.242   2.182
 5325SOL    HW216656   4.577   1.332   2.224
 5326SOL     OW16657   4.344   1.557   3.147
 5326SOL    HW116658   4.346   1.639   3.196
 5326SOL    HW216659   4.431   1.549   3.109
 5327SOL     OW16660   5.036   0.036   2.023
 5327SOL    HW116661   5.117   0.028   1.972
 5327SOL    HW216662   4.984   5.260   1.997
 5328SOL     OW16663   5.029   0.461   2.548
 5328SOL    HW116664   4.972   0.538   2.552
 5328SOL    HW216665   5.017   0.418   2.633
 5329SOL     OW16666   5.296   0.214   2.743
 5329SOL    HW116667   5.236   0.216   2.818
 5329SOL    HW216668   5.279   0.296   2.697
 5330SOL     OW16669   3.768   1.072   2.168
 5330SOL    HW116670   3.861   1.063   2.150
 5330SOL    HW216671   3.739   0.983   2.190
 5331SOL     OW16672   4.604   1.649   2.208
 5331SOL    HW116673   4.533   1.634   2.145
 5331SOL    HW216674   4.576   1.726   2.257
 5332SOL     OW16675   3.953   0.626   3.846
 5332SOL    HW116676   3.864   0.622   3.881
 5332SOL    HW216677   3.944   0.598   3.755
 5333SOL     OW16678   3.943   0.283   4.716
 5333SOL    HW116679   3.972   0.249   4.801
 5333SOL    HW216680   3.857   0.243   4.702
 5334SOL     OW16681   3.729   0.385   4.362
 5334SOL    HW116682   3.644   0.406   4.402
 5334SOL    HW216683   3.711   0.307   4.309
 5335SOL     OW16684   4.291   1.286   4.898
 5335SOL    HW116685   4.203   1.289   4.860
 5335SOL    HW216686   4.306   1.374   4.931
 5336SOL     OW16687   5.284   1.535   4.430
 5336SOL    HW116688   5.245   1.492   4.505
 5336SOL    HW216689   5.219   1.526   4.360
 5337SOL     OW16690   4.859   0.699   4.426
 5337SOL    HW116691   4.908   0.780   4.415
 5337SOL    HW216692   4.809   0.711   4.507
 5338SOL     OW16693   4.481   1.143   4.764
 5338SOL    HW116694   4.411   1.177   4.820
 5338SOL    HW216695   4.515   1.220   4.719
 5339SOL     OW16696   4.591   0.779   5.547
 5339SOL    HW116697   4.573   0.851   5.607
 5339SOL    HW216698   4.613   0.821   5.464
 5340SOL     OW16699   4.411   1.005   4.372
 5340SOL    HW116700   4.475   0.992   4.442
 5340SOL    HW216701   4.340   1.055   4.412
 5341SOL     OW16702   4.434   1.151   5.535
 5341SOL    HW116703   4.481   1.230   5.561
 5341SOL    HW216704   4.351   1.184   5.500
 5342SOL     OW16705   4.055   1.427   4.792
 5342SOL    HW116706   3.982   1.389   4.741
 5342SOL    HW216707   4.105   1.477   4.728
 5343SOL     OW16708   5.160   1.482   5.073
 5343SOL    HW116709   5.204   1.563   5.099
 5343SOL    HW216710   5.109   1.457   5.150
 5344SOL     OW16711   4.168   0.399   5.212
 5344SOL    HW116712   4.243   0.340   5.210
 5344SOL    HW216713   4.092   0.341   5.226
 5345SOL     OW16714   3.943   1.714   4.197
 5345SOL    HW116715   3.966   1.790   4.250
 5345SOL    HW216716   4.015   1.706   4.134
 5346SOL     OW16717   4.860   1.339   5.417
 5346SOL    HW116718   4.898   1.336   5.505
 5346SOL    HW216719   4.806   1.260   5.411
 5347SOL     OW16720   3.954   1.441   4.259
 5347SOL    HW116721   3.937   1.535   4.263
 5347SOL    HW216722   3.893   1.402   4.322
 5348SOL     OW16723   3.980   1.090   4.615
 5348SOL    HW116724   3.977   1.004   4.656
 5348SOL    HW216725   3.922   1.144   4.668
 5349SOL     OW16726   4.335   1.792   5.152
 5349SOL    HW116727   4.254   1.774   5.199
 5349SOL    HW216728   4.359   1.881   5.178
 5350SOL     OW16729   4.311   0.981   3.857
 5350SOL    HW116730   4.355   1.031   3.789
 5350SOL    HW216731   4.351   1.011   3.939
 5351SOL     OW16732   5.251   0.145   5.203
 5351SOL    HW116733   5.297   0.226   5.182
 5351SOL    HW216734   5.278   0.125   5.293
 5352SOL     OW16735   3.838   0.653   4.283
 5352SOL    HW116736   3.811   0.564   4.304
 5352SOL    HW216737   3.831   0.700   4.366
 5353SOL     OW16738   3.754   1.596   3.848
 5353SOL    HW116739   3.738   1.504   3.868
 5353SOL    HW216740   3.731   1.643   3.928
 5354SOL     OW16741   0.112   0.940   4.300
 5354SOL    HW116742   0.199   0.905   4.318
 5354SOL    HW216743   0.129   1.024   4.256
 5355SOL     OW16744   3.846   0.743   5.309
 5355SOL    HW116745   3.938   0.768   5.319
 5355SOL    HW216746   3.798   0.826   5.317
 5356SOL     OW16747   4.337   1.384   4.459
 5356SOL    HW116748   4.291   1.301   4.468
 5356SOL    HW216749   4.321   1.411   4.369
 5357SOL     OW16750   5.008   1.237   5.149
 5357SOL    HW116751   5.041   1.170   5.089
 5357SOL    HW216752   5.063   1.229   5.227
 5358SOL     OW16753   4.534   0.024   4.251
 5358SOL    HW116754   4.562   0.112   4.226
 5358SOL    HW216755   4.438   0.028   4.245
 5359SOL     OW16756   3.915   0.967   4.994
 5359SOL    HW116757   3.999   0.925   4.979
 5359SOL    HW216758   3.851   0.911   4.949
 5360SOL     OW16759   4.898   1.807   5.347
 5360SOL    HW116760   4.920   1.865   5.274
 5360SOL    HW216761   4.918   1.719   5.315
 5361SOL     OW16762   4.049   0.265   5.533
 5361SOL    HW116763   4.102   0.340   5.560
 5361SOL    HW216764   3.963   0.281   5.573
 5362SOL     OW16765   5.169   1.434   4.662
 5362SOL    HW116766   5.107   1.441   4.734
 5362SOL    HW216767   5.163   1.343   4.633
 5363SOL     OW16768   4.319   0.722   3.990
 5363SOL    HW116769   4.324   0.803   3.938
 5363SOL    HW216770   4.253   0.741   4.057
 5364SOL     OW16771   4.997   0.329   4.643
 5364SOL    HW116772   4.908   0.305   4.667
 5364SOL    HW216773   5.050   0.302   4.718
 5365SOL     OW16774   4.518   0.618   5.175
 5365SOL    HW116775   4.491   0.596   5.264
 5365SOL    HW216776   4.475   0.552   5.120
 5366SOL     OW16777   5.117   0.485   5.403
 5366SOL    HW116778   5.117   0.521   5.492
 5366SOL    HW216779   5.183   0.416   5.405
 5367SOL     OW16780   4.680   0.888   5.306
 5367SOL    HW116781   4.732   0.816   5.271
 5367SOL    HW216782   4.632   0.922   5.230
 5368SOL     OW16783   4.718   0.422   4.956
 5368SOL    HW116784   4.634   0.437   5.000
 5368SOL    HW216785   4.696   0.366   4.881
 5369SOL     OW16786   4.774   0.697   4.150
 5369SOL    HW116787   4.789   0.691   4.244
 5369SOL    HW216788   4.692   0.652   4.135
 5370SOL     OW16789   3.812   0.821   4.500
 5370SOL    HW116790   3.894   0.813   4.550
 5370SOL    HW216791   3.770   0.899   4.535
 5371SOL     OW16792   3.851   1.842   5.300
 5371SOL    HW116793   3.850   1.823   5.394
 5371SOL    HW216794   3.759   1.843   5.275
 5372SOL     OW16795   4.596   0.361   3.914
 5372SOL    HW116796   4.636   0.418   3.848
 5372SOL    HW216797   4.646   0.280   3.909
 5373SOL     OW16798   5.092   1.145   4.271
 5373SOL    HW116799   5.179   1.145   4.231
 5373SOL    HW216800   5.041   1.206   4.216
 5374SOL     OW16801   4.252   0.201   4.607
 5374SOL    HW116802   4.274   0.216   4.699
 5374SOL    HW216803   4.273   0.284   4.564
 5375SOL     OW16804   4.731   1.444   4.197
 5375SOL    HW116805   4.692   1.516   4.147
 5375SOL    HW216806   4.715   1.466   4.289
 5376SOL     OW16807   4.078   1.808   4.585
 5376SOL    HW116808   4.122   1.723   4.593
 5376SOL    HW216809   4.147   1.872   4.603
 5377SOL     OW16810   4.940   1.543   5.244
 5377SOL    HW116811   4.928   1.469   5.303
 5377SOL    HW216812   4.886   1.523   5.167
 5378SOL     OW16813   4.045   0.957   3.973
 5378SOL    HW116814   4.127   0.975   3.928
 5378SOL    HW216815   4.014   0.875   3.935
 5379SOL     OW16816   4.189   1.264   5.462
 5379SOL    HW116817   4.162   1.268   5.370
 5379SOL    HW216818   4.107   1.262   5.511
 5380SOL     OW16819   4.833   1.775   3.960
 5380SOL    HW116820   4.762   1.730   4.005
 5380SOL    HW216821   4.858   1.716   3.889
 5381SOL     OW16822   3.921   0.278   5.226
 5381SOL    HW116823   3.842   0.332   5.221
 5381SOL    HW216824   3.912   0.230   5.308
 5382SOL     OW16825   4.190   1.737   4.045
 5382SOL    HW116826   4.232   1.794   4.110
 5382SOL    HW216827   4.262   1.708   3.989
 5383SOL     OW16828   5.100   0.099   4.145
 5383SOL    HW116829   5.085   0.082   4.052
 5383SOL    HW216830   5.194   0.119   4.151
 5384SOL     OW16831   3.978   1.791   4.956
 5384SOL    HW116832   4.031   1.727   5.004
 5384SOL    HW216833   3.970   1.755   4.868
 5385SOL     OW16834   4.662   1.698   4.624
 5385SOL    HW116835   4.741   1.647   4.642
 5385SOL    HW216836   4.617   1.649   4.555
 5386SOL     OW16837   4.116   0.696   4.201
 5386SOL    HW116838   4.138   0.603   4.211
 5386SOL    HW216839   4.022   0.701   4.219
 5387SOL     OW16840   4.346   0.133   3.832
 5387SOL    HW116841   4.419   0.074   3.850
 5387SOL    HW216842   4.298   0.090   3.761
 5388SOL     OW16843   4.509   0.312   5.491
 5388SOL    HW116844   4.570   0.238   5.491
 5388SOL    HW216845   4.458   0.301   5.571
 5389SOL     OW16846   4.600   1.521   4.917
 5389SOL    HW116847   4.585   1.486   4.830
 5389SOL    HW216848   4.670   1.467   4.954
 5390SOL     OW16849   5.061   0.591   5.155
 5390SOL    HW116850   5.091   0.560   5.240
 5390SOL    HW216851   5.099   0.678   5.146
 5391SOL     OW16852   4.538   1.396   4.662
 5391SOL    HW116853   4.622   1.385   4.618
 5391SOL    HW216854   4.473   1.396   4.591
 5392SOL     OW16855   4.651   0.511   4.627
 5392SOL    HW116856   4.628   0.501   4.535
 5392SOL    HW216857   4.682   0.424   4.653
 5393SOL     OW16858   4.266   0.063   4.233
 5393SOL    HW116859   4.180   0.062   4.276
 5393SOL    HW216860   4.260   0.133   4.168
 5394SOL     OW16861   5.138   1.180   3.767
 5394SOL    HW116862   5.149   1.103   3.823
 5394SOL    HW216863   5.050   1.212   3.788
 5395SOL     OW16864   4.025   0.061   3.914
 5395SOL    HW116865   4.085   0.129   3.883
 5395SOL    HW216866   4.082   5.285   3.927
 5396SOL     OW16867   4.661   0.260   4.187
 5396SOL    HW116868   4.632   0.295   4.103
 5396SOL    HW216869   4.756   0.274   4.188
 5397SOL     OW16870   4.802   0.680   5.185
 5397SOL    HW116871   4.732   0.615   5.187
 5397SOL    HW216872   4.882   0.629   5.174
 5398SOL     OW16873   4.941   1.571   4.518
 5398SOL    HW116874   4.964   1.637   4.453
 5398SOL    HW216875   5.020   1.561   4.571
 5399SOL     OW16876   4.192   1.149   4.459
 5399SOL    HW116877   4.122   1.130   4.521
 5399SOL    HW216878   4.153   1.132   4.373
 5400SOL     OW16879   4.996   1.794   4.328
 5400SOL    HW116880   5.038   1.855   4.268
 5400SOL    HW216881   4.930   1.847   4.374
 5401SOL     OW16882   4.754   0.551   3.742
 5401SOL    HW116883   4.706   0.632   3.725
 5401SOL    HW216884   4.808   0.571   3.819
 5402SOL     OW16885   3.802   0.554   5.117
 5402SOL    HW116886   3.893   0.553   5.089
 5402SOL    HW216887   3.797   0.624   5.181
 5403SOL     OW16888   4.280   0.237   4.882
 5403SOL    HW116889   4.312   0.152   4.910
 5403SOL    HW216890   4.189   0.239   4.908
 5404SOL     OW16891   4.593   0.463   4.364
 5404SOL    HW116892   4.544   0.515   4.301
 5404SOL    HW216893   4.613   0.382   4.318
 5405SOL     OW16894   4.700   0.063   4.486
 5405SOL    HW116895   4.635   0.053   4.416
 5405SOL    HW216896   4.714   5.273   4.518
 5406SOL     OW16897   5.158   1.175   4.575
 5406SOL    HW116898   5.101   1.099   4.588
 5406SOL    HW216899   5.169   1.181   4.480
 5407SOL     OW16900   4.215   1.417   3.882
 5407SOL    HW116901   4.140   1.387   3.934
 5407SOL    HW216902   4.199   1.381   3.795
 5408SOL     OW16903   5.127   0.560   3.804
 5408SOL    HW116904   5.052   0.552   3.863
 5408SOL    HW216905   5.202   0.532   3.857
 5409SOL     OW16906   4.248   0.265   4.046
 5409SOL    HW116907   4.291   0.214   3.977
 5409SOL    HW216908   4.228   0.349   4.006
 5410SOL     OW16909   4.782   1.353   5.057
 5410SOL    HW116910   4.707   1.323   5.108
 5410SOL    HW216911   4.857   1.311   5.098
 5411SOL     OW16912   0.006   1.604   5.342
 5411SOL    HW116913   0.040   1.611   5.252
 5411SOL    HW216914   0.083   1.584   5.395
 5412SOL     OW16915   4.852   1.202   4.831
 5412SOL    HW116916   4.791   1.238   4.895
 5412SOL    HW216917   4.817   1.231   4.747
 5413SOL     OW16918   4.626   0.104   5.113
 5413SOL    HW116919   4.658   0.070   5.030
 5413SOL    HW216920   4.701   0.147   5.153
 5414SOL     OW16921   4.708   1.113   5.449
 5414SOL    HW116922   4.616   1.130   5.468
 5414SOL    HW216923   4.707   1.036   5.391
 5415SOL     OW16924   4.432   1.061   4.095
 5415SOL    HW116925   4.418   1.045   4.189
 5415SOL    HW216926   4.508   1.007   4.073
 5416SOL     OW16927   4.142   0.815   4.975
 5416SOL    HW116928   4.211   0.824   5.041
 5416SOL    HW216929   4.107   0.727   4.989
 5417SOL     OW16930   4.992   0.380   4.993
 5417SOL    HW116931   5.025   0.458   5.038
 5417SOL    HW216932   4.901   0.401   4.971
 5418SOL     OW16933   3.794   1.572   5.075
 5418SOL    HW116934   3.763   1.647   5.024
 5418SOL    HW216935   3.889   1.578   5.071
 5419SOL     OW16936   4.075   1.108   4.215
 5419SOL    HW116937   4.079   1.181   4.154
 5419SOL    HW216938   4.072   1.030   4.159
 5420SOL     OW16939   4.278   0.538   4.585
 5420SOL    HW116940   4.294   0.596   4.510
 5420SOL    HW216941   4.343   0.565   4.650
 5421SOL     OW16942   4.972   1.349   4.112
 5421SOL    HW116943   5.026   1.421   4.142
 5421SOL    HW216944   4.885   1.368   4.145
 5422SOL     OW16945   4.993   1.456   4.863
 5422SOL    HW116946   5.048   1.459   4.941
 5422SOL    HW216947   4.939   1.377   4.874
 5423SOL     OW16948   4.071   1.526   5.040
 5423SOL    HW116949   4.058   1.484   4.955
 5423SOL    HW216950   4.166   1.538   5.047
 5424SOL     OW16951   4.138   0.745   5.326
 5424SOL    HW116952   4.199   0.790   5.268
 5424SOL    HW216953   4.179   0.660   5.343
 5425SOL     OW16954   4.753   0.115   5.484
 5425SOL    HW116955   4.793   0.197   5.454
 5425SOL    HW216956   4.790   0.047   5.428
 5426SOL     OW16957   4.204   0.057   5.462
 5426SOL    HW116958   4.147   5.293   5.420
 5426SOL    HW216959   4.146   0.130   5.484
 5427SOL     OW16960   4.308   0.872   4.755
 5427SOL    HW116961   4.337   0.964   4.754
 5427SOL    HW216962   4.250   0.867   4.832
 5428SOL     OW16963   5.086   0.858   4.762
 5428SOL    HW116964   5.008   0.842   4.707
 5428SOL    HW216965   5.135   0.776   4.757
 5429SOL     OW16966   4.931   0.531   3.991
 5429SOL    HW116967   4.934   0.451   4.042
 5429SOL    HW216968   4.886   0.594   4.048
 5430SOL     OW16969   4.021   0.204   4.971
 5430SOL    HW116970   3.983   0.243   5.049
 5430SOL    HW216971   4.019   0.110   4.987
 5431SOL     OW16972   3.770   1.310   5.000
 5431SOL    HW116973   3.803   1.257   5.072
 5431SOL    HW216974   3.777   1.400   5.032
 5432SOL     OW16975   4.450   0.632   4.784
 5432SOL    HW116976   4.523   0.614   4.725
 5432SOL    HW216977   4.421   0.721   4.761
 5433SOL     OW16978   4.025   0.073   4.372
 5433SOL    HW116979   4.010   0.167   4.382
 5433SOL    HW216980   4.065   0.046   4.455
 5434SOL     OW16981   0.028   0.405   4.089
 5434SOL    HW116982   0.060   0.344   4.155
 5434SOL    HW216983   0.004   0.483   4.139
 5435SOL     OW16984   4.751   0.759   4.685
 5435SOL    HW116985   4.750   0.777   4.779
 5435SOL    HW216986   4.725   0.668   4.677
 5436SOL     OW16987   4.699   1.562   5.437
 5436SOL    HW116988   4.687   1.609   5.355
 5436SOL    HW216989   4.747   1.483   5.413
 5437SOL     OW16990   4.077   0.916   5.532
 5437SOL    HW116991   4.160   0.935   5.577
 5437SOL    HW216992   4.101   0.853   5.464
 5438SOL     OW16993   5.028   0.830   3.761
 5438SOL    HW116994   5.063   0.741   3.761
 5438SOL    HW216995   5.054   0.865   3.676
 5439SOL     OW16996   4.789   1.334   4.579
 5439SOL    HW116997   4.792   1.262   4.516
 5439SOL    HW216998   4.848   1.400   4.543
 5440SOL     OW16999   4.033   0.809   4.672
 5440SOL    HW117000   4.126   0.831   4.665
 5440SOL    HW217001   4.032   0.719   4.704
 5441SOL     OW17002   4.057   0.525   4.736
 5441SOL    HW117003   4.020   0.438   4.720
 5441SOL    HW217004   4.133   0.530   4.679
 5442SOL     OW17005   4.861   0.377   5.413
 5442SOL    HW117006   4.812   0.432   5.474
 5442SOL    HW217007   4.946   0.421   5.404
 5443SOL     OW17008   4.848   0.233   5.183
 5443SOL    HW117009   4.860   0.283   5.263
 5443SOL    HW217010   4.913   0.270   5.122
 5444SOL     OW17011   3.729   1.322   3.919
 5444SOL    HW117012   3.642   1.336   3.881
 5444SOL    HW217013   3.726   1.232   3.952
 5445SOL     OW17014   3.814   1.787   4.661
 5445SOL    HW117015   3.784   1.707   4.617
 5445SOL    HW217016   3.904   1.799   4.630
 5446SOL     OW17017   4.221   1.573   4.630
 5446SOL    HW117018   4.290   1.636   4.654
 5446SOL    HW217019   4.266   1.509   4.574
 5447SOL     OW17020   4.709   0.794   4.952
 5447SOL    HW117021   4.763   0.769   5.026
 5447SOL    HW217022   4.623   0.755   4.970
 5448SOL     OW17023   3.759   0.543   4.841
 5448SOL    HW117024   3.840   0.528   4.791
 5448SOL    HW217025   3.789   0.548   4.932
 5449SOL     OW17026   3.911   0.521   5.450
 5449SOL    HW117027   3.974   0.486   5.387
 5449SOL    HW217028   3.869   0.594   5.405
 5450SOL     OW17029   5.111   0.939   5.390
 5450SOL    HW117030   5.120   1.034   5.379
 5450SOL    HW217031   5.113   0.904   5.301
 5451SOL     OW17032   4.539   0.573   4.082
 5451SOL    HW117033   4.541   0.497   4.024
 5451SOL    HW217034   4.464   0.624   4.053
 5452SOL     OW17035   3.969   1.552   5.453
 5452SOL    HW117036   3.945   1.616   5.520
 5452SOL    HW217037   3.969   1.468   5.499
 5453SOL     OW17038   4.420   0.453   4.986
 5453SOL    HW117039   4.370   0.379   4.952
 5453SOL    HW217040   4.421   0.516   4.914
 5454SOL     OW17041   4.646   1.680   5.192
 5454SOL    HW117042   4.624   1.648   5.105
 5454SOL    HW217043   4.648   1.775   5.184
 5455SOL     OW17044   4.188   0.493   3.909
 5455SOL    HW117045   4.247   0.565   3.931
 5455SOL    HW217046   4.103   0.535   3.899
 5456SOL     OW17047   3.871   1.140   5.196
 5456SOL    HW117048   3.874   1.088   5.276
 5456SOL    HW217049   3.888   1.077   5.126
 5457SOL     OW17050   5.055   1.050   4.949
 5457SOL    HW117051   5.076   0.986   4.881
 5457SOL    HW217052   4.982   1.100   4.912
 5458SOL     OW17053   5.034   0.858   4.040
 5458SOL    HW117054   4.952   0.827   4.077
 5458SOL    HW217055   5.022   0.851   3.946
 5459SOL     OW17056   4.960   1.731   4.846
 5459SOL    HW117057   5.046   1.751   4.808
 5459SOL    HW217058   4.960   1.636   4.856
 5460SOL     OW17059   3.807   1.267   4.736
 5460SOL    HW117060   3.794   1.279   4.830
 5460SOL    HW217061   3.734   1.212   4.708
 5461SOL     OW17062   4.401   1.664   5.451
 5461SOL    HW117063   4.349   1.745   5.446
 5461SOL    HW217064   4.468   1.675   5.384
 5462SOL     OW17065   5.111   1.570   4.203
 5462SOL    HW117066   5.180   1.609   4.151
 5462SOL    HW217067   5.062   1.644   4.238
 5463SOL     OW17068   3.859   1.797   5.567
 5463SOL    HW117069   3.809   1.732   5.616
 5463SOL    HW217070   3.908   1.845   5.635
 5464SOL     OW17071   5.015   0.919   4.397
 5464SOL    HW117072   5.092   0.864   4.383
 5464SOL    HW217073   5.034   0.999   4.348
 5465SOL     OW17074   4.540   1.273   5.155
 5465SOL    HW117075   4.512   1.312   5.238
 5465SOL    HW217076   4.470   1.295   5.093
 5466SOL     OW17077   4.395   1.619   3.880
 5466SOL    HW117078   4.406   1.631   3.785
 5466SOL    HW217079   4.341   1.541   3.888
 5467SOL     OW17080   3.987   0.329   4.444
 5467SOL    HW117081   3.899   0.360   4.421
 5467SOL    HW217082   3.984   0.317   4.539
 5468SOL     OW17083   4.909   1.609   3.765
 5468SOL    HW117084   4.920   1.515   3.776
 5468SOL    HW217085   4.855   1.618   3.686
 5469SOL     OW17086   4.548   1.006   5.096
 5469SOL    HW117087   4.591   1.001   5.011
 5469SOL    HW217088   4.548   1.099   5.118
 5470SOL     OW17089   4.640   0.911   4.014
 5470SOL    HW117090   4.702   0.943   3.948
 5470SOL    HW217091   4.686   0.840   4.058
 5471SOL     OW17092   4.093   1.302   5.216
 5471SOL    HW117093   4.080   1.380   5.161
 5471SOL    HW217094   4.016   1.247   5.199
 5472SOL     OW17095   4.775   1.106   4.430
 5472SOL    HW117096   4.704   1.056   4.471
 5472SOL    HW217097   4.832   1.040   4.392
 5473SOL     OW17098   4.739   0.242   4.694
 5473SOL    HW117099   4.721   0.197   4.612
 5473SOL    HW217100   4.733   0.174   4.761
 5474SOL     OW17101   4.326   1.488   4.206
 5474SOL    HW117102   4.370   1.438   4.137
 5474SOL    HW217103   4.258   1.538   4.160
 5475SOL     OW17104   3.983   1.346   4.012
 5475SOL    HW117105   3.890   1.344   3.989
 5475SOL    HW217106   3.985   1.382   4.100
 5476SOL     OW17107   3.836   1.020   5.443
 5476SOL    HW117108   3.760   0.998   5.496
 5476SOL    HW217109   3.911   0.983   5.491
 5477SOL     OW17110   4.396   0.211   5.212
 5477SOL    HW117111   4.479   0.191   5.169
 5477SOL    HW217112   4.420   0.259   5.291
 5478SOL     OW17113   3.801   0.340   3.765
 5478SOL    HW117114   3.718   0.307   3.732
 5478SOL    HW217115   3.822   0.413   3.707
 5479SOL     OW17116   5.163   0.859   5.127
 5479SOL    HW117117   5.110   0.915   5.071
 5479SOL    HW217118   5.252   0.870   5.094
 5480SOL     OW17119   3.796   0.167   4.040
 5480SOL    HW117120   3.796   0.249   3.992
 5480SOL    HW217121   3.881   0.127   4.020
 5481SOL     OW17122   4.907   1.330   3.838
 5481SOL    HW117123   4.813   1.312   3.839
 5481SOL    HW217124   4.931   1.337   3.931
 5482SOL     OW17125   4.343   0.831   5.157
 5482SOL    HW117126   4.398   0.907   5.142
 5482SOL    HW217127   4.404   0.758   5.165
 5483SOL     OW17128   4.440   0.571   5.427
 5483SOL    HW117129   4.479   0.633   5.489
 5483SOL    HW217130   4.471   0.485   5.457
 5484SOL     OW17131   5.182   1.205   5.356
 5484SOL    HW117132   5.173   1.217   5.451
 5484SOL    HW217133   5.276   1.212   5.340
 5485SOL     OW17134   4.105   1.739   5.288
 5485SOL    HW117135   4.019   1.780   5.275
 5485SOL    HW217136   4.085   1.656   5.330
 5486SOL     OW17137   4.942   0.323   4.185
 5486SOL    HW117138   4.999   0.246   4.178
 5486SOL    HW217139   4.973   0.368   4.264
 5487SOL     OW17140   4.315   0.739   4.393
 5487SOL    HW117141   4.353   0.825   4.376
 5487SOL    HW217142   4.246   0.730   4.327
 5488SOL     OW17143   4.590   1.367   3.758
 5488SOL    HW117144   4.549   1.396   3.838
 5488SOL    HW217145   4.607   1.447   3.708
 5489SOL     OW17146   4.383   1.792   4.669
 5489SOL    HW117147   4.364   1.883   4.646
 5489SOL    HW217148   4.479   1.786   4.663
 5490SOL     OW17149   4.591   0.967   4.580
 5490SOL    HW117150   4.641   0.895   4.619
 5490SOL    HW217151   4.557   1.016   4.654
 5491SOL     OW17152   4.807   0.988   3.814
 5491SOL    HW117153   4.782   1.037   3.736
 5491SOL    HW217154   4.881   0.934   3.786
 5492SOL     OW17155   3.949   1.304   5.580
 5492SOL    HW117156   3.881   1.243   5.551
 5492SOL    HW217157   3.931   1.316   5.673
 5493SOL     OW17158   3.807   1.235   4.389
 5493SOL    HW117159   3.811   1.185   4.471
 5493SOL    HW217160   3.876   1.196   4.334
 5494SOL     OW17161   4.405   1.401   5.352
 5494SOL    HW117162   4.324   1.359   5.382
 5494SOL    HW217163   4.400   1.490   5.387
 5495SOL     OW17164   4.154   0.435   4.248
 5495SOL    HW117165   4.185   0.363   4.194
 5495SOL    HW217166   4.108   0.393   4.320
 5496SOL     OW17167   0.096   1.521   4.823
 5496SOL    HW117168   0.028   1.495   4.761
 5496SOL    HW217169   0.106   1.445   4.881
 5497SOL     OW17170   4.052   0.555   5.014
 5497SOL    HW117171   4.108   0.500   5.069
 5497SOL    HW217172   4.073   0.528   4.925
 5498SOL     OW17173   4.551   1.577   4.402
 5498SOL    HW117174   4.541   1.628   4.321
 5498SOL    HW217175   4.473   1.522   4.405
 5499SOL     OW17176   5.151   0.216   4.844
 5499SOL    HW117177   5.160   0.134   4.891
 5499SOL    HW217178   5.105   0.274   4.905
 5500SOL     OW17179   4.725   0.021   4.865
 5500SOL    HW117180   4.674   5.251   4.824
 5500SOL    HW217181   4.813   5.284   4.876
 5501SOL     OW17182   4.494   1.332   4.038
 5501SOL    HW117183   4.463   1.242   4.044
 5501SOL    HW217184   4.577   1.332   4.086
 5502SOL     OW17185   4.344   1.557   5.009
 5502SOL    HW117186   4.346   1.639   5.058
 5502SOL    HW217187   4.431   1.549   4.971
 5503SOL     OW17188   5.036   0.036   3.885
 5503SOL    HW117189   5.117   0.028   3.834
 5503SOL    HW217190   4.984   5.260   3.859
 5504SOL     OW17191   5.029   0.461   4.410
 5504SOL    HW117192   4.972   0.538   4.414
 5504SOL    HW217193   5.017   0.418   4.495
 5505SOL     OW17194   5.296   0.214   4.605
 5505SOL    HW117195   5.236   0.216   4.681
 5505SOL    HW217196   5.279   0.296   4.559
 5506SOL     OW17197   3.768   1.072   4.030
 5506SOL    HW117198   3.861   1.063   4.012
 5506SOL    HW217199   3.739   0.983   4.052
 5507SOL     OW17200   4.604   1.649   4.070
 5507SOL    HW117201   4.533   1.634   4.007
 5507SOL    HW217202   4.576   1.726   4.119
 5508SOL     OW17203   3.953   0.625   5.708
 5508SOL    HW117204   3.864   0.622   5.743
 5508SOL    HW217205   3.944   0.598   5.617
 5509SOL     OW17206   3.943   0.283   6.578
 5509SOL    HW117207   3.972   0.249   6.663
 5509SOL    HW217208   3.857   0.243   6.564
 5510SOL     OW17209   3.729   0.385   6.225
 5510SOL    HW117210   3.644   0.406   6.264
 5510SOL    HW217211   3.711   0.307   6.171
 5511SOL     OW17212   4.291   1.286   6.760
 5511SOL    HW117213   4.203   1.289   6.722
 5511SOL    HW217214   4.306   1.374   6.793
 5512SOL     OW17215   5.284   1.535   6.292
 5512SOL    HW117216   5.245   1.492   6.367
 5512SOL    HW217217   5.219   1.526   6.222
 5513SOL     OW17218   4.859   0.699   6.288
 5513SOL    HW117219   4.908   0.780   6.277
 5513SOL    HW217220   4.809   0.711   6.369
 5514SOL     OW17221   4.481   1.143   6.626
 5514SOL    HW117222   4.411   1.177   6.682
 5514SOL    HW217223   4.515   1.220   6.581
 5515SOL     OW17224   4.590   0.780   7.408
 5515SOL    HW117225   4.569   0.855   7.463
 5515SOL    HW217226   4.614   0.819   7.324
 5516SOL     OW17227   4.411   1.004   6.233
 5516SOL    HW117228   4.475   0.992   6.304
 5516SOL    HW217229   4.340   1.055   6.274
 5517SOL     OW17230   4.434   1.152   7.397
 5517SOL    HW117231   4.481   1.231   7.423
 5517SOL    HW217232   4.351   1.184   7.362
 5518SOL     OW17233   4.055   1.427   6.654
 5518SOL    HW117234   3.982   1.389   6.603
 5518SOL    HW217235   4.105   1.477   6.590
 5519SOL     OW17236   5.161   1.481   6.935
 5519SOL    HW117237   5.204   1.563   6.961
 5519SOL    HW217238   5.108   1.457   7.012
 5520SOL     OW17239   4.168   0.399   7.075
 5520SOL    HW117240   4.243   0.340   7.072
 5520SOL    HW217241   4.092   0.341   7.088
 5521SOL     OW17242   3.943   1.714   6.059
 5521SOL    HW117243   3.966   1.790   6.112
 5521SOL    HW217244   4.015   1.706   5.996
 5522SOL     OW17245   4.860   1.339   7.278
 5522SOL    HW117246   4.898   1.337   7.365
 5522SOL    HW217247   4.807   1.259   7.273
 5523SOL     OW17248   3.954   1.441   6.121
 5523SOL    HW117249   3.937   1.535   6.125
 5523SOL    HW217250   3.893   1.402   6.184
 5524SOL     OW17251   3.980   1.090   6.477
 5524SOL    HW117252   3.977   1.004   6.518
 5524SOL    HW217253   3.922   1.144   6.530
 5525SOL     OW17254   4.335   1.792   7.013
 5525SOL    HW117255   4.254   1.774   7.061
 5525SOL    HW217256   4.359   1.881   7.040
 5526SOL     OW17257   4.311   0.981   5.719
 5526SOL    HW117258   4.355   1.032   5.651
 5526SOL    HW217259   4.351   1.011   5.801
 5527SOL     OW17260   5.250   0.145   7.065
 5527SOL    HW117261   5.296   0.226   7.043
 5527SOL    HW217262   5.278   0.126   7.154
 5528SOL     OW17263   3.838   0.653   6.145
 5528SOL    HW117264   3.810   0.564   6.166
 5528SOL    HW217265   3.831   0.701   6.228
 5529SOL     OW17266   3.755   1.596   5.710
 5529SOL    HW117267   3.738   1.504   5.730
 5529SOL    HW217268   3.731   1.642   5.790
 5530SOL     OW17269   0.113   0.940   6.162
 5530SOL    HW117270   0.200   0.905   6.180
 5530SOL    HW217271   0.129   1.024   6.119
 5531SOL     OW17272   3.846   0.743   7.172
 5531SOL    HW117273   3.938   0.768   7.181
 5531SOL    HW217274   3.798   0.825   7.180
 5532SOL     OW17275   4.337   1.384   6.321
 5532SOL    HW117276   4.291   1.301   6.330
 5532SOL    HW217277   4.321   1.411   6.231
 5533SOL     OW17278   5.008   1.237   7.010
 5533SOL    HW117279   5.042   1.170   6.951
 5533SOL    HW217280   5.062   1.229   7.089
 5534SOL     OW17281   4.534   0.024   6.113
 5534SOL    HW117282   4.562   0.112   6.088
 5534SOL    HW217283   4.438   0.028   6.107
 5535SOL     OW17284   3.915   0.967   6.856
 5535SOL    HW117285   3.999   0.925   6.841
 5535SOL    HW217286   3.851   0.912   6.811
 5536SOL     OW17287   4.898   1.807   7.208
 5536SOL    HW117288   4.920   1.865   7.134
 5536SOL    HW217289   4.919   1.719   7.177
 5537SOL     OW17290   4.048   0.262   7.400
 5537SOL    HW117291   4.101   0.339   7.421
 5537SOL    HW217292   3.962   0.282   7.436
 5538SOL     OW17293   5.170   1.434   6.524
 5538SOL    HW117294   5.107   1.441   6.596
 5538SOL    HW217295   5.163   1.343   6.495
 5539SOL     OW17296   4.319   0.722   5.852
 5539SOL    HW117297   4.324   0.803   5.800
 5539SOL    HW217298   4.253   0.741   5.919
 5540SOL     OW17299   4.997   0.329   6.505
 5540SOL    HW117300   4.908   0.305   6.528
 5540SOL    HW217301   5.050   0.302   6.580
 5541SOL     OW17302   4.518   0.618   7.037
 5541SOL    HW117303   4.490   0.596   7.126
 5541SOL    HW217304   4.475   0.552   6.982
 5542SOL     OW17305   5.118   0.486   7.265
 5542SOL    HW117306   5.117   0.521   7.354
 5542SOL    HW217307   5.181   0.415   7.268
 5543SOL     OW17308   4.680   0.888   7.168
 5543SOL    HW117309   4.733   0.816   7.132
 5543SOL    HW217310   4.632   0.922   7.092
 5544SOL     OW17311   4.718   0.421   6.818
 5544SOL    HW117312   4.634   0.437   6.862
 5544SOL    HW217313   4.696   0.366   6.743
 5545SOL     OW17314   4.774   0.697   6.012
 5545SOL    HW117315   4.789   0.691   6.106
 5545SOL    HW217316   4.692   0.652   5.997
 5546SOL     OW17317   3.812   0.820   6.363
 5546SOL    HW117318   3.894   0.813   6.413
 5546SOL    HW217319   3.770   0.899   6.397
 5547SOL     OW17320   3.851   1.845   7.163
 5547SOL    HW117321   3.850   1.824   7.257
 5547SOL    HW217322   3.759   1.841   7.137
 5548SOL     OW17323   4.596   0.361   5.776
 5548SOL    HW117324   4.636   0.418   5.710
 5548SOL    HW217325   4.646   0.280   5.771
 5549SOL     OW17326   5.092   1.145   6.132
 5549SOL    HW117327   5.179   1.145   6.093
 5549SOL    HW217328   5.041   1.206   6.078
 5550SOL     OW17329   4.252   0.201   6.469
 5550SOL    HW117330   4.274   0.216   6.561
 5550SOL    HW217331   4.273   0.284   6.426
 5551SOL     OW17332   4.731   1.444   6.059
 5551SOL    HW117333   4.692   1.516   6.009
 5551SOL    HW217334   4.714   1.466   6.151
 5552SOL     OW17335   4.078   1.808   6.447
 5552SOL    HW117336   4.122   1.723   6.455
 5552SOL    HW217337   4.147   1.872   6.464
 5553SOL     OW17338   4.941   1.543   7.105
 5553SOL    HW117339   4.928   1.470   7.165
 5553SOL    HW217340   4.885   1.523   7.030
 5554SOL     OW17341   4.045   0.957   5.836
 5554SOL    HW117342   4.126   0.976   5.790
 5554SOL    HW217343   4.014   0.875   5.796
 5555SOL     OW17344   4.189   1.263   7.323
 5555SOL    HW117345   4.161   1.268   7.232
 5555SOL    HW217346   4.107   1.262   7.373
 5556SOL     OW17347   4.833   1.775   5.822
 5556SOL    HW117348   4.762   1.730   5.867
 5556SOL    HW217349   4.858   1.716   5.751
 5557SOL     OW17350   3.921   0.278   7.087
 5557SOL    HW117351   3.842   0.332   7.081
 5557SOL    HW217352   3.911   0.229   7.169
 5558SOL     OW17353   4.190   1.737   5.907
 5558SOL    HW117354   4.232   1.795   5.972
 5558SOL    HW217355   4.262   1.708   5.851
 5559SOL     OW17356   5.100   0.099   6.007
 5559SOL    HW117357   5.085   0.082   5.914
 5559SOL    HW217358   5.194   0.119   6.013
 5560SOL     OW17359   3.978   1.792   6.818
 5560SOL    HW117360   4.031   1.727   6.865
 5560SOL    HW217361   3.969   1.756   6.730
 5561SOL     OW17362   4.662   1.698   6.486
 5561SOL    HW117363   4.741   1.647   6.504
 5561SOL    HW217364   4.617   1.649   6.417
 5562SOL     OW17365   4.116   0.696   6.063
 5562SOL    HW117366   4.138   0.603   6.073
 5562SOL    HW217367   4.022   0.701   6.081
 5563SOL     OW17368   4.346   0.133   5.694
 5563SOL    HW117369   4.419   0.074   5.712
 5563SOL    HW217370   4.298   0.090   5.623
 5564SOL     OW17371   4.508   0.311   7.350
 5564SOL    HW117372   4.571   0.239   7.351
 5564SOL    HW217373   4.463   0.305   7.434
 5565SOL     OW17374   4.600   1.521   6.779
 5565SOL    HW117375   4.585   1.486   6.692
 5565SOL    HW217376   4.670   1.467   6.816
 5566SOL     OW17377   5.061   0.591   7.017
 5566SOL    HW117378   5.091   0.560   7.102
 5566SOL    HW217379   5.099   0.678   7.008
 5567SOL     OW17380   4.538   1.396   6.524
 5567SOL    HW117381   4.622   1.385   6.480
 5567SOL    HW217382   4.473   1.396   6.453
 5568SOL     OW17383   4.651   0.510   6.489
 5568SOL    HW117384   4.628   0.501   6.397
 5568SOL    HW217385   4.682   0.424   6.515
 5569SOL     OW17386   4.266   0.063   6.095
 5569SOL    HW117387   4.180   0.062   6.138
 5569SOL    HW217388   4.260   0.133   6.030
 5570SOL     OW17389   5.137   1.180   5.629
 5570SOL    HW117390   5.148   1.103   5.685
 5570SOL    HW217391   5.050   1.212   5.650
 5571SOL     OW17392   4.025   0.061   5.776
 5571SOL    HW117393   4.085   0.129   5.745
 5571SOL    HW217394   4.082   5.285   5.789
 5572SOL     OW17395   4.661   0.260   6.049
 5572SOL    HW117396   4.632   0.295   5.965
 5572SOL    HW217397   4.756   0.274   6.049
 5573SOL     OW17398   4.802   0.680   7.047
 5573SOL    HW117399   4.732   0.615   7.050
 5573SOL    HW217400   4.882   0.629   7.036
 5574SOL     OW17401   4.941   1.571   6.380
 5574SOL    HW117402   4.964   1.637   6.315
 5574SOL    HW217403   5.020   1.561   6.433
 5575SOL     OW17404   4.192   1.149   6.321
 5575SOL    HW117405   4.122   1.130   6.383
 5575SOL    HW217406   4.153   1.132   6.235
 5576SOL     OW17407   4.996   1.794   6.191
 5576SOL    HW117408   5.038   1.855   6.130
 5576SOL    HW217409   4.930   1.846   6.236
 5577SOL     OW17410   4.754   0.551   5.604
 5577SOL    HW117411   4.706   0.632   5.587
 5577SOL    HW217412   4.808   0.571   5.681
 5578SOL     OW17413   3.802   0.553   6.979
 5578SOL    HW117414   3.894   0.553   6.951
 5578SOL    HW217415   3.797   0.624   7.043
 5579SOL     OW17416   4.281   0.237   6.744
 5579SOL    HW117417   4.312   0.152   6.772
 5579SOL    HW217418   4.189   0.239   6.770
 5580SOL     OW17419   4.593   0.463   6.226
 5580SOL    HW117420   4.544   0.515   6.163
 5580SOL    HW217421   4.613   0.382   6.180
 5581SOL     OW17422   4.700   0.062   6.348
 5581SOL    HW117423   4.635   0.053   6.278
 5581SOL    HW217424   4.714   5.273   6.380
 5582SOL     OW17425   5.158   1.175   6.437
 5582SOL    HW117426   5.101   1.100   6.450
 5582SOL    HW217427   5.169   1.181   6.342
 5583SOL     OW17428   4.215   1.417   5.744
 5583SOL    HW117429   4.140   1.387   5.796
 5583SOL    HW217430   4.198   1.382   5.657
 5584SOL     OW17431   5.127   0.560   5.666
 5584SOL    HW117432   5.052   0.552   5.725
 5584SOL    HW217433   5.202   0.532   5.719
 5585SOL     OW17434   4.248   0.265   5.908
 5585SOL    HW117435   4.291   0.214   5.839
 5585SOL    HW217436   4.228   0.349   5.868
 5586SOL     OW17437   4.782   1.353   6.919
 5586SOL    HW117438   4.707   1.323   6.970
 5586SOL    HW217439   4.857   1.311   6.960
 5587SOL     OW17440   0.006   1.604   7.203
 5587SOL    HW117441   0.040   1.611   7.114
 5587SOL    HW217442   0.084   1.585   7.256
 5588SOL     OW17443   4.852   1.202   6.693
 5588SOL    HW117444   4.791   1.238   6.758
 5588SOL    HW217445   4.817   1.231   6.609
 5589SOL     OW17446   4.625   0.104   6.975
 5589SOL    HW117447   4.658   0.070   6.891
 5589SOL    HW217448   4.701   0.147   7.015
 5590SOL     OW17449   4.709   1.112   7.313
 5590SOL    HW117450   4.616   1.131   7.330
 5590SOL    HW217451   4.707   1.036   7.255
 5591SOL     OW17452   4.432   1.061   5.957
 5591SOL    HW117453   4.418   1.045   6.051
 5591SOL    HW217454   4.508   1.007   5.935
 5592SOL     OW17455   4.142   0.815   6.837
 5592SOL    HW117456   4.211   0.824   6.903
 5592SOL    HW217457   4.107   0.727   6.851
 5593SOL     OW17458   4.992   0.380   6.855
 5593SOL    HW117459   5.025   0.458   6.900
 5593SOL    HW217460   4.901   0.401   6.833
 5594SOL     OW17461   3.794   1.573   6.938
 5594SOL    HW117462   3.763   1.646   6.884
 5594SOL    HW217463   3.889   1.578   6.933
 5595SOL     OW17464   4.075   1.108   6.077
 5595SOL    HW117465   4.079   1.181   6.016
 5595SOL    HW217466   4.073   1.030   6.021
 5596SOL     OW17467   4.278   0.538   6.447
 5596SOL    HW117468   4.294   0.596   6.372
 5596SOL    HW217469   4.343   0.565   6.512
 5597SOL     OW17470   4.972   1.349   5.974
 5597SOL    HW117471   5.026   1.421   6.004
 5597SOL    HW217472   4.885   1.368   6.007
 5598SOL     OW17473   4.993   1.456   6.725
 5598SOL    HW117474   5.048   1.458   6.803
 5598SOL    HW217475   4.939   1.377   6.736
 5599SOL     OW17476   4.071   1.526   6.902
 5599SOL    HW117477   4.058   1.484   6.817
 5599SOL    HW217478   4.166   1.538   6.909
 5600SOL     OW17479   4.138   0.745   7.188
 5600SOL    HW117480   4.199   0.790   7.130
 5600SOL    HW217481   4.179   0.660   7.204
 5601SOL     OW17482   4.750   0.114   7.343
 5601SOL    HW117483   4.793   0.196   7.317
 5601SOL    HW217484   4.791   0.047   7.288
 5602SOL     OW17485   4.204   0.057   7.323
 5602SOL    HW117486   4.147   5.293   7.282
 5602SOL    HW217487   4.145   0.129   7.347
 5603SOL     OW17488   4.308   0.872   6.617
 5603SOL    HW117489   4.337   0.964   6.615
 5603SOL    HW217490   4.250   0.867   6.694
 5604SOL     OW17491   5.086   0.858   6.623
 5604SOL    HW117492   5.008   0.842   6.569
 5604SOL    HW217493   5.135   0.776   6.619
 5605SOL     OW17494   4.931   0.531   5.853
 5605SOL    HW117495   4.934   0.451   5.904
 5605SOL    HW217496   4.886   0.594   5.910
 5606SOL     OW17497   4.021   0.204   6.833
 5606SOL    HW117498   3.983   0.243   6.911
 5606SOL    HW217499   4.019   0.110   6.849
 5607SOL     OW17500   3.770   1.311   6.863
 5607SOL    HW117501   3.803   1.257   6.934
 5607SOL    HW217502   3.777   1.400   6.895
 5608SOL     OW17503   4.450   0.632   6.646
 5608SOL    HW117504   4.523   0.614   6.587
 5608SOL    HW217505   4.421   0.721   6.623
 5609SOL     OW17506   4.025   0.073   6.234
 5609SOL    HW117507   4.010   0.167   6.244
 5609SOL    HW217508   4.065   0.046   6.317
 5610SOL     OW17509   0.028   0.405   5.951
 5610SOL    HW117510   0.060   0.344   6.017
 5610SOL    HW217511   0.003   0.483   6.001
 5611SOL     OW17512   4.751   0.759   6.547
 5611SOL    HW117513   4.750   0.777   6.641
 5611SOL    HW217514   4.725   0.668   6.539
 5612SOL     OW17515   4.699   1.562   7.299
 5612SOL    HW117516   4.688   1.609   7.217
 5612SOL    HW217517   4.747   1.482   7.274
 5613SOL     OW17518   4.077   0.914   7.396
 5613SOL    HW117519   4.161   0.935   7.438
 5613SOL    HW217520   4.101   0.853   7.326
 5614SOL     OW17521   5.028   0.830   5.623
 5614SOL    HW117522   5.063   0.741   5.623
 5614SOL    HW217523   5.054   0.865   5.538
 5615SOL     OW17524   4.789   1.334   6.441
 5615SOL    HW117525   4.792   1.262   6.378
 5615SOL    HW217526   4.848   1.400   6.404
 5616SOL     OW17527   4.033   0.809   6.534
 5616SOL    HW117528   4.126   0.831   6.527
 5616SOL    HW217529   4.032   0.719   6.566
 5617SOL     OW17530   4.057   0.525   6.598
 5617SOL    HW117531   4.020   0.438   6.582
 5617SOL    HW217532   4.133   0.530   6.541
 5618SOL     OW17533   4.862   0.377   7.274
 5618SOL    HW117534   4.813   0.432   7.335
 5618SOL    HW217535   4.946   0.422   7.265
 5619SOL     OW17536   4.849   0.232   7.044
 5619SOL    HW117537   4.860   0.282   7.125
 5619SOL    HW217538   4.913   0.270   6.984
 5620SOL     OW17539   3.729   1.322   5.781
 5620SOL    HW117540   3.642   1.336   5.743
 5620SOL    HW217541   3.726   1.232   5.814
 5621SOL     OW17542   3.814   1.788   6.523
 5621SOL    HW117543   3.784   1.708   6.480
 5621SOL    HW217544   3.904   1.800   6.492
 5622SOL     OW17545   4.221   1.573   6.492
 5622SOL    HW117546   4.290   1.636   6.516
 5622SOL    HW217547   4.266   1.509   6.436
 5623SOL     OW17548   4.709   0.794   6.814
 5623SOL    HW117549   4.763   0.769   6.888
 5623SOL    HW217550   4.623   0.755   6.832
 5624SOL     OW17551   3.759   0.543   6.703
 5624SOL    HW117552   3.839   0.528   6.653
 5624SOL    HW217553   3.789   0.548   6.794
 5625SOL     OW17554   3.913   0.520   7.312
 5625SOL    HW117555   3.974   0.486   7.248
 5625SOL    HW217556   3.870   0.593   7.268
 5626SOL     OW17557   5.110   0.938   7.253
 5626SOL    HW117558   5.119   1.033   7.242
 5626SOL    HW217559   5.113   0.904   7.163
 5627SOL     OW17560   4.539   0.573   5.944
 5627SOL    HW117561   4.540   0.497   5.886
 5627SOL    HW217562   4.464   0.624   5.915
 5628SOL     OW17563   3.968   1.552   7.315
 5628SOL    HW117564   3.945   1.616   7.382
 5628SOL    HW217565   3.969   1.468   7.361
 5629SOL     OW17566   4.419   0.453   6.848
 5629SOL    HW117567   4.370   0.379   6.814
 5629SOL    HW217568   4.421   0.516   6.776
 5630SOL     OW17569   4.647   1.680   7.054
 5630SOL    HW117570   4.624   1.649   6.966
 5630SOL    HW217571   4.648   1.775   7.046
 5631SOL     OW17572   4.188   0.493   5.771
 5631SOL    HW117573   4.247   0.565   5.793
 5631SOL    HW217574   4.103   0.535   5.761
 5632SOL     OW17575   3.871   1.140   7.058
 5632SOL    HW117576   3.873   1.088   7.138
 5632SOL    HW217577   3.888   1.077   6.988
 5633SOL     OW17578   5.055   1.050   6.811
 5633SOL    HW117579   5.076   0.985   6.743
 5633SOL    HW217580   4.982   1.100   6.774
 5634SOL     OW17581   5.035   0.858   5.902
 5634SOL    HW117582   4.952   0.827   5.939
 5634SOL    HW217583   5.022   0.851   5.808
 5635SOL     OW17584   4.960   1.731   6.708
 5635SOL    HW117585   5.046   1.751   6.670
 5635SOL    HW217586   4.960   1.636   6.718
 5636SOL     OW17587   3.808   1.267   6.599
 5636SOL    HW117588   3.794   1.279   6.692
 5636SOL    HW217589   3.734   1.212   6.570
 5637SOL     OW17590   4.400   1.663   7.311
 5637SOL    HW117591   4.351   1.745   7.309
 5637SOL    HW217592   4.469   1.675   7.245
 5638SOL     OW17593   5.111   1.570   6.065
 5638SOL    HW117594   5.180   1.610   6.013
 5638SOL    HW217595   5.062   1.644   6.101
 5639SOL     OW17596   3.859   1.796   7.430
 5639SOL    HW117597   3.809   1.732   7.479
 5639SOL    HW217598   3.908   1.845   7.497
 5640SOL     OW17599   5.015   0.919   6.259
 5640SOL    HW117600   5.092   0.864   6.245
 5640SOL    HW217601   5.034   0.999   6.210
 5641SOL     OW17602   4.540   1.273   7.017
 5641SOL    HW117603   4.512   1.312   7.100
 5641SOL    HW217604   4.470   1.295   6.955
 5642SOL     OW17605   4.395   1.619   5.741
 5642SOL    HW117606   4.406   1.631   5.647
 5642SOL    HW217607   4.341   1.541   5.750
 5643SOL     OW17608   3.987   0.329   6.306
 5643SOL    HW117609   3.899   0.360   6.283
 5643SOL    HW217610   3.984   0.317   6.401
 5644SOL     OW17611   4.909   1.609   5.627
 5644SOL    HW117612   4.920   1.515   5.638
 5644SOL    HW217613   4.855   1.618   5.549
 5645SOL     OW17614   4.548   1.006   6.958
 5645SOL    HW117615   4.591   1.002   6.873
 5645SOL    HW217616   4.548   1.099   6.981
 5646SOL     OW17617   4.640   0.911   5.876
 5646SOL    HW117618   4.702   0.943   5.810
 5646SOL    HW217619   4.686   0.840   5.920
 5647SOL     OW17620   4.093   1.302   7.078
 5647SOL    HW117621   4.080   1.379   7.023
 5647SOL    HW217622   4.016   1.248   7.061
 5648SOL     OW17623   4.775   1.106   6.292
 5648SOL    HW117624   4.704   1.056   6.333
 5648SOL    HW217625   4.832   1.040   6.254
 5649SOL     OW17626   4.739   0.242   6.556
 5649SOL    HW117627   4.721   0.197   6.474
 5649SOL    HW217628   4.733   0.174   6.623
 5650SOL     OW17629   4.326   1.488   6.068
 5650SOL    HW117630   4.369   1.438   5.999
 5650SOL    HW217631   4.258   1.538   6.023
 5651SOL     OW17632   3.983   1.346   5.874
 5651SOL    HW117633   3.890   1.344   5.851
 5651SOL    HW217634   3.985   1.382   5.962
 5652SOL     OW17635   3.837   1.020   7.305
 5652SOL    HW117636   3.760   0.998   7.358
 5652SOL    HW217637   3.910   0.983   7.354
 5653SOL     OW17638   4.396   0.211   7.075
 5653SOL    HW117639   4.479   0.191   7.032
 5653SOL    HW217640   4.421   0.259   7.154
 5654SOL     OW17641   3.801   0.340   5.627
 5654SOL    HW117642   3.717   0.307   5.594
 5654SOL    HW217643   3.822   0.413   5.569
 5655SOL     OW17644   5.163   0.859   6.989
 5655SOL    HW117645   5.109   0.915   6.933
 5655SOL    HW217646   5.252   0.871   6.957
 5656SOL     OW17647   3.796   0.167   5.902
 5656SOL    HW117648   3.796   0.249   5.854
 5656SOL    HW217649   3.881   0.127   5.882
 5657SOL     OW17650   4.907   1.330   5.700
 5657SOL    HW117651   4.813   1.312   5.701
 5657SOL    HW217652   4.931   1.337   5.793
 5658SOL     OW17653   4.343   0.831   7.019
 5658SOL    HW117654   4.398   0.907   7.004
 5658SOL    HW217655   4.404   0.758   7.027
 5659SOL     OW17656   4.439   0.571   7.290
 5659SOL    HW117657   4.479   0.633   7.352
 5659SOL    HW217658   4.471   0.485   7.318
 5660SOL     OW17659   5.182   1.204   7.217
 5660SOL    HW117660   5.172   1.216   7.312
 5660SOL    HW217661   5.276   1.212   7.202
 5661SOL     OW17662   4.104   1.740   7.150
 5661SOL    HW117663   4.019   1.780   7.137
 5661SOL    HW217664   4.085   1.656   7.192
 5662SOL     OW17665   4.942   0.323   6.047
 5662SOL    HW117666   4.999   0.246   6.040
 5662SOL    HW217667   4.973   0.368   6.126
 5663SOL     OW17668   4.315   0.739   6.255
 5663SOL    HW117669   4.353   0.825   6.238
 5663SOL    HW217670   4.246   0.730   6.189
 5664SOL     OW17671   4.591   1.367   5.620
 5664SOL    HW117672   4.549   1.396   5.700
 5664SOL    HW217673   4.607   1.447   5.570
 5665SOL     OW17674   4.383   1.792   6.531
 5665SOL    HW117675   4.363   1.883   6.508
 5665SOL    HW217676   4.479   1.786   6.525
 5666SOL     OW17677   4.591   0.967   6.442
 5666SOL    HW117678   4.641   0.895   6.482
 5666SOL    HW217679   4.557   1.016   6.516
 5667SOL     OW17680   4.807   0.988   5.676
 5667SOL    HW117681   4.781   1.037   5.598
 5667SOL    HW217682   4.881   0.934   5.648
 5668SOL     OW17683   3.949   1.304   7.443
 5668SOL    HW117684   3.881   1.244   7.413
 5668SOL    HW217685   3.930   1.317   7.536
 5669SOL     OW17686   3.808   1.234   6.250
 5669SOL    HW117687   3.812   1.185   6.332
 5669SOL    HW217688   3.876   1.196   6.196
 5670SOL     OW17689   4.404   1.401   7.213
 5670SOL    HW117690   4.324   1.359   7.244
 5670SOL    HW217691   4.400   1.489   7.249
 5671SOL     OW17692   4.154   0.435   6.110
 5671SOL    HW117693   4.185   0.362   6.056
 5671SOL    HW217694   4.108   0.393   6.182
 5672SOL     OW17695   0.096   1.521   6.685
 5672SOL    HW117696   0.028   1.495   6.623
 5672SOL    HW217697   0.106   1.445   6.743
 5673SOL     OW17698   4.052   0.555   6.876
 5673SOL    HW117699   4.108   0.500   6.931
 5673SOL    HW217700   4.072   0.528   6.787
 5674SOL     OW17701   4.551   1.577   6.264
 5674SOL    HW117702   4.541   1.628   6.184
 5674SOL    HW217703   4.473   1.522   6.267
 5675SOL     OW17704   5.152   0.216   6.706
 5675SOL    HW117705   5.160   0.133   6.753
 5675SOL    HW217706   5.105   0.274   6.767
 5676SOL     OW17707   4.725   0.021   6.727
 5676SOL    HW117708   4.674   5.251   6.686
 5676SOL    HW217709   4.812   5.284   6.738
 5677SOL     OW17710   4.494   1.332   5.900
 5677SOL    HW117711   4.463   1.242   5.906
 5677SOL    HW217712   4.577   1.332   5.948
 5678SOL     OW17713   4.344   1.557   6.871
 5678SOL    HW117714   4.346   1.639   6.920
 5678SOL    HW217715   4.431   1.549   6.833
 5679SOL     OW17716   5.036   0.036   5.747
 5679SOL    HW117717   5.117   0.028   5.696
 5679SOL    HW217718   4.984   5.260   5.721
 5680SOL     OW17719   5.029   0.461   6.272
 5680SOL    HW117720   4.972   0.538   6.276
 5680SOL    HW217721   5.017   0.418   6.357
 5681SOL     OW17722   5.296   0.214   6.467
 5681SOL    HW117723   5.236   0.217   6.542
 5681SOL    HW217724   5.279   0.296   6.421
 5682SOL     OW17725   3.768   1.072   5.892
 5682SOL    HW117726   3.861   1.063   5.874
 5682SOL    HW217727   3.739   0.983   5.914
 5683SOL     OW17728   4.604   1.649   5.932
 5683SOL    HW117729   4.534   1.633   5.869
 5683SOL    HW217730   4.576   1.726   5.981
 5684SOL     OW17731   3.952   0.620   7.571
 5684SOL    HW117732   3.862   0.628   7.602
 5684SOL    HW217733   3.944   0.597   7.479
 5685SOL     OW17734   3.945   1.718   7.919
 5685SOL    HW117735   3.974   1.761   7.999
 5685SOL    HW217736   4.022   1.715   7.863
 5686SOL     OW17737   3.942   1.438   7.990
 5686SOL    HW117738   3.927   1.532   7.991
 5686SOL    HW217739   3.882   1.403   8.056
 5687SOL     OW17740   4.312   0.981   7.578
 5687SOL    HW117741   4.355   1.033   7.510
 5687SOL    HW217742   4.350   1.013   7.660
 5688SOL     OW17743   3.753   1.599   7.577
 5688SOL    HW117744   3.738   1.506   7.592
 5688SOL    HW217745   3.726   1.642   7.659
 5689SOL     OW17746   0.118   0.924   8.015
 5689SOL    HW117747   0.211   0.916   8.037
 5689SOL    HW217748   0.106   1.017   7.998
 5690SOL     OW17749   4.534   5.291   7.947
 5690SOL    HW117750   4.575   0.076   7.931
 5690SOL    HW217751   4.440   0.009   7.942
 5691SOL     OW17752   4.315   0.725   7.709
 5691SOL    HW117753   4.319   0.807   7.658
 5691SOL    HW217754   4.254   0.744   7.780
 5692SOL     OW17755   3.786   0.862   0.091
 5692SOL    HW117756   3.850   0.798   0.121
 5692SOL    HW217757   3.778   0.923   0.165
 5693SOL     OW17758   4.588   0.355   7.634
 5693SOL    HW117759   4.632   0.416   7.574
 5693SOL    HW217760   4.646   0.279   7.637
 5694SOL     OW17761   4.048   0.956   7.697
 5694SOL    HW117762   4.127   0.974   7.647
 5694SOL    HW217763   4.011   0.877   7.657
 5695SOL     OW17764   4.837   1.776   7.684
 5695SOL    HW117765   4.764   1.733   7.727
 5695SOL    HW217766   4.861   1.717   7.613
 5696SOL     OW17767   4.191   1.738   7.769
 5696SOL    HW117768   4.239   1.791   7.833
 5696SOL    HW217769   4.259   1.703   7.711
 5697SOL     OW17770   5.115   0.113   7.873
 5697SOL    HW117771   5.087   0.090   7.784
 5697SOL    HW217772   5.210   0.100   7.872
 5698SOL     OW17773   4.114   0.696   7.918
 5698SOL    HW117774   4.122   0.601   7.926
 5698SOL    HW217775   4.023   0.714   7.942
 5699SOL     OW17776   4.341   0.131   7.560
 5699SOL    HW117777   4.421   0.080   7.574
 5699SOL    HW217778   4.297   0.088   7.487
 5700SOL     OW17779   4.270   0.064   7.953
 5700SOL    HW117780   4.178   0.048   7.974
 5700SOL    HW217781   4.268   0.136   7.890
 5701SOL     OW17782   5.138   1.178   7.488
 5701SOL    HW117783   5.155   1.109   7.552
 5701SOL    HW217784   5.051   1.211   7.511
 5702SOL     OW17785   4.029   0.071   7.658
 5702SOL    HW117786   4.081   0.128   7.601
 5702SOL    HW217787   4.077   5.288   7.661
 5703SOL     OW17788   4.673   0.230   7.911
 5703SOL    HW117789   4.620   0.293   7.863
 5703SOL    HW217790   4.759   0.272   7.918
 5704SOL     OW17791   4.166   1.150   0.100
 5704SOL    HW117792   4.090   1.183   0.147
 5704SOL    HW217793   4.134   1.136   0.011
 5705SOL     OW17794   5.007   1.805   8.013
 5705SOL    HW117795   5.046   1.871   7.956
 5705SOL    HW217796   4.938   1.851   8.060
 5706SOL     OW17797   4.757   0.553   7.462
 5706SOL    HW117798   4.706   0.633   7.448
 5706SOL    HW217799   4.804   0.569   7.544
 5707SOL     OW17800   4.213   1.415   7.606
 5707SOL    HW117801   4.139   1.386   7.659
 5707SOL    HW217802   4.195   1.381   7.518
 5708SOL     OW17803   5.127   0.560   7.529
 5708SOL    HW117804   5.051   0.552   7.587
 5708SOL    HW217805   5.200   0.524   7.579
 5709SOL     OW17806   4.249   0.270   7.773
 5709SOL    HW117807   4.289   0.216   7.705
 5709SOL    HW217808   4.229   0.353   7.730
 5710SOL     OW17809   4.436   1.062   7.812
 5710SOL    HW117810   4.410   1.049   7.903
 5710SOL    HW217811   4.515   1.009   7.801
 5711SOL     OW17812   4.090   1.101   7.928
 5711SOL    HW117813   4.071   1.180   7.878
 5711SOL    HW217814   4.076   1.029   7.866
 5712SOL     OW17815   4.959   1.357   7.820
 5712SOL    HW117816   5.017   1.427   7.850
 5712SOL    HW217817   4.901   1.340   7.894
 5713SOL     OW17818   0.026   0.639   7.936
 5713SOL    HW117819   5.276   0.682   8.006
 5713SOL    HW217820   0.048   0.710   7.875
 5714SOL     OW17821   4.929   0.530   7.716
 5714SOL    HW117822   4.933   0.444   7.758
 5714SOL    HW217823   4.896   0.589   7.783
 5715SOL     OW17824   0.031   0.403   7.805
 5715SOL    HW117825   0.031   0.337   7.874
 5715SOL    HW217826   0.021   0.486   7.852
 5716SOL     OW17827   5.034   0.832   7.490
 5716SOL    HW117828   5.062   0.741   7.486
 5716SOL    HW217829   5.056   0.868   7.404
 5717SOL     OW17830   3.730   1.324   7.640
 5717SOL    HW117831   3.642   1.337   7.603
 5717SOL    HW217832   3.729   1.235   7.674
 5718SOL     OW17833   4.561   0.599   7.763
 5718SOL    HW117834   4.550   0.509   7.735
 5718SOL    HW217835   4.472   0.635   7.764
 5719SOL     OW17836   4.186   0.495   7.638
 5719SOL    HW117837   4.245   0.568   7.655
 5719SOL    HW217838   4.101   0.536   7.623
 5720SOL     OW17839   5.033   0.846   7.772
 5720SOL    HW117840   4.940   0.857   7.792
 5720SOL    HW217841   5.037   0.847   7.677
 5721SOL     OW17842   5.102   1.573   7.908
 5721SOL    HW117843   5.197   1.586   7.901
 5721SOL    HW217844   5.069   1.653   7.947
 5722SOL     OW17845   4.390   1.619   7.604
 5722SOL    HW117846   4.403   1.630   7.509
 5722SOL    HW217847   4.339   1.539   7.612
 5723SOL     OW17848   4.912   1.611   7.486
 5723SOL    HW117849   4.920   1.517   7.501
 5723SOL    HW217850   4.853   1.618   7.411
 5724SOL     OW17851   4.655   0.910   7.758
 5724SOL    HW117852   4.705   0.935   7.680
 5724SOL    HW217853   4.645   0.815   7.751
 5725SOL     OW17854   4.328   1.506   7.936
 5725SOL    HW117855   4.372   1.444   7.878
 5725SOL    HW217856   4.256   1.542   7.884
 5726SOL     OW17857   3.982   1.347   7.740
 5726SOL    HW117858   3.889   1.345   7.715
 5726SOL    HW217859   3.982   1.383   7.829
 5727SOL     OW17860   3.799   0.339   7.490
 5727SOL    HW117861   3.716   0.308   7.453
 5727SOL    HW217862   3.823   0.414   7.435
 5728SOL     OW17863   3.788   0.182   7.747
 5728SOL    HW117864   3.785   0.257   7.688
 5728SOL    HW217865   3.868   0.135   7.722
 5729SOL     OW17866   4.906   1.330   7.556
 5729SOL    HW117867   4.811   1.316   7.556
 5729SOL    HW217868   4.929   1.342   7.648
 5730SOL     OW17869   5.265   1.743   0.321
 5730SOL    HW117870   5.268   1.829   0.280
 5730SOL    HW217871   0.036   1.744   0.385
 5731SOL     OW17872   4.945   0.325   7.909
 5731SOL    HW117873   5.007   0.252   7.906
 5731SOL    HW217874   4.956   0.363   7.996
 5732SOL     OW17875   4.348   0.736   8.056
 5732SOL    HW117876   4.354   0.819   0.024
 5732SOL    HW217877   4.261   0.736   8.018
 5733SOL     OW17878   4.591   1.366   7.481
 5733SOL    HW117879   4.550   1.394   7.564
 5733SOL    HW217880   4.607   1.448   7.434
 5734SOL     OW17881   4.802   0.979   7.539
 5734SOL    HW117882   4.778   1.033   7.464
 5734SOL    HW217883   4.880   0.932   7.511
 5735SOL     OW17884   4.113   0.420   7.983
 5735SOL    HW117885   4.165   0.369   7.922
 5735SOL    HW217886   4.161   0.416   8.066
 5736SOL     OW17887   4.490   1.334   7.757
 5736SOL    HW117888   4.459   1.244   7.761
 5736SOL    HW217889   4.568   1.335   7.813
 5737SOL     OW17890   5.037   0.040   7.613
 5737SOL    HW117891   5.115   0.029   7.557
 5737SOL    HW217892   4.986   5.261   7.597
 5738SOL     OW17893   3.774   1.079   7.750
 5738SOL    HW117894   3.868   1.068   7.736
 5738SOL    HW217895   3.742   0.990   7.766
 5739SOL     OW17896   4.613   1.647   7.783
 5739SOL    HW117897   4.537   1.626   7.729
 5739SOL    HW217898   4.582   1.712   7.846
 5740SOL     OW17899   3.946   2.486   0.122
 5740SOL    HW117900   3.865   2.452   0.159
 5740SOL    HW217901   3.967   2.425   0.051
 5741SOL     OW17902   3.949   2.142   0.991
 5741SOL    HW117903   3.977   2.109   1.076
 5741SOL    HW217904   3.859   2.110   0.982
 5742SOL     OW17905   3.729   2.245   0.638
 5742SOL    HW117906   3.646   2.270   0.679
 5742SOL    HW217907   3.709   2.164   0.590
 5743SOL     OW17908   4.291   3.148   1.174
 5743SOL    HW117909   4.203   3.152   1.136
 5743SOL    HW217910   4.306   3.236   1.207
 5744SOL     OW17911   5.283   3.406   0.707
 5744SOL    HW117912   5.246   3.355   0.778
 5744SOL    HW217913   5.223   3.390   0.633
 5745SOL     OW17914   4.858   2.561   0.701
 5745SOL    HW117915   4.908   2.642   0.690
 5745SOL    HW217916   4.809   2.574   0.783
 5746SOL     OW17917   4.480   3.005   1.039
 5746SOL    HW117918   4.411   3.039   1.096
 5746SOL    HW217919   4.515   3.082   0.995
 5747SOL     OW17920   4.590   2.638   1.822
 5747SOL    HW117921   4.574   2.710   1.883
 5747SOL    HW217922   4.612   2.682   1.740
 5748SOL     OW17923   4.409   2.865   0.650
 5748SOL    HW117924   4.474   2.853   0.719
 5748SOL    HW217925   4.340   2.917   0.691
 5749SOL     OW17926   4.433   3.013   1.811
 5749SOL    HW117927   4.481   3.092   1.838
 5749SOL    HW217928   4.351   3.046   1.776
 5750SOL     OW17929   4.055   3.289   1.068
 5750SOL    HW117930   3.982   3.252   1.017
 5750SOL    HW217931   4.106   3.339   1.004
 5751SOL     OW17932   5.160   3.344   1.349
 5751SOL    HW117933   5.204   3.425   1.375
 5751SOL    HW217934   5.110   3.318   1.427
 5752SOL     OW17935   4.172   2.260   1.489
 5752SOL    HW117936   4.247   2.201   1.494
 5752SOL    HW217937   4.096   2.204   1.501
 5753SOL     OW17938   3.944   3.576   0.472
 5753SOL    HW117939   3.966   3.652   0.526
 5753SOL    HW217940   4.018   3.567   0.412
 5754SOL     OW17941   4.860   3.201   1.693
 5754SOL    HW117942   4.899   3.198   1.781
 5754SOL    HW217943   4.806   3.122   1.688
 5755SOL     OW17944   3.950   3.302   0.530
 5755SOL    HW117945   3.937   3.397   0.535
 5755SOL    HW217946   3.891   3.267   0.597
 5756SOL     OW17947   3.979   2.952   0.890
 5756SOL    HW117948   3.977   2.866   0.932
 5756SOL    HW217949   3.922   3.006   0.944
 5757SOL     OW17950   4.335   3.654   1.427
 5757SOL    HW117951   4.254   3.636   1.475
 5757SOL    HW217952   4.359   3.743   1.454
 5758SOL     OW17953   4.355   2.823   0.131
 5758SOL    HW117954   4.304   2.900   0.106
 5758SOL    HW217955   4.404   2.852   0.209
 5759SOL     OW17956   3.838   2.512   0.561
 5759SOL    HW117957   3.809   2.423   0.583
 5759SOL    HW217958   3.830   2.560   0.644
 5760SOL     OW17959   3.751   3.458   0.111
 5760SOL    HW117960   3.739   3.370   0.146
 5760SOL    HW217961   3.736   3.516   0.186
 5761SOL     OW17962   0.114   2.807   0.593
 5761SOL    HW117963   0.202   2.770   0.593
 5761SOL    HW217964   0.116   2.874   0.524
 5762SOL     OW17965   3.846   2.604   1.586
 5762SOL    HW117966   3.939   2.628   1.596
 5762SOL    HW217967   3.799   2.687   1.594
 5763SOL     OW17968   4.337   3.247   0.735
 5763SOL    HW117969   4.291   3.163   0.744
 5763SOL    HW217970   4.321   3.273   0.644
 5764SOL     OW17971   5.008   3.099   1.425
 5764SOL    HW117972   5.041   3.033   1.365
 5764SOL    HW217973   5.063   3.091   1.503
 5765SOL     OW17974   4.539   1.863   0.510
 5765SOL    HW117975   4.578   1.948   0.489
 5765SOL    HW217976   4.445   1.882   0.518
 5766SOL     OW17977   3.915   2.829   1.270
 5766SOL    HW117978   3.999   2.787   1.255
 5766SOL    HW217979   3.851   2.773   1.226
 5767SOL     OW17980   4.897   3.669   1.623
 5767SOL    HW117981   4.920   3.727   1.550
 5767SOL    HW217982   4.918   3.581   1.590
 5768SOL     OW17983   4.056   2.112   1.809
 5768SOL    HW117984   4.101   2.195   1.825
 5768SOL    HW217985   3.967   2.127   1.842
 5769SOL     OW17986   5.169   3.296   0.938
 5769SOL    HW117987   5.107   3.302   1.010
 5769SOL    HW217988   5.163   3.205   0.908
 5770SOL     OW17989   4.322   2.577   0.282
 5770SOL    HW117990   4.340   2.653   0.226
 5770SOL    HW217991   4.257   2.608   0.345
 5771SOL     OW17992   4.997   2.198   0.920
 5771SOL    HW117993   4.908   2.168   0.941
 5771SOL    HW217994   5.051   2.164   0.991
 5772SOL     OW17995   4.515   2.479   1.452
 5772SOL    HW117996   4.489   2.456   1.541
 5772SOL    HW217997   4.474   2.413   1.396
 5773SOL     OW17998   5.115   2.341   1.680
 5773SOL    HW117999   5.116   2.379   1.768
 5773SOL    HW218000   5.190   2.281   1.680
 5774SOL     OW18001   4.679   2.750   1.582
 5774SOL    HW118002   4.732   2.678   1.547
 5774SOL    HW218003   4.632   2.784   1.506
 5775SOL     OW18004   4.715   2.276   1.239
 5775SOL    HW118005   4.630   2.297   1.277
 5775SOL    HW218006   4.694   2.228   1.158
 5776SOL     OW18007   4.776   2.559   0.426
 5776SOL    HW118008   4.791   2.555   0.521
 5776SOL    HW218009   4.693   2.513   0.412
 5777SOL     OW18010   3.813   2.683   0.776
 5777SOL    HW118011   3.894   2.676   0.826
 5777SOL    HW218012   3.770   2.761   0.811
 5778SOL     OW18013   3.851   3.705   1.577
 5778SOL    HW118014   3.851   3.686   1.670
 5778SOL    HW218015   3.759   3.704   1.551
 5779SOL     OW18016   4.608   2.219   0.200
 5779SOL    HW118017   4.653   2.267   0.130
 5779SOL    HW218018   4.609   2.127   0.171
 5780SOL     OW18019   5.094   3.008   0.548
 5780SOL    HW118020   5.177   3.001   0.501
 5780SOL    HW218021   5.041   3.068   0.494
 5781SOL     OW18022   4.273   2.045   0.893
 5781SOL    HW118023   4.276   2.072   0.984
 5781SOL    HW218024   4.276   2.126   0.843
 5782SOL     OW18025   4.731   3.307   0.474
 5782SOL    HW118026   4.691   3.378   0.424
 5782SOL    HW218027   4.713   3.329   0.565
 5783SOL     OW18028   4.078   3.670   0.860
 5783SOL    HW118029   4.122   3.585   0.869
 5783SOL    HW218030   4.147   3.735   0.878
 5784SOL     OW18031   4.940   3.406   1.520
 5784SOL    HW118032   4.928   3.331   1.579
 5784SOL    HW218033   4.887   3.385   1.443
 5785SOL     OW18034   4.051   2.803   0.253
 5785SOL    HW118035   4.121   2.846   0.203
 5785SOL    HW218036   4.051   2.713   0.222
 5786SOL     OW18037   4.189   3.126   1.738
 5786SOL    HW118038   4.162   3.130   1.646
 5786SOL    HW218039   4.107   3.125   1.787
 5787SOL     OW18040   4.826   3.636   0.225
 5787SOL    HW118041   4.771   3.596   0.293
 5787SOL    HW218042   4.842   3.566   0.162
 5788SOL     OW18043   3.924   2.144   1.500
 5788SOL    HW118044   3.842   2.193   1.495
 5788SOL    HW218045   3.908   2.077   1.567
 5789SOL     OW18046   4.189   3.600   0.323
 5789SOL    HW118047   4.230   3.659   0.386
 5789SOL    HW218048   4.260   3.574   0.264
 5790SOL     OW18049   5.118   1.987   0.437
 5790SOL    HW118050   5.101   1.968   0.345
 5790SOL    HW218051   5.213   1.994   0.443
 5791SOL     OW18052   3.978   3.653   1.232
 5791SOL    HW118053   4.031   3.589   1.280
 5791SOL    HW218054   3.970   3.618   1.144
 5792SOL     OW18055   4.662   3.560   0.900
 5792SOL    HW118056   4.742   3.510   0.917
 5792SOL    HW218057   4.617   3.511   0.831
 5793SOL     OW18058   4.110   2.559   0.477
 5793SOL    HW118059   4.135   2.468   0.487
 5793SOL    HW218060   4.017   2.561   0.500
 5794SOL     OW18061   4.353   1.974   0.135
 5794SOL    HW118062   4.448   1.961   0.141
 5794SOL    HW218063   4.333   1.954   0.043
 5795SOL     OW18064   4.491   2.140   1.754
 5795SOL    HW118065   4.566   2.081   1.756
 5795SOL    HW218066   4.441   2.120   1.833
 5796SOL     OW18067   4.600   3.383   1.194
 5796SOL    HW118068   4.585   3.348   1.106
 5796SOL    HW218069   4.670   3.329   1.230
 5797SOL     OW18070   5.058   2.453   1.432
 5797SOL    HW118071   5.091   2.420   1.516
 5797SOL    HW218072   5.100   2.538   1.421
 5798SOL     OW18073   4.538   3.257   0.938
 5798SOL    HW118074   4.622   3.247   0.894
 5798SOL    HW218075   4.474   3.258   0.867
 5799SOL     OW18076   4.651   2.371   0.903
 5799SOL    HW118077   4.628   2.362   0.810
 5799SOL    HW218078   4.683   2.284   0.928
 5800SOL     OW18079   4.273   1.925   0.506
 5800SOL    HW118080   4.192   1.925   0.557
 5800SOL    HW218081   4.267   2.003   0.452
 5801SOL     OW18082   5.141   3.035   0.042
 5801SOL    HW118083   5.143   2.964   0.106
 5801SOL    HW218084   5.056   3.077   0.056
 5802SOL     OW18085   4.034   1.916   0.168
 5802SOL    HW118086   4.098   1.985   0.183
 5802SOL    HW218087   4.071   1.839   0.211
 5803SOL     OW18088   4.661   2.108   0.460
 5803SOL    HW118089   4.633   2.149   0.378
 5803SOL    HW218090   4.755   2.124   0.464
 5804SOL     OW18091   4.801   2.543   1.461
 5804SOL    HW118092   4.733   2.475   1.463
 5804SOL    HW218093   4.883   2.494   1.451
 5805SOL     OW18094   4.941   3.434   0.796
 5805SOL    HW118095   4.964   3.499   0.729
 5805SOL    HW218096   5.021   3.421   0.846
 5806SOL     OW18097   4.191   3.011   0.735
 5806SOL    HW118098   4.122   2.992   0.798
 5806SOL    HW218099   4.151   2.995   0.649
 5807SOL     OW18100   4.993   3.656   0.604
 5807SOL    HW118101   5.038   3.720   0.547
 5807SOL    HW218102   4.929   3.709   0.652
 5808SOL     OW18103   4.759   2.394   0.027
 5808SOL    HW118104   4.711   2.473   0.001
 5808SOL    HW218105   4.817   2.424   0.097
 5809SOL     OW18106   3.802   2.417   1.392
 5809SOL    HW118107   3.894   2.415   1.365
 5809SOL    HW218108   3.798   2.487   1.457
 5810SOL     OW18109   4.284   2.089   1.165
 5810SOL    HW118110   4.325   2.012   1.204
 5810SOL    HW218111   4.193   2.086   1.195
 5811SOL     OW18112   4.592   2.321   0.639
 5811SOL    HW118113   4.549   2.376   0.574
 5811SOL    HW218114   4.613   2.240   0.591
 5812SOL     OW18115   4.739   1.914   0.752
 5812SOL    HW118116   4.680   1.907   0.677
 5812SOL    HW218117   4.717   1.839   0.806
 5813SOL     OW18118   5.158   3.037   0.850
 5813SOL    HW118119   5.102   2.961   0.863
 5813SOL    HW218120   5.169   3.044   0.756
 5814SOL     OW18121   4.207   3.300   0.172
 5814SOL    HW118122   4.135   3.258   0.219
 5814SOL    HW218123   4.211   3.255   0.088
 5815SOL     OW18124   5.125   2.446   0.077
 5815SOL    HW118125   5.066   2.421   0.148
 5815SOL    HW218126   5.195   2.381   0.079
 5816SOL     OW18127   4.242   2.125   0.324
 5816SOL    HW118128   4.291   2.073   0.261
 5816SOL    HW218129   4.230   2.210   0.281
 5817SOL     OW18130   4.782   3.215   1.333
 5817SOL    HW118131   4.707   3.185   1.384
 5817SOL    HW218132   4.857   3.173   1.374
 5818SOL     OW18133   0.006   3.466   1.618
 5818SOL    HW118134   0.040   3.473   1.528
 5818SOL    HW218135   0.083   3.446   1.671
 5819SOL     OW18136   4.851   3.064   1.107
 5819SOL    HW118137   4.791   3.101   1.171
 5819SOL    HW218138   4.818   3.094   1.023
 5820SOL     OW18139   4.642   1.961   1.397
 5820SOL    HW118140   4.664   1.942   1.306
 5820SOL    HW218141   4.721   1.999   1.434
 5821SOL     OW18142   4.708   2.975   1.725
 5821SOL    HW118143   4.616   2.992   1.744
 5821SOL    HW218144   4.707   2.898   1.667
 5822SOL     OW18145   4.437   2.924   0.380
 5822SOL    HW118146   4.420   2.907   0.472
 5822SOL    HW218147   4.515   2.872   0.360
 5823SOL     OW18148   4.142   2.676   1.251
 5823SOL    HW118149   4.210   2.686   1.317
 5823SOL    HW218150   4.107   2.588   1.266
 5824SOL     OW18151   4.989   2.238   1.275
 5824SOL    HW118152   5.024   2.317   1.317
 5824SOL    HW218153   4.900   2.261   1.250
 5825SOL     OW18154   3.794   3.435   1.351
 5825SOL    HW118155   3.763   3.509   1.299
 5825SOL    HW218156   3.889   3.440   1.347
 5826SOL     OW18157   4.070   2.971   0.492
 5826SOL    HW118158   4.077   3.044   0.431
 5826SOL    HW218159   4.079   2.893   0.437
 5827SOL     OW18160   4.277   2.399   0.860
 5827SOL    HW118161   4.293   2.457   0.786
 5827SOL    HW218162   4.342   2.426   0.926
 5828SOL     OW18163   4.971   3.209   0.392
 5828SOL    HW118164   5.027   3.281   0.420
 5828SOL    HW218165   4.884   3.231   0.424
 5829SOL     OW18166   4.993   3.318   1.139
 5829SOL    HW118167   5.048   3.321   1.217
 5829SOL    HW218168   4.940   3.239   1.150
 5830SOL     OW18169   4.071   3.388   1.316
 5830SOL    HW118170   4.059   3.346   1.231
 5830SOL    HW218171   4.166   3.400   1.323
 5831SOL     OW18172   4.138   2.607   1.602
 5831SOL    HW118173   4.199   2.652   1.544
 5831SOL    HW218174   4.178   2.521   1.617
 5832SOL     OW18175   4.718   1.984   1.756
 5832SOL    HW118176   4.774   2.057   1.727
 5832SOL    HW218177   4.766   1.906   1.731
 5833SOL     OW18178   4.222   1.904   1.747
 5833SOL    HW118179   4.180   1.849   1.681
 5833SOL    HW218180   4.162   1.978   1.759
 5834SOL     OW18181   4.306   2.735   1.031
 5834SOL    HW118182   4.338   2.825   1.030
 5834SOL    HW218183   4.250   2.730   1.108
 5835SOL     OW18184   5.085   2.719   1.039
 5835SOL    HW118185   5.010   2.704   0.982
 5835SOL    HW218186   5.137   2.639   1.033
 5836SOL     OW18187   4.933   2.393   0.270
 5836SOL    HW118188   4.935   2.313   0.322
 5836SOL    HW218189   4.886   2.456   0.326
 5837SOL     OW18190   4.023   2.061   1.246
 5837SOL    HW118191   3.986   2.094   1.328
 5837SOL    HW218192   4.004   1.967   1.247
 5838SOL     OW18193   3.770   3.173   1.276
 5838SOL    HW118194   3.803   3.119   1.348
 5838SOL    HW218195   3.777   3.262   1.308
 5839SOL     OW18196   4.448   2.493   1.058
 5839SOL    HW118197   4.523   2.476   1.001
 5839SOL    HW218198   4.421   2.582   1.037
 5840SOL     OW18199   4.026   1.927   0.623
 5840SOL    HW118200   4.008   2.018   0.647
 5840SOL    HW218201   4.033   1.881   0.707
 5841SOL     OW18202   0.045   2.240   0.358
 5841SOL    HW118203   0.062   2.182   0.432
 5841SOL    HW218204   0.014   2.321   0.398
 5842SOL     OW18205   4.750   2.621   0.960
 5842SOL    HW118206   4.750   2.639   1.054
 5842SOL    HW218207   4.725   2.529   0.954
 5843SOL     OW18208   4.698   3.423   1.713
 5843SOL    HW118209   4.687   3.471   1.631
 5843SOL    HW218210   4.747   3.345   1.689
 5844SOL     OW18211   4.077   2.777   1.809
 5844SOL    HW118212   4.160   2.797   1.853
 5844SOL    HW218213   4.101   2.715   1.740
 5845SOL     OW18214   5.029   2.696   0.028
 5845SOL    HW118215   5.061   2.607   0.046
 5845SOL    HW218216   5.059   2.715   8.019
 5846SOL     OW18217   4.789   3.196   0.855
 5846SOL    HW118218   4.792   3.124   0.792
 5846SOL    HW218219   4.848   3.262   0.819
 5847SOL     OW18220   4.033   2.671   0.947
 5847SOL    HW118221   4.126   2.693   0.942
 5847SOL    HW218222   4.032   2.582   0.981
 5848SOL     OW18223   4.056   2.387   1.012
 5848SOL    HW118224   4.021   2.299   0.997
 5848SOL    HW218225   4.132   2.393   0.954
 5849SOL     OW18226   4.857   2.239   1.680
 5849SOL    HW118227   4.810   2.294   1.743
 5849SOL    HW218228   4.944   2.278   1.675
 5850SOL     OW18229   4.885   2.065   1.469
 5850SOL    HW118230   4.874   2.127   1.541
 5850SOL    HW218231   4.923   2.117   1.398
 5851SOL     OW18232   3.734   3.187   0.191
 5851SOL    HW118233   3.647   3.201   0.153
 5851SOL    HW218234   3.733   3.096   0.222
 5852SOL     OW18235   3.814   3.650   0.937
 5852SOL    HW118236   3.784   3.570   0.894
 5852SOL    HW218237   3.904   3.662   0.906
 5853SOL     OW18238   4.221   3.435   0.906
 5853SOL    HW118239   4.290   3.498   0.930
 5853SOL    HW218240   4.266   3.372   0.850
 5854SOL     OW18241   4.708   2.655   1.227
 5854SOL    HW118242   4.763   2.631   1.302
 5854SOL    HW218243   4.623   2.618   1.248
 5855SOL     OW18244   3.760   2.406   1.116
 5855SOL    HW118245   3.841   2.391   1.068
 5855SOL    HW218246   3.787   2.410   1.208
 5856SOL     OW18247   3.915   2.381   1.727
 5856SOL    HW118248   3.972   2.344   1.660
 5856SOL    HW218249   3.871   2.454   1.683
 5857SOL     OW18250   5.111   2.801   1.666
 5857SOL    HW118251   5.120   2.896   1.654
 5857SOL    HW218252   5.114   2.766   1.577
 5858SOL     OW18253   4.542   2.431   0.365
 5858SOL    HW118254   4.550   2.360   0.302
 5858SOL    HW218255   4.466   2.481   0.335
 5859SOL     OW18256   3.968   3.414   1.728
 5859SOL    HW118257   3.945   3.478   1.796
 5859SOL    HW218258   3.969   3.330   1.775
 5860SOL     OW18259   4.422   2.314   1.261
 5860SOL    HW118260   4.371   2.239   1.229
 5860SOL    HW218261   4.420   2.376   1.188
 5861SOL     OW18262   4.646   3.542   1.468
 5861SOL    HW118263   4.624   3.511   1.380
 5861SOL    HW218264   4.648   3.637   1.460
 5862SOL     OW18265   4.193   2.352   0.180
 5862SOL    HW118266   4.259   2.419   0.199
 5862SOL    HW218267   4.109   2.398   0.189
 5863SOL     OW18268   3.871   3.002   1.472
 5863SOL    HW118269   3.874   2.950   1.552
 5863SOL    HW218270   3.888   2.939   1.402
 5864SOL     OW18271   5.054   2.912   1.225
 5864SOL    HW118272   5.076   2.847   1.158
 5864SOL    HW218273   4.982   2.962   1.187
 5865SOL     OW18274   5.023   2.731   0.319
 5865SOL    HW118275   4.945   2.686   0.352
 5865SOL    HW218276   5.024   2.711   0.225
 5866SOL     OW18277   4.960   3.593   1.122
 5866SOL    HW118278   5.046   3.613   1.084
 5866SOL    HW218279   4.960   3.498   1.132
 5867SOL     OW18280   3.808   3.128   1.013
 5867SOL    HW118281   3.794   3.141   1.106
 5867SOL    HW218282   3.734   3.074   0.985
 5868SOL     OW18283   4.401   3.526   1.727
 5868SOL    HW118284   4.350   3.607   1.722
 5868SOL    HW218285   4.469   3.536   1.660
 5869SOL     OW18286   4.629   1.953   0.134
 5869SOL    HW118287   4.650   1.937   0.042
 5869SOL    HW218288   4.692   1.899   0.182
 5870SOL     OW18289   0.083   2.012   0.522
 5870SOL    HW118290   0.174   2.006   0.492
 5870SOL    HW218291   0.074   1.941   0.586
 5871SOL     OW18292   5.108   3.432   0.478
 5871SOL    HW118293   5.162   3.473   0.411
 5871SOL    HW218294   5.061   3.504   0.519
 5872SOL     OW18295   3.859   3.659   1.843
 5872SOL    HW118296   3.809   3.594   1.892
 5872SOL    HW218297   3.908   3.707   1.910
 5873SOL     OW18298   5.016   2.781   0.673
 5873SOL    HW118299   5.093   2.726   0.658
 5873SOL    HW218300   5.034   2.862   0.624
 5874SOL     OW18301   4.540   3.135   1.431
 5874SOL    HW118302   4.512   3.174   1.514
 5874SOL    HW218303   4.470   3.157   1.369
 5875SOL     OW18304   4.400   3.482   0.156
 5875SOL    HW118305   4.407   3.488   0.061
 5875SOL    HW218306   4.340   3.409   0.172
 5876SOL     OW18307   3.987   2.178   0.718
 5876SOL    HW118308   3.901   2.214   0.694
 5876SOL    HW218309   3.983   2.170   0.813
 5877SOL     OW18310   4.860   3.442   0.045
 5877SOL    HW118311   4.902   3.357   0.061
 5877SOL    HW218312   4.897   3.472   8.042
 5878SOL     OW18313   4.548   2.868   1.372
 5878SOL    HW118314   4.592   2.864   1.287
 5878SOL    HW218315   4.548   2.961   1.395
 5879SOL     OW18316   4.643   2.776   0.299
 5879SOL    HW118317   4.696   2.801   0.223
 5879SOL    HW218318   4.690   2.703   0.339
 5880SOL     OW18319   4.093   3.164   1.492
 5880SOL    HW118320   4.080   3.241   1.437
 5880SOL    HW218321   4.016   3.110   1.475
 5881SOL     OW18322   4.774   2.968   0.707
 5881SOL    HW118323   4.704   2.917   0.747
 5881SOL    HW218324   4.832   2.903   0.667
 5882SOL     OW18325   4.740   2.101   0.968
 5882SOL    HW118326   4.737   2.053   0.885
 5882SOL    HW218327   4.736   2.033   1.034
 5883SOL     OW18328   4.325   3.349   0.481
 5883SOL    HW118329   4.369   3.299   0.411
 5883SOL    HW218330   4.259   3.400   0.435
 5884SOL     OW18331   3.990   3.183   0.293
 5884SOL    HW118332   3.904   3.195   0.253
 5884SOL    HW218333   3.984   3.228   0.377
 5885SOL     OW18334   3.836   2.882   1.719
 5885SOL    HW118335   3.760   2.860   1.772
 5885SOL    HW218336   3.911   2.845   1.767
 5886SOL     OW18337   4.398   2.058   1.499
 5886SOL    HW118338   4.482   2.039   1.457
 5886SOL    HW218339   4.421   2.089   1.587
 5887SOL     OW18340   3.781   2.225   0.039
 5887SOL    HW118341   3.708   2.169   0.014
 5887SOL    HW218342   3.828   2.240   8.037
 5888SOL     OW18343   5.162   2.722   1.404
 5888SOL    HW118344   5.110   2.778   1.347
 5888SOL    HW218345   5.252   2.729   1.370
 5889SOL     OW18346   3.795   2.017   0.307
 5889SOL    HW118347   3.780   2.101   0.263
 5889SOL    HW218348   3.880   1.987   0.273
 5890SOL     OW18349   4.914   3.177   0.120
 5890SOL    HW118350   4.819   3.177   0.115
 5890SOL    HW218351   4.933   3.184   0.214
 5891SOL     OW18352   4.342   2.693   1.433
 5891SOL    HW118353   4.399   2.769   1.418
 5891SOL    HW218354   4.403   2.620   1.441
 5892SOL     OW18355   4.441   2.426   1.705
 5892SOL    HW118356   4.480   2.488   1.766
 5892SOL    HW218357   4.471   2.340   1.736
 5893SOL     OW18358   5.182   3.067   1.632
 5893SOL    HW118359   5.174   3.079   1.727
 5893SOL    HW218360   5.277   3.073   1.616
 5894SOL     OW18361   4.104   3.601   1.564
 5894SOL    HW118362   4.019   3.642   1.551
 5894SOL    HW218363   4.085   3.518   1.606
 5895SOL     OW18364   4.935   2.186   0.460
 5895SOL    HW118365   4.998   2.115   0.449
 5895SOL    HW218366   4.965   2.232   0.539
 5896SOL     OW18367   4.313   2.600   0.668
 5896SOL    HW118368   4.353   2.685   0.654
 5896SOL    HW218369   4.244   2.595   0.602
 5897SOL     OW18370   4.618   3.232   0.031
 5897SOL    HW118371   4.553   3.227   0.102
 5897SOL    HW218372   4.615   3.323   0.002
 5898SOL     OW18373   4.383   3.654   0.945
 5898SOL    HW118374   4.364   3.745   0.922
 5898SOL    HW218375   4.479   3.648   0.939
 5899SOL     OW18376   4.591   2.828   0.856
 5899SOL    HW118377   4.641   2.757   0.896
 5899SOL    HW218378   4.557   2.878   0.930
 5900SOL     OW18379   4.799   2.836   0.085
 5900SOL    HW118380   4.790   2.901   0.015
 5900SOL    HW218381   4.882   2.792   0.067
 5901SOL     OW18382   3.949   3.166   1.856
 5901SOL    HW118383   3.881   3.105   1.827
 5901SOL    HW218384   3.932   3.178   1.949
 5902SOL     OW18385   3.807   3.094   0.664
 5902SOL    HW118386   3.812   3.046   0.746
 5902SOL    HW218387   3.880   3.060   0.612
 5903SOL     OW18388   4.404   3.263   1.628
 5903SOL    HW118389   4.324   3.221   1.658
 5903SOL    HW218390   4.400   3.352   1.663
 5904SOL     OW18391   4.149   2.298   0.523
 5904SOL    HW118392   4.182   2.226   0.469
 5904SOL    HW218393   4.105   2.254   0.596
 5905SOL     OW18394   0.095   3.384   1.099
 5905SOL    HW118395   0.028   3.357   1.036
 5905SOL    HW218396   0.106   3.308   1.156
 5906SOL     OW18397   4.053   2.416   1.291
 5906SOL    HW118398   4.109   2.361   1.347
 5906SOL    HW218399   4.073   2.388   1.202
 5907SOL     OW18400   4.551   3.440   0.678
 5907SOL    HW118401   4.541   3.490   0.597
 5907SOL    HW218402   4.473   3.384   0.680
 5908SOL     OW18403   5.149   2.081   1.115
 5908SOL    HW118404   5.193   2.015   1.169
 5908SOL    HW218405   5.102   2.136   1.178
 5909SOL     OW18406   4.730   1.881   1.143
 5909SOL    HW118407   4.677   1.812   1.103
 5909SOL    HW218408   4.818   1.844   1.148
 5910SOL     OW18409   4.493   3.190   0.308
 5910SOL    HW118410   4.462   3.100   0.321
 5910SOL    HW218411   4.576   3.193   0.356
 5911SOL     OW18412   4.344   3.419   1.285
 5911SOL    HW118413   4.346   3.501   1.334
 5911SOL    HW218414   4.431   3.411   1.247
 5912SOL     OW18415   5.052   1.923   0.185
 5912SOL    HW118416   5.095   1.874   0.115
 5912SOL    HW218417   4.975   1.872   0.207
 5913SOL     OW18418   5.029   2.322   0.684
 5913SOL    HW118419   4.973   2.400   0.688
 5913SOL    HW218420   5.017   2.280   0.769
 5914SOL     OW18421   0.000   2.086   0.876
 5914SOL    HW118422   5.237   2.074   0.946
 5914SOL    HW218423   5.277   2.170   0.837
 5915SOL     OW18424   3.766   2.929   0.302
 5915SOL    HW118425   3.862   2.929   0.305
 5915SOL    HW218426   3.741   2.847   0.344
 5916SOL     OW18427   4.604   3.513   0.350
 5916SOL    HW118428   4.537   3.497   0.283
 5916SOL    HW218429   4.572   3.590   0.397
 5917SOL     OW18430   3.954   2.485   1.984
 5917SOL    HW118431   3.865   2.485   2.018
 5917SOL    HW218432   3.945   2.459   1.893
 5918SOL     OW18433   3.949   2.142   2.853
 5918SOL    HW118434   3.977   2.108   2.938
 5918SOL    HW218435   3.859   2.111   2.843
 5919SOL     OW18436   3.729   2.244   2.500
 5919SOL    HW118437   3.646   2.270   2.541
 5919SOL    HW218438   3.707   2.165   2.452
 5920SOL     OW18439   4.291   3.148   3.036
 5920SOL    HW118440   4.203   3.151   2.998
 5920SOL    HW218441   4.306   3.236   3.069
 5921SOL     OW18442   5.284   3.397   2.567
 5921SOL    HW118443   5.245   3.354   2.643
 5921SOL    HW218444   5.219   3.388   2.498
 5922SOL     OW18445   4.857   2.561   2.563
 5922SOL    HW118446   4.908   2.642   2.552
 5922SOL    HW218447   4.809   2.573   2.645
 5923SOL     OW18448   4.481   3.005   2.901
 5923SOL    HW118449   4.411   3.039   2.958
 5923SOL    HW218450   4.515   3.082   2.857
 5924SOL     OW18451   4.590   2.638   3.684
 5924SOL    HW118452   4.574   2.710   3.745
 5924SOL    HW218453   4.612   2.682   3.601
 5925SOL     OW18454   4.410   2.866   2.510
 5925SOL    HW118455   4.475   2.854   2.580
 5925SOL    HW218456   4.341   2.917   2.550
 5926SOL     OW18457   4.433   3.013   3.673
 5926SOL    HW118458   4.481   3.092   3.699
 5926SOL    HW218459   4.351   3.046   3.638
 5927SOL     OW18460   4.054   3.289   2.930
 5927SOL    HW118461   3.983   3.251   2.878
 5927SOL    HW218462   4.106   3.339   2.867
 5928SOL     OW18463   5.160   3.344   3.211
 5928SOL    HW118464   5.204   3.425   3.237
 5928SOL    HW218465   5.110   3.318   3.288
 5929SOL     OW18466   4.172   2.259   3.352
 5929SOL    HW118467   4.247   2.199   3.356
 5929SOL    HW218468   4.095   2.203   3.363
 5930SOL     OW18469   3.943   3.576   2.335
 5930SOL    HW118470   3.965   3.652   2.388
 5930SOL    HW218471   4.016   3.568   2.272
 5931SOL     OW18472   4.860   3.201   3.555
 5931SOL    HW118473   4.899   3.198   3.643
 5931SOL    HW218474   4.806   3.122   3.549
 5932SOL     OW18475   3.954   3.303   2.396
 5932SOL    HW118476   3.937   3.397   2.401
 5932SOL    HW218477   3.893   3.265   2.460
 5933SOL     OW18478   3.982   2.953   2.754
 5933SOL    HW118479   3.977   2.866   2.794
 5933SOL    HW218480   3.922   3.006   2.806
 5934SOL     OW18481   4.335   3.654   3.290
 5934SOL    HW118482   4.254   3.636   3.337
 5934SOL    HW218483   4.359   3.743   3.316
 5935SOL     OW18484   4.312   2.843   1.995
 5935SOL    HW118485   4.356   2.893   1.927
 5935SOL    HW218486   4.351   2.873   2.077
 5936SOL     OW18487   3.839   2.514   2.421
 5936SOL    HW118488   3.809   2.425   2.442
 5936SOL    HW218489   3.831   2.562   2.503
 5937SOL     OW18490   3.755   3.458   1.986
 5937SOL    HW118491   3.738   3.366   2.006
 5937SOL    HW218492   3.731   3.505   2.066
 5938SOL     OW18493   0.112   2.803   2.438
 5938SOL    HW118494   0.198   2.766   2.456
 5938SOL    HW218495   0.130   2.885   2.393
 5939SOL     OW18496   3.878   2.612   3.443
 5939SOL    HW118497   3.974   2.619   3.450
 5939SOL    HW218498   3.846   2.698   3.471
 5940SOL     OW18499   4.337   3.246   2.597
 5940SOL    HW118500   4.291   3.163   2.606
 5940SOL    HW218501   4.321   3.273   2.507
 5941SOL     OW18502   5.008   3.099   3.287
 5941SOL    HW118503   5.042   3.032   3.227
 5941SOL    HW218504   5.063   3.091   3.365
 5942SOL     OW18505   4.537   1.862   2.369
 5942SOL    HW118506   4.578   1.946   2.351
 5942SOL    HW218507   4.444   1.881   2.379
 5943SOL     OW18508   3.915   2.829   3.131
 5943SOL    HW118509   4.000   2.787   3.118
 5943SOL    HW218510   3.853   2.775   3.083
 5944SOL     OW18511   4.898   3.669   3.485
 5944SOL    HW118512   4.920   3.727   3.412
 5944SOL    HW218513   4.918   3.581   3.453
 5945SOL     OW18514   4.054   2.113   3.672
 5945SOL    HW118515   4.101   2.195   3.689
 5945SOL    HW218516   3.966   2.129   3.705
 5946SOL     OW18517   5.169   3.296   2.800
 5946SOL    HW118518   5.107   3.303   2.872
 5946SOL    HW218519   5.163   3.205   2.771
 5947SOL     OW18520   4.320   2.584   2.127
 5947SOL    HW118521   4.326   2.665   2.076
 5947SOL    HW218522   4.255   2.603   2.195
 5948SOL     OW18523   4.996   2.199   2.782
 5948SOL    HW118524   4.908   2.168   2.803
 5948SOL    HW218525   5.051   2.164   2.853
 5949SOL     OW18526   4.515   2.479   3.314
 5949SOL    HW118527   4.489   2.456   3.403
 5949SOL    HW218528   4.475   2.413   3.258
 5950SOL     OW18529   5.115   2.341   3.542
 5950SOL    HW118530   5.116   2.379   3.630
 5950SOL    HW218531   5.190   2.282   3.541
 5951SOL     OW18532   4.679   2.750   3.444
 5951SOL    HW118533   4.732   2.678   3.409
 5951SOL    HW218534   4.632   2.784   3.368
 5952SOL     OW18535   4.715   2.275   3.101
 5952SOL    HW118536   4.630   2.297   3.138
 5952SOL    HW218537   4.695   2.228   3.020
 5953SOL     OW18538   4.774   2.560   2.288
 5953SOL    HW118539   4.789   2.554   2.382
 5953SOL    HW218540   4.692   2.513   2.274
 5954SOL     OW18541   3.813   2.683   2.637
 5954SOL    HW118542   3.894   2.676   2.688
 5954SOL    HW218543   3.769   2.759   2.673
 5955SOL     OW18544   3.851   3.707   3.439
 5955SOL    HW118545   3.850   3.687   3.532
 5955SOL    HW218546   3.759   3.698   3.411
 5956SOL     OW18547   4.615   2.209   2.056
 5956SOL    HW118548   4.656   2.270   1.995
 5956SOL    HW218549   4.631   2.122   2.019
 5957SOL     OW18550   5.092   3.007   2.409
 5957SOL    HW118551   5.179   3.006   2.369
 5957SOL    HW218552   5.041   3.068   2.354
 5958SOL     OW18553   4.274   2.044   2.755
 5958SOL    HW118554   4.276   2.073   2.846
 5958SOL    HW218555   4.275   2.126   2.704
 5959SOL     OW18556   4.731   3.306   2.335
 5959SOL    HW118557   4.692   3.377   2.285
 5959SOL    HW218558   4.715   3.328   2.427
 5960SOL     OW18559   4.079   3.670   2.723
 5960SOL    HW118560   4.123   3.585   2.731
 5960SOL    HW218561   4.147   3.734   2.740
 5961SOL     OW18562   4.940   3.406   3.382
 5961SOL    HW118563   4.928   3.331   3.441
 5961SOL    HW218564   4.887   3.385   3.305
 5962SOL     OW18565   4.045   2.819   2.112
 5962SOL    HW118566   4.127   2.838   2.066
 5962SOL    HW218567   4.014   2.737   2.072
 5963SOL     OW18568   4.189   3.125   3.599
 5963SOL    HW118569   4.161   3.130   3.508
 5963SOL    HW218570   4.107   3.124   3.649
 5964SOL     OW18571   4.833   3.637   2.098
 5964SOL    HW118572   4.762   3.592   2.143
 5964SOL    HW218573   4.858   3.578   2.027
 5965SOL     OW18574   3.922   2.144   3.364
 5965SOL    HW118575   3.838   2.189   3.357
 5965SOL    HW218576   3.908   2.076   3.430
 5966SOL     OW18577   4.190   3.599   2.183
 5966SOL    HW118578   4.232   3.657   2.248
 5966SOL    HW218579   4.262   3.570   2.127
 5967SOL     OW18580   5.122   1.970   2.286
 5967SOL    HW118581   5.102   1.951   2.195
 5967SOL    HW218582   5.216   1.984   2.288
 5968SOL     OW18583   3.979   3.654   3.095
 5968SOL    HW118584   4.031   3.589   3.141
 5968SOL    HW218585   3.969   3.618   3.007
 5969SOL     OW18586   4.662   3.560   2.762
 5969SOL    HW118587   4.741   3.509   2.779
 5969SOL    HW218588   4.617   3.511   2.693
 5970SOL     OW18589   4.116   2.557   2.339
 5970SOL    HW118590   4.137   2.465   2.350
 5970SOL    HW218591   4.022   2.562   2.357
 5971SOL     OW18592   4.357   1.985   1.968
 5971SOL    HW118593   4.429   1.923   1.979
 5971SOL    HW218594   4.309   1.953   1.892
 5972SOL     OW18595   4.491   2.140   3.616
 5972SOL    HW118596   4.566   2.080   3.618
 5972SOL    HW218597   4.442   2.120   3.695
 5973SOL     OW18598   4.600   3.383   3.055
 5973SOL    HW118599   4.585   3.348   2.968
 5973SOL    HW218600   4.670   3.329   3.092
 5974SOL     OW18601   5.058   2.453   3.294
 5974SOL    HW118602   5.091   2.420   3.378
 5974SOL    HW218603   5.100   2.538   3.284
 5975SOL     OW18604   4.538   3.258   2.800
 5975SOL    HW118605   4.622   3.247   2.756
 5975SOL    HW218606   4.473   3.258   2.729
 5976SOL     OW18607   4.651   2.371   2.765
 5976SOL    HW118608   4.628   2.362   2.673
 5976SOL    HW218609   4.683   2.285   2.790
 5977SOL     OW18610   4.272   1.925   2.365
 5977SOL    HW118611   4.192   1.926   2.417
 5977SOL    HW218612   4.267   2.003   2.311
 5978SOL     OW18613   5.138   3.042   1.905
 5978SOL    HW118614   5.149   2.965   1.961
 5978SOL    HW218615   5.050   3.074   1.926
 5979SOL     OW18616   4.016   1.909   2.046
 5979SOL    HW118617   4.075   1.974   2.007
 5979SOL    HW218618   4.074   1.846   2.088
 5980SOL     OW18619   4.661   2.108   2.323
 5980SOL    HW118620   4.633   2.149   2.241
 5980SOL    HW218621   4.755   2.119   2.325
 5981SOL     OW18622   4.801   2.543   3.323
 5981SOL    HW118623   4.733   2.475   3.325
 5981SOL    HW218624   4.883   2.494   3.313
 5982SOL     OW18625   4.941   3.433   2.656
 5982SOL    HW118626   4.964   3.499   2.591
 5982SOL    HW218627   5.020   3.423   2.709
 5983SOL     OW18628   4.192   3.010   2.596
 5983SOL    HW118629   4.123   2.992   2.660
 5983SOL    HW218630   4.153   2.994   2.511
 5984SOL     OW18631   4.996   3.656   2.466
 5984SOL    HW118632   5.038   3.717   2.406
 5984SOL    HW218633   4.930   3.709   2.512
 5985SOL     OW18634   4.749   2.407   1.882
 5985SOL    HW118635   4.705   2.489   1.862
 5985SOL    HW218636   4.810   2.429   1.953
 5986SOL     OW18637   3.816   2.431   3.248
 5986SOL    HW118638   3.908   2.425   3.221
 5986SOL    HW218639   3.816   2.498   3.316
 5987SOL     OW18640   4.284   2.089   3.027
 5987SOL    HW118641   4.325   2.012   3.066
 5987SOL    HW218642   4.193   2.086   3.057
 5988SOL     OW18643   4.593   2.321   2.501
 5988SOL    HW118644   4.546   2.376   2.438
 5988SOL    HW218645   4.613   2.241   2.454
 5989SOL     OW18646   4.739   1.915   2.615
 5989SOL    HW118647   4.681   1.907   2.539
 5989SOL    HW218648   4.717   1.839   2.669
 5990SOL     OW18649   5.158   3.037   2.713
 5990SOL    HW118650   5.101   2.961   2.726
 5990SOL    HW218651   5.169   3.043   2.619
 5991SOL     OW18652   4.215   3.279   2.020
 5991SOL    HW118653   4.140   3.249   2.072
 5991SOL    HW218654   4.198   3.244   1.933
 5992SOL     OW18655   5.127   2.425   1.941
 5992SOL    HW118656   5.055   2.415   2.003
 5992SOL    HW218657   5.202   2.387   1.985
 5993SOL     OW18658   4.250   2.125   2.181
 5993SOL    HW118659   4.293   2.076   2.111
 5993SOL    HW218660   4.229   2.210   2.143
 5994SOL     OW18661   4.782   3.215   3.195
 5994SOL    HW118662   4.707   3.185   3.246
 5994SOL    HW218663   4.857   3.173   3.236
 5995SOL     OW18664   0.006   3.466   3.480
 5995SOL    HW118665   0.040   3.473   3.390
 5995SOL    HW218666   0.083   3.446   3.533
 5996SOL     OW18667   4.851   3.064   2.969
 5996SOL    HW118668   4.791   3.101   3.033
 5996SOL    HW218669   4.817   3.094   2.885
 5997SOL     OW18670   4.642   1.961   3.259
 5997SOL    HW118671   4.664   1.942   3.168
 5997SOL    HW218672   4.721   1.999   3.296
 5998SOL     OW18673   4.708   2.975   3.587
 5998SOL    HW118674   4.616   2.992   3.606
 5998SOL    HW218675   4.707   2.898   3.529
 5999SOL     OW18676   4.432   2.923   2.233
 5999SOL    HW118677   4.418   2.907   2.327
 5999SOL    HW218678   4.508   2.869   2.211
 6000SOL     OW18679   4.143   2.678   3.113
 6000SOL    HW118680   4.211   2.687   3.179
 6000SOL    HW218681   4.109   2.589   3.126
 6001SOL     OW18682   4.989   2.238   3.138
 6001SOL    HW118683   5.024   2.317   3.179
 6001SOL    HW218684   4.900   2.261   3.112
 6002SOL     OW18685   3.795   3.432   3.212
 6002SOL    HW118686   3.762   3.510   3.167
 6002SOL    HW218687   3.890   3.439   3.207
 6003SOL     OW18688   4.075   2.970   2.353
 6003SOL    HW118689   4.079   3.044   2.292
 6003SOL    HW218690   4.072   2.892   2.297
 6004SOL     OW18691   4.278   2.399   2.722
 6004SOL    HW118692   4.294   2.457   2.648
 6004SOL    HW218693   4.342   2.427   2.788
 6005SOL     OW18694   4.972   3.211   2.250
 6005SOL    HW118695   5.026   3.283   2.280
 6005SOL    HW218696   4.884   3.230   2.283
 6006SOL     OW18697   4.993   3.318   3.001
 6006SOL    HW118698   5.048   3.321   3.079
 6006SOL    HW218699   4.939   3.239   3.013
 6007SOL     OW18700   4.072   3.389   3.178
 6007SOL    HW118701   4.059   3.346   3.093
 6007SOL    HW218702   4.167   3.401   3.184
 6008SOL     OW18703   4.149   2.605   3.468
 6008SOL    HW118704   4.209   2.650   3.408
 6008SOL    HW218705   4.190   2.519   3.482
 6009SOL     OW18706   4.718   1.985   3.618
 6009SOL    HW118707   4.774   2.057   3.589
 6009SOL    HW218708   4.766   1.906   3.593
 6010SOL     OW18709   4.222   1.904   3.609
 6010SOL    HW118710   4.180   1.849   3.543
 6010SOL    HW218711   4.161   1.978   3.621
 6011SOL     OW18712   4.307   2.734   2.893
 6011SOL    HW118713   4.337   2.825   2.891
 6011SOL    HW218714   4.250   2.730   2.970
 6012SOL     OW18715   5.086   2.720   2.900
 6012SOL    HW118716   5.009   2.703   2.845
 6012SOL    HW218717   5.136   2.638   2.896
 6013SOL     OW18718   4.929   2.393   2.128
 6013SOL    HW118719   4.936   2.313   2.180
 6013SOL    HW218720   4.886   2.456   2.185
 6014SOL     OW18721   4.024   2.061   3.109
 6014SOL    HW118722   3.986   2.094   3.190
 6014SOL    HW218723   4.003   1.968   3.109
 6015SOL     OW18724   3.750   3.173   3.136
 6015SOL    HW118725   3.785   3.116   3.205
 6015SOL    HW218726   3.766   3.262   3.169
 6016SOL     OW18727   4.448   2.493   2.921
 6016SOL    HW118728   4.523   2.477   2.863
 6016SOL    HW218729   4.420   2.582   2.899
 6017SOL     OW18730   4.026   1.927   2.485
 6017SOL    HW118731   4.008   2.018   2.509
 6017SOL    HW218732   4.033   1.881   2.569
 6018SOL     OW18733   0.035   2.254   2.222
 6018SOL    HW118734   0.056   2.180   2.280
 6018SOL    HW218735   0.015   2.326   2.282
 6019SOL     OW18736   4.751   2.621   2.823
 6019SOL    HW118737   4.750   2.639   2.917
 6019SOL    HW218738   4.725   2.529   2.815
 6020SOL     OW18739   4.698   3.423   3.575
 6020SOL    HW118740   4.687   3.471   3.493
 6020SOL    HW218741   4.747   3.345   3.551
 6021SOL     OW18742   4.081   2.778   3.672
 6021SOL    HW118743   4.163   2.799   3.718
 6021SOL    HW218744   4.107   2.715   3.605
 6022SOL     OW18745   5.027   2.691   1.899
 6022SOL    HW118746   5.064   2.603   1.900
 6022SOL    HW218747   5.054   2.727   1.814
 6023SOL     OW18748   4.789   3.196   2.717
 6023SOL    HW118749   4.793   3.124   2.654
 6023SOL    HW218750   4.848   3.262   2.681
 6024SOL     OW18751   4.033   2.672   2.810
 6024SOL    HW118752   4.126   2.693   2.803
 6024SOL    HW218753   4.031   2.582   2.843
 6025SOL     OW18754   4.056   2.386   2.873
 6025SOL    HW118755   4.021   2.299   2.858
 6025SOL    HW218756   4.132   2.392   2.816
 6026SOL     OW18757   4.856   2.239   3.542
 6026SOL    HW118758   4.810   2.294   3.605
 6026SOL    HW218759   4.944   2.277   3.537
 6027SOL     OW18760   4.885   2.065   3.331
 6027SOL    HW118761   4.874   2.127   3.403
 6027SOL    HW218762   4.923   2.117   3.260
 6028SOL     OW18763   3.729   3.184   2.057
 6028SOL    HW118764   3.642   3.198   2.019
 6028SOL    HW218765   3.726   3.094   2.090
 6029SOL     OW18766   3.814   3.650   2.799
 6029SOL    HW118767   3.784   3.571   2.756
 6029SOL    HW218768   3.904   3.662   2.768
 6030SOL     OW18769   4.221   3.435   2.768
 6030SOL    HW118770   4.290   3.498   2.792
 6030SOL    HW218771   4.266   3.371   2.712
 6031SOL     OW18772   4.709   2.655   3.089
 6031SOL    HW118773   4.763   2.631   3.164
 6031SOL    HW218774   4.623   2.618   3.109
 6032SOL     OW18775   3.762   2.407   2.977
 6032SOL    HW118776   3.843   2.393   2.929
 6032SOL    HW218777   3.790   2.419   3.068
 6033SOL     OW18778   3.913   2.382   3.588
 6033SOL    HW118779   3.969   2.338   3.524
 6033SOL    HW218780   3.878   2.458   3.541
 6034SOL     OW18781   5.111   2.801   3.528
 6034SOL    HW118782   5.120   2.896   3.516
 6034SOL    HW218783   5.114   2.766   3.439
 6035SOL     OW18784   4.540   2.431   2.219
 6035SOL    HW118785   4.543   2.356   2.160
 6035SOL    HW218786   4.466   2.483   2.189
 6036SOL     OW18787   3.970   3.414   3.591
 6036SOL    HW118788   3.945   3.478   3.658
 6036SOL    HW218789   3.970   3.330   3.636
 6037SOL     OW18790   4.422   2.314   3.123
 6037SOL    HW118791   4.371   2.239   3.091
 6037SOL    HW218792   4.420   2.376   3.050
 6038SOL     OW18793   4.646   3.542   3.330
 6038SOL    HW118794   4.624   3.510   3.242
 6038SOL    HW218795   4.648   3.637   3.322
 6039SOL     OW18796   4.189   2.355   2.050
 6039SOL    HW118797   4.247   2.428   2.071
 6039SOL    HW218798   4.103   2.395   2.037
 6040SOL     OW18799   3.868   3.004   3.332
 6040SOL    HW118800   3.869   2.951   3.412
 6040SOL    HW218801   3.886   2.942   3.261
 6041SOL     OW18802   5.055   2.912   3.087
 6041SOL    HW118803   5.076   2.848   3.019
 6041SOL    HW218804   4.982   2.962   3.049
 6042SOL     OW18805   5.034   2.721   2.178
 6042SOL    HW118806   4.951   2.688   2.215
 6042SOL    HW218807   5.023   2.712   2.084
 6043SOL     OW18808   4.960   3.593   2.984
 6043SOL    HW118809   5.046   3.613   2.946
 6043SOL    HW218810   4.960   3.498   2.994
 6044SOL     OW18811   3.805   3.129   2.874
 6044SOL    HW118812   3.790   3.140   2.968
 6044SOL    HW218813   3.732   3.073   2.846
 6045SOL     OW18814   4.401   3.526   3.589
 6045SOL    HW118815   4.350   3.607   3.584
 6045SOL    HW218816   4.469   3.536   3.522
 6046SOL     OW18817   0.083   2.021   2.391
 6046SOL    HW118818   0.168   2.009   2.348
 6046SOL    HW218819   0.070   1.940   2.441
 6047SOL     OW18820   5.111   3.432   2.341
 6047SOL    HW118821   5.180   3.471   2.289
 6047SOL    HW218822   5.062   3.506   2.376
 6048SOL     OW18823   3.859   3.659   3.705
 6048SOL    HW118824   3.809   3.593   3.754
 6048SOL    HW218825   3.908   3.706   3.773
 6049SOL     OW18826   5.015   2.781   2.535
 6049SOL    HW118827   5.093   2.726   2.521
 6049SOL    HW218828   5.034   2.861   2.485
 6050SOL     OW18829   4.540   3.135   3.293
 6050SOL    HW118830   4.512   3.174   3.376
 6050SOL    HW218831   4.470   3.157   3.231
 6051SOL     OW18832   4.395   3.481   2.018
 6051SOL    HW118833   4.406   3.493   1.923
 6051SOL    HW218834   4.341   3.403   2.026
 6052SOL     OW18835   3.987   2.178   2.579
 6052SOL    HW118836   3.901   2.214   2.555
 6052SOL    HW218837   3.983   2.170   2.674
 6053SOL     OW18838   4.909   3.471   1.903
 6053SOL    HW118839   4.920   3.377   1.914
 6053SOL    HW218840   4.855   3.480   1.824
 6054SOL     OW18841   4.549   2.868   3.234
 6054SOL    HW118842   4.591   2.864   3.149
 6054SOL    HW218843   4.548   2.961   3.257
 6055SOL     OW18844   4.640   2.773   2.152
 6055SOL    HW118845   4.702   2.804   2.086
 6055SOL    HW218846   4.687   2.702   2.196
 6056SOL     OW18847   4.093   3.164   3.353
 6056SOL    HW118848   4.080   3.242   3.300
 6056SOL    HW218849   4.015   3.111   3.337
 6057SOL     OW18850   4.775   2.968   2.568
 6057SOL    HW118851   4.704   2.918   2.609
 6057SOL    HW218852   4.832   2.902   2.530
 6058SOL     OW18853   4.740   2.101   2.830
 6058SOL    HW118854   4.737   2.054   2.747
 6058SOL    HW218855   4.736   2.033   2.897
 6059SOL     OW18856   4.326   3.350   2.344
 6059SOL    HW118857   4.369   3.300   2.275
 6059SOL    HW218858   4.258   3.401   2.298
 6060SOL     OW18859   3.983   3.207   2.150
 6060SOL    HW118860   3.890   3.206   2.127
 6060SOL    HW218861   3.986   3.244   2.238
 6061SOL     OW18862   3.841   2.861   3.571
 6061SOL    HW118863   3.768   2.851   3.633
 6061SOL    HW218864   3.919   2.841   3.622
 6062SOL     OW18865   4.398   2.058   3.361
 6062SOL    HW118866   4.481   2.039   3.319
 6062SOL    HW218867   4.421   2.089   3.449
 6063SOL     OW18868   3.802   2.197   1.897
 6063SOL    HW118869   3.715   2.177   1.863
 6063SOL    HW218870   3.831   2.272   1.845
 6064SOL     OW18871   5.162   2.722   3.266
 6064SOL    HW118872   5.110   2.779   3.209
 6064SOL    HW218873   5.251   2.729   3.232
 6065SOL     OW18874   3.793   2.019   2.173
 6065SOL    HW118875   3.779   2.099   2.123
 6065SOL    HW218876   3.878   1.986   2.143
 6066SOL     OW18877   4.907   3.192   1.977
 6066SOL    HW118878   4.813   3.174   1.977
 6066SOL    HW218879   4.931   3.199   2.069
 6067SOL     OW18880   4.344   2.693   3.294
 6067SOL    HW118881   4.400   2.770   3.279
 6067SOL    HW218882   4.405   2.620   3.302
 6068SOL     OW18883   4.441   2.426   3.567
 6068SOL    HW118884   4.480   2.489   3.628
 6068SOL    HW218885   4.471   2.341   3.598
 6069SOL     OW18886   5.182   3.067   3.494
 6069SOL    HW118887   5.173   3.079   3.589
 6069SOL    HW218888   5.277   3.072   3.478
 6070SOL     OW18889   4.104   3.602   3.426
 6070SOL    HW118890   4.019   3.643   3.413
 6070SOL    HW218891   4.084   3.518   3.468
 6071SOL     OW18892   4.941   2.182   2.318
 6071SOL    HW118893   5.003   2.110   2.305
 6071SOL    HW218894   4.971   2.226   2.398
 6072SOL     OW18895   4.315   2.600   2.530
 6072SOL    HW118896   4.354   2.687   2.515
 6072SOL    HW218897   4.246   2.593   2.464
 6073SOL     OW18898   4.590   3.229   1.895
 6073SOL    HW118899   4.549   3.259   1.976
 6073SOL    HW218900   4.607   3.309   1.846
 6074SOL     OW18901   4.383   3.654   2.807
 6074SOL    HW118902   4.363   3.745   2.784
 6074SOL    HW218903   4.479   3.648   2.801
 6075SOL     OW18904   4.591   2.828   2.718
 6075SOL    HW118905   4.641   2.757   2.758
 6075SOL    HW218906   4.557   2.878   2.792
 6076SOL     OW18907   4.806   2.849   1.952
 6076SOL    HW118908   4.782   2.899   1.874
 6076SOL    HW218909   4.881   2.796   1.925
 6077SOL     OW18910   3.948   3.166   3.718
 6077SOL    HW118911   3.874   3.114   3.688
 6077SOL    HW218912   3.933   3.178   3.812
 6078SOL     OW18913   3.807   3.097   2.527
 6078SOL    HW118914   3.809   3.046   2.608
 6078SOL    HW218915   3.876   3.058   2.473
 6079SOL     OW18916   4.405   3.263   3.490
 6079SOL    HW118917   4.324   3.221   3.520
 6079SOL    HW218918   4.400   3.352   3.525
 6080SOL     OW18919   4.154   2.296   2.387
 6080SOL    HW118920   4.183   2.225   2.330
 6080SOL    HW218921   4.106   2.252   2.458
 6081SOL     OW18922   0.096   3.383   2.961
 6081SOL    HW118923   0.028   3.357   2.899
 6081SOL    HW218924   0.106   3.307   3.019
 6082SOL     OW18925   4.064   2.417   3.151
 6082SOL    HW118926   4.116   2.359   3.206
 6082SOL    HW218927   4.080   2.387   3.062
 6083SOL     OW18928   4.551   3.439   2.540
 6083SOL    HW118929   4.541   3.491   2.460
 6083SOL    HW218930   4.473   3.384   2.542
 6084SOL     OW18931   5.148   2.081   2.977
 6084SOL    HW118932   5.194   2.015   3.030
 6084SOL    HW218933   5.102   2.135   3.040
 6085SOL     OW18934   4.730   1.881   3.006
 6085SOL    HW118935   4.677   1.813   2.965
 6085SOL    HW218936   4.818   1.844   3.010
 6086SOL     OW18937   4.494   3.194   2.176
 6086SOL    HW118938   4.463   3.104   2.182
 6086SOL    HW218939   4.577   3.194   2.224
 6087SOL     OW18940   4.344   3.419   3.147
 6087SOL    HW118941   4.346   3.501   3.196
 6087SOL    HW218942   4.432   3.411   3.109
 6088SOL     OW18943   5.059   1.908   2.030
 6088SOL    HW118944   5.084   1.867   1.947
 6088SOL    HW218945   4.974   1.869   2.050
 6089SOL     OW18946   5.029   2.320   2.545
 6089SOL    HW118947   4.973   2.398   2.549
 6089SOL    HW218948   5.018   2.279   2.631
 6090SOL     OW18949   0.002   2.086   2.741
 6090SOL    HW118950   5.236   2.076   2.809
 6090SOL    HW218951   5.278   2.167   2.696
 6091SOL     OW18952   3.767   2.934   2.168
 6091SOL    HW118953   3.861   2.926   2.151
 6091SOL    HW218954   3.739   2.845   2.190
 6092SOL     OW18955   4.604   3.511   2.208
 6092SOL    HW118956   4.533   3.496   2.145
 6092SOL    HW218957   4.576   3.588   2.257
 6093SOL     OW18958   3.954   2.483   3.848
 6093SOL    HW118959   3.865   2.487   3.882
 6093SOL    HW218960   3.944   2.458   3.756
 6094SOL     OW18961   3.953   2.140   4.715
 6094SOL    HW118962   3.980   2.108   4.801
 6094SOL    HW218963   3.862   2.110   4.706
 6095SOL     OW18964   3.731   2.244   4.357
 6095SOL    HW118965   3.656   2.266   4.412
 6095SOL    HW218966   3.705   2.165   4.311
 6096SOL     OW18967   4.291   3.148   4.898
 6096SOL    HW118968   4.204   3.152   4.859
 6096SOL    HW218969   4.307   3.236   4.931
 6097SOL     OW18970   5.284   3.397   4.430
 6097SOL    HW118971   5.245   3.354   4.505
 6097SOL    HW218972   5.219   3.388   4.360
 6098SOL     OW18973   4.857   2.561   4.425
 6098SOL    HW118974   4.908   2.642   4.414
 6098SOL    HW218975   4.809   2.573   4.507
 6099SOL     OW18976   4.481   3.005   4.763
 6099SOL    HW118977   4.411   3.039   4.820
 6099SOL    HW218978   4.515   3.083   4.719
 6100SOL     OW18979   4.591   2.638   5.546
 6100SOL    HW118980   4.574   2.710   5.607
 6100SOL    HW218981   4.612   2.681   5.464
 6101SOL     OW18982   4.410   2.866   4.372
 6101SOL    HW118983   4.475   2.854   4.442
 6101SOL    HW218984   4.341   2.917   4.412
 6102SOL     OW18985   4.434   3.013   5.535
 6102SOL    HW118986   4.481   3.092   5.562
 6102SOL    HW218987   4.351   3.046   5.500
 6103SOL     OW18988   4.057   3.289   4.793
 6103SOL    HW118989   3.983   3.252   4.746
 6103SOL    HW218990   4.105   3.339   4.727
 6104SOL     OW18991   5.160   3.344   5.073
 6104SOL    HW118992   5.204   3.425   5.099
 6104SOL    HW218993   5.110   3.318   5.151
 6105SOL     OW18994   4.172   2.260   5.213
 6105SOL    HW118995   4.247   2.200   5.218
 6105SOL    HW218996   4.096   2.204   5.224
 6106SOL     OW18997   3.944   3.576   4.198
 6106SOL    HW118998   3.966   3.653   4.250
 6106SOL    HW218999   4.015   3.568   4.135
 6107SOL     OW19000   4.860   3.201   5.417
 6107SOL    HW119001   4.899   3.198   5.505
 6107SOL    HW219002   4.806   3.122   5.412
 6108SOL     OW19003   3.957   3.303   4.257
 6108SOL    HW119004   3.938   3.397   4.263
 6108SOL    HW219005   3.899   3.263   4.321
 6109SOL     OW19006   3.975   2.950   4.610
 6109SOL    HW119007   3.974   2.861   4.646
 6109SOL    HW219008   3.927   3.002   4.674
 6110SOL     OW19009   4.334   3.654   5.151
 6110SOL    HW119010   4.254   3.637   5.199
 6110SOL    HW219011   4.359   3.743   5.178
 6111SOL     OW19012   4.312   2.843   3.857
 6111SOL    HW119013   4.356   2.894   3.789
 6111SOL    HW219014   4.351   2.873   3.939
 6112SOL     OW19015   3.835   2.511   4.287
 6112SOL    HW119016   3.812   2.419   4.299
 6112SOL    HW219017   3.851   2.543   4.376
 6113SOL     OW19018   3.756   3.457   3.849
 6113SOL    HW119019   3.739   3.365   3.868
 6113SOL    HW219020   3.731   3.503   3.929
 6114SOL     OW19021   0.112   2.803   4.301
 6114SOL    HW119022   0.198   2.766   4.318
 6114SOL    HW219023   0.130   2.885   4.255
 6115SOL     OW19024   3.849   2.606   5.309
 6115SOL    HW119025   3.943   2.622   5.318
 6115SOL    HW219026   3.808   2.691   5.329
 6116SOL     OW19027   4.337   3.246   4.459
 6116SOL    HW119028   4.291   3.163   4.468
 6116SOL    HW219029   4.321   3.273   4.369
 6117SOL     OW19030   5.008   3.099   5.149
 6117SOL    HW119031   5.041   3.032   5.089
 6117SOL    HW219032   5.063   3.091   5.227
 6118SOL     OW19033   4.537   1.862   4.231
 6118SOL    HW119034   4.578   1.946   4.213
 6118SOL    HW219035   4.444   1.881   4.241
 6119SOL     OW19036   3.911   2.823   4.994
 6119SOL    HW119037   4.000   2.790   4.983
 6119SOL    HW219038   3.857   2.765   4.941
 6120SOL     OW19039   4.897   3.669   5.347
 6120SOL    HW119040   4.920   3.727   5.274
 6120SOL    HW219041   4.918   3.581   5.314
 6121SOL     OW19042   4.056   2.112   5.535
 6121SOL    HW119043   4.101   2.196   5.549
 6121SOL    HW219044   3.967   2.127   5.566
 6122SOL     OW19045   5.169   3.296   4.662
 6122SOL    HW119046   5.107   3.303   4.734
 6122SOL    HW219047   5.163   3.205   4.633
 6123SOL     OW19048   4.320   2.584   3.989
 6123SOL    HW119049   4.326   2.665   3.938
 6123SOL    HW219050   4.255   2.603   4.056
 6124SOL     OW19051   4.996   2.199   4.644
 6124SOL    HW119052   4.908   2.168   4.665
 6124SOL    HW219053   5.051   2.164   4.715
 6125SOL     OW19054   4.516   2.479   5.176
 6125SOL    HW119055   4.489   2.456   5.265
 6125SOL    HW219056   4.475   2.413   5.120
 6126SOL     OW19057   5.115   2.341   5.404
 6126SOL    HW119058   5.116   2.379   5.492
 6126SOL    HW219059   5.190   2.281   5.404
 6127SOL     OW19060   4.680   2.750   5.306
 6127SOL    HW119061   4.732   2.678   5.271
 6127SOL    HW219062   4.632   2.784   5.230
 6128SOL     OW19063   4.715   2.276   4.963
 6128SOL    HW119064   4.630   2.297   5.001
 6128SOL    HW219065   4.694   2.228   4.882
 6129SOL     OW19066   4.774   2.560   4.150
 6129SOL    HW119067   4.789   2.554   4.244
 6129SOL    HW219068   4.692   2.513   4.136
 6130SOL     OW19069   3.851   3.704   5.300
 6130SOL    HW119070   3.850   3.685   5.394
 6130SOL    HW219071   3.758   3.705   5.276
 6131SOL     OW19072   4.615   2.209   3.918
 6131SOL    HW119073   4.656   2.270   3.857
 6131SOL    HW219074   4.631   2.122   3.881
 6132SOL     OW19075   5.092   3.007   4.271
 6132SOL    HW119076   5.179   3.006   4.231
 6132SOL    HW219077   5.041   3.068   4.216
 6133SOL     OW19078   4.274   2.045   4.617
 6133SOL    HW119079   4.276   2.072   4.708
 6133SOL    HW219080   4.276   2.126   4.567
 6134SOL     OW19081   4.731   3.306   4.197
 6134SOL    HW119082   4.692   3.377   4.147
 6134SOL    HW219083   4.715   3.328   4.289
 6135SOL     OW19084   4.079   3.670   4.585
 6135SOL    HW119085   4.123   3.586   4.593
 6135SOL    HW219086   4.148   3.735   4.602
 6136SOL     OW19087   4.939   3.406   5.244
 6136SOL    HW119088   4.928   3.331   5.303
 6136SOL    HW219089   4.887   3.384   5.167
 6137SOL     OW19090   4.047   2.819   3.975
 6137SOL    HW119091   4.128   2.837   3.927
 6137SOL    HW219092   4.013   2.739   3.935
 6138SOL     OW19093   4.189   3.126   5.462
 6138SOL    HW119094   4.162   3.131   5.370
 6138SOL    HW219095   4.107   3.125   5.511
 6139SOL     OW19096   4.833   3.637   3.960
 6139SOL    HW119097   4.762   3.592   4.005
 6139SOL    HW219098   4.858   3.578   3.889
 6140SOL     OW19099   3.926   2.144   5.223
 6140SOL    HW119100   3.848   2.198   5.209
 6140SOL    HW219101   3.900   2.081   5.290
 6141SOL     OW19102   4.190   3.599   4.046
 6141SOL    HW119103   4.232   3.657   4.110
 6141SOL    HW219104   4.262   3.570   3.989
 6142SOL     OW19105   5.122   1.970   4.148
 6142SOL    HW119106   5.102   1.951   4.057
 6142SOL    HW219107   5.216   1.984   4.150
 6143SOL     OW19108   3.977   3.653   4.957
 6143SOL    HW119109   4.031   3.590   5.003
 6143SOL    HW219110   3.971   3.618   4.868
 6144SOL     OW19111   4.662   3.560   4.624
 6144SOL    HW119112   4.741   3.509   4.641
 6144SOL    HW219113   4.617   3.511   4.555
 6145SOL     OW19114   4.117   2.558   4.200
 6145SOL    HW119115   4.137   2.465   4.211
 6145SOL    HW219116   4.023   2.564   4.211
 6146SOL     OW19117   4.357   1.985   3.830
 6146SOL    HW119118   4.429   1.923   3.841
 6146SOL    HW219119   4.309   1.953   3.754
 6147SOL     OW19120   4.491   2.140   5.478
 6147SOL    HW119121   4.566   2.080   5.480
 6147SOL    HW219122   4.441   2.119   5.557
 6148SOL     OW19123   4.600   3.383   4.918
 6148SOL    HW119124   4.585   3.348   4.830
 6148SOL    HW219125   4.670   3.329   4.954
 6149SOL     OW19126   5.058   2.453   5.156
 6149SOL    HW119127   5.091   2.420   5.240
 6149SOL    HW219128   5.100   2.538   5.146
 6150SOL     OW19129   4.538   3.258   4.662
 6150SOL    HW119130   4.622   3.247   4.618
 6150SOL    HW219131   4.473   3.258   4.591
 6151SOL     OW19132   4.651   2.371   4.627
 6151SOL    HW119133   4.628   2.362   4.535
 6151SOL    HW219134   4.683   2.285   4.652
 6152SOL     OW19135   4.272   1.925   4.227
 6152SOL    HW119136   4.192   1.925   4.279
 6152SOL    HW219137   4.267   2.004   4.173
 6153SOL     OW19138   5.138   3.042   3.767
 6153SOL    HW119139   5.149   2.965   3.823
 6153SOL    HW219140   5.050   3.074   3.788
 6154SOL     OW19141   4.017   1.909   3.909
 6154SOL    HW119142   4.076   1.973   3.869
 6154SOL    HW219143   4.075   1.845   3.950
 6155SOL     OW19144   4.660   2.108   4.185
 6155SOL    HW119145   4.633   2.149   4.103
 6155SOL    HW219146   4.755   2.119   4.187
 6156SOL     OW19147   4.801   2.543   5.185
 6156SOL    HW119148   4.733   2.475   5.187
 6156SOL    HW219149   4.883   2.494   5.175
 6157SOL     OW19150   4.941   3.433   4.518
 6157SOL    HW119151   4.964   3.499   4.453
 6157SOL    HW219152   5.020   3.423   4.571
 6158SOL     OW19153   4.192   3.010   4.459
 6158SOL    HW119154   4.121   2.991   4.521
 6158SOL    HW219155   4.154   2.994   4.373
 6159SOL     OW19156   4.996   3.656   4.328
 6159SOL    HW119157   5.038   3.717   4.268
 6159SOL    HW219158   4.930   3.709   4.374
 6160SOL     OW19159   4.749   2.407   3.745
 6160SOL    HW119160   4.705   2.489   3.724
 6160SOL    HW219161   4.810   2.429   3.815
 6161SOL     OW19162   3.814   2.404   5.121
 6161SOL    HW119163   3.904   2.413   5.089
 6161SOL    HW219164   3.800   2.479   5.178
 6162SOL     OW19165   4.284   2.089   4.889
 6162SOL    HW119166   4.325   2.012   4.928
 6162SOL    HW219167   4.193   2.086   4.919
 6163SOL     OW19168   4.593   2.321   4.363
 6163SOL    HW119169   4.546   2.376   4.299
 6163SOL    HW219170   4.613   2.241   4.316
 6164SOL     OW19171   4.739   1.915   4.476
 6164SOL    HW119172   4.681   1.907   4.401
 6164SOL    HW219173   4.717   1.839   4.531
 6165SOL     OW19174   5.158   3.037   4.575
 6165SOL    HW119175   5.101   2.961   4.588
 6165SOL    HW219176   5.169   3.043   4.481
 6166SOL     OW19177   4.215   3.279   3.882
 6166SOL    HW119178   4.141   3.249   3.934
 6166SOL    HW219179   4.198   3.244   3.794
 6167SOL     OW19180   5.127   2.425   3.803
 6167SOL    HW119181   5.055   2.415   3.866
 6167SOL    HW219182   5.202   2.387   3.847
 6168SOL     OW19183   4.250   2.125   4.044
 6168SOL    HW119184   4.293   2.076   3.973
 6168SOL    HW219185   4.229   2.210   4.005
 6169SOL     OW19186   4.782   3.215   5.057
 6169SOL    HW119187   4.707   3.185   5.108
 6169SOL    HW219188   4.857   3.173   5.098
 6170SOL     OW19189   0.006   3.466   5.342
 6170SOL    HW119190   0.040   3.473   5.252
 6170SOL    HW219191   0.083   3.446   5.395
 6171SOL     OW19192   4.851   3.064   4.831
 6171SOL    HW119193   4.791   3.101   4.895
 6171SOL    HW219194   4.817   3.094   4.747
 6172SOL     OW19195   4.642   1.960   5.121
 6172SOL    HW119196   4.664   1.942   5.030
 6172SOL    HW219197   4.721   1.999   5.158
 6173SOL     OW19198   4.708   2.975   5.449
 6173SOL    HW119199   4.616   2.992   5.468
 6173SOL    HW219200   4.707   2.898   5.391
 6174SOL     OW19201   4.432   2.923   4.095
 6174SOL    HW119202   4.418   2.907   4.189
 6174SOL    HW219203   4.508   2.869   4.073
 6175SOL     OW19204   4.144   2.680   4.977
 6175SOL    HW119205   4.213   2.687   5.043
 6175SOL    HW219206   4.109   2.591   4.989
 6176SOL     OW19207   4.989   2.238   5.000
 6176SOL    HW119208   5.024   2.317   5.041
 6176SOL    HW219209   4.900   2.261   4.974
 6177SOL     OW19210   3.794   3.434   5.074
 6177SOL    HW119211   3.764   3.511   5.025
 6177SOL    HW219212   3.890   3.440   5.071
 6178SOL     OW19213   4.076   2.970   4.215
 6178SOL    HW119214   4.079   3.044   4.154
 6178SOL    HW219215   4.072   2.893   4.158
 6179SOL     OW19216   4.278   2.400   4.584
 6179SOL    HW119217   4.294   2.458   4.510
 6179SOL    HW219218   4.342   2.426   4.650
 6180SOL     OW19219   4.972   3.211   4.112
 6180SOL    HW119220   5.026   3.283   4.142
 6180SOL    HW219221   4.884   3.230   4.145
 6181SOL     OW19222   4.993   3.318   4.863
 6181SOL    HW119223   5.048   3.321   4.941
 6181SOL    HW219224   4.939   3.239   4.874
 6182SOL     OW19225   4.072   3.387   5.041
 6182SOL    HW119226   4.060   3.346   4.956
 6182SOL    HW219227   4.166   3.401   5.048
 6183SOL     OW19228   4.137   2.607   5.326
 6183SOL    HW119229   4.199   2.651   5.268
 6183SOL    HW219230   4.176   2.520   5.341
 6184SOL     OW19231   4.718   1.984   5.480
 6184SOL    HW119232   4.774   2.057   5.451
 6184SOL    HW219233   4.766   1.906   5.455
 6185SOL     OW19234   4.222   1.904   5.471
 6185SOL    HW119235   4.180   1.849   5.405
 6185SOL    HW219236   4.162   1.978   5.483
 6186SOL     OW19237   4.310   2.734   4.757
 6186SOL    HW119238   4.338   2.826   4.753
 6186SOL    HW219239   4.251   2.729   4.832
 6187SOL     OW19240   5.086   2.720   4.762
 6187SOL    HW119241   5.009   2.703   4.707
 6187SOL    HW219242   5.136   2.638   4.758
 6188SOL     OW19243   4.929   2.393   3.990
 6188SOL    HW119244   4.936   2.313   4.042
 6188SOL    HW219245   4.886   2.456   4.047
 6189SOL     OW19246   4.024   2.061   4.970
 6189SOL    HW119247   3.986   2.094   5.052
 6189SOL    HW219248   4.004   1.968   4.971
 6190SOL     OW19249   3.764   3.173   5.003
 6190SOL    HW119250   3.800   3.118   5.073
 6190SOL    HW219251   3.777   3.263   5.035
 6191SOL     OW19252   4.448   2.492   4.782
 6191SOL    HW119253   4.523   2.477   4.725
 6191SOL    HW219254   4.420   2.582   4.762
 6192SOL     OW19255   4.027   1.927   4.347
 6192SOL    HW119256   4.008   2.017   4.371
 6192SOL    HW219257   4.034   1.881   4.431
 6193SOL     OW19258   0.035   2.254   4.084
 6193SOL    HW119259   0.056   2.180   4.142
 6193SOL    HW219260   0.015   2.326   4.144
 6194SOL     OW19261   4.751   2.621   4.685
 6194SOL    HW119262   4.750   2.639   4.779
 6194SOL    HW219263   4.725   2.529   4.677
 6195SOL     OW19264   4.698   3.423   5.437
 6195SOL    HW119265   4.687   3.471   5.355
 6195SOL    HW219266   4.747   3.345   5.413
 6196SOL     OW19267   4.077   2.779   5.531
 6196SOL    HW119268   4.159   2.797   5.577
 6196SOL    HW219269   4.101   2.716   5.464
 6197SOL     OW19270   5.027   2.691   3.761
 6197SOL    HW119271   5.064   2.603   3.763
 6197SOL    HW219272   5.054   2.727   3.676
 6198SOL     OW19273   4.789   3.196   4.579
 6198SOL    HW119274   4.792   3.124   4.516
 6198SOL    HW219275   4.848   3.263   4.543
 6199SOL     OW19276   4.033   2.679   4.682
 6199SOL    HW119277   4.126   2.694   4.669
 6199SOL    HW219278   4.027   2.586   4.706
 6200SOL     OW19279   4.055   2.386   4.734
 6200SOL    HW119280   4.023   2.297   4.719
 6200SOL    HW219281   4.132   2.393   4.678
 6201SOL     OW19282   4.857   2.239   5.404
 6201SOL    HW119283   4.810   2.294   5.467
 6201SOL    HW219284   4.944   2.278   5.399
 6202SOL     OW19285   4.885   2.065   5.193
 6202SOL    HW119286   4.874   2.127   5.265
 6202SOL    HW219287   4.923   2.117   5.122
 6203SOL     OW19288   3.729   3.184   3.919
 6203SOL    HW119289   3.641   3.195   3.883
 6203SOL    HW219290   3.729   3.095   3.956
 6204SOL     OW19291   3.816   3.654   4.663
 6204SOL    HW119292   3.786   3.573   4.622
 6204SOL    HW219293   3.906   3.665   4.632
 6205SOL     OW19294   4.221   3.436   4.629
 6205SOL    HW119295   4.290   3.498   4.653
 6205SOL    HW219296   4.266   3.371   4.573
 6206SOL     OW19297   4.709   2.655   4.951
 6206SOL    HW119298   4.763   2.631   5.026
 6206SOL    HW219299   4.623   2.618   4.971
 6207SOL     OW19300   3.776   2.404   4.829
 6207SOL    HW119301   3.863   2.392   4.793
 6207SOL    HW219302   3.788   2.403   4.924
 6208SOL     OW19303   3.916   2.381   5.451
 6208SOL    HW119304   3.970   2.341   5.382
 6208SOL    HW219305   3.869   2.451   5.406
 6209SOL     OW19306   5.111   2.801   5.390
 6209SOL    HW119307   5.120   2.896   5.378
 6209SOL    HW219308   5.114   2.766   5.301
 6210SOL     OW19309   4.540   2.431   4.082
 6210SOL    HW119310   4.543   2.356   4.022
 6210SOL    HW219311   4.466   2.483   4.051
 6211SOL     OW19312   3.968   3.414   5.452
 6211SOL    HW119313   3.945   3.478   5.519
 6211SOL    HW219314   3.969   3.330   5.499
 6212SOL     OW19315   4.423   2.313   4.985
 6212SOL    HW119316   4.371   2.239   4.954
 6212SOL    HW219317   4.420   2.376   4.912
 6213SOL     OW19318   4.645   3.542   5.192
 6213SOL    HW119319   4.624   3.510   5.104
 6213SOL    HW219320   4.648   3.637   5.184
 6214SOL     OW19321   4.190   2.355   3.912
 6214SOL    HW119322   4.247   2.428   3.933
 6214SOL    HW219323   4.104   2.395   3.899
 6215SOL     OW19324   3.870   3.000   5.194
 6215SOL    HW119325   3.876   2.949   5.275
 6215SOL    HW219326   3.889   2.937   5.125
 6216SOL     OW19327   5.055   2.912   4.949
 6216SOL    HW119328   5.076   2.848   4.881
 6216SOL    HW219329   4.982   2.962   4.911
 6217SOL     OW19330   5.034   2.721   4.040
 6217SOL    HW119331   4.951   2.689   4.077
 6217SOL    HW219332   5.023   2.712   3.946
 6218SOL     OW19333   4.960   3.593   4.846
 6218SOL    HW119334   5.046   3.613   4.808
 6218SOL    HW219335   4.960   3.498   4.856
 6219SOL     OW19336   3.820   3.144   4.740
 6219SOL    HW119337   3.798   3.147   4.833
 6219SOL    HW219338   3.752   3.091   4.700
 6220SOL     OW19339   4.401   3.526   5.450
 6220SOL    HW119340   4.350   3.607   5.446
 6220SOL    HW219341   4.469   3.536   5.384
 6221SOL     OW19342   0.083   2.021   4.253
 6221SOL    HW119343   0.168   2.009   4.210
 6221SOL    HW219344   0.070   1.940   4.303
 6222SOL     OW19345   5.111   3.432   4.203
 6222SOL    HW119346   5.180   3.471   4.151
 6222SOL    HW219347   5.062   3.506   4.238
 6223SOL     OW19348   3.859   3.659   5.567
 6223SOL    HW119349   3.809   3.594   5.616
 6223SOL    HW219350   3.908   3.707   5.634
 6224SOL     OW19351   5.015   2.781   4.397
 6224SOL    HW119352   5.093   2.726   4.383
 6224SOL    HW219353   5.034   2.861   4.347
 6225SOL     OW19354   4.540   3.135   5.155
 6225SOL    HW119355   4.512   3.174   5.238
 6225SOL    HW219356   4.470   3.157   5.093
 6226SOL     OW19357   4.395   3.481   3.880
 6226SOL    HW119358   4.406   3.493   3.785
 6226SOL    HW219359   4.341   3.403   3.888
 6227SOL     OW19360   3.988   2.178   4.442
 6227SOL    HW119361   3.902   2.211   4.416
 6227SOL    HW219362   3.984   2.169   4.537
 6228SOL     OW19363   4.909   3.471   3.765
 6228SOL    HW119364   4.920   3.377   3.776
 6228SOL    HW219365   4.855   3.480   3.686
 6229SOL     OW19366   4.548   2.868   5.096
 6229SOL    HW119367   4.591   2.864   5.011
 6229SOL    HW219368   4.548   2.961   5.119
 6230SOL     OW19369   4.640   2.772   4.014
 6230SOL    HW119370   4.702   2.804   3.948
 6230SOL    HW219371   4.687   2.702   4.058
 6231SOL     OW19372   4.092   3.164   5.217
 6231SOL    HW119373   4.081   3.241   5.161
 6231SOL    HW219374   4.015   3.110   5.198
 6232SOL     OW19375   4.775   2.968   4.430
 6232SOL    HW119376   4.704   2.918   4.471
 6232SOL    HW219377   4.832   2.902   4.392
 6233SOL     OW19378   4.740   2.101   4.692
 6233SOL    HW119379   4.737   2.054   4.609
 6233SOL    HW219380   4.736   2.033   4.759
 6234SOL     OW19381   4.326   3.350   4.206
 6234SOL    HW119382   4.370   3.300   4.137
 6234SOL    HW219383   4.258   3.400   4.161
 6235SOL     OW19384   3.983   3.208   4.011
 6235SOL    HW119385   3.890   3.204   3.989
 6235SOL    HW219386   3.986   3.245   4.099
 6236SOL     OW19387   3.833   2.874   5.438
 6236SOL    HW119388   3.759   2.858   5.496
 6236SOL    HW219389   3.910   2.844   5.488
 6237SOL     OW19390   4.398   2.058   5.223
 6237SOL    HW119391   4.482   2.039   5.182
 6237SOL    HW219392   4.421   2.089   5.311
 6238SOL     OW19393   3.795   2.200   3.758
 6238SOL    HW119394   3.718   2.167   3.712
 6238SOL    HW219395   3.826   2.273   3.704
 6239SOL     OW19396   5.162   2.722   5.128
 6239SOL    HW119397   5.110   2.778   5.071
 6239SOL    HW219398   5.251   2.729   5.094
 6240SOL     OW19399   3.794   2.020   4.033
 6240SOL    HW119400   3.779   2.096   3.977
 6240SOL    HW219401   3.879   1.986   4.006
 6241SOL     OW19402   4.907   3.192   3.838
 6241SOL    HW119403   4.813   3.174   3.839
 6241SOL    HW219404   4.931   3.199   3.931
 6242SOL     OW19405   4.344   2.693   5.159
 6242SOL    HW119406   4.400   2.769   5.143
 6242SOL    HW219407   4.404   2.619   5.166
 6243SOL     OW19408   4.442   2.426   5.429
 6243SOL    HW119409   4.481   2.488   5.490
 6243SOL    HW219410   4.471   2.340   5.460
 6244SOL     OW19411   5.182   3.067   5.356
 6244SOL    HW119412   5.173   3.079   5.451
 6244SOL    HW219413   5.277   3.072   5.340
 6245SOL     OW19414   4.104   3.601   5.288
 6245SOL    HW119415   4.019   3.642   5.275
 6245SOL    HW219416   4.085   3.518   5.330
 6246SOL     OW19417   4.941   2.182   4.180
 6246SOL    HW119418   5.003   2.110   4.167
 6246SOL    HW219419   4.971   2.226   4.260
 6247SOL     OW19420   4.315   2.600   4.392
 6247SOL    HW119421   4.354   2.687   4.378
 6247SOL    HW219422   4.247   2.593   4.326
 6248SOL     OW19423   4.591   3.229   3.758
 6248SOL    HW119424   4.549   3.259   3.838
 6248SOL    HW219425   4.607   3.309   3.708
 6249SOL     OW19426   4.383   3.654   4.669
 6249SOL    HW119427   4.364   3.745   4.646
 6249SOL    HW219428   4.479   3.648   4.663
 6250SOL     OW19429   4.591   2.828   4.580
 6250SOL    HW119430   4.641   2.757   4.620
 6250SOL    HW219431   4.557   2.878   4.654
 6251SOL     OW19432   4.806   2.849   3.814
 6251SOL    HW119433   4.782   2.899   3.736
 6251SOL    HW219434   4.881   2.796   3.787
 6252SOL     OW19435   3.949   3.166   5.580
 6252SOL    HW119436   3.878   3.107   5.553
 6252SOL    HW219437   3.934   3.179   5.674
 6253SOL     OW19438   3.817   3.101   4.395
 6253SOL    HW119439   3.832   3.053   4.477
 6253SOL    HW219440   3.876   3.059   4.332
 6254SOL     OW19441   4.404   3.263   5.351
 6254SOL    HW119442   4.324   3.221   5.383
 6254SOL    HW219443   4.401   3.352   5.387
 6255SOL     OW19444   4.151   2.296   4.248
 6255SOL    HW119445   4.183   2.226   4.192
 6255SOL    HW219446   4.106   2.251   4.320
 6256SOL     OW19447   0.096   3.383   4.823
 6256SOL    HW119448   0.028   3.357   4.761
 6256SOL    HW219449   0.106   3.307   4.880
 6257SOL     OW19450   4.061   2.420   5.014
 6257SOL    HW119451   4.112   2.362   5.070
 6257SOL    HW219452   4.078   2.388   4.925
 6258SOL     OW19453   4.551   3.440   4.402
 6258SOL    HW119454   4.542   3.491   4.322
 6258SOL    HW219455   4.473   3.384   4.404
 6259SOL     OW19456   5.148   2.081   4.839
 6259SOL    HW119457   5.193   2.015   4.892
 6259SOL    HW219458   5.102   2.136   4.902
 6260SOL     OW19459   4.730   1.881   4.867
 6260SOL    HW119460   4.677   1.813   4.828
 6260SOL    HW219461   4.818   1.844   4.871
 6261SOL     OW19462   4.494   3.194   4.038
 6261SOL    HW119463   4.463   3.104   4.044
 6261SOL    HW219464   4.577   3.194   4.086
 6262SOL     OW19465   4.344   3.419   5.009
 6262SOL    HW119466   4.346   3.501   5.058
 6262SOL    HW219467   4.431   3.411   4.971
 6263SOL     OW19468   5.059   1.908   3.892
 6263SOL    HW119469   5.084   1.867   3.809
 6263SOL    HW219470   4.974   1.869   3.912
 6264SOL     OW19471   5.029   2.320   4.407
 6264SOL    HW119472   4.973   2.398   4.411
 6264SOL    HW219473   5.018   2.279   4.493
 6265SOL     OW19474   0.002   2.086   4.603
 6265SOL    HW119475   5.236   2.076   4.671
 6265SOL    HW219476   5.278   2.167   4.558
 6266SOL     OW19477   3.773   2.936   4.025
 6266SOL    HW119478   3.866   2.922   4.009
 6266SOL    HW219479   3.740   2.850   4.052
 6267SOL     OW19480   4.604   3.511   4.070
 6267SOL    HW119481   4.533   3.496   4.007
 6267SOL    HW219482   4.576   3.588   4.119
 6268SOL     OW19483   3.954   2.486   5.708
 6268SOL    HW119484   3.865   2.484   5.742
 6268SOL    HW219485   3.946   2.460   5.616
 6269SOL     OW19486   3.949   2.142   6.577
 6269SOL    HW119487   3.977   2.109   6.662
 6269SOL    HW219488   3.859   2.110   6.568
 6270SOL     OW19489   3.729   2.245   6.224
 6270SOL    HW119490   3.646   2.269   6.265
 6270SOL    HW219491   3.709   2.165   6.175
 6271SOL     OW19492   4.291   3.148   6.760
 6271SOL    HW119493   4.203   3.151   6.722
 6271SOL    HW219494   4.306   3.236   6.793
 6272SOL     OW19495   5.284   3.397   6.292
 6272SOL    HW119496   5.245   3.354   6.367
 6272SOL    HW219497   5.219   3.388   6.222
 6273SOL     OW19498   4.857   2.561   6.287
 6273SOL    HW119499   4.908   2.642   6.277
 6273SOL    HW219500   4.809   2.573   6.369
 6274SOL     OW19501   4.481   3.005   6.625
 6274SOL    HW119502   4.411   3.039   6.682
 6274SOL    HW219503   4.515   3.082   6.581
 6275SOL     OW19504   4.590   2.640   7.407
 6275SOL    HW119505   4.569   2.715   7.463
 6275SOL    HW219506   4.614   2.679   7.323
 6276SOL     OW19507   4.410   2.866   6.234
 6276SOL    HW119508   4.475   2.854   6.304
 6276SOL    HW219509   4.340   2.917   6.274
 6277SOL     OW19510   4.433   3.014   7.397
 6277SOL    HW119511   4.481   3.092   7.423
 6277SOL    HW219512   4.351   3.046   7.362
 6278SOL     OW19513   4.055   3.289   6.654
 6278SOL    HW119514   3.982   3.252   6.603
 6278SOL    HW219515   4.105   3.339   6.590
 6279SOL     OW19516   5.160   3.344   6.935
 6279SOL    HW119517   5.204   3.425   6.961
 6279SOL    HW219518   5.109   3.318   7.012
 6280SOL     OW19519   4.172   2.261   7.076
 6280SOL    HW119520   4.247   2.201   7.080
 6280SOL    HW219521   4.096   2.204   7.087
 6281SOL     OW19522   3.944   3.576   6.059
 6281SOL    HW119523   3.965   3.652   6.112
 6281SOL    HW219524   4.016   3.568   5.996
 6282SOL     OW19525   4.860   3.201   7.278
 6282SOL    HW119526   4.899   3.199   7.365
 6282SOL    HW219527   4.807   3.121   7.273
 6283SOL     OW19528   3.953   3.303   6.120
 6283SOL    HW119529   3.937   3.397   6.125
 6283SOL    HW219530   3.893   3.265   6.184
 6284SOL     OW19531   3.980   2.952   6.476
 6284SOL    HW119532   3.977   2.866   6.518
 6284SOL    HW219533   3.922   3.007   6.530
 6285SOL     OW19534   4.335   3.654   7.013
 6285SOL    HW119535   4.254   3.636   7.061
 6285SOL    HW219536   4.359   3.743   7.040
 6286SOL     OW19537   4.311   2.843   5.719
 6286SOL    HW119538   4.355   2.893   5.651
 6286SOL    HW219539   4.351   2.873   5.801
 6287SOL     OW19540   3.838   2.514   6.145
 6287SOL    HW119541   3.810   2.425   6.166
 6287SOL    HW219542   3.830   2.562   6.228
 6288SOL     OW19543   3.755   3.458   5.710
 6288SOL    HW119544   3.738   3.366   5.730
 6288SOL    HW219545   3.731   3.505   5.790
 6289SOL     OW19546   0.112   2.803   6.162
 6289SOL    HW119547   0.198   2.766   6.180
 6289SOL    HW219548   0.130   2.885   6.117
 6290SOL     OW19549   3.846   2.604   7.172
 6290SOL    HW119550   3.938   2.629   7.182
 6290SOL    HW219551   3.798   2.686   7.179
 6291SOL     OW19552   4.337   3.246   6.321
 6291SOL    HW119553   4.291   3.163   6.330
 6291SOL    HW219554   4.321   3.273   6.231
 6292SOL     OW19555   5.008   3.099   7.010
 6292SOL    HW119556   5.042   3.032   6.951
 6292SOL    HW219557   5.063   3.091   7.089
 6293SOL     OW19558   4.537   1.861   6.094
 6293SOL    HW119559   4.578   1.946   6.075
 6293SOL    HW219560   4.444   1.881   6.103
 6294SOL     OW19561   3.915   2.829   6.856
 6294SOL    HW119562   3.999   2.786   6.841
 6294SOL    HW219563   3.851   2.773   6.812
 6295SOL     OW19564   4.898   3.669   7.208
 6295SOL    HW119565   4.920   3.727   7.135
 6295SOL    HW219566   4.919   3.581   7.177
 6296SOL     OW19567   4.055   2.111   7.397
 6296SOL    HW119568   4.101   2.194   7.409
 6296SOL    HW219569   3.966   2.128   7.428
 6297SOL     OW19570   5.169   3.296   6.524
 6297SOL    HW119571   5.107   3.303   6.596
 6297SOL    HW219572   5.163   3.205   6.495
 6298SOL     OW19573   4.320   2.584   5.851
 6298SOL    HW119574   4.326   2.665   5.800
 6298SOL    HW219575   4.255   2.603   5.919
 6299SOL     OW19576   4.997   2.199   6.506
 6299SOL    HW119577   4.908   2.168   6.527
 6299SOL    HW219578   5.051   2.164   6.577
 6300SOL     OW19579   4.515   2.480   7.038
 6300SOL    HW119580   4.489   2.456   7.127
 6300SOL    HW219581   4.475   2.413   6.982
 6301SOL     OW19582   5.115   2.342   7.266
 6301SOL    HW119583   5.116   2.380   7.354
 6301SOL    HW219584   5.190   2.282   7.265
 6302SOL     OW19585   4.679   2.750   7.168
 6302SOL    HW119586   4.732   2.679   7.132
 6302SOL    HW219587   4.632   2.784   7.092
 6303SOL     OW19588   4.715   2.276   6.825
 6303SOL    HW119589   4.630   2.297   6.863
 6303SOL    HW219590   4.694   2.228   6.744
 6304SOL     OW19591   4.774   2.560   6.012
 6304SOL    HW119592   4.789   2.554   6.106
 6304SOL    HW219593   4.692   2.513   5.998
 6305SOL     OW19594   3.812   2.683   6.362
 6305SOL    HW119595   3.894   2.675   6.412
 6305SOL    HW219596   3.770   2.761   6.397
 6306SOL     OW19597   3.851   3.707   7.164
 6306SOL    HW119598   3.850   3.687   7.257
 6306SOL    HW219599   3.759   3.702   7.137
 6307SOL     OW19600   4.615   2.209   5.781
 6307SOL    HW119601   4.656   2.269   5.719
 6307SOL    HW219602   4.630   2.122   5.743
 6308SOL     OW19603   5.092   3.007   6.133
 6308SOL    HW119604   5.179   3.006   6.093
 6308SOL    HW219605   5.041   3.068   6.078
 6309SOL     OW19606   4.274   2.044   6.479
 6309SOL    HW119607   4.276   2.073   6.570
 6309SOL    HW219608   4.275   2.126   6.428
 6310SOL     OW19609   4.731   3.306   6.059
 6310SOL    HW119610   4.692   3.378   6.009
 6310SOL    HW219611   4.715   3.328   6.151
 6311SOL     OW19612   4.078   3.670   6.447
 6311SOL    HW119613   4.122   3.585   6.455
 6311SOL    HW219614   4.147   3.734   6.464
 6312SOL     OW19615   4.940   3.405   7.105
 6312SOL    HW119616   4.928   3.332   7.165
 6312SOL    HW219617   4.886   3.385   7.030
 6313SOL     OW19618   4.045   2.819   5.835
 6313SOL    HW119619   4.127   2.838   5.790
 6313SOL    HW219620   4.014   2.737   5.796
 6314SOL     OW19621   4.189   3.124   7.323
 6314SOL    HW119622   4.161   3.130   7.232
 6314SOL    HW219623   4.107   3.124   7.373
 6315SOL     OW19624   4.833   3.637   5.822
 6315SOL    HW119625   4.762   3.592   5.867
 6315SOL    HW219626   4.858   3.578   5.751
 6316SOL     OW19627   3.924   2.144   7.087
 6316SOL    HW119628   3.842   2.193   7.080
 6316SOL    HW219629   3.907   2.076   7.152
 6317SOL     OW19630   4.190   3.599   5.907
 6317SOL    HW119631   4.231   3.657   5.972
 6317SOL    HW219632   4.262   3.570   5.851
 6318SOL     OW19633   5.122   1.969   6.010
 6318SOL    HW119634   5.101   1.951   5.919
 6318SOL    HW219635   5.216   1.984   6.012
 6319SOL     OW19636   3.978   3.654   6.818
 6319SOL    HW119637   4.031   3.589   6.865
 6319SOL    HW219638   3.969   3.618   6.730
 6320SOL     OW19639   4.662   3.560   6.486
 6320SOL    HW119640   4.741   3.509   6.504
 6320SOL    HW219641   4.617   3.511   6.417
 6321SOL     OW19642   4.116   2.557   6.063
 6321SOL    HW119643   4.138   2.465   6.073
 6321SOL    HW219644   4.022   2.562   6.081
 6322SOL     OW19645   4.357   1.985   5.692
 6322SOL    HW119646   4.429   1.923   5.703
 6322SOL    HW219647   4.309   1.953   5.616
 6323SOL     OW19648   4.490   2.139   7.339
 6323SOL    HW119649   4.565   2.080   7.342
 6323SOL    HW219650   4.445   2.124   7.422
 6324SOL     OW19651   4.600   3.383   6.779
 6324SOL    HW119652   4.585   3.348   6.692
 6324SOL    HW219653   4.670   3.329   6.816
 6325SOL     OW19654   5.058   2.453   7.018
 6325SOL    HW119655   5.091   2.421   7.102
 6325SOL    HW219656   5.100   2.539   7.007
 6326SOL     OW19657   4.538   3.258   6.524
 6326SOL    HW119658   4.622   3.247   6.480
 6326SOL    HW219659   4.473   3.258   6.453
 6327SOL     OW19660   4.651   2.371   6.489
 6327SOL    HW119661   4.628   2.362   6.397
 6327SOL    HW219662   4.683   2.285   6.514
 6328SOL     OW19663   4.272   1.925   6.089
 6328SOL    HW119664   4.192   1.926   6.141
 6328SOL    HW219665   4.267   2.003   6.035
 6329SOL     OW19666   5.138   3.042   5.629
 6329SOL    HW119667   5.149   2.965   5.685
 6329SOL    HW219668   5.050   3.074   5.650
 6330SOL     OW19669   4.016   1.909   5.771
 6330SOL    HW119670   4.074   1.974   5.730
 6330SOL    HW219671   4.075   1.846   5.812
 6331SOL     OW19672   4.661   2.108   6.047
 6331SOL    HW119673   4.633   2.148   5.965
 6331SOL    HW219674   4.755   2.119   6.049
 6332SOL     OW19675   4.801   2.543   7.047
 6332SOL    HW119676   4.733   2.475   7.049
 6332SOL    HW219677   4.883   2.494   7.037
 6333SOL     OW19678   4.941   3.433   6.380
 6333SOL    HW119679   4.964   3.499   6.315
 6333SOL    HW219680   5.020   3.423   6.433
 6334SOL     OW19681   4.192   3.010   6.321
 6334SOL    HW119682   4.122   2.992   6.383
 6334SOL    HW219683   4.153   2.994   6.235
 6335SOL     OW19684   4.996   3.656   6.190
 6335SOL    HW119685   5.038   3.717   6.130
 6335SOL    HW219686   4.930   3.709   6.236
 6336SOL     OW19687   4.749   2.407   5.606
 6336SOL    HW119688   4.705   2.489   5.586
 6336SOL    HW219689   4.810   2.429   5.677
 6337SOL     OW19690   3.802   2.417   6.977
 6337SOL    HW119691   3.894   2.415   6.951
 6337SOL    HW219692   3.797   2.487   7.043
 6338SOL     OW19693   4.284   2.089   6.751
 6338SOL    HW119694   4.325   2.012   6.790
 6338SOL    HW219695   4.193   2.086   6.781
 6339SOL     OW19696   4.593   2.321   6.225
 6339SOL    HW119697   4.546   2.375   6.162
 6339SOL    HW219698   4.613   2.241   6.178
 6340SOL     OW19699   4.739   1.915   6.338
 6340SOL    HW119700   4.681   1.907   6.263
 6340SOL    HW219701   4.717   1.839   6.393
 6341SOL     OW19702   5.158   3.037   6.437
 6341SOL    HW119703   5.101   2.961   6.450
 6341SOL    HW219704   5.169   3.043   6.342
 6342SOL     OW19705   4.215   3.279   5.744
 6342SOL    HW119706   4.141   3.249   5.796
 6342SOL    HW219707   4.199   3.244   5.657
 6343SOL     OW19708   5.127   2.425   5.665
 6343SOL    HW119709   5.055   2.415   5.727
 6343SOL    HW219710   5.202   2.387   5.709
 6344SOL     OW19711   4.250   2.125   5.905
 6344SOL    HW119712   4.293   2.076   5.835
 6344SOL    HW219713   4.228   2.210   5.867
 6345SOL     OW19714   4.782   3.215   6.919
 6345SOL    HW119715   4.707   3.185   6.970
 6345SOL    HW219716   4.857   3.173   6.960
 6346SOL     OW19717   0.006   3.467   7.203
 6346SOL    HW119718   0.040   3.473   7.114
 6346SOL    HW219719   0.083   3.447   7.256
 6347SOL     OW19720   4.851   3.064   6.693
 6347SOL    HW119721   4.791   3.101   6.758
 6347SOL    HW219722   4.817   3.094   6.609
 6348SOL     OW19723   4.642   1.960   6.983
 6348SOL    HW119724   4.664   1.942   6.892
 6348SOL    HW219725   4.721   1.999   7.020
 6349SOL     OW19726   4.709   2.974   7.313
 6349SOL    HW119727   4.616   2.993   7.330
 6349SOL    HW219728   4.707   2.898   7.255
 6350SOL     OW19729   4.432   2.923   5.957
 6350SOL    HW119730   4.418   2.907   6.051
 6350SOL    HW219731   4.508   2.869   5.935
 6351SOL     OW19732   4.142   2.676   6.837
 6351SOL    HW119733   4.210   2.686   6.903
 6351SOL    HW219734   4.107   2.588   6.852
 6352SOL     OW19735   4.989   2.238   6.862
 6352SOL    HW119736   5.024   2.317   6.903
 6352SOL    HW219737   4.900   2.261   6.836
 6353SOL     OW19738   3.794   3.435   6.938
 6353SOL    HW119739   3.763   3.508   6.884
 6353SOL    HW219740   3.889   3.440   6.933
 6354SOL     OW19741   4.074   2.970   6.077
 6354SOL    HW119742   4.080   3.044   6.016
 6354SOL    HW219743   4.073   2.892   6.021
 6355SOL     OW19744   4.278   2.399   6.446
 6355SOL    HW119745   4.294   2.457   6.372
 6355SOL    HW219746   4.342   2.426   6.512
 6356SOL     OW19747   4.972   3.211   5.974
 6356SOL    HW119748   5.026   3.283   6.004
 6356SOL    HW219749   4.884   3.230   6.007
 6357SOL     OW19750   4.993   3.318   6.725
 6357SOL    HW119751   5.048   3.321   6.803
 6357SOL    HW219752   4.939   3.239   6.737
 6358SOL     OW19753   4.071   3.388   6.902
 6358SOL    HW119754   4.058   3.346   6.817
 6358SOL    HW219755   4.166   3.401   6.909
 6359SOL     OW19756   4.138   2.607   7.188
 6359SOL    HW119757   4.199   2.652   7.130
 6359SOL    HW219758   4.177   2.521   7.202
 6360SOL     OW19759   4.718   1.985   7.341
 6360SOL    HW119760   4.774   2.057   7.312
 6360SOL    HW219761   4.766   1.906   7.317
 6361SOL     OW19762   4.223   1.903   7.333
 6361SOL    HW119763   4.180   1.849   7.267
 6361SOL    HW219764   4.163   1.977   7.345
 6362SOL     OW19765   4.307   2.734   6.617
 6362SOL    HW119766   4.337   2.825   6.615
 6362SOL    HW219767   4.250   2.729   6.694
 6363SOL     OW19768   5.086   2.720   6.623
 6363SOL    HW119769   5.009   2.703   6.569
 6363SOL    HW219770   5.136   2.638   6.620
 6364SOL     OW19771   4.930   2.393   5.852
 6364SOL    HW119772   4.936   2.313   5.904
 6364SOL    HW219773   4.886   2.456   5.909
 6365SOL     OW19774   4.024   2.061   6.832
 6365SOL    HW119775   3.986   2.094   6.914
 6365SOL    HW219776   4.004   1.967   6.833
 6366SOL     OW19777   3.771   3.173   6.862
 6366SOL    HW119778   3.803   3.119   6.934
 6366SOL    HW219779   3.777   3.262   6.895
 6367SOL     OW19780   4.448   2.493   6.644
 6367SOL    HW119781   4.523   2.477   6.587
 6367SOL    HW219782   4.421   2.582   6.623
 6368SOL     OW19783   4.026   1.927   6.209
 6368SOL    HW119784   4.008   2.018   6.233
 6368SOL    HW219785   4.033   1.881   6.293
 6369SOL     OW19786   0.035   2.254   5.946
 6369SOL    HW119787   0.056   2.180   6.004
 6369SOL    HW219788   0.014   2.326   6.006
 6370SOL     OW19789   4.751   2.621   6.547
 6370SOL    HW119790   4.750   2.639   6.641
 6370SOL    HW219791   4.725   2.529   6.539
 6371SOL     OW19792   4.699   3.424   7.299
 6371SOL    HW119793   4.688   3.471   7.217
 6371SOL    HW219794   4.747   3.345   7.275
 6372SOL     OW19795   4.077   2.775   7.397
 6372SOL    HW119796   4.161   2.797   7.438
 6372SOL    HW219797   4.100   2.715   7.327
 6373SOL     OW19798   5.027   2.691   5.623
 6373SOL    HW119799   5.064   2.603   5.625
 6373SOL    HW219800   5.054   2.727   5.538
 6374SOL     OW19801   4.789   3.196   6.441
 6374SOL    HW119802   4.793   3.124   6.378
 6374SOL    HW219803   4.848   3.262   6.405
 6375SOL     OW19804   4.033   2.671   6.533
 6375SOL    HW119805   4.126   2.693   6.527
 6375SOL    HW219806   4.031   2.582   6.567
 6376SOL     OW19807   4.056   2.387   6.598
 6376SOL    HW119808   4.021   2.299   6.583
 6376SOL    HW219809   4.132   2.392   6.540
 6377SOL     OW19810   4.857   2.239   7.265
 6377SOL    HW119811   4.810   2.294   7.328
 6377SOL    HW219812   4.944   2.278   7.260
 6378SOL     OW19813   4.885   2.065   7.054
 6378SOL    HW119814   4.874   2.127   7.126
 6378SOL    HW219815   4.923   2.117   6.983
 6379SOL     OW19816   3.729   3.184   5.781
 6379SOL    HW119817   3.642   3.198   5.743
 6379SOL    HW219818   3.726   3.094   5.814
 6380SOL     OW19819   3.814   3.650   6.523
 6380SOL    HW119820   3.784   3.570   6.480
 6380SOL    HW219821   3.904   3.662   6.492
 6381SOL     OW19822   4.221   3.435   6.492
 6381SOL    HW119823   4.290   3.498   6.516
 6381SOL    HW219824   4.266   3.371   6.436
 6382SOL     OW19825   4.709   2.655   6.813
 6382SOL    HW119826   4.763   2.631   6.888
 6382SOL    HW219827   4.623   2.618   6.833
 6383SOL     OW19828   3.760   2.406   6.703
 6383SOL    HW119829   3.840   2.391   6.654
 6383SOL    HW219830   3.787   2.410   6.794
 6384SOL     OW19831   3.916   2.381   7.313
 6384SOL    HW119832   3.972   2.343   7.245
 6384SOL    HW219833   3.872   2.453   7.270
 6385SOL     OW19834   5.109   2.801   7.253
 6385SOL    HW119835   5.119   2.895   7.242
 6385SOL    HW219836   5.113   2.766   7.164
 6386SOL     OW19837   4.540   2.431   5.943
 6386SOL    HW119838   4.543   2.356   5.885
 6386SOL    HW219839   4.466   2.483   5.913
 6387SOL     OW19840   3.968   3.414   7.315
 6387SOL    HW119841   3.945   3.478   7.382
 6387SOL    HW219842   3.969   3.330   7.361
 6388SOL     OW19843   4.422   2.314   6.847
 6388SOL    HW119844   4.371   2.239   6.816
 6388SOL    HW219845   4.420   2.376   6.774
 6389SOL     OW19846   4.646   3.542   7.054
 6389SOL    HW119847   4.624   3.511   6.966
 6389SOL    HW219848   4.648   3.637   7.046
 6390SOL     OW19849   4.189   2.355   5.774
 6390SOL    HW119850   4.247   2.428   5.795
 6390SOL    HW219851   4.103   2.395   5.761
 6391SOL     OW19852   3.871   3.002   7.058
 6391SOL    HW119853   3.873   2.949   7.138
 6391SOL    HW219854   3.888   2.939   6.988
 6392SOL     OW19855   5.055   2.912   6.811
 6392SOL    HW119856   5.076   2.848   6.743
 6392SOL    HW219857   4.982   2.962   6.774
 6393SOL     OW19858   5.034   2.721   5.902
 6393SOL    HW119859   4.951   2.688   5.939
 6393SOL    HW219860   5.023   2.712   5.808
 6394SOL     OW19861   4.960   3.593   6.707
 6394SOL    HW119862   5.046   3.613   6.670
 6394SOL    HW219863   4.960   3.498   6.718
 6395SOL     OW19864   3.808   3.129   6.598
 6395SOL    HW119865   3.794   3.141   6.692
 6395SOL    HW219866   3.734   3.074   6.571
 6396SOL     OW19867   4.400   3.525   7.311
 6396SOL    HW119868   4.351   3.607   7.309
 6396SOL    HW219869   4.469   3.537   7.246
 6397SOL     OW19870   0.083   2.021   6.115
 6397SOL    HW119871   0.168   2.009   6.072
 6397SOL    HW219872   0.070   1.940   6.165
 6398SOL     OW19873   5.110   3.432   6.065
 6398SOL    HW119874   5.180   3.471   6.013
 6398SOL    HW219875   5.062   3.506   6.101
 6399SOL     OW19876   3.859   3.658   7.430
 6399SOL    HW119877   3.809   3.594   7.479
 6399SOL    HW219878   3.908   3.707   7.497
 6400SOL     OW19879   5.015   2.781   6.259
 6400SOL    HW119880   5.093   2.726   6.245
 6400SOL    HW219881   5.034   2.861   6.209
 6401SOL     OW19882   4.540   3.135   7.017
 6401SOL    HW119883   4.512   3.174   7.100
 6401SOL    HW219884   4.470   3.157   6.955
 6402SOL     OW19885   4.395   3.481   5.742
 6402SOL    HW119886   4.406   3.493   5.647
 6402SOL    HW219887   4.341   3.403   5.750
 6403SOL     OW19888   3.987   2.178   6.303
 6403SOL    HW119889   3.901   2.214   6.279
 6403SOL    HW219890   3.983   2.170   6.399
 6404SOL     OW19891   4.909   3.471   5.627
 6404SOL    HW119892   4.920   3.377   5.638
 6404SOL    HW219893   4.855   3.480   5.548
 6405SOL     OW19894   4.548   2.868   6.958
 6405SOL    HW119895   4.591   2.864   6.873
 6405SOL    HW219896   4.548   2.961   6.981
 6406SOL     OW19897   4.640   2.773   5.876
 6406SOL    HW119898   4.702   2.805   5.810
 6406SOL    HW219899   4.687   2.702   5.920
 6407SOL     OW19900   4.093   3.164   7.078
 6407SOL    HW119901   4.080   3.242   7.023
 6407SOL    HW219902   4.016   3.110   7.061
 6408SOL     OW19903   4.775   2.968   6.292
 6408SOL    HW119904   4.704   2.918   6.333
 6408SOL    HW219905   4.832   2.902   6.254
 6409SOL     OW19906   4.740   2.101   6.554
 6409SOL    HW119907   4.737   2.054   6.471
 6409SOL    HW219908   4.736   2.033   6.621
 6410SOL     OW19909   4.326   3.350   6.068
 6410SOL    HW119910   4.369   3.300   5.999
 6410SOL    HW219911   4.258   3.401   6.022
 6411SOL     OW19912   3.983   3.208   5.873
 6411SOL    HW119913   3.889   3.206   5.851
 6411SOL    HW219914   3.986   3.244   5.962
 6412SOL     OW19915   3.837   2.882   7.305
 6412SOL    HW119916   3.760   2.860   7.358
 6412SOL    HW219917   3.911   2.845   7.354
 6413SOL     OW19918   4.397   2.058   7.085
 6413SOL    HW119919   4.482   2.039   7.044
 6413SOL    HW219920   4.420   2.088   7.173
 6414SOL     OW19921   3.802   2.198   5.622
 6414SOL    HW119922   3.716   2.176   5.584
 6414SOL    HW219923   3.832   2.272   5.570
 6415SOL     OW19924   5.162   2.722   6.990
 6415SOL    HW119925   5.110   2.778   6.933
 6415SOL    HW219926   5.252   2.729   6.956
 6416SOL     OW19927   3.793   2.019   5.897
 6416SOL    HW119928   3.779   2.098   5.846
 6416SOL    HW219929   3.878   1.986   5.867
 6417SOL     OW19930   4.907   3.192   5.701
 6417SOL    HW119931   4.813   3.174   5.702
 6417SOL    HW219932   4.931   3.199   5.793
 6418SOL     OW19933   4.343   2.693   7.019
 6418SOL    HW119934   4.399   2.769   7.004
 6418SOL    HW219935   4.403   2.620   7.027
 6419SOL     OW19936   4.442   2.426   7.291
 6419SOL    HW119937   4.480   2.487   7.353
 6419SOL    HW219938   4.471   2.340   7.322
 6420SOL     OW19939   5.182   3.067   7.217
 6420SOL    HW119940   5.172   3.078   7.312
 6420SOL    HW219941   5.277   3.073   7.202
 6421SOL     OW19942   4.104   3.602   7.150
 6421SOL    HW119943   4.019   3.642   7.137
 6421SOL    HW219944   4.085   3.518   7.192
 6422SOL     OW19945   4.941   2.182   6.042
 6422SOL    HW119946   5.003   2.110   6.029
 6422SOL    HW219947   4.971   2.226   6.122
 6423SOL     OW19948   4.315   2.600   6.254
 6423SOL    HW119949   4.354   2.687   6.239
 6423SOL    HW219950   4.246   2.593   6.188
 6424SOL     OW19951   4.590   3.229   5.619
 6424SOL    HW119952   4.549   3.259   5.701
 6424SOL    HW219953   4.607   3.309   5.570
 6425SOL     OW19954   4.383   3.654   6.531
 6425SOL    HW119955   4.364   3.745   6.508
 6425SOL    HW219956   4.479   3.648   6.525
 6426SOL     OW19957   4.591   2.828   6.442
 6426SOL    HW119958   4.641   2.757   6.482
 6426SOL    HW219959   4.557   2.878   6.516
 6427SOL     OW19960   4.806   2.849   5.676
 6427SOL    HW119961   4.782   2.899   5.598
 6427SOL    HW219962   4.881   2.796   5.649
 6428SOL     OW19963   3.949   3.166   7.443
 6428SOL    HW119964   3.881   3.105   7.412
 6428SOL    HW219965   3.929   3.179   7.535
 6429SOL     OW19966   3.807   3.095   6.250
 6429SOL    HW119967   3.812   3.047   6.333
 6429SOL    HW219968   3.876   3.058   6.196
 6430SOL     OW19969   4.404   3.263   7.213
 6430SOL    HW119970   4.324   3.221   7.244
 6430SOL    HW219971   4.401   3.351   7.249
 6431SOL     OW19972   4.154   2.296   6.111
 6431SOL    HW119973   4.183   2.225   6.054
 6431SOL    HW219974   4.106   2.252   6.182
 6432SOL     OW19975   0.096   3.383   6.685
 6432SOL    HW119976   0.028   3.357   6.623
 6432SOL    HW219977   0.106   3.307   6.743
 6433SOL     OW19978   4.053   2.416   6.877
 6433SOL    HW119979   4.109   2.361   6.932
 6433SOL    HW219980   4.073   2.388   6.788
 6434SOL     OW19981   4.551   3.439   6.264
 6434SOL    HW119982   4.541   3.490   6.184
 6434SOL    HW219983   4.473   3.384   6.267
 6435SOL     OW19984   5.148   2.081   6.701
 6435SOL    HW119985   5.193   2.015   6.754
 6435SOL    HW219986   5.102   2.136   6.764
 6436SOL     OW19987   4.730   1.881   6.729
 6436SOL    HW119988   4.677   1.813   6.690
 6436SOL    HW219989   4.818   1.844   6.733
 6437SOL     OW19990   4.494   3.194   5.900
 6437SOL    HW119991   4.463   3.104   5.906
 6437SOL    HW219992   4.577   3.194   5.948
 6438SOL     OW19993   4.344   3.419   6.871
 6438SOL    HW119994   4.346   3.501   6.920
 6438SOL    HW219995   4.431   3.411   6.833
 6439SOL     OW19996   5.059   1.908   5.754
 6439SOL    HW119997   5.084   1.867   5.671
 6439SOL    HW219998   4.974   1.869   5.775
 6440SOL     OW19999   5.029   2.320   6.269
 6440SOL    HW120000   4.973   2.398   6.273
 6440SOL    HW220001   5.018   2.279   6.355
 6441SOL     OW20002   0.002   2.086   6.465
 6441SOL    HW120003   5.236   2.076   6.533
 6441SOL    HW220004   5.278   2.167   6.420
 6442SOL     OW20005   3.767   2.933   5.891
 6442SOL    HW120006   3.861   2.926   5.875
 6442SOL    HW220007   3.739   2.845   5.914
 6443SOL     OW20008   4.604   3.511   5.932
 6443SOL    HW120009   4.533   3.496   5.869
 6443SOL    HW220010   4.576   3.588   5.981
 6444SOL     OW20011   3.953   2.481   7.572
 6444SOL    HW120012   3.862   2.489   7.601
 6444SOL    HW220013   3.946   2.458   7.479
 6445SOL     OW20014   3.945   3.580   7.919
 6445SOL    HW120015   3.974   3.623   7.999
 6445SOL    HW220016   4.022   3.577   7.863
 6446SOL     OW20017   3.942   3.300   7.990
 6446SOL    HW120018   3.928   3.394   7.990
 6446SOL    HW220019   3.882   3.266   8.056
 6447SOL     OW20020   4.313   2.843   7.578
 6447SOL    HW120021   4.355   2.895   7.510
 6447SOL    HW220022   4.351   2.874   7.660
 6448SOL     OW20023   3.754   3.461   7.577
 6448SOL    HW120024   3.738   3.368   7.592
 6448SOL    HW220025   3.726   3.504   7.659
 6449SOL     OW20026   0.118   2.787   8.017
 6449SOL    HW120027   0.211   2.778   8.038
 6449SOL    HW220028   0.107   2.881   7.998
 6450SOL     OW20029   4.525   1.856   7.938
 6450SOL    HW120030   4.574   1.936   7.923
 6450SOL    HW220031   4.434   1.884   7.948
 6451SOL     OW20032   4.315   2.587   7.709
 6451SOL    HW120033   4.320   2.668   7.658
 6451SOL    HW220034   4.254   2.606   7.779
 6452SOL     OW20035   3.786   2.722   0.092
 6452SOL    HW120036   3.852   2.661   0.123
 6452SOL    HW220037   3.778   2.786   0.163
 6453SOL     OW20038   4.605   2.206   7.638
 6453SOL    HW120039   4.650   2.266   7.579
 6453SOL    HW220040   4.636   2.119   7.614
 6454SOL     OW20041   4.048   2.817   7.697
 6454SOL    HW120042   4.127   2.836   7.648
 6454SOL    HW220043   4.011   2.739   7.655
 6455SOL     OW20044   4.837   3.638   7.684
 6455SOL    HW120045   4.764   3.595   7.728
 6455SOL    HW220046   4.861   3.579   7.613
 6456SOL     OW20047   4.191   3.600   7.769
 6456SOL    HW120048   4.238   3.653   7.833
 6456SOL    HW220049   4.259   3.565   7.711
 6457SOL     OW20050   5.133   1.987   7.859
 6457SOL    HW120051   5.097   1.963   7.773
 6457SOL    HW220052   5.228   1.987   7.845
 6458SOL     OW20053   4.115   2.560   7.918
 6458SOL    HW120054   4.121   2.465   7.926
 6458SOL    HW220055   4.023   2.579   7.936
 6459SOL     OW20056   4.352   1.983   7.559
 6459SOL    HW120057   4.428   1.926   7.569
 6459SOL    HW220058   4.309   1.952   7.480
 6460SOL     OW20059   4.256   1.934   7.959
 6460SOL    HW120060   4.170   1.939   8.002
 6460SOL    HW220061   4.254   2.006   7.895
 6461SOL     OW20062   5.138   3.040   7.488
 6461SOL    HW120063   5.156   2.971   7.552
 6461SOL    HW220064   5.051   3.073   7.512
 6462SOL     OW20065   4.017   1.911   7.633
 6462SOL    HW120066   4.075   1.972   7.588
 6462SOL    HW220067   4.075   1.846   7.671
 6463SOL     OW20068   4.666   2.089   7.911
 6463SOL    HW120069   4.623   2.152   7.854
 6463SOL    HW220070   4.758   2.116   7.913
 6464SOL     OW20071   4.165   3.010   0.101
 6464SOL    HW120072   4.090   3.047   0.147
 6464SOL    HW220073   4.134   2.997   0.011
 6465SOL     OW20074   5.007   3.666   8.013
 6465SOL    HW120075   5.046   3.733   7.956
 6465SOL    HW220076   4.938   3.713   8.060
 6466SOL     OW20077   4.752   2.408   7.464
 6466SOL    HW120078   4.705   2.489   7.447
 6466SOL    HW220079   4.806   2.427   7.541
 6467SOL     OW20080   4.213   3.277   7.606
 6467SOL    HW120081   4.139   3.248   7.659
 6467SOL    HW220082   4.195   3.243   7.518
 6468SOL     OW20083   5.127   2.424   7.528
 6468SOL    HW120084   5.053   2.414   7.589
 6468SOL    HW220085   5.201   2.384   7.574
 6469SOL     OW20086   4.250   2.128   7.771
 6469SOL    HW120087   4.293   2.077   7.702
 6469SOL    HW220088   4.228   2.211   7.729
 6470SOL     OW20089   4.436   2.923   7.812
 6470SOL    HW120090   4.411   2.912   7.903
 6470SOL    HW220091   4.515   2.871   7.801
 6471SOL     OW20092   4.090   2.963   7.928
 6471SOL    HW120093   4.072   3.042   7.878
 6471SOL    HW220094   4.076   2.891   7.866
 6472SOL     OW20095   4.959   3.219   7.820
 6472SOL    HW120096   5.017   3.289   7.849
 6472SOL    HW220097   4.902   3.202   7.894
 6473SOL     OW20098   0.035   2.509   7.925
 6473SOL    HW120099   5.279   2.534   7.998
 6473SOL    HW220100   0.040   2.587   7.870
 6474SOL     OW20101   4.928   2.392   7.714
 6474SOL    HW120102   4.933   2.308   7.760
 6474SOL    HW220103   4.898   2.453   7.781
 6475SOL     OW20104   0.027   2.261   7.809
 6475SOL    HW120105   0.040   2.192   7.874
 6475SOL    HW220106   0.021   2.342   7.860
 6476SOL     OW20107   5.033   2.694   7.489
 6476SOL    HW120108   5.064   2.603   7.487
 6476SOL    HW220109   5.056   2.730   7.404
 6477SOL     OW20110   3.730   3.186   7.640
 6477SOL    HW120111   3.642   3.199   7.603
 6477SOL    HW220112   3.729   3.097   7.674
 6478SOL     OW20113   4.562   2.459   7.761
 6478SOL    HW120114   4.552   2.368   7.735
 6478SOL    HW220115   4.472   2.493   7.762
 6479SOL     OW20116   4.187   2.355   7.643
 6479SOL    HW120117   4.245   2.430   7.657
 6479SOL    HW220118   4.102   2.395   7.624
 6480SOL     OW20119   5.032   2.708   7.772
 6480SOL    HW120120   4.939   2.721   7.791
 6480SOL    HW220121   5.037   2.708   7.676
 6481SOL     OW20122   0.179   2.004   7.990
 6481SOL    HW120123   0.161   1.985   7.898
 6481SOL    HW220124   0.137   1.932   8.038
 6482SOL     OW20125   5.102   3.435   7.907
 6482SOL    HW120126   5.197   3.448   7.901
 6482SOL    HW220127   5.069   3.515   7.947
 6483SOL     OW20128   4.390   3.481   7.604
 6483SOL    HW120129   4.403   3.492   7.510
 6483SOL    HW220130   4.339   3.401   7.612
 6484SOL     OW20131   4.912   3.473   7.486
 6484SOL    HW120132   4.921   3.379   7.501
 6484SOL    HW220133   4.853   3.480   7.411
 6485SOL     OW20134   4.654   2.772   7.758
 6485SOL    HW120135   4.705   2.797   7.680
 6485SOL    HW220136   4.646   2.677   7.751
 6486SOL     OW20137   4.327   3.367   7.936
 6486SOL    HW120138   4.372   3.306   7.878
 6486SOL    HW220139   4.256   3.404   7.883
 6487SOL     OW20140   3.982   3.209   7.740
 6487SOL    HW120141   3.889   3.207   7.715
 6487SOL    HW220142   3.982   3.245   7.829
 6488SOL     OW20143   3.801   2.196   7.484
 6488SOL    HW120144   3.714   2.176   7.448
 6488SOL    HW220145   3.831   2.272   7.433
 6489SOL     OW20146   3.795   2.020   7.759
 6489SOL    HW120147   3.778   2.096   7.704
 6489SOL    HW220148   3.878   1.984   7.727
 6490SOL     OW20149   4.906   3.192   7.556
 6490SOL    HW120150   4.811   3.178   7.556
 6490SOL    HW220151   4.929   3.204   7.648
 6491SOL     OW20152   5.265   3.605   0.321
 6491SOL    HW120153   5.268   3.692   0.280
 6491SOL    HW220154   0.035   3.606   0.385
 6492SOL     OW20155   4.939   2.182   7.900
 6492SOL    HW120156   5.010   2.119   7.890
 6492SOL    HW220157   4.957   2.225   7.984
 6493SOL     OW20158   4.347   2.595   8.059
 6493SOL    HW120159   4.355   2.680   0.024
 6493SOL    HW220160   4.260   2.597   8.018
 6494SOL     OW20161   4.590   3.228   7.481
 6494SOL    HW120162   4.550   3.257   7.564
 6494SOL    HW220163   4.607   3.310   7.433
 6495SOL     OW20164   4.802   2.841   7.539
 6495SOL    HW120165   4.779   2.896   7.464
 6495SOL    HW220166   4.880   2.793   7.511
 6496SOL     OW20167   4.112   2.287   7.981
 6496SOL    HW120168   4.163   2.237   7.918
 6496SOL    HW220169   4.160   2.279   8.063
 6497SOL     OW20170   4.490   3.196   7.757
 6497SOL    HW120171   4.459   3.106   7.761
 6497SOL    HW220172   4.568   3.197   7.812
 6498SOL     OW20173   5.063   1.907   7.612
 6498SOL    HW120174   5.084   1.863   7.529
 6498SOL    HW220175   4.978   1.870   7.638
 6499SOL     OW20176   3.774   2.941   7.750
 6499SOL    HW120177   3.868   2.930   7.736
 6499SOL    HW220178   3.742   2.852   7.767
 6500SOL     OW20179   4.613   3.509   7.783
 6500SOL    HW120180   4.537   3.488   7.729
 6500SOL    HW220181   4.582   3.574   7.846
 6501SOL     OW20182   3.946   4.348   0.121
 6501SOL    HW120183   3.864   4.315   0.160
 6501SOL    HW220184   3.966   4.285   0.051
 6502SOL     OW20185   3.949   4.004   0.991
 6502SOL    HW120186   3.977   3.971   1.076
 6502SOL    HW220187   3.859   3.972   0.982
 6503SOL     OW20188   3.729   4.107   0.638
 6503SOL    HW120189   3.646   4.132   0.679
 6503SOL    HW220190   3.708   4.027   0.590
 6504SOL     OW20191   4.290   5.004   1.178
 6504SOL    HW120192   4.204   5.004   1.134
 6504SOL    HW220193   4.302   5.095   1.205
 6505SOL     OW20194   5.276   5.233   0.693
 6505SOL    HW120195   5.262   5.215   0.786
 6505SOL    HW220196   5.189   5.231   0.654
 6506SOL     OW20197   4.857   4.423   0.701
 6506SOL    HW120198   4.908   4.504   0.690
 6506SOL    HW220199   4.809   4.436   0.783
 6507SOL     OW20200   4.480   4.868   1.037
 6507SOL    HW120201   4.413   4.900   1.097
 6507SOL    HW220202   4.511   4.947   0.991
 6508SOL     OW20203   4.590   4.501   1.822
 6508SOL    HW120204   4.574   4.573   1.883
 6508SOL    HW220205   4.613   4.544   1.739
 6509SOL     OW20206   4.408   4.726   0.651
 6509SOL    HW120207   4.474   4.715   0.720
 6509SOL    HW220208   4.340   4.780   0.691
 6510SOL     OW20209   4.433   4.874   1.811
 6510SOL    HW120210   4.480   4.953   1.835
 6510SOL    HW220211   4.349   4.906   1.777
 6511SOL     OW20212   4.061   5.153   1.061
 6511SOL    HW120213   3.985   5.109   1.023
 6511SOL    HW220214   4.102   5.197   0.986
 6512SOL     OW20215   5.131   5.238   1.341
 6512SOL    HW120216   5.153   0.008   1.402
 6512SOL    HW220217   5.111   5.162   1.397
 6513SOL     OW20218   4.172   4.122   1.489
 6513SOL    HW120219   4.247   4.064   1.494
 6513SOL    HW220220   4.096   4.065   1.501
 6514SOL     OW20221   4.864   5.053   1.699
 6514SOL    HW120222   4.887   5.065   1.791
 6514SOL    HW220223   4.803   4.979   1.700
 6515SOL     OW20224   3.932   5.155   0.516
 6515SOL    HW120225   3.959   5.238   0.555
 6515SOL    HW220226   3.879   5.112   0.584
 6516SOL     OW20227   3.980   4.811   0.891
 6516SOL    HW120228   3.978   4.725   0.931
 6516SOL    HW220229   3.923   4.865   0.946
 6517SOL     OW20230   4.354   4.686   0.131
 6517SOL    HW120231   4.303   4.763   0.106
 6517SOL    HW220232   4.403   4.713   0.209
 6518SOL     OW20233   3.839   4.374   0.562
 6518SOL    HW120234   3.808   4.286   0.583
 6518SOL    HW220235   3.830   4.422   0.644
 6519SOL     OW20236   3.702   0.018   0.096
 6519SOL    HW120237   3.719   5.228   0.124
 6519SOL    HW220238   3.732   0.072   0.170
 6520SOL     OW20239   0.114   4.657   0.581
 6520SOL    HW120240   0.206   4.633   0.592
 6520SOL    HW220241   0.116   4.743   0.541
 6521SOL     OW20242   3.847   4.466   1.586
 6521SOL    HW120243   3.939   4.490   1.596
 6521SOL    HW220244   3.799   4.549   1.594
 6522SOL     OW20245   4.345   5.098   0.736
 6522SOL    HW120246   4.291   5.019   0.734
 6522SOL    HW220247   4.327   5.141   0.652
 6523SOL     OW20248   5.019   4.969   1.421
 6523SOL    HW120249   5.048   4.898   1.364
 6523SOL    HW220250   5.067   4.955   1.503
 6524SOL     OW20251   4.538   3.725   0.510
 6524SOL    HW120252   4.578   3.810   0.489
 6524SOL    HW220253   4.445   3.744   0.518
 6525SOL     OW20254   3.915   4.691   1.269
 6525SOL    HW120255   3.999   4.648   1.254
 6525SOL    HW220256   3.851   4.635   1.225
 6526SOL     OW20257   4.056   3.974   1.809
 6526SOL    HW120258   4.101   4.057   1.825
 6526SOL    HW220259   3.967   3.989   1.842
 6527SOL     OW20260   5.178   5.152   0.952
 6527SOL    HW120261   5.110   5.162   1.018
 6527SOL    HW220262   5.164   5.065   0.914
 6528SOL     OW20263   0.051   0.162   0.564
 6528SOL    HW120264   0.090   0.121   0.487
 6528SOL    HW220265   0.040   0.091   0.627
 6529SOL     OW20266   4.321   4.439   0.281
 6529SOL    HW120267   4.341   4.515   0.227
 6529SOL    HW220268   4.257   4.470   0.345
 6530SOL     OW20269   4.997   4.060   0.920
 6530SOL    HW120270   4.908   4.030   0.941
 6530SOL    HW220271   5.051   4.026   0.991
 6531SOL     OW20272   4.515   4.341   1.452
 6531SOL    HW120273   4.489   4.318   1.541
 6531SOL    HW220274   4.474   4.275   1.396
 6532SOL     OW20275   5.115   4.203   1.680
 6532SOL    HW120276   5.116   4.241   1.768
 6532SOL    HW220277   5.191   4.144   1.679
 6533SOL     OW20278   4.679   4.612   1.581
 6533SOL    HW120279   4.732   4.541   1.547
 6533SOL    HW220280   4.632   4.646   1.505
 6534SOL     OW20281   4.715   4.137   1.239
 6534SOL    HW120282   4.630   4.159   1.277
 6534SOL    HW220283   4.694   4.090   1.158
 6535SOL     OW20284   4.776   4.421   0.426
 6535SOL    HW120285   4.791   4.417   0.521
 6535SOL    HW220286   4.693   4.376   0.413
 6536SOL     OW20287   3.813   4.545   0.775
 6536SOL    HW120288   3.894   4.538   0.826
 6536SOL    HW220289   3.769   4.622   0.811
 6537SOL     OW20290   4.608   4.080   0.200
 6537SOL    HW120291   4.653   4.129   0.131
 6537SOL    HW220292   4.609   3.989   0.171
 6538SOL     OW20293   5.091   4.868   0.546
 6538SOL    HW120294   5.179   4.863   0.508
 6538SOL    HW220295   5.043   4.928   0.489
 6539SOL     OW20296   4.273   3.907   0.893
 6539SOL    HW120297   4.276   3.934   0.984
 6539SOL    HW220298   4.276   3.988   0.843
 6540SOL     OW20299   4.743   5.167   0.468
 6540SOL    HW120300   4.666   5.224   0.465
 6540SOL    HW220301   4.765   5.161   0.560
 6541SOL     OW20302   4.938   5.261   1.553
 6541SOL    HW120303   4.915   5.178   1.595
 6541SOL    HW220304   4.903   5.253   1.464
 6542SOL     OW20305   4.052   4.665   0.252
 6542SOL    HW120306   4.123   4.706   0.203
 6542SOL    HW220307   4.051   4.574   0.222
 6543SOL     OW20308   4.188   4.987   1.740
 6543SOL    HW120309   4.161   4.990   1.648
 6543SOL    HW220310   4.106   4.986   1.789
 6544SOL     OW20311   4.872   0.190   0.220
 6544SOL    HW120312   4.796   0.178   0.277
 6544SOL    HW220313   4.846   0.151   0.137
 6545SOL     OW20314   3.924   4.006   1.500
 6545SOL    HW120315   3.843   4.056   1.495
 6545SOL    HW220316   3.908   3.939   1.567
 6546SOL     OW20317   5.118   3.848   0.438
 6546SOL    HW120318   5.101   3.830   0.345
 6546SOL    HW220319   5.213   3.856   0.444
 6547SOL     OW20320   4.110   4.421   0.477
 6547SOL    HW120321   4.135   4.330   0.487
 6547SOL    HW220322   4.017   4.423   0.500
 6548SOL     OW20323   4.353   3.836   0.135
 6548SOL    HW120324   4.448   3.823   0.141
 6548SOL    HW220325   4.333   3.816   0.043
 6549SOL     OW20326   4.490   4.002   1.753
 6549SOL    HW120327   4.566   3.942   1.756
 6549SOL    HW220328   4.442   3.982   1.833
 6550SOL     OW20329   5.058   4.315   1.432
 6550SOL    HW120330   5.091   4.283   1.516
 6550SOL    HW220331   5.100   4.400   1.421
 6551SOL     OW20332   4.535   5.120   0.935
 6551SOL    HW120333   4.616   5.107   0.887
 6551SOL    HW220334   4.467   5.127   0.867
 6552SOL     OW20335   4.651   4.233   0.903
 6552SOL    HW120336   4.627   4.224   0.811
 6552SOL    HW220337   4.683   4.146   0.928
 6553SOL     OW20338   4.273   3.787   0.506
 6553SOL    HW120339   4.192   3.787   0.557
 6553SOL    HW220340   4.267   3.865   0.452
 6554SOL     OW20341   5.130   4.895   0.031
 6554SOL    HW120342   5.151   4.833   0.100
 6554SOL    HW220343   5.048   4.936   0.060
 6555SOL     OW20344   4.034   3.777   0.168
 6555SOL    HW120345   4.097   3.847   0.183
 6555SOL    HW220346   4.071   3.701   0.211
 6556SOL     OW20347   4.661   3.970   0.460
 6556SOL    HW120348   4.633   4.011   0.378
 6556SOL    HW220349   4.755   3.986   0.464
 6557SOL     OW20350   4.801   4.405   1.461
 6557SOL    HW120351   4.734   4.337   1.463
 6557SOL    HW220352   4.883   4.356   1.451
 6558SOL     OW20353   4.981   5.266   0.775
 6558SOL    HW120354   4.955   0.053   0.745
 6558SOL    HW220355   5.036   5.282   0.852
 6559SOL     OW20356   4.188   4.872   0.732
 6559SOL    HW120357   4.120   4.852   0.796
 6559SOL    HW220358   4.148   4.854   0.647
 6560SOL     OW20359   4.759   4.256   0.027
 6560SOL    HW120360   4.711   4.335   0.002
 6560SOL    HW220361   4.818   4.285   0.097
 6561SOL     OW20362   3.802   4.279   1.392
 6561SOL    HW120363   3.894   4.277   1.365
 6561SOL    HW220364   3.798   4.349   1.457
 6562SOL     OW20365   4.284   3.951   1.165
 6562SOL    HW120366   4.325   3.874   1.204
 6562SOL    HW220367   4.193   3.948   1.195
 6563SOL     OW20368   4.592   4.182   0.639
 6563SOL    HW120369   4.549   4.238   0.574
 6563SOL    HW220370   4.613   4.102   0.591
 6564SOL     OW20371   4.739   3.776   0.752
 6564SOL    HW120372   4.680   3.769   0.677
 6564SOL    HW220373   4.717   3.701   0.806
 6565SOL     OW20374   5.153   4.901   0.850
 6565SOL    HW120375   5.101   4.822   0.859
 6565SOL    HW220376   5.172   4.907   0.756
 6566SOL     OW20377   4.192   5.160   0.157
 6566SOL    HW120378   4.143   5.103   0.217
 6566SOL    HW220379   4.226   5.101   0.090
 6567SOL     OW20380   5.124   4.308   0.076
 6567SOL    HW120381   5.066   4.283   0.148
 6567SOL    HW220382   5.195   4.243   0.080
 6568SOL     OW20383   4.242   3.987   0.324
 6568SOL    HW120384   4.291   3.935   0.261
 6568SOL    HW220385   4.230   4.072   0.281
 6569SOL     OW20386   4.787   5.074   1.330
 6569SOL    HW120387   4.709   5.049   1.381
 6569SOL    HW220388   4.860   5.035   1.379
 6570SOL     OW20389   4.847   4.922   1.109
 6570SOL    HW120390   4.796   4.965   1.177
 6570SOL    HW220391   4.806   4.951   1.027
 6571SOL     OW20392   4.642   3.822   1.397
 6571SOL    HW120393   4.664   3.804   1.306
 6571SOL    HW220394   4.721   3.861   1.434
 6572SOL     OW20395   4.706   4.834   1.729
 6572SOL    HW120396   4.613   4.852   1.745
 6572SOL    HW220397   4.705   4.759   1.669
 6573SOL     OW20398   4.433   4.782   0.380
 6573SOL    HW120399   4.418   4.767   0.474
 6573SOL    HW220400   4.512   4.733   0.360
 6574SOL     OW20401   4.142   4.538   1.251
 6574SOL    HW120402   4.211   4.548   1.317
 6574SOL    HW220403   4.107   4.450   1.266
 6575SOL     OW20404   4.989   4.100   1.276
 6575SOL    HW120405   5.024   4.179   1.317
 6575SOL    HW220406   4.900   4.123   1.250
 6576SOL     OW20407   4.069   4.831   0.491
 6576SOL    HW120408   4.073   4.904   0.429
 6576SOL    HW220409   4.079   4.753   0.437
 6577SOL     OW20410   4.277   4.261   0.860
 6577SOL    HW120411   4.293   4.319   0.786
 6577SOL    HW220412   4.342   4.288   0.926
 6578SOL     OW20413   4.981   5.069   0.386
 6578SOL    HW120414   5.033   5.149   0.393
 6578SOL    HW220415   4.893   5.095   0.414
 6579SOL     OW20416   4.979   5.180   1.132
 6579SOL    HW120417   5.034   5.202   1.207
 6579SOL    HW220418   4.940   5.096   1.155
 6580SOL     OW20419   4.072   5.236   1.316
 6580SOL    HW120420   4.061   5.201   1.227
 6580SOL    HW220421   4.165   5.257   1.322
 6581SOL     OW20422   4.138   4.469   1.602
 6581SOL    HW120423   4.199   4.514   1.544
 6581SOL    HW220424   4.178   4.383   1.618
 6582SOL     OW20425   4.718   3.846   1.756
 6582SOL    HW120426   4.774   3.919   1.727
 6582SOL    HW220427   4.766   3.768   1.730
 6583SOL     OW20428   4.222   3.766   1.747
 6583SOL    HW120429   4.180   3.711   1.681
 6583SOL    HW220430   4.162   3.840   1.759
 6584SOL     OW20431   4.306   4.596   1.031
 6584SOL    HW120432   4.338   4.687   1.029
 6584SOL    HW220433   4.251   4.592   1.108
 6585SOL     OW20434   5.085   4.581   1.038
 6585SOL    HW120435   5.010   4.565   0.981
 6585SOL    HW220436   5.137   4.500   1.032
 6586SOL     OW20437   4.932   4.255   0.270
 6586SOL    HW120438   4.935   4.175   0.322
 6586SOL    HW220439   4.886   4.318   0.326
 6587SOL     OW20440   4.023   3.923   1.246
 6587SOL    HW120441   3.986   3.956   1.328
 6587SOL    HW220442   4.004   3.829   1.247
 6588SOL     OW20443   3.775   5.046   1.284
 6588SOL    HW120444   3.801   4.982   1.351
 6588SOL    HW220445   3.811   5.129   1.315
 6589SOL     OW20446   4.448   4.355   1.058
 6589SOL    HW120447   4.523   4.338   1.001
 6589SOL    HW220448   4.421   4.444   1.037
 6590SOL     OW20449   4.025   3.789   0.623
 6590SOL    HW120450   4.008   3.880   0.647
 6590SOL    HW220451   4.033   3.743   0.707
 6591SOL     OW20452   0.045   4.102   0.358
 6591SOL    HW120453   0.061   4.044   0.433
 6591SOL    HW220454   0.016   4.184   0.397
 6592SOL     OW20455   4.750   4.483   0.960
 6592SOL    HW120456   4.750   4.501   1.054
 6592SOL    HW220457   4.725   4.391   0.954
 6593SOL     OW20458   4.077   4.640   1.808
 6593SOL    HW120459   4.159   4.659   1.853
 6593SOL    HW220460   4.101   4.578   1.740
 6594SOL     OW20461   5.027   4.556   0.027
 6594SOL    HW120462   5.060   4.468   0.045
 6594SOL    HW220463   5.060   4.577   8.020
 6595SOL     OW20464   4.781   5.077   0.830
 6595SOL    HW120465   4.788   4.993   0.785
 6595SOL    HW220466   4.866   5.119   0.815
 6596SOL     OW20467   4.033   4.533   0.947
 6596SOL    HW120468   4.126   4.555   0.942
 6596SOL    HW220469   4.032   4.444   0.981
 6597SOL     OW20470   4.056   4.249   1.012
 6597SOL    HW120471   4.021   4.161   0.996
 6597SOL    HW220472   4.132   4.255   0.955
 6598SOL     OW20473   4.856   4.101   1.680
 6598SOL    HW120474   4.810   4.156   1.743
 6598SOL    HW220475   4.944   4.139   1.675
 6599SOL     OW20476   4.885   3.927   1.469
 6599SOL    HW120477   4.874   3.989   1.541
 6599SOL    HW220478   4.923   3.979   1.398
 6600SOL     OW20479   3.734   5.045   0.181
 6600SOL    HW120480   3.646   5.058   0.146
 6600SOL    HW220481   3.733   4.958   0.220
 6601SOL     OW20482   4.708   4.517   1.227
 6601SOL    HW120483   4.764   4.494   1.302
 6601SOL    HW220484   4.622   4.479   1.249
 6602SOL     OW20485   3.760   4.268   1.116
 6602SOL    HW120486   3.841   4.253   1.068
 6602SOL    HW220487   3.788   4.273   1.208
 6603SOL     OW20488   3.915   4.243   1.727
 6603SOL    HW120489   3.973   4.206   1.660
 6603SOL    HW220490   3.871   4.316   1.683
 6604SOL     OW20491   5.111   4.663   1.666
 6604SOL    HW120492   5.119   4.758   1.654
 6604SOL    HW220493   5.113   4.628   1.577
 6605SOL     OW20494   4.542   4.293   0.365
 6605SOL    HW120495   4.550   4.222   0.302
 6605SOL    HW220496   4.466   4.343   0.335
 6606SOL     OW20497   3.930   5.277   1.745
 6606SOL    HW120498   3.918   0.030   1.823
 6606SOL    HW220499   3.943   5.188   1.777
 6607SOL     OW20500   4.422   4.176   1.260
 6607SOL    HW120501   4.371   4.101   1.229
 6607SOL    HW220502   4.420   4.238   1.188
 6608SOL     OW20503   4.193   4.215   0.180
 6608SOL    HW120504   4.258   4.281   0.199
 6608SOL    HW220505   4.109   4.260   0.190
 6609SOL     OW20506   3.870   4.863   1.470
 6609SOL    HW120507   3.873   4.811   1.551
 6609SOL    HW220508   3.887   4.800   1.400
 6610SOL     OW20509   5.051   4.771   1.227
 6610SOL    HW120510   5.076   4.709   1.158
 6610SOL    HW220511   4.980   4.822   1.189
 6611SOL     OW20512   5.022   4.594   0.319
 6611SOL    HW120513   4.945   4.548   0.352
 6611SOL    HW220514   5.024   4.573   0.225
 6612SOL     OW20515   3.816   4.986   1.021
 6612SOL    HW120516   3.795   5.003   1.113
 6612SOL    HW220517   3.736   4.947   0.985
 6613SOL     OW20518   4.469   0.036   1.712
 6613SOL    HW120519   4.377   0.062   1.716
 6613SOL    HW220520   4.499   0.065   1.626
 6614SOL     OW20521   4.629   3.815   0.134
 6614SOL    HW120522   4.650   3.799   0.042
 6614SOL    HW220523   4.692   3.761   0.182
 6615SOL     OW20524   0.083   3.873   0.521
 6615SOL    HW120525   0.174   3.868   0.493
 6615SOL    HW220526   0.074   3.803   0.586
 6616SOL     OW20527   5.016   4.642   0.673
 6616SOL    HW120528   5.093   4.588   0.659
 6616SOL    HW220529   5.033   4.722   0.624
 6617SOL     OW20530   4.544   4.993   1.424
 6617SOL    HW120531   4.515   5.030   1.508
 6617SOL    HW220532   4.469   5.005   1.366
 6618SOL     OW20533   3.987   4.040   0.718
 6618SOL    HW120534   3.901   4.076   0.694
 6618SOL    HW220535   3.984   4.032   0.813
 6619SOL     OW20536   4.858   0.020   0.008
 6619SOL    HW120537   4.883   5.232   0.035
 6619SOL    HW220538   4.866   0.019   7.993
 6620SOL     OW20539   4.549   4.728   1.370
 6620SOL    HW120540   4.595   4.723   1.287
 6620SOL    HW220541   4.552   4.821   1.393
 6621SOL     OW20542   4.642   4.638   0.299
 6621SOL    HW120543   4.697   4.665   0.225
 6621SOL    HW220544   4.690   4.565   0.339
 6622SOL     OW20545   4.089   5.025   1.496
 6622SOL    HW120546   4.079   5.100   1.437
 6622SOL    HW220547   4.014   4.969   1.478
 6623SOL     OW20548   4.775   4.833   0.711
 6623SOL    HW120549   4.705   4.781   0.749
 6623SOL    HW220550   4.833   4.769   0.669
 6624SOL     OW20551   4.740   3.963   0.968
 6624SOL    HW120552   4.738   3.915   0.885
 6624SOL    HW220553   4.736   3.895   1.035
 6625SOL     OW20554   3.988   5.029   0.288
 6625SOL    HW120555   3.906   5.046   0.241
 6625SOL    HW220556   3.980   5.080   0.369
 6626SOL     OW20557   3.836   4.744   1.718
 6626SOL    HW120558   3.760   4.721   1.772
 6626SOL    HW220559   3.911   4.708   1.766
 6627SOL     OW20560   4.398   3.920   1.499
 6627SOL    HW120561   4.482   3.901   1.457
 6627SOL    HW220562   4.421   3.951   1.587
 6628SOL     OW20563   3.782   4.086   0.039
 6628SOL    HW120564   3.707   4.031   0.015
 6628SOL    HW220565   3.828   4.102   8.037
 6629SOL     OW20566   5.163   4.583   1.404
 6629SOL    HW120567   5.110   4.640   1.347
 6629SOL    HW220568   5.252   4.592   1.369
 6630SOL     OW20569   3.795   3.879   0.307
 6630SOL    HW120570   3.779   3.963   0.264
 6630SOL    HW220571   3.880   3.849   0.273
 6631SOL     OW20572   4.907   5.054   0.109
 6631SOL    HW120573   4.811   5.046   0.109
 6631SOL    HW220574   4.929   5.062   0.202
 6632SOL     OW20575   4.343   4.555   1.433
 6632SOL    HW120576   4.399   4.631   1.417
 6632SOL    HW220577   4.403   4.482   1.441
 6633SOL     OW20578   4.441   4.288   1.705
 6633SOL    HW120579   4.480   4.351   1.766
 6633SOL    HW220580   4.471   4.203   1.736
 6634SOL     OW20581   5.184   4.928   1.633
 6634SOL    HW120582   5.174   4.940   1.727
 6634SOL    HW220583   5.279   4.933   1.618
 6635SOL     OW20584   4.935   4.048   0.460
 6635SOL    HW120585   4.998   3.977   0.449
 6635SOL    HW220586   4.965   4.094   0.539
 6636SOL     OW20587   4.313   4.462   0.668
 6636SOL    HW120588   4.353   4.547   0.655
 6636SOL    HW220589   4.244   4.457   0.602
 6637SOL     OW20590   4.632   5.097   0.036
 6637SOL    HW120591   4.572   5.079   0.108
 6637SOL    HW220592   4.587   5.161   8.062
 6638SOL     OW20593   4.591   4.690   0.856
 6638SOL    HW120594   4.642   4.619   0.896
 6638SOL    HW220595   4.558   4.741   0.930
 6639SOL     OW20596   4.801   4.701   0.087
 6639SOL    HW120597   4.787   4.758   0.011
 6639SOL    HW220598   4.883   4.655   0.068
 6640SOL     OW20599   3.947   5.025   1.853
 6640SOL    HW120600   3.878   4.963   1.828
 6640SOL    HW220601   3.936   5.037   1.947
 6641SOL     OW20602   3.810   4.955   0.669
 6641SOL    HW120603   3.808   4.903   0.749
 6641SOL    HW220604   3.879   4.915   0.616
 6642SOL     OW20605   4.393   5.107   1.609
 6642SOL    HW120606   4.318   5.073   1.657
 6642SOL    HW220607   4.424   5.182   1.660
 6643SOL     OW20608   4.149   4.160   0.523
 6643SOL    HW120609   4.182   4.088   0.469
 6643SOL    HW220610   4.105   4.116   0.596
 6644SOL     OW20611   0.122   5.228   1.052
 6644SOL    HW120612   0.038   5.205   1.013
 6644SOL    HW220613   0.106   5.228   1.147
 6645SOL     OW20614   4.053   4.278   1.291
 6645SOL    HW120615   4.109   4.223   1.347
 6645SOL    HW220616   4.073   4.250   1.202
 6646SOL     OW20617   5.148   3.942   1.115
 6646SOL    HW120618   5.193   3.877   1.169
 6646SOL    HW220619   5.102   3.998   1.178
 6647SOL     OW20620   4.730   3.743   1.143
 6647SOL    HW120621   4.677   3.674   1.103
 6647SOL    HW220622   4.818   3.706   1.148
 6648SOL     OW20623   4.518   5.040   0.283
 6648SOL    HW120624   4.462   4.966   0.308
 6648SOL    HW220625   4.577   5.052   0.357
 6649SOL     OW20626   4.346   5.299   1.290
 6649SOL    HW120627   4.353   0.054   1.368
 6649SOL    HW220628   4.436   5.280   1.265
 6650SOL     OW20629   5.052   3.785   0.184
 6650SOL    HW120630   5.095   3.736   0.115
 6650SOL    HW220631   4.975   3.734   0.207
 6651SOL     OW20632   5.029   4.184   0.684
 6651SOL    HW120633   4.974   4.262   0.688
 6651SOL    HW220634   5.017   4.142   0.769
 6652SOL     OW20635   0.000   3.948   0.877
 6652SOL    HW120636   5.236   3.936   0.947
 6652SOL    HW220637   5.278   4.032   0.837
 6653SOL     OW20638   3.765   4.792   0.302
 6653SOL    HW120639   3.860   4.794   0.306
 6653SOL    HW220640   3.741   4.709   0.343
 6654SOL     OW20641   3.954   4.347   1.984
 6654SOL    HW120642   3.864   4.347   2.018
 6654SOL    HW220643   3.945   4.321   1.893
 6655SOL     OW20644   3.949   4.004   2.853
 6655SOL    HW120645   3.977   3.971   2.938
 6655SOL    HW220646   3.859   3.972   2.844
 6656SOL     OW20647   3.729   4.106   2.500
 6656SOL    HW120648   3.646   4.131   2.541
 6656SOL    HW220649   3.708   4.027   2.451
 6657SOL     OW20650   4.290   5.004   3.039
 6657SOL    HW120651   4.204   5.003   2.996
 6657SOL    HW220652   4.302   5.095   3.067
 6658SOL     OW20653   5.276   5.232   2.556
 6658SOL    HW120654   5.263   5.216   2.649
 6658SOL    HW220655   5.187   5.232   2.519
 6659SOL     OW20656   4.857   4.423   2.563
 6659SOL    HW120657   4.908   4.504   2.553
 6659SOL    HW220658   4.809   4.435   2.645
 6660SOL     OW20659   4.481   4.869   2.899
 6660SOL    HW120660   4.413   4.900   2.959
 6660SOL    HW220661   4.511   4.947   2.853
 6661SOL     OW20662   4.591   4.501   3.684
 6661SOL    HW120663   4.574   4.573   3.745
 6661SOL    HW220664   4.613   4.544   3.602
 6662SOL     OW20665   4.410   4.728   2.511
 6662SOL    HW120666   4.474   4.716   2.581
 6662SOL    HW220667   4.341   4.780   2.551
 6663SOL     OW20668   4.433   4.874   3.673
 6663SOL    HW120669   4.480   4.953   3.697
 6663SOL    HW220670   4.349   4.906   3.639
 6664SOL     OW20671   4.061   5.153   2.923
 6664SOL    HW120672   3.984   5.109   2.885
 6664SOL    HW220673   4.102   5.196   2.848
 6665SOL     OW20674   5.132   5.236   3.203
 6665SOL    HW120675   5.153   0.007   3.264
 6665SOL    HW220676   5.111   5.162   3.260
 6666SOL     OW20677   4.172   4.123   3.351
 6666SOL    HW120678   4.247   4.063   3.355
 6666SOL    HW220679   4.096   4.066   3.363
 6667SOL     OW20680   4.864   5.053   3.561
 6667SOL    HW120681   4.887   5.066   3.653
 6667SOL    HW220682   4.803   4.979   3.562
 6668SOL     OW20683   3.934   5.155   2.382
 6668SOL    HW120684   3.959   5.238   2.422
 6668SOL    HW220685   3.882   5.111   2.449
 6669SOL     OW20686   3.980   4.811   2.753
 6669SOL    HW120687   3.978   4.725   2.793
 6669SOL    HW220688   3.923   4.865   2.808
 6670SOL     OW20689   4.311   4.705   1.995
 6670SOL    HW120690   4.356   4.755   1.927
 6670SOL    HW220691   4.350   4.734   2.077
 6671SOL     OW20692   3.839   4.376   2.421
 6671SOL    HW120693   3.809   4.287   2.442
 6671SOL    HW220694   3.830   4.424   2.504
 6672SOL     OW20695   3.710   0.014   1.961
 6672SOL    HW120696   3.727   5.225   1.991
 6672SOL    HW220697   3.733   0.069   2.037
 6673SOL     OW20698   0.112   4.659   2.431
 6673SOL    HW120699   0.199   4.627   2.455
 6673SOL    HW220700   0.128   4.748   2.397
 6674SOL     OW20701   3.847   4.466   3.449
 6674SOL    HW120702   3.939   4.490   3.458
 6674SOL    HW220703   3.799   4.549   3.456
 6675SOL     OW20704   4.345   5.097   2.597
 6675SOL    HW120705   4.291   5.018   2.597
 6675SOL    HW220706   4.326   5.140   2.514
 6676SOL     OW20707   5.019   4.969   3.283
 6676SOL    HW120708   5.048   4.898   3.226
 6676SOL    HW220709   5.067   4.955   3.365
 6677SOL     OW20710   4.537   3.723   2.369
 6677SOL    HW120711   4.578   3.808   2.351
 6677SOL    HW220712   4.444   3.743   2.379
 6678SOL     OW20713   3.915   4.691   3.131
 6678SOL    HW120714   3.999   4.648   3.116
 6678SOL    HW220715   3.851   4.635   3.086
 6679SOL     OW20716   4.056   3.974   3.673
 6679SOL    HW120717   4.101   4.057   3.687
 6679SOL    HW220718   3.967   3.989   3.704
 6680SOL     OW20719   5.178   5.152   2.814
 6680SOL    HW120720   5.110   5.162   2.880
 6680SOL    HW220721   5.164   5.065   2.777
 6681SOL     OW20722   0.046   0.163   2.428
 6681SOL    HW120723   0.087   0.123   2.351
 6681SOL    HW220724   0.036   0.090   2.490
 6682SOL     OW20725   4.320   4.446   2.127
 6682SOL    HW120726   4.327   4.527   2.077
 6682SOL    HW220727   4.255   4.465   2.195
 6683SOL     OW20728   4.996   4.061   2.782
 6683SOL    HW120729   4.908   4.030   2.803
 6683SOL    HW220730   5.051   4.026   2.853
 6684SOL     OW20731   4.515   4.341   3.314
 6684SOL    HW120732   4.489   4.318   3.403
 6684SOL    HW220733   4.474   4.275   3.258
 6685SOL     OW20734   5.115   4.203   3.542
 6685SOL    HW120735   5.116   4.241   3.630
 6685SOL    HW220736   5.190   4.144   3.541
 6686SOL     OW20737   4.679   4.612   3.443
 6686SOL    HW120738   4.732   4.541   3.409
 6686SOL    HW220739   4.631   4.646   3.367
 6687SOL     OW20740   4.715   4.137   3.101
 6687SOL    HW120741   4.630   4.159   3.139
 6687SOL    HW220742   4.694   4.090   3.020
 6688SOL     OW20743   4.774   4.422   2.288
 6688SOL    HW120744   4.789   4.416   2.382
 6688SOL    HW220745   4.692   4.375   2.274
 6689SOL     OW20746   3.812   4.544   2.638
 6689SOL    HW120747   3.893   4.537   2.688
 6689SOL    HW220748   3.769   4.622   2.673
 6690SOL     OW20749   4.615   4.071   2.056
 6690SOL    HW120750   4.656   4.132   1.995
 6690SOL    HW220751   4.632   3.984   2.019
 6691SOL     OW20752   5.091   4.867   2.407
 6691SOL    HW120753   5.180   4.865   2.373
 6691SOL    HW220754   5.045   4.928   2.350
 6692SOL     OW20755   4.274   3.906   2.755
 6692SOL    HW120756   4.276   3.935   2.846
 6692SOL    HW220757   4.275   3.988   2.704
 6693SOL     OW20758   4.746   5.169   2.331
 6693SOL    HW120759   4.668   5.224   2.322
 6693SOL    HW220760   4.760   5.163   2.426
 6694SOL     OW20761   4.940   5.260   3.414
 6694SOL    HW120762   4.916   5.178   3.457
 6694SOL    HW220763   4.902   5.253   3.326
 6695SOL     OW20764   4.045   4.680   2.111
 6695SOL    HW120765   4.127   4.700   2.066
 6695SOL    HW220766   4.014   4.598   2.071
 6696SOL     OW20767   4.188   4.987   3.602
 6696SOL    HW120768   4.161   4.990   3.510
 6696SOL    HW220769   4.106   4.986   3.651
 6697SOL     OW20770   4.791   0.175   2.073
 6697SOL    HW120771   4.803   0.118   2.149
 6697SOL    HW220772   4.868   0.159   2.018
 6698SOL     OW20773   3.924   4.006   3.363
 6698SOL    HW120774   3.842   4.055   3.357
 6698SOL    HW220775   3.907   3.937   3.427
 6699SOL     OW20776   5.122   3.831   2.286
 6699SOL    HW120777   5.102   3.813   2.195
 6699SOL    HW220778   5.216   3.846   2.288
 6700SOL     OW20779   4.116   4.419   2.339
 6700SOL    HW120780   4.137   4.327   2.350
 6700SOL    HW220781   4.022   4.424   2.357
 6701SOL     OW20782   4.357   3.847   1.968
 6701SOL    HW120783   4.429   3.785   1.979
 6701SOL    HW220784   4.309   3.815   1.892
 6702SOL     OW20785   4.491   4.002   3.616
 6702SOL    HW120786   4.566   3.943   3.618
 6702SOL    HW220787   4.441   3.982   3.695
 6703SOL     OW20788   5.058   4.315   3.294
 6703SOL    HW120789   5.091   4.283   3.378
 6703SOL    HW220790   5.100   4.401   3.283
 6704SOL     OW20791   4.535   5.121   2.797
 6704SOL    HW120792   4.616   5.107   2.748
 6704SOL    HW220793   4.467   5.126   2.729
 6705SOL     OW20794   4.651   4.233   2.765
 6705SOL    HW120795   4.628   4.224   2.673
 6705SOL    HW220796   4.683   4.147   2.790
 6706SOL     OW20797   4.272   3.787   2.365
 6706SOL    HW120798   4.192   3.788   2.417
 6706SOL    HW220799   4.267   3.865   2.311
 6707SOL     OW20800   5.138   4.904   1.905
 6707SOL    HW120801   5.147   4.826   1.960
 6707SOL    HW220802   5.049   4.935   1.922
 6708SOL     OW20803   4.016   3.771   2.046
 6708SOL    HW120804   4.075   3.836   2.007
 6708SOL    HW220805   4.075   3.708   2.088
 6709SOL     OW20806   4.661   3.969   2.323
 6709SOL    HW120807   4.633   4.011   2.241
 6709SOL    HW220808   4.755   3.981   2.325
 6710SOL     OW20809   4.801   4.405   3.323
 6710SOL    HW120810   4.733   4.337   3.325
 6710SOL    HW220811   4.883   4.356   3.313
 6711SOL     OW20812   4.984   5.266   2.635
 6711SOL    HW120813   4.951   0.053   2.611
 6711SOL    HW220814   5.036   5.281   2.713
 6712SOL     OW20815   4.189   4.871   2.594
 6712SOL    HW120816   4.120   4.852   2.657
 6712SOL    HW220817   4.150   4.853   2.509
 6713SOL     OW20818   4.749   4.269   1.883
 6713SOL    HW120819   4.705   4.351   1.862
 6713SOL    HW220820   4.810   4.291   1.953
 6714SOL     OW20821   3.802   4.279   3.254
 6714SOL    HW120822   3.894   4.277   3.227
 6714SOL    HW220823   3.798   4.349   3.319
 6715SOL     OW20824   4.284   3.951   3.027
 6715SOL    HW120825   4.325   3.874   3.066
 6715SOL    HW220826   4.193   3.948   3.057
 6716SOL     OW20827   4.593   4.183   2.501
 6716SOL    HW120828   4.546   4.238   2.438
 6716SOL    HW220829   4.613   4.103   2.454
 6717SOL     OW20830   4.739   3.777   2.615
 6717SOL    HW120831   4.681   3.769   2.539
 6717SOL    HW220832   4.717   3.701   2.669
 6718SOL     OW20833   5.153   4.901   2.712
 6718SOL    HW120834   5.100   4.821   2.722
 6718SOL    HW220835   5.170   4.906   2.618
 6719SOL     OW20836   4.206   5.144   2.018
 6719SOL    HW120837   4.142   5.093   2.068
 6719SOL    HW220838   4.204   5.106   1.931
 6720SOL     OW20839   5.127   4.287   1.941
 6720SOL    HW120840   5.055   4.277   2.003
 6720SOL    HW220841   5.202   4.249   1.985
 6721SOL     OW20842   4.250   3.987   2.181
 6721SOL    HW120843   4.293   3.938   2.111
 6721SOL    HW220844   4.229   4.072   2.143
 6722SOL     OW20845   4.787   5.074   3.192
 6722SOL    HW120846   4.709   5.049   3.243
 6722SOL    HW220847   4.860   5.036   3.241
 6723SOL     OW20848   4.847   4.922   2.971
 6723SOL    HW120849   4.796   4.965   3.040
 6723SOL    HW220850   4.805   4.951   2.889
 6724SOL     OW20851   4.642   3.822   3.259
 6724SOL    HW120852   4.664   3.804   3.168
 6724SOL    HW220853   4.721   3.861   3.296
 6725SOL     OW20854   4.706   4.834   3.591
 6725SOL    HW120855   4.613   4.852   3.607
 6725SOL    HW220856   4.705   4.759   3.531
 6726SOL     OW20857   4.428   4.781   2.234
 6726SOL    HW120858   4.417   4.767   2.328
 6726SOL    HW220859   4.506   4.731   2.211
 6727SOL     OW20860   4.142   4.538   3.113
 6727SOL    HW120861   4.211   4.548   3.179
 6727SOL    HW220862   4.107   4.450   3.128
 6728SOL     OW20863   4.989   4.100   3.138
 6728SOL    HW120864   5.024   4.179   3.179
 6728SOL    HW220865   4.900   4.123   3.112
 6729SOL     OW20866   4.073   4.831   2.352
 6729SOL    HW120867   4.076   4.905   2.290
 6729SOL    HW220868   4.072   4.753   2.296
 6730SOL     OW20869   4.278   4.261   2.722
 6730SOL    HW120870   4.293   4.319   2.648
 6730SOL    HW220871   4.342   4.288   2.788
 6731SOL     OW20872   4.984   5.076   2.250
 6731SOL    HW120873   5.037   5.151   2.277
 6731SOL    HW220874   4.895   5.098   2.277
 6732SOL     OW20875   4.979   5.180   2.995
 6732SOL    HW120876   5.034   5.202   3.069
 6732SOL    HW220877   4.940   5.096   3.017
 6733SOL     OW20878   4.072   5.236   3.178
 6733SOL    HW120879   4.061   5.201   3.089
 6733SOL    HW220880   4.165   5.257   3.184
 6734SOL     OW20881   4.138   4.469   3.464
 6734SOL    HW120882   4.199   4.514   3.406
 6734SOL    HW220883   4.177   4.383   3.479
 6735SOL     OW20884   4.718   3.846   3.618
 6735SOL    HW120885   4.774   3.919   3.589
 6735SOL    HW220886   4.766   3.768   3.592
 6736SOL     OW20887   4.222   3.766   3.609
 6736SOL    HW120888   4.180   3.711   3.543
 6736SOL    HW220889   4.162   3.840   3.621
 6737SOL     OW20890   4.307   4.596   2.893
 6737SOL    HW120891   4.337   4.687   2.891
 6737SOL    HW220892   4.250   4.592   2.970
 6738SOL     OW20893   5.086   4.582   2.898
 6738SOL    HW120894   5.009   4.564   2.844
 6738SOL    HW220895   5.136   4.500   2.895
 6739SOL     OW20896   4.929   4.255   2.128
 6739SOL    HW120897   4.937   4.175   2.180
 6739SOL    HW220898   4.886   4.318   2.185
 6740SOL     OW20899   4.024   3.923   3.108
 6740SOL    HW120900   3.986   3.956   3.190
 6740SOL    HW220901   4.004   3.829   3.109
 6741SOL     OW20902   3.775   5.046   3.146
 6741SOL    HW120903   3.801   4.982   3.213
 6741SOL    HW220904   3.811   5.129   3.177
 6742SOL     OW20905   4.448   4.355   2.920
 6742SOL    HW120906   4.523   4.338   2.863
 6742SOL    HW220907   4.421   4.444   2.899
 6743SOL     OW20908   4.026   3.789   2.485
 6743SOL    HW120909   4.008   3.880   2.509
 6743SOL    HW220910   4.033   3.743   2.569
 6744SOL     OW20911   0.035   4.116   2.222
 6744SOL    HW120912   0.056   4.043   2.280
 6744SOL    HW220913   0.016   4.188   2.282
 6745SOL     OW20914   4.751   4.483   2.823
 6745SOL    HW120915   4.750   4.501   2.917
 6745SOL    HW220916   4.725   4.391   2.816
 6746SOL     OW20917   4.077   4.640   3.671
 6746SOL    HW120918   4.159   4.659   3.715
 6746SOL    HW220919   4.101   4.578   3.602
 6747SOL     OW20920   5.027   4.553   1.899
 6747SOL    HW120921   5.065   4.465   1.900
 6747SOL    HW220922   5.054   4.589   1.814
 6748SOL     OW20923   4.781   5.077   2.691
 6748SOL    HW120924   4.788   4.993   2.646
 6748SOL    HW220925   4.866   5.118   2.676
 6749SOL     OW20926   4.033   4.533   2.810
 6749SOL    HW120927   4.126   4.554   2.803
 6749SOL    HW220928   4.031   4.444   2.843
 6750SOL     OW20929   4.056   4.249   2.874
 6750SOL    HW120930   4.021   4.161   2.858
 6750SOL    HW220931   4.132   4.255   2.816
 6751SOL     OW20932   4.856   4.101   3.542
 6751SOL    HW120933   4.810   4.156   3.605
 6751SOL    HW220934   4.944   4.139   3.537
 6752SOL     OW20935   4.885   3.927   3.331
 6752SOL    HW120936   4.874   3.989   3.403
 6752SOL    HW220937   4.923   3.979   3.260
 6753SOL     OW20938   3.730   5.042   2.053
 6753SOL    HW120939   3.640   5.059   2.025
 6753SOL    HW220940   3.728   4.954   2.090
 6754SOL     OW20941   4.708   4.517   3.089
 6754SOL    HW120942   4.763   4.494   3.164
 6754SOL    HW220943   4.623   4.479   3.110
 6755SOL     OW20944   3.760   4.268   2.978
 6755SOL    HW120945   3.840   4.253   2.929
 6755SOL    HW220946   3.788   4.272   3.070
 6756SOL     OW20947   3.915   4.242   3.589
 6756SOL    HW120948   3.972   4.205   3.521
 6756SOL    HW220949   3.871   4.316   3.545
 6757SOL     OW20950   5.111   4.663   3.528
 6757SOL    HW120951   5.119   4.758   3.516
 6757SOL    HW220952   5.113   4.628   3.439
 6758SOL     OW20953   4.540   4.293   2.220
 6758SOL    HW120954   4.542   4.218   2.160
 6758SOL    HW220955   4.466   4.345   2.189
 6759SOL     OW20956   3.930   5.277   3.607
 6759SOL    HW120957   3.918   0.030   3.686
 6759SOL    HW220958   3.943   5.188   3.639
 6760SOL     OW20959   4.422   4.175   3.123
 6760SOL    HW120960   4.371   4.101   3.091
 6760SOL    HW220961   4.420   4.238   3.050
 6761SOL     OW20962   4.189   4.217   2.050
 6761SOL    HW120963   4.247   4.290   2.071
 6761SOL    HW220964   4.103   4.257   2.037
 6762SOL     OW20965   3.870   4.863   3.332
 6762SOL    HW120966   3.873   4.811   3.413
 6762SOL    HW220967   3.887   4.800   3.262
 6763SOL     OW20968   5.051   4.771   3.089
 6763SOL    HW120969   5.076   4.710   3.020
 6763SOL    HW220970   4.980   4.822   3.051
 6764SOL     OW20971   5.033   4.583   2.178
 6764SOL    HW120972   4.951   4.550   2.215
 6764SOL    HW220973   5.022   4.575   2.083
 6765SOL     OW20974   3.816   4.986   2.883
 6765SOL    HW120975   3.795   5.003   2.975
 6765SOL    HW220976   3.737   4.947   2.847
 6766SOL     OW20977   4.469   0.036   3.574
 6766SOL    HW120978   4.377   0.062   3.578
 6766SOL    HW220979   4.498   0.065   3.487
 6767SOL     OW20980   0.083   3.883   2.391
 6767SOL    HW120981   0.168   3.871   2.348
 6767SOL    HW220982   0.070   3.802   2.441
 6768SOL     OW20983   5.016   4.643   2.535
 6768SOL    HW120984   5.093   4.588   2.522
 6768SOL    HW220985   5.034   4.722   2.485
 6769SOL     OW20986   4.544   4.993   3.286
 6769SOL    HW120987   4.516   5.030   3.370
 6769SOL    HW220988   4.469   5.005   3.228
 6770SOL     OW20989   3.987   4.040   2.579
 6770SOL    HW120990   3.902   4.076   2.555
 6770SOL    HW220991   3.983   4.032   2.675
 6771SOL     OW20992   4.549   4.728   3.232
 6771SOL    HW120993   4.594   4.723   3.149
 6771SOL    HW220994   4.552   4.821   3.255
 6772SOL     OW20995   4.640   4.635   2.152
 6772SOL    HW120996   4.702   4.668   2.087
 6772SOL    HW220997   4.687   4.564   2.196
 6773SOL     OW20998   4.090   5.025   3.358
 6773SOL    HW120999   4.079   5.100   3.299
 6773SOL    HW221000   4.014   4.969   3.340
 6774SOL     OW21001   4.776   4.833   2.573
 6774SOL    HW121002   4.704   4.782   2.611
 6774SOL    HW221003   4.833   4.767   2.533
 6775SOL     OW21004   4.740   3.963   2.830
 6775SOL    HW121005   4.737   3.916   2.747
 6775SOL    HW221006   4.736   3.895   2.897
 6776SOL     OW21007   3.981   5.053   2.144
 6776SOL    HW121008   3.889   5.056   2.117
 6776SOL    HW221009   3.983   5.095   2.230
 6777SOL     OW21010   3.836   4.744   3.580
 6777SOL    HW121011   3.760   4.721   3.634
 6777SOL    HW221012   3.911   4.708   3.628
 6778SOL     OW21013   4.398   3.920   3.361
 6778SOL    HW121014   4.482   3.901   3.319
 6778SOL    HW221015   4.421   3.951   3.449
 6779SOL     OW21016   3.802   4.059   1.897
 6779SOL    HW121017   3.715   4.039   1.863
 6779SOL    HW221018   3.831   4.133   1.845
 6780SOL     OW21019   5.163   4.583   3.266
 6780SOL    HW121020   5.110   4.640   3.209
 6780SOL    HW221021   5.252   4.592   3.232
 6781SOL     OW21022   3.793   3.881   2.173
 6781SOL    HW121023   3.779   3.961   2.123
 6781SOL    HW221024   3.878   3.848   2.143
 6782SOL     OW21025   4.909   5.059   1.983
 6782SOL    HW121026   4.816   5.041   1.981
 6782SOL    HW221027   4.933   5.055   2.076
 6783SOL     OW21028   4.343   4.555   3.295
 6783SOL    HW121029   4.399   4.631   3.279
 6783SOL    HW221030   4.403   4.482   3.303
 6784SOL     OW21031   4.441   4.288   3.567
 6784SOL    HW121032   4.480   4.350   3.628
 6784SOL    HW221033   4.471   4.202   3.598
 6785SOL     OW21034   5.184   4.929   3.495
 6785SOL    HW121035   5.174   4.940   3.589
 6785SOL    HW221036   5.279   4.932   3.480
 6786SOL     OW21037   4.941   4.044   2.318
 6786SOL    HW121038   5.003   3.972   2.305
 6786SOL    HW221039   4.971   4.088   2.398
 6787SOL     OW21040   4.315   4.462   2.530
 6787SOL    HW121041   4.353   4.549   2.516
 6787SOL    HW221042   4.246   4.455   2.464
 6788SOL     OW21043   4.580   5.095   1.881
 6788SOL    HW121044   4.555   5.098   1.974
 6788SOL    HW221045   4.592   5.187   1.856
 6789SOL     OW21046   4.591   4.691   2.718
 6789SOL    HW121047   4.641   4.620   2.758
 6789SOL    HW221048   4.557   4.741   2.792
 6790SOL     OW21049   4.808   4.712   1.954
 6790SOL    HW121050   4.781   4.760   1.875
 6790SOL    HW221051   4.882   4.659   1.925
 6791SOL     OW21052   3.947   5.025   3.715
 6791SOL    HW121053   3.879   4.963   3.690
 6791SOL    HW221054   3.936   5.037   3.809
 6792SOL     OW21055   3.809   4.956   2.532
 6792SOL    HW121056   3.809   4.903   2.611
 6792SOL    HW221057   3.873   4.914   2.475
 6793SOL     OW21058   4.393   5.107   3.471
 6793SOL    HW121059   4.318   5.073   3.519
 6793SOL    HW221060   4.424   5.182   3.522
 6794SOL     OW21061   4.154   4.158   2.387
 6794SOL    HW121062   4.183   4.087   2.330
 6794SOL    HW221063   4.106   4.114   2.458
 6795SOL     OW21064   0.122   5.228   2.913
 6795SOL    HW121065   0.038   5.204   2.876
 6795SOL    HW221066   0.107   5.232   3.007
 6796SOL     OW21067   4.053   4.278   3.153
 6796SOL    HW121068   4.109   4.223   3.208
 6796SOL    HW221069   4.073   4.250   3.064
 6797SOL     OW21070   5.148   3.942   2.977
 6797SOL    HW121071   5.193   3.878   3.031
 6797SOL    HW221072   5.102   3.998   3.040
 6798SOL     OW21073   4.730   3.743   3.006
 6798SOL    HW121074   4.677   3.675   2.965
 6798SOL    HW221075   4.818   3.706   3.009
 6799SOL     OW21076   4.525   5.047   2.146
 6799SOL    HW121077   4.463   4.977   2.165
 6799SOL    HW221078   4.580   5.052   2.224
 6800SOL     OW21079   4.346   5.299   3.152
 6800SOL    HW121080   4.353   0.054   3.230
 6800SOL    HW221081   4.436   5.280   3.127
 6801SOL     OW21082   5.059   3.770   2.030
 6801SOL    HW121083   5.084   3.730   1.947
 6801SOL    HW221084   4.974   3.731   2.050
 6802SOL     OW21085   5.028   4.182   2.545
 6802SOL    HW121086   4.973   4.260   2.549
 6802SOL    HW221087   5.018   4.141   2.631
 6803SOL     OW21088   0.002   3.948   2.741
 6803SOL    HW121089   5.236   3.938   2.809
 6803SOL    HW221090   5.278   4.029   2.696
 6804SOL     OW21091   3.766   4.795   2.169
 6804SOL    HW121092   3.860   4.789   2.152
 6804SOL    HW221093   3.739   4.706   2.191
 6805SOL     OW21094   3.954   4.347   3.846
 6805SOL    HW121095   3.864   4.347   3.880
 6805SOL    HW221096   3.945   4.321   3.755
 6806SOL     OW21097   3.949   4.004   4.715
 6806SOL    HW121098   3.977   3.971   4.800
 6806SOL    HW221099   3.859   3.973   4.706
 6807SOL     OW21100   3.729   4.107   4.363
 6807SOL    HW121101   3.646   4.131   4.403
 6807SOL    HW221102   3.709   4.028   4.313
 6808SOL     OW21103   4.290   5.004   4.901
 6808SOL    HW121104   4.204   5.003   4.858
 6808SOL    HW221105   4.302   5.095   4.929
 6809SOL     OW21106   5.276   5.232   4.418
 6809SOL    HW121107   5.263   5.216   4.511
 6809SOL    HW221108   5.187   5.232   4.381
 6810SOL     OW21109   4.857   4.423   4.425
 6810SOL    HW121110   4.908   4.504   4.415
 6810SOL    HW221111   4.809   4.435   4.507
 6811SOL     OW21112   4.481   4.869   4.761
 6811SOL    HW121113   4.413   4.900   4.821
 6811SOL    HW221114   4.511   4.947   4.715
 6812SOL     OW21115   4.591   4.501   5.546
 6812SOL    HW121116   4.574   4.572   5.607
 6812SOL    HW221117   4.613   4.544   5.464
 6813SOL     OW21118   4.410   4.728   4.373
 6813SOL    HW121119   4.474   4.716   4.443
 6813SOL    HW221120   4.341   4.780   4.412
 6814SOL     OW21121   4.433   4.874   5.535
 6814SOL    HW121122   4.480   4.953   5.559
 6814SOL    HW221123   4.349   4.906   5.501
 6815SOL     OW21124   4.061   5.153   4.785
 6815SOL    HW121125   3.984   5.109   4.747
 6815SOL    HW221126   4.102   5.197   4.710
 6816SOL     OW21127   5.132   5.236   5.065
 6816SOL    HW121128   5.153   0.007   5.126
 6816SOL    HW221129   5.111   5.162   5.122
 6817SOL     OW21130   4.172   4.122   5.213
 6817SOL    HW121131   4.247   4.063   5.218
 6817SOL    HW221132   4.096   4.065   5.225
 6818SOL     OW21133   4.864   5.053   5.423
 6818SOL    HW121134   4.887   5.066   5.515
 6818SOL    HW221135   4.803   4.979   5.424
 6819SOL     OW21136   3.934   5.155   4.244
 6819SOL    HW121137   3.959   5.238   4.284
 6819SOL    HW221138   3.882   5.111   4.311
 6820SOL     OW21139   3.980   4.811   4.615
 6820SOL    HW121140   3.978   4.725   4.655
 6820SOL    HW221141   3.923   4.865   4.670
 6821SOL     OW21142   4.311   4.705   3.857
 6821SOL    HW121143   4.356   4.755   3.789
 6821SOL    HW221144   4.350   4.734   3.939
 6822SOL     OW21145   3.839   4.376   4.283
 6822SOL    HW121146   3.810   4.287   4.304
 6822SOL    HW221147   3.830   4.424   4.366
 6823SOL     OW21148   3.710   0.014   3.823
 6823SOL    HW121149   3.727   5.225   3.853
 6823SOL    HW221150   3.733   0.069   3.899
 6824SOL     OW21151   0.112   4.659   4.293
 6824SOL    HW121152   0.199   4.627   4.317
 6824SOL    HW221153   0.128   4.748   4.259
 6825SOL     OW21154   3.847   4.466   5.310
 6825SOL    HW121155   3.939   4.490   5.320
 6825SOL    HW221156   3.799   4.549   5.318
 6826SOL     OW21157   4.345   5.097   4.459
 6826SOL    HW121158   4.291   5.018   4.459
 6826SOL    HW221159   4.326   5.140   4.376
 6827SOL     OW21160   5.019   4.969   5.145
 6827SOL    HW121161   5.048   4.898   5.088
 6827SOL    HW221162   5.067   4.955   5.227
 6828SOL     OW21163   4.537   3.724   4.232
 6828SOL    HW121164   4.578   3.808   4.213
 6828SOL    HW221165   4.444   3.743   4.241
 6829SOL     OW21166   3.915   4.691   4.993
 6829SOL    HW121167   3.999   4.648   4.978
 6829SOL    HW221168   3.851   4.635   4.948
 6830SOL     OW21169   4.055   3.974   5.533
 6830SOL    HW121170   4.101   4.057   5.549
 6830SOL    HW221171   3.967   3.989   5.566
 6831SOL     OW21172   5.178   5.152   4.676
 6831SOL    HW121173   5.110   5.162   4.743
 6831SOL    HW221174   5.164   5.065   4.639
 6832SOL     OW21175   0.046   0.162   4.289
 6832SOL    HW121176   0.087   0.123   4.213
 6832SOL    HW221177   0.036   0.090   4.352
 6833SOL     OW21178   4.320   4.446   3.989
 6833SOL    HW121179   4.327   4.527   3.938
 6833SOL    HW221180   4.255   4.465   4.057
 6834SOL     OW21181   4.996   4.061   4.644
 6834SOL    HW121182   4.908   4.030   4.665
 6834SOL    HW221183   5.051   4.026   4.715
 6835SOL     OW21184   4.515   4.341   5.176
 6835SOL    HW121185   4.489   4.318   5.265
 6835SOL    HW221186   4.474   4.275   5.120
 6836SOL     OW21187   5.115   4.203   5.404
 6836SOL    HW121188   5.116   4.241   5.492
 6836SOL    HW221189   5.190   4.144   5.403
 6837SOL     OW21190   4.679   4.612   5.305
 6837SOL    HW121191   4.732   4.541   5.271
 6837SOL    HW221192   4.631   4.646   5.229
 6838SOL     OW21193   4.715   4.137   4.963
 6838SOL    HW121194   4.630   4.159   5.000
 6838SOL    HW221195   4.694   4.090   4.882
 6839SOL     OW21196   4.774   4.422   4.150
 6839SOL    HW121197   4.789   4.416   4.244
 6839SOL    HW221198   4.692   4.375   4.136
 6840SOL     OW21199   3.812   4.544   4.500
 6840SOL    HW121200   3.893   4.537   4.550
 6840SOL    HW221201   3.769   4.622   4.535
 6841SOL     OW21202   4.615   4.071   3.918
 6841SOL    HW121203   4.656   4.132   3.857
 6841SOL    HW221204   4.631   3.984   3.881
 6842SOL     OW21205   5.091   4.867   4.269
 6842SOL    HW121206   5.180   4.865   4.235
 6842SOL    HW221207   5.045   4.928   4.212
 6843SOL     OW21208   4.273   3.906   4.617
 6843SOL    HW121209   4.276   3.935   4.708
 6843SOL    HW221210   4.275   3.988   4.566
 6844SOL     OW21211   4.746   5.169   4.193
 6844SOL    HW121212   4.668   5.224   4.184
 6844SOL    HW221213   4.760   5.163   4.288
 6845SOL     OW21214   4.940   5.260   5.276
 6845SOL    HW121215   4.916   5.178   5.319
 6845SOL    HW221216   4.902   5.253   5.188
 6846SOL     OW21217   4.045   4.680   3.974
 6846SOL    HW121218   4.127   4.700   3.928
 6846SOL    HW221219   4.014   4.598   3.933
 6847SOL     OW21220   4.188   4.987   5.464
 6847SOL    HW121221   4.161   4.990   5.372
 6847SOL    HW221222   4.106   4.986   5.513
 6848SOL     OW21223   4.791   0.175   3.935
 6848SOL    HW121224   4.803   0.118   4.011
 6848SOL    HW221225   4.868   0.159   3.881
 6849SOL     OW21226   3.924   4.006   5.224
 6849SOL    HW121227   3.843   4.056   5.219
 6849SOL    HW221228   3.908   3.940   5.292
 6850SOL     OW21229   5.122   3.831   4.148
 6850SOL    HW121230   5.101   3.813   4.057
 6850SOL    HW221231   5.216   3.846   4.150
 6851SOL     OW21232   4.116   4.419   4.201
 6851SOL    HW121233   4.138   4.327   4.212
 6851SOL    HW221234   4.022   4.424   4.219
 6852SOL     OW21235   4.357   3.847   3.830
 6852SOL    HW121236   4.429   3.785   3.841
 6852SOL    HW221237   4.309   3.815   3.754
 6853SOL     OW21238   4.490   4.002   5.478
 6853SOL    HW121239   4.566   3.943   5.480
 6853SOL    HW221240   4.442   3.982   5.557
 6854SOL     OW21241   5.058   4.315   5.156
 6854SOL    HW121242   5.091   4.283   5.240
 6854SOL    HW221243   5.100   4.401   5.145
 6855SOL     OW21244   4.535   5.121   4.659
 6855SOL    HW121245   4.616   5.107   4.610
 6855SOL    HW221246   4.467   5.126   4.591
 6856SOL     OW21247   4.651   4.233   4.627
 6856SOL    HW121248   4.628   4.224   4.535
 6856SOL    HW221249   4.683   4.147   4.652
 6857SOL     OW21250   4.272   3.787   4.227
 6857SOL    HW121251   4.192   3.788   4.279
 6857SOL    HW221252   4.267   3.865   4.173
 6858SOL     OW21253   5.138   4.904   3.767
 6858SOL    HW121254   5.147   4.826   3.822
 6858SOL    HW221255   5.049   4.935   3.784
 6859SOL     OW21256   4.016   3.771   3.909
 6859SOL    HW121257   4.074   3.836   3.868
 6859SOL    HW221258   4.075   3.708   3.950
 6860SOL     OW21259   4.661   3.970   4.185
 6860SOL    HW121260   4.633   4.011   4.103
 6860SOL    HW221261   4.756   3.981   4.187
 6861SOL     OW21262   4.801   4.405   5.185
 6861SOL    HW121263   4.734   4.337   5.187
 6861SOL    HW221264   4.883   4.356   5.175
 6862SOL     OW21265   4.984   5.266   4.497
 6862SOL    HW121266   4.950   0.053   4.473
 6862SOL    HW221267   5.036   5.281   4.575
 6863SOL     OW21268   4.189   4.871   4.456
 6863SOL    HW121269   4.120   4.852   4.519
 6863SOL    HW221270   4.150   4.853   4.371
 6864SOL     OW21271   4.749   4.269   3.745
 6864SOL    HW121272   4.705   4.351   3.724
 6864SOL    HW221273   4.810   4.291   3.815
 6865SOL     OW21274   3.802   4.279   5.116
 6865SOL    HW121275   3.894   4.277   5.089
 6865SOL    HW221276   3.798   4.349   5.181
 6866SOL     OW21277   4.284   3.951   4.889
 6866SOL    HW121278   4.325   3.874   4.928
 6866SOL    HW221279   4.193   3.948   4.919
 6867SOL     OW21280   4.593   4.183   4.363
 6867SOL    HW121281   4.546   4.238   4.300
 6867SOL    HW221282   4.613   4.103   4.316
 6868SOL     OW21283   4.739   3.777   4.477
 6868SOL    HW121284   4.681   3.769   4.401
 6868SOL    HW221285   4.717   3.701   4.531
 6869SOL     OW21286   5.153   4.901   4.574
 6869SOL    HW121287   5.101   4.821   4.584
 6869SOL    HW221288   5.170   4.906   4.480
 6870SOL     OW21289   4.206   5.144   3.880
 6870SOL    HW121290   4.142   5.093   3.930
 6870SOL    HW221291   4.204   5.106   3.792
 6871SOL     OW21292   5.127   4.287   3.803
 6871SOL    HW121293   5.055   4.277   3.865
 6871SOL    HW221294   5.202   4.249   3.847
 6872SOL     OW21295   4.250   3.987   4.043
 6872SOL    HW121296   4.293   3.938   3.973
 6872SOL    HW221297   4.229   4.072   4.005
 6873SOL     OW21298   4.787   5.074   5.054
 6873SOL    HW121299   4.709   5.049   5.105
 6873SOL    HW221300   4.860   5.036   5.103
 6874SOL     OW21301   4.847   4.922   4.833
 6874SOL    HW121302   4.796   4.965   4.902
 6874SOL    HW221303   4.805   4.951   4.751
 6875SOL     OW21304   4.642   3.822   5.121
 6875SOL    HW121305   4.664   3.804   5.030
 6875SOL    HW221306   4.721   3.861   5.158
 6876SOL     OW21307   4.706   4.834   5.453
 6876SOL    HW121308   4.613   4.852   5.469
 6876SOL    HW221309   4.705   4.759   5.393
 6877SOL     OW21310   4.428   4.781   4.096
 6877SOL    HW121311   4.417   4.767   4.190
 6877SOL    HW221312   4.506   4.731   4.073
 6878SOL     OW21313   4.142   4.538   4.975
 6878SOL    HW121314   4.211   4.548   5.041
 6878SOL    HW221315   4.107   4.450   4.990
 6879SOL     OW21316   4.989   4.100   5.000
 6879SOL    HW121317   5.024   4.179   5.041
 6879SOL    HW221318   4.900   4.123   4.974
 6880SOL     OW21319   4.073   4.831   4.214
 6880SOL    HW121320   4.076   4.905   4.152
 6880SOL    HW221321   4.072   4.753   4.158
 6881SOL     OW21322   4.278   4.261   4.584
 6881SOL    HW121323   4.293   4.319   4.510
 6881SOL    HW221324   4.342   4.288   4.650
 6882SOL     OW21325   4.984   5.076   4.112
 6882SOL    HW121326   5.037   5.151   4.139
 6882SOL    HW221327   4.895   5.098   4.139
 6883SOL     OW21328   4.979   5.180   4.857
 6883SOL    HW121329   5.034   5.202   4.931
 6883SOL    HW221330   4.940   5.096   4.879
 6884SOL     OW21331   4.072   5.236   5.040
 6884SOL    HW121332   4.061   5.201   4.951
 6884SOL    HW221333   4.165   5.257   5.046
 6885SOL     OW21334   4.138   4.469   5.326
 6885SOL    HW121335   4.199   4.514   5.268
 6885SOL    HW221336   4.178   4.383   5.342
 6886SOL     OW21337   4.718   3.846   5.480
 6886SOL    HW121338   4.774   3.919   5.451
 6886SOL    HW221339   4.766   3.768   5.454
 6887SOL     OW21340   4.222   3.766   5.471
 6887SOL    HW121341   4.180   3.711   5.405
 6887SOL    HW221342   4.162   3.840   5.483
 6888SOL     OW21343   4.307   4.596   4.755
 6888SOL    HW121344   4.337   4.687   4.753
 6888SOL    HW221345   4.251   4.592   4.832
 6889SOL     OW21346   5.086   4.582   4.760
 6889SOL    HW121347   5.009   4.564   4.706
 6889SOL    HW221348   5.136   4.500   4.757
 6890SOL     OW21349   4.930   4.255   3.990
 6890SOL    HW121350   4.937   4.175   4.042
 6890SOL    HW221351   4.886   4.318   4.047
 6891SOL     OW21352   4.023   3.923   4.970
 6891SOL    HW121353   3.986   3.956   5.052
 6891SOL    HW221354   4.003   3.829   4.971
 6892SOL     OW21355   3.775   5.046   5.008
 6892SOL    HW121356   3.801   4.982   5.075
 6892SOL    HW221357   3.811   5.129   5.039
 6893SOL     OW21358   4.448   4.355   4.782
 6893SOL    HW121359   4.523   4.338   4.725
 6893SOL    HW221360   4.421   4.444   4.761
 6894SOL     OW21361   4.026   3.789   4.347
 6894SOL    HW121362   4.008   3.880   4.371
 6894SOL    HW221363   4.034   3.743   4.431
 6895SOL     OW21364   0.035   4.116   4.084
 6895SOL    HW121365   0.056   4.043   4.142
 6895SOL    HW221366   0.015   4.188   4.144
 6896SOL     OW21367   4.751   4.483   4.685
 6896SOL    HW121368   4.750   4.501   4.779
 6896SOL    HW221369   4.725   4.391   4.678
 6897SOL     OW21370   4.077   4.640   5.533
 6897SOL    HW121371   4.159   4.659   5.578
 6897SOL    HW221372   4.101   4.578   5.464
 6898SOL     OW21373   5.027   4.553   3.761
 6898SOL    HW121374   5.065   4.465   3.762
 6898SOL    HW221375   5.054   4.589   3.676
 6899SOL     OW21376   4.781   5.077   4.553
 6899SOL    HW121377   4.788   4.993   4.508
 6899SOL    HW221378   4.866   5.118   4.538
 6900SOL     OW21379   4.033   4.533   4.672
 6900SOL    HW121380   4.126   4.555   4.665
 6900SOL    HW221381   4.031   4.444   4.705
 6901SOL     OW21382   4.056   4.249   4.736
 6901SOL    HW121383   4.021   4.161   4.720
 6901SOL    HW221384   4.132   4.255   4.678
 6902SOL     OW21385   4.856   4.101   5.404
 6902SOL    HW121386   4.810   4.156   5.467
 6902SOL    HW221387   4.944   4.139   5.399
 6903SOL     OW21388   4.885   3.927   5.193
 6903SOL    HW121389   4.874   3.989   5.265
 6903SOL    HW221390   4.923   3.979   5.122
 6904SOL     OW21391   3.730   5.042   3.915
 6904SOL    HW121392   3.640   5.059   3.887
 6904SOL    HW221393   3.728   4.954   3.952
 6905SOL     OW21394   4.708   4.517   4.951
 6905SOL    HW121395   4.763   4.494   5.026
 6905SOL    HW221396   4.623   4.479   4.972
 6906SOL     OW21397   3.760   4.268   4.841
 6906SOL    HW121398   3.840   4.254   4.791
 6906SOL    HW221399   3.788   4.272   4.932
 6907SOL     OW21400   3.915   4.242   5.450
 6907SOL    HW121401   3.973   4.206   5.384
 6907SOL    HW221402   3.871   4.316   5.407
 6908SOL     OW21403   5.111   4.663   5.390
 6908SOL    HW121404   5.119   4.758   5.378
 6908SOL    HW221405   5.113   4.628   5.301
 6909SOL     OW21406   4.540   4.293   4.082
 6909SOL    HW121407   4.543   4.218   4.022
 6909SOL    HW221408   4.466   4.345   4.051
 6910SOL     OW21409   3.930   5.277   5.469
 6910SOL    HW121410   3.918   0.030   5.547
 6910SOL    HW221411   3.943   5.188   5.501
 6911SOL     OW21412   4.422   4.175   4.985
 6911SOL    HW121413   4.371   4.101   4.953
 6911SOL    HW221414   4.420   4.238   4.912
 6912SOL     OW21415   4.189   4.217   3.912
 6912SOL    HW121416   4.247   4.290   3.933
 6912SOL    HW221417   4.103   4.257   3.899
 6913SOL     OW21418   3.870   4.863   5.194
 6913SOL    HW121419   3.873   4.811   5.275
 6913SOL    HW221420   3.887   4.800   5.125
 6914SOL     OW21421   5.051   4.771   4.951
 6914SOL    HW121422   5.076   4.710   4.882
 6914SOL    HW221423   4.980   4.822   4.913
 6915SOL     OW21424   5.033   4.584   4.040
 6915SOL    HW121425   4.951   4.550   4.077
 6915SOL    HW221426   5.022   4.575   3.945
 6916SOL     OW21427   3.816   4.986   4.745
 6916SOL    HW121428   3.795   5.003   4.837
 6916SOL    HW221429   3.737   4.947   4.709
 6917SOL     OW21430   4.469   0.036   5.436
 6917SOL    HW121431   4.377   0.062   5.440
 6917SOL    HW221432   4.498   0.065   5.349
 6918SOL     OW21433   0.083   3.883   4.253
 6918SOL    HW121434   0.168   3.871   4.210
 6918SOL    HW221435   0.070   3.802   4.303
 6919SOL     OW21436   5.016   4.643   4.397
 6919SOL    HW121437   5.093   4.588   4.384
 6919SOL    HW221438   5.034   4.722   4.347
 6920SOL     OW21439   4.544   4.993   5.148
 6920SOL    HW121440   4.516   5.030   5.232
 6920SOL    HW221441   4.469   5.005   5.090
 6921SOL     OW21442   3.987   4.040   4.441
 6921SOL    HW121443   3.902   4.076   4.417
 6921SOL    HW221444   3.983   4.032   4.537
 6922SOL     OW21445   4.549   4.728   5.094
 6922SOL    HW121446   4.594   4.723   5.011
 6922SOL    HW221447   4.552   4.821   5.117
 6923SOL     OW21448   4.640   4.635   4.014
 6923SOL    HW121449   4.702   4.668   3.949
 6923SOL    HW221450   4.687   4.564   4.058
 6924SOL     OW21451   4.090   5.025   5.220
 6924SOL    HW121452   4.079   5.100   5.161
 6924SOL    HW221453   4.014   4.969   5.202
 6925SOL     OW21454   4.776   4.833   4.435
 6925SOL    HW121455   4.704   4.782   4.473
 6925SOL    HW221456   4.833   4.767   4.395
 6926SOL     OW21457   4.740   3.963   4.692
 6926SOL    HW121458   4.737   3.916   4.609
 6926SOL    HW221459   4.736   3.895   4.759
 6927SOL     OW21460   3.981   5.054   4.006
 6927SOL    HW121461   3.889   5.056   3.979
 6927SOL    HW221462   3.983   5.096   4.092
 6928SOL     OW21463   3.836   4.744   5.442
 6928SOL    HW121464   3.760   4.721   5.496
 6928SOL    HW221465   3.911   4.708   5.490
 6929SOL     OW21466   4.398   3.920   5.223
 6929SOL    HW121467   4.482   3.901   5.181
 6929SOL    HW221468   4.421   3.951   5.311
 6930SOL     OW21469   3.801   4.059   3.760
 6930SOL    HW121470   3.715   4.039   3.724
 6930SOL    HW221471   3.831   4.134   3.708
 6931SOL     OW21472   5.163   4.583   5.128
 6931SOL    HW121473   5.110   4.640   5.071
 6931SOL    HW221474   5.252   4.592   5.094
 6932SOL     OW21475   3.794   3.882   4.035
 6932SOL    HW121476   3.779   3.961   3.984
 6932SOL    HW221477   3.878   3.849   4.005
 6933SOL     OW21478   4.909   5.059   3.845
 6933SOL    HW121479   4.816   5.041   3.843
 6933SOL    HW221480   4.933   5.055   3.937
 6934SOL     OW21481   4.343   4.555   5.157
 6934SOL    HW121482   4.399   4.631   5.141
 6934SOL    HW221483   4.403   4.482   5.165
 6935SOL     OW21484   4.441   4.288   5.429
 6935SOL    HW121485   4.480   4.351   5.490
 6935SOL    HW221486   4.471   4.202   5.460
 6936SOL     OW21487   5.184   4.929   5.357
 6936SOL    HW121488   5.174   4.940   5.451
 6936SOL    HW221489   5.279   4.932   5.342
 6937SOL     OW21490   4.941   4.044   4.180
 6937SOL    HW121491   5.003   3.972   4.167
 6937SOL    HW221492   4.971   4.088   4.260
 6938SOL     OW21493   4.315   4.462   4.393
 6938SOL    HW121494   4.353   4.549   4.378
 6938SOL    HW221495   4.246   4.455   4.326
 6939SOL     OW21496   4.580   5.095   3.743
 6939SOL    HW121497   4.555   5.098   3.836
 6939SOL    HW221498   4.592   5.187   3.718
 6940SOL     OW21499   4.591   4.691   4.580
 6940SOL    HW121500   4.641   4.620   4.620
 6940SOL    HW221501   4.557   4.741   4.654
 6941SOL     OW21502   4.808   4.712   3.816
 6941SOL    HW121503   4.781   4.760   3.737
 6941SOL    HW221504   4.882   4.659   3.787
 6942SOL     OW21505   3.947   5.025   5.577
 6942SOL    HW121506   3.878   4.963   5.552
 6942SOL    HW221507   3.936   5.037   5.671
 6943SOL     OW21508   3.809   4.956   4.394
 6943SOL    HW121509   3.809   4.903   4.473
 6943SOL    HW221510   3.873   4.914   4.337
 6944SOL     OW21511   4.393   5.107   5.333
 6944SOL    HW121512   4.318   5.073   5.381
 6944SOL    HW221513   4.424   5.182   5.384
 6945SOL     OW21514   4.154   4.158   4.249
 6945SOL    HW121515   4.183   4.087   4.192
 6945SOL    HW221516   4.106   4.114   4.320
 6946SOL     OW21517   0.122   5.228   4.775
 6946SOL    HW121518   0.038   5.204   4.738
 6946SOL    HW221519   0.107   5.232   4.869
 6947SOL     OW21520   4.053   4.278   5.015
 6947SOL    HW121521   4.109   4.223   5.070
 6947SOL    HW221522   4.073   4.250   4.926
 6948SOL     OW21523   5.148   3.942   4.839
 6948SOL    HW121524   5.194   3.878   4.893
 6948SOL    HW221525   5.102   3.998   4.902
 6949SOL     OW21526   4.730   3.743   4.868
 6949SOL    HW121527   4.677   3.675   4.827
 6949SOL    HW221528   4.818   3.706   4.872
 6950SOL     OW21529   4.525   5.047   4.008
 6950SOL    HW121530   4.463   4.977   4.027
 6950SOL    HW221531   4.580   5.052   4.086
 6951SOL     OW21532   4.346   5.299   5.014
 6951SOL    HW121533   4.353   0.054   5.092
 6951SOL    HW221534   4.436   5.280   4.989
 6952SOL     OW21535   5.059   3.770   3.892
 6952SOL    HW121536   5.084   3.730   3.809
 6952SOL    HW221537   4.974   3.731   3.912
 6953SOL     OW21538   5.028   4.182   4.407
 6953SOL    HW121539   4.973   4.260   4.411
 6953SOL    HW221540   5.018   4.141   4.493
 6954SOL     OW21541   0.002   3.948   4.603
 6954SOL    HW121542   5.236   3.938   4.671
 6954SOL    HW221543   5.278   4.029   4.558
 6955SOL     OW21544   3.766   4.795   4.031
 6955SOL    HW121545   3.860   4.789   4.014
 6955SOL    HW221546   3.739   4.706   4.053
 6956SOL     OW21547   3.954   4.347   5.708
 6956SOL    HW121548   3.864   4.347   5.742
 6956SOL    HW221549   3.945   4.321   5.617
 6957SOL     OW21550   3.949   4.004   6.577
 6957SOL    HW121551   3.977   3.971   6.662
 6957SOL    HW221552   3.859   3.972   6.568
 6958SOL     OW21553   3.729   4.106   6.224
 6958SOL    HW121554   3.646   4.131   6.265
 6958SOL    HW221555   3.708   4.027   6.175
 6959SOL     OW21556   4.290   5.004   6.764
 6959SOL    HW121557   4.205   5.003   6.720
 6959SOL    HW221558   4.302   5.095   6.791
 6960SOL     OW21559   5.276   5.232   6.280
 6960SOL    HW121560   5.263   5.216   6.373
 6960SOL    HW221561   5.187   5.232   6.243
 6961SOL     OW21562   4.857   4.423   6.287
 6961SOL    HW121563   4.908   4.504   6.277
 6961SOL    HW221564   4.809   4.435   6.369
 6962SOL     OW21565   4.481   4.869   6.623
 6962SOL    HW121566   4.413   4.900   6.683
 6962SOL    HW221567   4.511   4.947   6.577
 6963SOL     OW21568   4.591   4.502   7.407
 6963SOL    HW121569   4.569   4.577   7.463
 6963SOL    HW221570   4.614   4.541   7.323
 6964SOL     OW21571   4.410   4.728   6.235
 6964SOL    HW121572   4.474   4.716   6.305
 6964SOL    HW221573   4.341   4.780   6.274
 6965SOL     OW21574   4.432   4.874   7.397
 6965SOL    HW121575   4.481   4.954   7.420
 6965SOL    HW221576   4.349   4.906   7.362
 6966SOL     OW21577   4.061   5.153   6.647
 6966SOL    HW121578   3.984   5.109   6.609
 6966SOL    HW221579   4.102   5.197   6.572
 6967SOL     OW21580   5.132   5.236   6.927
 6967SOL    HW121581   5.153   0.007   6.988
 6967SOL    HW221582   5.110   5.162   6.983
 6968SOL     OW21583   4.172   4.123   7.076
 6968SOL    HW121584   4.247   4.064   7.080
 6968SOL    HW221585   4.096   4.066   7.087
 6969SOL     OW21586   4.863   5.052   7.284
 6969SOL    HW121587   4.889   5.064   7.375
 6969SOL    HW221588   4.802   4.978   7.285
 6970SOL     OW21589   3.934   5.155   6.106
 6970SOL    HW121590   3.959   5.238   6.146
 6970SOL    HW221591   3.882   5.111   6.173
 6971SOL     OW21592   3.981   4.811   6.477
 6971SOL    HW121593   3.978   4.724   6.517
 6971SOL    HW221594   3.923   4.865   6.532
 6972SOL     OW21595   4.311   4.705   5.719
 6972SOL    HW121596   4.356   4.755   5.651
 6972SOL    HW221597   4.350   4.734   5.801
 6973SOL     OW21598   3.839   4.376   6.145
 6973SOL    HW121599   3.809   4.287   6.166
 6973SOL    HW221600   3.830   4.424   6.228
 6974SOL     OW21601   3.710   0.014   5.685
 6974SOL    HW121602   3.727   5.225   5.715
 6974SOL    HW221603   3.733   0.069   5.760
 6975SOL     OW21604   0.112   4.659   6.155
 6975SOL    HW121605   0.199   4.627   6.179
 6975SOL    HW221606   0.128   4.747   6.121
 6976SOL     OW21607   3.846   4.466   7.173
 6976SOL    HW121608   3.939   4.490   7.182
 6976SOL    HW221609   3.799   4.548   7.180
 6977SOL     OW21610   4.345   5.097   6.321
 6977SOL    HW121611   4.291   5.018   6.321
 6977SOL    HW221612   4.326   5.140   6.238
 6978SOL     OW21613   5.019   4.969   7.007
 6978SOL    HW121614   5.048   4.898   6.950
 6978SOL    HW221615   5.067   4.955   7.089
 6979SOL     OW21616   4.537   3.723   6.093
 6979SOL    HW121617   4.578   3.808   6.075
 6979SOL    HW221618   4.444   3.743   6.103
 6980SOL     OW21619   3.915   4.691   6.855
 6980SOL    HW121620   3.999   4.648   6.840
 6980SOL    HW221621   3.851   4.635   6.810
 6981SOL     OW21622   4.055   3.973   7.397
 6981SOL    HW121623   4.101   4.056   7.410
 6981SOL    HW221624   3.966   3.990   7.428
 6982SOL     OW21625   5.178   5.152   6.538
 6982SOL    HW121626   5.110   5.161   6.604
 6982SOL    HW221627   5.164   5.065   6.501
 6983SOL     OW21628   0.046   0.163   6.151
 6983SOL    HW121629   0.087   0.123   6.075
 6983SOL    HW221630   0.036   0.090   6.214
 6984SOL     OW21631   4.320   4.446   5.851
 6984SOL    HW121632   4.327   4.527   5.801
 6984SOL    HW221633   4.255   4.465   5.919
 6985SOL     OW21634   4.996   4.061   6.506
 6985SOL    HW121635   4.908   4.030   6.527
 6985SOL    HW221636   5.051   4.026   6.577
 6986SOL     OW21637   4.515   4.342   7.038
 6986SOL    HW121638   4.489   4.318   7.127
 6986SOL    HW221639   4.474   4.275   6.982
 6987SOL     OW21640   5.115   4.204   7.266
 6987SOL    HW121641   5.116   4.242   7.354
 6987SOL    HW221642   5.190   4.144   7.265
 6988SOL     OW21643   4.679   4.612   7.167
 6988SOL    HW121644   4.732   4.541   7.132
 6988SOL    HW221645   4.632   4.646   7.091
 6989SOL     OW21646   4.715   4.138   6.825
 6989SOL    HW121647   4.630   4.159   6.863
 6989SOL    HW221648   4.695   4.090   6.744
 6990SOL     OW21649   4.774   4.422   6.012
 6990SOL    HW121650   4.789   4.416   6.106
 6990SOL    HW221651   4.692   4.375   5.998
 6991SOL     OW21652   3.812   4.544   6.362
 6991SOL    HW121653   3.893   4.537   6.412
 6991SOL    HW221654   3.769   4.622   6.397
 6992SOL     OW21655   4.615   4.071   5.780
 6992SOL    HW121656   4.656   4.132   5.719
 6992SOL    HW221657   4.631   3.984   5.743
 6993SOL     OW21658   5.091   4.867   6.131
 6993SOL    HW121659   5.180   4.865   6.097
 6993SOL    HW221660   5.045   4.928   6.074
 6994SOL     OW21661   4.274   3.906   6.479
 6994SOL    HW121662   4.276   3.934   6.570
 6994SOL    HW221663   4.275   3.988   6.428
 6995SOL     OW21664   4.746   5.169   6.055
 6995SOL    HW121665   4.668   5.224   6.046
 6995SOL    HW221666   4.760   5.163   6.150
 6996SOL     OW21667   4.941   5.260   7.138
 6996SOL    HW121668   4.916   5.178   7.181
 6996SOL    HW221669   4.902   5.254   7.051
 6997SOL     OW21670   4.045   4.680   5.836
 6997SOL    HW121671   4.127   4.700   5.790
 6997SOL    HW221672   4.014   4.598   5.795
 6998SOL     OW21673   4.187   4.986   7.327
 6998SOL    HW121674   4.160   4.990   7.235
 6998SOL    HW221675   4.105   4.986   7.376
 6999SOL     OW21676   4.791   0.175   5.797
 6999SOL    HW121677   4.803   0.118   5.873
 6999SOL    HW221678   4.868   0.159   5.743
 7000SOL     OW21679   3.924   4.006   7.087
 7000SOL    HW121680   3.842   4.054   7.081
 7000SOL    HW221681   3.907   3.937   7.151
 7001SOL     OW21682   5.122   3.831   6.010
 7001SOL    HW121683   5.102   3.813   5.919
 7001SOL    HW221684   5.216   3.846   6.012
 7002SOL     OW21685   4.116   4.419   6.063
 7002SOL    HW121686   4.137   4.327   6.074
 7002SOL    HW221687   4.022   4.424   6.081
 7003SOL     OW21688   4.357   3.847   5.692
 7003SOL    HW121689   4.429   3.785   5.703
 7003SOL    HW221690   4.309   3.815   5.616
 7004SOL     OW21691   4.490   4.001   7.339
 7004SOL    HW121692   4.565   3.942   7.342
 7004SOL    HW221693   4.445   3.986   7.423
 7005SOL     OW21694   5.058   4.316   7.018
 7005SOL    HW121695   5.091   4.283   7.102
 7005SOL    HW221696   5.100   4.401   7.007
 7006SOL     OW21697   4.535   5.121   6.521
 7006SOL    HW121698   4.616   5.107   6.472
 7006SOL    HW221699   4.467   5.126   6.453
 7007SOL     OW21700   4.651   4.233   6.489
 7007SOL    HW121701   4.628   4.224   6.397
 7007SOL    HW221702   4.683   4.147   6.514
 7008SOL     OW21703   4.272   3.787   6.089
 7008SOL    HW121704   4.192   3.788   6.141
 7008SOL    HW221705   4.267   3.865   6.035
 7009SOL     OW21706   5.138   4.904   5.629
 7009SOL    HW121707   5.147   4.826   5.684
 7009SOL    HW221708   5.049   4.935   5.646
 7010SOL     OW21709   4.016   3.771   5.770
 7010SOL    HW121710   4.075   3.836   5.731
 7010SOL    HW221711   4.075   3.708   5.812
 7011SOL     OW21712   4.661   3.970   6.047
 7011SOL    HW121713   4.633   4.011   5.965
 7011SOL    HW221714   4.755   3.981   6.049
 7012SOL     OW21715   4.801   4.405   7.047
 7012SOL    HW121716   4.733   4.337   7.049
 7012SOL    HW221717   4.883   4.356   7.037
 7013SOL     OW21718   4.984   5.266   6.359
 7013SOL    HW121719   4.950   0.053   6.335
 7013SOL    HW221720   5.036   5.281   6.437
 7014SOL     OW21721   4.189   4.871   6.318
 7014SOL    HW121722   4.120   4.852   6.381
 7014SOL    HW221723   4.150   4.853   6.233
 7015SOL     OW21724   4.749   4.269   5.607
 7015SOL    HW121725   4.705   4.351   5.586
 7015SOL    HW221726   4.810   4.291   5.677
 7016SOL     OW21727   3.802   4.279   6.978
 7016SOL    HW121728   3.894   4.277   6.951
 7016SOL    HW221729   3.798   4.349   7.043
 7017SOL     OW21730   4.284   3.951   6.751
 7017SOL    HW121731   4.325   3.874   6.790
 7017SOL    HW221732   4.193   3.948   6.781
 7018SOL     OW21733   4.593   4.183   6.225
 7018SOL    HW121734   4.546   4.238   6.162
 7018SOL    HW221735   4.613   4.103   6.178
 7019SOL     OW21736   4.739   3.777   6.338
 7019SOL    HW121737   4.681   3.769   6.263
 7019SOL    HW221738   4.717   3.701   6.393
 7020SOL     OW21739   5.153   4.901   6.436
 7020SOL    HW121740   5.100   4.821   6.446
 7020SOL    HW221741   5.170   4.906   6.342
 7021SOL     OW21742   4.206   5.144   5.742
 7021SOL    HW121743   4.142   5.093   5.792
 7021SOL    HW221744   4.204   5.106   5.654
 7022SOL     OW21745   5.127   4.287   5.665
 7022SOL    HW121746   5.055   4.277   5.727
 7022SOL    HW221747   5.202   4.249   5.709
 7023SOL     OW21748   4.250   3.987   5.905
 7023SOL    HW121749   4.293   3.938   5.835
 7023SOL    HW221750   4.229   4.072   5.867
 7024SOL     OW21751   4.787   5.074   6.916
 7024SOL    HW121752   4.709   5.050   6.967
 7024SOL    HW221753   4.860   5.036   6.965
 7025SOL     OW21754   4.847   4.923   6.695
 7025SOL    HW121755   4.796   4.965   6.764
 7025SOL    HW221756   4.805   4.951   6.613
 7026SOL     OW21757   4.641   3.823   6.983
 7026SOL    HW121758   4.664   3.804   6.892
 7026SOL    HW221759   4.721   3.861   7.020
 7027SOL     OW21760   4.706   4.833   7.317
 7027SOL    HW121761   4.614   4.853   7.331
 7027SOL    HW221762   4.706   4.759   7.256
 7028SOL     OW21763   4.428   4.781   5.958
 7028SOL    HW121764   4.417   4.767   6.052
 7028SOL    HW221765   4.506   4.731   5.935
 7029SOL     OW21766   4.142   4.538   6.837
 7029SOL    HW121767   4.211   4.548   6.903
 7029SOL    HW221768   4.107   4.450   6.852
 7030SOL     OW21769   4.989   4.100   6.862
 7030SOL    HW121770   5.024   4.179   6.903
 7030SOL    HW221771   4.900   4.123   6.836
 7031SOL     OW21772   4.073   4.831   6.076
 7031SOL    HW121773   4.076   4.905   6.014
 7031SOL    HW221774   4.072   4.753   6.020
 7032SOL     OW21775   4.278   4.261   6.446
 7032SOL    HW121776   4.293   4.319   6.372
 7032SOL    HW221777   4.342   4.288   6.512
 7033SOL     OW21778   4.984   5.076   5.974
 7033SOL    HW121779   5.037   5.151   6.001
 7033SOL    HW221780   4.895   5.098   6.001
 7034SOL     OW21781   4.979   5.180   6.718
 7034SOL    HW121782   5.034   5.202   6.793
 7034SOL    HW221783   4.940   5.096   6.741
 7035SOL     OW21784   4.072   5.236   6.902
 7035SOL    HW121785   4.061   5.201   6.813
 7035SOL    HW221786   4.165   5.257   6.908
 7036SOL     OW21787   4.138   4.469   7.188
 7036SOL    HW121788   4.199   4.514   7.130
 7036SOL    HW221789   4.177   4.383   7.203
 7037SOL     OW21790   4.718   3.847   7.341
 7037SOL    HW121791   4.774   3.919   7.312
 7037SOL    HW221792   4.766   3.768   7.317
 7038SOL     OW21793   4.223   3.766   7.333
 7038SOL    HW121794   4.180   3.711   7.267
 7038SOL    HW221795   4.163   3.839   7.345
 7039SOL     OW21796   4.307   4.596   6.617
 7039SOL    HW121797   4.337   4.687   6.615
 7039SOL    HW221798   4.250   4.592   6.694
 7040SOL     OW21799   5.086   4.581   6.622
 7040SOL    HW121800   5.009   4.564   6.568
 7040SOL    HW221801   5.136   4.500   6.619
 7041SOL     OW21802   4.929   4.255   5.852
 7041SOL    HW121803   4.937   4.175   5.904
 7041SOL    HW221804   4.886   4.318   5.909
 7042SOL     OW21805   4.024   3.923   6.832
 7042SOL    HW121806   3.986   3.956   6.914
 7042SOL    HW221807   4.004   3.829   6.833
 7043SOL     OW21808   3.775   5.046   6.870
 7043SOL    HW121809   3.801   4.982   6.937
 7043SOL    HW221810   3.811   5.129   6.901
 7044SOL     OW21811   4.448   4.355   6.644
 7044SOL    HW121812   4.523   4.338   6.587
 7044SOL    HW221813   4.421   4.444   6.623
 7045SOL     OW21814   4.026   3.789   6.209
 7045SOL    HW121815   4.008   3.880   6.233
 7045SOL    HW221816   4.033   3.743   6.293
 7046SOL     OW21817   0.035   4.116   5.946
 7046SOL    HW121818   0.056   4.042   6.004
 7046SOL    HW221819   0.015   4.188   6.006
 7047SOL     OW21820   4.751   4.483   6.547
 7047SOL    HW121821   4.750   4.501   6.641
 7047SOL    HW221822   4.725   4.391   6.540
 7048SOL     OW21823   4.077   4.639   7.396
 7048SOL    HW121824   4.160   4.659   7.439
 7048SOL    HW221825   4.101   4.577   7.326
 7049SOL     OW21826   5.027   4.553   5.623
 7049SOL    HW121827   5.065   4.465   5.624
 7049SOL    HW221828   5.054   4.589   5.538
 7050SOL     OW21829   4.781   5.077   6.415
 7050SOL    HW121830   4.788   4.993   6.370
 7050SOL    HW221831   4.866   5.118   6.400
 7051SOL     OW21832   4.033   4.533   6.534
 7051SOL    HW121833   4.126   4.554   6.527
 7051SOL    HW221834   4.031   4.444   6.567
 7052SOL     OW21835   4.056   4.249   6.598
 7052SOL    HW121836   4.021   4.161   6.582
 7052SOL    HW221837   4.132   4.255   6.540
 7053SOL     OW21838   4.857   4.101   7.265
 7053SOL    HW121839   4.810   4.156   7.328
 7053SOL    HW221840   4.944   4.140   7.260
 7054SOL     OW21841   4.885   3.927   7.054
 7054SOL    HW121842   4.874   3.989   7.126
 7054SOL    HW221843   4.923   3.979   6.983
 7055SOL     OW21844   3.730   5.042   5.777
 7055SOL    HW121845   3.640   5.059   5.749
 7055SOL    HW221846   3.728   4.954   5.814
 7056SOL     OW21847   4.708   4.517   6.813
 7056SOL    HW121848   4.763   4.493   6.888
 7056SOL    HW221849   4.623   4.479   6.834
 7057SOL     OW21850   3.760   4.268   6.702
 7057SOL    HW121851   3.840   4.253   6.653
 7057SOL    HW221852   3.788   4.272   6.794
 7058SOL     OW21853   3.916   4.242   7.313
 7058SOL    HW121854   3.972   4.204   7.245
 7058SOL    HW221855   3.872   4.315   7.269
 7059SOL     OW21856   5.110   4.663   7.253
 7059SOL    HW121857   5.118   4.758   7.241
 7059SOL    HW221858   5.113   4.628   7.164
 7060SOL     OW21859   4.540   4.293   5.944
 7060SOL    HW121860   4.542   4.218   5.884
 7060SOL    HW221861   4.466   4.345   5.913
 7061SOL     OW21862   3.931   5.276   7.329
 7061SOL    HW121863   3.905   0.027   7.405
 7061SOL    HW221864   3.944   5.187   7.363
 7062SOL     OW21865   4.422   4.176   6.847
 7062SOL    HW121866   4.371   4.101   6.816
 7062SOL    HW221867   4.420   4.238   6.774
 7063SOL     OW21868   4.189   4.217   5.774
 7063SOL    HW121869   4.247   4.290   5.795
 7063SOL    HW221870   4.103   4.257   5.761
 7064SOL     OW21871   3.870   4.863   7.057
 7064SOL    HW121872   3.872   4.811   7.137
 7064SOL    HW221873   3.887   4.800   6.987
 7065SOL     OW21874   5.051   4.771   6.813
 7065SOL    HW121875   5.076   4.710   6.744
 7065SOL    HW221876   4.980   4.822   6.775
 7066SOL     OW21877   5.033   4.584   5.902
 7066SOL    HW121878   4.951   4.550   5.939
 7066SOL    HW221879   5.022   4.575   5.807
 7067SOL     OW21880   3.816   4.986   6.607
 7067SOL    HW121881   3.795   5.003   6.699
 7067SOL    HW221882   3.737   4.947   6.571
 7068SOL     OW21883   4.469   0.034   7.299
 7068SOL    HW121884   4.377   0.062   7.302
 7068SOL    HW221885   4.500   0.066   7.214
 7069SOL     OW21886   0.083   3.883   6.115
 7069SOL    HW121887   0.168   3.871   6.072
 7069SOL    HW221888   0.070   3.802   6.165
 7070SOL     OW21889   5.016   4.643   6.259
 7070SOL    HW121890   5.093   4.588   6.246
 7070SOL    HW221891   5.034   4.722   6.209
 7071SOL     OW21892   4.544   4.993   7.010
 7071SOL    HW121893   4.515   5.030   7.093
 7071SOL    HW221894   4.469   5.005   6.951
 7072SOL     OW21895   3.987   4.040   6.303
 7072SOL    HW121896   3.901   4.076   6.279
 7072SOL    HW221897   3.983   4.032   6.399
 7073SOL     OW21898   4.549   4.728   6.957
 7073SOL    HW121899   4.594   4.722   6.873
 7073SOL    HW221900   4.552   4.821   6.979
 7074SOL     OW21901   4.640   4.635   5.876
 7074SOL    HW121902   4.702   4.668   5.811
 7074SOL    HW221903   4.687   4.564   5.920
 7075SOL     OW21904   4.089   5.025   7.083
 7075SOL    HW121905   4.079   5.100   7.023
 7075SOL    HW221906   4.014   4.969   7.065
 7076SOL     OW21907   4.776   4.833   6.297
 7076SOL    HW121908   4.704   4.782   6.335
 7076SOL    HW221909   4.833   4.767   6.257
 7077SOL     OW21910   4.740   3.963   6.554
 7077SOL    HW121911   4.737   3.916   6.471
 7077SOL    HW221912   4.736   3.895   6.621
 7078SOL     OW21913   3.982   5.053   5.868
 7078SOL    HW121914   3.890   5.056   5.841
 7078SOL    HW221915   3.983   5.096   5.954
 7079SOL     OW21916   3.837   4.745   7.305
 7079SOL    HW121917   3.760   4.722   7.357
 7079SOL    HW221918   3.911   4.707   7.353
 7080SOL     OW21919   4.397   3.920   7.085
 7080SOL    HW121920   4.482   3.901   7.044
 7080SOL    HW221921   4.420   3.950   7.173
 7081SOL     OW21922   3.802   4.059   5.621
 7081SOL    HW121923   3.714   4.039   5.587
 7081SOL    HW221924   3.831   4.133   5.569
 7082SOL     OW21925   5.163   4.584   6.990
 7082SOL    HW121926   5.110   4.640   6.934
 7082SOL    HW221927   5.252   4.592   6.955
 7083SOL     OW21928   3.793   3.881   5.897
 7083SOL    HW121929   3.779   3.961   5.847
 7083SOL    HW221930   3.878   3.848   5.867
 7084SOL     OW21931   4.909   5.059   5.707
 7084SOL    HW121932   4.815   5.041   5.705
 7084SOL    HW221933   4.933   5.055   5.799
 7085SOL     OW21934   4.343   4.555   7.019
 7085SOL    HW121935   4.399   4.631   7.003
 7085SOL    HW221936   4.403   4.481   7.027
 7086SOL     OW21937   4.442   4.288   7.291
 7086SOL    HW121938   4.480   4.349   7.354
 7086SOL    HW221939   4.471   4.201   7.321
 7087SOL     OW21940   5.184   4.928   7.218
 7087SOL    HW121941   5.174   4.940   7.313
 7087SOL    HW221942   5.279   4.932   7.204
 7088SOL     OW21943   4.941   4.044   6.042
 7088SOL    HW121944   5.003   3.972   6.029
 7088SOL    HW221945   4.971   4.088   6.122
 7089SOL     OW21946   4.315   4.462   6.254
 7089SOL    HW121947   4.353   4.549   6.239
 7089SOL    HW221948   4.246   4.455   6.188
 7090SOL     OW21949   4.580   5.095   5.605
 7090SOL    HW121950   4.556   5.098   5.698
 7090SOL    HW221951   4.592   5.187   5.580
 7091SOL     OW21952   4.591   4.691   6.442
 7091SOL    HW121953   4.641   4.620   6.482
 7091SOL    HW221954   4.557   4.741   6.516
 7092SOL     OW21955   4.808   4.712   5.678
 7092SOL    HW121956   4.781   4.760   5.599
 7092SOL    HW221957   4.882   4.659   5.649
 7093SOL     OW21958   3.947   5.025   7.442
 7093SOL    HW121959   3.880   4.963   7.412
 7093SOL    HW221960   3.927   5.038   7.535
 7094SOL     OW21961   3.809   4.956   6.256
 7094SOL    HW121962   3.808   4.903   6.335
 7094SOL    HW221963   3.873   4.914   6.199
 7095SOL     OW21964   4.393   5.106   7.195
 7095SOL    HW121965   4.317   5.074   7.243
 7095SOL    HW221966   4.423   5.181   7.245
 7096SOL     OW21967   4.154   4.158   6.111
 7096SOL    HW121968   4.183   4.087   6.054
 7096SOL    HW221969   4.106   4.114   6.182
 7097SOL     OW21970   0.122   5.228   6.637
 7097SOL    HW121971   0.038   5.204   6.600
 7097SOL    HW221972   0.107   5.231   6.732
 7098SOL     OW21973   4.053   4.278   6.877
 7098SOL    HW121974   4.109   4.223   6.932
 7098SOL    HW221975   4.073   4.250   6.788
 7099SOL     OW21976   5.148   3.943   6.701
 7099SOL    HW121977   5.193   3.877   6.754
 7099SOL    HW221978   5.102   3.998   6.764
 7100SOL     OW21979   4.730   3.743   6.729
 7100SOL    HW121980   4.677   3.675   6.690
 7100SOL    HW221981   4.818   3.706   6.733
 7101SOL     OW21982   4.525   5.047   5.870
 7101SOL    HW121983   4.463   4.977   5.889
 7101SOL    HW221984   4.580   5.052   5.949
 7102SOL     OW21985   4.346   5.299   6.876
 7102SOL    HW121986   4.353   0.054   6.954
 7102SOL    HW221987   4.436   5.280   6.851
 7103SOL     OW21988   5.059   3.770   5.754
 7103SOL    HW121989   5.084   3.730   5.671
 7103SOL    HW221990   4.974   3.731   5.774
 7104SOL     OW21991   5.028   4.182   6.269
 7104SOL    HW121992   4.973   4.260   6.273
 7104SOL    HW221993   5.018   4.141   6.355
 7105SOL     OW21994   0.002   3.948   6.465
 7105SOL    HW121995   5.236   3.938   6.533
 7105SOL    HW221996   5.278   4.029   6.420
 7106SOL     OW21997   3.766   4.795   5.893
 7106SOL    HW121998   3.860   4.789   5.876
 7106SOL    HW221999   3.739   4.706   5.915
 7107SOL     OW22000   3.953   4.343   7.571
 7107SOL    HW122001   3.862   4.350   7.601
 7107SOL    HW222002   3.946   4.320   7.479
 7108SOL     OW22003   4.001   0.126   7.957
 7108SOL    HW122004   3.974   0.211   7.992
 7108SOL    HW222005   4.007   0.140   7.862
 7109SOL     OW22006   3.942   5.156   7.989
 7109SOL    HW122007   3.953   5.251   7.997
 7109SOL    HW222008   3.883   5.133   8.061
 7110SOL     OW22009   4.311   4.704   7.578
 7110SOL    HW122010   4.355   4.756   7.511
 7110SOL    HW222011   4.349   4.735   7.660
 7111SOL     OW22012   3.723   0.011   7.540
 7111SOL    HW122013   3.727   5.222   7.574
 7111SOL    HW222014   3.723   0.067   7.617
 7112SOL     OW22015   0.119   4.649   8.014
 7112SOL    HW122016   0.210   4.638   8.041
 7112SOL    HW222017   0.110   4.743   7.997
 7113SOL     OW22018   4.525   3.718   7.938
 7113SOL    HW122019   4.574   3.798   7.923
 7113SOL    HW222020   4.434   3.747   7.948
 7114SOL     OW22021   4.315   4.449   7.708
 7114SOL    HW122022   4.320   4.530   7.658
 7114SOL    HW222023   4.255   4.468   7.780
 7115SOL     OW22024   3.786   4.585   0.092
 7115SOL    HW122025   3.852   4.523   0.122
 7115SOL    HW222026   3.778   4.648   0.163
 7116SOL     OW22027   4.605   4.068   7.638
 7116SOL    HW122028   4.650   4.128   7.579
 7116SOL    HW222029   4.637   3.981   7.614
 7117SOL     OW22030   4.047   4.679   7.697
 7117SOL    HW122031   4.128   4.697   7.648
 7117SOL    HW222032   4.012   4.600   7.656
 7118SOL     OW22033   4.795   0.184   7.648
 7118SOL    HW122034   4.792   0.137   7.732
 7118SOL    HW222035   4.877   0.154   7.608
 7119SOL     OW22036   5.133   3.849   7.859
 7119SOL    HW122037   5.097   3.825   7.773
 7119SOL    HW222038   5.227   3.849   7.845
 7120SOL     OW22039   4.114   4.422   7.918
 7120SOL    HW122040   4.122   4.327   7.926
 7120SOL    HW222041   4.023   4.441   7.939
 7121SOL     OW22042   4.352   3.845   7.559
 7121SOL    HW122043   4.428   3.788   7.569
 7121SOL    HW222044   4.309   3.814   7.480
 7122SOL     OW22045   4.256   3.796   7.959
 7122SOL    HW122046   4.171   3.801   8.002
 7122SOL    HW222047   4.254   3.868   7.895
 7123SOL     OW22048   5.139   4.905   7.489
 7123SOL    HW122049   5.152   4.830   7.548
 7123SOL    HW222050   5.050   4.935   7.509
 7124SOL     OW22051   4.017   3.773   7.632
 7124SOL    HW122052   4.076   3.834   7.588
 7124SOL    HW222053   4.075   3.708   7.671
 7125SOL     OW22054   4.666   3.950   7.911
 7125SOL    HW122055   4.623   4.014   7.854
 7125SOL    HW222056   4.758   3.978   7.913
 7126SOL     OW22057   4.166   4.875   0.100
 7126SOL    HW122058   4.089   4.907   0.148
 7126SOL    HW222059   4.134   4.860   0.011
 7127SOL     OW22060   4.752   4.270   7.464
 7127SOL    HW122061   4.705   4.351   7.447
 7127SOL    HW222062   4.806   4.289   7.541
 7128SOL     OW22063   4.199   5.148   7.604
 7128SOL    HW122064   4.139   5.095   7.657
 7128SOL    HW222065   4.202   5.103   7.519
 7129SOL     OW22066   5.127   4.286   7.529
 7129SOL    HW122067   5.054   4.277   7.589
 7129SOL    HW222068   5.201   4.246   7.574
 7130SOL     OW22069   4.250   3.990   7.771
 7130SOL    HW122070   4.293   3.939   7.702
 7130SOL    HW222071   4.228   4.073   7.729
 7131SOL     OW22072   4.431   4.780   7.813
 7131SOL    HW122073   4.410   4.770   7.906
 7131SOL    HW222074   4.513   4.732   7.801
 7132SOL     OW22075   4.090   4.824   7.928
 7132SOL    HW122076   4.069   4.904   7.879
 7132SOL    HW222077   4.077   4.753   7.865
 7133SOL     OW22078   4.955   5.104   7.831
 7133SOL    HW122079   5.034   5.129   7.878
 7133SOL    HW222080   4.901   5.059   7.896
 7134SOL     OW22081   0.034   4.371   7.924
 7134SOL    HW122082   5.279   4.396   7.999
 7134SOL    HW222083   0.041   4.451   7.872
 7135SOL     OW22084   4.928   4.254   7.715
 7135SOL    HW122085   4.933   4.170   7.759
 7135SOL    HW222086   4.896   4.315   7.781
 7136SOL     OW22087   0.027   4.123   7.809
 7136SOL    HW122088   0.040   4.054   7.874
 7136SOL    HW222089   0.021   4.204   7.860
 7137SOL     OW22090   5.033   4.556   7.489
 7137SOL    HW122091   5.065   4.465   7.487
 7137SOL    HW222092   5.056   4.591   7.403
 7138SOL     OW22093   3.732   5.045   7.640
 7138SOL    HW122094   3.642   5.059   7.609
 7138SOL    HW222095   3.732   4.956   7.675
 7139SOL     OW22096   4.562   4.321   7.761
 7139SOL    HW122097   4.552   4.230   7.734
 7139SOL    HW222098   4.473   4.355   7.762
 7140SOL     OW22099   4.187   4.217   7.642
 7140SOL    HW122100   4.245   4.292   7.657
 7140SOL    HW222101   4.102   4.257   7.624
 7141SOL     OW22102   5.033   4.574   7.771
 7141SOL    HW122103   4.939   4.580   7.791
 7141SOL    HW222104   5.036   4.572   7.675
 7142SOL     OW22105   0.179   3.866   7.990
 7142SOL    HW122106   0.160   3.847   7.898
 7142SOL    HW222107   0.137   3.795   8.038
 7143SOL     OW22108   4.655   4.635   7.759
 7143SOL    HW122109   4.705   4.660   7.682
 7143SOL    HW222110   4.646   4.540   7.751
 7144SOL     OW22111   3.981   5.059   7.743
 7144SOL    HW122112   3.890   5.062   7.716
 7144SOL    HW222113   3.981   5.098   7.831
 7145SOL     OW22114   3.801   4.058   7.484
 7145SOL    HW122115   3.715   4.038   7.448
 7145SOL    HW222116   3.831   4.134   7.433
 7146SOL     OW22117   3.795   3.882   7.759
 7146SOL    HW122118   3.778   3.958   7.704
 7146SOL    HW222119   3.878   3.846   7.727
 7147SOL     OW22120   4.909   5.055   7.566
 7147SOL    HW122121   4.814   5.040   7.559
 7147SOL    HW222122   4.924   5.067   7.660
 7148SOL     OW22123   4.939   4.044   7.901
 7148SOL    HW122124   5.010   3.981   7.891
 7148SOL    HW222125   4.957   4.087   7.984
 7149SOL     OW22126   4.348   4.458   8.057
 7149SOL    HW122127   4.355   4.542   0.023
 7149SOL    HW222128   4.260   4.460   8.018
 7150SOL     OW22129   4.582   5.095   7.465
 7150SOL    HW122130   4.558   5.097   7.558
 7150SOL    HW222131   4.591   5.187   7.441
 7151SOL     OW22132   4.803   4.704   7.541
 7151SOL    HW122133   4.778   4.756   7.465
 7151SOL    HW222134   4.880   4.655   7.511
 7152SOL     OW22135   4.112   4.149   7.981
 7152SOL    HW122136   4.163   4.099   7.918
 7152SOL    HW222137   4.160   4.141   8.063
 7153SOL     OW22138   4.528   5.046   7.730
 7153SOL    HW122139   4.468   4.974   7.749
 7153SOL    HW222140   4.551   5.081   7.816
 7154SOL     OW22141   5.062   3.769   7.612
 7154SOL    HW122142   5.084   3.725   7.529
 7154SOL    HW222143   4.978   3.732   7.638
 7155SOL     OW22144   3.773   4.802   7.751
 7155SOL    HW122145   3.867   4.793   7.738
 7155SOL    HW222146   3.742   4.712   7.767
   5.30000   5.30000   8.08000
