Built with Packmol
22203
    1LIG      O    1   1.977   1.970   0.066
    1LIG      C    2   2.042   2.020   0.217
    1LIG     C1    3   1.971   1.967   0.377
    1LIG     O1    4   2.035   2.017   0.530
    1LIG     C2    5   1.970   1.968   0.681
    1LIG     C3    6   2.041   2.023   0.838
    1LIG     O2    7   1.977   1.975   0.990
    1LIG     C4    8   2.040   2.025   1.142
    1LIG     C5    9   1.968   1.971   1.300
    1LIG     O3   10   2.031   2.020   1.452
    1LIG     C6   11   1.966   1.971   1.603
    1LIG     C7   12   2.038   2.027   1.760
    1LIG     O4   13   1.974   1.979   1.913
    1LIG     C8   14   2.038   2.029   2.065
    1LIG     C9   15   1.965   1.973   2.221
    1LIG     O5   16   2.029   2.023   2.373
    1LIG    C10   17   1.965   1.974   2.525
    1LIG    C11   18   2.037   2.030   2.682
    1LIG     O6   19   1.973   1.981   2.833
    1LIG    C12   20   2.036   2.030   2.985
    1LIG    C13   21   1.963   1.975   3.142
    1LIG     O7   22   2.027   2.024   3.294
    1LIG    C14   23   1.963   1.975   3.446
    1LIG    C15   24   2.035   2.030   3.604
    1LIG     O8   25   1.971   1.982   3.757
    1LIG    C16   26   2.035   2.031   3.908
    1LIG    C17   27   1.964   1.976   4.066
    1LIG     O9   28   2.027   2.025   4.219
    1LIG    C18   29   1.962   1.976   4.369
    1LIG    C19   30   2.034   2.031   4.526
    1LIG    O10   31   1.971   1.982   4.678
    1LIG    C20   32   2.035   2.032   4.830
    1LIG    C21   33   1.962   1.976   4.986
    1LIG    O11   34   2.026   2.025   5.138
    1LIG    C22   35   1.962   1.976   5.290
    1LIG    C23   36   2.034   2.032   5.447
    1LIG    O12   37   1.970   1.983   5.598
    1LIG    C24   38   2.034   2.032   5.751
    1LIG    C25   39   1.962   1.977   5.909
    1LIG    O13   40   2.025   2.026   6.061
    1LIG    C26   41   1.961   1.977   6.212
    1LIG    C27   42   2.033   2.032   6.369
    1LIG    O14   43   1.969   1.983   6.521
    1LIG    C28   44   2.034   2.032   6.673
    1LIG    C29   45   1.962   1.976   6.831
    1LIG    O15   46   2.026   2.026   6.983
    1LIG    C30   47   1.962   1.976   7.134
    1LIG    C31   48   2.034   2.031   7.291
    1LIG    O16   49   1.970   1.982   7.442
    1LIG    C32   50   2.034   2.031   7.594
    1LIG    C33   51   1.962   1.976   7.752
    1LIG    O17   52   2.026   2.025   7.904
    1LIG    C34   53   1.962   1.975   8.056
    1LIG    C35   54   2.034   2.030   8.213
    1LIG    O18   55   1.970   1.981   8.365
    1LIG    C36   56   2.034   2.031   8.516
    1LIG    C37   57   1.963   1.975   8.674
    1LIG    O19   58   2.027   2.024   8.827
    1LIG    C38   59   1.963   1.974   8.978
    1LIG    C39   60   2.034   2.029   9.136
    1LIG    O20   61   1.971   1.980   9.288
    1LIG    C40   62   2.035   2.029   9.439
    1LIG    C41   63   1.964   1.974   9.597
    1LIG    O21   64   2.027   2.023   9.749
    1LIG    C42   65   1.963   1.973   9.900
    1LIG    C43   66   2.035   2.028  10.057
    1LIG    O22   67   1.972   1.979  10.209
    1LIG    C44   68   2.036   2.028  10.361
    1LIG    C45   69   1.964   1.972  10.518
    1LIG    O23   70   2.028   2.021  10.670
    1LIG    C46   71   1.964   1.972  10.822
    1LIG    C47   72   2.037   2.028  10.979
    1LIG    O24   73   1.973   1.978  11.130
    1LIG    C48   74   2.036   2.027  11.282
    1LIG    C49   75   1.964   1.971  11.439
    1LIG    O25   76   2.028   2.020  11.591
    1LIG    C50   77   1.965   1.971  11.743
    1LIG    C51   78   2.037   2.027  11.900
    1LIG    O26   79   1.974   1.977  12.051
    1LIG    C52   80   2.037   2.026  12.204
    1LIG    C53   81   1.965   1.970  12.360
    1LIG    O27   82   2.029   2.019  12.512
    1LIG    C54   83   1.966   1.969  12.664
    1LIG    C55   84   2.038   2.025  12.822
    1LIG    O28   85   1.974   1.975  12.974
    1LIG    C56   86   2.038   2.024  13.127
    1LIG    C57   87   1.967   1.968  13.285
    1LIG    O29   88   2.031   2.017  13.438
    1LIG    C58   89   1.967   1.967  13.589
    1LIG    C59   90   2.038   2.022  13.747
    1LIG      H   91   2.039   2.130   0.214
    1LIG     H1   92   2.147   1.989   0.215
    1LIG     H2   93   1.974   1.858   0.377
    1LIG     H3   94   1.866   1.998   0.375
    1LIG     H4   95   1.973   1.858   0.683
    1LIG     H5   96   1.865   1.999   0.682
    1LIG     H6   97   2.039   2.133   0.836
    1LIG     H7   98   2.147   1.992   0.837
    1LIG     H8   99   2.038   2.134   1.143
    1LIG     H9  100   2.145   1.994   1.145
    1LIG    H10  101   1.971   1.861   1.299
    1LIG    H11  102   1.863   2.001   1.297
    1LIG    H12  103   1.969   1.862   1.606
    1LIG    H13  104   1.861   2.002   1.604
    1LIG    H14  105   2.035   2.137   1.758
    1LIG    H15  106   2.143   1.997   1.759
    1LIG    H16  107   2.035   2.138   2.066
    1LIG    H17  108   2.143   1.998   2.067
    1LIG    H18  109   1.968   1.864   2.219
    1LIG    H19  110   1.860   2.005   2.219
    1LIG    H20  111   1.967   1.865   2.527
    1LIG    H21  112   1.859   2.005   2.527
    1LIG    H22  113   2.034   2.139   2.679
    1LIG    H23  114   2.142   1.999   2.680
    1LIG    H24  115   2.033   2.140   2.987
    1LIG    H25  116   2.141   1.999   2.988
    1LIG    H26  117   1.966   1.865   3.141
    1LIG    H27  118   1.858   2.006   3.140
    1LIG    H28  119   1.966   1.865   3.448
    1LIG    H29  120   1.858   2.006   3.448
    1LIG    H30  121   2.032   2.140   3.602
    1LIG    H31  122   2.140   1.999   3.603
    1LIG    H32  123   2.032   2.141   3.909
    1LIG    H33  124   2.140   2.000   3.910
    1LIG    H34  125   1.966   1.867   4.064
    1LIG    H35  126   1.858   2.007   4.064
    1LIG    H36  127   1.965   1.866   4.371
    1LIG    H37  128   1.857   2.007   4.371
    1LIG    H38  129   2.031   2.141   4.524
    1LIG    H39  130   2.139   2.000   4.524
    1LIG    H40  131   2.032   2.141   4.832
    1LIG    H41  132   2.140   2.001   4.832
    1LIG    H42  133   1.965   1.867   4.985
    1LIG    H43  134   1.857   2.007   4.984
    1LIG    H44  135   1.965   1.867   5.292
    1LIG    H45  136   1.857   2.007   5.292
    1LIG    H46  137   2.031   2.142   5.445
    1LIG    H47  138   2.140   2.001   5.445
    1LIG    H48  139   2.031   2.142   5.753
    1LIG    H49  140   2.139   2.001   5.753
    1LIG    H50  141   1.965   1.867   5.907
    1LIG    H51  142   1.857   2.008   5.907
    1LIG    H52  143   1.964   1.867   6.214
    1LIG    H53  144   1.856   2.008   6.214
    1LIG    H54  145   2.030   2.142   6.368
    1LIG    H55  146   2.138   2.001   6.367
    1LIG    H56  147   2.031   2.141   6.675
    1LIG    H57  148   2.139   2.001   6.675
    1LIG    H58  149   1.965   1.867   6.829
    1LIG    H59  150   1.857   2.007   6.830
    1LIG    H60  151   1.965   1.866   7.136
    1LIG    H61  152   1.857   2.007   7.136
    1LIG    H62  153   2.031   2.141   7.289
    1LIG    H63  154   2.139   2.001   7.289
    1LIG    H64  155   2.031   2.141   7.596
    1LIG    H65  156   2.139   2.000   7.596
    1LIG    H66  157   1.965   1.866   7.750
    1LIG    H67  158   1.857   2.007   7.751
    1LIG    H68  159   1.965   1.866   8.057
    1LIG    H69  160   1.857   2.006   8.057
    1LIG    H70  161   2.031   2.140   8.212
    1LIG    H71  162   2.139   2.000   8.211
    1LIG    H72  163   2.031   2.140   8.518
    1LIG    H73  164   2.140   2.000   8.518
    1LIG    H74  165   1.966   1.866   8.673
    1LIG    H75  166   1.858   2.006   8.673
    1LIG    H76  167   1.966   1.865   8.979
    1LIG    H77  168   1.858   2.005   8.979
    1LIG    H78  169   2.031   2.139   9.134
    1LIG    H79  170   2.140   1.998   9.134
    1LIG    H80  171   2.032   2.139   9.441
    1LIG    H81  172   2.140   1.999   9.440
    1LIG    H82  173   1.967   1.864   9.595
    1LIG    H83  174   1.858   2.004   9.595
    1LIG    H84  175   1.967   1.863   9.902
    1LIG    H85  176   1.858   2.004   9.902
    1LIG    H86  177   2.032   2.138  10.055
    1LIG    H87  178   2.141   1.998  10.055
    1LIG    H88  179   2.033   2.138  10.363
    1LIG    H89  180   2.141   1.998  10.363
    1LIG    H90  181   1.967   1.863  10.516
    1LIG    H91  182   1.859   2.003  10.516
    1LIG    H92  183   1.968   1.862  10.824
    1LIG    H93  184   1.859   2.002  10.824
    1LIG    H94  185   2.033   2.137  10.977
    1LIG    H95  186   2.142   1.997  10.977
    1LIG    H96  187   2.033   2.136  11.285
    1LIG    H97  188   2.141   1.996  11.284
    1LIG    H98  189   1.968   1.861  11.437
    1LIG    H99  190   1.859   2.001  11.438
    1LIG   H100  191   1.968   1.861  11.745
    1LIG   H101  192   1.860   2.001  11.746
    1LIG   H102  193   2.034   2.136  11.898
    1LIG   H103  194   2.142   1.996  11.898
    1LIG   H104  195   2.034   2.135  12.206
    1LIG   H105  196   2.142   1.995  12.206
    1LIG   H106  197   1.969   1.860  12.358
    1LIG   H107  198   1.860   2.000  12.359
    1LIG   H108  199   1.970   1.860  12.666
    1LIG   H109  200   1.861   2.000  12.666
    1LIG   H110  201   2.034   2.134  12.821
    1LIG   H111  202   2.143   1.994  12.820
    1LIG   H112  203   2.035   2.134  13.128
    1LIG   H113  204   2.144   1.994  13.128
    1LIG   H114  205   1.971   1.859  13.283
    1LIG   H115  206   1.862   1.999  13.284
    1LIG   H116  207   1.971   1.858  13.589
    1LIG   H117  208   1.862   1.999  13.590
    1LIG   H118  209   2.143   1.992  13.747
    1LIG   H119  210   1.991   1.985  13.866
    1MOL     C1  211   1.320   2.198   6.434
    1MOL     H1  212   1.215   2.168   6.442
    1MOL     O1  213   1.353   2.257   6.558
    1MOL     C2  214   1.487   2.310   6.567
    1MOL     H2  215   1.559   2.228   6.555
    1MOL     C3  216   1.504   2.367   6.707
    1MOL     H3  217   1.611   2.389   6.722
    1MOL     H4  218   1.473   2.290   6.780
    1MOL     O2  219   1.426   2.485   6.720
    1MOL     H5  220   1.449   2.527   6.804
    1MOL     C4  221   1.339   2.298   6.319
    1MOL     H6  222   1.270   2.382   6.338
    1MOL     O3  223   1.305   2.247   6.192
    1MOL     H7  224   1.337   2.155   6.183
    1MOL     C5  225   1.482   2.353   6.321
    1MOL     H8  226   1.552   2.271   6.302
    1MOL     O4  227   1.496   2.453   6.220
    1MOL     H9  228   1.449   2.419   6.142
    1MOL     C6  229   1.511   2.415   6.456
    1MOL    H10  230   1.443   2.500   6.472
    1MOL     O5  231   1.647   2.459   6.457
    1MOL     C7  232   1.676   2.586   6.513
    1MOL    H11  233   1.586   2.628   6.560
    1MOL     O6  234   1.770   2.574   6.617
    1MOL     C8  235   1.899   2.522   6.577
    1MOL    H12  236   1.884   2.423   6.531
    1MOL     C9  237   1.984   2.504   6.704
    1MOL    H13  238   2.056   2.423   6.684
    1MOL    H14  239   1.918   2.470   6.784
    1MOL     O7  240   2.049   2.621   6.749
    1MOL    H15  241   2.137   2.624   6.706
    1MOL    C10  242   1.729   2.678   6.402
    1MOL    H16  243   1.740   2.778   6.444
    1MOL     O8  244   1.640   2.692   6.292
    1MOL    H17  245   1.607   2.603   6.265
    1MOL    C11  246   1.866   2.630   6.355
    1MOL    H18  247   1.856   2.531   6.308
    1MOL     O9  248   1.923   2.722   6.262
    1MOL    H19  249   1.850   2.745   6.201
    1MOL    C12  250   1.959   2.619   6.475
    1MOL    H20  251   1.969   2.717   6.523
    1MOL    O10  252   2.087   2.574   6.429
    1MOL    C13  253   2.199   2.656   6.456
    1MOL    H21  254   2.167   2.755   6.488
    1MOL    O11  255   2.276   2.604   6.564
    1MOL    C14  256   2.331   2.472   6.540
    1MOL    H22  257   2.248   2.403   6.518
    1MOL    C15  258   2.399   2.424   6.669
    1MOL    H23  259   2.393   2.314   6.673
    1MOL    H24  260   2.341   2.463   6.754
    1MOL    O12  261   2.533   2.468   6.684
    1MOL    H25  262   2.590   2.397   6.649
    1MOL    C16  263   2.284   2.665   6.329
    1MOL    H26  264   2.366   2.735   6.348
    1MOL    O13  265   2.212   2.715   6.217
    1MOL    H27  266   2.117   2.693   6.227
    1MOL    C17  267   2.346   2.528   6.298
    1MOL    H28  268   2.266   2.456   6.275
    1MOL    O14  269   2.435   2.538   6.187
    1MOL    H29  270   2.387   2.588   6.118
    1MOL    C18  271   2.424   2.480   6.419
    1MOL    H30  272   2.505   2.550   6.442
    1MOL    O15  273   2.479   2.351   6.387
    1MOL    C19  274   2.618   2.333   6.402
    1MOL    H31  275   2.669   2.429   6.416
    1MOL    O16  276   2.648   2.257   6.518
    1MOL    C20  277   2.591   2.124   6.519
    1MOL    H32  278   2.482   2.133   6.508
    1MOL    C21  279   2.621   2.059   6.655
    1MOL    H33  280   2.538   1.990   6.678
    1MOL    H34  281   2.619   2.138   6.731
    1MOL    O17  282   2.746   1.993   6.663
    1MOL    H35  283   2.730   1.899   6.642
    1MOL    C22  284   2.670   2.262   6.276
    1MOL    H36  285   2.779   2.255   6.284
    1MOL    O18  286   2.642   2.333   6.157
    1MOL    H37  287   2.558   2.382   6.167
    1MOL    C23  288   2.614   2.120   6.270
    1MOL    H38  289   2.505   2.124   6.259
    1MOL    O19  290   2.671   2.048   6.161
    1MOL    H39  291   2.666   2.108   6.084
    1MOL    C24  292   2.648   2.046   6.399
    1MOL    H40  293   2.757   2.040   6.411
    1MOL    O20  294   2.591   1.915   6.392
    1MOL    C25  295   2.677   1.804   6.410
    1MOL    H41  296   2.781   1.835   6.408
    1MOL    O21  297   2.656   1.745   6.537
    1MOL    C26  298   2.523   1.693   6.559
    1MOL    H42  299   2.451   1.775   6.553
    1MOL    C27  300   2.517   1.636   6.700
    1MOL    H43  301   2.412   1.616   6.724
    1MOL    H44  302   2.555   1.712   6.770
    1MOL    O22  303   2.596   1.517   6.706
    1MOL    H45  304   2.586   1.480   6.795
    1MOL    C28  305   2.648   1.704   6.298
    1MOL    H46  306   2.718   1.620   6.310
    1MOL    O23  307   2.670   1.756   6.168
    1MOL    H47  308   2.647   1.852   6.167
    1MOL    C29  309   2.506   1.650   6.312
    1MOL    H48  310   2.434   1.732   6.299
    1MOL    O24  311   2.482   1.549   6.214
    1MOL    H49  312   2.520   1.583   6.131
    1MOL    C30  313   2.487   1.589   6.451
    1MOL    H50  314   2.551   1.501   6.461
    1MOL    O25  315   2.350   1.552   6.463
    1MOL    C31  316   2.319   1.427   6.525
    1MOL    H51  317   2.407   1.388   6.576
    1MOL    O26  318   2.221   1.446   6.625
    1MOL    C32  319   2.094   1.497   6.578
    1MOL    H52  320   2.111   1.593   6.527
    1MOL    C33  321   2.005   1.522   6.700
    1MOL    H53  322   1.929   1.596   6.672
    1MOL    H54  323   2.069   1.568   6.777
    1MOL    O27  324   1.945   1.405   6.751
    1MOL    H55  325   1.849   1.416   6.744
    1MOL    C34  326   2.269   1.329   6.417
    1MOL    H56  327   2.255   1.232   6.465
    1MOL    O28  328   2.361   1.308   6.312
    1MOL    H57  329   2.389   1.395   6.275
    1MOL    C35  330   2.134   1.376   6.363
    1MOL    H58  331   2.147   1.472   6.312
    1MOL    O29  332   2.080   1.280   6.272
    1MOL    H59  333   2.155   1.252   6.217
    1MOL    C36  334   2.036   1.396   6.478
    1MOL    H60  335   2.021   1.302   6.532
    1MOL    O30  336   1.911   1.441   6.424
    1MOL    C37  337   1.804   1.350   6.427
    1MOL    H61  338   1.840   1.249   6.446
    1MOL    O31  339   1.714   1.378   6.532
    1MOL    C38  340   1.653   1.508   6.527
    1MOL    H62  341   1.732   1.585   6.524
    1MOL    C39  342   1.577   1.524   6.656
    1MOL    H63  343   1.508   1.438   6.669
    1MOL    H64  344   1.518   1.616   6.655
    1MOL    O32  345   1.674   1.526   6.761
    1MOL    H65  346   1.630   1.548   6.844
    1MOL    C40  347   1.730   1.356   6.293
    1MOL    H66  348   1.652   1.279   6.296
    1MOL    O33  349   1.811   1.332   6.180
    1MOL    H67  350   1.906   1.331   6.206
    1MOL    C41  351   1.661   1.492   6.279
    1MOL    H68  352   1.738   1.570   6.275
    1MOL    O34  353   1.582   1.495   6.160
    1MOL    H69  354   1.640   1.461   6.089
    1MOL    C42  355   1.570   1.519   6.398
    1MOL    H70  356   1.489   1.444   6.400
    1MOL    O35  357   1.515   1.650   6.382
    1MOL    C43  358   1.375   1.667   6.386
    1MOL    H71  359   1.325   1.569   6.389
    1MOL    O36  360   1.334   1.733   6.504
    1MOL    C44  361   1.385   1.866   6.521
    1MOL    H72  362   1.495   1.863   6.523
    1MOL    C45  363   1.336   1.915   6.655
    1MOL    H73  364   1.228   1.895   6.662
    1MOL    H74  365   1.352   2.024   6.663
    1MOL    O37  366   1.408   1.845   6.757
    1MOL    H75  367   1.371   1.871   6.842
    1MOL    C46  368   1.332   1.746   6.263
    1MOL    H76  369   1.222   1.751   6.263
    1MOL    O38  370   1.368   1.687   6.140
    1MOL    H77  371   1.454   1.640   6.150
    1MOL    C47  372   1.385   1.889   6.272
    1MOL    H78  373   1.495   1.886   6.270
    1MOL    O39  374   1.337   1.966   6.162
    1MOL    H79  375   1.348   1.910   6.084
    1MOL    C48  376   1.341   1.955   6.402
    1MOL    H80  377   1.232   1.965   6.402
    1MOL    O40  378   1.402   2.084   6.409
    1MOL     C1  379   2.680   2.198   7.466
    1MOL     H1  380   2.785   2.168   7.457
    1MOL     O1  381   2.647   2.257   7.342
    1MOL     C2  382   2.514   2.310   7.333
    1MOL     H2  383   2.441   2.228   7.345
    1MOL     C3  384   2.496   2.367   7.193
    1MOL     H3  385   2.389   2.389   7.178
    1MOL     H4  386   2.527   2.290   7.120
    1MOL     O2  387   2.574   2.485   7.180
    1MOL     H5  388   2.551   2.527   7.096
    1MOL     C4  389   2.661   2.298   7.581
    1MOL     H6  390   2.730   2.382   7.562
    1MOL     O3  391   2.695   2.247   7.708
    1MOL     H7  392   2.663   2.155   7.717
    1MOL     C5  393   2.519   2.353   7.579
    1MOL     H8  394   2.448   2.271   7.598
    1MOL     O4  395   2.504   2.453   7.680
    1MOL     H9  396   2.552   2.419   7.758
    1MOL     C6  397   2.489   2.415   7.443
    1MOL    H10  398   2.557   2.500   7.428
    1MOL     O5  399   2.353   2.459   7.443
    1MOL     C7  400   2.324   2.586   7.387
    1MOL    H11  401   2.414   2.628   7.340
    1MOL     O6  402   2.230   2.574   7.282
    1MOL     C8  403   2.102   2.522   7.322
    1MOL    H12  404   2.116   2.423   7.369
    1MOL     C9  405   2.016   2.504   7.196
    1MOL    H13  406   1.944   2.423   7.216
    1MOL    H14  407   2.083   2.470   7.116
    1MOL     O7  408   1.951   2.621   7.151
    1MOL    H15  409   1.863   2.624   7.194
    1MOL    C10  410   2.272   2.678   7.498
    1MOL    H16  411   2.260   2.778   7.456
    1MOL     O8  412   2.360   2.692   7.608
    1MOL    H17  413   2.393   2.603   7.635
    1MOL    C11  414   2.134   2.630   7.545
    1MOL    H18  415   2.144   2.531   7.592
    1MOL     O9  416   2.077   2.722   7.638
    1MOL    H19  417   2.150   2.745   7.699
    1MOL    C12  418   2.041   2.619   7.425
    1MOL    H20  419   2.031   2.717   7.377
    1MOL    O10  420   1.913   2.574   7.471
    1MOL    C13  421   1.801   2.656   7.444
    1MOL    H21  422   1.833   2.755   7.411
    1MOL    O11  423   1.724   2.604   7.336
    1MOL    C14  424   1.670   2.472   7.359
    1MOL    H22  425   1.753   2.403   7.382
    1MOL    C15  426   1.601   2.424   7.231
    1MOL    H23  427   1.607   2.314   7.227
    1MOL    H24  428   1.659   2.463   7.146
    1MOL    O12  429   1.467   2.468   7.215
    1MOL    H25  430   1.410   2.397   7.251
    1MOL    C16  431   1.716   2.665   7.571
    1MOL    H26  432   1.634   2.735   7.552
    1MOL    O13  433   1.788   2.715   7.683
    1MOL    H27  434   1.883   2.693   7.673
    1MOL    C17  435   1.654   2.528   7.602
    1MOL    H28  436   1.734   2.456   7.625
    1MOL    O14  437   1.565   2.538   7.713
    1MOL    H29  438   1.613   2.588   7.781
    1MOL    C18  439   1.576   2.480   7.481
    1MOL    H30  440   1.496   2.550   7.458
    1MOL    O15  441   1.521   2.351   7.512
    1MOL    C19  442   1.382   2.333   7.498
    1MOL    H31  443   1.331   2.429   7.484
    1MOL    O16  444   1.352   2.257   7.381
    1MOL    C20  445   1.409   2.124   7.381
    1MOL    H32  446   1.518   2.133   7.392
    1MOL    C21  447   1.379   2.059   7.245
    1MOL    H33  448   1.462   1.990   7.222
    1MOL    H34  449   1.381   2.138   7.169
    1MOL    O17  450   1.254   1.993   7.237
    1MOL    H35  451   1.270   1.899   7.258
    1MOL    C22  452   1.330   2.262   7.624
    1MOL    H36  453   1.221   2.255   7.616
    1MOL    O18  454   1.358   2.333   7.743
    1MOL    H37  455   1.442   2.382   7.733
    1MOL    C23  456   1.386   2.120   7.630
    1MOL    H38  457   1.495   2.124   7.641
    1MOL    O19  458   1.329   2.048   7.739
    1MOL    H39  459   1.334   2.108   7.816
    1MOL    C24  460   1.352   2.046   7.501
    1MOL    H40  461   1.244   2.040   7.489
    1MOL    O20  462   1.409   1.915   7.508
    1MOL    C25  463   1.324   1.804   7.490
    1MOL    H41  464   1.219   1.835   7.491
    1MOL    O21  465   1.344   1.745   7.363
    1MOL    C26  466   1.477   1.693   7.341
    1MOL    H42  467   1.549   1.775   7.347
    1MOL    C27  468   1.483   1.636   7.200
    1MOL    H43  469   1.588   1.616   7.176
    1MOL    H44  470   1.445   1.712   7.130
    1MOL    O22  471   1.405   1.517   7.194
    1MOL    H45  472   1.414   1.480   7.105
    1MOL    C28  473   1.352   1.704   7.602
    1MOL    H46  474   1.282   1.620   7.590
    1MOL    O23  475   1.330   1.756   7.731
    1MOL    H47  476   1.353   1.852   7.732
    1MOL    C29  477   1.494   1.650   7.588
    1MOL    H48  478   1.566   1.732   7.601
    1MOL    O24  479   1.518   1.549   7.686
    1MOL    H49  480   1.480   1.583   7.769
    1MOL    C30  481   1.513   1.589   7.449
    1MOL    H50  482   1.449   1.501   7.439
    1MOL    O25  483   1.650   1.552   7.437
    1MOL    C31  484   1.681   1.427   7.375
    1MOL    H51  485   1.593   1.388   7.324
    1MOL    O26  486   1.779   1.446   7.275
    1MOL    C32  487   1.906   1.497   7.322
    1MOL    H52  488   1.889   1.593   7.372
    1MOL    C33  489   1.995   1.522   7.200
    1MOL    H53  490   2.071   1.596   7.228
    1MOL    H54  491   1.931   1.568   7.123
    1MOL    O27  492   2.055   1.405   7.149
    1MOL    H55  493   2.151   1.416   7.156
    1MOL    C34  494   1.731   1.329   7.483
    1MOL    H56  495   1.745   1.232   7.435
    1MOL    O28  496   1.639   1.308   7.588
    1MOL    H57  497   1.611   1.395   7.625
    1MOL    C35  498   1.866   1.376   7.537
    1MOL    H58  499   1.853   1.472   7.588
    1MOL    O29  500   1.920   1.280   7.628
    1MOL    H59  501   1.845   1.252   7.683
    1MOL    C36  502   1.964   1.396   7.422
    1MOL    H60  503   1.979   1.302   7.368
    1MOL    O30  504   2.089   1.441   7.476
    1MOL    C37  505   2.196   1.350   7.473
    1MOL    H61  506   2.160   1.249   7.454
    1MOL    O31  507   2.286   1.378   7.368
    1MOL    C38  508   2.347   1.508   7.373
    1MOL    H62  509   2.269   1.585   7.376
    1MOL    C39  510   2.424   1.524   7.244
    1MOL    H63  511   2.492   1.438   7.231
    1MOL    H64  512   2.482   1.616   7.245
    1MOL    O32  513   2.326   1.526   7.139
    1MOL    H65  514   2.370   1.548   7.056
    1MOL    C40  515   2.270   1.356   7.607
    1MOL    H66  516   2.348   1.279   7.604
    1MOL    O33  517   2.189   1.332   7.720
    1MOL    H67  518   2.095   1.331   7.694
    1MOL    C41  519   2.339   1.492   7.621
    1MOL    H68  520   2.262   1.570   7.625
    1MOL    O34  521   2.418   1.495   7.740
    1MOL    H69  522   2.360   1.461   7.811
    1MOL    C42  523   2.430   1.519   7.502
    1MOL    H70  524   2.511   1.444   7.500
    1MOL    O35  525   2.485   1.650   7.518
    1MOL    C43  526   2.625   1.667   7.514
    1MOL    H71  527   2.675   1.569   7.511
    1MOL    O36  528   2.666   1.733   7.396
    1MOL    C44  529   2.615   1.866   7.379
    1MOL    H72  530   2.505   1.863   7.377
    1MOL    C45  531   2.665   1.915   7.244
    1MOL    H73  532   2.773   1.895   7.238
    1MOL    H74  533   2.648   2.024   7.237
    1MOL    O37  534   2.592   1.845   7.143
    1MOL    H75  535   2.630   1.871   7.058
    1MOL    C46  536   2.669   1.746   7.637
    1MOL    H76  537   2.778   1.751   7.637
    1MOL    O38  538   2.632   1.687   7.760
    1MOL    H77  539   2.546   1.640   7.750
    1MOL    C47  540   2.615   1.889   7.628
    1MOL    H78  541   2.505   1.886   7.629
    1MOL    O39  542   2.663   1.966   7.738
    1MOL    H79  543   2.652   1.910   7.816
    1MOL    C48  544   2.659   1.955   7.498
    1MOL    H80  545   2.768   1.965   7.498
    1MOL    O40  546   2.598   2.084   7.491
    2SOL     OW  547   0.230   0.628   0.113
    2SOL    HW1  548   0.137   0.626   0.150
    2SOL    HW2  549   0.231   0.589   0.021
    3SOL     OW  550   0.225   0.275   0.996
    3SOL    HW1  551   0.260   0.258   1.088
    3SOL    HW2  552   0.137   0.230   0.984
    4SOL     OW  553   0.019   0.368   0.647
    4SOL    HW1  554  -0.063   0.411   0.686
    4SOL    HW2  555  -0.009   0.295   0.584
    5SOL     OW  556   0.569   1.275   1.165
    5SOL    HW1  557   0.476   1.268   1.128
    5SOL    HW2  558   0.580   1.364   1.209
    6SOL     OW  559   1.555   1.511   0.703
    6SOL    HW1  560   1.498   1.495   0.784
    6SOL    HW2  561   1.496   1.521   0.623
    7SOL     OW  562   1.135   0.703   0.717
    7SOL    HW1  563   1.192   0.781   0.692
    7SOL    HW2  564   1.075   0.729   0.793
    8SOL     OW  565   1.755   0.607   0.231
    8SOL    HW1  566   1.743   0.594   0.132
    8SOL    HW2  567   1.725   0.526   0.280
    9SOL     OW  568   0.768   1.144   1.023
    9SOL    HW1  569   0.690   1.161   1.083
    9SOL    HW2  570   0.802   1.231   0.987
   10SOL     OW  571   0.850   0.798   1.823
   10SOL    HW1  572   0.846   0.874   1.888
   10SOL    HW2  573   0.872   0.834   1.732
   11SOL     OW  574   0.685   1.012   0.665
   11SOL    HW1  575   0.754   0.996   0.735
   11SOL    HW2  576   0.612   1.069   0.703
   12SOL     OW  577   0.686   1.161   1.803
   12SOL    HW1  578   0.746   1.240   1.817
   12SOL    HW2  579   0.600   1.192   1.762
   13SOL     OW  580   0.335   1.435   1.061
   13SOL    HW1  581   0.257   1.404   1.008
   13SOL    HW2  582   0.393   1.493   1.004
   14SOL     OW  583   1.460   1.505   1.339
   14SOL    HW1  584   1.484   1.599   1.365
   14SOL    HW2  585   1.444   1.451   1.421
   15SOL     OW  586   0.438   0.392   1.499
   15SOL    HW1  587   0.520   0.336   1.508
   15SOL    HW2  588   0.357   0.334   1.503
   16SOL     OW  589   1.603   0.447   0.737
   16SOL    HW1  590   1.529   0.493   0.687
   16SOL    HW2  591   1.654   0.515   0.790
   17SOL     OW  592   0.231   1.713   0.483
   17SOL    HW1  593   0.265   1.790   0.537
   17SOL    HW2  594   0.275   1.713   0.393
   18SOL     OW  595   1.127   1.341   1.690
   18SOL    HW1  596   1.174   1.341   1.778
   18SOL    HW2  597   1.079   1.254   1.679
   19SOL     OW  598   0.230   1.434   0.538
   19SOL    HW1  599   0.204   1.530   0.538
   19SOL    HW2  600   0.159   1.380   0.583
   20SOL     OW  601   0.240   1.091   0.886
   20SOL    HW1  602   0.254   1.007   0.938
   20SOL    HW2  603   0.185   1.155   0.941
   21SOL     OW  604   0.620   1.786   1.439
   21SOL    HW1  605   0.528   1.769   1.474
   21SOL    HW2  606   0.648   1.878   1.465
   22SOL     OW  607   0.606   0.964   0.123
   22SOL    HW1  608   0.613   1.048   0.069
   22SOL    HW2  609   0.652   0.977   0.211
   23SOL     OW  610   1.594   0.114   1.480
   23SOL    HW1  611   1.576   0.181   1.408
   23SOL    HW2  612   1.591   0.160   1.569
   24SOL     OW  613   0.122   0.643   0.563
   24SOL    HW1  614   0.077   0.555   0.580
   24SOL    HW2  615   0.121   0.697   0.647
   25SOL     OW  616   0.027   1.596   0.117
   25SOL    HW1  617   0.008   1.500   0.138
   25SOL    HW2  618  -0.006   1.654   0.192
   26SOL     OW  619   1.689   0.922   0.612
   26SOL    HW1  620   1.784   0.893   0.620
   26SOL    HW2  621   1.681   0.987   0.537
   27SOL     OW  622   1.641   1.108   0.432
   27SOL    HW1  623   1.727   1.110   0.380
   27SOL    HW2  624   1.655   1.155   0.520
   28SOL     OW  625   0.113   0.737   1.597
   28SOL    HW1  626   0.201   0.724   1.642
   28SOL    HW2  627   0.100   0.834   1.575
   29SOL     OW  628   0.613   1.365   0.726
   29SOL    HW1  629   0.564   1.278   0.735
   29SOL    HW2  630   0.590   1.408   0.639
   30SOL     OW  631   1.293   1.228   1.423
   30SOL    HW1  632   1.330   1.155   1.365
   30SOL    HW2  633   1.345   1.233   1.508
   31SOL     OW  634   0.809   0.004   0.502
   31SOL    HW1  635   0.849   0.095   0.493
   31SOL    HW2  636   0.709   0.012   0.508
   32SOL     OW  637   0.197   0.976   1.264
   32SOL    HW1  638   0.286   0.931   1.250
   32SOL    HW2  639   0.124   0.911   1.245
   33SOL     OW  640   1.525   0.999   0.190
   33SOL    HW1  641   1.462   0.923   0.203
   33SOL    HW2  642   1.573   1.017   0.276
   34SOL     OW  643   1.187   1.792   1.616
   34SOL    HW1  644   1.211   1.852   1.540
   34SOL    HW2  645   1.194   1.697   1.586
   35SOL     OW  646   0.317   0.251   1.801
   35SOL    HW1  647   0.388   0.322   1.807
   35SOL    HW2  648   0.229   0.290   1.829
   36SOL     OW  649   1.466   1.417   0.953
   36SOL    HW1  650   1.407   1.423   1.033
   36SOL    HW2  651   1.451   1.329   0.907
   37SOL     OW  652   1.667   1.714   0.572
   37SOL    HW1  653   1.626   1.691   0.484
   37SOL    HW2  654   1.649   1.640   0.637
   38SOL     OW  655   0.598   0.729   0.270
   38SOL    HW1  656   0.622   0.798   0.202
   38SOL    HW2  657   0.520   0.762   0.324
   39SOL     OW  658   1.281   0.345   0.944
   39SOL    HW1  659   1.195   0.295   0.931
   39SOL    HW2  660   1.343   0.291   1.000
   40SOL     OW  661   1.576   1.662   0.307
   40SOL    HW1  662   1.665   1.708   0.310
   40SOL    HW2  663   1.555   1.638   0.212
   41SOL     OW  664   0.807   0.605   1.465
   41SOL    HW1  665   0.760   0.602   1.554
   41SOL    HW2  666   0.756   0.550   1.399
   42SOL     OW  667   1.394   0.469   1.674
   42SOL    HW1  668   1.374   0.512   1.762
   42SOL    HW2  669   1.472   0.407   1.683
   43SOL     OW  670   0.973   0.890   1.572
   43SOL    HW1  671   1.019   0.806   1.543
   43SOL    HW2  672   0.917   0.924   1.497
   44SOL     OW  673   0.991   0.410   1.242
   44SOL    HW1  674   0.914   0.444   1.296
   44SOL    HW2  675   0.957   0.359   1.163
   45SOL     OW  676   1.041   0.701   0.429
   45SOL    HW1  677   1.067   0.697   0.525
   45SOL    HW2  678   0.956   0.650   0.415
   46SOL     OW  679   0.076   0.811   0.789
   46SOL    HW1  680   0.175   0.799   0.798
   46SOL    HW2  681   0.052   0.906   0.810
   47SOL     OW  682   0.130   1.821   1.571
   47SOL    HW1  683   0.120   1.806   1.670
   47SOL    HW2  684   0.044   1.857   1.535
   48SOL     OW  685   0.865   0.348   0.195
   48SOL    HW1  686   0.924   0.411   0.146
   48SOL    HW2  687   0.884   0.254   0.166
   49SOL     OW  688   1.719   0.585   1.831
   49SOL    HW1  689   1.693   0.674   1.795
   49SOL    HW2  690   1.717   0.517   1.758
   50SOL     OW  691   1.362   1.144   0.545
   50SOL    HW1  692   1.445   1.115   0.497
   50SOL    HW2  693   1.313   1.211   0.489
   51SOL     OW  694   0.550   0.196   0.885
   51SOL    HW1  695   0.545   0.191   0.985
   51SOL    HW2  696   0.552   0.292   0.856
   52SOL     OW  697   1.008   1.456   0.477
   52SOL    HW1  698   0.962   1.528   0.425
   52SOL    HW2  699   1.004   1.476   0.575
   53SOL     OW  700   0.351   1.801   0.853
   53SOL    HW1  701   0.401   1.715   0.859
   53SOL    HW2  702   0.416   1.878   0.850
   54SOL     OW  703   1.795   1.066   0.873
   54SOL    HW1  704   1.733   1.051   0.797
   54SOL    HW2  705   1.743   1.077   0.958
   55SOL     OW  706   1.227   1.550   1.506
   55SOL    HW1  707   1.233   1.473   1.570
   55SOL    HW2  708   1.175   1.524   1.426
   56SOL     OW  709   0.321   0.943   0.242
   56SOL    HW1  710   0.403   0.982   0.200
   56SOL    HW2  711   0.294   0.861   0.193
   57SOL     OW  712   1.458   0.735   0.728
   57SOL    HW1  713   1.453   0.670   0.803
   57SOL    HW2  714   1.538   0.794   0.741
   58SOL     OW  715   0.461   1.266   1.727
   58SOL    HW1  716   0.411   1.267   1.641
   58SOL    HW2  717   0.398   1.248   1.803
   59SOL     OW  718   1.111   1.776   0.237
   59SOL    HW1  719   1.051   1.714   0.287
   59SOL    HW2  720   1.142   1.732   0.152
   60SOL     OW  721   0.202   0.285   1.498
   60SOL    HW1  722   0.122   0.345   1.485
   60SOL    HW2  723   0.192   0.236   1.584
   61SOL     OW  724   1.632   1.377   0.081
   61SOL    HW1  725   1.600   1.471   0.071
   61SOL    HW2  726   1.556   1.314   0.069
   62SOL     OW  727   0.464   1.743   0.323
   62SOL    HW1  728   0.497   1.782   0.409
   62SOL    HW2  729   0.540   1.736   0.258
   63SOL     OW  730   1.400   0.107   0.426
   63SOL    HW1  731   1.376   0.070   0.336
   63SOL    HW2  732   1.499   0.123   0.430
   64SOL     OW  733   0.249   1.785   1.241
   64SOL    HW1  734   0.306   1.720   1.291
   64SOL    HW2  735   0.233   1.752   1.148
   65SOL     OW  736   0.940   1.698   0.904
   65SOL    HW1  737   1.020   1.641   0.925
   65SOL    HW2  738   0.891   1.658   0.827
   66SOL     OW  739   0.382   0.700   0.480
   66SOL    HW1  740   0.427   0.610   0.477
   66SOL    HW2  741   0.288   0.689   0.513
   67SOL     OW  742   1.547   0.222   1.729
   67SOL    HW1  743   1.542   0.259   1.821
   67SOL    HW2  744   1.475   0.153   1.717
   68SOL     OW  745   0.614   0.122   0.117
   68SOL    HW1  746   0.712   0.100   0.124
   68SOL    HW2  747   0.583   0.105   0.024
   69SOL     OW  748   0.781   0.264   1.749
   69SOL    HW1  749   0.848   0.203   1.792
   69SOL    HW2  750   0.708   0.283   1.814
   70SOL     OW  751   0.888   1.514   1.195
   70SOL    HW1  752   0.865   1.489   1.101
   70SOL    HW2  753   0.949   1.445   1.234
   71SOL     OW  754   1.351   0.590   1.433
   71SOL    HW1  755   1.379   0.547   1.518
   71SOL    HW2  756   1.376   0.686   1.434
   72SOL     OW  757   0.803   1.402   0.924
   72SOL    HW1  758   0.893   1.416   0.882
   72SOL    HW2  759   0.732   1.404   0.853
   73SOL     OW  760   0.922   0.503   0.899
   73SOL    HW1  761   0.897   0.494   0.803
   73SOL    HW2  762   0.970   0.421   0.930
   74SOL     OW  763   0.539   0.064   0.512
   74SOL    HW1  764   0.458   0.065   0.570
   74SOL    HW2  765   0.542   0.147   0.457
   75SOL     OW  766   1.434   1.188   0.041
   75SOL    HW1  767   1.466   1.112   0.098
   75SOL    HW2  768   1.342   1.215   0.071
   76SOL     OW  769   0.297   0.035   0.171
   76SOL    HW1  770   0.346   0.119   0.150
   76SOL    HW2  771   0.359  -0.030   0.216
   77SOL     OW  772   0.935   0.236   0.480
   77SOL    HW1  773   0.887   0.277   0.402
   77SOL    HW2  774   1.034   0.234   0.461
   78SOL     OW  775   1.076   0.683   1.464
   78SOL    HW1  776   0.996   0.622   1.467
   78SOL    HW2  777   1.157   0.630   1.440
   79SOL     OW  778   1.227   1.570   0.793
   79SOL    HW1  779   1.248   1.644   0.728
   79SOL    HW2  780   1.295   1.570   0.866
   80SOL     OW  781   0.459   1.152   0.741
   80SOL    HW1  782   0.388   1.125   0.806
   80SOL    HW2  783   0.433   1.124   0.648
   81SOL     OW  784   1.271   1.797   0.591
   81SOL    HW1  785   1.315   1.861   0.527
   81SOL    HW2  786   1.221   1.849   0.661
   82SOL     OW  787   1.032   0.549   0.016
   82SOL    HW1  788   0.991   0.631  -0.023
   82SOL    HW2  789   1.096   0.575   0.089
   83SOL     OW  790   0.078   0.556   1.386
   83SOL    HW1  791   0.170   0.555   1.345
   83SOL    HW2  792   0.072   0.630   1.453
   84SOL     OW  793   0.561   0.222   1.147
   84SOL    HW1  794   0.599   0.138   1.184
   84SOL    HW2  795   0.473   0.241   1.191
   85SOL     OW  796   0.866   0.454   0.642
   85SOL    HW1  797   0.834   0.526   0.580
   85SOL    HW2  798   0.890   0.373   0.589
   86SOL     OW  799   1.017   0.039   0.753
   86SOL    HW1  800   0.945   0.044   0.684
   86SOL    HW2  801   0.993  -0.030   0.822
   87SOL     OW  802   1.429   1.173   0.867
   87SOL    HW1  803   1.374   1.089   0.860
   87SOL    HW2  804   1.455   1.202   0.775
   88SOL     OW  805   1.466   0.590   0.992
   88SOL    HW1  806   1.436   0.495   0.999
   88SOL    HW2  807   1.539   0.606   1.058
   89SOL     OW  808   1.857   0.833   0.377
   89SOL    HW1  809   1.899   0.769   0.441
   89SOL    HW2  810   1.819   0.782   0.299
   90SOL     OW  811   0.488   1.385   0.174
   90SOL    HW1  812   0.401   1.370   0.221
   90SOL    HW2  813   0.471   1.411   0.079
   91SOL     OW  814   1.664   1.280   0.657
   91SOL    HW1  815   1.763   1.288   0.671
   91SOL    HW2  816   1.619   1.364   0.688
   92SOL     OW  817   1.390   0.575   0.078
   92SOL    HW1  818   1.336   0.554   0.159
   92SOL    HW2  819   1.481   0.534   0.087
   93SOL     OW  820   0.527   0.256   0.328
   93SOL    HW1  821   0.554   0.197   0.253
   93SOL    HW2  822   0.527   0.351   0.297
   94SOL     OW  823   1.754   1.223   1.588
   94SOL    HW1  824   1.845   1.184   1.575
   94SOL    HW2  825   1.762   1.319   1.612
   95SOL     OW  826   1.064   1.347   1.340
   95SOL    HW1  827   0.984   1.324   1.395
   95SOL    HW2  828   1.147   1.321   1.389
   96SOL     OW  829   1.592   1.629   1.625
   96SOL    HW1  830   1.619   1.663   1.535
   96SOL    HW2  831   1.671   1.591   1.671
   97SOL     OW  832   1.111   1.195   1.100
   97SOL    HW1  833   1.071   1.239   1.181
   97SOL    HW2  834   1.070   1.232   1.017
   98SOL     OW  835   1.638   1.099   1.079
   98SOL    HW1  836   1.643   1.180   1.138
   98SOL    HW2  837   1.552   1.101   1.028
   99SOL     OW  838   0.915   0.089   1.402
   99SOL    HW1  839   0.940   0.069   1.307
   99SOL    HW2  840   0.987   0.145   1.444
  100SOL     OW  841   0.980   1.116   1.719
  100SOL    HW1  842   0.881   1.122   1.729
  100SOL    HW2  843   1.003   1.036   1.663
  101SOL     OW  844   0.705   1.050   0.368
  101SOL    HW1  845   0.691   1.057   0.467
  101SOL    HW2  846   0.789   0.999   0.350
  102SOL     OW  847   0.410   0.813   1.251
  102SOL    HW1  848   0.496   0.825   1.301
  102SOL    HW2  849   0.368   0.726   1.278
  103SOL     OW  850   1.274   0.386   1.262
  103SOL    HW1  851   1.295   0.460   1.326
  103SOL    HW2  852   1.185   0.403   1.219
  104SOL     OW  853   0.064   1.564   1.331
  104SOL    HW1  854   0.018   1.646   1.297
  104SOL    HW2  855   0.162   1.583   1.340
  105SOL     OW  856   0.367   1.100   0.501
  105SOL    HW1  857   0.360   1.183   0.445
  105SOL    HW2  858   0.371   1.020   0.441
  106SOL     OW  859   0.566   0.537   0.865
  106SOL    HW1  860   0.578   0.603   0.791
  106SOL    HW2  861   0.612   0.571   0.948
  107SOL     OW  862   1.252   1.348   0.388
  107SOL    HW1  863   1.302   1.425   0.428
  107SOL    HW2  864   1.157   1.350   0.420
  108SOL     OW  865   1.272   1.445   1.142
  108SOL    HW1  866   1.319   1.458   1.229
  108SOL    HW2  867   1.206   1.371   1.151
  109SOL     OW  868   1.582   0.639   0.472
  109SOL    HW1  869   1.551   0.700   0.545
  109SOL    HW2  870   1.632   0.691   0.403
  110SOL     OW  871   0.354   1.510   1.329
  110SOL    HW1  872   0.333   1.466   1.242
  110SOL    HW2  873   0.451   1.536   1.332
  111SOL     OW  874   0.402   0.751   1.598
  111SOL    HW1  875   0.470   0.806   1.551
  111SOL    HW2  876   0.442   0.663   1.625
  112SOL     OW  877   1.587   0.779   1.670
  112SOL    HW1  878   1.495   0.817   1.665
  112SOL    HW2  879   1.647   0.826   1.605
  113SOL     OW  880   1.013   0.105   1.770
  113SOL    HW1  881   1.019   0.190   1.718
  113SOL    HW2  882   1.045   0.029   1.713
  114SOL     OW  883   0.504   0.050   1.740
  114SOL    HW1  884   0.462  -0.007   1.670
  114SOL    HW2  885   0.438   0.119   1.772
  115SOL     OW  886   0.573   0.870   1.029
  115SOL    HW1  887   0.617   0.959   1.020
  115SOL    HW2  888   0.510   0.870   1.106
  116SOL     OW  889   1.360   0.862   1.045
  116SOL    HW1  890   1.285   0.862   0.979
  116SOL    HW2  891   1.397   0.770   1.054
  117SOL     OW  892   1.209   0.525   0.275
  117SOL    HW1  893   1.222   0.441   0.329
  117SOL    HW2  894   1.180   0.599   0.335
  118SOL     OW  895   0.307   0.213   1.231
  118SOL    HW1  896   0.284   0.250   1.321
  118SOL    HW2  897   0.277   0.118   1.225
  119SOL     OW  898   0.037   1.310   1.282
  119SOL    HW1  899   0.090   1.261   1.350
  119SOL    HW2  900   0.059   1.408   1.287
  120SOL     OW  901   0.732   0.634   1.064
  120SOL    HW1  902   0.791   0.608   0.988
  120SOL    HW2  903   0.704   0.730   1.053
  121SOL     OW  904   1.728   0.935   1.854
  121SOL    HW1  905   1.682   0.928   1.765
  121SOL    HW2  906   1.666   0.979   1.920
  122SOL     OW  907   0.307   0.063   0.618
  122SOL    HW1  908   0.296   0.157   0.651
  122SOL    HW2  909   0.302   0.000   0.695
  123SOL     OW  910   1.622   0.367   0.374
  123SOL    HW1  911   1.624   0.291   0.438
  123SOL    HW2  912   1.574   0.444   0.414
  124SOL     OW  913   1.023   0.766   0.966
  124SOL    HW1  914   1.038   0.787   1.062
  124SOL    HW2  915   0.993   0.671   0.957
  125SOL     OW  916   0.980   1.573   1.700
  125SOL    HW1  917   0.960   1.617   1.612
  125SOL    HW2  918   1.019   1.482   1.684
  126SOL     OW  919   1.859   1.518   1.605
  126SOL    HW1  920   1.873   1.545   1.510
  126SOL    HW2  921   1.942   1.540   1.658
  127SOL     OW  922   0.350   0.898   1.804
  127SOL    HW1  923   0.426   0.942   1.852
  127SOL    HW2  924   0.385   0.851   1.722
  128SOL     OW  925   1.540   0.274   0.125
  128SOL    HW1  926   1.479   0.199   0.148
  128SOL    HW2  927   1.562   0.326   0.208
  129SOL     OW  928   1.303   0.838   0.042
  129SOL    HW1  929   1.337   0.745   0.057
  129SOL    HW2  930   1.321   0.865  -0.053
  130SOL     OW  931   1.068   1.333   0.849
  130SOL    HW1  932   1.075   1.249   0.794
  130SOL    HW2  933   1.130   1.402   0.813
  131SOL     OW  934   0.319   0.810   0.949
  131SOL    HW1  935   0.412   0.846   0.954
  131SOL    HW2  936   0.313   0.725   1.001
  132SOL     OW  937   0.339   0.509   1.006
  132SOL    HW1  938   0.287   0.426   0.989
  132SOL    HW2  939   0.416   0.514   0.942
  133SOL     OW  940   1.138   0.380   1.678
  133SOL    HW1  941   1.093   0.443   1.742
  133SOL    HW2  942   1.231   0.411   1.661
  134SOL     OW  943   1.160   0.207   1.477
  134SOL    HW1  944   1.160   0.271   1.554
  134SOL    HW2  945   1.188   0.255   1.394
  135SOL     OW  946   0.008   1.326   0.200
  135SOL    HW1  947  -0.085   1.347   0.169
  135SOL    HW2  948   0.018   1.227   0.213
  136SOL     OW  949   0.088   1.801   0.927
  136SOL    HW1  950   0.046   1.715   0.900
  136SOL    HW2  951   0.182   1.804   0.893
  137SOL     OW  952   0.504   1.568   0.910
  137SOL    HW1  953   0.570   1.642   0.919
  137SOL    HW2  954   0.548   1.489   0.868
  138SOL     OW  955   1.002   0.796   1.238
  138SOL    HW1  956   1.043   0.764   1.324
  138SOL    HW2  957   0.906   0.769   1.235
  139SOL     OW  958   0.040   0.544   1.114
  139SOL    HW1  959   0.125   0.511   1.073
  139SOL    HW2  960   0.053   0.559   1.212
  140SOL     OW  961   0.189   0.520   1.722
  140SOL    HW1  962   0.248   0.480   1.652
  140SOL    HW2  963   0.131   0.591   1.681
  141SOL     OW  964   1.369   0.950   1.660
  141SOL    HW1  965   1.408   1.039   1.680
  141SOL    HW2  966   1.379   0.930   1.563
  142SOL     OW  967   0.815   0.572   0.325
  142SOL    HW1  968   0.822   0.483   0.279
  142SOL    HW2  969   0.721   0.606   0.317
  143SOL     OW  970   1.657   0.604   1.206
  143SOL    HW1  971   1.619   0.535   1.268
  143SOL    HW2  972   1.739   0.568   1.162
  144SOL     OW  973   0.252   1.564   1.744
  144SOL    HW1  974   0.222   1.621   1.820
  144SOL    HW2  975   0.245   1.467   1.770
  145SOL     OW  976   0.671   0.464   1.269
  145SOL    HW1  977   0.637   0.375   1.239
  145SOL    HW2  978   0.697   0.518   1.189
  146SOL     OW  979   0.930   1.678   1.465
  146SOL    HW1  980   0.906   1.660   1.370
  146SOL    HW2  981   0.960   1.772   1.475
  147SOL     OW  982   0.473   0.500   0.191
  147SOL    HW1  983   0.534   0.580   0.195
  147SOL    HW2  984   0.378   0.531   0.198
  148SOL     OW  985   0.159   1.137   1.466
  148SOL    HW1  986   0.181   1.076   1.542
  148SOL    HW2  987   0.169   1.088   1.380
  149SOL     OW  988   1.347   1.059   1.234
  149SOL    HW1  989   1.371   0.996   1.160
  149SOL    HW2  990   1.257   1.099   1.216
  150SOL     OW  991   1.302   0.855   0.309
  150SOL    HW1  992   1.216   0.824   0.351
  150SOL    HW2  993   1.298   0.841   0.210
  151SOL     OW  994   1.759   1.747   1.154
  151SOL    HW1  995   1.820   1.777   1.081
  151SOL    HW2  996   1.721   1.658   1.132
  152SOL     OW  997   1.252   1.731   1.128
  152SOL    HW1  998   1.336   1.736   1.074
  152SOL    HW2  999   1.229   1.635   1.146
  153SOL     OW 1000   0.083   1.258   1.022
  153SOL    HW1 1001   0.078   1.257   1.122
  153SOL    HW2 1002   0.000   1.217   0.984
  154SOL     OW 1003   0.688   1.662   1.716
  154SOL    HW1 1004   0.632   1.743   1.725
  154SOL    HW2 1005   0.740   1.666   1.630
  155SOL     OW 1006   0.903   0.086   0.133
  155SOL    HW1 1007   0.954   0.087   0.047
  155SOL    HW2 1008   0.959   0.044   0.204
  156SOL     OW 1009   1.726   0.135   0.523
  156SOL    HW1 1010   1.799   0.118   0.456
  156SOL    HW2 1011   1.695   0.048   0.561
  157SOL     OW 1012   1.388   1.573   0.477
  157SOL    HW1 1013   1.455   1.585   0.403
  157SOL    HW2 1014   1.348   1.662   0.500
  158SOL     OW 1015   0.130   1.794   1.851
  158SOL    HW1 1016   0.089   1.720   1.904
  158SOL    HW2 1017   0.194   1.845   1.909
  159SOL     OW 1018   1.280   0.927   0.672
  159SOL    HW1 1019   1.340   0.846   0.674
  159SOL    HW2 1020   1.320   0.996   0.612
  160SOL     OW 1021   0.830   1.273   1.422
  160SOL    HW1 1022   0.825   1.306   1.517
  160SOL    HW2 1023   0.744   1.292   1.376
  161SOL     OW 1024   0.672   1.616   0.154
  161SOL    HW1 1025   0.681   1.626   0.055
  161SOL    HW2 1026   0.632   1.527   0.175
  162SOL     OW 1027   1.650   1.720   1.394
  162SOL    HW1 1028   1.703   1.730   1.310
  162SOL    HW2 1029   1.623   1.810   1.428
  163SOL     OW 1030   1.841   0.175   0.963
  163SOL    HW1 1031   1.880   0.090   0.927
  163SOL    HW2 1032   1.743   0.177   0.944
  164SOL     OW 1033   0.263   0.326   0.720
  164SOL    HW1 1034   0.184   0.377   0.686
  164SOL    HW2 1035   0.254   0.311   0.818
  165SOL     OW 1036   1.194   1.612   0.031
  165SOL    HW1 1037   1.200   1.519   0.068
  165SOL    HW2 1038   1.135   1.612  -0.049
  166SOL     OW 1039   0.822   1.002   1.372
  166SOL    HW1 1040   0.862   1.001   1.280
  166SOL    HW2 1041   0.832   1.094   1.412
  167SOL     OW 1042   0.916   0.910   0.291
  167SOL    HW1 1043   0.979   0.948   0.223
  167SOL    HW2 1044   0.956   0.827   0.330
  168SOL     OW 1045   1.504   1.607   0.044
  168SOL    HW1 1046   1.412   1.644   0.051
  168SOL    HW2 1047   1.542   1.627  -0.046
  169SOL     OW 1048   0.372   1.288   1.490
  169SOL    HW1 1049   0.359   1.381   1.456
  169SOL    HW2 1050   0.288   1.236   1.477
  170SOL     OW 1051   1.614   1.292   1.289
  170SOL    HW1 1052   1.674   1.295   1.369
  170SOL    HW2 1053   1.539   1.356   1.302
  171SOL     OW 1054   1.039   1.098   0.696
  171SOL    HW1 1055   0.969   1.051   0.750
  171SOL    HW2 1056   1.098   1.030   0.653
  172SOL     OW 1057   1.014   0.236   0.971
  172SOL    HW1 1058   1.006   0.200   0.878
  172SOL    HW2 1059   1.012   0.160   1.036
  173SOL     OW 1060   0.590   1.487   0.491
  173SOL    HW1 1061   0.632   1.429   0.421
  173SOL    HW2 1062   0.546   1.566   0.447
  174SOL     OW 1063   1.709   0.385   1.381
  174SOL    HW1 1064   1.782   0.454   1.385
  174SOL    HW2 1065   1.737   0.310   1.322
  175SOL     OW 1066   0.255   1.348   0.290
  175SOL    HW1 1067   0.159   1.349   0.263
  175SOL    HW2 1068   0.267   1.401   0.374
  176SOL     OW 1069   0.105   1.013   1.726
  176SOL    HW1 1070   0.028   0.980   1.780
  176SOL    HW2 1071   0.190   0.983   1.768
  177SOL     OW 1072   0.672   0.203   1.489
  177SOL    HW1 1073   0.762   0.187   1.449
  177SOL    HW2 1074   0.680   0.208   1.588
  178SOL     OW 1075   0.075   0.345   0.033
  178SOL    HW1 1076  -0.017   0.317   0.004
  178SOL    HW2 1077   0.106   0.422  -0.023
  179SOL     OW 1078   1.440   0.856   1.398
  179SOL    HW1 1079   1.383   0.908   1.335
  179SOL    HW2 1080   1.536   0.868   1.374
  180SOL     OW 1081   0.072   0.166   0.318
  180SOL    HW1 1082   0.055   0.249   0.264
  180SOL    HW2 1083   0.162   0.129   0.296
  181SOL     OW 1084   1.183   1.335   0.119
  181SOL    HW1 1085   1.084   1.324   0.121
  181SOL    HW2 1086   1.217   1.350   0.212
  182SOL     OW 1087   0.613   0.842   1.431
  182SOL    HW1 1088   0.669   0.923   1.414
  182SOL    HW2 1089   0.672   0.762   1.434
  183SOL     OW 1090   1.493   1.767   0.959
  183SOL    HW1 1091   1.526   1.831   0.890
  183SOL    HW2 1092   1.559   1.761   1.034
  184SOL     OW 1093   0.716   0.565   1.708
  184SOL    HW1 1094   0.735   0.630   1.782
  184SOL    HW2 1095   0.776   0.485   1.717
  185SOL     OW 1096   1.450   1.220   1.633
  185SOL    HW1 1097   1.441   1.210   1.732
  185SOL    HW2 1098   1.546   1.213   1.607
  186SOL     OW 1099   0.390   1.741   1.560
  186SOL    HW1 1100   0.299   1.782   1.558
  186SOL    HW2 1101   0.383   1.647   1.592
  187SOL     OW 1102   1.674   0.883   1.254
  187SOL    HW1 1103   1.647   0.794   1.217
  187SOL    HW2 1104   1.675   0.951   1.181
  188SOL     OW 1105   1.225   0.325   0.449
  188SOL    HW1 1106   1.290   0.251   0.438
  188SOL    HW2 1107   1.245   0.375   0.533
  189SOL     OW 1108   0.594   0.745   0.652
  189SOL    HW1 1109   0.644   0.830   0.633
  189SOL    HW2 1110   0.506   0.747   0.604
  190SOL     OW 1111   1.777   0.342   1.642
  190SOL    HW1 1112   1.760   0.373   1.548
  190SOL    HW2 1113   1.693   0.305   1.680
  191SOL     OW 1114   1.730   0.934   1.517
  191SOL    HW1 1115   1.768   1.025   1.532
  191SOL    HW2 1116   1.722   0.917   1.418
  192SOL     OW 1117   0.859   1.374   0.016
  192SOL    HW1 1118   0.813   1.389   0.104
  192SOL    HW2 1119   0.903   1.459  -0.014
  193SOL     OW 1120   0.661   1.790   0.953
  193SOL    HW1 1121   0.615   1.878   0.940
  193SOL    HW2 1122   0.760   1.802   0.946
  194SOL     OW 1123   0.859   0.956   0.861
  194SOL    HW1 1124   0.913   0.887   0.909
  194SOL    HW2 1125   0.827   1.025   0.927
  195SOL     OW 1126   1.083   0.984   0.087
  195SOL    HW1 1127   1.060   1.037   0.005
  195SOL    HW2 1128   1.164   0.928   0.068
  196SOL     OW 1129   1.861   1.569   0.851
  196SOL    HW1 1130   1.790   1.557   0.781
  196SOL    HW2 1131   1.862   1.490   0.911
  197SOL     OW 1132   0.221   1.314   1.844
  197SOL    HW1 1133   0.156   1.241   1.823
  197SOL    HW2 1134   0.225   1.328   1.942
  198SOL     OW 1135   0.079   1.240   0.653
  198SOL    HW1 1136   0.078   1.193   0.741
  198SOL    HW2 1137   0.161   1.212   0.602
  199SOL     OW 1138   0.672   1.391   1.624
  199SOL    HW1 1139   0.594   1.341   1.662
  199SOL    HW2 1140   0.669   1.486   1.655
  200SOL     OW 1141   1.824   0.192   1.227
  200SOL    HW1 1142   1.820   0.102   1.271
  200SOL    HW2 1143   1.827   0.181   1.128
  201SOL     OW 1144   0.428   0.424   0.520
  201SOL    HW1 1145   0.458   0.352   0.458
  201SOL    HW2 1146   0.389   0.384   0.603
  202SOL     OW 1147   1.705   1.487   1.104
  202SOL    HW1 1148   1.612   1.462   1.077
  202SOL    HW2 1149   1.731   1.437   1.186
  203SOL     OW 1150   0.317   0.547   1.280
  203SOL    HW1 1151   0.355   0.488   1.352
  203SOL    HW2 1152   0.357   0.521   1.192
  204SOL     OW 1153   0.812   1.586   0.687
  204SOL    HW1 1154   0.844   1.596   0.593
  204SOL    HW2 1155   0.733   1.524   0.689
  205SOL     OW 1156   1.424   0.214   1.112
  205SOL    HW1 1157   1.476   0.149   1.167
  205SOL    HW2 1158   1.375   0.277   1.173
  206SOL     OW 1159   1.001   0.034   1.154
  206SOL    HW1 1160   0.938  -0.038   1.123
  206SOL    HW2 1161   1.094  -0.002   1.154
  207SOL     OW 1162   0.770   1.330   0.301
  207SOL    HW1 1163   0.724   1.243   0.318
  207SOL    HW2 1164   0.861   1.327   0.342
  208SOL     OW 1165   0.618   1.567   1.284
  208SOL    HW1 1166   0.613   1.649   1.341
  208SOL    HW2 1167   0.707   1.564   1.239
  209SOL     OW 1168   1.352   0.052   0.168
  209SOL    HW1 1169   1.387   0.011   0.084
  209SOL    HW2 1170   1.262   0.014   0.188
  210SOL     OW 1171   1.300   0.453   0.691
  210SOL    HW1 1172   1.241   0.533   0.695
  210SOL    HW2 1173   1.315   0.418   0.784
  211SOL     OW 1174   1.593   0.221   0.882
  211SOL    HW1 1175   1.509   0.220   0.936
  211SOL    HW2 1176   1.595   0.304   0.826
  212SOL     OW 1177   0.039   1.077   0.300
  212SOL    HW1 1178   0.138   1.066   0.291
  212SOL    HW2 1179  -0.001   0.991   0.332
  213SOL     OW 1180   0.875   1.646   0.337
  213SOL    HW1 1181   0.798   1.611   0.283
  213SOL    HW2 1182   0.843   1.717   0.399
  214SOL     OW 1183   0.230   0.628   1.975
  214SOL    HW1 1184   0.137   0.626   2.012
  214SOL    HW2 1185   0.231   0.589   1.883
  215SOL     OW 1186   0.225   0.275   2.858
  215SOL    HW1 1187   0.260   0.258   2.950
  215SOL    HW2 1188   0.137   0.230   2.846
  216SOL     OW 1189   0.019   0.368   2.509
  216SOL    HW1 1190  -0.063   0.411   2.548
  216SOL    HW2 1191  -0.009   0.295   2.446
  217SOL     OW 1192   0.569   1.275   3.027
  217SOL    HW1 1193   0.476   1.268   2.990
  217SOL    HW2 1194   0.580   1.364   3.071
  218SOL     OW 1195   1.555   1.511   2.565
  218SOL    HW1 1196   1.498   1.495   2.646
  218SOL    HW2 1197   1.496   1.521   2.485
  219SOL     OW 1198   1.135   0.703   2.579
  219SOL    HW1 1199   1.192   0.781   2.554
  219SOL    HW2 1200   1.075   0.729   2.655
  220SOL     OW 1201   1.755   0.607   2.093
  220SOL    HW1 1202   1.743   0.594   1.994
  220SOL    HW2 1203   1.725   0.526   2.142
  221SOL     OW 1204   0.768   1.144   2.885
  221SOL    HW1 1205   0.690   1.161   2.945
  221SOL    HW2 1206   0.802   1.231   2.849
  222SOL     OW 1207   0.850   0.798   3.685
  222SOL    HW1 1208   0.846   0.874   3.750
  222SOL    HW2 1209   0.872   0.834   3.594
  223SOL     OW 1210   0.685   1.012   2.527
  223SOL    HW1 1211   0.754   0.996   2.597
  223SOL    HW2 1212   0.612   1.069   2.565
  224SOL     OW 1213   0.686   1.161   3.665
  224SOL    HW1 1214   0.746   1.240   3.679
  224SOL    HW2 1215   0.600   1.192   3.624
  225SOL     OW 1216   0.335   1.435   2.923
  225SOL    HW1 1217   0.257   1.404   2.870
  225SOL    HW2 1218   0.393   1.493   2.866
  226SOL     OW 1219   1.460   1.505   3.201
  226SOL    HW1 1220   1.484   1.599   3.227
  226SOL    HW2 1221   1.444   1.451   3.283
  227SOL     OW 1222   0.438   0.392   3.361
  227SOL    HW1 1223   0.520   0.336   3.370
  227SOL    HW2 1224   0.357   0.334   3.365
  228SOL     OW 1225   1.603   0.447   2.599
  228SOL    HW1 1226   1.529   0.493   2.549
  228SOL    HW2 1227   1.654   0.515   2.652
  229SOL     OW 1228   0.231   1.713   2.345
  229SOL    HW1 1229   0.265   1.790   2.399
  229SOL    HW2 1230   0.275   1.713   2.255
  230SOL     OW 1231   1.127   1.341   3.552
  230SOL    HW1 1232   1.174   1.341   3.640
  230SOL    HW2 1233   1.079   1.254   3.541
  231SOL     OW 1234   0.230   1.434   2.400
  231SOL    HW1 1235   0.204   1.530   2.400
  231SOL    HW2 1236   0.159   1.380   2.445
  232SOL     OW 1237   0.240   1.091   2.748
  232SOL    HW1 1238   0.254   1.007   2.800
  232SOL    HW2 1239   0.185   1.155   2.803
  233SOL     OW 1240   0.620   1.786   3.301
  233SOL    HW1 1241   0.528   1.769   3.336
  233SOL    HW2 1242   0.648   1.878   3.327
  234SOL     OW 1243   0.606   0.964   1.985
  234SOL    HW1 1244   0.613   1.048   1.931
  234SOL    HW2 1245   0.652   0.977   2.073
  235SOL     OW 1246   1.594   0.114   3.342
  235SOL    HW1 1247   1.576   0.181   3.270
  235SOL    HW2 1248   1.591   0.160   3.431
  236SOL     OW 1249   0.122   0.643   2.425
  236SOL    HW1 1250   0.077   0.555   2.442
  236SOL    HW2 1251   0.121   0.697   2.509
  237SOL     OW 1252   0.027   1.596   1.979
  237SOL    HW1 1253   0.008   1.500   2.000
  237SOL    HW2 1254  -0.006   1.654   2.054
  238SOL     OW 1255   1.689   0.922   2.474
  238SOL    HW1 1256   1.784   0.893   2.482
  238SOL    HW2 1257   1.681   0.987   2.399
  239SOL     OW 1258   1.641   1.108   2.294
  239SOL    HW1 1259   1.727   1.110   2.242
  239SOL    HW2 1260   1.655   1.155   2.382
  240SOL     OW 1261   0.113   0.737   3.459
  240SOL    HW1 1262   0.201   0.724   3.504
  240SOL    HW2 1263   0.100   0.834   3.437
  241SOL     OW 1264   0.613   1.365   2.588
  241SOL    HW1 1265   0.564   1.278   2.597
  241SOL    HW2 1266   0.590   1.408   2.501
  242SOL     OW 1267   1.293   1.228   3.285
  242SOL    HW1 1268   1.330   1.155   3.227
  242SOL    HW2 1269   1.345   1.233   3.370
  243SOL     OW 1270   0.809   0.004   2.364
  243SOL    HW1 1271   0.849   0.095   2.355
  243SOL    HW2 1272   0.709   0.012   2.370
  244SOL     OW 1273   0.197   0.976   3.126
  244SOL    HW1 1274   0.286   0.931   3.112
  244SOL    HW2 1275   0.124   0.911   3.107
  245SOL     OW 1276   1.525   0.999   2.052
  245SOL    HW1 1277   1.462   0.923   2.065
  245SOL    HW2 1278   1.573   1.017   2.138
  246SOL     OW 1279   1.187   1.792   3.478
  246SOL    HW1 1280   1.211   1.852   3.402
  246SOL    HW2 1281   1.194   1.697   3.448
  247SOL     OW 1282   0.317   0.251   3.663
  247SOL    HW1 1283   0.388   0.322   3.669
  247SOL    HW2 1284   0.229   0.290   3.691
  248SOL     OW 1285   1.466   1.417   2.815
  248SOL    HW1 1286   1.407   1.423   2.895
  248SOL    HW2 1287   1.451   1.329   2.769
  249SOL     OW 1288   1.667   1.714   2.434
  249SOL    HW1 1289   1.626   1.691   2.346
  249SOL    HW2 1290   1.649   1.640   2.499
  250SOL     OW 1291   0.598   0.729   2.132
  250SOL    HW1 1292   0.622   0.798   2.064
  250SOL    HW2 1293   0.520   0.762   2.186
  251SOL     OW 1294   1.281   0.345   2.806
  251SOL    HW1 1295   1.195   0.295   2.793
  251SOL    HW2 1296   1.343   0.291   2.862
  252SOL     OW 1297   1.576   1.662   2.169
  252SOL    HW1 1298   1.665   1.708   2.172
  252SOL    HW2 1299   1.555   1.638   2.074
  253SOL     OW 1300   0.807   0.605   3.327
  253SOL    HW1 1301   0.760   0.602   3.416
  253SOL    HW2 1302   0.756   0.550   3.261
  254SOL     OW 1303   1.394   0.469   3.536
  254SOL    HW1 1304   1.374   0.512   3.624
  254SOL    HW2 1305   1.472   0.407   3.545
  255SOL     OW 1306   0.973   0.890   3.434
  255SOL    HW1 1307   1.019   0.806   3.405
  255SOL    HW2 1308   0.917   0.924   3.359
  256SOL     OW 1309   0.991   0.410   3.104
  256SOL    HW1 1310   0.914   0.444   3.158
  256SOL    HW2 1311   0.957   0.359   3.025
  257SOL     OW 1312   1.041   0.701   2.291
  257SOL    HW1 1313   1.067   0.697   2.387
  257SOL    HW2 1314   0.956   0.650   2.277
  258SOL     OW 1315   0.076   0.811   2.651
  258SOL    HW1 1316   0.175   0.799   2.660
  258SOL    HW2 1317   0.052   0.906   2.672
  259SOL     OW 1318   0.130   1.821   3.433
  259SOL    HW1 1319   0.120   1.806   3.532
  259SOL    HW2 1320   0.044   1.857   3.397
  260SOL     OW 1321   0.865   0.348   2.057
  260SOL    HW1 1322   0.924   0.411   2.008
  260SOL    HW2 1323   0.884   0.254   2.028
  261SOL     OW 1324   1.719   0.585   3.693
  261SOL    HW1 1325   1.693   0.674   3.657
  261SOL    HW2 1326   1.717   0.517   3.620
  262SOL     OW 1327   1.362   1.144   2.407
  262SOL    HW1 1328   1.445   1.115   2.359
  262SOL    HW2 1329   1.313   1.211   2.351
  263SOL     OW 1330   0.550   0.196   2.747
  263SOL    HW1 1331   0.545   0.191   2.847
  263SOL    HW2 1332   0.552   0.292   2.718
  264SOL     OW 1333   1.008   1.456   2.339
  264SOL    HW1 1334   0.962   1.528   2.287
  264SOL    HW2 1335   1.004   1.476   2.437
  265SOL     OW 1336   0.351   1.801   2.715
  265SOL    HW1 1337   0.401   1.715   2.721
  265SOL    HW2 1338   0.416   1.878   2.712
  266SOL     OW 1339   1.795   1.066   2.735
  266SOL    HW1 1340   1.733   1.051   2.659
  266SOL    HW2 1341   1.743   1.077   2.820
  267SOL     OW 1342   1.227   1.550   3.368
  267SOL    HW1 1343   1.233   1.473   3.432
  267SOL    HW2 1344   1.175   1.524   3.288
  268SOL     OW 1345   0.321   0.943   2.104
  268SOL    HW1 1346   0.403   0.982   2.062
  268SOL    HW2 1347   0.294   0.861   2.055
  269SOL     OW 1348   1.458   0.735   2.590
  269SOL    HW1 1349   1.453   0.670   2.665
  269SOL    HW2 1350   1.538   0.794   2.603
  270SOL     OW 1351   0.461   1.266   3.589
  270SOL    HW1 1352   0.411   1.267   3.503
  270SOL    HW2 1353   0.398   1.248   3.665
  271SOL     OW 1354   1.111   1.776   2.099
  271SOL    HW1 1355   1.051   1.714   2.149
  271SOL    HW2 1356   1.142   1.732   2.014
  272SOL     OW 1357   0.202   0.285   3.360
  272SOL    HW1 1358   0.122   0.345   3.347
  272SOL    HW2 1359   0.192   0.236   3.446
  273SOL     OW 1360   1.632   1.377   1.943
  273SOL    HW1 1361   1.600   1.471   1.933
  273SOL    HW2 1362   1.556   1.314   1.931
  274SOL     OW 1363   0.464   1.743   2.185
  274SOL    HW1 1364   0.497   1.782   2.271
  274SOL    HW2 1365   0.540   1.736   2.120
  275SOL     OW 1366   1.400   0.107   2.288
  275SOL    HW1 1367   1.376   0.070   2.198
  275SOL    HW2 1368   1.499   0.123   2.292
  276SOL     OW 1369   0.249   1.785   3.103
  276SOL    HW1 1370   0.306   1.720   3.153
  276SOL    HW2 1371   0.233   1.752   3.010
  277SOL     OW 1372   0.940   1.698   2.766
  277SOL    HW1 1373   1.020   1.641   2.787
  277SOL    HW2 1374   0.891   1.658   2.689
  278SOL     OW 1375   0.382   0.700   2.342
  278SOL    HW1 1376   0.427   0.610   2.339
  278SOL    HW2 1377   0.288   0.689   2.375
  279SOL     OW 1378   1.547   0.222   3.591
  279SOL    HW1 1379   1.542   0.259   3.683
  279SOL    HW2 1380   1.475   0.153   3.579
  280SOL     OW 1381   0.614   0.122   1.979
  280SOL    HW1 1382   0.712   0.100   1.986
  280SOL    HW2 1383   0.583   0.105   1.886
  281SOL     OW 1384   0.781   0.264   3.611
  281SOL    HW1 1385   0.848   0.203   3.654
  281SOL    HW2 1386   0.708   0.283   3.676
  282SOL     OW 1387   0.888   1.514   3.057
  282SOL    HW1 1388   0.865   1.489   2.963
  282SOL    HW2 1389   0.949   1.445   3.096
  283SOL     OW 1390   1.351   0.590   3.295
  283SOL    HW1 1391   1.379   0.547   3.380
  283SOL    HW2 1392   1.376   0.686   3.296
  284SOL     OW 1393   0.803   1.402   2.786
  284SOL    HW1 1394   0.893   1.416   2.744
  284SOL    HW2 1395   0.732   1.404   2.715
  285SOL     OW 1396   0.922   0.503   2.761
  285SOL    HW1 1397   0.897   0.494   2.665
  285SOL    HW2 1398   0.970   0.421   2.792
  286SOL     OW 1399   0.539   0.064   2.374
  286SOL    HW1 1400   0.458   0.065   2.432
  286SOL    HW2 1401   0.542   0.147   2.319
  287SOL     OW 1402   1.434   1.188   1.903
  287SOL    HW1 1403   1.466   1.112   1.960
  287SOL    HW2 1404   1.342   1.215   1.933
  288SOL     OW 1405   0.297   0.035   2.033
  288SOL    HW1 1406   0.346   0.119   2.012
  288SOL    HW2 1407   0.359  -0.030   2.078
  289SOL     OW 1408   0.935   0.236   2.342
  289SOL    HW1 1409   0.887   0.277   2.264
  289SOL    HW2 1410   1.034   0.234   2.323
  290SOL     OW 1411   1.076   0.683   3.326
  290SOL    HW1 1412   0.996   0.622   3.329
  290SOL    HW2 1413   1.157   0.630   3.302
  291SOL     OW 1414   1.227   1.570   2.655
  291SOL    HW1 1415   1.248   1.644   2.590
  291SOL    HW2 1416   1.295   1.570   2.728
  292SOL     OW 1417   0.459   1.152   2.603
  292SOL    HW1 1418   0.388   1.125   2.668
  292SOL    HW2 1419   0.433   1.124   2.510
  293SOL     OW 1420   1.271   1.797   2.453
  293SOL    HW1 1421   1.315   1.861   2.389
  293SOL    HW2 1422   1.221   1.849   2.523
  294SOL     OW 1423   1.032   0.549   1.878
  294SOL    HW1 1424   0.991   0.631   1.839
  294SOL    HW2 1425   1.096   0.575   1.951
  295SOL     OW 1426   0.078   0.556   3.248
  295SOL    HW1 1427   0.170   0.555   3.207
  295SOL    HW2 1428   0.072   0.630   3.315
  296SOL     OW 1429   0.561   0.222   3.009
  296SOL    HW1 1430   0.599   0.138   3.046
  296SOL    HW2 1431   0.473   0.241   3.053
  297SOL     OW 1432   0.866   0.454   2.504
  297SOL    HW1 1433   0.834   0.526   2.442
  297SOL    HW2 1434   0.890   0.373   2.451
  298SOL     OW 1435   1.017   0.039   2.615
  298SOL    HW1 1436   0.945   0.044   2.546
  298SOL    HW2 1437   0.993  -0.030   2.684
  299SOL     OW 1438   1.429   1.173   2.729
  299SOL    HW1 1439   1.374   1.089   2.722
  299SOL    HW2 1440   1.455   1.202   2.637
  300SOL     OW 1441   1.466   0.590   2.854
  300SOL    HW1 1442   1.436   0.495   2.861
  300SOL    HW2 1443   1.539   0.606   2.920
  301SOL     OW 1444   1.857   0.833   2.239
  301SOL    HW1 1445   1.899   0.769   2.303
  301SOL    HW2 1446   1.819   0.782   2.161
  302SOL     OW 1447   0.488   1.385   2.036
  302SOL    HW1 1448   0.401   1.370   2.083
  302SOL    HW2 1449   0.471   1.411   1.941
  303SOL     OW 1450   1.664   1.280   2.519
  303SOL    HW1 1451   1.763   1.288   2.533
  303SOL    HW2 1452   1.619   1.364   2.550
  304SOL     OW 1453   1.390   0.575   1.940
  304SOL    HW1 1454   1.336   0.554   2.021
  304SOL    HW2 1455   1.481   0.534   1.949
  305SOL     OW 1456   0.527   0.256   2.190
  305SOL    HW1 1457   0.554   0.197   2.115
  305SOL    HW2 1458   0.527   0.351   2.159
  306SOL     OW 1459   1.754   1.223   3.450
  306SOL    HW1 1460   1.845   1.184   3.437
  306SOL    HW2 1461   1.762   1.319   3.474
  307SOL     OW 1462   1.064   1.347   3.202
  307SOL    HW1 1463   0.984   1.324   3.257
  307SOL    HW2 1464   1.147   1.321   3.251
  308SOL     OW 1465   1.592   1.629   3.487
  308SOL    HW1 1466   1.619   1.663   3.397
  308SOL    HW2 1467   1.671   1.591   3.533
  309SOL     OW 1468   1.111   1.195   2.962
  309SOL    HW1 1469   1.071   1.239   3.043
  309SOL    HW2 1470   1.070   1.232   2.879
  310SOL     OW 1471   1.638   1.099   2.941
  310SOL    HW1 1472   1.643   1.180   3.000
  310SOL    HW2 1473   1.552   1.101   2.890
  311SOL     OW 1474   0.915   0.089   3.264
  311SOL    HW1 1475   0.940   0.069   3.169
  311SOL    HW2 1476   0.987   0.145   3.306
  312SOL     OW 1477   0.980   1.116   3.581
  312SOL    HW1 1478   0.881   1.122   3.591
  312SOL    HW2 1479   1.003   1.036   3.525
  313SOL     OW 1480   0.705   1.050   2.230
  313SOL    HW1 1481   0.691   1.057   2.329
  313SOL    HW2 1482   0.789   0.999   2.212
  314SOL     OW 1483   0.410   0.813   3.113
  314SOL    HW1 1484   0.496   0.825   3.163
  314SOL    HW2 1485   0.368   0.726   3.140
  315SOL     OW 1486   1.274   0.386   3.124
  315SOL    HW1 1487   1.295   0.460   3.188
  315SOL    HW2 1488   1.185   0.403   3.081
  316SOL     OW 1489   0.064   1.564   3.193
  316SOL    HW1 1490   0.018   1.646   3.159
  316SOL    HW2 1491   0.162   1.583   3.202
  317SOL     OW 1492   0.367   1.100   2.363
  317SOL    HW1 1493   0.360   1.183   2.307
  317SOL    HW2 1494   0.371   1.020   2.303
  318SOL     OW 1495   0.566   0.537   2.727
  318SOL    HW1 1496   0.578   0.603   2.653
  318SOL    HW2 1497   0.612   0.571   2.810
  319SOL     OW 1498   1.252   1.348   2.250
  319SOL    HW1 1499   1.302   1.425   2.290
  319SOL    HW2 1500   1.157   1.350   2.282
  320SOL     OW 1501   1.272   1.445   3.004
  320SOL    HW1 1502   1.319   1.458   3.091
  320SOL    HW2 1503   1.206   1.371   3.013
  321SOL     OW 1504   1.582   0.639   2.334
  321SOL    HW1 1505   1.551   0.700   2.407
  321SOL    HW2 1506   1.632   0.691   2.265
  322SOL     OW 1507   0.354   1.510   3.191
  322SOL    HW1 1508   0.333   1.466   3.104
  322SOL    HW2 1509   0.451   1.536   3.194
  323SOL     OW 1510   0.402   0.751   3.460
  323SOL    HW1 1511   0.470   0.806   3.413
  323SOL    HW2 1512   0.442   0.663   3.487
  324SOL     OW 1513   1.587   0.779   3.532
  324SOL    HW1 1514   1.495   0.817   3.527
  324SOL    HW2 1515   1.647   0.826   3.467
  325SOL     OW 1516   1.013   0.105   3.632
  325SOL    HW1 1517   1.019   0.190   3.580
  325SOL    HW2 1518   1.045   0.029   3.575
  326SOL     OW 1519   0.504   0.050   3.602
  326SOL    HW1 1520   0.462  -0.007   3.532
  326SOL    HW2 1521   0.438   0.119   3.634
  327SOL     OW 1522   0.573   0.870   2.891
  327SOL    HW1 1523   0.617   0.959   2.882
  327SOL    HW2 1524   0.510   0.870   2.968
  328SOL     OW 1525   1.360   0.862   2.907
  328SOL    HW1 1526   1.285   0.862   2.841
  328SOL    HW2 1527   1.397   0.770   2.916
  329SOL     OW 1528   1.209   0.525   2.137
  329SOL    HW1 1529   1.222   0.441   2.191
  329SOL    HW2 1530   1.180   0.599   2.197
  330SOL     OW 1531   0.307   0.213   3.093
  330SOL    HW1 1532   0.284   0.250   3.183
  330SOL    HW2 1533   0.277   0.118   3.087
  331SOL     OW 1534   0.037   1.310   3.144
  331SOL    HW1 1535   0.090   1.261   3.212
  331SOL    HW2 1536   0.059   1.408   3.149
  332SOL     OW 1537   0.732   0.634   2.926
  332SOL    HW1 1538   0.791   0.608   2.850
  332SOL    HW2 1539   0.704   0.730   2.915
  333SOL     OW 1540   1.728   0.935   3.716
  333SOL    HW1 1541   1.682   0.928   3.627
  333SOL    HW2 1542   1.666   0.979   3.782
  334SOL     OW 1543   0.307   0.063   2.480
  334SOL    HW1 1544   0.296   0.157   2.513
  334SOL    HW2 1545   0.302   0.000   2.557
  335SOL     OW 1546   1.622   0.367   2.236
  335SOL    HW1 1547   1.624   0.291   2.300
  335SOL    HW2 1548   1.574   0.444   2.276
  336SOL     OW 1549   1.023   0.766   2.828
  336SOL    HW1 1550   1.038   0.787   2.924
  336SOL    HW2 1551   0.993   0.671   2.819
  337SOL     OW 1552   0.980   1.573   3.562
  337SOL    HW1 1553   0.960   1.617   3.474
  337SOL    HW2 1554   1.019   1.482   3.546
  338SOL     OW 1555   1.859   1.518   3.467
  338SOL    HW1 1556   1.873   1.545   3.372
  338SOL    HW2 1557   1.942   1.540   3.520
  339SOL     OW 1558   0.350   0.898   3.666
  339SOL    HW1 1559   0.426   0.942   3.714
  339SOL    HW2 1560   0.385   0.851   3.584
  340SOL     OW 1561   1.540   0.274   1.987
  340SOL    HW1 1562   1.479   0.199   2.010
  340SOL    HW2 1563   1.562   0.326   2.070
  341SOL     OW 1564   1.303   0.838   1.904
  341SOL    HW1 1565   1.337   0.745   1.919
  341SOL    HW2 1566   1.321   0.865   1.809
  342SOL     OW 1567   1.068   1.333   2.711
  342SOL    HW1 1568   1.075   1.249   2.656
  342SOL    HW2 1569   1.130   1.402   2.675
  343SOL     OW 1570   0.319   0.810   2.811
  343SOL    HW1 1571   0.412   0.846   2.816
  343SOL    HW2 1572   0.313   0.725   2.863
  344SOL     OW 1573   0.339   0.509   2.868
  344SOL    HW1 1574   0.287   0.426   2.851
  344SOL    HW2 1575   0.416   0.514   2.804
  345SOL     OW 1576   1.138   0.380   3.540
  345SOL    HW1 1577   1.093   0.443   3.604
  345SOL    HW2 1578   1.231   0.411   3.523
  346SOL     OW 1579   1.160   0.207   3.339
  346SOL    HW1 1580   1.160   0.271   3.416
  346SOL    HW2 1581   1.188   0.255   3.256
  347SOL     OW 1582   0.008   1.326   2.062
  347SOL    HW1 1583  -0.085   1.347   2.031
  347SOL    HW2 1584   0.018   1.227   2.075
  348SOL     OW 1585   0.088   1.801   2.789
  348SOL    HW1 1586   0.046   1.715   2.762
  348SOL    HW2 1587   0.182   1.804   2.755
  349SOL     OW 1588   0.504   1.568   2.772
  349SOL    HW1 1589   0.570   1.642   2.781
  349SOL    HW2 1590   0.548   1.489   2.730
  350SOL     OW 1591   1.002   0.796   3.100
  350SOL    HW1 1592   1.043   0.764   3.186
  350SOL    HW2 1593   0.906   0.769   3.097
  351SOL     OW 1594   0.040   0.544   2.976
  351SOL    HW1 1595   0.125   0.511   2.935
  351SOL    HW2 1596   0.053   0.559   3.074
  352SOL     OW 1597   0.189   0.520   3.584
  352SOL    HW1 1598   0.248   0.480   3.514
  352SOL    HW2 1599   0.131   0.591   3.543
  353SOL     OW 1600   1.369   0.950   3.522
  353SOL    HW1 1601   1.408   1.039   3.542
  353SOL    HW2 1602   1.379   0.930   3.425
  354SOL     OW 1603   0.815   0.572   2.187
  354SOL    HW1 1604   0.822   0.483   2.141
  354SOL    HW2 1605   0.721   0.606   2.179
  355SOL     OW 1606   1.657   0.604   3.068
  355SOL    HW1 1607   1.619   0.535   3.130
  355SOL    HW2 1608   1.739   0.568   3.024
  356SOL     OW 1609   0.252   1.564   3.606
  356SOL    HW1 1610   0.222   1.621   3.682
  356SOL    HW2 1611   0.245   1.467   3.632
  357SOL     OW 1612   0.671   0.464   3.131
  357SOL    HW1 1613   0.637   0.375   3.101
  357SOL    HW2 1614   0.697   0.518   3.051
  358SOL     OW 1615   0.930   1.678   3.327
  358SOL    HW1 1616   0.906   1.660   3.232
  358SOL    HW2 1617   0.960   1.772   3.337
  359SOL     OW 1618   0.473   0.500   2.053
  359SOL    HW1 1619   0.534   0.580   2.057
  359SOL    HW2 1620   0.378   0.531   2.060
  360SOL     OW 1621   0.159   1.137   3.328
  360SOL    HW1 1622   0.181   1.076   3.404
  360SOL    HW2 1623   0.169   1.088   3.242
  361SOL     OW 1624   1.347   1.059   3.096
  361SOL    HW1 1625   1.371   0.996   3.022
  361SOL    HW2 1626   1.257   1.099   3.078
  362SOL     OW 1627   1.302   0.855   2.171
  362SOL    HW1 1628   1.216   0.824   2.213
  362SOL    HW2 1629   1.298   0.841   2.072
  363SOL     OW 1630   1.759   1.747   3.016
  363SOL    HW1 1631   1.820   1.777   2.943
  363SOL    HW2 1632   1.721   1.658   2.994
  364SOL     OW 1633   1.252   1.731   2.990
  364SOL    HW1 1634   1.336   1.736   2.936
  364SOL    HW2 1635   1.229   1.635   3.008
  365SOL     OW 1636   0.083   1.258   2.884
  365SOL    HW1 1637   0.078   1.257   2.984
  365SOL    HW2 1638   0.000   1.217   2.846
  366SOL     OW 1639   0.688   1.662   3.578
  366SOL    HW1 1640   0.632   1.743   3.587
  366SOL    HW2 1641   0.740   1.666   3.492
  367SOL     OW 1642   1.726   0.135   2.385
  367SOL    HW1 1643   1.799   0.118   2.318
  367SOL    HW2 1644   1.695   0.048   2.423
  368SOL     OW 1645   1.388   1.573   2.339
  368SOL    HW1 1646   1.455   1.585   2.265
  368SOL    HW2 1647   1.348   1.662   2.362
  369SOL     OW 1648   0.130   1.794   3.713
  369SOL    HW1 1649   0.089   1.720   3.766
  369SOL    HW2 1650   0.194   1.845   3.771
  370SOL     OW 1651   1.280   0.927   2.534
  370SOL    HW1 1652   1.340   0.846   2.536
  370SOL    HW2 1653   1.320   0.996   2.474
  371SOL     OW 1654   0.830   1.273   3.284
  371SOL    HW1 1655   0.825   1.306   3.379
  371SOL    HW2 1656   0.744   1.292   3.238
  372SOL     OW 1657   0.672   1.616   2.016
  372SOL    HW1 1658   0.681   1.626   1.917
  372SOL    HW2 1659   0.632   1.527   2.037
  373SOL     OW 1660   1.650   1.720   3.256
  373SOL    HW1 1661   1.703   1.730   3.172
  373SOL    HW2 1662   1.623   1.810   3.290
  374SOL     OW 1663   1.841   0.175   2.825
  374SOL    HW1 1664   1.880   0.090   2.789
  374SOL    HW2 1665   1.743   0.177   2.806
  375SOL     OW 1666   0.263   0.326   2.582
  375SOL    HW1 1667   0.184   0.377   2.548
  375SOL    HW2 1668   0.254   0.311   2.680
  376SOL     OW 1669   1.194   1.612   1.893
  376SOL    HW1 1670   1.200   1.519   1.930
  376SOL    HW2 1671   1.135   1.612   1.813
  377SOL     OW 1672   0.822   1.002   3.234
  377SOL    HW1 1673   0.862   1.001   3.142
  377SOL    HW2 1674   0.832   1.094   3.274
  378SOL     OW 1675   0.916   0.910   2.153
  378SOL    HW1 1676   0.979   0.948   2.085
  378SOL    HW2 1677   0.956   0.827   2.192
  379SOL     OW 1678   1.504   1.607   1.906
  379SOL    HW1 1679   1.412   1.644   1.913
  379SOL    HW2 1680   1.542   1.627   1.816
  380SOL     OW 1681   0.372   1.288   3.352
  380SOL    HW1 1682   0.359   1.381   3.318
  380SOL    HW2 1683   0.288   1.236   3.339
  381SOL     OW 1684   1.614   1.292   3.151
  381SOL    HW1 1685   1.674   1.295   3.231
  381SOL    HW2 1686   1.539   1.356   3.164
  382SOL     OW 1687   1.039   1.098   2.558
  382SOL    HW1 1688   0.969   1.051   2.612
  382SOL    HW2 1689   1.098   1.030   2.515
  383SOL     OW 1690   1.014   0.236   2.833
  383SOL    HW1 1691   1.006   0.200   2.740
  383SOL    HW2 1692   1.012   0.160   2.898
  384SOL     OW 1693   0.590   1.487   2.353
  384SOL    HW1 1694   0.632   1.429   2.283
  384SOL    HW2 1695   0.546   1.566   2.309
  385SOL     OW 1696   1.709   0.385   3.243
  385SOL    HW1 1697   1.782   0.454   3.247
  385SOL    HW2 1698   1.737   0.310   3.184
  386SOL     OW 1699   0.255   1.348   2.152
  386SOL    HW1 1700   0.159   1.349   2.125
  386SOL    HW2 1701   0.267   1.401   2.236
  387SOL     OW 1702   0.105   1.013   3.588
  387SOL    HW1 1703   0.028   0.980   3.642
  387SOL    HW2 1704   0.190   0.983   3.630
  388SOL     OW 1705   0.672   0.203   3.351
  388SOL    HW1 1706   0.762   0.187   3.311
  388SOL    HW2 1707   0.680   0.208   3.450
  389SOL     OW 1708   0.075   0.345   1.895
  389SOL    HW1 1709  -0.017   0.317   1.866
  389SOL    HW2 1710   0.106   0.422   1.839
  390SOL     OW 1711   1.440   0.856   3.260
  390SOL    HW1 1712   1.383   0.908   3.197
  390SOL    HW2 1713   1.536   0.868   3.236
  391SOL     OW 1714   0.072   0.166   2.180
  391SOL    HW1 1715   0.055   0.249   2.126
  391SOL    HW2 1716   0.162   0.129   2.158
  392SOL     OW 1717   1.183   1.335   1.981
  392SOL    HW1 1718   1.084   1.324   1.983
  392SOL    HW2 1719   1.217   1.350   2.074
  393SOL     OW 1720   0.613   0.842   3.293
  393SOL    HW1 1721   0.669   0.923   3.276
  393SOL    HW2 1722   0.672   0.762   3.296
  394SOL     OW 1723   1.493   1.767   2.821
  394SOL    HW1 1724   1.526   1.831   2.752
  394SOL    HW2 1725   1.559   1.761   2.896
  395SOL     OW 1726   0.716   0.565   3.570
  395SOL    HW1 1727   0.735   0.630   3.644
  395SOL    HW2 1728   0.776   0.485   3.579
  396SOL     OW 1729   1.450   1.220   3.495
  396SOL    HW1 1730   1.441   1.210   3.594
  396SOL    HW2 1731   1.546   1.213   3.469
  397SOL     OW 1732   0.390   1.741   3.422
  397SOL    HW1 1733   0.299   1.782   3.420
  397SOL    HW2 1734   0.383   1.647   3.454
  398SOL     OW 1735   1.674   0.883   3.116
  398SOL    HW1 1736   1.647   0.794   3.079
  398SOL    HW2 1737   1.675   0.951   3.043
  399SOL     OW 1738   1.225   0.325   2.311
  399SOL    HW1 1739   1.290   0.251   2.300
  399SOL    HW2 1740   1.245   0.375   2.395
  400SOL     OW 1741   0.594   0.745   2.514
  400SOL    HW1 1742   0.644   0.830   2.495
  400SOL    HW2 1743   0.506   0.747   2.466
  401SOL     OW 1744   1.777   0.342   3.504
  401SOL    HW1 1745   1.760   0.373   3.410
  401SOL    HW2 1746   1.693   0.305   3.542
  402SOL     OW 1747   1.730   0.934   3.379
  402SOL    HW1 1748   1.768   1.025   3.394
  402SOL    HW2 1749   1.722   0.917   3.280
  403SOL     OW 1750   0.859   1.374   1.878
  403SOL    HW1 1751   0.813   1.389   1.966
  403SOL    HW2 1752   0.903   1.459   1.848
  404SOL     OW 1753   0.661   1.790   2.815
  404SOL    HW1 1754   0.615   1.878   2.802
  404SOL    HW2 1755   0.760   1.802   2.808
  405SOL     OW 1756   0.859   0.956   2.723
  405SOL    HW1 1757   0.913   0.887   2.771
  405SOL    HW2 1758   0.827   1.025   2.789
  406SOL     OW 1759   1.083   0.984   1.949
  406SOL    HW1 1760   1.060   1.037   1.867
  406SOL    HW2 1761   1.164   0.928   1.930
  407SOL     OW 1762   1.861   1.569   2.713
  407SOL    HW1 1763   1.790   1.557   2.643
  407SOL    HW2 1764   1.862   1.490   2.773
  408SOL     OW 1765   0.221   1.314   3.706
  408SOL    HW1 1766   0.156   1.241   3.685
  408SOL    HW2 1767   0.225   1.328   3.804
  409SOL     OW 1768   0.079   1.240   2.515
  409SOL    HW1 1769   0.078   1.193   2.603
  409SOL    HW2 1770   0.161   1.212   2.464
  410SOL     OW 1771   0.672   1.391   3.486
  410SOL    HW1 1772   0.594   1.341   3.524
  410SOL    HW2 1773   0.669   1.486   3.517
  411SOL     OW 1774   1.824   0.192   3.089
  411SOL    HW1 1775   1.820   0.102   3.133
  411SOL    HW2 1776   1.827   0.181   2.990
  412SOL     OW 1777   0.428   0.424   2.382
  412SOL    HW1 1778   0.458   0.352   2.320
  412SOL    HW2 1779   0.389   0.384   2.465
  413SOL     OW 1780   1.705   1.487   2.966
  413SOL    HW1 1781   1.612   1.462   2.939
  413SOL    HW2 1782   1.731   1.437   3.048
  414SOL     OW 1783   0.317   0.547   3.142
  414SOL    HW1 1784   0.355   0.488   3.214
  414SOL    HW2 1785   0.357   0.521   3.054
  415SOL     OW 1786   0.812   1.586   2.549
  415SOL    HW1 1787   0.844   1.596   2.455
  415SOL    HW2 1788   0.733   1.524   2.551
  416SOL     OW 1789   1.424   0.214   2.974
  416SOL    HW1 1790   1.476   0.149   3.029
  416SOL    HW2 1791   1.375   0.277   3.035
  417SOL     OW 1792   1.001   0.034   3.016
  417SOL    HW1 1793   0.938  -0.038   2.985
  417SOL    HW2 1794   1.094  -0.002   3.016
  418SOL     OW 1795   0.770   1.330   2.163
  418SOL    HW1 1796   0.724   1.243   2.180
  418SOL    HW2 1797   0.861   1.327   2.204
  419SOL     OW 1798   0.618   1.567   3.146
  419SOL    HW1 1799   0.613   1.649   3.203
  419SOL    HW2 1800   0.707   1.564   3.101
  420SOL     OW 1801   1.352   0.052   2.030
  420SOL    HW1 1802   1.387   0.011   1.946
  420SOL    HW2 1803   1.262   0.014   2.050
  421SOL     OW 1804   1.300   0.453   2.553
  421SOL    HW1 1805   1.241   0.533   2.557
  421SOL    HW2 1806   1.315   0.418   2.646
  422SOL     OW 1807   1.593   0.221   2.744
  422SOL    HW1 1808   1.509   0.220   2.798
  422SOL    HW2 1809   1.595   0.304   2.688
  423SOL     OW 1810   0.039   1.077   2.162
  423SOL    HW1 1811   0.138   1.066   2.153
  423SOL    HW2 1812  -0.001   0.991   2.194
  424SOL     OW 1813   0.875   1.646   2.199
  424SOL    HW1 1814   0.798   1.611   2.145
  424SOL    HW2 1815   0.843   1.717   2.261
  425SOL     OW 1816   0.230   0.628   3.837
  425SOL    HW1 1817   0.137   0.626   3.874
  425SOL    HW2 1818   0.231   0.589   3.745
  426SOL     OW 1819   0.225   0.275   4.720
  426SOL    HW1 1820   0.260   0.258   4.812
  426SOL    HW2 1821   0.137   0.230   4.708
  427SOL     OW 1822   0.019   0.368   4.371
  427SOL    HW1 1823  -0.063   0.411   4.410
  427SOL    HW2 1824  -0.009   0.295   4.308
  428SOL     OW 1825   0.569   1.275   4.889
  428SOL    HW1 1826   0.476   1.268   4.852
  428SOL    HW2 1827   0.580   1.364   4.933
  429SOL     OW 1828   1.555   1.511   4.427
  429SOL    HW1 1829   1.498   1.495   4.508
  429SOL    HW2 1830   1.496   1.521   4.347
  430SOL     OW 1831   1.135   0.703   4.441
  430SOL    HW1 1832   1.192   0.781   4.416
  430SOL    HW2 1833   1.075   0.729   4.517
  431SOL     OW 1834   1.755   0.607   3.955
  431SOL    HW1 1835   1.743   0.594   3.856
  431SOL    HW2 1836   1.725   0.526   4.004
  432SOL     OW 1837   0.768   1.144   4.747
  432SOL    HW1 1838   0.690   1.161   4.807
  432SOL    HW2 1839   0.802   1.231   4.711
  433SOL     OW 1840   0.850   0.798   5.547
  433SOL    HW1 1841   0.846   0.874   5.612
  433SOL    HW2 1842   0.872   0.834   5.456
  434SOL     OW 1843   0.685   1.012   4.389
  434SOL    HW1 1844   0.754   0.996   4.459
  434SOL    HW2 1845   0.612   1.069   4.427
  435SOL     OW 1846   0.686   1.161   5.527
  435SOL    HW1 1847   0.746   1.240   5.541
  435SOL    HW2 1848   0.600   1.192   5.486
  436SOL     OW 1849   0.335   1.435   4.785
  436SOL    HW1 1850   0.257   1.404   4.732
  436SOL    HW2 1851   0.393   1.493   4.728
  437SOL     OW 1852   1.460   1.505   5.063
  437SOL    HW1 1853   1.484   1.599   5.089
  437SOL    HW2 1854   1.444   1.451   5.145
  438SOL     OW 1855   0.438   0.392   5.223
  438SOL    HW1 1856   0.520   0.336   5.232
  438SOL    HW2 1857   0.357   0.334   5.227
  439SOL     OW 1858   1.603   0.447   4.461
  439SOL    HW1 1859   1.529   0.493   4.411
  439SOL    HW2 1860   1.654   0.515   4.514
  440SOL     OW 1861   0.231   1.713   4.207
  440SOL    HW1 1862   0.265   1.790   4.261
  440SOL    HW2 1863   0.275   1.713   4.117
  441SOL     OW 1864   1.127   1.341   5.414
  441SOL    HW1 1865   1.174   1.341   5.502
  441SOL    HW2 1866   1.079   1.254   5.403
  442SOL     OW 1867   0.230   1.434   4.262
  442SOL    HW1 1868   0.204   1.530   4.262
  442SOL    HW2 1869   0.159   1.380   4.307
  443SOL     OW 1870   0.240   1.091   4.610
  443SOL    HW1 1871   0.254   1.007   4.662
  443SOL    HW2 1872   0.185   1.155   4.665
  444SOL     OW 1873   0.620   1.786   5.163
  444SOL    HW1 1874   0.528   1.769   5.198
  444SOL    HW2 1875   0.648   1.878   5.189
  445SOL     OW 1876   0.606   0.964   3.847
  445SOL    HW1 1877   0.613   1.048   3.793
  445SOL    HW2 1878   0.652   0.977   3.935
  446SOL     OW 1879   1.594   0.114   5.204
  446SOL    HW1 1880   1.576   0.181   5.132
  446SOL    HW2 1881   1.591   0.160   5.293
  447SOL     OW 1882   0.122   0.643   4.287
  447SOL    HW1 1883   0.077   0.555   4.304
  447SOL    HW2 1884   0.121   0.697   4.371
  448SOL     OW 1885   0.027   1.596   3.841
  448SOL    HW1 1886   0.008   1.500   3.862
  448SOL    HW2 1887  -0.006   1.654   3.916
  449SOL     OW 1888   1.689   0.922   4.336
  449SOL    HW1 1889   1.784   0.893   4.344
  449SOL    HW2 1890   1.681   0.987   4.261
  450SOL     OW 1891   1.641   1.108   4.156
  450SOL    HW1 1892   1.727   1.110   4.104
  450SOL    HW2 1893   1.655   1.155   4.244
  451SOL     OW 1894   0.113   0.737   5.321
  451SOL    HW1 1895   0.201   0.724   5.366
  451SOL    HW2 1896   0.100   0.834   5.299
  452SOL     OW 1897   0.613   1.365   4.450
  452SOL    HW1 1898   0.564   1.278   4.459
  452SOL    HW2 1899   0.590   1.408   4.363
  453SOL     OW 1900   1.293   1.228   5.147
  453SOL    HW1 1901   1.330   1.155   5.089
  453SOL    HW2 1902   1.345   1.233   5.232
  454SOL     OW 1903   0.809   0.004   4.226
  454SOL    HW1 1904   0.849   0.095   4.217
  454SOL    HW2 1905   0.709   0.012   4.232
  455SOL     OW 1906   0.197   0.976   4.988
  455SOL    HW1 1907   0.286   0.931   4.974
  455SOL    HW2 1908   0.124   0.911   4.969
  456SOL     OW 1909   1.525   0.999   3.914
  456SOL    HW1 1910   1.462   0.923   3.927
  456SOL    HW2 1911   1.573   1.017   4.000
  457SOL     OW 1912   1.187   1.792   5.340
  457SOL    HW1 1913   1.211   1.852   5.264
  457SOL    HW2 1914   1.194   1.697   5.310
  458SOL     OW 1915   0.317   0.251   5.525
  458SOL    HW1 1916   0.388   0.322   5.531
  458SOL    HW2 1917   0.229   0.290   5.553
  459SOL     OW 1918   1.466   1.417   4.677
  459SOL    HW1 1919   1.407   1.423   4.757
  459SOL    HW2 1920   1.451   1.329   4.631
  460SOL     OW 1921   1.667   1.714   4.296
  460SOL    HW1 1922   1.626   1.691   4.208
  460SOL    HW2 1923   1.649   1.640   4.361
  461SOL     OW 1924   0.598   0.729   3.994
  461SOL    HW1 1925   0.622   0.798   3.926
  461SOL    HW2 1926   0.520   0.762   4.048
  462SOL     OW 1927   1.281   0.345   4.668
  462SOL    HW1 1928   1.195   0.295   4.655
  462SOL    HW2 1929   1.343   0.291   4.724
  463SOL     OW 1930   1.576   1.662   4.031
  463SOL    HW1 1931   1.665   1.708   4.034
  463SOL    HW2 1932   1.555   1.638   3.936
  464SOL     OW 1933   0.807   0.605   5.189
  464SOL    HW1 1934   0.760   0.602   5.278
  464SOL    HW2 1935   0.756   0.550   5.123
  465SOL     OW 1936   1.394   0.469   5.398
  465SOL    HW1 1937   1.374   0.512   5.486
  465SOL    HW2 1938   1.472   0.407   5.407
  466SOL     OW 1939   0.973   0.890   5.296
  466SOL    HW1 1940   1.019   0.806   5.267
  466SOL    HW2 1941   0.917   0.924   5.221
  467SOL     OW 1942   0.991   0.410   4.966
  467SOL    HW1 1943   0.914   0.444   5.020
  467SOL    HW2 1944   0.957   0.359   4.887
  468SOL     OW 1945   1.041   0.701   4.153
  468SOL    HW1 1946   1.067   0.697   4.249
  468SOL    HW2 1947   0.956   0.650   4.139
  469SOL     OW 1948   0.076   0.811   4.513
  469SOL    HW1 1949   0.175   0.799   4.522
  469SOL    HW2 1950   0.052   0.906   4.534
  470SOL     OW 1951   0.130   1.821   5.295
  470SOL    HW1 1952   0.120   1.806   5.394
  470SOL    HW2 1953   0.044   1.857   5.259
  471SOL     OW 1954   0.865   0.348   3.919
  471SOL    HW1 1955   0.924   0.411   3.870
  471SOL    HW2 1956   0.884   0.254   3.890
  472SOL     OW 1957   1.719   0.585   5.555
  472SOL    HW1 1958   1.693   0.674   5.519
  472SOL    HW2 1959   1.717   0.517   5.482
  473SOL     OW 1960   1.362   1.144   4.269
  473SOL    HW1 1961   1.445   1.115   4.221
  473SOL    HW2 1962   1.313   1.211   4.213
  474SOL     OW 1963   0.550   0.196   4.609
  474SOL    HW1 1964   0.545   0.191   4.709
  474SOL    HW2 1965   0.552   0.292   4.580
  475SOL     OW 1966   1.008   1.456   4.201
  475SOL    HW1 1967   0.962   1.528   4.149
  475SOL    HW2 1968   1.004   1.476   4.299
  476SOL     OW 1969   0.351   1.801   4.577
  476SOL    HW1 1970   0.401   1.715   4.583
  476SOL    HW2 1971   0.416   1.878   4.574
  477SOL     OW 1972   1.795   1.066   4.597
  477SOL    HW1 1973   1.733   1.051   4.521
  477SOL    HW2 1974   1.743   1.077   4.682
  478SOL     OW 1975   1.227   1.550   5.230
  478SOL    HW1 1976   1.233   1.473   5.294
  478SOL    HW2 1977   1.175   1.524   5.150
  479SOL     OW 1978   0.321   0.943   3.966
  479SOL    HW1 1979   0.403   0.982   3.924
  479SOL    HW2 1980   0.294   0.861   3.917
  480SOL     OW 1981   1.458   0.735   4.452
  480SOL    HW1 1982   1.453   0.670   4.527
  480SOL    HW2 1983   1.538   0.794   4.465
  481SOL     OW 1984   0.461   1.266   5.451
  481SOL    HW1 1985   0.411   1.267   5.365
  481SOL    HW2 1986   0.398   1.248   5.527
  482SOL     OW 1987   1.111   1.776   3.961
  482SOL    HW1 1988   1.051   1.714   4.011
  482SOL    HW2 1989   1.142   1.732   3.876
  483SOL     OW 1990   0.202   0.285   5.222
  483SOL    HW1 1991   0.122   0.345   5.209
  483SOL    HW2 1992   0.192   0.236   5.308
  484SOL     OW 1993   1.632   1.377   3.805
  484SOL    HW1 1994   1.600   1.471   3.795
  484SOL    HW2 1995   1.556   1.314   3.793
  485SOL     OW 1996   0.464   1.743   4.047
  485SOL    HW1 1997   0.497   1.782   4.133
  485SOL    HW2 1998   0.540   1.736   3.982
  486SOL     OW 1999   1.400   0.107   4.150
  486SOL    HW1 2000   1.376   0.070   4.060
  486SOL    HW2 2001   1.499   0.123   4.154
  487SOL     OW 2002   0.249   1.785   4.965
  487SOL    HW1 2003   0.306   1.720   5.015
  487SOL    HW2 2004   0.233   1.752   4.872
  488SOL     OW 2005   0.940   1.698   4.628
  488SOL    HW1 2006   1.020   1.641   4.649
  488SOL    HW2 2007   0.891   1.658   4.551
  489SOL     OW 2008   0.382   0.700   4.204
  489SOL    HW1 2009   0.427   0.610   4.201
  489SOL    HW2 2010   0.288   0.689   4.237
  490SOL     OW 2011   1.547   0.222   5.453
  490SOL    HW1 2012   1.542   0.259   5.545
  490SOL    HW2 2013   1.475   0.153   5.441
  491SOL     OW 2014   0.614   0.122   3.841
  491SOL    HW1 2015   0.712   0.100   3.848
  491SOL    HW2 2016   0.583   0.105   3.748
  492SOL     OW 2017   0.781   0.264   5.473
  492SOL    HW1 2018   0.848   0.203   5.516
  492SOL    HW2 2019   0.708   0.283   5.538
  493SOL     OW 2020   0.888   1.514   4.919
  493SOL    HW1 2021   0.865   1.489   4.825
  493SOL    HW2 2022   0.949   1.445   4.958
  494SOL     OW 2023   1.351   0.590   5.157
  494SOL    HW1 2024   1.379   0.547   5.242
  494SOL    HW2 2025   1.376   0.686   5.158
  495SOL     OW 2026   0.803   1.402   4.648
  495SOL    HW1 2027   0.893   1.416   4.606
  495SOL    HW2 2028   0.732   1.404   4.577
  496SOL     OW 2029   0.922   0.503   4.623
  496SOL    HW1 2030   0.897   0.494   4.527
  496SOL    HW2 2031   0.970   0.421   4.654
  497SOL     OW 2032   0.539   0.064   4.236
  497SOL    HW1 2033   0.458   0.065   4.294
  497SOL    HW2 2034   0.542   0.147   4.181
  498SOL     OW 2035   1.434   1.188   3.765
  498SOL    HW1 2036   1.466   1.112   3.822
  498SOL    HW2 2037   1.342   1.215   3.795
  499SOL     OW 2038   0.297   0.035   3.895
  499SOL    HW1 2039   0.346   0.119   3.874
  499SOL    HW2 2040   0.359  -0.030   3.940
  500SOL     OW 2041   0.935   0.236   4.204
  500SOL    HW1 2042   0.887   0.277   4.126
  500SOL    HW2 2043   1.034   0.234   4.185
  501SOL     OW 2044   1.076   0.683   5.188
  501SOL    HW1 2045   0.996   0.622   5.191
  501SOL    HW2 2046   1.157   0.630   5.164
  502SOL     OW 2047   1.227   1.570   4.517
  502SOL    HW1 2048   1.248   1.644   4.452
  502SOL    HW2 2049   1.295   1.570   4.590
  503SOL     OW 2050   0.459   1.152   4.465
  503SOL    HW1 2051   0.388   1.125   4.530
  503SOL    HW2 2052   0.433   1.124   4.372
  504SOL     OW 2053   1.271   1.797   4.315
  504SOL    HW1 2054   1.315   1.861   4.251
  504SOL    HW2 2055   1.221   1.849   4.385
  505SOL     OW 2056   1.032   0.549   3.740
  505SOL    HW1 2057   0.991   0.631   3.701
  505SOL    HW2 2058   1.096   0.575   3.813
  506SOL     OW 2059   0.078   0.556   5.110
  506SOL    HW1 2060   0.170   0.555   5.069
  506SOL    HW2 2061   0.072   0.630   5.177
  507SOL     OW 2062   0.561   0.222   4.871
  507SOL    HW1 2063   0.599   0.138   4.908
  507SOL    HW2 2064   0.473   0.241   4.915
  508SOL     OW 2065   0.866   0.454   4.366
  508SOL    HW1 2066   0.834   0.526   4.304
  508SOL    HW2 2067   0.890   0.373   4.313
  509SOL     OW 2068   1.017   0.039   4.477
  509SOL    HW1 2069   0.945   0.044   4.408
  509SOL    HW2 2070   0.993  -0.030   4.546
  510SOL     OW 2071   1.429   1.173   4.591
  510SOL    HW1 2072   1.374   1.089   4.584
  510SOL    HW2 2073   1.455   1.202   4.499
  511SOL     OW 2074   1.466   0.590   4.716
  511SOL    HW1 2075   1.436   0.495   4.723
  511SOL    HW2 2076   1.539   0.606   4.782
  512SOL     OW 2077   1.857   0.833   4.101
  512SOL    HW1 2078   1.899   0.769   4.165
  512SOL    HW2 2079   1.819   0.782   4.023
  513SOL     OW 2080   0.488   1.385   3.898
  513SOL    HW1 2081   0.401   1.370   3.945
  513SOL    HW2 2082   0.471   1.411   3.803
  514SOL     OW 2083   1.664   1.280   4.381
  514SOL    HW1 2084   1.763   1.288   4.395
  514SOL    HW2 2085   1.619   1.364   4.412
  515SOL     OW 2086   1.390   0.575   3.802
  515SOL    HW1 2087   1.336   0.554   3.883
  515SOL    HW2 2088   1.481   0.534   3.811
  516SOL     OW 2089   0.527   0.256   4.052
  516SOL    HW1 2090   0.554   0.197   3.977
  516SOL    HW2 2091   0.527   0.351   4.021
  517SOL     OW 2092   1.754   1.223   5.312
  517SOL    HW1 2093   1.845   1.184   5.299
  517SOL    HW2 2094   1.762   1.319   5.336
  518SOL     OW 2095   1.064   1.347   5.064
  518SOL    HW1 2096   0.984   1.324   5.119
  518SOL    HW2 2097   1.147   1.321   5.113
  519SOL     OW 2098   1.592   1.629   5.349
  519SOL    HW1 2099   1.619   1.663   5.259
  519SOL    HW2 2100   1.671   1.591   5.395
  520SOL     OW 2101   1.111   1.195   4.824
  520SOL    HW1 2102   1.071   1.239   4.905
  520SOL    HW2 2103   1.070   1.232   4.741
  521SOL     OW 2104   1.638   1.099   4.803
  521SOL    HW1 2105   1.643   1.180   4.862
  521SOL    HW2 2106   1.552   1.101   4.752
  522SOL     OW 2107   0.915   0.089   5.126
  522SOL    HW1 2108   0.940   0.069   5.031
  522SOL    HW2 2109   0.987   0.145   5.168
  523SOL     OW 2110   0.980   1.116   5.443
  523SOL    HW1 2111   0.881   1.122   5.453
  523SOL    HW2 2112   1.003   1.036   5.387
  524SOL     OW 2113   0.705   1.050   4.092
  524SOL    HW1 2114   0.691   1.057   4.191
  524SOL    HW2 2115   0.789   0.999   4.074
  525SOL     OW 2116   0.410   0.813   4.975
  525SOL    HW1 2117   0.496   0.825   5.025
  525SOL    HW2 2118   0.368   0.726   5.002
  526SOL     OW 2119   1.274   0.386   4.986
  526SOL    HW1 2120   1.295   0.460   5.050
  526SOL    HW2 2121   1.185   0.403   4.943
  527SOL     OW 2122   0.064   1.564   5.055
  527SOL    HW1 2123   0.018   1.646   5.021
  527SOL    HW2 2124   0.162   1.583   5.064
  528SOL     OW 2125   0.367   1.100   4.225
  528SOL    HW1 2126   0.360   1.183   4.169
  528SOL    HW2 2127   0.371   1.020   4.165
  529SOL     OW 2128   0.566   0.537   4.589
  529SOL    HW1 2129   0.578   0.603   4.515
  529SOL    HW2 2130   0.612   0.571   4.672
  530SOL     OW 2131   1.252   1.348   4.112
  530SOL    HW1 2132   1.302   1.425   4.152
  530SOL    HW2 2133   1.157   1.350   4.144
  531SOL     OW 2134   1.272   1.445   4.866
  531SOL    HW1 2135   1.319   1.458   4.953
  531SOL    HW2 2136   1.206   1.371   4.875
  532SOL     OW 2137   1.582   0.639   4.196
  532SOL    HW1 2138   1.551   0.700   4.269
  532SOL    HW2 2139   1.632   0.691   4.127
  533SOL     OW 2140   0.354   1.510   5.053
  533SOL    HW1 2141   0.333   1.466   4.966
  533SOL    HW2 2142   0.451   1.536   5.056
  534SOL     OW 2143   0.402   0.751   5.322
  534SOL    HW1 2144   0.470   0.806   5.275
  534SOL    HW2 2145   0.442   0.663   5.349
  535SOL     OW 2146   1.587   0.779   5.394
  535SOL    HW1 2147   1.495   0.817   5.389
  535SOL    HW2 2148   1.647   0.826   5.329
  536SOL     OW 2149   1.013   0.105   5.494
  536SOL    HW1 2150   1.019   0.190   5.442
  536SOL    HW2 2151   1.045   0.029   5.437
  537SOL     OW 2152   0.504   0.050   5.464
  537SOL    HW1 2153   0.462  -0.007   5.394
  537SOL    HW2 2154   0.438   0.119   5.496
  538SOL     OW 2155   0.573   0.870   4.753
  538SOL    HW1 2156   0.617   0.959   4.744
  538SOL    HW2 2157   0.510   0.870   4.830
  539SOL     OW 2158   1.360   0.862   4.769
  539SOL    HW1 2159   1.285   0.862   4.703
  539SOL    HW2 2160   1.397   0.770   4.778
  540SOL     OW 2161   1.209   0.525   3.999
  540SOL    HW1 2162   1.222   0.441   4.053
  540SOL    HW2 2163   1.180   0.599   4.059
  541SOL     OW 2164   0.307   0.213   4.955
  541SOL    HW1 2165   0.284   0.250   5.045
  541SOL    HW2 2166   0.277   0.118   4.949
  542SOL     OW 2167   0.037   1.310   5.006
  542SOL    HW1 2168   0.090   1.261   5.074
  542SOL    HW2 2169   0.059   1.408   5.011
  543SOL     OW 2170   0.732   0.634   4.788
  543SOL    HW1 2171   0.791   0.608   4.712
  543SOL    HW2 2172   0.704   0.730   4.777
  544SOL     OW 2173   1.728   0.935   5.578
  544SOL    HW1 2174   1.682   0.928   5.489
  544SOL    HW2 2175   1.666   0.979   5.644
  545SOL     OW 2176   0.307   0.063   4.342
  545SOL    HW1 2177   0.296   0.157   4.375
  545SOL    HW2 2178   0.302   0.000   4.419
  546SOL     OW 2179   1.622   0.367   4.098
  546SOL    HW1 2180   1.624   0.291   4.162
  546SOL    HW2 2181   1.574   0.444   4.138
  547SOL     OW 2182   1.023   0.766   4.690
  547SOL    HW1 2183   1.038   0.787   4.786
  547SOL    HW2 2184   0.993   0.671   4.681
  548SOL     OW 2185   0.980   1.573   5.424
  548SOL    HW1 2186   0.960   1.617   5.336
  548SOL    HW2 2187   1.019   1.482   5.408
  549SOL     OW 2188   1.859   1.518   5.329
  549SOL    HW1 2189   1.873   1.545   5.234
  549SOL    HW2 2190   1.942   1.540   5.382
  550SOL     OW 2191   0.350   0.898   5.528
  550SOL    HW1 2192   0.426   0.942   5.576
  550SOL    HW2 2193   0.385   0.851   5.446
  551SOL     OW 2194   1.540   0.274   3.849
  551SOL    HW1 2195   1.479   0.199   3.872
  551SOL    HW2 2196   1.562   0.326   3.932
  552SOL     OW 2197   1.303   0.838   3.766
  552SOL    HW1 2198   1.337   0.745   3.781
  552SOL    HW2 2199   1.321   0.865   3.671
  553SOL     OW 2200   1.068   1.333   4.573
  553SOL    HW1 2201   1.075   1.249   4.518
  553SOL    HW2 2202   1.130   1.402   4.537
  554SOL     OW 2203   0.319   0.810   4.673
  554SOL    HW1 2204   0.412   0.846   4.678
  554SOL    HW2 2205   0.313   0.725   4.725
  555SOL     OW 2206   0.339   0.509   4.730
  555SOL    HW1 2207   0.287   0.426   4.713
  555SOL    HW2 2208   0.416   0.514   4.666
  556SOL     OW 2209   1.138   0.380   5.402
  556SOL    HW1 2210   1.093   0.443   5.466
  556SOL    HW2 2211   1.231   0.411   5.385
  557SOL     OW 2212   1.160   0.207   5.201
  557SOL    HW1 2213   1.160   0.271   5.278
  557SOL    HW2 2214   1.188   0.255   5.118
  558SOL     OW 2215   0.008   1.326   3.924
  558SOL    HW1 2216  -0.085   1.347   3.893
  558SOL    HW2 2217   0.018   1.227   3.937
  559SOL     OW 2218   0.088   1.801   4.651
  559SOL    HW1 2219   0.046   1.715   4.624
  559SOL    HW2 2220   0.182   1.804   4.617
  560SOL     OW 2221   0.504   1.568   4.634
  560SOL    HW1 2222   0.570   1.642   4.643
  560SOL    HW2 2223   0.548   1.489   4.592
  561SOL     OW 2224   1.002   0.796   4.962
  561SOL    HW1 2225   1.043   0.764   5.048
  561SOL    HW2 2226   0.906   0.769   4.959
  562SOL     OW 2227   0.040   0.544   4.838
  562SOL    HW1 2228   0.125   0.511   4.797
  562SOL    HW2 2229   0.053   0.559   4.936
  563SOL     OW 2230   0.189   0.520   5.446
  563SOL    HW1 2231   0.248   0.480   5.376
  563SOL    HW2 2232   0.131   0.591   5.405
  564SOL     OW 2233   1.369   0.950   5.384
  564SOL    HW1 2234   1.408   1.039   5.404
  564SOL    HW2 2235   1.379   0.930   5.287
  565SOL     OW 2236   0.815   0.572   4.049
  565SOL    HW1 2237   0.822   0.483   4.003
  565SOL    HW2 2238   0.721   0.606   4.041
  566SOL     OW 2239   1.657   0.604   4.930
  566SOL    HW1 2240   1.619   0.535   4.992
  566SOL    HW2 2241   1.739   0.568   4.886
  567SOL     OW 2242   0.252   1.564   5.468
  567SOL    HW1 2243   0.222   1.621   5.544
  567SOL    HW2 2244   0.245   1.467   5.494
  568SOL     OW 2245   0.671   0.464   4.993
  568SOL    HW1 2246   0.637   0.375   4.963
  568SOL    HW2 2247   0.697   0.518   4.913
  569SOL     OW 2248   0.930   1.678   5.189
  569SOL    HW1 2249   0.906   1.660   5.094
  569SOL    HW2 2250   0.960   1.772   5.199
  570SOL     OW 2251   0.473   0.500   3.915
  570SOL    HW1 2252   0.534   0.580   3.919
  570SOL    HW2 2253   0.378   0.531   3.922
  571SOL     OW 2254   0.159   1.137   5.190
  571SOL    HW1 2255   0.181   1.076   5.266
  571SOL    HW2 2256   0.169   1.088   5.104
  572SOL     OW 2257   1.347   1.059   4.958
  572SOL    HW1 2258   1.371   0.996   4.884
  572SOL    HW2 2259   1.257   1.099   4.940
  573SOL     OW 2260   1.302   0.855   4.033
  573SOL    HW1 2261   1.216   0.824   4.075
  573SOL    HW2 2262   1.298   0.841   3.934
  574SOL     OW 2263   1.759   1.747   4.878
  574SOL    HW1 2264   1.820   1.777   4.805
  574SOL    HW2 2265   1.721   1.658   4.856
  575SOL     OW 2266   1.252   1.731   4.852
  575SOL    HW1 2267   1.336   1.736   4.798
  575SOL    HW2 2268   1.229   1.635   4.870
  576SOL     OW 2269   0.083   1.258   4.746
  576SOL    HW1 2270   0.078   1.257   4.846
  576SOL    HW2 2271   0.000   1.217   4.708
  577SOL     OW 2272   0.688   1.662   5.440
  577SOL    HW1 2273   0.632   1.743   5.449
  577SOL    HW2 2274   0.740   1.666   5.354
  578SOL     OW 2275   1.726   0.135   4.247
  578SOL    HW1 2276   1.799   0.118   4.180
  578SOL    HW2 2277   1.695   0.048   4.285
  579SOL     OW 2278   1.388   1.573   4.201
  579SOL    HW1 2279   1.455   1.585   4.127
  579SOL    HW2 2280   1.348   1.662   4.224
  580SOL     OW 2281   0.130   1.794   5.575
  580SOL    HW1 2282   0.089   1.720   5.628
  580SOL    HW2 2283   0.194   1.845   5.633
  581SOL     OW 2284   1.280   0.927   4.396
  581SOL    HW1 2285   1.340   0.846   4.398
  581SOL    HW2 2286   1.320   0.996   4.336
  582SOL     OW 2287   0.830   1.273   5.146
  582SOL    HW1 2288   0.825   1.306   5.241
  582SOL    HW2 2289   0.744   1.292   5.100
  583SOL     OW 2290   0.672   1.616   3.878
  583SOL    HW1 2291   0.681   1.626   3.779
  583SOL    HW2 2292   0.632   1.527   3.899
  584SOL     OW 2293   1.650   1.720   5.118
  584SOL    HW1 2294   1.703   1.730   5.034
  584SOL    HW2 2295   1.623   1.810   5.152
  585SOL     OW 2296   1.841   0.175   4.687
  585SOL    HW1 2297   1.880   0.090   4.651
  585SOL    HW2 2298   1.743   0.177   4.668
  586SOL     OW 2299   0.263   0.326   4.444
  586SOL    HW1 2300   0.184   0.377   4.410
  586SOL    HW2 2301   0.254   0.311   4.542
  587SOL     OW 2302   1.194   1.612   3.755
  587SOL    HW1 2303   1.200   1.519   3.792
  587SOL    HW2 2304   1.135   1.612   3.675
  588SOL     OW 2305   0.822   1.002   5.096
  588SOL    HW1 2306   0.862   1.001   5.004
  588SOL    HW2 2307   0.832   1.094   5.136
  589SOL     OW 2308   0.916   0.910   4.015
  589SOL    HW1 2309   0.979   0.948   3.947
  589SOL    HW2 2310   0.956   0.827   4.054
  590SOL     OW 2311   1.504   1.607   3.768
  590SOL    HW1 2312   1.412   1.644   3.775
  590SOL    HW2 2313   1.542   1.627   3.678
  591SOL     OW 2314   0.372   1.288   5.214
  591SOL    HW1 2315   0.359   1.381   5.180
  591SOL    HW2 2316   0.288   1.236   5.201
  592SOL     OW 2317   1.614   1.292   5.013
  592SOL    HW1 2318   1.674   1.295   5.093
  592SOL    HW2 2319   1.539   1.356   5.026
  593SOL     OW 2320   1.039   1.098   4.420
  593SOL    HW1 2321   0.969   1.051   4.474
  593SOL    HW2 2322   1.098   1.030   4.377
  594SOL     OW 2323   1.014   0.236   4.695
  594SOL    HW1 2324   1.006   0.200   4.602
  594SOL    HW2 2325   1.012   0.160   4.760
  595SOL     OW 2326   0.590   1.487   4.215
  595SOL    HW1 2327   0.632   1.429   4.145
  595SOL    HW2 2328   0.546   1.566   4.171
  596SOL     OW 2329   1.709   0.385   5.105
  596SOL    HW1 2330   1.782   0.454   5.109
  596SOL    HW2 2331   1.737   0.310   5.046
  597SOL     OW 2332   0.255   1.348   4.014
  597SOL    HW1 2333   0.159   1.349   3.987
  597SOL    HW2 2334   0.267   1.401   4.098
  598SOL     OW 2335   0.105   1.013   5.450
  598SOL    HW1 2336   0.028   0.980   5.504
  598SOL    HW2 2337   0.190   0.983   5.492
  599SOL     OW 2338   0.672   0.203   5.213
  599SOL    HW1 2339   0.762   0.187   5.173
  599SOL    HW2 2340   0.680   0.208   5.312
  600SOL     OW 2341   0.075   0.345   3.757
  600SOL    HW1 2342  -0.017   0.317   3.728
  600SOL    HW2 2343   0.106   0.422   3.701
  601SOL     OW 2344   1.440   0.856   5.122
  601SOL    HW1 2345   1.383   0.908   5.059
  601SOL    HW2 2346   1.536   0.868   5.098
  602SOL     OW 2347   0.072   0.166   4.042
  602SOL    HW1 2348   0.055   0.249   3.988
  602SOL    HW2 2349   0.162   0.129   4.020
  603SOL     OW 2350   1.183   1.335   3.843
  603SOL    HW1 2351   1.084   1.324   3.845
  603SOL    HW2 2352   1.217   1.350   3.936
  604SOL     OW 2353   0.613   0.842   5.155
  604SOL    HW1 2354   0.669   0.923   5.138
  604SOL    HW2 2355   0.672   0.762   5.158
  605SOL     OW 2356   1.493   1.767   4.683
  605SOL    HW1 2357   1.526   1.831   4.614
  605SOL    HW2 2358   1.559   1.761   4.758
  606SOL     OW 2359   0.716   0.565   5.432
  606SOL    HW1 2360   0.735   0.630   5.506
  606SOL    HW2 2361   0.776   0.485   5.441
  607SOL     OW 2362   1.450   1.220   5.357
  607SOL    HW1 2363   1.441   1.210   5.456
  607SOL    HW2 2364   1.546   1.213   5.331
  608SOL     OW 2365   0.390   1.741   5.284
  608SOL    HW1 2366   0.299   1.782   5.282
  608SOL    HW2 2367   0.383   1.647   5.316
  609SOL     OW 2368   1.674   0.883   4.978
  609SOL    HW1 2369   1.647   0.794   4.941
  609SOL    HW2 2370   1.675   0.951   4.905
  610SOL     OW 2371   1.225   0.325   4.173
  610SOL    HW1 2372   1.290   0.251   4.162
  610SOL    HW2 2373   1.245   0.375   4.257
  611SOL     OW 2374   0.594   0.745   4.376
  611SOL    HW1 2375   0.644   0.830   4.357
  611SOL    HW2 2376   0.506   0.747   4.328
  612SOL     OW 2377   1.777   0.342   5.366
  612SOL    HW1 2378   1.760   0.373   5.272
  612SOL    HW2 2379   1.693   0.305   5.404
  613SOL     OW 2380   1.730   0.934   5.241
  613SOL    HW1 2381   1.768   1.025   5.256
  613SOL    HW2 2382   1.722   0.917   5.142
  614SOL     OW 2383   0.859   1.374   3.740
  614SOL    HW1 2384   0.813   1.389   3.828
  614SOL    HW2 2385   0.903   1.459   3.710
  615SOL     OW 2386   0.661   1.790   4.677
  615SOL    HW1 2387   0.615   1.878   4.664
  615SOL    HW2 2388   0.760   1.802   4.670
  616SOL     OW 2389   0.859   0.956   4.585
  616SOL    HW1 2390   0.913   0.887   4.633
  616SOL    HW2 2391   0.827   1.025   4.651
  617SOL     OW 2392   1.083   0.984   3.811
  617SOL    HW1 2393   1.060   1.037   3.729
  617SOL    HW2 2394   1.164   0.928   3.792
  618SOL     OW 2395   1.861   1.569   4.575
  618SOL    HW1 2396   1.790   1.557   4.505
  618SOL    HW2 2397   1.862   1.490   4.635
  619SOL     OW 2398   0.221   1.314   5.568
  619SOL    HW1 2399   0.156   1.241   5.547
  619SOL    HW2 2400   0.225   1.328   5.666
  620SOL     OW 2401   0.079   1.240   4.377
  620SOL    HW1 2402   0.078   1.193   4.465
  620SOL    HW2 2403   0.161   1.212   4.326
  621SOL     OW 2404   0.672   1.391   5.348
  621SOL    HW1 2405   0.594   1.341   5.386
  621SOL    HW2 2406   0.669   1.486   5.379
  622SOL     OW 2407   1.824   0.192   4.951
  622SOL    HW1 2408   1.820   0.102   4.995
  622SOL    HW2 2409   1.827   0.181   4.852
  623SOL     OW 2410   0.428   0.424   4.244
  623SOL    HW1 2411   0.458   0.352   4.182
  623SOL    HW2 2412   0.389   0.384   4.327
  624SOL     OW 2413   1.705   1.487   4.828
  624SOL    HW1 2414   1.612   1.462   4.801
  624SOL    HW2 2415   1.731   1.437   4.910
  625SOL     OW 2416   0.317   0.547   5.004
  625SOL    HW1 2417   0.355   0.488   5.076
  625SOL    HW2 2418   0.357   0.521   4.916
  626SOL     OW 2419   0.812   1.586   4.411
  626SOL    HW1 2420   0.844   1.596   4.317
  626SOL    HW2 2421   0.733   1.524   4.413
  627SOL     OW 2422   1.424   0.214   4.836
  627SOL    HW1 2423   1.476   0.149   4.891
  627SOL    HW2 2424   1.375   0.277   4.897
  628SOL     OW 2425   1.001   0.034   4.878
  628SOL    HW1 2426   0.938  -0.038   4.847
  628SOL    HW2 2427   1.094  -0.002   4.878
  629SOL     OW 2428   0.770   1.330   4.025
  629SOL    HW1 2429   0.724   1.243   4.042
  629SOL    HW2 2430   0.861   1.327   4.066
  630SOL     OW 2431   0.618   1.567   5.008
  630SOL    HW1 2432   0.613   1.649   5.065
  630SOL    HW2 2433   0.707   1.564   4.963
  631SOL     OW 2434   1.352   0.052   3.892
  631SOL    HW1 2435   1.387   0.011   3.808
  631SOL    HW2 2436   1.262   0.014   3.912
  632SOL     OW 2437   1.300   0.453   4.415
  632SOL    HW1 2438   1.241   0.533   4.419
  632SOL    HW2 2439   1.315   0.418   4.508
  633SOL     OW 2440   1.593   0.221   4.606
  633SOL    HW1 2441   1.509   0.220   4.660
  633SOL    HW2 2442   1.595   0.304   4.550
  634SOL     OW 2443   0.039   1.077   4.024
  634SOL    HW1 2444   0.138   1.066   4.015
  634SOL    HW2 2445  -0.001   0.991   4.056
  635SOL     OW 2446   0.875   1.646   4.061
  635SOL    HW1 2447   0.798   1.611   4.007
  635SOL    HW2 2448   0.843   1.717   4.123
  636SOL     OW 2449   0.230   0.628   5.699
  636SOL    HW1 2450   0.137   0.626   5.736
  636SOL    HW2 2451   0.231   0.589   5.607
  637SOL     OW 2452   0.225   0.275   6.582
  637SOL    HW1 2453   0.260   0.258   6.674
  637SOL    HW2 2454   0.137   0.230   6.570
  638SOL     OW 2455   0.019   0.368   6.233
  638SOL    HW1 2456  -0.063   0.411   6.272
  638SOL    HW2 2457  -0.009   0.295   6.170
  639SOL     OW 2458   0.569   1.275   6.751
  639SOL    HW1 2459   0.476   1.268   6.714
  639SOL    HW2 2460   0.580   1.364   6.795
  640SOL     OW 2461   1.135   0.703   6.303
  640SOL    HW1 2462   1.192   0.781   6.278
  640SOL    HW2 2463   1.075   0.729   6.379
  641SOL     OW 2464   1.755   0.607   5.817
  641SOL    HW1 2465   1.743   0.594   5.718
  641SOL    HW2 2466   1.725   0.526   5.866
  642SOL     OW 2467   0.768   1.144   6.609
  642SOL    HW1 2468   0.690   1.161   6.669
  642SOL    HW2 2469   0.802   1.231   6.573
  643SOL     OW 2470   0.850   0.798   7.409
  643SOL    HW1 2471   0.846   0.874   7.474
  643SOL    HW2 2472   0.872   0.834   7.318
  644SOL     OW 2473   0.685   1.012   6.251
  644SOL    HW1 2474   0.754   0.996   6.321
  644SOL    HW2 2475   0.612   1.069   6.289
  645SOL     OW 2476   0.686   1.161   7.389
  645SOL    HW1 2477   0.746   1.240   7.403
  645SOL    HW2 2478   0.600   1.192   7.348
  646SOL     OW 2479   0.335   1.435   6.647
  646SOL    HW1 2480   0.257   1.404   6.594
  646SOL    HW2 2481   0.393   1.493   6.590
  647SOL     OW 2482   0.438   0.392   7.085
  647SOL    HW1 2483   0.520   0.336   7.094
  647SOL    HW2 2484   0.357   0.334   7.089
  648SOL     OW 2485   1.603   0.447   6.323
  648SOL    HW1 2486   1.529   0.493   6.273
  648SOL    HW2 2487   1.654   0.515   6.376
  649SOL     OW 2488   0.231   1.713   6.069
  649SOL    HW1 2489   0.265   1.790   6.123
  649SOL    HW2 2490   0.275   1.713   5.979
  650SOL     OW 2491   1.127   1.341   7.276
  650SOL    HW1 2492   1.174   1.341   7.364
  650SOL    HW2 2493   1.079   1.254   7.265
  651SOL     OW 2494   0.230   1.434   6.124
  651SOL    HW1 2495   0.204   1.530   6.124
  651SOL    HW2 2496   0.159   1.380   6.169
  652SOL     OW 2497   0.240   1.091   6.472
  652SOL    HW1 2498   0.254   1.007   6.524
  652SOL    HW2 2499   0.185   1.155   6.527
  653SOL     OW 2500   0.620   1.786   7.025
  653SOL    HW1 2501   0.528   1.769   7.060
  653SOL    HW2 2502   0.648   1.878   7.051
  654SOL     OW 2503   0.606   0.964   5.709
  654SOL    HW1 2504   0.613   1.048   5.655
  654SOL    HW2 2505   0.652   0.977   5.797
  655SOL     OW 2506   1.594   0.114   7.066
  655SOL    HW1 2507   1.576   0.181   6.994
  655SOL    HW2 2508   1.591   0.160   7.155
  656SOL     OW 2509   0.122   0.643   6.149
  656SOL    HW1 2510   0.077   0.555   6.166
  656SOL    HW2 2511   0.121   0.697   6.233
  657SOL     OW 2512   0.027   1.596   5.703
  657SOL    HW1 2513   0.008   1.500   5.724
  657SOL    HW2 2514  -0.006   1.654   5.778
  658SOL     OW 2515   1.689   0.922   6.198
  658SOL    HW1 2516   1.784   0.893   6.206
  658SOL    HW2 2517   1.681   0.987   6.123
  659SOL     OW 2518   1.641   1.108   6.018
  659SOL    HW1 2519   1.727   1.110   5.966
  659SOL    HW2 2520   1.655   1.155   6.106
  660SOL     OW 2521   0.113   0.737   7.183
  660SOL    HW1 2522   0.201   0.724   7.228
  660SOL    HW2 2523   0.100   0.834   7.161
  661SOL     OW 2524   0.613   1.365   6.312
  661SOL    HW1 2525   0.564   1.278   6.321
  661SOL    HW2 2526   0.590   1.408   6.225
  662SOL     OW 2527   1.293   1.228   7.009
  662SOL    HW1 2528   1.330   1.155   6.951
  662SOL    HW2 2529   1.345   1.233   7.094
  663SOL     OW 2530   0.809   0.004   6.088
  663SOL    HW1 2531   0.849   0.095   6.079
  663SOL    HW2 2532   0.709   0.012   6.094
  664SOL     OW 2533   0.197   0.976   6.850
  664SOL    HW1 2534   0.286   0.931   6.836
  664SOL    HW2 2535   0.124   0.911   6.831
  665SOL     OW 2536   1.525   0.999   5.776
  665SOL    HW1 2537   1.462   0.923   5.789
  665SOL    HW2 2538   1.573   1.017   5.862
  666SOL     OW 2539   0.317   0.251   7.387
  666SOL    HW1 2540   0.388   0.322   7.393
  666SOL    HW2 2541   0.229   0.290   7.415
  667SOL     OW 2542   0.598   0.729   5.856
  667SOL    HW1 2543   0.622   0.798   5.788
  667SOL    HW2 2544   0.520   0.762   5.910
  668SOL     OW 2545   1.281   0.345   6.530
  668SOL    HW1 2546   1.195   0.295   6.517
  668SOL    HW2 2547   1.343   0.291   6.586
  669SOL     OW 2548   1.576   1.662   5.893
  669SOL    HW1 2549   1.665   1.708   5.896
  669SOL    HW2 2550   1.555   1.638   5.798
  670SOL     OW 2551   0.807   0.605   7.051
  670SOL    HW1 2552   0.760   0.602   7.140
  670SOL    HW2 2553   0.756   0.550   6.985
  671SOL     OW 2554   1.394   0.469   7.260
  671SOL    HW1 2555   1.374   0.512   7.348
  671SOL    HW2 2556   1.472   0.407   7.269
  672SOL     OW 2557   0.973   0.890   7.158
  672SOL    HW1 2558   1.019   0.806   7.129
  672SOL    HW2 2559   0.917   0.924   7.083
  673SOL     OW 2560   0.991   0.410   6.828
  673SOL    HW1 2561   0.914   0.444   6.882
  673SOL    HW2 2562   0.957   0.359   6.749
  674SOL     OW 2563   1.041   0.701   6.015
  674SOL    HW1 2564   1.067   0.697   6.111
  674SOL    HW2 2565   0.956   0.650   6.001
  675SOL     OW 2566   0.076   0.811   6.375
  675SOL    HW1 2567   0.175   0.799   6.384
  675SOL    HW2 2568   0.052   0.906   6.396
  676SOL     OW 2569   0.130   1.821   7.157
  676SOL    HW1 2570   0.120   1.806   7.256
  676SOL    HW2 2571   0.044   1.857   7.121
  677SOL     OW 2572   0.865   0.348   5.781
  677SOL    HW1 2573   0.924   0.411   5.732
  677SOL    HW2 2574   0.884   0.254   5.752
  678SOL     OW 2575   1.719   0.585   7.417
  678SOL    HW1 2576   1.693   0.674   7.381
  678SOL    HW2 2577   1.717   0.517   7.344
  679SOL     OW 2578   1.362   1.144   6.131
  679SOL    HW1 2579   1.445   1.115   6.083
  679SOL    HW2 2580   1.313   1.211   6.075
  680SOL     OW 2581   0.550   0.196   6.471
  680SOL    HW1 2582   0.545   0.191   6.571
  680SOL    HW2 2583   0.552   0.292   6.442
  681SOL     OW 2584   1.008   1.456   6.063
  681SOL    HW1 2585   0.962   1.528   6.011
  681SOL    HW2 2586   1.004   1.476   6.161
  682SOL     OW 2587   0.351   1.801   6.439
  682SOL    HW1 2588   0.401   1.715   6.445
  682SOL    HW2 2589   0.416   1.878   6.436
  683SOL     OW 2590   1.795   1.066   6.459
  683SOL    HW1 2591   1.733   1.051   6.383
  683SOL    HW2 2592   1.743   1.077   6.544
  684SOL     OW 2593   1.227   1.550   7.092
  684SOL    HW1 2594   1.233   1.473   7.156
  684SOL    HW2 2595   1.175   1.524   7.012
  685SOL     OW 2596   0.321   0.943   5.828
  685SOL    HW1 2597   0.403   0.982   5.786
  685SOL    HW2 2598   0.294   0.861   5.779
  686SOL     OW 2599   1.458   0.735   6.314
  686SOL    HW1 2600   1.453   0.670   6.389
  686SOL    HW2 2601   1.538   0.794   6.327
  687SOL     OW 2602   0.461   1.266   7.313
  687SOL    HW1 2603   0.411   1.267   7.227
  687SOL    HW2 2604   0.398   1.248   7.389
  688SOL     OW 2605   1.111   1.776   5.823
  688SOL    HW1 2606   1.051   1.714   5.873
  688SOL    HW2 2607   1.142   1.732   5.738
  689SOL     OW 2608   0.202   0.285   7.084
  689SOL    HW1 2609   0.122   0.345   7.071
  689SOL    HW2 2610   0.192   0.236   7.170
  690SOL     OW 2611   1.632   1.377   5.667
  690SOL    HW1 2612   1.600   1.471   5.657
  690SOL    HW2 2613   1.556   1.314   5.655
  691SOL     OW 2614   0.464   1.743   5.909
  691SOL    HW1 2615   0.497   1.782   5.995
  691SOL    HW2 2616   0.540   1.736   5.844
  692SOL     OW 2617   1.400   0.107   6.012
  692SOL    HW1 2618   1.376   0.070   5.922
  692SOL    HW2 2619   1.499   0.123   6.016
  693SOL     OW 2620   0.249   1.785   6.827
  693SOL    HW1 2621   0.306   1.720   6.877
  693SOL    HW2 2622   0.233   1.752   6.734
  694SOL     OW 2623   0.940   1.698   6.490
  694SOL    HW1 2624   1.020   1.641   6.511
  694SOL    HW2 2625   0.891   1.658   6.413
  695SOL     OW 2626   0.382   0.700   6.066
  695SOL    HW1 2627   0.427   0.610   6.063
  695SOL    HW2 2628   0.288   0.689   6.099
  696SOL     OW 2629   1.547   0.222   7.315
  696SOL    HW1 2630   1.542   0.259   7.407
  696SOL    HW2 2631   1.475   0.153   7.303
  697SOL     OW 2632   0.614   0.122   5.703
  697SOL    HW1 2633   0.712   0.100   5.710
  697SOL    HW2 2634   0.583   0.105   5.610
  698SOL     OW 2635   0.781   0.264   7.335
  698SOL    HW1 2636   0.848   0.203   7.378
  698SOL    HW2 2637   0.708   0.283   7.400
  699SOL     OW 2638   0.888   1.514   6.781
  699SOL    HW1 2639   0.865   1.489   6.687
  699SOL    HW2 2640   0.949   1.445   6.820
  700SOL     OW 2641   1.351   0.590   7.019
  700SOL    HW1 2642   1.379   0.547   7.104
  700SOL    HW2 2643   1.376   0.686   7.020
  701SOL     OW 2644   0.803   1.402   6.510
  701SOL    HW1 2645   0.893   1.416   6.468
  701SOL    HW2 2646   0.732   1.404   6.439
  702SOL     OW 2647   0.922   0.503   6.485
  702SOL    HW1 2648   0.897   0.494   6.389
  702SOL    HW2 2649   0.970   0.421   6.516
  703SOL     OW 2650   0.539   0.064   6.098
  703SOL    HW1 2651   0.458   0.065   6.156
  703SOL    HW2 2652   0.542   0.147   6.043
  704SOL     OW 2653   1.434   1.188   5.627
  704SOL    HW1 2654   1.466   1.112   5.684
  704SOL    HW2 2655   1.342   1.215   5.657
  705SOL     OW 2656   0.297   0.035   5.757
  705SOL    HW1 2657   0.346   0.119   5.736
  705SOL    HW2 2658   0.359  -0.030   5.802
  706SOL     OW 2659   0.935   0.236   6.066
  706SOL    HW1 2660   0.887   0.277   5.988
  706SOL    HW2 2661   1.034   0.234   6.047
  707SOL     OW 2662   1.076   0.683   7.050
  707SOL    HW1 2663   0.996   0.622   7.053
  707SOL    HW2 2664   1.157   0.630   7.026
  708SOL     OW 2665   0.459   1.152   6.327
  708SOL    HW1 2666   0.388   1.125   6.392
  708SOL    HW2 2667   0.433   1.124   6.234
  709SOL     OW 2668   1.032   0.549   5.602
  709SOL    HW1 2669   0.991   0.631   5.563
  709SOL    HW2 2670   1.096   0.575   5.675
  710SOL     OW 2671   0.078   0.556   6.972
  710SOL    HW1 2672   0.170   0.555   6.931
  710SOL    HW2 2673   0.072   0.630   7.039
  711SOL     OW 2674   0.561   0.222   6.733
  711SOL    HW1 2675   0.599   0.138   6.770
  711SOL    HW2 2676   0.473   0.241   6.777
  712SOL     OW 2677   0.866   0.454   6.228
  712SOL    HW1 2678   0.834   0.526   6.166
  712SOL    HW2 2679   0.890   0.373   6.175
  713SOL     OW 2680   1.017   0.039   6.339
  713SOL    HW1 2681   0.945   0.044   6.270
  713SOL    HW2 2682   0.993  -0.030   6.408
  714SOL     OW 2683   1.429   1.173   6.453
  714SOL    HW1 2684   1.374   1.089   6.446
  714SOL    HW2 2685   1.455   1.202   6.361
  715SOL     OW 2686   1.466   0.590   6.578
  715SOL    HW1 2687   1.436   0.495   6.585
  715SOL    HW2 2688   1.539   0.606   6.644
  716SOL     OW 2689   1.857   0.833   5.963
  716SOL    HW1 2690   1.899   0.769   6.027
  716SOL    HW2 2691   1.819   0.782   5.885
  717SOL     OW 2692   0.488   1.385   5.760
  717SOL    HW1 2693   0.401   1.370   5.807
  717SOL    HW2 2694   0.471   1.411   5.665
  718SOL     OW 2695   1.390   0.575   5.664
  718SOL    HW1 2696   1.336   0.554   5.745
  718SOL    HW2 2697   1.481   0.534   5.673
  719SOL     OW 2698   0.527   0.256   5.914
  719SOL    HW1 2699   0.554   0.197   5.839
  719SOL    HW2 2700   0.527   0.351   5.883
  720SOL     OW 2701   1.064   1.347   6.926
  720SOL    HW1 2702   0.984   1.324   6.981
  720SOL    HW2 2703   1.147   1.321   6.975
  721SOL     OW 2704   1.111   1.195   6.686
  721SOL    HW1 2705   1.071   1.239   6.767
  721SOL    HW2 2706   1.070   1.232   6.603
  722SOL     OW 2707   1.638   1.099   6.665
  722SOL    HW1 2708   1.643   1.180   6.724
  722SOL    HW2 2709   1.552   1.101   6.614
  723SOL     OW 2710   0.915   0.089   6.988
  723SOL    HW1 2711   0.940   0.069   6.893
  723SOL    HW2 2712   0.987   0.145   7.030
  724SOL     OW 2713   0.980   1.116   7.305
  724SOL    HW1 2714   0.881   1.122   7.315
  724SOL    HW2 2715   1.003   1.036   7.249
  725SOL     OW 2716   0.705   1.050   5.954
  725SOL    HW1 2717   0.691   1.057   6.053
  725SOL    HW2 2718   0.789   0.999   5.936
  726SOL     OW 2719   0.410   0.813   6.837
  726SOL    HW1 2720   0.496   0.825   6.887
  726SOL    HW2 2721   0.368   0.726   6.864
  727SOL     OW 2722   1.274   0.386   6.848
  727SOL    HW1 2723   1.295   0.460   6.912
  727SOL    HW2 2724   1.185   0.403   6.805
  728SOL     OW 2725   0.064   1.564   6.917
  728SOL    HW1 2726   0.018   1.646   6.883
  728SOL    HW2 2727   0.162   1.583   6.926
  729SOL     OW 2728   0.367   1.100   6.087
  729SOL    HW1 2729   0.360   1.183   6.031
  729SOL    HW2 2730   0.371   1.020   6.027
  730SOL     OW 2731   0.566   0.537   6.451
  730SOL    HW1 2732   0.578   0.603   6.377
  730SOL    HW2 2733   0.612   0.571   6.534
  731SOL     OW 2734   1.252   1.348   5.974
  731SOL    HW1 2735   1.302   1.425   6.014
  731SOL    HW2 2736   1.157   1.350   6.006
  732SOL     OW 2737   1.272   1.445   6.728
  732SOL    HW1 2738   1.319   1.458   6.815
  732SOL    HW2 2739   1.206   1.371   6.737
  733SOL     OW 2740   1.582   0.639   6.058
  733SOL    HW1 2741   1.551   0.700   6.131
  733SOL    HW2 2742   1.632   0.691   5.989
  734SOL     OW 2743   0.354   1.510   6.915
  734SOL    HW1 2744   0.333   1.466   6.828
  734SOL    HW2 2745   0.451   1.536   6.918
  735SOL     OW 2746   0.402   0.751   7.184
  735SOL    HW1 2747   0.470   0.806   7.137
  735SOL    HW2 2748   0.442   0.663   7.211
  736SOL     OW 2749   1.587   0.779   7.256
  736SOL    HW1 2750   1.495   0.817   7.251
  736SOL    HW2 2751   1.647   0.826   7.191
  737SOL     OW 2752   1.013   0.105   7.356
  737SOL    HW1 2753   1.019   0.190   7.304
  737SOL    HW2 2754   1.045   0.029   7.299
  738SOL     OW 2755   0.504   0.050   7.326
  738SOL    HW1 2756   0.462  -0.007   7.256
  738SOL    HW2 2757   0.438   0.119   7.358
  739SOL     OW 2758   0.573   0.870   6.615
  739SOL    HW1 2759   0.617   0.959   6.606
  739SOL    HW2 2760   0.510   0.870   6.692
  740SOL     OW 2761   1.360   0.862   6.631
  740SOL    HW1 2762   1.285   0.862   6.565
  740SOL    HW2 2763   1.397   0.770   6.640
  741SOL     OW 2764   1.209   0.525   5.861
  741SOL    HW1 2765   1.222   0.441   5.915
  741SOL    HW2 2766   1.180   0.599   5.921
  742SOL     OW 2767   0.307   0.213   6.817
  742SOL    HW1 2768   0.284   0.250   6.907
  742SOL    HW2 2769   0.277   0.118   6.811
  743SOL     OW 2770   0.037   1.310   6.868
  743SOL    HW1 2771   0.090   1.261   6.936
  743SOL    HW2 2772   0.059   1.408   6.873
  744SOL     OW 2773   0.732   0.634   6.650
  744SOL    HW1 2774   0.791   0.608   6.574
  744SOL    HW2 2775   0.704   0.730   6.639
  745SOL     OW 2776   1.728   0.935   7.440
  745SOL    HW1 2777   1.682   0.928   7.351
  745SOL    HW2 2778   1.666   0.979   7.506
  746SOL     OW 2779   0.307   0.063   6.204
  746SOL    HW1 2780   0.296   0.157   6.237
  746SOL    HW2 2781   0.302   0.000   6.281
  747SOL     OW 2782   1.622   0.367   5.960
  747SOL    HW1 2783   1.624   0.291   6.024
  747SOL    HW2 2784   1.574   0.444   6.000
  748SOL     OW 2785   1.023   0.766   6.552
  748SOL    HW1 2786   1.038   0.787   6.648
  748SOL    HW2 2787   0.993   0.671   6.543
  749SOL     OW 2788   0.980   1.573   7.286
  749SOL    HW1 2789   0.960   1.617   7.198
  749SOL    HW2 2790   1.019   1.482   7.270
  750SOL     OW 2791   0.350   0.898   7.390
  750SOL    HW1 2792   0.426   0.942   7.438
  750SOL    HW2 2793   0.385   0.851   7.308
  751SOL     OW 2794   1.540   0.274   5.711
  751SOL    HW1 2795   1.479   0.199   5.734
  751SOL    HW2 2796   1.562   0.326   5.794
  752SOL     OW 2797   1.303   0.838   5.628
  752SOL    HW1 2798   1.337   0.745   5.643
  752SOL    HW2 2799   1.321   0.865   5.533
  753SOL     OW 2800   1.068   1.333   6.435
  753SOL    HW1 2801   1.075   1.249   6.380
  753SOL    HW2 2802   1.130   1.402   6.399
  754SOL     OW 2803   0.319   0.810   6.535
  754SOL    HW1 2804   0.412   0.846   6.540
  754SOL    HW2 2805   0.313   0.725   6.587
  755SOL     OW 2806   0.339   0.509   6.592
  755SOL    HW1 2807   0.287   0.426   6.575
  755SOL    HW2 2808   0.416   0.514   6.528
  756SOL     OW 2809   1.138   0.380   7.264
  756SOL    HW1 2810   1.093   0.443   7.328
  756SOL    HW2 2811   1.231   0.411   7.247
  757SOL     OW 2812   1.160   0.207   7.063
  757SOL    HW1 2813   1.160   0.271   7.140
  757SOL    HW2 2814   1.188   0.255   6.980
  758SOL     OW 2815   0.008   1.326   5.786
  758SOL    HW1 2816  -0.085   1.347   5.755
  758SOL    HW2 2817   0.018   1.227   5.799
  759SOL     OW 2818   0.088   1.801   6.513
  759SOL    HW1 2819   0.046   1.715   6.486
  759SOL    HW2 2820   0.182   1.804   6.479
  760SOL     OW 2821   0.504   1.568   6.496
  760SOL    HW1 2822   0.570   1.642   6.505
  760SOL    HW2 2823   0.548   1.489   6.454
  761SOL     OW 2824   1.002   0.796   6.824
  761SOL    HW1 2825   1.043   0.764   6.910
  761SOL    HW2 2826   0.906   0.769   6.821
  762SOL     OW 2827   0.040   0.544   6.700
  762SOL    HW1 2828   0.125   0.511   6.659
  762SOL    HW2 2829   0.053   0.559   6.798
  763SOL     OW 2830   0.189   0.520   7.308
  763SOL    HW1 2831   0.248   0.480   7.238
  763SOL    HW2 2832   0.131   0.591   7.267
  764SOL     OW 2833   1.369   0.950   7.246
  764SOL    HW1 2834   1.408   1.039   7.266
  764SOL    HW2 2835   1.379   0.930   7.149
  765SOL     OW 2836   0.815   0.572   5.911
  765SOL    HW1 2837   0.822   0.483   5.865
  765SOL    HW2 2838   0.721   0.606   5.903
  766SOL     OW 2839   1.657   0.604   6.792
  766SOL    HW1 2840   1.619   0.535   6.854
  766SOL    HW2 2841   1.739   0.568   6.748
  767SOL     OW 2842   0.252   1.564   7.330
  767SOL    HW1 2843   0.222   1.621   7.406
  767SOL    HW2 2844   0.245   1.467   7.356
  768SOL     OW 2845   0.671   0.464   6.855
  768SOL    HW1 2846   0.637   0.375   6.825
  768SOL    HW2 2847   0.697   0.518   6.775
  769SOL     OW 2848   0.930   1.678   7.051
  769SOL    HW1 2849   0.906   1.660   6.956
  769SOL    HW2 2850   0.960   1.772   7.061
  770SOL     OW 2851   0.473   0.500   5.777
  770SOL    HW1 2852   0.534   0.580   5.781
  770SOL    HW2 2853   0.378   0.531   5.784
  771SOL     OW 2854   0.159   1.137   7.052
  771SOL    HW1 2855   0.181   1.076   7.128
  771SOL    HW2 2856   0.169   1.088   6.966
  772SOL     OW 2857   1.347   1.059   6.820
  772SOL    HW1 2858   1.371   0.996   6.746
  772SOL    HW2 2859   1.257   1.099   6.802
  773SOL     OW 2860   1.302   0.855   5.895
  773SOL    HW1 2861   1.216   0.824   5.937
  773SOL    HW2 2862   1.298   0.841   5.796
  774SOL     OW 2863   1.252   1.731   6.714
  774SOL    HW1 2864   1.336   1.736   6.660
  774SOL    HW2 2865   1.229   1.635   6.732
  775SOL     OW 2866   0.083   1.258   6.608
  775SOL    HW1 2867   0.078   1.257   6.708
  775SOL    HW2 2868   0.000   1.217   6.570
  776SOL     OW 2869   0.688   1.662   7.302
  776SOL    HW1 2870   0.632   1.743   7.311
  776SOL    HW2 2871   0.740   1.666   7.216
  777SOL     OW 2872   1.726   0.135   6.109
  777SOL    HW1 2873   1.799   0.118   6.042
  777SOL    HW2 2874   1.695   0.048   6.147
  778SOL     OW 2875   0.130   1.794   7.437
  778SOL    HW1 2876   0.089   1.720   7.490
  778SOL    HW2 2877   0.194   1.845   7.495
  779SOL     OW 2878   1.280   0.927   6.258
  779SOL    HW1 2879   1.340   0.846   6.260
  779SOL    HW2 2880   1.320   0.996   6.198
  780SOL     OW 2881   0.830   1.273   7.008
  780SOL    HW1 2882   0.825   1.306   7.103
  780SOL    HW2 2883   0.744   1.292   6.962
  781SOL     OW 2884   0.672   1.616   5.740
  781SOL    HW1 2885   0.681   1.626   5.641
  781SOL    HW2 2886   0.632   1.527   5.761
  782SOL     OW 2887   1.650   1.720   6.980
  782SOL    HW1 2888   1.703   1.730   6.896
  782SOL    HW2 2889   1.623   1.810   7.014
  783SOL     OW 2890   1.841   0.175   6.549
  783SOL    HW1 2891   1.880   0.090   6.513
  783SOL    HW2 2892   1.743   0.177   6.530
  784SOL     OW 2893   0.263   0.326   6.306
  784SOL    HW1 2894   0.184   0.377   6.272
  784SOL    HW2 2895   0.254   0.311   6.404
  785SOL     OW 2896   1.194   1.612   5.617
  785SOL    HW1 2897   1.200   1.519   5.654
  785SOL    HW2 2898   1.135   1.612   5.537
  786SOL     OW 2899   0.822   1.002   6.958
  786SOL    HW1 2900   0.862   1.001   6.866
  786SOL    HW2 2901   0.832   1.094   6.998
  787SOL     OW 2902   0.916   0.910   5.877
  787SOL    HW1 2903   0.979   0.948   5.809
  787SOL    HW2 2904   0.956   0.827   5.916
  788SOL     OW 2905   1.504   1.607   5.630
  788SOL    HW1 2906   1.412   1.644   5.637
  788SOL    HW2 2907   1.542   1.627   5.540
  789SOL     OW 2908   0.372   1.288   7.076
  789SOL    HW1 2909   0.359   1.381   7.042
  789SOL    HW2 2910   0.288   1.236   7.063
  790SOL     OW 2911   1.614   1.292   6.875
  790SOL    HW1 2912   1.674   1.295   6.955
  790SOL    HW2 2913   1.539   1.356   6.888
  791SOL     OW 2914   1.039   1.098   6.282
  791SOL    HW1 2915   0.969   1.051   6.336
  791SOL    HW2 2916   1.098   1.030   6.239
  792SOL     OW 2917   1.014   0.236   6.557
  792SOL    HW1 2918   1.006   0.200   6.464
  792SOL    HW2 2919   1.012   0.160   6.622
  793SOL     OW 2920   0.590   1.487   6.077
  793SOL    HW1 2921   0.632   1.429   6.007
  793SOL    HW2 2922   0.546   1.566   6.033
  794SOL     OW 2923   1.709   0.385   6.967
  794SOL    HW1 2924   1.782   0.454   6.971
  794SOL    HW2 2925   1.737   0.310   6.908
  795SOL     OW 2926   0.255   1.348   5.876
  795SOL    HW1 2927   0.159   1.349   5.849
  795SOL    HW2 2928   0.267   1.401   5.960
  796SOL     OW 2929   0.105   1.013   7.312
  796SOL    HW1 2930   0.028   0.980   7.366
  796SOL    HW2 2931   0.190   0.983   7.354
  797SOL     OW 2932   0.672   0.203   7.075
  797SOL    HW1 2933   0.762   0.187   7.035
  797SOL    HW2 2934   0.680   0.208   7.174
  798SOL     OW 2935   0.075   0.345   5.619
  798SOL    HW1 2936  -0.017   0.317   5.590
  798SOL    HW2 2937   0.106   0.422   5.563
  799SOL     OW 2938   1.440   0.856   6.984
  799SOL    HW1 2939   1.383   0.908   6.921
  799SOL    HW2 2940   1.536   0.868   6.960
  800SOL     OW 2941   0.072   0.166   5.904
  800SOL    HW1 2942   0.055   0.249   5.850
  800SOL    HW2 2943   0.162   0.129   5.882
  801SOL     OW 2944   1.183   1.335   5.705
  801SOL    HW1 2945   1.084   1.324   5.707
  801SOL    HW2 2946   1.217   1.350   5.798
  802SOL     OW 2947   0.613   0.842   7.017
  802SOL    HW1 2948   0.669   0.923   7.000
  802SOL    HW2 2949   0.672   0.762   7.020
  803SOL     OW 2950   0.716   0.565   7.294
  803SOL    HW1 2951   0.735   0.630   7.368
  803SOL    HW2 2952   0.776   0.485   7.303
  804SOL     OW 2953   1.450   1.220   7.219
  804SOL    HW1 2954   1.441   1.210   7.318
  804SOL    HW2 2955   1.546   1.213   7.193
  805SOL     OW 2956   0.390   1.741   7.146
  805SOL    HW1 2957   0.299   1.782   7.144
  805SOL    HW2 2958   0.383   1.647   7.178
  806SOL     OW 2959   1.674   0.883   6.840
  806SOL    HW1 2960   1.647   0.794   6.803
  806SOL    HW2 2961   1.675   0.951   6.767
  807SOL     OW 2962   1.225   0.325   6.035
  807SOL    HW1 2963   1.290   0.251   6.024
  807SOL    HW2 2964   1.245   0.375   6.119
  808SOL     OW 2965   0.594   0.745   6.238
  808SOL    HW1 2966   0.644   0.830   6.219
  808SOL    HW2 2967   0.506   0.747   6.190
  809SOL     OW 2968   1.777   0.342   7.228
  809SOL    HW1 2969   1.760   0.373   7.134
  809SOL    HW2 2970   1.693   0.305   7.266
  810SOL     OW 2971   1.730   0.934   7.103
  810SOL    HW1 2972   1.768   1.025   7.118
  810SOL    HW2 2973   1.722   0.917   7.004
  811SOL     OW 2974   0.859   1.374   5.602
  811SOL    HW1 2975   0.813   1.389   5.690
  811SOL    HW2 2976   0.903   1.459   5.572
  812SOL     OW 2977   0.661   1.790   6.539
  812SOL    HW1 2978   0.615   1.878   6.526
  812SOL    HW2 2979   0.760   1.802   6.532
  813SOL     OW 2980   0.859   0.956   6.447
  813SOL    HW1 2981   0.913   0.887   6.495
  813SOL    HW2 2982   0.827   1.025   6.513
  814SOL     OW 2983   1.083   0.984   5.673
  814SOL    HW1 2984   1.060   1.037   5.591
  814SOL    HW2 2985   1.164   0.928   5.654
  815SOL     OW 2986   0.221   1.314   7.430
  815SOL    HW1 2987   0.156   1.241   7.409
  815SOL    HW2 2988   0.225   1.328   7.528
  816SOL     OW 2989   0.079   1.240   6.239
  816SOL    HW1 2990   0.078   1.193   6.327
  816SOL    HW2 2991   0.161   1.212   6.188
  817SOL     OW 2992   0.672   1.391   7.210
  817SOL    HW1 2993   0.594   1.341   7.248
  817SOL    HW2 2994   0.669   1.486   7.241
  818SOL     OW 2995   1.824   0.192   6.813
  818SOL    HW1 2996   1.820   0.102   6.857
  818SOL    HW2 2997   1.827   0.181   6.714
  819SOL     OW 2998   0.428   0.424   6.106
  819SOL    HW1 2999   0.458   0.352   6.044
  819SOL    HW2 3000   0.389   0.384   6.189
  820SOL     OW 3001   0.317   0.547   6.866
  820SOL    HW1 3002   0.355   0.488   6.938
  820SOL    HW2 3003   0.357   0.521   6.778
  821SOL     OW 3004   0.812   1.586   6.273
  821SOL    HW1 3005   0.844   1.596   6.179
  821SOL    HW2 3006   0.733   1.524   6.275
  822SOL     OW 3007   1.424   0.214   6.698
  822SOL    HW1 3008   1.476   0.149   6.753
  822SOL    HW2 3009   1.375   0.277   6.759
  823SOL     OW 3010   1.001   0.034   6.740
  823SOL    HW1 3011   0.938  -0.038   6.709
  823SOL    HW2 3012   1.094  -0.002   6.740
  824SOL     OW 3013   0.770   1.330   5.887
  824SOL    HW1 3014   0.724   1.243   5.904
  824SOL    HW2 3015   0.861   1.327   5.928
  825SOL     OW 3016   0.618   1.567   6.870
  825SOL    HW1 3017   0.613   1.649   6.927
  825SOL    HW2 3018   0.707   1.564   6.825
  826SOL     OW 3019   1.352   0.052   5.754
  826SOL    HW1 3020   1.387   0.011   5.670
  826SOL    HW2 3021   1.262   0.014   5.774
  827SOL     OW 3022   1.300   0.453   6.277
  827SOL    HW1 3023   1.241   0.533   6.281
  827SOL    HW2 3024   1.315   0.418   6.370
  828SOL     OW 3025   1.593   0.221   6.468
  828SOL    HW1 3026   1.509   0.220   6.522
  828SOL    HW2 3027   1.595   0.304   6.412
  829SOL     OW 3028   0.039   1.077   5.886
  829SOL    HW1 3029   0.138   1.066   5.877
  829SOL    HW2 3030  -0.001   0.991   5.918
  830SOL     OW 3031   0.875   1.646   5.923
  830SOL    HW1 3032   0.798   1.611   5.869
  830SOL    HW2 3033   0.843   1.717   5.985
  831SOL     OW 3034   0.230   0.628   7.561
  831SOL    HW1 3035   0.137   0.626   7.598
  831SOL    HW2 3036   0.231   0.589   7.469
  832SOL     OW 3037   0.225   0.275   8.444
  832SOL    HW1 3038   0.260   0.258   8.536
  832SOL    HW2 3039   0.137   0.230   8.432
  833SOL     OW 3040   0.019   0.368   8.095
  833SOL    HW1 3041  -0.063   0.411   8.134
  833SOL    HW2 3042  -0.009   0.295   8.032
  834SOL     OW 3043   0.569   1.275   8.613
  834SOL    HW1 3044   0.476   1.268   8.576
  834SOL    HW2 3045   0.580   1.364   8.657
  835SOL     OW 3046   1.555   1.511   8.151
  835SOL    HW1 3047   1.498   1.495   8.232
  835SOL    HW2 3048   1.496   1.521   8.071
  836SOL     OW 3049   1.135   0.703   8.165
  836SOL    HW1 3050   1.192   0.781   8.140
  836SOL    HW2 3051   1.075   0.729   8.241
  837SOL     OW 3052   1.755   0.607   7.679
  837SOL    HW1 3053   1.743   0.594   7.580
  837SOL    HW2 3054   1.725   0.526   7.728
  838SOL     OW 3055   0.768   1.144   8.471
  838SOL    HW1 3056   0.690   1.161   8.531
  838SOL    HW2 3057   0.802   1.231   8.435
  839SOL     OW 3058   0.850   0.798   9.271
  839SOL    HW1 3059   0.846   0.874   9.336
  839SOL    HW2 3060   0.872   0.834   9.180
  840SOL     OW 3061   0.685   1.012   8.113
  840SOL    HW1 3062   0.754   0.996   8.183
  840SOL    HW2 3063   0.612   1.069   8.151
  841SOL     OW 3064   0.686   1.161   9.251
  841SOL    HW1 3065   0.746   1.240   9.265
  841SOL    HW2 3066   0.600   1.192   9.210
  842SOL     OW 3067   0.335   1.435   8.509
  842SOL    HW1 3068   0.257   1.404   8.456
  842SOL    HW2 3069   0.393   1.493   8.452
  843SOL     OW 3070   1.460   1.505   8.787
  843SOL    HW1 3071   1.484   1.599   8.813
  843SOL    HW2 3072   1.444   1.451   8.869
  844SOL     OW 3073   0.438   0.392   8.947
  844SOL    HW1 3074   0.520   0.336   8.956
  844SOL    HW2 3075   0.357   0.334   8.951
  845SOL     OW 3076   1.603   0.447   8.185
  845SOL    HW1 3077   1.529   0.493   8.135
  845SOL    HW2 3078   1.654   0.515   8.238
  846SOL     OW 3079   0.231   1.713   7.931
  846SOL    HW1 3080   0.265   1.790   7.985
  846SOL    HW2 3081   0.275   1.713   7.841
  847SOL     OW 3082   1.127   1.341   9.138
  847SOL    HW1 3083   1.174   1.341   9.226
  847SOL    HW2 3084   1.079   1.254   9.127
  848SOL     OW 3085   0.230   1.434   7.986
  848SOL    HW1 3086   0.204   1.530   7.986
  848SOL    HW2 3087   0.159   1.380   8.031
  849SOL     OW 3088   0.240   1.091   8.334
  849SOL    HW1 3089   0.254   1.007   8.386
  849SOL    HW2 3090   0.185   1.155   8.389
  850SOL     OW 3091   0.620   1.786   8.887
  850SOL    HW1 3092   0.528   1.769   8.922
  850SOL    HW2 3093   0.648   1.878   8.913
  851SOL     OW 3094   0.606   0.964   7.571
  851SOL    HW1 3095   0.613   1.048   7.517
  851SOL    HW2 3096   0.652   0.977   7.659
  852SOL     OW 3097   1.594   0.114   8.928
  852SOL    HW1 3098   1.576   0.181   8.856
  852SOL    HW2 3099   1.591   0.160   9.017
  853SOL     OW 3100   0.122   0.643   8.011
  853SOL    HW1 3101   0.077   0.555   8.028
  853SOL    HW2 3102   0.121   0.697   8.095
  854SOL     OW 3103   0.027   1.596   7.565
  854SOL    HW1 3104   0.008   1.500   7.586
  854SOL    HW2 3105  -0.006   1.654   7.640
  855SOL     OW 3106   1.689   0.922   8.060
  855SOL    HW1 3107   1.784   0.893   8.068
  855SOL    HW2 3108   1.681   0.987   7.985
  856SOL     OW 3109   1.641   1.108   7.880
  856SOL    HW1 3110   1.727   1.110   7.828
  856SOL    HW2 3111   1.655   1.155   7.968
  857SOL     OW 3112   0.113   0.737   9.045
  857SOL    HW1 3113   0.201   0.724   9.090
  857SOL    HW2 3114   0.100   0.834   9.023
  858SOL     OW 3115   0.613   1.365   8.174
  858SOL    HW1 3116   0.564   1.278   8.183
  858SOL    HW2 3117   0.590   1.408   8.087
  859SOL     OW 3118   1.293   1.228   8.871
  859SOL    HW1 3119   1.330   1.155   8.813
  859SOL    HW2 3120   1.345   1.233   8.956
  860SOL     OW 3121   0.809   0.004   7.950
  860SOL    HW1 3122   0.849   0.095   7.941
  860SOL    HW2 3123   0.709   0.012   7.956
  861SOL     OW 3124   0.197   0.976   8.712
  861SOL    HW1 3125   0.286   0.931   8.698
  861SOL    HW2 3126   0.124   0.911   8.693
  862SOL     OW 3127   1.525   0.999   7.638
  862SOL    HW1 3128   1.462   0.923   7.651
  862SOL    HW2 3129   1.573   1.017   7.724
  863SOL     OW 3130   1.187   1.792   9.064
  863SOL    HW1 3131   1.211   1.852   8.988
  863SOL    HW2 3132   1.194   1.697   9.034
  864SOL     OW 3133   0.317   0.251   9.249
  864SOL    HW1 3134   0.388   0.322   9.255
  864SOL    HW2 3135   0.229   0.290   9.277
  865SOL     OW 3136   1.466   1.417   8.401
  865SOL    HW1 3137   1.407   1.423   8.481
  865SOL    HW2 3138   1.451   1.329   8.355
  866SOL     OW 3139   1.667   1.714   8.020
  866SOL    HW1 3140   1.626   1.691   7.932
  866SOL    HW2 3141   1.649   1.640   8.085
  867SOL     OW 3142   0.598   0.729   7.718
  867SOL    HW1 3143   0.622   0.798   7.650
  867SOL    HW2 3144   0.520   0.762   7.772
  868SOL     OW 3145   1.281   0.345   8.392
  868SOL    HW1 3146   1.195   0.295   8.379
  868SOL    HW2 3147   1.343   0.291   8.448
  869SOL     OW 3148   0.807   0.605   8.913
  869SOL    HW1 3149   0.760   0.602   9.002
  869SOL    HW2 3150   0.756   0.550   8.847
  870SOL     OW 3151   1.394   0.469   9.122
  870SOL    HW1 3152   1.374   0.512   9.210
  870SOL    HW2 3153   1.472   0.407   9.131
  871SOL     OW 3154   0.973   0.890   9.020
  871SOL    HW1 3155   1.019   0.806   8.991
  871SOL    HW2 3156   0.917   0.924   8.945
  872SOL     OW 3157   0.991   0.410   8.690
  872SOL    HW1 3158   0.914   0.444   8.744
  872SOL    HW2 3159   0.957   0.359   8.611
  873SOL     OW 3160   1.041   0.701   7.877
  873SOL    HW1 3161   1.067   0.697   7.973
  873SOL    HW2 3162   0.956   0.650   7.863
  874SOL     OW 3163   0.076   0.811   8.237
  874SOL    HW1 3164   0.175   0.799   8.246
  874SOL    HW2 3165   0.052   0.906   8.258
  875SOL     OW 3166   0.130   1.821   9.019
  875SOL    HW1 3167   0.120   1.806   9.118
  875SOL    HW2 3168   0.044   1.857   8.983
  876SOL     OW 3169   0.865   0.348   7.643
  876SOL    HW1 3170   0.924   0.411   7.594
  876SOL    HW2 3171   0.884   0.254   7.614
  877SOL     OW 3172   1.719   0.585   9.279
  877SOL    HW1 3173   1.693   0.674   9.243
  877SOL    HW2 3174   1.717   0.517   9.206
  878SOL     OW 3175   1.362   1.144   7.993
  878SOL    HW1 3176   1.445   1.115   7.945
  878SOL    HW2 3177   1.313   1.211   7.937
  879SOL     OW 3178   0.550   0.196   8.333
  879SOL    HW1 3179   0.545   0.191   8.433
  879SOL    HW2 3180   0.552   0.292   8.304
  880SOL     OW 3181   1.008   1.456   7.925
  880SOL    HW1 3182   0.962   1.528   7.873
  880SOL    HW2 3183   1.004   1.476   8.023
  881SOL     OW 3184   0.351   1.801   8.301
  881SOL    HW1 3185   0.401   1.715   8.307
  881SOL    HW2 3186   0.416   1.878   8.298
  882SOL     OW 3187   1.795   1.066   8.321
  882SOL    HW1 3188   1.733   1.051   8.245
  882SOL    HW2 3189   1.743   1.077   8.406
  883SOL     OW 3190   1.227   1.550   8.954
  883SOL    HW1 3191   1.233   1.473   9.018
  883SOL    HW2 3192   1.175   1.524   8.874
  884SOL     OW 3193   0.321   0.943   7.690
  884SOL    HW1 3194   0.403   0.982   7.648
  884SOL    HW2 3195   0.294   0.861   7.641
  885SOL     OW 3196   1.458   0.735   8.176
  885SOL    HW1 3197   1.453   0.670   8.251
  885SOL    HW2 3198   1.538   0.794   8.189
  886SOL     OW 3199   0.461   1.266   9.175
  886SOL    HW1 3200   0.411   1.267   9.089
  886SOL    HW2 3201   0.398   1.248   9.251
  887SOL     OW 3202   1.111   1.776   7.685
  887SOL    HW1 3203   1.051   1.714   7.735
  887SOL    HW2 3204   1.142   1.732   7.600
  888SOL     OW 3205   0.202   0.285   8.946
  888SOL    HW1 3206   0.122   0.345   8.933
  888SOL    HW2 3207   0.192   0.236   9.032
  889SOL     OW 3208   0.464   1.743   7.771
  889SOL    HW1 3209   0.497   1.782   7.857
  889SOL    HW2 3210   0.540   1.736   7.706
  890SOL     OW 3211   1.400   0.107   7.874
  890SOL    HW1 3212   1.376   0.070   7.784
  890SOL    HW2 3213   1.499   0.123   7.878
  891SOL     OW 3214   0.249   1.785   8.689
  891SOL    HW1 3215   0.306   1.720   8.739
  891SOL    HW2 3216   0.233   1.752   8.596
  892SOL     OW 3217   0.940   1.698   8.352
  892SOL    HW1 3218   1.020   1.641   8.373
  892SOL    HW2 3219   0.891   1.658   8.275
  893SOL     OW 3220   0.382   0.700   7.928
  893SOL    HW1 3221   0.427   0.610   7.925
  893SOL    HW2 3222   0.288   0.689   7.961
  894SOL     OW 3223   1.547   0.222   9.177
  894SOL    HW1 3224   1.542   0.259   9.269
  894SOL    HW2 3225   1.475   0.153   9.165
  895SOL     OW 3226   0.614   0.122   7.565
  895SOL    HW1 3227   0.712   0.100   7.572
  895SOL    HW2 3228   0.583   0.105   7.472
  896SOL     OW 3229   0.781   0.264   9.197
  896SOL    HW1 3230   0.848   0.203   9.240
  896SOL    HW2 3231   0.708   0.283   9.262
  897SOL     OW 3232   0.888   1.514   8.643
  897SOL    HW1 3233   0.865   1.489   8.549
  897SOL    HW2 3234   0.949   1.445   8.682
  898SOL     OW 3235   1.351   0.590   8.881
  898SOL    HW1 3236   1.379   0.547   8.966
  898SOL    HW2 3237   1.376   0.686   8.882
  899SOL     OW 3238   0.803   1.402   8.372
  899SOL    HW1 3239   0.893   1.416   8.330
  899SOL    HW2 3240   0.732   1.404   8.301
  900SOL     OW 3241   0.922   0.503   8.347
  900SOL    HW1 3242   0.897   0.494   8.251
  900SOL    HW2 3243   0.970   0.421   8.378
  901SOL     OW 3244   0.539   0.064   7.960
  901SOL    HW1 3245   0.458   0.065   8.018
  901SOL    HW2 3246   0.542   0.147   7.905
  902SOL     OW 3247   1.434   1.188   7.489
  902SOL    HW1 3248   1.466   1.112   7.546
  902SOL    HW2 3249   1.342   1.215   7.519
  903SOL     OW 3250   0.297   0.035   7.619
  903SOL    HW1 3251   0.346   0.119   7.598
  903SOL    HW2 3252   0.359  -0.030   7.664
  904SOL     OW 3253   0.935   0.236   7.928
  904SOL    HW1 3254   0.887   0.277   7.850
  904SOL    HW2 3255   1.034   0.234   7.909
  905SOL     OW 3256   1.076   0.683   8.912
  905SOL    HW1 3257   0.996   0.622   8.915
  905SOL    HW2 3258   1.157   0.630   8.888
  906SOL     OW 3259   1.227   1.570   8.241
  906SOL    HW1 3260   1.248   1.644   8.176
  906SOL    HW2 3261   1.295   1.570   8.314
  907SOL     OW 3262   0.459   1.152   8.189
  907SOL    HW1 3263   0.388   1.125   8.254
  907SOL    HW2 3264   0.433   1.124   8.096
  908SOL     OW 3265   1.271   1.797   8.039
  908SOL    HW1 3266   1.315   1.861   7.975
  908SOL    HW2 3267   1.221   1.849   8.109
  909SOL     OW 3268   1.032   0.549   7.464
  909SOL    HW1 3269   0.991   0.631   7.425
  909SOL    HW2 3270   1.096   0.575   7.537
  910SOL     OW 3271   0.078   0.556   8.834
  910SOL    HW1 3272   0.170   0.555   8.793
  910SOL    HW2 3273   0.072   0.630   8.901
  911SOL     OW 3274   0.561   0.222   8.595
  911SOL    HW1 3275   0.599   0.138   8.632
  911SOL    HW2 3276   0.473   0.241   8.639
  912SOL     OW 3277   0.866   0.454   8.090
  912SOL    HW1 3278   0.834   0.526   8.028
  912SOL    HW2 3279   0.890   0.373   8.037
  913SOL     OW 3280   1.017   0.039   8.201
  913SOL    HW1 3281   0.945   0.044   8.132
  913SOL    HW2 3282   0.993  -0.030   8.270
  914SOL     OW 3283   1.429   1.173   8.315
  914SOL    HW1 3284   1.374   1.089   8.308
  914SOL    HW2 3285   1.455   1.202   8.223
  915SOL     OW 3286   1.466   0.590   8.440
  915SOL    HW1 3287   1.436   0.495   8.447
  915SOL    HW2 3288   1.539   0.606   8.506
  916SOL     OW 3289   1.857   0.833   7.825
  916SOL    HW1 3290   1.899   0.769   7.889
  916SOL    HW2 3291   1.819   0.782   7.747
  917SOL     OW 3292   0.488   1.385   7.622
  917SOL    HW1 3293   0.401   1.370   7.669
  917SOL    HW2 3294   0.471   1.411   7.527
  918SOL     OW 3295   1.664   1.280   8.105
  918SOL    HW1 3296   1.763   1.288   8.119
  918SOL    HW2 3297   1.619   1.364   8.136
  919SOL     OW 3298   1.390   0.575   7.526
  919SOL    HW1 3299   1.336   0.554   7.607
  919SOL    HW2 3300   1.481   0.534   7.535
  920SOL     OW 3301   0.527   0.256   7.776
  920SOL    HW1 3302   0.554   0.197   7.701
  920SOL    HW2 3303   0.527   0.351   7.745
  921SOL     OW 3304   1.754   1.223   9.036
  921SOL    HW1 3305   1.845   1.184   9.023
  921SOL    HW2 3306   1.762   1.319   9.060
  922SOL     OW 3307   1.064   1.347   8.788
  922SOL    HW1 3308   0.984   1.324   8.843
  922SOL    HW2 3309   1.147   1.321   8.837
  923SOL     OW 3310   1.592   1.629   9.073
  923SOL    HW1 3311   1.619   1.663   8.983
  923SOL    HW2 3312   1.671   1.591   9.119
  924SOL     OW 3313   1.111   1.195   8.548
  924SOL    HW1 3314   1.071   1.239   8.629
  924SOL    HW2 3315   1.070   1.232   8.465
  925SOL     OW 3316   1.638   1.099   8.527
  925SOL    HW1 3317   1.643   1.180   8.586
  925SOL    HW2 3318   1.552   1.101   8.476
  926SOL     OW 3319   0.915   0.089   8.850
  926SOL    HW1 3320   0.940   0.069   8.755
  926SOL    HW2 3321   0.987   0.145   8.892
  927SOL     OW 3322   0.980   1.116   9.167
  927SOL    HW1 3323   0.881   1.122   9.177
  927SOL    HW2 3324   1.003   1.036   9.111
  928SOL     OW 3325   0.705   1.050   7.816
  928SOL    HW1 3326   0.691   1.057   7.915
  928SOL    HW2 3327   0.789   0.999   7.798
  929SOL     OW 3328   0.410   0.813   8.699
  929SOL    HW1 3329   0.496   0.825   8.749
  929SOL    HW2 3330   0.368   0.726   8.726
  930SOL     OW 3331   1.274   0.386   8.710
  930SOL    HW1 3332   1.295   0.460   8.774
  930SOL    HW2 3333   1.185   0.403   8.667
  931SOL     OW 3334   0.064   1.564   8.779
  931SOL    HW1 3335   0.018   1.646   8.745
  931SOL    HW2 3336   0.162   1.583   8.788
  932SOL     OW 3337   0.367   1.100   7.949
  932SOL    HW1 3338   0.360   1.183   7.893
  932SOL    HW2 3339   0.371   1.020   7.889
  933SOL     OW 3340   0.566   0.537   8.313
  933SOL    HW1 3341   0.578   0.603   8.239
  933SOL    HW2 3342   0.612   0.571   8.396
  934SOL     OW 3343   1.252   1.348   7.836
  934SOL    HW1 3344   1.302   1.425   7.876
  934SOL    HW2 3345   1.157   1.350   7.868
  935SOL     OW 3346   1.272   1.445   8.590
  935SOL    HW1 3347   1.319   1.458   8.677
  935SOL    HW2 3348   1.206   1.371   8.599
  936SOL     OW 3349   1.582   0.639   7.920
  936SOL    HW1 3350   1.551   0.700   7.993
  936SOL    HW2 3351   1.632   0.691   7.851
  937SOL     OW 3352   0.354   1.510   8.777
  937SOL    HW1 3353   0.333   1.466   8.690
  937SOL    HW2 3354   0.451   1.536   8.780
  938SOL     OW 3355   0.402   0.751   9.046
  938SOL    HW1 3356   0.470   0.806   8.999
  938SOL    HW2 3357   0.442   0.663   9.073
  939SOL     OW 3358   1.587   0.779   9.118
  939SOL    HW1 3359   1.495   0.817   9.113
  939SOL    HW2 3360   1.647   0.826   9.053
  940SOL     OW 3361   1.013   0.105   9.218
  940SOL    HW1 3362   1.019   0.190   9.166
  940SOL    HW2 3363   1.045   0.029   9.161
  941SOL     OW 3364   0.504   0.050   9.188
  941SOL    HW1 3365   0.462  -0.007   9.118
  941SOL    HW2 3366   0.438   0.119   9.220
  942SOL     OW 3367   0.573   0.870   8.477
  942SOL    HW1 3368   0.617   0.959   8.468
  942SOL    HW2 3369   0.510   0.870   8.554
  943SOL     OW 3370   1.360   0.862   8.493
  943SOL    HW1 3371   1.285   0.862   8.427
  943SOL    HW2 3372   1.397   0.770   8.502
  944SOL     OW 3373   1.209   0.525   7.723
  944SOL    HW1 3374   1.222   0.441   7.777
  944SOL    HW2 3375   1.180   0.599   7.783
  945SOL     OW 3376   0.307   0.213   8.679
  945SOL    HW1 3377   0.284   0.250   8.769
  945SOL    HW2 3378   0.277   0.118   8.673
  946SOL     OW 3379   0.037   1.310   8.730
  946SOL    HW1 3380   0.090   1.261   8.798
  946SOL    HW2 3381   0.059   1.408   8.735
  947SOL     OW 3382   0.732   0.634   8.512
  947SOL    HW1 3383   0.791   0.608   8.436
  947SOL    HW2 3384   0.704   0.730   8.501
  948SOL     OW 3385   1.728   0.935   9.302
  948SOL    HW1 3386   1.682   0.928   9.213
  948SOL    HW2 3387   1.666   0.979   9.368
  949SOL     OW 3388   0.307   0.063   8.066
  949SOL    HW1 3389   0.296   0.157   8.099
  949SOL    HW2 3390   0.302   0.000   8.143
  950SOL     OW 3391   1.622   0.367   7.822
  950SOL    HW1 3392   1.624   0.291   7.886
  950SOL    HW2 3393   1.574   0.444   7.862
  951SOL     OW 3394   1.023   0.766   8.414
  951SOL    HW1 3395   1.038   0.787   8.510
  951SOL    HW2 3396   0.993   0.671   8.405
  952SOL     OW 3397   0.980   1.573   9.148
  952SOL    HW1 3398   0.960   1.617   9.060
  952SOL    HW2 3399   1.019   1.482   9.132
  953SOL     OW 3400   1.859   1.518   9.053
  953SOL    HW1 3401   1.873   1.545   8.958
  953SOL    HW2 3402   1.942   1.540   9.106
  954SOL     OW 3403   0.350   0.898   9.252
  954SOL    HW1 3404   0.426   0.942   9.300
  954SOL    HW2 3405   0.385   0.851   9.170
  955SOL     OW 3406   1.540   0.274   7.573
  955SOL    HW1 3407   1.479   0.199   7.596
  955SOL    HW2 3408   1.562   0.326   7.656
  956SOL     OW 3409   1.303   0.838   7.490
  956SOL    HW1 3410   1.337   0.745   7.505
  956SOL    HW2 3411   1.321   0.865   7.395
  957SOL     OW 3412   1.068   1.333   8.297
  957SOL    HW1 3413   1.075   1.249   8.242
  957SOL    HW2 3414   1.130   1.402   8.261
  958SOL     OW 3415   0.319   0.810   8.397
  958SOL    HW1 3416   0.412   0.846   8.402
  958SOL    HW2 3417   0.313   0.725   8.449
  959SOL     OW 3418   0.339   0.509   8.454
  959SOL    HW1 3419   0.287   0.426   8.437
  959SOL    HW2 3420   0.416   0.514   8.390
  960SOL     OW 3421   1.138   0.380   9.126
  960SOL    HW1 3422   1.093   0.443   9.190
  960SOL    HW2 3423   1.231   0.411   9.109
  961SOL     OW 3424   1.160   0.207   8.925
  961SOL    HW1 3425   1.160   0.271   9.002
  961SOL    HW2 3426   1.188   0.255   8.842
  962SOL     OW 3427   0.008   1.326   7.648
  962SOL    HW1 3428  -0.085   1.347   7.617
  962SOL    HW2 3429   0.018   1.227   7.661
  963SOL     OW 3430   0.088   1.801   8.375
  963SOL    HW1 3431   0.046   1.715   8.348
  963SOL    HW2 3432   0.182   1.804   8.341
  964SOL     OW 3433   0.504   1.568   8.358
  964SOL    HW1 3434   0.570   1.642   8.367
  964SOL    HW2 3435   0.548   1.489   8.316
  965SOL     OW 3436   1.002   0.796   8.686
  965SOL    HW1 3437   1.043   0.764   8.772
  965SOL    HW2 3438   0.906   0.769   8.683
  966SOL     OW 3439   0.040   0.544   8.562
  966SOL    HW1 3440   0.125   0.511   8.521
  966SOL    HW2 3441   0.053   0.559   8.660
  967SOL     OW 3442   0.189   0.520   9.170
  967SOL    HW1 3443   0.248   0.480   9.100
  967SOL    HW2 3444   0.131   0.591   9.129
  968SOL     OW 3445   1.369   0.950   9.108
  968SOL    HW1 3446   1.408   1.039   9.128
  968SOL    HW2 3447   1.379   0.930   9.011
  969SOL     OW 3448   0.815   0.572   7.773
  969SOL    HW1 3449   0.822   0.483   7.727
  969SOL    HW2 3450   0.721   0.606   7.765
  970SOL     OW 3451   1.657   0.604   8.654
  970SOL    HW1 3452   1.619   0.535   8.716
  970SOL    HW2 3453   1.739   0.568   8.610
  971SOL     OW 3454   0.252   1.564   9.192
  971SOL    HW1 3455   0.222   1.621   9.268
  971SOL    HW2 3456   0.245   1.467   9.218
  972SOL     OW 3457   0.671   0.464   8.717
  972SOL    HW1 3458   0.637   0.375   8.687
  972SOL    HW2 3459   0.697   0.518   8.637
  973SOL     OW 3460   0.930   1.678   8.913
  973SOL    HW1 3461   0.906   1.660   8.818
  973SOL    HW2 3462   0.960   1.772   8.923
  974SOL     OW 3463   0.473   0.500   7.639
  974SOL    HW1 3464   0.534   0.580   7.643
  974SOL    HW2 3465   0.378   0.531   7.646
  975SOL     OW 3466   0.159   1.137   8.914
  975SOL    HW1 3467   0.181   1.076   8.990
  975SOL    HW2 3468   0.169   1.088   8.828
  976SOL     OW 3469   1.347   1.059   8.682
  976SOL    HW1 3470   1.371   0.996   8.608
  976SOL    HW2 3471   1.257   1.099   8.664
  977SOL     OW 3472   1.302   0.855   7.757
  977SOL    HW1 3473   1.216   0.824   7.799
  977SOL    HW2 3474   1.298   0.841   7.658
  978SOL     OW 3475   1.759   1.747   8.602
  978SOL    HW1 3476   1.820   1.777   8.529
  978SOL    HW2 3477   1.721   1.658   8.580
  979SOL     OW 3478   1.252   1.731   8.576
  979SOL    HW1 3479   1.336   1.736   8.522
  979SOL    HW2 3480   1.229   1.635   8.594
  980SOL     OW 3481   0.083   1.258   8.470
  980SOL    HW1 3482   0.078   1.257   8.570
  980SOL    HW2 3483   0.000   1.217   8.432
  981SOL     OW 3484   0.688   1.662   9.164
  981SOL    HW1 3485   0.632   1.743   9.173
  981SOL    HW2 3486   0.740   1.666   9.078
  982SOL     OW 3487   1.726   0.135   7.971
  982SOL    HW1 3488   1.799   0.118   7.904
  982SOL    HW2 3489   1.695   0.048   8.009
  983SOL     OW 3490   0.130   1.794   9.299
  983SOL    HW1 3491   0.089   1.720   9.352
  983SOL    HW2 3492   0.194   1.845   9.357
  984SOL     OW 3493   1.280   0.927   8.120
  984SOL    HW1 3494   1.340   0.846   8.122
  984SOL    HW2 3495   1.320   0.996   8.060
  985SOL     OW 3496   0.830   1.273   8.870
  985SOL    HW1 3497   0.825   1.306   8.965
  985SOL    HW2 3498   0.744   1.292   8.824
  986SOL     OW 3499   0.672   1.616   7.602
  986SOL    HW1 3500   0.681   1.626   7.503
  986SOL    HW2 3501   0.632   1.527   7.623
  987SOL     OW 3502   1.650   1.720   8.842
  987SOL    HW1 3503   1.703   1.730   8.758
  987SOL    HW2 3504   1.623   1.810   8.876
  988SOL     OW 3505   1.841   0.175   8.411
  988SOL    HW1 3506   1.880   0.090   8.375
  988SOL    HW2 3507   1.743   0.177   8.392
  989SOL     OW 3508   0.263   0.326   8.168
  989SOL    HW1 3509   0.184   0.377   8.134
  989SOL    HW2 3510   0.254   0.311   8.266
  990SOL     OW 3511   0.822   1.002   8.820
  990SOL    HW1 3512   0.862   1.001   8.728
  990SOL    HW2 3513   0.832   1.094   8.860
  991SOL     OW 3514   0.916   0.910   7.739
  991SOL    HW1 3515   0.979   0.948   7.671
  991SOL    HW2 3516   0.956   0.827   7.778
  992SOL     OW 3517   0.372   1.288   8.938
  992SOL    HW1 3518   0.359   1.381   8.904
  992SOL    HW2 3519   0.288   1.236   8.925
  993SOL     OW 3520   1.614   1.292   8.737
  993SOL    HW1 3521   1.674   1.295   8.817
  993SOL    HW2 3522   1.539   1.356   8.750
  994SOL     OW 3523   1.039   1.098   8.144
  994SOL    HW1 3524   0.969   1.051   8.198
  994SOL    HW2 3525   1.098   1.030   8.101
  995SOL     OW 3526   1.014   0.236   8.419
  995SOL    HW1 3527   1.006   0.200   8.326
  995SOL    HW2 3528   1.012   0.160   8.484
  996SOL     OW 3529   0.590   1.487   7.939
  996SOL    HW1 3530   0.632   1.429   7.869
  996SOL    HW2 3531   0.546   1.566   7.895
  997SOL     OW 3532   1.709   0.385   8.829
  997SOL    HW1 3533   1.782   0.454   8.833
  997SOL    HW2 3534   1.737   0.310   8.770
  998SOL     OW 3535   0.255   1.348   7.738
  998SOL    HW1 3536   0.159   1.349   7.711
  998SOL    HW2 3537   0.267   1.401   7.822
  999SOL     OW 3538   0.105   1.013   9.174
  999SOL    HW1 3539   0.028   0.980   9.228
  999SOL    HW2 3540   0.190   0.983   9.216
 1000SOL     OW 3541   0.672   0.203   8.937
 1000SOL    HW1 3542   0.762   0.187   8.897
 1000SOL    HW2 3543   0.680   0.208   9.036
 1001SOL     OW 3544   0.075   0.345   7.481
 1001SOL    HW1 3545  -0.017   0.317   7.452
 1001SOL    HW2 3546   0.106   0.422   7.425
 1002SOL     OW 3547   1.440   0.856   8.846
 1002SOL    HW1 3548   1.383   0.908   8.783
 1002SOL    HW2 3549   1.536   0.868   8.822
 1003SOL     OW 3550   0.072   0.166   7.766
 1003SOL    HW1 3551   0.055   0.249   7.712
 1003SOL    HW2 3552   0.162   0.129   7.744
 1004SOL     OW 3553   1.183   1.335   7.567
 1004SOL    HW1 3554   1.084   1.324   7.569
 1004SOL    HW2 3555   1.217   1.350   7.660
 1005SOL     OW 3556   0.613   0.842   8.879
 1005SOL    HW1 3557   0.669   0.923   8.862
 1005SOL    HW2 3558   0.672   0.762   8.882
 1006SOL     OW 3559   1.493   1.767   8.407
 1006SOL    HW1 3560   1.526   1.831   8.338
 1006SOL    HW2 3561   1.559   1.761   8.482
 1007SOL     OW 3562   0.716   0.565   9.156
 1007SOL    HW1 3563   0.735   0.630   9.230
 1007SOL    HW2 3564   0.776   0.485   9.165
 1008SOL     OW 3565   1.450   1.220   9.081
 1008SOL    HW1 3566   1.441   1.210   9.180
 1008SOL    HW2 3567   1.546   1.213   9.055
 1009SOL     OW 3568   0.390   1.741   9.008
 1009SOL    HW1 3569   0.299   1.782   9.006
 1009SOL    HW2 3570   0.383   1.647   9.040
 1010SOL     OW 3571   1.674   0.883   8.702
 1010SOL    HW1 3572   1.647   0.794   8.665
 1010SOL    HW2 3573   1.675   0.951   8.629
 1011SOL     OW 3574   1.225   0.325   7.897
 1011SOL    HW1 3575   1.290   0.251   7.886
 1011SOL    HW2 3576   1.245   0.375   7.981
 1012SOL     OW 3577   0.594   0.745   8.100
 1012SOL    HW1 3578   0.644   0.830   8.081
 1012SOL    HW2 3579   0.506   0.747   8.052
 1013SOL     OW 3580   1.777   0.342   9.090
 1013SOL    HW1 3581   1.760   0.373   8.996
 1013SOL    HW2 3582   1.693   0.305   9.128
 1014SOL     OW 3583   1.730   0.934   8.965
 1014SOL    HW1 3584   1.768   1.025   8.980
 1014SOL    HW2 3585   1.722   0.917   8.866
 1015SOL     OW 3586   0.859   1.374   7.464
 1015SOL    HW1 3587   0.813   1.389   7.552
 1015SOL    HW2 3588   0.903   1.459   7.434
 1016SOL     OW 3589   0.661   1.790   8.401
 1016SOL    HW1 3590   0.615   1.878   8.388
 1016SOL    HW2 3591   0.760   1.802   8.394
 1017SOL     OW 3592   0.859   0.956   8.309
 1017SOL    HW1 3593   0.913   0.887   8.357
 1017SOL    HW2 3594   0.827   1.025   8.375
 1018SOL     OW 3595   1.083   0.984   7.535
 1018SOL    HW1 3596   1.060   1.037   7.453
 1018SOL    HW2 3597   1.164   0.928   7.516
 1019SOL     OW 3598   1.861   1.569   8.299
 1019SOL    HW1 3599   1.790   1.557   8.229
 1019SOL    HW2 3600   1.862   1.490   8.359
 1020SOL     OW 3601   0.221   1.314   9.292
 1020SOL    HW1 3602   0.156   1.241   9.271
 1020SOL    HW2 3603   0.225   1.328   9.390
 1021SOL     OW 3604   0.079   1.240   8.101
 1021SOL    HW1 3605   0.078   1.193   8.189
 1021SOL    HW2 3606   0.161   1.212   8.050
 1022SOL     OW 3607   0.672   1.391   9.072
 1022SOL    HW1 3608   0.594   1.341   9.110
 1022SOL    HW2 3609   0.669   1.486   9.103
 1023SOL     OW 3610   1.824   0.192   8.675
 1023SOL    HW1 3611   1.820   0.102   8.719
 1023SOL    HW2 3612   1.827   0.181   8.576
 1024SOL     OW 3613   0.428   0.424   7.968
 1024SOL    HW1 3614   0.458   0.352   7.906
 1024SOL    HW2 3615   0.389   0.384   8.051
 1025SOL     OW 3616   1.705   1.487   8.552
 1025SOL    HW1 3617   1.612   1.462   8.525
 1025SOL    HW2 3618   1.731   1.437   8.634
 1026SOL     OW 3619   0.317   0.547   8.728
 1026SOL    HW1 3620   0.355   0.488   8.800
 1026SOL    HW2 3621   0.357   0.521   8.640
 1027SOL     OW 3622   0.812   1.586   8.135
 1027SOL    HW1 3623   0.844   1.596   8.041
 1027SOL    HW2 3624   0.733   1.524   8.137
 1028SOL     OW 3625   1.424   0.214   8.560
 1028SOL    HW1 3626   1.476   0.149   8.615
 1028SOL    HW2 3627   1.375   0.277   8.621
 1029SOL     OW 3628   1.001   0.034   8.602
 1029SOL    HW1 3629   0.938  -0.038   8.571
 1029SOL    HW2 3630   1.094  -0.002   8.602
 1030SOL     OW 3631   0.770   1.330   7.749
 1030SOL    HW1 3632   0.724   1.243   7.766
 1030SOL    HW2 3633   0.861   1.327   7.790
 1031SOL     OW 3634   0.618   1.567   8.732
 1031SOL    HW1 3635   0.613   1.649   8.789
 1031SOL    HW2 3636   0.707   1.564   8.687
 1032SOL     OW 3637   1.352   0.052   7.616
 1032SOL    HW1 3638   1.387   0.011   7.532
 1032SOL    HW2 3639   1.262   0.014   7.636
 1033SOL     OW 3640   1.300   0.453   8.139
 1033SOL    HW1 3641   1.241   0.533   8.143
 1033SOL    HW2 3642   1.315   0.418   8.232
 1034SOL     OW 3643   1.593   0.221   8.330
 1034SOL    HW1 3644   1.509   0.220   8.384
 1034SOL    HW2 3645   1.595   0.304   8.274
 1035SOL     OW 3646   0.039   1.077   7.748
 1035SOL    HW1 3647   0.138   1.066   7.739
 1035SOL    HW2 3648  -0.001   0.991   7.780
 1036SOL     OW 3649   0.875   1.646   7.785
 1036SOL    HW1 3650   0.798   1.611   7.731
 1036SOL    HW2 3651   0.843   1.717   7.847
 1037SOL     OW 3652   0.230   0.628   9.423
 1037SOL    HW1 3653   0.137   0.626   9.460
 1037SOL    HW2 3654   0.231   0.589   9.331
 1038SOL     OW 3655   0.225   0.275  10.306
 1038SOL    HW1 3656   0.260   0.258  10.398
 1038SOL    HW2 3657   0.137   0.230  10.294
 1039SOL     OW 3658   0.019   0.368   9.957
 1039SOL    HW1 3659  -0.063   0.411   9.996
 1039SOL    HW2 3660  -0.009   0.295   9.894
 1040SOL     OW 3661   0.569   1.275  10.475
 1040SOL    HW1 3662   0.476   1.268  10.438
 1040SOL    HW2 3663   0.580   1.364  10.519
 1041SOL     OW 3664   1.555   1.511  10.013
 1041SOL    HW1 3665   1.498   1.495  10.094
 1041SOL    HW2 3666   1.496   1.521   9.933
 1042SOL     OW 3667   1.135   0.703  10.027
 1042SOL    HW1 3668   1.192   0.781  10.002
 1042SOL    HW2 3669   1.075   0.729  10.103
 1043SOL     OW 3670   1.755   0.607   9.541
 1043SOL    HW1 3671   1.743   0.594   9.442
 1043SOL    HW2 3672   1.725   0.526   9.590
 1044SOL     OW 3673   0.768   1.144  10.333
 1044SOL    HW1 3674   0.690   1.161  10.393
 1044SOL    HW2 3675   0.802   1.231  10.297
 1045SOL     OW 3676   0.850   0.798  11.133
 1045SOL    HW1 3677   0.846   0.874  11.198
 1045SOL    HW2 3678   0.872   0.834  11.042
 1046SOL     OW 3679   0.685   1.012   9.975
 1046SOL    HW1 3680   0.754   0.996  10.045
 1046SOL    HW2 3681   0.612   1.069  10.013
 1047SOL     OW 3682   0.686   1.161  11.113
 1047SOL    HW1 3683   0.746   1.240  11.127
 1047SOL    HW2 3684   0.600   1.192  11.072
 1048SOL     OW 3685   0.335   1.435  10.371
 1048SOL    HW1 3686   0.257   1.404  10.318
 1048SOL    HW2 3687   0.393   1.493  10.314
 1049SOL     OW 3688   1.460   1.505  10.649
 1049SOL    HW1 3689   1.484   1.599  10.675
 1049SOL    HW2 3690   1.444   1.451  10.731
 1050SOL     OW 3691   0.438   0.392  10.809
 1050SOL    HW1 3692   0.520   0.336  10.818
 1050SOL    HW2 3693   0.357   0.334  10.813
 1051SOL     OW 3694   1.603   0.447  10.047
 1051SOL    HW1 3695   1.529   0.493   9.997
 1051SOL    HW2 3696   1.654   0.515  10.100
 1052SOL     OW 3697   0.231   1.713   9.793
 1052SOL    HW1 3698   0.265   1.790   9.847
 1052SOL    HW2 3699   0.275   1.713   9.703
 1053SOL     OW 3700   1.127   1.341  11.000
 1053SOL    HW1 3701   1.174   1.341  11.088
 1053SOL    HW2 3702   1.079   1.254  10.989
 1054SOL     OW 3703   0.230   1.434   9.848
 1054SOL    HW1 3704   0.204   1.530   9.848
 1054SOL    HW2 3705   0.159   1.380   9.893
 1055SOL     OW 3706   0.240   1.091  10.196
 1055SOL    HW1 3707   0.254   1.007  10.248
 1055SOL    HW2 3708   0.185   1.155  10.251
 1056SOL     OW 3709   0.620   1.786  10.749
 1056SOL    HW1 3710   0.528   1.769  10.784
 1056SOL    HW2 3711   0.648   1.878  10.775
 1057SOL     OW 3712   0.606   0.964   9.433
 1057SOL    HW1 3713   0.613   1.048   9.379
 1057SOL    HW2 3714   0.652   0.977   9.521
 1058SOL     OW 3715   1.594   0.114  10.790
 1058SOL    HW1 3716   1.576   0.181  10.718
 1058SOL    HW2 3717   1.591   0.160  10.879
 1059SOL     OW 3718   0.122   0.643   9.873
 1059SOL    HW1 3719   0.077   0.555   9.890
 1059SOL    HW2 3720   0.121   0.697   9.957
 1060SOL     OW 3721   0.027   1.596   9.427
 1060SOL    HW1 3722   0.008   1.500   9.448
 1060SOL    HW2 3723  -0.006   1.654   9.502
 1061SOL     OW 3724   1.689   0.922   9.922
 1061SOL    HW1 3725   1.784   0.893   9.930
 1061SOL    HW2 3726   1.681   0.987   9.847
 1062SOL     OW 3727   1.641   1.108   9.742
 1062SOL    HW1 3728   1.727   1.110   9.690
 1062SOL    HW2 3729   1.655   1.155   9.830
 1063SOL     OW 3730   0.113   0.737  10.907
 1063SOL    HW1 3731   0.201   0.724  10.952
 1063SOL    HW2 3732   0.100   0.834  10.885
 1064SOL     OW 3733   0.613   1.365  10.036
 1064SOL    HW1 3734   0.564   1.278  10.045
 1064SOL    HW2 3735   0.590   1.408   9.949
 1065SOL     OW 3736   1.293   1.228  10.733
 1065SOL    HW1 3737   1.330   1.155  10.675
 1065SOL    HW2 3738   1.345   1.233  10.818
 1066SOL     OW 3739   0.809   0.004   9.812
 1066SOL    HW1 3740   0.849   0.095   9.803
 1066SOL    HW2 3741   0.709   0.012   9.818
 1067SOL     OW 3742   0.197   0.976  10.574
 1067SOL    HW1 3743   0.286   0.931  10.560
 1067SOL    HW2 3744   0.124   0.911  10.555
 1068SOL     OW 3745   1.525   0.999   9.500
 1068SOL    HW1 3746   1.462   0.923   9.513
 1068SOL    HW2 3747   1.573   1.017   9.586
 1069SOL     OW 3748   1.187   1.792  10.926
 1069SOL    HW1 3749   1.211   1.852  10.850
 1069SOL    HW2 3750   1.194   1.697  10.896
 1070SOL     OW 3751   0.317   0.251  11.111
 1070SOL    HW1 3752   0.388   0.322  11.117
 1070SOL    HW2 3753   0.229   0.290  11.139
 1071SOL     OW 3754   1.466   1.417  10.263
 1071SOL    HW1 3755   1.407   1.423  10.343
 1071SOL    HW2 3756   1.451   1.329  10.217
 1072SOL     OW 3757   1.667   1.714   9.882
 1072SOL    HW1 3758   1.626   1.691   9.794
 1072SOL    HW2 3759   1.649   1.640   9.947
 1073SOL     OW 3760   0.598   0.729   9.580
 1073SOL    HW1 3761   0.622   0.798   9.512
 1073SOL    HW2 3762   0.520   0.762   9.634
 1074SOL     OW 3763   1.281   0.345  10.254
 1074SOL    HW1 3764   1.195   0.295  10.241
 1074SOL    HW2 3765   1.343   0.291  10.310
 1075SOL     OW 3766   1.576   1.662   9.617
 1075SOL    HW1 3767   1.665   1.708   9.620
 1075SOL    HW2 3768   1.555   1.638   9.522
 1076SOL     OW 3769   0.807   0.605  10.775
 1076SOL    HW1 3770   0.760   0.602  10.864
 1076SOL    HW2 3771   0.756   0.550  10.709
 1077SOL     OW 3772   1.394   0.469  10.984
 1077SOL    HW1 3773   1.374   0.512  11.072
 1077SOL    HW2 3774   1.472   0.407  10.993
 1078SOL     OW 3775   0.973   0.890  10.882
 1078SOL    HW1 3776   1.019   0.806  10.853
 1078SOL    HW2 3777   0.917   0.924  10.807
 1079SOL     OW 3778   0.991   0.410  10.552
 1079SOL    HW1 3779   0.914   0.444  10.606
 1079SOL    HW2 3780   0.957   0.359  10.473
 1080SOL     OW 3781   1.041   0.701   9.739
 1080SOL    HW1 3782   1.067   0.697   9.835
 1080SOL    HW2 3783   0.956   0.650   9.725
 1081SOL     OW 3784   0.076   0.811  10.099
 1081SOL    HW1 3785   0.175   0.799  10.108
 1081SOL    HW2 3786   0.052   0.906  10.120
 1082SOL     OW 3787   0.130   1.821  10.881
 1082SOL    HW1 3788   0.120   1.806  10.980
 1082SOL    HW2 3789   0.044   1.857  10.845
 1083SOL     OW 3790   0.865   0.348   9.505
 1083SOL    HW1 3791   0.924   0.411   9.456
 1083SOL    HW2 3792   0.884   0.254   9.476
 1084SOL     OW 3793   1.719   0.585  11.141
 1084SOL    HW1 3794   1.693   0.674  11.105
 1084SOL    HW2 3795   1.717   0.517  11.068
 1085SOL     OW 3796   1.362   1.144   9.855
 1085SOL    HW1 3797   1.445   1.115   9.807
 1085SOL    HW2 3798   1.313   1.211   9.799
 1086SOL     OW 3799   0.550   0.196  10.195
 1086SOL    HW1 3800   0.545   0.191  10.295
 1086SOL    HW2 3801   0.552   0.292  10.166
 1087SOL     OW 3802   1.008   1.456   9.787
 1087SOL    HW1 3803   0.962   1.528   9.735
 1087SOL    HW2 3804   1.004   1.476   9.885
 1088SOL     OW 3805   0.351   1.801  10.163
 1088SOL    HW1 3806   0.401   1.715  10.169
 1088SOL    HW2 3807   0.416   1.878  10.160
 1089SOL     OW 3808   1.795   1.066  10.183
 1089SOL    HW1 3809   1.733   1.051  10.107
 1089SOL    HW2 3810   1.743   1.077  10.268
 1090SOL     OW 3811   1.227   1.550  10.816
 1090SOL    HW1 3812   1.233   1.473  10.880
 1090SOL    HW2 3813   1.175   1.524  10.736
 1091SOL     OW 3814   0.321   0.943   9.552
 1091SOL    HW1 3815   0.403   0.982   9.510
 1091SOL    HW2 3816   0.294   0.861   9.503
 1092SOL     OW 3817   1.458   0.735  10.038
 1092SOL    HW1 3818   1.453   0.670  10.113
 1092SOL    HW2 3819   1.538   0.794  10.051
 1093SOL     OW 3820   0.461   1.266  11.037
 1093SOL    HW1 3821   0.411   1.267  10.951
 1093SOL    HW2 3822   0.398   1.248  11.113
 1094SOL     OW 3823   1.111   1.776   9.547
 1094SOL    HW1 3824   1.051   1.714   9.597
 1094SOL    HW2 3825   1.142   1.732   9.462
 1095SOL     OW 3826   0.202   0.285  10.808
 1095SOL    HW1 3827   0.122   0.345  10.795
 1095SOL    HW2 3828   0.192   0.236  10.894
 1096SOL     OW 3829   1.632   1.377   9.391
 1096SOL    HW1 3830   1.600   1.471   9.381
 1096SOL    HW2 3831   1.556   1.314   9.379
 1097SOL     OW 3832   0.464   1.743   9.633
 1097SOL    HW1 3833   0.497   1.782   9.719
 1097SOL    HW2 3834   0.540   1.736   9.568
 1098SOL     OW 3835   1.400   0.107   9.736
 1098SOL    HW1 3836   1.376   0.070   9.646
 1098SOL    HW2 3837   1.499   0.123   9.740
 1099SOL     OW 3838   0.249   1.785  10.551
 1099SOL    HW1 3839   0.306   1.720  10.601
 1099SOL    HW2 3840   0.233   1.752  10.458
 1100SOL     OW 3841   0.940   1.698  10.214
 1100SOL    HW1 3842   1.020   1.641  10.235
 1100SOL    HW2 3843   0.891   1.658  10.137
 1101SOL     OW 3844   0.382   0.700   9.790
 1101SOL    HW1 3845   0.427   0.610   9.787
 1101SOL    HW2 3846   0.288   0.689   9.823
 1102SOL     OW 3847   1.547   0.222  11.039
 1102SOL    HW1 3848   1.542   0.259  11.131
 1102SOL    HW2 3849   1.475   0.153  11.027
 1103SOL     OW 3850   0.614   0.122   9.427
 1103SOL    HW1 3851   0.712   0.100   9.434
 1103SOL    HW2 3852   0.583   0.105   9.334
 1104SOL     OW 3853   0.781   0.264  11.059
 1104SOL    HW1 3854   0.848   0.203  11.102
 1104SOL    HW2 3855   0.708   0.283  11.124
 1105SOL     OW 3856   0.888   1.514  10.505
 1105SOL    HW1 3857   0.865   1.489  10.411
 1105SOL    HW2 3858   0.949   1.445  10.544
 1106SOL     OW 3859   1.351   0.590  10.743
 1106SOL    HW1 3860   1.379   0.547  10.828
 1106SOL    HW2 3861   1.376   0.686  10.744
 1107SOL     OW 3862   0.803   1.402  10.234
 1107SOL    HW1 3863   0.893   1.416  10.192
 1107SOL    HW2 3864   0.732   1.404  10.163
 1108SOL     OW 3865   0.922   0.503  10.209
 1108SOL    HW1 3866   0.897   0.494  10.113
 1108SOL    HW2 3867   0.970   0.421  10.240
 1109SOL     OW 3868   0.539   0.064   9.822
 1109SOL    HW1 3869   0.458   0.065   9.880
 1109SOL    HW2 3870   0.542   0.147   9.767
 1110SOL     OW 3871   1.434   1.188   9.351
 1110SOL    HW1 3872   1.466   1.112   9.408
 1110SOL    HW2 3873   1.342   1.215   9.381
 1111SOL     OW 3874   0.297   0.035   9.481
 1111SOL    HW1 3875   0.346   0.119   9.460
 1111SOL    HW2 3876   0.359  -0.030   9.526
 1112SOL     OW 3877   0.935   0.236   9.790
 1112SOL    HW1 3878   0.887   0.277   9.712
 1112SOL    HW2 3879   1.034   0.234   9.771
 1113SOL     OW 3880   1.076   0.683  10.774
 1113SOL    HW1 3881   0.996   0.622  10.777
 1113SOL    HW2 3882   1.157   0.630  10.750
 1114SOL     OW 3883   1.227   1.570  10.103
 1114SOL    HW1 3884   1.248   1.644  10.038
 1114SOL    HW2 3885   1.295   1.570  10.176
 1115SOL     OW 3886   0.459   1.152  10.051
 1115SOL    HW1 3887   0.388   1.125  10.116
 1115SOL    HW2 3888   0.433   1.124   9.958
 1116SOL     OW 3889   1.271   1.797   9.901
 1116SOL    HW1 3890   1.315   1.861   9.837
 1116SOL    HW2 3891   1.221   1.849   9.971
 1117SOL     OW 3892   1.032   0.549   9.326
 1117SOL    HW1 3893   0.991   0.631   9.287
 1117SOL    HW2 3894   1.096   0.575   9.399
 1118SOL     OW 3895   0.078   0.556  10.696
 1118SOL    HW1 3896   0.170   0.555  10.655
 1118SOL    HW2 3897   0.072   0.630  10.763
 1119SOL     OW 3898   0.561   0.222  10.457
 1119SOL    HW1 3899   0.599   0.138  10.494
 1119SOL    HW2 3900   0.473   0.241  10.501
 1120SOL     OW 3901   0.866   0.454   9.952
 1120SOL    HW1 3902   0.834   0.526   9.890
 1120SOL    HW2 3903   0.890   0.373   9.899
 1121SOL     OW 3904   1.017   0.039  10.063
 1121SOL    HW1 3905   0.945   0.044   9.994
 1121SOL    HW2 3906   0.993  -0.030  10.132
 1122SOL     OW 3907   1.429   1.173  10.177
 1122SOL    HW1 3908   1.374   1.089  10.170
 1122SOL    HW2 3909   1.455   1.202  10.085
 1123SOL     OW 3910   1.466   0.590  10.302
 1123SOL    HW1 3911   1.436   0.495  10.309
 1123SOL    HW2 3912   1.539   0.606  10.368
 1124SOL     OW 3913   1.857   0.833   9.687
 1124SOL    HW1 3914   1.899   0.769   9.751
 1124SOL    HW2 3915   1.819   0.782   9.609
 1125SOL     OW 3916   0.488   1.385   9.484
 1125SOL    HW1 3917   0.401   1.370   9.531
 1125SOL    HW2 3918   0.471   1.411   9.389
 1126SOL     OW 3919   1.664   1.280   9.967
 1126SOL    HW1 3920   1.763   1.288   9.981
 1126SOL    HW2 3921   1.619   1.364   9.998
 1127SOL     OW 3922   1.390   0.575   9.388
 1127SOL    HW1 3923   1.336   0.554   9.469
 1127SOL    HW2 3924   1.481   0.534   9.397
 1128SOL     OW 3925   0.527   0.256   9.638
 1128SOL    HW1 3926   0.554   0.197   9.563
 1128SOL    HW2 3927   0.527   0.351   9.607
 1129SOL     OW 3928   1.754   1.223  10.898
 1129SOL    HW1 3929   1.845   1.184  10.885
 1129SOL    HW2 3930   1.762   1.319  10.922
 1130SOL     OW 3931   1.064   1.347  10.650
 1130SOL    HW1 3932   0.984   1.324  10.705
 1130SOL    HW2 3933   1.147   1.321  10.699
 1131SOL     OW 3934   1.592   1.629  10.935
 1131SOL    HW1 3935   1.619   1.663  10.845
 1131SOL    HW2 3936   1.671   1.591  10.981
 1132SOL     OW 3937   1.111   1.195  10.410
 1132SOL    HW1 3938   1.071   1.239  10.491
 1132SOL    HW2 3939   1.070   1.232  10.327
 1133SOL     OW 3940   1.638   1.099  10.389
 1133SOL    HW1 3941   1.643   1.180  10.448
 1133SOL    HW2 3942   1.552   1.101  10.338
 1134SOL     OW 3943   0.915   0.089  10.712
 1134SOL    HW1 3944   0.940   0.069  10.617
 1134SOL    HW2 3945   0.987   0.145  10.754
 1135SOL     OW 3946   0.980   1.116  11.029
 1135SOL    HW1 3947   0.881   1.122  11.039
 1135SOL    HW2 3948   1.003   1.036  10.973
 1136SOL     OW 3949   0.705   1.050   9.678
 1136SOL    HW1 3950   0.691   1.057   9.777
 1136SOL    HW2 3951   0.789   0.999   9.660
 1137SOL     OW 3952   0.410   0.813  10.561
 1137SOL    HW1 3953   0.496   0.825  10.611
 1137SOL    HW2 3954   0.368   0.726  10.588
 1138SOL     OW 3955   1.274   0.386  10.572
 1138SOL    HW1 3956   1.295   0.460  10.636
 1138SOL    HW2 3957   1.185   0.403  10.529
 1139SOL     OW 3958   0.064   1.564  10.641
 1139SOL    HW1 3959   0.018   1.646  10.607
 1139SOL    HW2 3960   0.162   1.583  10.650
 1140SOL     OW 3961   0.367   1.100   9.811
 1140SOL    HW1 3962   0.360   1.183   9.755
 1140SOL    HW2 3963   0.371   1.020   9.751
 1141SOL     OW 3964   0.566   0.537  10.175
 1141SOL    HW1 3965   0.578   0.603  10.101
 1141SOL    HW2 3966   0.612   0.571  10.258
 1142SOL     OW 3967   1.252   1.348   9.698
 1142SOL    HW1 3968   1.302   1.425   9.738
 1142SOL    HW2 3969   1.157   1.350   9.730
 1143SOL     OW 3970   1.272   1.445  10.452
 1143SOL    HW1 3971   1.319   1.458  10.539
 1143SOL    HW2 3972   1.206   1.371  10.461
 1144SOL     OW 3973   1.582   0.639   9.782
 1144SOL    HW1 3974   1.551   0.700   9.855
 1144SOL    HW2 3975   1.632   0.691   9.713
 1145SOL     OW 3976   0.354   1.510  10.639
 1145SOL    HW1 3977   0.333   1.466  10.552
 1145SOL    HW2 3978   0.451   1.536  10.642
 1146SOL     OW 3979   0.402   0.751  10.908
 1146SOL    HW1 3980   0.470   0.806  10.861
 1146SOL    HW2 3981   0.442   0.663  10.935
 1147SOL     OW 3982   1.587   0.779  10.980
 1147SOL    HW1 3983   1.495   0.817  10.975
 1147SOL    HW2 3984   1.647   0.826  10.915
 1148SOL     OW 3985   1.013   0.105  11.080
 1148SOL    HW1 3986   1.019   0.190  11.028
 1148SOL    HW2 3987   1.045   0.029  11.023
 1149SOL     OW 3988   0.504   0.050  11.050
 1149SOL    HW1 3989   0.462  -0.007  10.980
 1149SOL    HW2 3990   0.438   0.119  11.082
 1150SOL     OW 3991   0.573   0.870  10.339
 1150SOL    HW1 3992   0.617   0.959  10.330
 1150SOL    HW2 3993   0.510   0.870  10.416
 1151SOL     OW 3994   1.360   0.862  10.355
 1151SOL    HW1 3995   1.285   0.862  10.289
 1151SOL    HW2 3996   1.397   0.770  10.364
 1152SOL     OW 3997   1.209   0.525   9.585
 1152SOL    HW1 3998   1.222   0.441   9.639
 1152SOL    HW2 3999   1.180   0.599   9.645
 1153SOL     OW 4000   0.307   0.213  10.541
 1153SOL    HW1 4001   0.284   0.250  10.631
 1153SOL    HW2 4002   0.277   0.118  10.535
 1154SOL     OW 4003   0.037   1.310  10.592
 1154SOL    HW1 4004   0.090   1.261  10.660
 1154SOL    HW2 4005   0.059   1.408  10.597
 1155SOL     OW 4006   0.732   0.634  10.374
 1155SOL    HW1 4007   0.791   0.608  10.298
 1155SOL    HW2 4008   0.704   0.730  10.363
 1156SOL     OW 4009   1.728   0.935  11.164
 1156SOL    HW1 4010   1.682   0.928  11.075
 1156SOL    HW2 4011   1.666   0.979  11.230
 1157SOL     OW 4012   0.307   0.063   9.928
 1157SOL    HW1 4013   0.296   0.157   9.961
 1157SOL    HW2 4014   0.302   0.000  10.005
 1158SOL     OW 4015   1.622   0.367   9.684
 1158SOL    HW1 4016   1.624   0.291   9.748
 1158SOL    HW2 4017   1.574   0.444   9.724
 1159SOL     OW 4018   1.023   0.766  10.276
 1159SOL    HW1 4019   1.038   0.787  10.372
 1159SOL    HW2 4020   0.993   0.671  10.267
 1160SOL     OW 4021   0.980   1.573  11.010
 1160SOL    HW1 4022   0.960   1.617  10.922
 1160SOL    HW2 4023   1.019   1.482  10.994
 1161SOL     OW 4024   1.859   1.518  10.915
 1161SOL    HW1 4025   1.873   1.545  10.820
 1161SOL    HW2 4026   1.942   1.540  10.968
 1162SOL     OW 4027   0.350   0.898  11.114
 1162SOL    HW1 4028   0.426   0.942  11.162
 1162SOL    HW2 4029   0.385   0.851  11.032
 1163SOL     OW 4030   1.540   0.274   9.435
 1163SOL    HW1 4031   1.479   0.199   9.458
 1163SOL    HW2 4032   1.562   0.326   9.518
 1164SOL     OW 4033   1.303   0.838   9.352
 1164SOL    HW1 4034   1.337   0.745   9.367
 1164SOL    HW2 4035   1.321   0.865   9.257
 1165SOL     OW 4036   1.068   1.333  10.159
 1165SOL    HW1 4037   1.075   1.249  10.104
 1165SOL    HW2 4038   1.130   1.402  10.123
 1166SOL     OW 4039   0.319   0.810  10.259
 1166SOL    HW1 4040   0.412   0.846  10.264
 1166SOL    HW2 4041   0.313   0.725  10.311
 1167SOL     OW 4042   0.339   0.509  10.316
 1167SOL    HW1 4043   0.287   0.426  10.299
 1167SOL    HW2 4044   0.416   0.514  10.252
 1168SOL     OW 4045   1.138   0.380  10.988
 1168SOL    HW1 4046   1.093   0.443  11.052
 1168SOL    HW2 4047   1.231   0.411  10.971
 1169SOL     OW 4048   1.160   0.207  10.787
 1169SOL    HW1 4049   1.160   0.271  10.864
 1169SOL    HW2 4050   1.188   0.255  10.704
 1170SOL     OW 4051   0.008   1.326   9.510
 1170SOL    HW1 4052  -0.085   1.347   9.479
 1170SOL    HW2 4053   0.018   1.227   9.523
 1171SOL     OW 4054   0.088   1.801  10.237
 1171SOL    HW1 4055   0.046   1.715  10.210
 1171SOL    HW2 4056   0.182   1.804  10.203
 1172SOL     OW 4057   0.504   1.568  10.220
 1172SOL    HW1 4058   0.570   1.642  10.229
 1172SOL    HW2 4059   0.548   1.489  10.178
 1173SOL     OW 4060   1.002   0.796  10.548
 1173SOL    HW1 4061   1.043   0.764  10.634
 1173SOL    HW2 4062   0.906   0.769  10.545
 1174SOL     OW 4063   0.040   0.544  10.424
 1174SOL    HW1 4064   0.125   0.511  10.383
 1174SOL    HW2 4065   0.053   0.559  10.522
 1175SOL     OW 4066   0.189   0.520  11.032
 1175SOL    HW1 4067   0.248   0.480  10.962
 1175SOL    HW2 4068   0.131   0.591  10.991
 1176SOL     OW 4069   1.369   0.950  10.970
 1176SOL    HW1 4070   1.408   1.039  10.990
 1176SOL    HW2 4071   1.379   0.930  10.873
 1177SOL     OW 4072   0.815   0.572   9.635
 1177SOL    HW1 4073   0.822   0.483   9.589
 1177SOL    HW2 4074   0.721   0.606   9.627
 1178SOL     OW 4075   1.657   0.604  10.516
 1178SOL    HW1 4076   1.619   0.535  10.578
 1178SOL    HW2 4077   1.739   0.568  10.472
 1179SOL     OW 4078   0.252   1.564  11.054
 1179SOL    HW1 4079   0.222   1.621  11.130
 1179SOL    HW2 4080   0.245   1.467  11.080
 1180SOL     OW 4081   0.671   0.464  10.579
 1180SOL    HW1 4082   0.637   0.375  10.549
 1180SOL    HW2 4083   0.697   0.518  10.499
 1181SOL     OW 4084   0.930   1.678  10.775
 1181SOL    HW1 4085   0.906   1.660  10.680
 1181SOL    HW2 4086   0.960   1.772  10.785
 1182SOL     OW 4087   0.473   0.500   9.501
 1182SOL    HW1 4088   0.534   0.580   9.505
 1182SOL    HW2 4089   0.378   0.531   9.508
 1183SOL     OW 4090   0.159   1.137  10.776
 1183SOL    HW1 4091   0.181   1.076  10.852
 1183SOL    HW2 4092   0.169   1.088  10.690
 1184SOL     OW 4093   1.347   1.059  10.544
 1184SOL    HW1 4094   1.371   0.996  10.470
 1184SOL    HW2 4095   1.257   1.099  10.526
 1185SOL     OW 4096   1.302   0.855   9.619
 1185SOL    HW1 4097   1.216   0.824   9.661
 1185SOL    HW2 4098   1.298   0.841   9.520
 1186SOL     OW 4099   1.759   1.747  10.464
 1186SOL    HW1 4100   1.820   1.777  10.391
 1186SOL    HW2 4101   1.721   1.658  10.442
 1187SOL     OW 4102   1.252   1.731  10.438
 1187SOL    HW1 4103   1.336   1.736  10.384
 1187SOL    HW2 4104   1.229   1.635  10.456
 1188SOL     OW 4105   0.083   1.258  10.332
 1188SOL    HW1 4106   0.078   1.257  10.432
 1188SOL    HW2 4107   0.000   1.217  10.294
 1189SOL     OW 4108   0.688   1.662  11.026
 1189SOL    HW1 4109   0.632   1.743  11.035
 1189SOL    HW2 4110   0.740   1.666  10.940
 1190SOL     OW 4111   1.726   0.135   9.833
 1190SOL    HW1 4112   1.799   0.118   9.766
 1190SOL    HW2 4113   1.695   0.048   9.871
 1191SOL     OW 4114   1.388   1.573   9.787
 1191SOL    HW1 4115   1.455   1.585   9.713
 1191SOL    HW2 4116   1.348   1.662   9.810
 1192SOL     OW 4117   0.130   1.794  11.161
 1192SOL    HW1 4118   0.089   1.720  11.214
 1192SOL    HW2 4119   0.194   1.845  11.219
 1193SOL     OW 4120   1.280   0.927   9.982
 1193SOL    HW1 4121   1.340   0.846   9.984
 1193SOL    HW2 4122   1.320   0.996   9.922
 1194SOL     OW 4123   0.830   1.273  10.732
 1194SOL    HW1 4124   0.825   1.306  10.827
 1194SOL    HW2 4125   0.744   1.292  10.686
 1195SOL     OW 4126   0.672   1.616   9.464
 1195SOL    HW1 4127   0.681   1.626   9.365
 1195SOL    HW2 4128   0.632   1.527   9.485
 1196SOL     OW 4129   1.650   1.720  10.704
 1196SOL    HW1 4130   1.703   1.730  10.620
 1196SOL    HW2 4131   1.623   1.810  10.738
 1197SOL     OW 4132   1.841   0.175  10.273
 1197SOL    HW1 4133   1.880   0.090  10.237
 1197SOL    HW2 4134   1.743   0.177  10.254
 1198SOL     OW 4135   0.263   0.326  10.030
 1198SOL    HW1 4136   0.184   0.377   9.996
 1198SOL    HW2 4137   0.254   0.311  10.128
 1199SOL     OW 4138   1.194   1.612   9.341
 1199SOL    HW1 4139   1.200   1.519   9.378
 1199SOL    HW2 4140   1.135   1.612   9.261
 1200SOL     OW 4141   0.822   1.002  10.682
 1200SOL    HW1 4142   0.862   1.001  10.590
 1200SOL    HW2 4143   0.832   1.094  10.722
 1201SOL     OW 4144   0.916   0.910   9.601
 1201SOL    HW1 4145   0.979   0.948   9.533
 1201SOL    HW2 4146   0.956   0.827   9.640
 1202SOL     OW 4147   1.504   1.607   9.354
 1202SOL    HW1 4148   1.412   1.644   9.361
 1202SOL    HW2 4149   1.542   1.627   9.264
 1203SOL     OW 4150   0.372   1.288  10.800
 1203SOL    HW1 4151   0.359   1.381  10.766
 1203SOL    HW2 4152   0.288   1.236  10.787
 1204SOL     OW 4153   1.614   1.292  10.599
 1204SOL    HW1 4154   1.674   1.295  10.679
 1204SOL    HW2 4155   1.539   1.356  10.612
 1205SOL     OW 4156   1.039   1.098  10.006
 1205SOL    HW1 4157   0.969   1.051  10.060
 1205SOL    HW2 4158   1.098   1.030   9.963
 1206SOL     OW 4159   1.014   0.236  10.281
 1206SOL    HW1 4160   1.006   0.200  10.188
 1206SOL    HW2 4161   1.012   0.160  10.346
 1207SOL     OW 4162   0.590   1.487   9.801
 1207SOL    HW1 4163   0.632   1.429   9.731
 1207SOL    HW2 4164   0.546   1.566   9.757
 1208SOL     OW 4165   1.709   0.385  10.691
 1208SOL    HW1 4166   1.782   0.454  10.695
 1208SOL    HW2 4167   1.737   0.310  10.632
 1209SOL     OW 4168   0.255   1.348   9.600
 1209SOL    HW1 4169   0.159   1.349   9.573
 1209SOL    HW2 4170   0.267   1.401   9.684
 1210SOL     OW 4171   0.105   1.013  11.036
 1210SOL    HW1 4172   0.028   0.980  11.090
 1210SOL    HW2 4173   0.190   0.983  11.078
 1211SOL     OW 4174   0.672   0.203  10.799
 1211SOL    HW1 4175   0.762   0.187  10.759
 1211SOL    HW2 4176   0.680   0.208  10.898
 1212SOL     OW 4177   0.075   0.345   9.343
 1212SOL    HW1 4178  -0.017   0.317   9.314
 1212SOL    HW2 4179   0.106   0.422   9.287
 1213SOL     OW 4180   1.440   0.856  10.708
 1213SOL    HW1 4181   1.383   0.908  10.645
 1213SOL    HW2 4182   1.536   0.868  10.684
 1214SOL     OW 4183   0.072   0.166   9.628
 1214SOL    HW1 4184   0.055   0.249   9.574
 1214SOL    HW2 4185   0.162   0.129   9.606
 1215SOL     OW 4186   1.183   1.335   9.429
 1215SOL    HW1 4187   1.084   1.324   9.431
 1215SOL    HW2 4188   1.217   1.350   9.522
 1216SOL     OW 4189   0.613   0.842  10.741
 1216SOL    HW1 4190   0.669   0.923  10.724
 1216SOL    HW2 4191   0.672   0.762  10.744
 1217SOL     OW 4192   1.493   1.767  10.269
 1217SOL    HW1 4193   1.526   1.831  10.200
 1217SOL    HW2 4194   1.559   1.761  10.344
 1218SOL     OW 4195   0.716   0.565  11.018
 1218SOL    HW1 4196   0.735   0.630  11.092
 1218SOL    HW2 4197   0.776   0.485  11.027
 1219SOL     OW 4198   1.450   1.220  10.943
 1219SOL    HW1 4199   1.441   1.210  11.042
 1219SOL    HW2 4200   1.546   1.213  10.917
 1220SOL     OW 4201   0.390   1.741  10.870
 1220SOL    HW1 4202   0.299   1.782  10.868
 1220SOL    HW2 4203   0.383   1.647  10.902
 1221SOL     OW 4204   1.674   0.883  10.564
 1221SOL    HW1 4205   1.647   0.794  10.527
 1221SOL    HW2 4206   1.675   0.951  10.491
 1222SOL     OW 4207   1.225   0.325   9.759
 1222SOL    HW1 4208   1.290   0.251   9.748
 1222SOL    HW2 4209   1.245   0.375   9.843
 1223SOL     OW 4210   0.594   0.745   9.962
 1223SOL    HW1 4211   0.644   0.830   9.943
 1223SOL    HW2 4212   0.506   0.747   9.914
 1224SOL     OW 4213   1.777   0.342  10.952
 1224SOL    HW1 4214   1.760   0.373  10.858
 1224SOL    HW2 4215   1.693   0.305  10.990
 1225SOL     OW 4216   1.730   0.934  10.827
 1225SOL    HW1 4217   1.768   1.025  10.842
 1225SOL    HW2 4218   1.722   0.917  10.728
 1226SOL     OW 4219   0.859   1.374   9.326
 1226SOL    HW1 4220   0.813   1.389   9.414
 1226SOL    HW2 4221   0.903   1.459   9.296
 1227SOL     OW 4222   0.661   1.790  10.263
 1227SOL    HW1 4223   0.615   1.878  10.250
 1227SOL    HW2 4224   0.760   1.802  10.256
 1228SOL     OW 4225   0.859   0.956  10.171
 1228SOL    HW1 4226   0.913   0.887  10.219
 1228SOL    HW2 4227   0.827   1.025  10.237
 1229SOL     OW 4228   1.083   0.984   9.397
 1229SOL    HW1 4229   1.060   1.037   9.315
 1229SOL    HW2 4230   1.164   0.928   9.378
 1230SOL     OW 4231   1.861   1.569  10.161
 1230SOL    HW1 4232   1.790   1.557  10.091
 1230SOL    HW2 4233   1.862   1.490  10.221
 1231SOL     OW 4234   0.221   1.314  11.154
 1231SOL    HW1 4235   0.156   1.241  11.133
 1231SOL    HW2 4236   0.225   1.328  11.252
 1232SOL     OW 4237   0.079   1.240   9.963
 1232SOL    HW1 4238   0.078   1.193  10.051
 1232SOL    HW2 4239   0.161   1.212   9.912
 1233SOL     OW 4240   0.672   1.391  10.934
 1233SOL    HW1 4241   0.594   1.341  10.972
 1233SOL    HW2 4242   0.669   1.486  10.965
 1234SOL     OW 4243   1.824   0.192  10.537
 1234SOL    HW1 4244   1.820   0.102  10.581
 1234SOL    HW2 4245   1.827   0.181  10.438
 1235SOL     OW 4246   0.428   0.424   9.830
 1235SOL    HW1 4247   0.458   0.352   9.768
 1235SOL    HW2 4248   0.389   0.384   9.913
 1236SOL     OW 4249   1.705   1.487  10.414
 1236SOL    HW1 4250   1.612   1.462  10.387
 1236SOL    HW2 4251   1.731   1.437  10.496
 1237SOL     OW 4252   0.317   0.547  10.590
 1237SOL    HW1 4253   0.355   0.488  10.662
 1237SOL    HW2 4254   0.357   0.521  10.502
 1238SOL     OW 4255   0.812   1.586   9.997
 1238SOL    HW1 4256   0.844   1.596   9.903
 1238SOL    HW2 4257   0.733   1.524   9.999
 1239SOL     OW 4258   1.424   0.214  10.422
 1239SOL    HW1 4259   1.476   0.149  10.477
 1239SOL    HW2 4260   1.375   0.277  10.483
 1240SOL     OW 4261   1.001   0.034  10.464
 1240SOL    HW1 4262   0.938  -0.038  10.433
 1240SOL    HW2 4263   1.094  -0.002  10.464
 1241SOL     OW 4264   0.770   1.330   9.611
 1241SOL    HW1 4265   0.724   1.243   9.628
 1241SOL    HW2 4266   0.861   1.327   9.652
 1242SOL     OW 4267   0.618   1.567  10.594
 1242SOL    HW1 4268   0.613   1.649  10.651
 1242SOL    HW2 4269   0.707   1.564  10.549
 1243SOL     OW 4270   1.352   0.052   9.478
 1243SOL    HW1 4271   1.387   0.011   9.394
 1243SOL    HW2 4272   1.262   0.014   9.498
 1244SOL     OW 4273   1.300   0.453  10.001
 1244SOL    HW1 4274   1.241   0.533  10.005
 1244SOL    HW2 4275   1.315   0.418  10.094
 1245SOL     OW 4276   1.593   0.221  10.192
 1245SOL    HW1 4277   1.509   0.220  10.246
 1245SOL    HW2 4278   1.595   0.304  10.136
 1246SOL     OW 4279   0.039   1.077   9.610
 1246SOL    HW1 4280   0.138   1.066   9.601
 1246SOL    HW2 4281  -0.001   0.991   9.642
 1247SOL     OW 4282   0.875   1.646   9.647
 1247SOL    HW1 4283   0.798   1.611   9.593
 1247SOL    HW2 4284   0.843   1.717   9.709
 1248SOL     OW 4285   0.230   0.628  11.285
 1248SOL    HW1 4286   0.137   0.626  11.322
 1248SOL    HW2 4287   0.231   0.589  11.193
 1249SOL     OW 4288   0.225   0.275  12.168
 1249SOL    HW1 4289   0.260   0.258  12.260
 1249SOL    HW2 4290   0.137   0.230  12.156
 1250SOL     OW 4291   0.019   0.368  11.819
 1250SOL    HW1 4292  -0.063   0.411  11.858
 1250SOL    HW2 4293  -0.009   0.295  11.756
 1251SOL     OW 4294   0.569   1.275  12.337
 1251SOL    HW1 4295   0.476   1.268  12.300
 1251SOL    HW2 4296   0.580   1.364  12.381
 1252SOL     OW 4297   1.555   1.511  11.875
 1252SOL    HW1 4298   1.498   1.495  11.956
 1252SOL    HW2 4299   1.496   1.521  11.795
 1253SOL     OW 4300   1.135   0.703  11.889
 1253SOL    HW1 4301   1.192   0.781  11.864
 1253SOL    HW2 4302   1.075   0.729  11.965
 1254SOL     OW 4303   1.755   0.607  11.403
 1254SOL    HW1 4304   1.743   0.594  11.304
 1254SOL    HW2 4305   1.725   0.526  11.452
 1255SOL     OW 4306   0.768   1.144  12.195
 1255SOL    HW1 4307   0.690   1.161  12.255
 1255SOL    HW2 4308   0.802   1.231  12.159
 1256SOL     OW 4309   0.850   0.798  12.995
 1256SOL    HW1 4310   0.846   0.874  13.060
 1256SOL    HW2 4311   0.872   0.834  12.904
 1257SOL     OW 4312   0.685   1.012  11.837
 1257SOL    HW1 4313   0.754   0.996  11.907
 1257SOL    HW2 4314   0.612   1.069  11.875
 1258SOL     OW 4315   0.686   1.161  12.975
 1258SOL    HW1 4316   0.746   1.240  12.989
 1258SOL    HW2 4317   0.600   1.192  12.934
 1259SOL     OW 4318   0.335   1.435  12.233
 1259SOL    HW1 4319   0.257   1.404  12.180
 1259SOL    HW2 4320   0.393   1.493  12.176
 1260SOL     OW 4321   1.460   1.505  12.511
 1260SOL    HW1 4322   1.484   1.599  12.537
 1260SOL    HW2 4323   1.444   1.451  12.593
 1261SOL     OW 4324   0.438   0.392  12.671
 1261SOL    HW1 4325   0.520   0.336  12.680
 1261SOL    HW2 4326   0.357   0.334  12.675
 1262SOL     OW 4327   1.603   0.447  11.909
 1262SOL    HW1 4328   1.529   0.493  11.859
 1262SOL    HW2 4329   1.654   0.515  11.962
 1263SOL     OW 4330   0.231   1.713  11.655
 1263SOL    HW1 4331   0.265   1.790  11.709
 1263SOL    HW2 4332   0.275   1.713  11.565
 1264SOL     OW 4333   1.127   1.341  12.862
 1264SOL    HW1 4334   1.174   1.341  12.950
 1264SOL    HW2 4335   1.079   1.254  12.851
 1265SOL     OW 4336   0.230   1.434  11.710
 1265SOL    HW1 4337   0.204   1.530  11.710
 1265SOL    HW2 4338   0.159   1.380  11.755
 1266SOL     OW 4339   0.240   1.091  12.058
 1266SOL    HW1 4340   0.254   1.007  12.110
 1266SOL    HW2 4341   0.185   1.155  12.113
 1267SOL     OW 4342   0.620   1.786  12.611
 1267SOL    HW1 4343   0.528   1.769  12.646
 1267SOL    HW2 4344   0.648   1.878  12.637
 1268SOL     OW 4345   0.606   0.964  11.295
 1268SOL    HW1 4346   0.613   1.048  11.241
 1268SOL    HW2 4347   0.652   0.977  11.383
 1269SOL     OW 4348   1.594   0.114  12.652
 1269SOL    HW1 4349   1.576   0.181  12.580
 1269SOL    HW2 4350   1.591   0.160  12.741
 1270SOL     OW 4351   0.122   0.643  11.735
 1270SOL    HW1 4352   0.077   0.555  11.752
 1270SOL    HW2 4353   0.121   0.697  11.819
 1271SOL     OW 4354   0.027   1.596  11.289
 1271SOL    HW1 4355   0.008   1.500  11.310
 1271SOL    HW2 4356  -0.006   1.654  11.364
 1272SOL     OW 4357   1.689   0.922  11.784
 1272SOL    HW1 4358   1.784   0.893  11.792
 1272SOL    HW2 4359   1.681   0.987  11.709
 1273SOL     OW 4360   1.641   1.108  11.604
 1273SOL    HW1 4361   1.727   1.110  11.552
 1273SOL    HW2 4362   1.655   1.155  11.692
 1274SOL     OW 4363   0.113   0.737  12.769
 1274SOL    HW1 4364   0.201   0.724  12.814
 1274SOL    HW2 4365   0.100   0.834  12.747
 1275SOL     OW 4366   0.613   1.365  11.898
 1275SOL    HW1 4367   0.564   1.278  11.907
 1275SOL    HW2 4368   0.590   1.408  11.811
 1276SOL     OW 4369   1.293   1.228  12.595
 1276SOL    HW1 4370   1.330   1.155  12.537
 1276SOL    HW2 4371   1.345   1.233  12.680
 1277SOL     OW 4372   0.809   0.004  11.674
 1277SOL    HW1 4373   0.849   0.095  11.665
 1277SOL    HW2 4374   0.709   0.012  11.680
 1278SOL     OW 4375   0.197   0.976  12.436
 1278SOL    HW1 4376   0.286   0.931  12.422
 1278SOL    HW2 4377   0.124   0.911  12.417
 1279SOL     OW 4378   1.525   0.999  11.362
 1279SOL    HW1 4379   1.462   0.923  11.375
 1279SOL    HW2 4380   1.573   1.017  11.448
 1280SOL     OW 4381   1.187   1.792  12.788
 1280SOL    HW1 4382   1.211   1.852  12.712
 1280SOL    HW2 4383   1.194   1.697  12.758
 1281SOL     OW 4384   0.317   0.251  12.973
 1281SOL    HW1 4385   0.388   0.322  12.979
 1281SOL    HW2 4386   0.229   0.290  13.001
 1282SOL     OW 4387   1.466   1.417  12.125
 1282SOL    HW1 4388   1.407   1.423  12.205
 1282SOL    HW2 4389   1.451   1.329  12.079
 1283SOL     OW 4390   1.667   1.714  11.744
 1283SOL    HW1 4391   1.626   1.691  11.656
 1283SOL    HW2 4392   1.649   1.640  11.809
 1284SOL     OW 4393   0.598   0.729  11.442
 1284SOL    HW1 4394   0.622   0.798  11.374
 1284SOL    HW2 4395   0.520   0.762  11.496
 1285SOL     OW 4396   1.281   0.345  12.116
 1285SOL    HW1 4397   1.195   0.295  12.103
 1285SOL    HW2 4398   1.343   0.291  12.172
 1286SOL     OW 4399   1.576   1.662  11.479
 1286SOL    HW1 4400   1.665   1.708  11.482
 1286SOL    HW2 4401   1.555   1.638  11.384
 1287SOL     OW 4402   0.807   0.605  12.637
 1287SOL    HW1 4403   0.760   0.602  12.726
 1287SOL    HW2 4404   0.756   0.550  12.571
 1288SOL     OW 4405   1.394   0.469  12.846
 1288SOL    HW1 4406   1.374   0.512  12.934
 1288SOL    HW2 4407   1.472   0.407  12.855
 1289SOL     OW 4408   0.973   0.890  12.744
 1289SOL    HW1 4409   1.019   0.806  12.715
 1289SOL    HW2 4410   0.917   0.924  12.669
 1290SOL     OW 4411   0.991   0.410  12.414
 1290SOL    HW1 4412   0.914   0.444  12.468
 1290SOL    HW2 4413   0.957   0.359  12.335
 1291SOL     OW 4414   1.041   0.701  11.601
 1291SOL    HW1 4415   1.067   0.697  11.697
 1291SOL    HW2 4416   0.956   0.650  11.587
 1292SOL     OW 4417   0.076   0.811  11.961
 1292SOL    HW1 4418   0.175   0.799  11.970
 1292SOL    HW2 4419   0.052   0.906  11.982
 1293SOL     OW 4420   0.130   1.821  12.743
 1293SOL    HW1 4421   0.120   1.806  12.842
 1293SOL    HW2 4422   0.044   1.857  12.707
 1294SOL     OW 4423   0.865   0.348  11.367
 1294SOL    HW1 4424   0.924   0.411  11.318
 1294SOL    HW2 4425   0.884   0.254  11.338
 1295SOL     OW 4426   1.719   0.585  13.003
 1295SOL    HW1 4427   1.693   0.674  12.967
 1295SOL    HW2 4428   1.717   0.517  12.930
 1296SOL     OW 4429   1.362   1.144  11.717
 1296SOL    HW1 4430   1.445   1.115  11.669
 1296SOL    HW2 4431   1.313   1.211  11.661
 1297SOL     OW 4432   0.550   0.196  12.057
 1297SOL    HW1 4433   0.545   0.191  12.157
 1297SOL    HW2 4434   0.552   0.292  12.028
 1298SOL     OW 4435   1.008   1.456  11.649
 1298SOL    HW1 4436   0.962   1.528  11.597
 1298SOL    HW2 4437   1.004   1.476  11.747
 1299SOL     OW 4438   0.351   1.801  12.025
 1299SOL    HW1 4439   0.401   1.715  12.031
 1299SOL    HW2 4440   0.416   1.878  12.022
 1300SOL     OW 4441   1.795   1.066  12.045
 1300SOL    HW1 4442   1.733   1.051  11.969
 1300SOL    HW2 4443   1.743   1.077  12.130
 1301SOL     OW 4444   1.227   1.550  12.678
 1301SOL    HW1 4445   1.233   1.473  12.742
 1301SOL    HW2 4446   1.175   1.524  12.598
 1302SOL     OW 4447   0.321   0.943  11.414
 1302SOL    HW1 4448   0.403   0.982  11.372
 1302SOL    HW2 4449   0.294   0.861  11.365
 1303SOL     OW 4450   1.458   0.735  11.900
 1303SOL    HW1 4451   1.453   0.670  11.975
 1303SOL    HW2 4452   1.538   0.794  11.913
 1304SOL     OW 4453   0.461   1.266  12.899
 1304SOL    HW1 4454   0.411   1.267  12.813
 1304SOL    HW2 4455   0.398   1.248  12.975
 1305SOL     OW 4456   1.111   1.776  11.409
 1305SOL    HW1 4457   1.051   1.714  11.459
 1305SOL    HW2 4458   1.142   1.732  11.324
 1306SOL     OW 4459   0.202   0.285  12.670
 1306SOL    HW1 4460   0.122   0.345  12.657
 1306SOL    HW2 4461   0.192   0.236  12.756
 1307SOL     OW 4462   1.632   1.377  11.253
 1307SOL    HW1 4463   1.600   1.471  11.243
 1307SOL    HW2 4464   1.556   1.314  11.241
 1308SOL     OW 4465   0.464   1.743  11.495
 1308SOL    HW1 4466   0.497   1.782  11.581
 1308SOL    HW2 4467   0.540   1.736  11.430
 1309SOL     OW 4468   1.400   0.107  11.598
 1309SOL    HW1 4469   1.376   0.070  11.508
 1309SOL    HW2 4470   1.499   0.123  11.602
 1310SOL     OW 4471   0.249   1.785  12.413
 1310SOL    HW1 4472   0.306   1.720  12.463
 1310SOL    HW2 4473   0.233   1.752  12.320
 1311SOL     OW 4474   0.940   1.698  12.076
 1311SOL    HW1 4475   1.020   1.641  12.097
 1311SOL    HW2 4476   0.891   1.658  11.999
 1312SOL     OW 4477   0.382   0.700  11.652
 1312SOL    HW1 4478   0.427   0.610  11.649
 1312SOL    HW2 4479   0.288   0.689  11.685
 1313SOL     OW 4480   1.547   0.222  12.901
 1313SOL    HW1 4481   1.542   0.259  12.993
 1313SOL    HW2 4482   1.475   0.153  12.889
 1314SOL     OW 4483   0.614   0.122  11.289
 1314SOL    HW1 4484   0.712   0.100  11.296
 1314SOL    HW2 4485   0.583   0.105  11.196
 1315SOL     OW 4486   0.781   0.264  12.921
 1315SOL    HW1 4487   0.848   0.203  12.964
 1315SOL    HW2 4488   0.708   0.283  12.986
 1316SOL     OW 4489   0.888   1.514  12.367
 1316SOL    HW1 4490   0.865   1.489  12.273
 1316SOL    HW2 4491   0.949   1.445  12.406
 1317SOL     OW 4492   1.351   0.590  12.605
 1317SOL    HW1 4493   1.379   0.547  12.690
 1317SOL    HW2 4494   1.376   0.686  12.606
 1318SOL     OW 4495   0.803   1.402  12.096
 1318SOL    HW1 4496   0.893   1.416  12.054
 1318SOL    HW2 4497   0.732   1.404  12.025
 1319SOL     OW 4498   0.922   0.503  12.071
 1319SOL    HW1 4499   0.897   0.494  11.975
 1319SOL    HW2 4500   0.970   0.421  12.102
 1320SOL     OW 4501   0.539   0.064  11.684
 1320SOL    HW1 4502   0.458   0.065  11.742
 1320SOL    HW2 4503   0.542   0.147  11.629
 1321SOL     OW 4504   1.434   1.188  11.213
 1321SOL    HW1 4505   1.466   1.112  11.270
 1321SOL    HW2 4506   1.342   1.215  11.243
 1322SOL     OW 4507   0.297   0.035  11.343
 1322SOL    HW1 4508   0.346   0.119  11.322
 1322SOL    HW2 4509   0.359  -0.030  11.388
 1323SOL     OW 4510   0.935   0.236  11.652
 1323SOL    HW1 4511   0.887   0.277  11.574
 1323SOL    HW2 4512   1.034   0.234  11.633
 1324SOL     OW 4513   1.076   0.683  12.636
 1324SOL    HW1 4514   0.996   0.622  12.639
 1324SOL    HW2 4515   1.157   0.630  12.612
 1325SOL     OW 4516   1.227   1.570  11.965
 1325SOL    HW1 4517   1.248   1.644  11.900
 1325SOL    HW2 4518   1.295   1.570  12.038
 1326SOL     OW 4519   0.459   1.152  11.913
 1326SOL    HW1 4520   0.388   1.125  11.978
 1326SOL    HW2 4521   0.433   1.124  11.820
 1327SOL     OW 4522   1.271   1.797  11.763
 1327SOL    HW1 4523   1.315   1.861  11.699
 1327SOL    HW2 4524   1.221   1.849  11.833
 1328SOL     OW 4525   1.032   0.549  11.188
 1328SOL    HW1 4526   0.991   0.631  11.149
 1328SOL    HW2 4527   1.096   0.575  11.261
 1329SOL     OW 4528   0.078   0.556  12.558
 1329SOL    HW1 4529   0.170   0.555  12.517
 1329SOL    HW2 4530   0.072   0.630  12.625
 1330SOL     OW 4531   0.561   0.222  12.319
 1330SOL    HW1 4532   0.599   0.138  12.356
 1330SOL    HW2 4533   0.473   0.241  12.363
 1331SOL     OW 4534   0.866   0.454  11.814
 1331SOL    HW1 4535   0.834   0.526  11.752
 1331SOL    HW2 4536   0.890   0.373  11.761
 1332SOL     OW 4537   1.017   0.039  11.925
 1332SOL    HW1 4538   0.945   0.044  11.856
 1332SOL    HW2 4539   0.993  -0.030  11.994
 1333SOL     OW 4540   1.429   1.173  12.039
 1333SOL    HW1 4541   1.374   1.089  12.032
 1333SOL    HW2 4542   1.455   1.202  11.947
 1334SOL     OW 4543   1.466   0.590  12.164
 1334SOL    HW1 4544   1.436   0.495  12.171
 1334SOL    HW2 4545   1.539   0.606  12.230
 1335SOL     OW 4546   1.857   0.833  11.549
 1335SOL    HW1 4547   1.899   0.769  11.613
 1335SOL    HW2 4548   1.819   0.782  11.471
 1336SOL     OW 4549   0.488   1.385  11.346
 1336SOL    HW1 4550   0.401   1.370  11.393
 1336SOL    HW2 4551   0.471   1.411  11.251
 1337SOL     OW 4552   1.664   1.280  11.829
 1337SOL    HW1 4553   1.763   1.288  11.843
 1337SOL    HW2 4554   1.619   1.364  11.860
 1338SOL     OW 4555   1.390   0.575  11.250
 1338SOL    HW1 4556   1.336   0.554  11.331
 1338SOL    HW2 4557   1.481   0.534  11.259
 1339SOL     OW 4558   0.527   0.256  11.500
 1339SOL    HW1 4559   0.554   0.197  11.425
 1339SOL    HW2 4560   0.527   0.351  11.469
 1340SOL     OW 4561   1.754   1.223  12.760
 1340SOL    HW1 4562   1.845   1.184  12.747
 1340SOL    HW2 4563   1.762   1.319  12.784
 1341SOL     OW 4564   1.064   1.347  12.512
 1341SOL    HW1 4565   0.984   1.324  12.567
 1341SOL    HW2 4566   1.147   1.321  12.561
 1342SOL     OW 4567   1.592   1.629  12.797
 1342SOL    HW1 4568   1.619   1.663  12.707
 1342SOL    HW2 4569   1.671   1.591  12.843
 1343SOL     OW 4570   1.111   1.195  12.272
 1343SOL    HW1 4571   1.071   1.239  12.353
 1343SOL    HW2 4572   1.070   1.232  12.189
 1344SOL     OW 4573   1.638   1.099  12.251
 1344SOL    HW1 4574   1.643   1.180  12.310
 1344SOL    HW2 4575   1.552   1.101  12.200
 1345SOL     OW 4576   0.915   0.089  12.574
 1345SOL    HW1 4577   0.940   0.069  12.479
 1345SOL    HW2 4578   0.987   0.145  12.616
 1346SOL     OW 4579   0.980   1.116  12.891
 1346SOL    HW1 4580   0.881   1.122  12.901
 1346SOL    HW2 4581   1.003   1.036  12.835
 1347SOL     OW 4582   0.705   1.050  11.540
 1347SOL    HW1 4583   0.691   1.057  11.639
 1347SOL    HW2 4584   0.789   0.999  11.522
 1348SOL     OW 4585   0.410   0.813  12.423
 1348SOL    HW1 4586   0.496   0.825  12.473
 1348SOL    HW2 4587   0.368   0.726  12.450
 1349SOL     OW 4588   1.274   0.386  12.434
 1349SOL    HW1 4589   1.295   0.460  12.498
 1349SOL    HW2 4590   1.185   0.403  12.391
 1350SOL     OW 4591   0.064   1.564  12.503
 1350SOL    HW1 4592   0.018   1.646  12.469
 1350SOL    HW2 4593   0.162   1.583  12.512
 1351SOL     OW 4594   0.367   1.100  11.673
 1351SOL    HW1 4595   0.360   1.183  11.617
 1351SOL    HW2 4596   0.371   1.020  11.613
 1352SOL     OW 4597   0.566   0.537  12.037
 1352SOL    HW1 4598   0.578   0.603  11.963
 1352SOL    HW2 4599   0.612   0.571  12.120
 1353SOL     OW 4600   1.252   1.348  11.560
 1353SOL    HW1 4601   1.302   1.425  11.600
 1353SOL    HW2 4602   1.157   1.350  11.592
 1354SOL     OW 4603   1.272   1.445  12.314
 1354SOL    HW1 4604   1.319   1.458  12.401
 1354SOL    HW2 4605   1.206   1.371  12.323
 1355SOL     OW 4606   1.582   0.639  11.644
 1355SOL    HW1 4607   1.551   0.700  11.717
 1355SOL    HW2 4608   1.632   0.691  11.575
 1356SOL     OW 4609   0.354   1.510  12.501
 1356SOL    HW1 4610   0.333   1.466  12.414
 1356SOL    HW2 4611   0.451   1.536  12.504
 1357SOL     OW 4612   0.402   0.751  12.770
 1357SOL    HW1 4613   0.470   0.806  12.723
 1357SOL    HW2 4614   0.442   0.663  12.797
 1358SOL     OW 4615   1.587   0.779  12.842
 1358SOL    HW1 4616   1.495   0.817  12.837
 1358SOL    HW2 4617   1.647   0.826  12.777
 1359SOL     OW 4618   1.013   0.105  12.942
 1359SOL    HW1 4619   1.019   0.190  12.890
 1359SOL    HW2 4620   1.045   0.029  12.885
 1360SOL     OW 4621   0.504   0.050  12.912
 1360SOL    HW1 4622   0.462  -0.007  12.842
 1360SOL    HW2 4623   0.438   0.119  12.944
 1361SOL     OW 4624   0.573   0.870  12.201
 1361SOL    HW1 4625   0.617   0.959  12.192
 1361SOL    HW2 4626   0.510   0.870  12.278
 1362SOL     OW 4627   1.360   0.862  12.217
 1362SOL    HW1 4628   1.285   0.862  12.151
 1362SOL    HW2 4629   1.397   0.770  12.226
 1363SOL     OW 4630   1.209   0.525  11.447
 1363SOL    HW1 4631   1.222   0.441  11.501
 1363SOL    HW2 4632   1.180   0.599  11.507
 1364SOL     OW 4633   0.307   0.213  12.403
 1364SOL    HW1 4634   0.284   0.250  12.493
 1364SOL    HW2 4635   0.277   0.118  12.397
 1365SOL     OW 4636   0.037   1.310  12.454
 1365SOL    HW1 4637   0.090   1.261  12.522
 1365SOL    HW2 4638   0.059   1.408  12.459
 1366SOL     OW 4639   0.732   0.634  12.236
 1366SOL    HW1 4640   0.791   0.608  12.160
 1366SOL    HW2 4641   0.704   0.730  12.225
 1367SOL     OW 4642   1.728   0.935  13.026
 1367SOL    HW1 4643   1.682   0.928  12.937
 1367SOL    HW2 4644   1.666   0.979  13.092
 1368SOL     OW 4645   0.307   0.063  11.790
 1368SOL    HW1 4646   0.296   0.157  11.823
 1368SOL    HW2 4647   0.302   0.000  11.867
 1369SOL     OW 4648   1.622   0.367  11.546
 1369SOL    HW1 4649   1.624   0.291  11.610
 1369SOL    HW2 4650   1.574   0.444  11.586
 1370SOL     OW 4651   1.023   0.766  12.138
 1370SOL    HW1 4652   1.038   0.787  12.234
 1370SOL    HW2 4653   0.993   0.671  12.129
 1371SOL     OW 4654   0.980   1.573  12.872
 1371SOL    HW1 4655   0.960   1.617  12.784
 1371SOL    HW2 4656   1.019   1.482  12.856
 1372SOL     OW 4657   1.859   1.518  12.777
 1372SOL    HW1 4658   1.873   1.545  12.682
 1372SOL    HW2 4659   1.942   1.540  12.830
 1373SOL     OW 4660   0.350   0.898  12.976
 1373SOL    HW1 4661   0.426   0.942  13.024
 1373SOL    HW2 4662   0.385   0.851  12.894
 1374SOL     OW 4663   1.540   0.274  11.297
 1374SOL    HW1 4664   1.479   0.199  11.320
 1374SOL    HW2 4665   1.562   0.326  11.380
 1375SOL     OW 4666   1.303   0.838  11.214
 1375SOL    HW1 4667   1.337   0.745  11.229
 1375SOL    HW2 4668   1.321   0.865  11.119
 1376SOL     OW 4669   1.068   1.333  12.021
 1376SOL    HW1 4670   1.075   1.249  11.966
 1376SOL    HW2 4671   1.130   1.402  11.985
 1377SOL     OW 4672   0.319   0.810  12.121
 1377SOL    HW1 4673   0.412   0.846  12.126
 1377SOL    HW2 4674   0.313   0.725  12.173
 1378SOL     OW 4675   0.339   0.509  12.178
 1378SOL    HW1 4676   0.287   0.426  12.161
 1378SOL    HW2 4677   0.416   0.514  12.114
 1379SOL     OW 4678   1.138   0.380  12.850
 1379SOL    HW1 4679   1.093   0.443  12.914
 1379SOL    HW2 4680   1.231   0.411  12.833
 1380SOL     OW 4681   1.160   0.207  12.649
 1380SOL    HW1 4682   1.160   0.271  12.726
 1380SOL    HW2 4683   1.188   0.255  12.566
 1381SOL     OW 4684   0.008   1.326  11.372
 1381SOL    HW1 4685  -0.085   1.347  11.341
 1381SOL    HW2 4686   0.018   1.227  11.385
 1382SOL     OW 4687   0.088   1.801  12.099
 1382SOL    HW1 4688   0.046   1.715  12.072
 1382SOL    HW2 4689   0.182   1.804  12.065
 1383SOL     OW 4690   0.504   1.568  12.082
 1383SOL    HW1 4691   0.570   1.642  12.091
 1383SOL    HW2 4692   0.548   1.489  12.040
 1384SOL     OW 4693   1.002   0.796  12.410
 1384SOL    HW1 4694   1.043   0.764  12.496
 1384SOL    HW2 4695   0.906   0.769  12.407
 1385SOL     OW 4696   0.040   0.544  12.286
 1385SOL    HW1 4697   0.125   0.511  12.245
 1385SOL    HW2 4698   0.053   0.559  12.384
 1386SOL     OW 4699   0.189   0.520  12.894
 1386SOL    HW1 4700   0.248   0.480  12.824
 1386SOL    HW2 4701   0.131   0.591  12.853
 1387SOL     OW 4702   1.369   0.950  12.832
 1387SOL    HW1 4703   1.408   1.039  12.852
 1387SOL    HW2 4704   1.379   0.930  12.735
 1388SOL     OW 4705   0.815   0.572  11.497
 1388SOL    HW1 4706   0.822   0.483  11.451
 1388SOL    HW2 4707   0.721   0.606  11.489
 1389SOL     OW 4708   1.657   0.604  12.378
 1389SOL    HW1 4709   1.619   0.535  12.440
 1389SOL    HW2 4710   1.739   0.568  12.334
 1390SOL     OW 4711   0.252   1.564  12.916
 1390SOL    HW1 4712   0.222   1.621  12.992
 1390SOL    HW2 4713   0.245   1.467  12.942
 1391SOL     OW 4714   0.671   0.464  12.441
 1391SOL    HW1 4715   0.637   0.375  12.411
 1391SOL    HW2 4716   0.697   0.518  12.361
 1392SOL     OW 4717   0.930   1.678  12.637
 1392SOL    HW1 4718   0.906   1.660  12.542
 1392SOL    HW2 4719   0.960   1.772  12.647
 1393SOL     OW 4720   0.473   0.500  11.363
 1393SOL    HW1 4721   0.534   0.580  11.367
 1393SOL    HW2 4722   0.378   0.531  11.370
 1394SOL     OW 4723   0.159   1.137  12.638
 1394SOL    HW1 4724   0.181   1.076  12.714
 1394SOL    HW2 4725   0.169   1.088  12.552
 1395SOL     OW 4726   1.347   1.059  12.406
 1395SOL    HW1 4727   1.371   0.996  12.332
 1395SOL    HW2 4728   1.257   1.099  12.388
 1396SOL     OW 4729   1.302   0.855  11.481
 1396SOL    HW1 4730   1.216   0.824  11.523
 1396SOL    HW2 4731   1.298   0.841  11.382
 1397SOL     OW 4732   1.759   1.747  12.326
 1397SOL    HW1 4733   1.820   1.777  12.253
 1397SOL    HW2 4734   1.721   1.658  12.304
 1398SOL     OW 4735   1.252   1.731  12.300
 1398SOL    HW1 4736   1.336   1.736  12.246
 1398SOL    HW2 4737   1.229   1.635  12.318
 1399SOL     OW 4738   0.083   1.258  12.194
 1399SOL    HW1 4739   0.078   1.257  12.294
 1399SOL    HW2 4740   0.000   1.217  12.156
 1400SOL     OW 4741   0.688   1.662  12.888
 1400SOL    HW1 4742   0.632   1.743  12.897
 1400SOL    HW2 4743   0.740   1.666  12.802
 1401SOL     OW 4744   1.726   0.135  11.695
 1401SOL    HW1 4745   1.799   0.118  11.628
 1401SOL    HW2 4746   1.695   0.048  11.733
 1402SOL     OW 4747   1.388   1.573  11.649
 1402SOL    HW1 4748   1.455   1.585  11.575
 1402SOL    HW2 4749   1.348   1.662  11.672
 1403SOL     OW 4750   0.130   1.794  13.023
 1403SOL    HW1 4751   0.089   1.720  13.076
 1403SOL    HW2 4752   0.194   1.845  13.081
 1404SOL     OW 4753   1.280   0.927  11.844
 1404SOL    HW1 4754   1.340   0.846  11.846
 1404SOL    HW2 4755   1.320   0.996  11.784
 1405SOL     OW 4756   0.830   1.273  12.594
 1405SOL    HW1 4757   0.825   1.306  12.689
 1405SOL    HW2 4758   0.744   1.292  12.548
 1406SOL     OW 4759   0.672   1.616  11.326
 1406SOL    HW1 4760   0.681   1.626  11.227
 1406SOL    HW2 4761   0.632   1.527  11.347
 1407SOL     OW 4762   1.650   1.720  12.566
 1407SOL    HW1 4763   1.703   1.730  12.482
 1407SOL    HW2 4764   1.623   1.810  12.600
 1408SOL     OW 4765   1.841   0.175  12.135
 1408SOL    HW1 4766   1.880   0.090  12.099
 1408SOL    HW2 4767   1.743   0.177  12.116
 1409SOL     OW 4768   0.263   0.326  11.892
 1409SOL    HW1 4769   0.184   0.377  11.858
 1409SOL    HW2 4770   0.254   0.311  11.990
 1410SOL     OW 4771   1.194   1.612  11.203
 1410SOL    HW1 4772   1.200   1.519  11.240
 1410SOL    HW2 4773   1.135   1.612  11.123
 1411SOL     OW 4774   0.822   1.002  12.544
 1411SOL    HW1 4775   0.862   1.001  12.452
 1411SOL    HW2 4776   0.832   1.094  12.584
 1412SOL     OW 4777   0.916   0.910  11.463
 1412SOL    HW1 4778   0.979   0.948  11.395
 1412SOL    HW2 4779   0.956   0.827  11.502
 1413SOL     OW 4780   1.504   1.607  11.216
 1413SOL    HW1 4781   1.412   1.644  11.223
 1413SOL    HW2 4782   1.542   1.627  11.126
 1414SOL     OW 4783   0.372   1.288  12.662
 1414SOL    HW1 4784   0.359   1.381  12.628
 1414SOL    HW2 4785   0.288   1.236  12.649
 1415SOL     OW 4786   1.614   1.292  12.461
 1415SOL    HW1 4787   1.674   1.295  12.541
 1415SOL    HW2 4788   1.539   1.356  12.474
 1416SOL     OW 4789   1.039   1.098  11.868
 1416SOL    HW1 4790   0.969   1.051  11.922
 1416SOL    HW2 4791   1.098   1.030  11.825
 1417SOL     OW 4792   1.014   0.236  12.143
 1417SOL    HW1 4793   1.006   0.200  12.050
 1417SOL    HW2 4794   1.012   0.160  12.208
 1418SOL     OW 4795   0.590   1.487  11.663
 1418SOL    HW1 4796   0.632   1.429  11.593
 1418SOL    HW2 4797   0.546   1.566  11.619
 1419SOL     OW 4798   1.709   0.385  12.553
 1419SOL    HW1 4799   1.782   0.454  12.557
 1419SOL    HW2 4800   1.737   0.310  12.494
 1420SOL     OW 4801   0.255   1.348  11.462
 1420SOL    HW1 4802   0.159   1.349  11.435
 1420SOL    HW2 4803   0.267   1.401  11.546
 1421SOL     OW 4804   0.105   1.013  12.898
 1421SOL    HW1 4805   0.028   0.980  12.952
 1421SOL    HW2 4806   0.190   0.983  12.940
 1422SOL     OW 4807   0.672   0.203  12.661
 1422SOL    HW1 4808   0.762   0.187  12.621
 1422SOL    HW2 4809   0.680   0.208  12.760
 1423SOL     OW 4810   0.075   0.345  11.205
 1423SOL    HW1 4811  -0.017   0.317  11.176
 1423SOL    HW2 4812   0.106   0.422  11.149
 1424SOL     OW 4813   1.440   0.856  12.570
 1424SOL    HW1 4814   1.383   0.908  12.507
 1424SOL    HW2 4815   1.536   0.868  12.546
 1425SOL     OW 4816   0.072   0.166  11.490
 1425SOL    HW1 4817   0.055   0.249  11.436
 1425SOL    HW2 4818   0.162   0.129  11.468
 1426SOL     OW 4819   1.183   1.335  11.291
 1426SOL    HW1 4820   1.084   1.324  11.293
 1426SOL    HW2 4821   1.217   1.350  11.384
 1427SOL     OW 4822   0.613   0.842  12.603
 1427SOL    HW1 4823   0.669   0.923  12.586
 1427SOL    HW2 4824   0.672   0.762  12.606
 1428SOL     OW 4825   1.493   1.767  12.131
 1428SOL    HW1 4826   1.526   1.831  12.062
 1428SOL    HW2 4827   1.559   1.761  12.206
 1429SOL     OW 4828   0.716   0.565  12.880
 1429SOL    HW1 4829   0.735   0.630  12.954
 1429SOL    HW2 4830   0.776   0.485  12.889
 1430SOL     OW 4831   1.450   1.220  12.805
 1430SOL    HW1 4832   1.441   1.210  12.904
 1430SOL    HW2 4833   1.546   1.213  12.779
 1431SOL     OW 4834   0.390   1.741  12.732
 1431SOL    HW1 4835   0.299   1.782  12.730
 1431SOL    HW2 4836   0.383   1.647  12.764
 1432SOL     OW 4837   1.674   0.883  12.426
 1432SOL    HW1 4838   1.647   0.794  12.389
 1432SOL    HW2 4839   1.675   0.951  12.353
 1433SOL     OW 4840   1.225   0.325  11.621
 1433SOL    HW1 4841   1.290   0.251  11.610
 1433SOL    HW2 4842   1.245   0.375  11.705
 1434SOL     OW 4843   0.594   0.745  11.824
 1434SOL    HW1 4844   0.644   0.830  11.805
 1434SOL    HW2 4845   0.506   0.747  11.776
 1435SOL     OW 4846   1.777   0.342  12.814
 1435SOL    HW1 4847   1.760   0.373  12.720
 1435SOL    HW2 4848   1.693   0.305  12.852
 1436SOL     OW 4849   1.730   0.934  12.689
 1436SOL    HW1 4850   1.768   1.025  12.704
 1436SOL    HW2 4851   1.722   0.917  12.590
 1437SOL     OW 4852   0.859   1.374  11.188
 1437SOL    HW1 4853   0.813   1.389  11.276
 1437SOL    HW2 4854   0.903   1.459  11.158
 1438SOL     OW 4855   0.661   1.790  12.125
 1438SOL    HW1 4856   0.615   1.878  12.112
 1438SOL    HW2 4857   0.760   1.802  12.118
 1439SOL     OW 4858   0.859   0.956  12.033
 1439SOL    HW1 4859   0.913   0.887  12.081
 1439SOL    HW2 4860   0.827   1.025  12.099
 1440SOL     OW 4861   1.083   0.984  11.259
 1440SOL    HW1 4862   1.060   1.037  11.177
 1440SOL    HW2 4863   1.164   0.928  11.240
 1441SOL     OW 4864   1.861   1.569  12.023
 1441SOL    HW1 4865   1.790   1.557  11.953
 1441SOL    HW2 4866   1.862   1.490  12.083
 1442SOL     OW 4867   0.221   1.314  13.016
 1442SOL    HW1 4868   0.156   1.241  12.995
 1442SOL    HW2 4869   0.225   1.328  13.114
 1443SOL     OW 4870   0.079   1.240  11.825
 1443SOL    HW1 4871   0.078   1.193  11.913
 1443SOL    HW2 4872   0.161   1.212  11.774
 1444SOL     OW 4873   0.672   1.391  12.796
 1444SOL    HW1 4874   0.594   1.341  12.834
 1444SOL    HW2 4875   0.669   1.486  12.827
 1445SOL     OW 4876   1.824   0.192  12.399
 1445SOL    HW1 4877   1.820   0.102  12.443
 1445SOL    HW2 4878   1.827   0.181  12.300
 1446SOL     OW 4879   0.428   0.424  11.692
 1446SOL    HW1 4880   0.458   0.352  11.630
 1446SOL    HW2 4881   0.389   0.384  11.775
 1447SOL     OW 4882   1.705   1.487  12.276
 1447SOL    HW1 4883   1.612   1.462  12.249
 1447SOL    HW2 4884   1.731   1.437  12.358
 1448SOL     OW 4885   0.317   0.547  12.452
 1448SOL    HW1 4886   0.355   0.488  12.524
 1448SOL    HW2 4887   0.357   0.521  12.364
 1449SOL     OW 4888   0.812   1.586  11.859
 1449SOL    HW1 4889   0.844   1.596  11.765
 1449SOL    HW2 4890   0.733   1.524  11.861
 1450SOL     OW 4891   1.424   0.214  12.284
 1450SOL    HW1 4892   1.476   0.149  12.339
 1450SOL    HW2 4893   1.375   0.277  12.345
 1451SOL     OW 4894   1.001   0.034  12.326
 1451SOL    HW1 4895   0.938  -0.038  12.295
 1451SOL    HW2 4896   1.094  -0.002  12.326
 1452SOL     OW 4897   0.770   1.330  11.473
 1452SOL    HW1 4898   0.724   1.243  11.490
 1452SOL    HW2 4899   0.861   1.327  11.514
 1453SOL     OW 4900   0.618   1.567  12.456
 1453SOL    HW1 4901   0.613   1.649  12.513
 1453SOL    HW2 4902   0.707   1.564  12.411
 1454SOL     OW 4903   1.352   0.052  11.340
 1454SOL    HW1 4904   1.387   0.011  11.256
 1454SOL    HW2 4905   1.262   0.014  11.360
 1455SOL     OW 4906   1.300   0.453  11.863
 1455SOL    HW1 4907   1.241   0.533  11.867
 1455SOL    HW2 4908   1.315   0.418  11.956
 1456SOL     OW 4909   1.593   0.221  12.054
 1456SOL    HW1 4910   1.509   0.220  12.108
 1456SOL    HW2 4911   1.595   0.304  11.998
 1457SOL     OW 4912   0.039   1.077  11.472
 1457SOL    HW1 4913   0.138   1.066  11.463
 1457SOL    HW2 4914  -0.001   0.991  11.504
 1458SOL     OW 4915   0.875   1.646  11.509
 1458SOL    HW1 4916   0.798   1.611  11.455
 1458SOL    HW2 4917   0.843   1.717  11.571
 1459SOL     OW 4918   0.230   0.628  13.147
 1459SOL    HW1 4919   0.137   0.626  13.184
 1459SOL    HW2 4920   0.231   0.589  13.055
 1460SOL     OW 4921   0.225   0.275  14.030
 1460SOL    HW1 4922   0.260   0.258  14.122
 1460SOL    HW2 4923   0.137   0.230  14.018
 1461SOL     OW 4924   0.019   0.368  13.681
 1461SOL    HW1 4925  -0.063   0.411  13.720
 1461SOL    HW2 4926  -0.009   0.295  13.618
 1462SOL     OW 4927   1.555   1.511  13.737
 1462SOL    HW1 4928   1.498   1.495  13.818
 1462SOL    HW2 4929   1.496   1.521  13.657
 1463SOL     OW 4930   1.135   0.703  13.751
 1463SOL    HW1 4931   1.192   0.781  13.726
 1463SOL    HW2 4932   1.075   0.729  13.827
 1464SOL     OW 4933   1.755   0.607  13.265
 1464SOL    HW1 4934   1.743   0.594  13.166
 1464SOL    HW2 4935   1.725   0.526  13.314
 1465SOL     OW 4936   0.685   1.012  13.699
 1465SOL    HW1 4937   0.754   0.996  13.769
 1465SOL    HW2 4938   0.612   1.069  13.737
 1466SOL     OW 4939   1.603   0.447  13.771
 1466SOL    HW1 4940   1.529   0.493  13.721
 1466SOL    HW2 4941   1.654   0.515  13.824
 1467SOL     OW 4942   0.231   1.713  13.517
 1467SOL    HW1 4943   0.265   1.790  13.571
 1467SOL    HW2 4944   0.275   1.713  13.427
 1468SOL     OW 4945   0.230   1.434  13.572
 1468SOL    HW1 4946   0.204   1.530  13.572
 1468SOL    HW2 4947   0.159   1.380  13.617
 1469SOL     OW 4948   0.240   1.091  13.920
 1469SOL    HW1 4949   0.254   1.007  13.972
 1469SOL    HW2 4950   0.185   1.155  13.975
 1470SOL     OW 4951   0.606   0.964  13.157
 1470SOL    HW1 4952   0.613   1.048  13.103
 1470SOL    HW2 4953   0.652   0.977  13.245
 1471SOL     OW 4954   0.122   0.643  13.597
 1471SOL    HW1 4955   0.077   0.555  13.614
 1471SOL    HW2 4956   0.121   0.697  13.681
 1472SOL     OW 4957   0.027   1.596  13.151
 1472SOL    HW1 4958   0.008   1.500  13.172
 1472SOL    HW2 4959  -0.006   1.654  13.226
 1473SOL     OW 4960   1.689   0.922  13.646
 1473SOL    HW1 4961   1.784   0.893  13.654
 1473SOL    HW2 4962   1.681   0.987  13.571
 1474SOL     OW 4963   1.641   1.108  13.466
 1474SOL    HW1 4964   1.727   1.110  13.414
 1474SOL    HW2 4965   1.655   1.155  13.554
 1475SOL     OW 4966   0.613   1.365  13.760
 1475SOL    HW1 4967   0.564   1.278  13.769
 1475SOL    HW2 4968   0.590   1.408  13.673
 1476SOL     OW 4969   0.809   0.004  13.536
 1476SOL    HW1 4970   0.849   0.095  13.527
 1476SOL    HW2 4971   0.709   0.012  13.542
 1477SOL     OW 4972   1.525   0.999  13.224
 1477SOL    HW1 4973   1.462   0.923  13.237
 1477SOL    HW2 4974   1.573   1.017  13.310
 1478SOL     OW 4975   1.667   1.714  13.606
 1478SOL    HW1 4976   1.626   1.691  13.518
 1478SOL    HW2 4977   1.649   1.640  13.671
 1479SOL     OW 4978   0.598   0.729  13.304
 1479SOL    HW1 4979   0.622   0.798  13.236
 1479SOL    HW2 4980   0.520   0.762  13.358
 1480SOL     OW 4981   1.281   0.345  13.978
 1480SOL    HW1 4982   1.195   0.295  13.965
 1480SOL    HW2 4983   1.343   0.291  14.034
 1481SOL     OW 4984   1.576   1.662  13.341
 1481SOL    HW1 4985   1.665   1.708  13.344
 1481SOL    HW2 4986   1.555   1.638  13.246
 1482SOL     OW 4987   1.041   0.701  13.463
 1482SOL    HW1 4988   1.067   0.697  13.559
 1482SOL    HW2 4989   0.956   0.650  13.449
 1483SOL     OW 4990   0.076   0.811  13.823
 1483SOL    HW1 4991   0.175   0.799  13.832
 1483SOL    HW2 4992   0.052   0.906  13.844
 1484SOL     OW 4993   0.865   0.348  13.229
 1484SOL    HW1 4994   0.924   0.411  13.180
 1484SOL    HW2 4995   0.884   0.254  13.200
 1485SOL     OW 4996   1.362   1.144  13.579
 1485SOL    HW1 4997   1.445   1.115  13.531
 1485SOL    HW2 4998   1.313   1.211  13.523
 1486SOL     OW 4999   1.008   1.456  13.511
 1486SOL    HW1 5000   0.962   1.528  13.459
 1486SOL    HW2 5001   1.004   1.476  13.609
 1487SOL     OW 5002   0.351   1.801  13.887
 1487SOL    HW1 5003   0.401   1.715  13.893
 1487SOL    HW2 5004   0.416   1.878  13.884
 1488SOL     OW 5005   1.795   1.066  13.907
 1488SOL    HW1 5006   1.733   1.051  13.831
 1488SOL    HW2 5007   1.743   1.077  13.992
 1489SOL     OW 5008   0.321   0.943  13.276
 1489SOL    HW1 5009   0.403   0.982  13.234
 1489SOL    HW2 5010   0.294   0.861  13.227
 1490SOL     OW 5011   1.458   0.735  13.762
 1490SOL    HW1 5012   1.453   0.670  13.837
 1490SOL    HW2 5013   1.538   0.794  13.775
 1491SOL     OW 5014   1.111   1.776  13.271
 1491SOL    HW1 5015   1.051   1.714  13.321
 1491SOL    HW2 5016   1.142   1.732  13.186
 1492SOL     OW 5017   1.632   1.377  13.115
 1492SOL    HW1 5018   1.600   1.471  13.105
 1492SOL    HW2 5019   1.556   1.314  13.103
 1493SOL     OW 5020   0.464   1.743  13.357
 1493SOL    HW1 5021   0.497   1.782  13.443
 1493SOL    HW2 5022   0.540   1.736  13.292
 1494SOL     OW 5023   1.400   0.107  13.460
 1494SOL    HW1 5024   1.376   0.070  13.370
 1494SOL    HW2 5025   1.499   0.123  13.464
 1495SOL     OW 5026   0.940   1.698  13.938
 1495SOL    HW1 5027   1.020   1.641  13.959
 1495SOL    HW2 5028   0.891   1.658  13.861
 1496SOL     OW 5029   0.382   0.700  13.514
 1496SOL    HW1 5030   0.427   0.610  13.511
 1496SOL    HW2 5031   0.288   0.689  13.547
 1497SOL     OW 5032   0.614   0.122  13.151
 1497SOL    HW1 5033   0.712   0.100  13.158
 1497SOL    HW2 5034   0.583   0.105  13.058
 1498SOL     OW 5035   0.539   0.064  13.546
 1498SOL    HW1 5036   0.458   0.065  13.604
 1498SOL    HW2 5037   0.542   0.147  13.491
 1499SOL     OW 5038   1.434   1.188  13.075
 1499SOL    HW1 5039   1.466   1.112  13.132
 1499SOL    HW2 5040   1.342   1.215  13.105
 1500SOL     OW 5041   0.297   0.035  13.205
 1500SOL    HW1 5042   0.346   0.119  13.184
 1500SOL    HW2 5043   0.359  -0.030  13.250
 1501SOL     OW 5044   0.935   0.236  13.514
 1501SOL    HW1 5045   0.887   0.277  13.436
 1501SOL    HW2 5046   1.034   0.234  13.495
 1502SOL     OW 5047   0.459   1.152  13.775
 1502SOL    HW1 5048   0.388   1.125  13.840
 1502SOL    HW2 5049   0.433   1.124  13.682
 1503SOL     OW 5050   1.271   1.797  13.625
 1503SOL    HW1 5051   1.315   1.861  13.561
 1503SOL    HW2 5052   1.221   1.849  13.695
 1504SOL     OW 5053   1.032   0.549  13.050
 1504SOL    HW1 5054   0.991   0.631  13.011
 1504SOL    HW2 5055   1.096   0.575  13.123
 1505SOL     OW 5056   0.866   0.454  13.676
 1505SOL    HW1 5057   0.834   0.526  13.614
 1505SOL    HW2 5058   0.890   0.373  13.623
 1506SOL     OW 5059   1.017   0.039  13.787
 1506SOL    HW1 5060   0.945   0.044  13.718
 1506SOL    HW2 5061   0.993  -0.030  13.856
 1507SOL     OW 5062   1.857   0.833  13.411
 1507SOL    HW1 5063   1.899   0.769  13.475
 1507SOL    HW2 5064   1.819   0.782  13.333
 1508SOL     OW 5065   0.488   1.385  13.208
 1508SOL    HW1 5066   0.401   1.370  13.255
 1508SOL    HW2 5067   0.471   1.411  13.113
 1509SOL     OW 5068   1.664   1.280  13.691
 1509SOL    HW1 5069   1.763   1.288  13.705
 1509SOL    HW2 5070   1.619   1.364  13.722
 1510SOL     OW 5071   1.390   0.575  13.112
 1510SOL    HW1 5072   1.336   0.554  13.193
 1510SOL    HW2 5073   1.481   0.534  13.121
 1511SOL     OW 5074   0.527   0.256  13.362
 1511SOL    HW1 5075   0.554   0.197  13.287
 1511SOL    HW2 5076   0.527   0.351  13.331
 1512SOL     OW 5077   0.705   1.050  13.402
 1512SOL    HW1 5078   0.691   1.057  13.501
 1512SOL    HW2 5079   0.789   0.999  13.384
 1513SOL     OW 5080   0.367   1.100  13.535
 1513SOL    HW1 5081   0.360   1.183  13.479
 1513SOL    HW2 5082   0.371   1.020  13.475
 1514SOL     OW 5083   0.566   0.537  13.899
 1514SOL    HW1 5084   0.578   0.603  13.825
 1514SOL    HW2 5085   0.612   0.571  13.982
 1515SOL     OW 5086   1.252   1.348  13.422
 1515SOL    HW1 5087   1.302   1.425  13.462
 1515SOL    HW2 5088   1.157   1.350  13.454
 1516SOL     OW 5089   1.582   0.639  13.506
 1516SOL    HW1 5090   1.551   0.700  13.579
 1516SOL    HW2 5091   1.632   0.691  13.437
 1517SOL     OW 5092   1.209   0.525  13.309
 1517SOL    HW1 5093   1.222   0.441  13.363
 1517SOL    HW2 5094   1.180   0.599  13.369
 1518SOL     OW 5095   0.307   0.063  13.652
 1518SOL    HW1 5096   0.296   0.157  13.685
 1518SOL    HW2 5097   0.302   0.000  13.729
 1519SOL     OW 5098   1.622   0.367  13.408
 1519SOL    HW1 5099   1.624   0.291  13.472
 1519SOL    HW2 5100   1.574   0.444  13.448
 1520SOL     OW 5101   1.540   0.274  13.159
 1520SOL    HW1 5102   1.479   0.199  13.182
 1520SOL    HW2 5103   1.562   0.326  13.242
 1521SOL     OW 5104   1.303   0.838  13.076
 1521SOL    HW1 5105   1.337   0.745  13.091
 1521SOL    HW2 5106   1.321   0.865  12.981
 1522SOL     OW 5107   0.008   1.326  13.234
 1522SOL    HW1 5108  -0.085   1.347  13.203
 1522SOL    HW2 5109   0.018   1.227  13.247
 1523SOL     OW 5110   0.815   0.572  13.359
 1523SOL    HW1 5111   0.822   0.483  13.313
 1523SOL    HW2 5112   0.721   0.606  13.351
 1524SOL     OW 5113   0.473   0.500  13.225
 1524SOL    HW1 5114   0.534   0.580  13.229
 1524SOL    HW2 5115   0.378   0.531  13.232
 1525SOL     OW 5116   1.302   0.855  13.343
 1525SOL    HW1 5117   1.216   0.824  13.385
 1525SOL    HW2 5118   1.298   0.841  13.244
 1526SOL     OW 5119   1.726   0.135  13.557
 1526SOL    HW1 5120   1.799   0.118  13.490
 1526SOL    HW2 5121   1.695   0.048  13.595
 1527SOL     OW 5122   1.388   1.573  13.511
 1527SOL    HW1 5123   1.455   1.585  13.437
 1527SOL    HW2 5124   1.348   1.662  13.534
 1528SOL     OW 5125   1.280   0.927  13.706
 1528SOL    HW1 5126   1.340   0.846  13.708
 1528SOL    HW2 5127   1.320   0.996  13.646
 1529SOL     OW 5128   0.672   1.616  13.188
 1529SOL    HW1 5129   0.681   1.626  13.089
 1529SOL    HW2 5130   0.632   1.527  13.209
 1530SOL     OW 5131   1.841   0.175  13.997
 1530SOL    HW1 5132   1.880   0.090  13.961
 1530SOL    HW2 5133   1.743   0.177  13.978
 1531SOL     OW 5134   0.263   0.326  13.754
 1531SOL    HW1 5135   0.184   0.377  13.720
 1531SOL    HW2 5136   0.254   0.311  13.852
 1532SOL     OW 5137   1.194   1.612  13.065
 1532SOL    HW1 5138   1.200   1.519  13.102
 1532SOL    HW2 5139   1.135   1.612  12.985
 1533SOL     OW 5140   0.916   0.910  13.325
 1533SOL    HW1 5141   0.979   0.948  13.257
 1533SOL    HW2 5142   0.956   0.827  13.364
 1534SOL     OW 5143   1.504   1.607  13.078
 1534SOL    HW1 5144   1.412   1.644  13.085
 1534SOL    HW2 5145   1.542   1.627  12.988
 1535SOL     OW 5146   1.039   1.098  13.730
 1535SOL    HW1 5147   0.969   1.051  13.784
 1535SOL    HW2 5148   1.098   1.030  13.687
 1536SOL     OW 5149   0.590   1.487  13.525
 1536SOL    HW1 5150   0.632   1.429  13.455
 1536SOL    HW2 5151   0.546   1.566  13.481
 1537SOL     OW 5152   0.255   1.348  13.324
 1537SOL    HW1 5153   0.159   1.349  13.297
 1537SOL    HW2 5154   0.267   1.401  13.408
 1538SOL     OW 5155   0.075   0.345  13.067
 1538SOL    HW1 5156  -0.017   0.317  13.038
 1538SOL    HW2 5157   0.106   0.422  13.011
 1539SOL     OW 5158   0.072   0.166  13.352
 1539SOL    HW1 5159   0.055   0.249  13.298
 1539SOL    HW2 5160   0.162   0.129  13.330
 1540SOL     OW 5161   1.183   1.335  13.153
 1540SOL    HW1 5162   1.084   1.324  13.155
 1540SOL    HW2 5163   1.217   1.350  13.246
 1541SOL     OW 5164   1.225   0.325  13.483
 1541SOL    HW1 5165   1.290   0.251  13.472
 1541SOL    HW2 5166   1.245   0.375  13.567
 1542SOL     OW 5167   0.594   0.745  13.686
 1542SOL    HW1 5168   0.644   0.830  13.667
 1542SOL    HW2 5169   0.506   0.747  13.638
 1543SOL     OW 5170   0.859   1.374  13.050
 1543SOL    HW1 5171   0.813   1.389  13.138
 1543SOL    HW2 5172   0.903   1.459  13.020
 1544SOL     OW 5173   0.661   1.790  13.987
 1544SOL    HW1 5174   0.615   1.878  13.974
 1544SOL    HW2 5175   0.760   1.802  13.980
 1545SOL     OW 5176   0.859   0.956  13.895
 1545SOL    HW1 5177   0.913   0.887  13.943
 1545SOL    HW2 5178   0.827   1.025  13.961
 1546SOL     OW 5179   1.083   0.984  13.121
 1546SOL    HW1 5180   1.060   1.037  13.039
 1546SOL    HW2 5181   1.164   0.928  13.102
 1547SOL     OW 5182   0.079   1.240  13.687
 1547SOL    HW1 5183   0.078   1.193  13.775
 1547SOL    HW2 5184   0.161   1.212  13.636
 1548SOL     OW 5185   0.428   0.424  13.554
 1548SOL    HW1 5186   0.458   0.352  13.492
 1548SOL    HW2 5187   0.389   0.384  13.637
 1549SOL     OW 5188   1.705   1.487  14.138
 1549SOL    HW1 5189   1.612   1.462  14.111
 1549SOL    HW2 5190   1.731   1.437  14.220
 1550SOL     OW 5191   0.812   1.586  13.721
 1550SOL    HW1 5192   0.844   1.596  13.627
 1550SOL    HW2 5193   0.733   1.524  13.723
 1551SOL     OW 5194   0.770   1.330  13.335
 1551SOL    HW1 5195   0.724   1.243  13.352
 1551SOL    HW2 5196   0.861   1.327  13.376
 1552SOL     OW 5197   1.352   0.052  13.202
 1552SOL    HW1 5198   1.387   0.011  13.118
 1552SOL    HW2 5199   1.262   0.014  13.222
 1553SOL     OW 5200   1.300   0.453  13.725
 1553SOL    HW1 5201   1.241   0.533  13.729
 1553SOL    HW2 5202   1.315   0.418  13.818
 1554SOL     OW 5203   0.039   1.077  13.334
 1554SOL    HW1 5204   0.138   1.066  13.325
 1554SOL    HW2 5205  -0.001   0.991  13.366
 1555SOL     OW 5206   0.875   1.646  13.371
 1555SOL    HW1 5207   0.798   1.611  13.317
 1555SOL    HW2 5208   0.843   1.717  13.433
 1556SOL     OW 5209   0.230   2.490   0.113
 1556SOL    HW1 5210   0.137   2.488   0.150
 1556SOL    HW2 5211   0.231   2.451   0.021
 1557SOL     OW 5212   0.225   2.137   0.996
 1557SOL    HW1 5213   0.260   2.120   1.088
 1557SOL    HW2 5214   0.137   2.092   0.984
 1558SOL     OW 5215   0.019   2.230   0.647
 1558SOL    HW1 5216  -0.063   2.273   0.686
 1558SOL    HW2 5217  -0.009   2.157   0.584
 1559SOL     OW 5218   0.569   3.137   1.165
 1559SOL    HW1 5219   0.476   3.130   1.128
 1559SOL    HW2 5220   0.580   3.226   1.209
 1560SOL     OW 5221   1.555   3.373   0.703
 1560SOL    HW1 5222   1.498   3.357   0.784
 1560SOL    HW2 5223   1.496   3.383   0.623
 1561SOL     OW 5224   1.135   2.565   0.717
 1561SOL    HW1 5225   1.192   2.643   0.692
 1561SOL    HW2 5226   1.075   2.591   0.793
 1562SOL     OW 5227   1.755   2.469   0.231
 1562SOL    HW1 5228   1.743   2.456   0.132
 1562SOL    HW2 5229   1.725   2.388   0.280
 1563SOL     OW 5230   0.768   3.006   1.023
 1563SOL    HW1 5231   0.690   3.023   1.083
 1563SOL    HW2 5232   0.802   3.093   0.987
 1564SOL     OW 5233   0.850   2.660   1.823
 1564SOL    HW1 5234   0.846   2.736   1.888
 1564SOL    HW2 5235   0.872   2.696   1.732
 1565SOL     OW 5236   0.685   2.874   0.665
 1565SOL    HW1 5237   0.754   2.858   0.735
 1565SOL    HW2 5238   0.612   2.931   0.703
 1566SOL     OW 5239   0.686   3.023   1.803
 1566SOL    HW1 5240   0.746   3.102   1.817
 1566SOL    HW2 5241   0.600   3.054   1.762
 1567SOL     OW 5242   0.335   3.297   1.061
 1567SOL    HW1 5243   0.257   3.266   1.008
 1567SOL    HW2 5244   0.393   3.355   1.004
 1568SOL     OW 5245   1.460   3.367   1.339
 1568SOL    HW1 5246   1.484   3.461   1.365
 1568SOL    HW2 5247   1.444   3.313   1.421
 1569SOL     OW 5248   0.438   2.254   1.499
 1569SOL    HW1 5249   0.520   2.198   1.508
 1569SOL    HW2 5250   0.357   2.196   1.503
 1570SOL     OW 5251   1.603   2.309   0.737
 1570SOL    HW1 5252   1.529   2.355   0.687
 1570SOL    HW2 5253   1.654   2.377   0.790
 1571SOL     OW 5254   0.231   3.575   0.483
 1571SOL    HW1 5255   0.265   3.652   0.537
 1571SOL    HW2 5256   0.275   3.575   0.393
 1572SOL     OW 5257   1.127   3.203   1.690
 1572SOL    HW1 5258   1.174   3.203   1.778
 1572SOL    HW2 5259   1.079   3.116   1.679
 1573SOL     OW 5260   0.230   3.296   0.538
 1573SOL    HW1 5261   0.204   3.392   0.538
 1573SOL    HW2 5262   0.159   3.242   0.583
 1574SOL     OW 5263   0.240   2.953   0.886
 1574SOL    HW1 5264   0.254   2.869   0.938
 1574SOL    HW2 5265   0.185   3.017   0.941
 1575SOL     OW 5266   0.620   3.648   1.439
 1575SOL    HW1 5267   0.528   3.631   1.474
 1575SOL    HW2 5268   0.648   3.740   1.465
 1576SOL     OW 5269   0.606   2.826   0.123
 1576SOL    HW1 5270   0.613   2.910   0.069
 1576SOL    HW2 5271   0.652   2.839   0.211
 1577SOL     OW 5272   1.594   1.976   1.480
 1577SOL    HW1 5273   1.576   2.043   1.408
 1577SOL    HW2 5274   1.591   2.022   1.569
 1578SOL     OW 5275   0.122   2.505   0.563
 1578SOL    HW1 5276   0.077   2.417   0.580
 1578SOL    HW2 5277   0.121   2.559   0.647
 1579SOL     OW 5278   1.842   3.629   0.359
 1579SOL    HW1 5279   1.896   3.600   0.439
 1579SOL    HW2 5280   1.872   3.719   0.330
 1580SOL     OW 5281   0.027   3.458   0.117
 1580SOL    HW1 5282   0.008   3.362   0.138
 1580SOL    HW2 5283  -0.006   3.516   0.192
 1581SOL     OW 5284   1.689   2.784   0.612
 1581SOL    HW1 5285   1.784   2.755   0.620
 1581SOL    HW2 5286   1.681   2.849   0.537
 1582SOL     OW 5287   1.641   2.970   0.432
 1582SOL    HW1 5288   1.727   2.972   0.380
 1582SOL    HW2 5289   1.655   3.017   0.520
 1583SOL     OW 5290   0.113   2.599   1.597
 1583SOL    HW1 5291   0.201   2.586   1.642
 1583SOL    HW2 5292   0.100   2.696   1.575
 1584SOL     OW 5293   0.613   3.227   0.726
 1584SOL    HW1 5294   0.564   3.140   0.735
 1584SOL    HW2 5295   0.590   3.270   0.639
 1585SOL     OW 5296   1.293   3.090   1.423
 1585SOL    HW1 5297   1.330   3.017   1.365
 1585SOL    HW2 5298   1.345   3.095   1.508
 1586SOL     OW 5299   0.809   1.866   0.502
 1586SOL    HW1 5300   0.849   1.957   0.493
 1586SOL    HW2 5301   0.709   1.874   0.508
 1587SOL     OW 5302   0.197   2.838   1.264
 1587SOL    HW1 5303   0.286   2.793   1.250
 1587SOL    HW2 5304   0.124   2.773   1.245
 1588SOL     OW 5305   1.525   2.861   0.190
 1588SOL    HW1 5306   1.462   2.785   0.203
 1588SOL    HW2 5307   1.573   2.879   0.276
 1589SOL     OW 5308   1.187   3.654   1.616
 1589SOL    HW1 5309   1.211   3.714   1.540
 1589SOL    HW2 5310   1.194   3.559   1.586
 1590SOL     OW 5311   0.317   2.113   1.801
 1590SOL    HW1 5312   0.388   2.184   1.807
 1590SOL    HW2 5313   0.229   2.152   1.829
 1591SOL     OW 5314   1.466   3.279   0.953
 1591SOL    HW1 5315   1.407   3.285   1.033
 1591SOL    HW2 5316   1.451   3.191   0.907
 1592SOL     OW 5317   1.667   3.576   0.572
 1592SOL    HW1 5318   1.626   3.553   0.484
 1592SOL    HW2 5319   1.649   3.502   0.637
 1593SOL     OW 5320   0.598   2.591   0.270
 1593SOL    HW1 5321   0.622   2.660   0.202
 1593SOL    HW2 5322   0.520   2.624   0.324
 1594SOL     OW 5323   1.281   2.207   0.944
 1594SOL    HW1 5324   1.195   2.157   0.931
 1594SOL    HW2 5325   1.343   2.153   1.000
 1595SOL     OW 5326   1.576   3.524   0.307
 1595SOL    HW1 5327   1.665   3.570   0.310
 1595SOL    HW2 5328   1.555   3.500   0.212
 1596SOL     OW 5329   0.807   2.467   1.465
 1596SOL    HW1 5330   0.760   2.464   1.554
 1596SOL    HW2 5331   0.756   2.412   1.399
 1597SOL     OW 5332   1.394   2.331   1.674
 1597SOL    HW1 5333   1.374   2.374   1.762
 1597SOL    HW2 5334   1.472   2.269   1.683
 1598SOL     OW 5335   0.973   2.752   1.572
 1598SOL    HW1 5336   1.019   2.668   1.543
 1598SOL    HW2 5337   0.917   2.786   1.497
 1599SOL     OW 5338   0.991   2.272   1.242
 1599SOL    HW1 5339   0.914   2.306   1.296
 1599SOL    HW2 5340   0.957   2.221   1.163
 1600SOL     OW 5341   1.041   2.563   0.429
 1600SOL    HW1 5342   1.067   2.559   0.525
 1600SOL    HW2 5343   0.956   2.512   0.415
 1601SOL     OW 5344   0.076   2.673   0.789
 1601SOL    HW1 5345   0.175   2.661   0.798
 1601SOL    HW2 5346   0.052   2.768   0.810
 1602SOL     OW 5347   0.130   3.683   1.571
 1602SOL    HW1 5348   0.120   3.668   1.670
 1602SOL    HW2 5349   0.044   3.719   1.535
 1603SOL     OW 5350   0.865   2.210   0.195
 1603SOL    HW1 5351   0.924   2.273   0.146
 1603SOL    HW2 5352   0.884   2.116   0.166
 1604SOL     OW 5353   1.719   2.447   1.831
 1604SOL    HW1 5354   1.693   2.536   1.795
 1604SOL    HW2 5355   1.717   2.379   1.758
 1605SOL     OW 5356   1.362   3.006   0.545
 1605SOL    HW1 5357   1.445   2.977   0.497
 1605SOL    HW2 5358   1.313   3.073   0.489
 1606SOL     OW 5359   0.550   2.058   0.885
 1606SOL    HW1 5360   0.545   2.053   0.985
 1606SOL    HW2 5361   0.552   2.154   0.856
 1607SOL     OW 5362   1.008   3.318   0.477
 1607SOL    HW1 5363   0.962   3.390   0.425
 1607SOL    HW2 5364   1.004   3.338   0.575
 1608SOL     OW 5365   0.351   3.663   0.853
 1608SOL    HW1 5366   0.401   3.577   0.859
 1608SOL    HW2 5367   0.416   3.740   0.850
 1609SOL     OW 5368   1.795   2.928   0.873
 1609SOL    HW1 5369   1.733   2.913   0.797
 1609SOL    HW2 5370   1.743   2.939   0.958
 1610SOL     OW 5371   1.227   3.412   1.506
 1610SOL    HW1 5372   1.233   3.335   1.570
 1610SOL    HW2 5373   1.175   3.386   1.426
 1611SOL     OW 5374   0.321   2.805   0.242
 1611SOL    HW1 5375   0.403   2.844   0.200
 1611SOL    HW2 5376   0.294   2.723   0.193
 1612SOL     OW 5377   1.458   2.597   0.728
 1612SOL    HW1 5378   1.453   2.532   0.803
 1612SOL    HW2 5379   1.538   2.656   0.741
 1613SOL     OW 5380   0.461   3.128   1.727
 1613SOL    HW1 5381   0.411   3.129   1.641
 1613SOL    HW2 5382   0.398   3.110   1.803
 1614SOL     OW 5383   1.111   3.638   0.237
 1614SOL    HW1 5384   1.051   3.576   0.287
 1614SOL    HW2 5385   1.142   3.594   0.152
 1615SOL     OW 5386   0.202   2.147   1.498
 1615SOL    HW1 5387   0.122   2.207   1.485
 1615SOL    HW2 5388   0.192   2.098   1.584
 1616SOL     OW 5389   1.632   3.239   0.081
 1616SOL    HW1 5390   1.600   3.333   0.071
 1616SOL    HW2 5391   1.556   3.176   0.069
 1617SOL     OW 5392   0.464   3.605   0.323
 1617SOL    HW1 5393   0.497   3.644   0.409
 1617SOL    HW2 5394   0.540   3.598   0.258
 1618SOL     OW 5395   1.400   1.969   0.426
 1618SOL    HW1 5396   1.376   1.932   0.336
 1618SOL    HW2 5397   1.499   1.985   0.430
 1619SOL     OW 5398   0.249   3.647   1.241
 1619SOL    HW1 5399   0.306   3.582   1.291
 1619SOL    HW2 5400   0.233   3.614   1.148
 1620SOL     OW 5401   0.940   3.560   0.904
 1620SOL    HW1 5402   1.020   3.503   0.925
 1620SOL    HW2 5403   0.891   3.520   0.827
 1621SOL     OW 5404   0.382   2.562   0.480
 1621SOL    HW1 5405   0.427   2.472   0.477
 1621SOL    HW2 5406   0.288   2.551   0.513
 1622SOL     OW 5407   1.547   2.084   1.729
 1622SOL    HW1 5408   1.542   2.121   1.821
 1622SOL    HW2 5409   1.475   2.015   1.717
 1623SOL     OW 5410   0.781   2.126   1.749
 1623SOL    HW1 5411   0.848   2.065   1.792
 1623SOL    HW2 5412   0.708   2.145   1.814
 1624SOL     OW 5413   0.888   3.376   1.195
 1624SOL    HW1 5414   0.865   3.351   1.101
 1624SOL    HW2 5415   0.949   3.307   1.234
 1625SOL     OW 5416   1.351   2.452   1.433
 1625SOL    HW1 5417   1.379   2.409   1.518
 1625SOL    HW2 5418   1.376   2.548   1.434
 1626SOL     OW 5419   0.803   3.264   0.924
 1626SOL    HW1 5420   0.893   3.278   0.882
 1626SOL    HW2 5421   0.732   3.266   0.853
 1627SOL     OW 5422   0.922   2.365   0.899
 1627SOL    HW1 5423   0.897   2.356   0.803
 1627SOL    HW2 5424   0.970   2.283   0.930
 1628SOL     OW 5425   0.539   1.926   0.512
 1628SOL    HW1 5426   0.458   1.927   0.570
 1628SOL    HW2 5427   0.542   2.009   0.457
 1629SOL     OW 5428   1.434   3.050   0.041
 1629SOL    HW1 5429   1.466   2.974   0.098
 1629SOL    HW2 5430   1.342   3.077   0.071
 1630SOL     OW 5431   0.297   1.897   0.171
 1630SOL    HW1 5432   0.346   1.981   0.150
 1630SOL    HW2 5433   0.359   1.832   0.216
 1631SOL     OW 5434   0.935   2.098   0.480
 1631SOL    HW1 5435   0.887   2.139   0.402
 1631SOL    HW2 5436   1.034   2.096   0.461
 1632SOL     OW 5437   1.076   2.545   1.464
 1632SOL    HW1 5438   0.996   2.484   1.467
 1632SOL    HW2 5439   1.157   2.492   1.440
 1633SOL     OW 5440   1.227   3.432   0.793
 1633SOL    HW1 5441   1.248   3.506   0.728
 1633SOL    HW2 5442   1.295   3.432   0.866
 1634SOL     OW 5443   0.459   3.014   0.741
 1634SOL    HW1 5444   0.388   2.987   0.806
 1634SOL    HW2 5445   0.433   2.986   0.648
 1635SOL     OW 5446   1.271   3.659   0.591
 1635SOL    HW1 5447   1.315   3.723   0.527
 1635SOL    HW2 5448   1.221   3.711   0.661
 1636SOL     OW 5449   1.032   2.411   0.016
 1636SOL    HW1 5450   0.991   2.493  -0.023
 1636SOL    HW2 5451   1.096   2.437   0.089
 1637SOL     OW 5452   0.078   2.418   1.386
 1637SOL    HW1 5453   0.170   2.417   1.345
 1637SOL    HW2 5454   0.072   2.492   1.453
 1638SOL     OW 5455   0.561   2.084   1.147
 1638SOL    HW1 5456   0.599   2.000   1.184
 1638SOL    HW2 5457   0.473   2.103   1.191
 1639SOL     OW 5458   0.866   2.316   0.642
 1639SOL    HW1 5459   0.834   2.388   0.580
 1639SOL    HW2 5460   0.890   2.235   0.589
 1640SOL     OW 5461   1.017   1.901   0.753
 1640SOL    HW1 5462   0.945   1.906   0.684
 1640SOL    HW2 5463   0.993   1.832   0.822
 1641SOL     OW 5464   1.429   3.035   0.867
 1641SOL    HW1 5465   1.374   2.951   0.860
 1641SOL    HW2 5466   1.455   3.064   0.775
 1642SOL     OW 5467   1.466   2.452   0.992
 1642SOL    HW1 5468   1.436   2.357   0.999
 1642SOL    HW2 5469   1.539   2.468   1.058
 1643SOL     OW 5470   1.857   2.695   0.377
 1643SOL    HW1 5471   1.899   2.631   0.441
 1643SOL    HW2 5472   1.819   2.644   0.299
 1644SOL     OW 5473   0.488   3.247   0.174
 1644SOL    HW1 5474   0.401   3.232   0.221
 1644SOL    HW2 5475   0.471   3.273   0.079
 1645SOL     OW 5476   1.664   3.142   0.657
 1645SOL    HW1 5477   1.763   3.150   0.671
 1645SOL    HW2 5478   1.619   3.226   0.688
 1646SOL     OW 5479   1.390   2.437   0.078
 1646SOL    HW1 5480   1.336   2.416   0.159
 1646SOL    HW2 5481   1.481   2.396   0.087
 1647SOL     OW 5482   0.527   2.118   0.328
 1647SOL    HW1 5483   0.554   2.059   0.253
 1647SOL    HW2 5484   0.527   2.213   0.297
 1648SOL     OW 5485   1.754   3.085   1.588
 1648SOL    HW1 5486   1.845   3.046   1.575
 1648SOL    HW2 5487   1.762   3.181   1.612
 1649SOL     OW 5488   1.064   3.209   1.340
 1649SOL    HW1 5489   0.984   3.186   1.395
 1649SOL    HW2 5490   1.147   3.183   1.389
 1650SOL     OW 5491   1.592   3.491   1.625
 1650SOL    HW1 5492   1.619   3.525   1.535
 1650SOL    HW2 5493   1.671   3.453   1.671
 1651SOL     OW 5494   1.111   3.057   1.100
 1651SOL    HW1 5495   1.071   3.101   1.181
 1651SOL    HW2 5496   1.070   3.094   1.017
 1652SOL     OW 5497   1.638   2.961   1.079
 1652SOL    HW1 5498   1.643   3.042   1.138
 1652SOL    HW2 5499   1.552   2.963   1.028
 1653SOL     OW 5500   0.915   1.951   1.402
 1653SOL    HW1 5501   0.940   1.931   1.307
 1653SOL    HW2 5502   0.987   2.007   1.444
 1654SOL     OW 5503   0.980   2.978   1.719
 1654SOL    HW1 5504   0.881   2.984   1.729
 1654SOL    HW2 5505   1.003   2.898   1.663
 1655SOL     OW 5506   0.705   2.912   0.368
 1655SOL    HW1 5507   0.691   2.919   0.467
 1655SOL    HW2 5508   0.789   2.861   0.350
 1656SOL     OW 5509   0.410   2.675   1.251
 1656SOL    HW1 5510   0.496   2.687   1.301
 1656SOL    HW2 5511   0.368   2.588   1.278
 1657SOL     OW 5512   1.274   2.248   1.262
 1657SOL    HW1 5513   1.295   2.322   1.326
 1657SOL    HW2 5514   1.185   2.265   1.219
 1658SOL     OW 5515   0.064   3.426   1.331
 1658SOL    HW1 5516   0.018   3.508   1.297
 1658SOL    HW2 5517   0.162   3.445   1.340
 1659SOL     OW 5518   0.367   2.962   0.501
 1659SOL    HW1 5519   0.360   3.045   0.445
 1659SOL    HW2 5520   0.371   2.882   0.441
 1660SOL     OW 5521   0.566   2.399   0.865
 1660SOL    HW1 5522   0.578   2.465   0.791
 1660SOL    HW2 5523   0.612   2.433   0.948
 1661SOL     OW 5524   1.252   3.210   0.388
 1661SOL    HW1 5525   1.302   3.287   0.428
 1661SOL    HW2 5526   1.157   3.212   0.420
 1662SOL     OW 5527   1.272   3.307   1.142
 1662SOL    HW1 5528   1.319   3.320   1.229
 1662SOL    HW2 5529   1.206   3.233   1.151
 1663SOL     OW 5530   1.582   2.501   0.472
 1663SOL    HW1 5531   1.551   2.562   0.545
 1663SOL    HW2 5532   1.632   2.553   0.403
 1664SOL     OW 5533   0.354   3.372   1.329
 1664SOL    HW1 5534   0.333   3.328   1.242
 1664SOL    HW2 5535   0.451   3.398   1.332
 1665SOL     OW 5536   0.402   2.613   1.598
 1665SOL    HW1 5537   0.470   2.668   1.551
 1665SOL    HW2 5538   0.442   2.525   1.625
 1666SOL     OW 5539   1.587   2.641   1.670
 1666SOL    HW1 5540   1.495   2.679   1.665
 1666SOL    HW2 5541   1.647   2.688   1.605
 1667SOL     OW 5542   1.013   1.967   1.770
 1667SOL    HW1 5543   1.019   2.052   1.718
 1667SOL    HW2 5544   1.045   1.891   1.713
 1668SOL     OW 5545   0.504   1.912   1.740
 1668SOL    HW1 5546   0.462   1.855   1.670
 1668SOL    HW2 5547   0.438   1.981   1.772
 1669SOL     OW 5548   0.573   2.732   1.029
 1669SOL    HW1 5549   0.617   2.821   1.020
 1669SOL    HW2 5550   0.510   2.732   1.106
 1670SOL     OW 5551   1.360   2.724   1.045
 1670SOL    HW1 5552   1.285   2.724   0.979
 1670SOL    HW2 5553   1.397   2.632   1.054
 1671SOL     OW 5554   1.209   2.387   0.275
 1671SOL    HW1 5555   1.222   2.303   0.329
 1671SOL    HW2 5556   1.180   2.461   0.335
 1672SOL     OW 5557   0.307   2.075   1.231
 1672SOL    HW1 5558   0.284   2.112   1.321
 1672SOL    HW2 5559   0.277   1.980   1.225
 1673SOL     OW 5560   0.037   3.172   1.282
 1673SOL    HW1 5561   0.090   3.123   1.350
 1673SOL    HW2 5562   0.059   3.270   1.287
 1674SOL     OW 5563   0.732   2.496   1.064
 1674SOL    HW1 5564   0.791   2.470   0.988
 1674SOL    HW2 5565   0.704   2.592   1.053
 1675SOL     OW 5566   1.728   2.797   1.854
 1675SOL    HW1 5567   1.682   2.790   1.765
 1675SOL    HW2 5568   1.666   2.841   1.920
 1676SOL     OW 5569   0.307   1.925   0.618
 1676SOL    HW1 5570   0.296   2.019   0.651
 1676SOL    HW2 5571   0.302   1.862   0.695
 1677SOL     OW 5572   1.622   2.229   0.374
 1677SOL    HW1 5573   1.624   2.153   0.438
 1677SOL    HW2 5574   1.574   2.306   0.414
 1678SOL     OW 5575   1.023   2.628   0.966
 1678SOL    HW1 5576   1.038   2.649   1.062
 1678SOL    HW2 5577   0.993   2.533   0.957
 1679SOL     OW 5578   0.980   3.435   1.700
 1679SOL    HW1 5579   0.960   3.479   1.612
 1679SOL    HW2 5580   1.019   3.344   1.684
 1680SOL     OW 5581   1.859   3.380   1.605
 1680SOL    HW1 5582   1.873   3.407   1.510
 1680SOL    HW2 5583   1.942   3.402   1.658
 1681SOL     OW 5584   0.350   2.760   1.804
 1681SOL    HW1 5585   0.426   2.804   1.852
 1681SOL    HW2 5586   0.385   2.713   1.722
 1682SOL     OW 5587   1.540   2.136   0.125
 1682SOL    HW1 5588   1.479   2.061   0.148
 1682SOL    HW2 5589   1.562   2.188   0.208
 1683SOL     OW 5590   1.303   2.700   0.042
 1683SOL    HW1 5591   1.337   2.607   0.057
 1683SOL    HW2 5592   1.321   2.727  -0.053
 1684SOL     OW 5593   1.068   3.195   0.849
 1684SOL    HW1 5594   1.075   3.111   0.794
 1684SOL    HW2 5595   1.130   3.264   0.813
 1685SOL     OW 5596   0.319   2.672   0.949
 1685SOL    HW1 5597   0.412   2.708   0.954
 1685SOL    HW2 5598   0.313   2.587   1.001
 1686SOL     OW 5599   0.339   2.371   1.006
 1686SOL    HW1 5600   0.287   2.288   0.989
 1686SOL    HW2 5601   0.416   2.376   0.942
 1687SOL     OW 5602   1.138   2.242   1.678
 1687SOL    HW1 5603   1.093   2.305   1.742
 1687SOL    HW2 5604   1.231   2.273   1.661
 1688SOL     OW 5605   1.160   2.069   1.477
 1688SOL    HW1 5606   1.160   2.133   1.554
 1688SOL    HW2 5607   1.188   2.117   1.394
 1689SOL     OW 5608   0.008   3.188   0.200
 1689SOL    HW1 5609  -0.085   3.209   0.169
 1689SOL    HW2 5610   0.018   3.089   0.213
 1690SOL     OW 5611   0.088   3.663   0.927
 1690SOL    HW1 5612   0.046   3.577   0.900
 1690SOL    HW2 5613   0.182   3.666   0.893
 1691SOL     OW 5614   0.504   3.430   0.910
 1691SOL    HW1 5615   0.570   3.504   0.919
 1691SOL    HW2 5616   0.548   3.351   0.868
 1692SOL     OW 5617   1.002   2.658   1.238
 1692SOL    HW1 5618   1.043   2.626   1.324
 1692SOL    HW2 5619   0.906   2.631   1.235
 1693SOL     OW 5620   0.040   2.406   1.114
 1693SOL    HW1 5621   0.125   2.373   1.073
 1693SOL    HW2 5622   0.053   2.421   1.212
 1694SOL     OW 5623   0.189   2.382   1.722
 1694SOL    HW1 5624   0.248   2.342   1.652
 1694SOL    HW2 5625   0.131   2.453   1.681
 1695SOL     OW 5626   1.369   2.812   1.660
 1695SOL    HW1 5627   1.408   2.901   1.680
 1695SOL    HW2 5628   1.379   2.792   1.563
 1696SOL     OW 5629   0.815   2.434   0.325
 1696SOL    HW1 5630   0.822   2.345   0.279
 1696SOL    HW2 5631   0.721   2.468   0.317
 1697SOL     OW 5632   1.657   2.466   1.206
 1697SOL    HW1 5633   1.619   2.397   1.268
 1697SOL    HW2 5634   1.739   2.430   1.162
 1698SOL     OW 5635   0.252   3.426   1.744
 1698SOL    HW1 5636   0.222   3.483   1.820
 1698SOL    HW2 5637   0.245   3.329   1.770
 1699SOL     OW 5638   0.671   2.326   1.269
 1699SOL    HW1 5639   0.637   2.237   1.239
 1699SOL    HW2 5640   0.697   2.380   1.189
 1700SOL     OW 5641   0.930   3.540   1.465
 1700SOL    HW1 5642   0.906   3.522   1.370
 1700SOL    HW2 5643   0.960   3.634   1.475
 1701SOL     OW 5644   0.473   2.362   0.191
 1701SOL    HW1 5645   0.534   2.442   0.195
 1701SOL    HW2 5646   0.378   2.393   0.198
 1702SOL     OW 5647   0.159   2.999   1.466
 1702SOL    HW1 5648   0.181   2.938   1.542
 1702SOL    HW2 5649   0.169   2.950   1.380
 1703SOL     OW 5650   1.347   2.921   1.234
 1703SOL    HW1 5651   1.371   2.858   1.160
 1703SOL    HW2 5652   1.257   2.961   1.216
 1704SOL     OW 5653   1.302   2.717   0.309
 1704SOL    HW1 5654   1.216   2.686   0.351
 1704SOL    HW2 5655   1.298   2.703   0.210
 1705SOL     OW 5656   1.759   3.609   1.154
 1705SOL    HW1 5657   1.820   3.639   1.081
 1705SOL    HW2 5658   1.721   3.520   1.132
 1706SOL     OW 5659   1.252   3.593   1.128
 1706SOL    HW1 5660   1.336   3.598   1.074
 1706SOL    HW2 5661   1.229   3.497   1.146
 1707SOL     OW 5662   0.083   3.120   1.022
 1707SOL    HW1 5663   0.078   3.119   1.122
 1707SOL    HW2 5664   0.000   3.079   0.984
 1708SOL     OW 5665   0.688   3.524   1.716
 1708SOL    HW1 5666   0.632   3.605   1.725
 1708SOL    HW2 5667   0.740   3.528   1.630
 1709SOL     OW 5668   0.903   1.948   0.133
 1709SOL    HW1 5669   0.954   1.949   0.047
 1709SOL    HW2 5670   0.959   1.906   0.204
 1710SOL     OW 5671   1.388   3.435   0.477
 1710SOL    HW1 5672   1.455   3.447   0.403
 1710SOL    HW2 5673   1.348   3.524   0.500
 1711SOL     OW 5674   0.130   3.656   1.851
 1711SOL    HW1 5675   0.089   3.582   1.904
 1711SOL    HW2 5676   0.194   3.707   1.909
 1712SOL     OW 5677   1.280   2.789   0.672
 1712SOL    HW1 5678   1.340   2.708   0.674
 1712SOL    HW2 5679   1.320   2.858   0.612
 1713SOL     OW 5680   0.830   3.135   1.422
 1713SOL    HW1 5681   0.825   3.168   1.517
 1713SOL    HW2 5682   0.744   3.154   1.376
 1714SOL     OW 5683   0.672   3.478   0.154
 1714SOL    HW1 5684   0.681   3.488   0.055
 1714SOL    HW2 5685   0.632   3.389   0.175
 1715SOL     OW 5686   1.650   3.582   1.394
 1715SOL    HW1 5687   1.703   3.592   1.310
 1715SOL    HW2 5688   1.623   3.672   1.428
 1716SOL     OW 5689   0.263   2.188   0.720
 1716SOL    HW1 5690   0.184   2.239   0.686
 1716SOL    HW2 5691   0.254   2.173   0.818
 1717SOL     OW 5692   1.194   3.474   0.031
 1717SOL    HW1 5693   1.200   3.381   0.068
 1717SOL    HW2 5694   1.135   3.474  -0.049
 1718SOL     OW 5695   0.822   2.864   1.372
 1718SOL    HW1 5696   0.862   2.863   1.280
 1718SOL    HW2 5697   0.832   2.956   1.412
 1719SOL     OW 5698   0.916   2.772   0.291
 1719SOL    HW1 5699   0.979   2.810   0.223
 1719SOL    HW2 5700   0.956   2.689   0.330
 1720SOL     OW 5701   1.504   3.469   0.044
 1720SOL    HW1 5702   1.412   3.506   0.051
 1720SOL    HW2 5703   1.542   3.489  -0.046
 1721SOL     OW 5704   0.372   3.150   1.490
 1721SOL    HW1 5705   0.359   3.243   1.456
 1721SOL    HW2 5706   0.288   3.098   1.477
 1722SOL     OW 5707   1.614   3.154   1.289
 1722SOL    HW1 5708   1.674   3.157   1.369
 1722SOL    HW2 5709   1.539   3.218   1.302
 1723SOL     OW 5710   1.039   2.960   0.696
 1723SOL    HW1 5711   0.969   2.913   0.750
 1723SOL    HW2 5712   1.098   2.892   0.653
 1724SOL     OW 5713   1.014   2.098   0.971
 1724SOL    HW1 5714   1.006   2.062   0.878
 1724SOL    HW2 5715   1.012   2.022   1.036
 1725SOL     OW 5716   0.590   3.349   0.491
 1725SOL    HW1 5717   0.632   3.291   0.421
 1725SOL    HW2 5718   0.546   3.428   0.447
 1726SOL     OW 5719   1.709   2.247   1.381
 1726SOL    HW1 5720   1.782   2.316   1.385
 1726SOL    HW2 5721   1.737   2.172   1.322
 1727SOL     OW 5722   0.255   3.210   0.290
 1727SOL    HW1 5723   0.159   3.211   0.263
 1727SOL    HW2 5724   0.267   3.263   0.374
 1728SOL     OW 5725   0.105   2.875   1.726
 1728SOL    HW1 5726   0.028   2.842   1.780
 1728SOL    HW2 5727   0.190   2.845   1.768
 1729SOL     OW 5728   0.672   2.065   1.489
 1729SOL    HW1 5729   0.762   2.049   1.449
 1729SOL    HW2 5730   0.680   2.070   1.588
 1730SOL     OW 5731   0.075   2.207   0.033
 1730SOL    HW1 5732  -0.017   2.179   0.004
 1730SOL    HW2 5733   0.106   2.284  -0.023
 1731SOL     OW 5734   1.440   2.718   1.398
 1731SOL    HW1 5735   1.383   2.770   1.335
 1731SOL    HW2 5736   1.536   2.730   1.374
 1732SOL     OW 5737   0.072   2.028   0.318
 1732SOL    HW1 5738   0.055   2.111   0.264
 1732SOL    HW2 5739   0.162   1.991   0.296
 1733SOL     OW 5740   1.183   3.197   0.119
 1733SOL    HW1 5741   1.084   3.186   0.121
 1733SOL    HW2 5742   1.217   3.212   0.212
 1734SOL     OW 5743   0.613   2.704   1.431
 1734SOL    HW1 5744   0.669   2.785   1.414
 1734SOL    HW2 5745   0.672   2.624   1.434
 1735SOL     OW 5746   1.493   3.629   0.959
 1735SOL    HW1 5747   1.526   3.693   0.890
 1735SOL    HW2 5748   1.559   3.623   1.034
 1736SOL     OW 5749   0.716   2.427   1.708
 1736SOL    HW1 5750   0.735   2.492   1.782
 1736SOL    HW2 5751   0.776   2.347   1.717
 1737SOL     OW 5752   1.450   3.082   1.633
 1737SOL    HW1 5753   1.441   3.072   1.732
 1737SOL    HW2 5754   1.546   3.075   1.607
 1738SOL     OW 5755   0.390   3.603   1.560
 1738SOL    HW1 5756   0.299   3.644   1.558
 1738SOL    HW2 5757   0.383   3.509   1.592
 1739SOL     OW 5758   1.674   2.745   1.254
 1739SOL    HW1 5759   1.647   2.656   1.217
 1739SOL    HW2 5760   1.675   2.813   1.181
 1740SOL     OW 5761   1.225   2.187   0.449
 1740SOL    HW1 5762   1.290   2.113   0.438
 1740SOL    HW2 5763   1.245   2.237   0.533
 1741SOL     OW 5764   0.594   2.607   0.652
 1741SOL    HW1 5765   0.644   2.692   0.633
 1741SOL    HW2 5766   0.506   2.609   0.604
 1742SOL     OW 5767   1.777   2.204   1.642
 1742SOL    HW1 5768   1.760   2.235   1.548
 1742SOL    HW2 5769   1.693   2.167   1.680
 1743SOL     OW 5770   1.730   2.796   1.517
 1743SOL    HW1 5771   1.768   2.887   1.532
 1743SOL    HW2 5772   1.722   2.779   1.418
 1744SOL     OW 5773   0.859   3.236   0.016
 1744SOL    HW1 5774   0.813   3.251   0.104
 1744SOL    HW2 5775   0.903   3.321  -0.014
 1745SOL     OW 5776   0.661   3.652   0.953
 1745SOL    HW1 5777   0.615   3.740   0.940
 1745SOL    HW2 5778   0.760   3.664   0.946
 1746SOL     OW 5779   0.859   2.818   0.861
 1746SOL    HW1 5780   0.913   2.749   0.909
 1746SOL    HW2 5781   0.827   2.887   0.927
 1747SOL     OW 5782   1.083   2.846   0.087
 1747SOL    HW1 5783   1.060   2.899   0.005
 1747SOL    HW2 5784   1.164   2.790   0.068
 1748SOL     OW 5785   1.861   3.431   0.851
 1748SOL    HW1 5786   1.790   3.419   0.781
 1748SOL    HW2 5787   1.862   3.352   0.911
 1749SOL     OW 5788   0.221   3.176   1.844
 1749SOL    HW1 5789   0.156   3.103   1.823
 1749SOL    HW2 5790   0.225   3.190   1.942
 1750SOL     OW 5791   0.079   3.102   0.653
 1750SOL    HW1 5792   0.078   3.055   0.741
 1750SOL    HW2 5793   0.161   3.074   0.602
 1751SOL     OW 5794   0.672   3.253   1.624
 1751SOL    HW1 5795   0.594   3.203   1.662
 1751SOL    HW2 5796   0.669   3.348   1.655
 1752SOL     OW 5797   0.428   2.286   0.520
 1752SOL    HW1 5798   0.458   2.214   0.458
 1752SOL    HW2 5799   0.389   2.246   0.603
 1753SOL     OW 5800   1.705   3.349   1.104
 1753SOL    HW1 5801   1.612   3.324   1.077
 1753SOL    HW2 5802   1.731   3.299   1.186
 1754SOL     OW 5803   0.317   2.409   1.280
 1754SOL    HW1 5804   0.355   2.350   1.352
 1754SOL    HW2 5805   0.357   2.383   1.192
 1755SOL     OW 5806   0.812   3.448   0.687
 1755SOL    HW1 5807   0.844   3.458   0.593
 1755SOL    HW2 5808   0.733   3.386   0.689
 1756SOL     OW 5809   1.424   2.076   1.112
 1756SOL    HW1 5810   1.476   2.011   1.167
 1756SOL    HW2 5811   1.375   2.139   1.173
 1757SOL     OW 5812   1.001   1.896   1.154
 1757SOL    HW1 5813   0.938   1.824   1.123
 1757SOL    HW2 5814   1.094   1.860   1.154
 1758SOL     OW 5815   0.770   3.192   0.301
 1758SOL    HW1 5816   0.724   3.105   0.318
 1758SOL    HW2 5817   0.861   3.189   0.342
 1759SOL     OW 5818   0.618   3.429   1.284
 1759SOL    HW1 5819   0.613   3.511   1.341
 1759SOL    HW2 5820   0.707   3.426   1.239
 1760SOL     OW 5821   1.352   1.914   0.168
 1760SOL    HW1 5822   1.387   1.873   0.084
 1760SOL    HW2 5823   1.262   1.876   0.188
 1761SOL     OW 5824   1.300   2.315   0.691
 1761SOL    HW1 5825   1.241   2.395   0.695
 1761SOL    HW2 5826   1.315   2.280   0.784
 1762SOL     OW 5827   1.593   2.083   0.882
 1762SOL    HW1 5828   1.509   2.082   0.936
 1762SOL    HW2 5829   1.595   2.166   0.826
 1763SOL     OW 5830   0.039   2.939   0.300
 1763SOL    HW1 5831   0.138   2.928   0.291
 1763SOL    HW2 5832  -0.001   2.853   0.332
 1764SOL     OW 5833   0.875   3.508   0.337
 1764SOL    HW1 5834   0.798   3.473   0.283
 1764SOL    HW2 5835   0.843   3.579   0.399
 1765SOL     OW 5836   0.230   2.490   1.975
 1765SOL    HW1 5837   0.137   2.488   2.012
 1765SOL    HW2 5838   0.231   2.451   1.883
 1766SOL     OW 5839   0.225   2.137   2.858
 1766SOL    HW1 5840   0.260   2.120   2.950
 1766SOL    HW2 5841   0.137   2.092   2.846
 1767SOL     OW 5842   0.019   2.230   2.509
 1767SOL    HW1 5843  -0.063   2.273   2.548
 1767SOL    HW2 5844  -0.009   2.157   2.446
 1768SOL     OW 5845   0.569   3.137   3.027
 1768SOL    HW1 5846   0.476   3.130   2.990
 1768SOL    HW2 5847   0.580   3.226   3.071
 1769SOL     OW 5848   1.555   3.373   2.565
 1769SOL    HW1 5849   1.498   3.357   2.646
 1769SOL    HW2 5850   1.496   3.383   2.485
 1770SOL     OW 5851   1.135   2.565   2.579
 1770SOL    HW1 5852   1.192   2.643   2.554
 1770SOL    HW2 5853   1.075   2.591   2.655
 1771SOL     OW 5854   1.755   2.469   2.093
 1771SOL    HW1 5855   1.743   2.456   1.994
 1771SOL    HW2 5856   1.725   2.388   2.142
 1772SOL     OW 5857   0.768   3.006   2.885
 1772SOL    HW1 5858   0.690   3.023   2.945
 1772SOL    HW2 5859   0.802   3.093   2.849
 1773SOL     OW 5860   0.850   2.660   3.685
 1773SOL    HW1 5861   0.846   2.736   3.750
 1773SOL    HW2 5862   0.872   2.696   3.594
 1774SOL     OW 5863   0.685   2.874   2.527
 1774SOL    HW1 5864   0.754   2.858   2.597
 1774SOL    HW2 5865   0.612   2.931   2.565
 1775SOL     OW 5866   0.686   3.023   3.665
 1775SOL    HW1 5867   0.746   3.102   3.679
 1775SOL    HW2 5868   0.600   3.054   3.624
 1776SOL     OW 5869   0.335   3.297   2.923
 1776SOL    HW1 5870   0.257   3.266   2.870
 1776SOL    HW2 5871   0.393   3.355   2.866
 1777SOL     OW 5872   1.460   3.367   3.201
 1777SOL    HW1 5873   1.484   3.461   3.227
 1777SOL    HW2 5874   1.444   3.313   3.283
 1778SOL     OW 5875   0.438   2.254   3.361
 1778SOL    HW1 5876   0.520   2.198   3.370
 1778SOL    HW2 5877   0.357   2.196   3.365
 1779SOL     OW 5878   1.603   2.309   2.599
 1779SOL    HW1 5879   1.529   2.355   2.549
 1779SOL    HW2 5880   1.654   2.377   2.652
 1780SOL     OW 5881   0.231   3.575   2.345
 1780SOL    HW1 5882   0.265   3.652   2.399
 1780SOL    HW2 5883   0.275   3.575   2.255
 1781SOL     OW 5884   1.127   3.203   3.552
 1781SOL    HW1 5885   1.174   3.203   3.640
 1781SOL    HW2 5886   1.079   3.116   3.541
 1782SOL     OW 5887   0.230   3.296   2.400
 1782SOL    HW1 5888   0.204   3.392   2.400
 1782SOL    HW2 5889   0.159   3.242   2.445
 1783SOL     OW 5890   0.240   2.953   2.748
 1783SOL    HW1 5891   0.254   2.869   2.800
 1783SOL    HW2 5892   0.185   3.017   2.803
 1784SOL     OW 5893   0.620   3.648   3.301
 1784SOL    HW1 5894   0.528   3.631   3.336
 1784SOL    HW2 5895   0.648   3.740   3.327
 1785SOL     OW 5896   0.606   2.826   1.985
 1785SOL    HW1 5897   0.613   2.910   1.931
 1785SOL    HW2 5898   0.652   2.839   2.073
 1786SOL     OW 5899   1.594   1.976   3.342
 1786SOL    HW1 5900   1.576   2.043   3.270
 1786SOL    HW2 5901   1.591   2.022   3.431
 1787SOL     OW 5902   0.122   2.505   2.425
 1787SOL    HW1 5903   0.077   2.417   2.442
 1787SOL    HW2 5904   0.121   2.559   2.509
 1788SOL     OW 5905   1.842   3.629   2.221
 1788SOL    HW1 5906   1.896   3.600   2.301
 1788SOL    HW2 5907   1.872   3.719   2.192
 1789SOL     OW 5908   0.027   3.458   1.979
 1789SOL    HW1 5909   0.008   3.362   2.000
 1789SOL    HW2 5910  -0.006   3.516   2.054
 1790SOL     OW 5911   1.689   2.784   2.474
 1790SOL    HW1 5912   1.784   2.755   2.482
 1790SOL    HW2 5913   1.681   2.849   2.399
 1791SOL     OW 5914   1.641   2.970   2.294
 1791SOL    HW1 5915   1.727   2.972   2.242
 1791SOL    HW2 5916   1.655   3.017   2.382
 1792SOL     OW 5917   0.113   2.599   3.459
 1792SOL    HW1 5918   0.201   2.586   3.504
 1792SOL    HW2 5919   0.100   2.696   3.437
 1793SOL     OW 5920   0.613   3.227   2.588
 1793SOL    HW1 5921   0.564   3.140   2.597
 1793SOL    HW2 5922   0.590   3.270   2.501
 1794SOL     OW 5923   1.293   3.090   3.285
 1794SOL    HW1 5924   1.330   3.017   3.227
 1794SOL    HW2 5925   1.345   3.095   3.370
 1795SOL     OW 5926   0.809   1.866   2.364
 1795SOL    HW1 5927   0.849   1.957   2.355
 1795SOL    HW2 5928   0.709   1.874   2.370
 1796SOL     OW 5929   0.197   2.838   3.126
 1796SOL    HW1 5930   0.286   2.793   3.112
 1796SOL    HW2 5931   0.124   2.773   3.107
 1797SOL     OW 5932   1.525   2.861   2.052
 1797SOL    HW1 5933   1.462   2.785   2.065
 1797SOL    HW2 5934   1.573   2.879   2.138
 1798SOL     OW 5935   1.187   3.654   3.478
 1798SOL    HW1 5936   1.211   3.714   3.402
 1798SOL    HW2 5937   1.194   3.559   3.448
 1799SOL     OW 5938   0.317   2.113   3.663
 1799SOL    HW1 5939   0.388   2.184   3.669
 1799SOL    HW2 5940   0.229   2.152   3.691
 1800SOL     OW 5941   1.466   3.279   2.815
 1800SOL    HW1 5942   1.407   3.285   2.895
 1800SOL    HW2 5943   1.451   3.191   2.769
 1801SOL     OW 5944   1.667   3.576   2.434
 1801SOL    HW1 5945   1.626   3.553   2.346
 1801SOL    HW2 5946   1.649   3.502   2.499
 1802SOL     OW 5947   0.598   2.591   2.132
 1802SOL    HW1 5948   0.622   2.660   2.064
 1802SOL    HW2 5949   0.520   2.624   2.186
 1803SOL     OW 5950   1.281   2.207   2.806
 1803SOL    HW1 5951   1.195   2.157   2.793
 1803SOL    HW2 5952   1.343   2.153   2.862
 1804SOL     OW 5953   1.576   3.524   2.169
 1804SOL    HW1 5954   1.665   3.570   2.172
 1804SOL    HW2 5955   1.555   3.500   2.074
 1805SOL     OW 5956   0.807   2.467   3.327
 1805SOL    HW1 5957   0.760   2.464   3.416
 1805SOL    HW2 5958   0.756   2.412   3.261
 1806SOL     OW 5959   1.394   2.331   3.536
 1806SOL    HW1 5960   1.374   2.374   3.624
 1806SOL    HW2 5961   1.472   2.269   3.545
 1807SOL     OW 5962   0.973   2.752   3.434
 1807SOL    HW1 5963   1.019   2.668   3.405
 1807SOL    HW2 5964   0.917   2.786   3.359
 1808SOL     OW 5965   0.991   2.272   3.104
 1808SOL    HW1 5966   0.914   2.306   3.158
 1808SOL    HW2 5967   0.957   2.221   3.025
 1809SOL     OW 5968   1.041   2.563   2.291
 1809SOL    HW1 5969   1.067   2.559   2.387
 1809SOL    HW2 5970   0.956   2.512   2.277
 1810SOL     OW 5971   0.076   2.673   2.651
 1810SOL    HW1 5972   0.175   2.661   2.660
 1810SOL    HW2 5973   0.052   2.768   2.672
 1811SOL     OW 5974   0.130   3.683   3.433
 1811SOL    HW1 5975   0.120   3.668   3.532
 1811SOL    HW2 5976   0.044   3.719   3.397
 1812SOL     OW 5977   0.865   2.210   2.057
 1812SOL    HW1 5978   0.924   2.273   2.008
 1812SOL    HW2 5979   0.884   2.116   2.028
 1813SOL     OW 5980   1.719   2.447   3.693
 1813SOL    HW1 5981   1.693   2.536   3.657
 1813SOL    HW2 5982   1.717   2.379   3.620
 1814SOL     OW 5983   1.362   3.006   2.407
 1814SOL    HW1 5984   1.445   2.977   2.359
 1814SOL    HW2 5985   1.313   3.073   2.351
 1815SOL     OW 5986   0.550   2.058   2.747
 1815SOL    HW1 5987   0.545   2.053   2.847
 1815SOL    HW2 5988   0.552   2.154   2.718
 1816SOL     OW 5989   1.008   3.318   2.339
 1816SOL    HW1 5990   0.962   3.390   2.287
 1816SOL    HW2 5991   1.004   3.338   2.437
 1817SOL     OW 5992   0.351   3.663   2.715
 1817SOL    HW1 5993   0.401   3.577   2.721
 1817SOL    HW2 5994   0.416   3.740   2.712
 1818SOL     OW 5995   1.795   2.928   2.735
 1818SOL    HW1 5996   1.733   2.913   2.659
 1818SOL    HW2 5997   1.743   2.939   2.820
 1819SOL     OW 5998   1.227   3.412   3.368
 1819SOL    HW1 5999   1.233   3.335   3.432
 1819SOL    HW2 6000   1.175   3.386   3.288
 1820SOL     OW 6001   0.321   2.805   2.104
 1820SOL    HW1 6002   0.403   2.844   2.062
 1820SOL    HW2 6003   0.294   2.723   2.055
 1821SOL     OW 6004   1.458   2.597   2.590
 1821SOL    HW1 6005   1.453   2.532   2.665
 1821SOL    HW2 6006   1.538   2.656   2.603
 1822SOL     OW 6007   0.461   3.128   3.589
 1822SOL    HW1 6008   0.411   3.129   3.503
 1822SOL    HW2 6009   0.398   3.110   3.665
 1823SOL     OW 6010   1.111   3.638   2.099
 1823SOL    HW1 6011   1.051   3.576   2.149
 1823SOL    HW2 6012   1.142   3.594   2.014
 1824SOL     OW 6013   0.202   2.147   3.360
 1824SOL    HW1 6014   0.122   2.207   3.347
 1824SOL    HW2 6015   0.192   2.098   3.446
 1825SOL     OW 6016   1.632   3.239   1.943
 1825SOL    HW1 6017   1.600   3.333   1.933
 1825SOL    HW2 6018   1.556   3.176   1.931
 1826SOL     OW 6019   0.464   3.605   2.185
 1826SOL    HW1 6020   0.497   3.644   2.271
 1826SOL    HW2 6021   0.540   3.598   2.120
 1827SOL     OW 6022   1.400   1.969   2.288
 1827SOL    HW1 6023   1.376   1.932   2.198
 1827SOL    HW2 6024   1.499   1.985   2.292
 1828SOL     OW 6025   0.249   3.647   3.103
 1828SOL    HW1 6026   0.306   3.582   3.153
 1828SOL    HW2 6027   0.233   3.614   3.010
 1829SOL     OW 6028   0.940   3.560   2.766
 1829SOL    HW1 6029   1.020   3.503   2.787
 1829SOL    HW2 6030   0.891   3.520   2.689
 1830SOL     OW 6031   0.382   2.562   2.342
 1830SOL    HW1 6032   0.427   2.472   2.339
 1830SOL    HW2 6033   0.288   2.551   2.375
 1831SOL     OW 6034   1.547   2.084   3.591
 1831SOL    HW1 6035   1.542   2.121   3.683
 1831SOL    HW2 6036   1.475   2.015   3.579
 1832SOL     OW 6037   0.614   1.984   1.979
 1832SOL    HW1 6038   0.712   1.962   1.986
 1832SOL    HW2 6039   0.583   1.967   1.886
 1833SOL     OW 6040   0.781   2.126   3.611
 1833SOL    HW1 6041   0.848   2.065   3.654
 1833SOL    HW2 6042   0.708   2.145   3.676
 1834SOL     OW 6043   0.888   3.376   3.057
 1834SOL    HW1 6044   0.865   3.351   2.963
 1834SOL    HW2 6045   0.949   3.307   3.096
 1835SOL     OW 6046   1.351   2.452   3.295
 1835SOL    HW1 6047   1.379   2.409   3.380
 1835SOL    HW2 6048   1.376   2.548   3.296
 1836SOL     OW 6049   0.803   3.264   2.786
 1836SOL    HW1 6050   0.893   3.278   2.744
 1836SOL    HW2 6051   0.732   3.266   2.715
 1837SOL     OW 6052   0.922   2.365   2.761
 1837SOL    HW1 6053   0.897   2.356   2.665
 1837SOL    HW2 6054   0.970   2.283   2.792
 1838SOL     OW 6055   0.539   1.926   2.374
 1838SOL    HW1 6056   0.458   1.927   2.432
 1838SOL    HW2 6057   0.542   2.009   2.319
 1839SOL     OW 6058   1.434   3.050   1.903
 1839SOL    HW1 6059   1.466   2.974   1.960
 1839SOL    HW2 6060   1.342   3.077   1.933
 1840SOL     OW 6061   0.297   1.897   2.033
 1840SOL    HW1 6062   0.346   1.981   2.012
 1840SOL    HW2 6063   0.359   1.832   2.078
 1841SOL     OW 6064   0.935   2.098   2.342
 1841SOL    HW1 6065   0.887   2.139   2.264
 1841SOL    HW2 6066   1.034   2.096   2.323
 1842SOL     OW 6067   1.076   2.545   3.326
 1842SOL    HW1 6068   0.996   2.484   3.329
 1842SOL    HW2 6069   1.157   2.492   3.302
 1843SOL     OW 6070   1.227   3.432   2.655
 1843SOL    HW1 6071   1.248   3.506   2.590
 1843SOL    HW2 6072   1.295   3.432   2.728
 1844SOL     OW 6073   0.459   3.014   2.603
 1844SOL    HW1 6074   0.388   2.987   2.668
 1844SOL    HW2 6075   0.433   2.986   2.510
 1845SOL     OW 6076   1.271   3.659   2.453
 1845SOL    HW1 6077   1.315   3.723   2.389
 1845SOL    HW2 6078   1.221   3.711   2.523
 1846SOL     OW 6079   1.032   2.411   1.878
 1846SOL    HW1 6080   0.991   2.493   1.839
 1846SOL    HW2 6081   1.096   2.437   1.951
 1847SOL     OW 6082   0.078   2.418   3.248
 1847SOL    HW1 6083   0.170   2.417   3.207
 1847SOL    HW2 6084   0.072   2.492   3.315
 1848SOL     OW 6085   0.561   2.084   3.009
 1848SOL    HW1 6086   0.599   2.000   3.046
 1848SOL    HW2 6087   0.473   2.103   3.053
 1849SOL     OW 6088   0.866   2.316   2.504
 1849SOL    HW1 6089   0.834   2.388   2.442
 1849SOL    HW2 6090   0.890   2.235   2.451
 1850SOL     OW 6091   1.017   1.901   2.615
 1850SOL    HW1 6092   0.945   1.906   2.546
 1850SOL    HW2 6093   0.993   1.832   2.684
 1851SOL     OW 6094   1.429   3.035   2.729
 1851SOL    HW1 6095   1.374   2.951   2.722
 1851SOL    HW2 6096   1.455   3.064   2.637
 1852SOL     OW 6097   1.466   2.452   2.854
 1852SOL    HW1 6098   1.436   2.357   2.861
 1852SOL    HW2 6099   1.539   2.468   2.920
 1853SOL     OW 6100   1.857   2.695   2.239
 1853SOL    HW1 6101   1.899   2.631   2.303
 1853SOL    HW2 6102   1.819   2.644   2.161
 1854SOL     OW 6103   0.488   3.247   2.036
 1854SOL    HW1 6104   0.401   3.232   2.083
 1854SOL    HW2 6105   0.471   3.273   1.941
 1855SOL     OW 6106   1.664   3.142   2.519
 1855SOL    HW1 6107   1.763   3.150   2.533
 1855SOL    HW2 6108   1.619   3.226   2.550
 1856SOL     OW 6109   1.390   2.437   1.940
 1856SOL    HW1 6110   1.336   2.416   2.021
 1856SOL    HW2 6111   1.481   2.396   1.949
 1857SOL     OW 6112   0.527   2.118   2.190
 1857SOL    HW1 6113   0.554   2.059   2.115
 1857SOL    HW2 6114   0.527   2.213   2.159
 1858SOL     OW 6115   1.754   3.085   3.450
 1858SOL    HW1 6116   1.845   3.046   3.437
 1858SOL    HW2 6117   1.762   3.181   3.474
 1859SOL     OW 6118   1.064   3.209   3.202
 1859SOL    HW1 6119   0.984   3.186   3.257
 1859SOL    HW2 6120   1.147   3.183   3.251
 1860SOL     OW 6121   1.592   3.491   3.487
 1860SOL    HW1 6122   1.619   3.525   3.397
 1860SOL    HW2 6123   1.671   3.453   3.533
 1861SOL     OW 6124   1.111   3.057   2.962
 1861SOL    HW1 6125   1.071   3.101   3.043
 1861SOL    HW2 6126   1.070   3.094   2.879
 1862SOL     OW 6127   1.638   2.961   2.941
 1862SOL    HW1 6128   1.643   3.042   3.000
 1862SOL    HW2 6129   1.552   2.963   2.890
 1863SOL     OW 6130   0.915   1.951   3.264
 1863SOL    HW1 6131   0.940   1.931   3.169
 1863SOL    HW2 6132   0.987   2.007   3.306
 1864SOL     OW 6133   0.980   2.978   3.581
 1864SOL    HW1 6134   0.881   2.984   3.591
 1864SOL    HW2 6135   1.003   2.898   3.525
 1865SOL     OW 6136   0.705   2.912   2.230
 1865SOL    HW1 6137   0.691   2.919   2.329
 1865SOL    HW2 6138   0.789   2.861   2.212
 1866SOL     OW 6139   0.410   2.675   3.113
 1866SOL    HW1 6140   0.496   2.687   3.163
 1866SOL    HW2 6141   0.368   2.588   3.140
 1867SOL     OW 6142   1.274   2.248   3.124
 1867SOL    HW1 6143   1.295   2.322   3.188
 1867SOL    HW2 6144   1.185   2.265   3.081
 1868SOL     OW 6145   0.064   3.426   3.193
 1868SOL    HW1 6146   0.018   3.508   3.159
 1868SOL    HW2 6147   0.162   3.445   3.202
 1869SOL     OW 6148   0.367   2.962   2.363
 1869SOL    HW1 6149   0.360   3.045   2.307
 1869SOL    HW2 6150   0.371   2.882   2.303
 1870SOL     OW 6151   0.566   2.399   2.727
 1870SOL    HW1 6152   0.578   2.465   2.653
 1870SOL    HW2 6153   0.612   2.433   2.810
 1871SOL     OW 6154   1.252   3.210   2.250
 1871SOL    HW1 6155   1.302   3.287   2.290
 1871SOL    HW2 6156   1.157   3.212   2.282
 1872SOL     OW 6157   1.272   3.307   3.004
 1872SOL    HW1 6158   1.319   3.320   3.091
 1872SOL    HW2 6159   1.206   3.233   3.013
 1873SOL     OW 6160   1.582   2.501   2.334
 1873SOL    HW1 6161   1.551   2.562   2.407
 1873SOL    HW2 6162   1.632   2.553   2.265
 1874SOL     OW 6163   0.354   3.372   3.191
 1874SOL    HW1 6164   0.333   3.328   3.104
 1874SOL    HW2 6165   0.451   3.398   3.194
 1875SOL     OW 6166   0.402   2.613   3.460
 1875SOL    HW1 6167   0.470   2.668   3.413
 1875SOL    HW2 6168   0.442   2.525   3.487
 1876SOL     OW 6169   1.587   2.641   3.532
 1876SOL    HW1 6170   1.495   2.679   3.527
 1876SOL    HW2 6171   1.647   2.688   3.467
 1877SOL     OW 6172   1.013   1.967   3.632
 1877SOL    HW1 6173   1.019   2.052   3.580
 1877SOL    HW2 6174   1.045   1.891   3.575
 1878SOL     OW 6175   0.504   1.912   3.602
 1878SOL    HW1 6176   0.462   1.855   3.532
 1878SOL    HW2 6177   0.438   1.981   3.634
 1879SOL     OW 6178   0.573   2.732   2.891
 1879SOL    HW1 6179   0.617   2.821   2.882
 1879SOL    HW2 6180   0.510   2.732   2.968
 1880SOL     OW 6181   1.360   2.724   2.907
 1880SOL    HW1 6182   1.285   2.724   2.841
 1880SOL    HW2 6183   1.397   2.632   2.916
 1881SOL     OW 6184   1.209   2.387   2.137
 1881SOL    HW1 6185   1.222   2.303   2.191
 1881SOL    HW2 6186   1.180   2.461   2.197
 1882SOL     OW 6187   0.307   2.075   3.093
 1882SOL    HW1 6188   0.284   2.112   3.183
 1882SOL    HW2 6189   0.277   1.980   3.087
 1883SOL     OW 6190   0.037   3.172   3.144
 1883SOL    HW1 6191   0.090   3.123   3.212
 1883SOL    HW2 6192   0.059   3.270   3.149
 1884SOL     OW 6193   0.732   2.496   2.926
 1884SOL    HW1 6194   0.791   2.470   2.850
 1884SOL    HW2 6195   0.704   2.592   2.915
 1885SOL     OW 6196   1.728   2.797   3.716
 1885SOL    HW1 6197   1.682   2.790   3.627
 1885SOL    HW2 6198   1.666   2.841   3.782
 1886SOL     OW 6199   0.307   1.925   2.480
 1886SOL    HW1 6200   0.296   2.019   2.513
 1886SOL    HW2 6201   0.302   1.862   2.557
 1887SOL     OW 6202   1.622   2.229   2.236
 1887SOL    HW1 6203   1.624   2.153   2.300
 1887SOL    HW2 6204   1.574   2.306   2.276
 1888SOL     OW 6205   1.023   2.628   2.828
 1888SOL    HW1 6206   1.038   2.649   2.924
 1888SOL    HW2 6207   0.993   2.533   2.819
 1889SOL     OW 6208   0.980   3.435   3.562
 1889SOL    HW1 6209   0.960   3.479   3.474
 1889SOL    HW2 6210   1.019   3.344   3.546
 1890SOL     OW 6211   1.859   3.380   3.467
 1890SOL    HW1 6212   1.873   3.407   3.372
 1890SOL    HW2 6213   1.942   3.402   3.520
 1891SOL     OW 6214   0.350   2.760   3.666
 1891SOL    HW1 6215   0.426   2.804   3.714
 1891SOL    HW2 6216   0.385   2.713   3.584
 1892SOL     OW 6217   1.540   2.136   1.987
 1892SOL    HW1 6218   1.479   2.061   2.010
 1892SOL    HW2 6219   1.562   2.188   2.070
 1893SOL     OW 6220   1.303   2.700   1.904
 1893SOL    HW1 6221   1.337   2.607   1.919
 1893SOL    HW2 6222   1.321   2.727   1.809
 1894SOL     OW 6223   1.068   3.195   2.711
 1894SOL    HW1 6224   1.075   3.111   2.656
 1894SOL    HW2 6225   1.130   3.264   2.675
 1895SOL     OW 6226   0.319   2.672   2.811
 1895SOL    HW1 6227   0.412   2.708   2.816
 1895SOL    HW2 6228   0.313   2.587   2.863
 1896SOL     OW 6229   0.339   2.371   2.868
 1896SOL    HW1 6230   0.287   2.288   2.851
 1896SOL    HW2 6231   0.416   2.376   2.804
 1897SOL     OW 6232   1.138   2.242   3.540
 1897SOL    HW1 6233   1.093   2.305   3.604
 1897SOL    HW2 6234   1.231   2.273   3.523
 1898SOL     OW 6235   1.160   2.069   3.339
 1898SOL    HW1 6236   1.160   2.133   3.416
 1898SOL    HW2 6237   1.188   2.117   3.256
 1899SOL     OW 6238   0.008   3.188   2.062
 1899SOL    HW1 6239  -0.085   3.209   2.031
 1899SOL    HW2 6240   0.018   3.089   2.075
 1900SOL     OW 6241   0.088   3.663   2.789
 1900SOL    HW1 6242   0.046   3.577   2.762
 1900SOL    HW2 6243   0.182   3.666   2.755
 1901SOL     OW 6244   0.504   3.430   2.772
 1901SOL    HW1 6245   0.570   3.504   2.781
 1901SOL    HW2 6246   0.548   3.351   2.730
 1902SOL     OW 6247   1.002   2.658   3.100
 1902SOL    HW1 6248   1.043   2.626   3.186
 1902SOL    HW2 6249   0.906   2.631   3.097
 1903SOL     OW 6250   0.040   2.406   2.976
 1903SOL    HW1 6251   0.125   2.373   2.935
 1903SOL    HW2 6252   0.053   2.421   3.074
 1904SOL     OW 6253   0.189   2.382   3.584
 1904SOL    HW1 6254   0.248   2.342   3.514
 1904SOL    HW2 6255   0.131   2.453   3.543
 1905SOL     OW 6256   1.369   2.812   3.522
 1905SOL    HW1 6257   1.408   2.901   3.542
 1905SOL    HW2 6258   1.379   2.792   3.425
 1906SOL     OW 6259   0.815   2.434   2.187
 1906SOL    HW1 6260   0.822   2.345   2.141
 1906SOL    HW2 6261   0.721   2.468   2.179
 1907SOL     OW 6262   1.657   2.466   3.068
 1907SOL    HW1 6263   1.619   2.397   3.130
 1907SOL    HW2 6264   1.739   2.430   3.024
 1908SOL     OW 6265   0.252   3.426   3.606
 1908SOL    HW1 6266   0.222   3.483   3.682
 1908SOL    HW2 6267   0.245   3.329   3.632
 1909SOL     OW 6268   0.671   2.326   3.131
 1909SOL    HW1 6269   0.637   2.237   3.101
 1909SOL    HW2 6270   0.697   2.380   3.051
 1910SOL     OW 6271   0.930   3.540   3.327
 1910SOL    HW1 6272   0.906   3.522   3.232
 1910SOL    HW2 6273   0.960   3.634   3.337
 1911SOL     OW 6274   0.473   2.362   2.053
 1911SOL    HW1 6275   0.534   2.442   2.057
 1911SOL    HW2 6276   0.378   2.393   2.060
 1912SOL     OW 6277   0.159   2.999   3.328
 1912SOL    HW1 6278   0.181   2.938   3.404
 1912SOL    HW2 6279   0.169   2.950   3.242
 1913SOL     OW 6280   1.347   2.921   3.096
 1913SOL    HW1 6281   1.371   2.858   3.022
 1913SOL    HW2 6282   1.257   2.961   3.078
 1914SOL     OW 6283   1.302   2.717   2.171
 1914SOL    HW1 6284   1.216   2.686   2.213
 1914SOL    HW2 6285   1.298   2.703   2.072
 1915SOL     OW 6286   1.759   3.609   3.016
 1915SOL    HW1 6287   1.820   3.639   2.943
 1915SOL    HW2 6288   1.721   3.520   2.994
 1916SOL     OW 6289   1.252   3.593   2.990
 1916SOL    HW1 6290   1.336   3.598   2.936
 1916SOL    HW2 6291   1.229   3.497   3.008
 1917SOL     OW 6292   0.083   3.120   2.884
 1917SOL    HW1 6293   0.078   3.119   2.984
 1917SOL    HW2 6294   0.000   3.079   2.846
 1918SOL     OW 6295   0.688   3.524   3.578
 1918SOL    HW1 6296   0.632   3.605   3.587
 1918SOL    HW2 6297   0.740   3.528   3.492
 1919SOL     OW 6298   1.388   3.435   2.339
 1919SOL    HW1 6299   1.455   3.447   2.265
 1919SOL    HW2 6300   1.348   3.524   2.362
 1920SOL     OW 6301   0.130   3.656   3.713
 1920SOL    HW1 6302   0.089   3.582   3.766
 1920SOL    HW2 6303   0.194   3.707   3.771
 1921SOL     OW 6304   1.280   2.789   2.534
 1921SOL    HW1 6305   1.340   2.708   2.536
 1921SOL    HW2 6306   1.320   2.858   2.474
 1922SOL     OW 6307   0.830   3.135   3.284
 1922SOL    HW1 6308   0.825   3.168   3.379
 1922SOL    HW2 6309   0.744   3.154   3.238
 1923SOL     OW 6310   0.672   3.478   2.016
 1923SOL    HW1 6311   0.681   3.488   1.917
 1923SOL    HW2 6312   0.632   3.389   2.037
 1924SOL     OW 6313   1.650   3.582   3.256
 1924SOL    HW1 6314   1.703   3.592   3.172
 1924SOL    HW2 6315   1.623   3.672   3.290
 1925SOL     OW 6316   0.263   2.188   2.582
 1925SOL    HW1 6317   0.184   2.239   2.548
 1925SOL    HW2 6318   0.254   2.173   2.680
 1926SOL     OW 6319   1.194   3.474   1.893
 1926SOL    HW1 6320   1.200   3.381   1.930
 1926SOL    HW2 6321   1.135   3.474   1.813
 1927SOL     OW 6322   0.822   2.864   3.234
 1927SOL    HW1 6323   0.862   2.863   3.142
 1927SOL    HW2 6324   0.832   2.956   3.274
 1928SOL     OW 6325   0.916   2.772   2.153
 1928SOL    HW1 6326   0.979   2.810   2.085
 1928SOL    HW2 6327   0.956   2.689   2.192
 1929SOL     OW 6328   1.504   3.469   1.906
 1929SOL    HW1 6329   1.412   3.506   1.913
 1929SOL    HW2 6330   1.542   3.489   1.816
 1930SOL     OW 6331   0.372   3.150   3.352
 1930SOL    HW1 6332   0.359   3.243   3.318
 1930SOL    HW2 6333   0.288   3.098   3.339
 1931SOL     OW 6334   1.614   3.154   3.151
 1931SOL    HW1 6335   1.674   3.157   3.231
 1931SOL    HW2 6336   1.539   3.218   3.164
 1932SOL     OW 6337   1.039   2.960   2.558
 1932SOL    HW1 6338   0.969   2.913   2.612
 1932SOL    HW2 6339   1.098   2.892   2.515
 1933SOL     OW 6340   1.014   2.098   2.833
 1933SOL    HW1 6341   1.006   2.062   2.740
 1933SOL    HW2 6342   1.012   2.022   2.898
 1934SOL     OW 6343   0.590   3.349   2.353
 1934SOL    HW1 6344   0.632   3.291   2.283
 1934SOL    HW2 6345   0.546   3.428   2.309
 1935SOL     OW 6346   1.709   2.247   3.243
 1935SOL    HW1 6347   1.782   2.316   3.247
 1935SOL    HW2 6348   1.737   2.172   3.184
 1936SOL     OW 6349   0.255   3.210   2.152
 1936SOL    HW1 6350   0.159   3.211   2.125
 1936SOL    HW2 6351   0.267   3.263   2.236
 1937SOL     OW 6352   0.105   2.875   3.588
 1937SOL    HW1 6353   0.028   2.842   3.642
 1937SOL    HW2 6354   0.190   2.845   3.630
 1938SOL     OW 6355   0.672   2.065   3.351
 1938SOL    HW1 6356   0.762   2.049   3.311
 1938SOL    HW2 6357   0.680   2.070   3.450
 1939SOL     OW 6358   0.075   2.207   1.895
 1939SOL    HW1 6359  -0.017   2.179   1.866
 1939SOL    HW2 6360   0.106   2.284   1.839
 1940SOL     OW 6361   1.440   2.718   3.260
 1940SOL    HW1 6362   1.383   2.770   3.197
 1940SOL    HW2 6363   1.536   2.730   3.236
 1941SOL     OW 6364   0.072   2.028   2.180
 1941SOL    HW1 6365   0.055   2.111   2.126
 1941SOL    HW2 6366   0.162   1.991   2.158
 1942SOL     OW 6367   1.183   3.197   1.981
 1942SOL    HW1 6368   1.084   3.186   1.983
 1942SOL    HW2 6369   1.217   3.212   2.074
 1943SOL     OW 6370   0.613   2.704   3.293
 1943SOL    HW1 6371   0.669   2.785   3.276
 1943SOL    HW2 6372   0.672   2.624   3.296
 1944SOL     OW 6373   1.493   3.629   2.821
 1944SOL    HW1 6374   1.526   3.693   2.752
 1944SOL    HW2 6375   1.559   3.623   2.896
 1945SOL     OW 6376   0.716   2.427   3.570
 1945SOL    HW1 6377   0.735   2.492   3.644
 1945SOL    HW2 6378   0.776   2.347   3.579
 1946SOL     OW 6379   1.450   3.082   3.495
 1946SOL    HW1 6380   1.441   3.072   3.594
 1946SOL    HW2 6381   1.546   3.075   3.469
 1947SOL     OW 6382   0.390   3.603   3.422
 1947SOL    HW1 6383   0.299   3.644   3.420
 1947SOL    HW2 6384   0.383   3.509   3.454
 1948SOL     OW 6385   1.674   2.745   3.116
 1948SOL    HW1 6386   1.647   2.656   3.079
 1948SOL    HW2 6387   1.675   2.813   3.043
 1949SOL     OW 6388   1.225   2.187   2.311
 1949SOL    HW1 6389   1.290   2.113   2.300
 1949SOL    HW2 6390   1.245   2.237   2.395
 1950SOL     OW 6391   0.594   2.607   2.514
 1950SOL    HW1 6392   0.644   2.692   2.495
 1950SOL    HW2 6393   0.506   2.609   2.466
 1951SOL     OW 6394   1.777   2.204   3.504
 1951SOL    HW1 6395   1.760   2.235   3.410
 1951SOL    HW2 6396   1.693   2.167   3.542
 1952SOL     OW 6397   1.730   2.796   3.379
 1952SOL    HW1 6398   1.768   2.887   3.394
 1952SOL    HW2 6399   1.722   2.779   3.280
 1953SOL     OW 6400   0.859   3.236   1.878
 1953SOL    HW1 6401   0.813   3.251   1.966
 1953SOL    HW2 6402   0.903   3.321   1.848
 1954SOL     OW 6403   0.661   3.652   2.815
 1954SOL    HW1 6404   0.615   3.740   2.802
 1954SOL    HW2 6405   0.760   3.664   2.808
 1955SOL     OW 6406   0.859   2.818   2.723
 1955SOL    HW1 6407   0.913   2.749   2.771
 1955SOL    HW2 6408   0.827   2.887   2.789
 1956SOL     OW 6409   1.083   2.846   1.949
 1956SOL    HW1 6410   1.060   2.899   1.867
 1956SOL    HW2 6411   1.164   2.790   1.930
 1957SOL     OW 6412   1.861   3.431   2.713
 1957SOL    HW1 6413   1.790   3.419   2.643
 1957SOL    HW2 6414   1.862   3.352   2.773
 1958SOL     OW 6415   0.221   3.176   3.706
 1958SOL    HW1 6416   0.156   3.103   3.685
 1958SOL    HW2 6417   0.225   3.190   3.804
 1959SOL     OW 6418   0.079   3.102   2.515
 1959SOL    HW1 6419   0.078   3.055   2.603
 1959SOL    HW2 6420   0.161   3.074   2.464
 1960SOL     OW 6421   0.672   3.253   3.486
 1960SOL    HW1 6422   0.594   3.203   3.524
 1960SOL    HW2 6423   0.669   3.348   3.517
 1961SOL     OW 6424   0.428   2.286   2.382
 1961SOL    HW1 6425   0.458   2.214   2.320
 1961SOL    HW2 6426   0.389   2.246   2.465
 1962SOL     OW 6427   1.705   3.349   2.966
 1962SOL    HW1 6428   1.612   3.324   2.939
 1962SOL    HW2 6429   1.731   3.299   3.048
 1963SOL     OW 6430   0.317   2.409   3.142
 1963SOL    HW1 6431   0.355   2.350   3.214
 1963SOL    HW2 6432   0.357   2.383   3.054
 1964SOL     OW 6433   0.812   3.448   2.549
 1964SOL    HW1 6434   0.844   3.458   2.455
 1964SOL    HW2 6435   0.733   3.386   2.551
 1965SOL     OW 6436   1.424   2.076   2.974
 1965SOL    HW1 6437   1.476   2.011   3.029
 1965SOL    HW2 6438   1.375   2.139   3.035
 1966SOL     OW 6439   1.001   1.896   3.016
 1966SOL    HW1 6440   0.938   1.824   2.985
 1966SOL    HW2 6441   1.094   1.860   3.016
 1967SOL     OW 6442   0.770   3.192   2.163
 1967SOL    HW1 6443   0.724   3.105   2.180
 1967SOL    HW2 6444   0.861   3.189   2.204
 1968SOL     OW 6445   0.618   3.429   3.146
 1968SOL    HW1 6446   0.613   3.511   3.203
 1968SOL    HW2 6447   0.707   3.426   3.101
 1969SOL     OW 6448   1.352   1.914   2.030
 1969SOL    HW1 6449   1.387   1.873   1.946
 1969SOL    HW2 6450   1.262   1.876   2.050
 1970SOL     OW 6451   1.300   2.315   2.553
 1970SOL    HW1 6452   1.241   2.395   2.557
 1970SOL    HW2 6453   1.315   2.280   2.646
 1971SOL     OW 6454   1.593   2.083   2.744
 1971SOL    HW1 6455   1.509   2.082   2.798
 1971SOL    HW2 6456   1.595   2.166   2.688
 1972SOL     OW 6457   0.039   2.939   2.162
 1972SOL    HW1 6458   0.138   2.928   2.153
 1972SOL    HW2 6459  -0.001   2.853   2.194
 1973SOL     OW 6460   0.875   3.508   2.199
 1973SOL    HW1 6461   0.798   3.473   2.145
 1973SOL    HW2 6462   0.843   3.579   2.261
 1974SOL     OW 6463   0.230   2.490   3.837
 1974SOL    HW1 6464   0.137   2.488   3.874
 1974SOL    HW2 6465   0.231   2.451   3.745
 1975SOL     OW 6466   0.225   2.137   4.720
 1975SOL    HW1 6467   0.260   2.120   4.812
 1975SOL    HW2 6468   0.137   2.092   4.708
 1976SOL     OW 6469   0.019   2.230   4.371
 1976SOL    HW1 6470  -0.063   2.273   4.410
 1976SOL    HW2 6471  -0.009   2.157   4.308
 1977SOL     OW 6472   0.569   3.137   4.889
 1977SOL    HW1 6473   0.476   3.130   4.852
 1977SOL    HW2 6474   0.580   3.226   4.933
 1978SOL     OW 6475   1.555   3.373   4.427
 1978SOL    HW1 6476   1.498   3.357   4.508
 1978SOL    HW2 6477   1.496   3.383   4.347
 1979SOL     OW 6478   1.135   2.565   4.441
 1979SOL    HW1 6479   1.192   2.643   4.416
 1979SOL    HW2 6480   1.075   2.591   4.517
 1980SOL     OW 6481   1.755   2.469   3.955
 1980SOL    HW1 6482   1.743   2.456   3.856
 1980SOL    HW2 6483   1.725   2.388   4.004
 1981SOL     OW 6484   0.768   3.006   4.747
 1981SOL    HW1 6485   0.690   3.023   4.807
 1981SOL    HW2 6486   0.802   3.093   4.711
 1982SOL     OW 6487   0.850   2.660   5.547
 1982SOL    HW1 6488   0.846   2.736   5.612
 1982SOL    HW2 6489   0.872   2.696   5.456
 1983SOL     OW 6490   0.685   2.874   4.389
 1983SOL    HW1 6491   0.754   2.858   4.459
 1983SOL    HW2 6492   0.612   2.931   4.427
 1984SOL     OW 6493   0.686   3.023   5.527
 1984SOL    HW1 6494   0.746   3.102   5.541
 1984SOL    HW2 6495   0.600   3.054   5.486
 1985SOL     OW 6496   0.335   3.297   4.785
 1985SOL    HW1 6497   0.257   3.266   4.732
 1985SOL    HW2 6498   0.393   3.355   4.728
 1986SOL     OW 6499   1.460   3.367   5.063
 1986SOL    HW1 6500   1.484   3.461   5.089
 1986SOL    HW2 6501   1.444   3.313   5.145
 1987SOL     OW 6502   0.438   2.254   5.223
 1987SOL    HW1 6503   0.520   2.198   5.232
 1987SOL    HW2 6504   0.357   2.196   5.227
 1988SOL     OW 6505   1.603   2.309   4.461
 1988SOL    HW1 6506   1.529   2.355   4.411
 1988SOL    HW2 6507   1.654   2.377   4.514
 1989SOL     OW 6508   0.231   3.575   4.207
 1989SOL    HW1 6509   0.265   3.652   4.261
 1989SOL    HW2 6510   0.275   3.575   4.117
 1990SOL     OW 6511   1.127   3.203   5.414
 1990SOL    HW1 6512   1.174   3.203   5.502
 1990SOL    HW2 6513   1.079   3.116   5.403
 1991SOL     OW 6514   0.230   3.296   4.262
 1991SOL    HW1 6515   0.204   3.392   4.262
 1991SOL    HW2 6516   0.159   3.242   4.307
 1992SOL     OW 6517   0.240   2.953   4.610
 1992SOL    HW1 6518   0.254   2.869   4.662
 1992SOL    HW2 6519   0.185   3.017   4.665
 1993SOL     OW 6520   0.620   3.648   5.163
 1993SOL    HW1 6521   0.528   3.631   5.198
 1993SOL    HW2 6522   0.648   3.740   5.189
 1994SOL     OW 6523   0.606   2.826   3.847
 1994SOL    HW1 6524   0.613   2.910   3.793
 1994SOL    HW2 6525   0.652   2.839   3.935
 1995SOL     OW 6526   1.594   1.976   5.204
 1995SOL    HW1 6527   1.576   2.043   5.132
 1995SOL    HW2 6528   1.591   2.022   5.293
 1996SOL     OW 6529   0.122   2.505   4.287
 1996SOL    HW1 6530   0.077   2.417   4.304
 1996SOL    HW2 6531   0.121   2.559   4.371
 1997SOL     OW 6532   1.842   3.629   4.083
 1997SOL    HW1 6533   1.896   3.600   4.163
 1997SOL    HW2 6534   1.872   3.719   4.054
 1998SOL     OW 6535   0.027   3.458   3.841
 1998SOL    HW1 6536   0.008   3.362   3.862
 1998SOL    HW2 6537  -0.006   3.516   3.916
 1999SOL     OW 6538   1.689   2.784   4.336
 1999SOL    HW1 6539   1.784   2.755   4.344
 1999SOL    HW2 6540   1.681   2.849   4.261
 2000SOL     OW 6541   1.641   2.970   4.156
 2000SOL    HW1 6542   1.727   2.972   4.104
 2000SOL    HW2 6543   1.655   3.017   4.244
 2001SOL     OW 6544   0.113   2.599   5.321
 2001SOL    HW1 6545   0.201   2.586   5.366
 2001SOL    HW2 6546   0.100   2.696   5.299
 2002SOL     OW 6547   0.613   3.227   4.450
 2002SOL    HW1 6548   0.564   3.140   4.459
 2002SOL    HW2 6549   0.590   3.270   4.363
 2003SOL     OW 6550   1.293   3.090   5.147
 2003SOL    HW1 6551   1.330   3.017   5.089
 2003SOL    HW2 6552   1.345   3.095   5.232
 2004SOL     OW 6553   0.809   1.866   4.226
 2004SOL    HW1 6554   0.849   1.957   4.217
 2004SOL    HW2 6555   0.709   1.874   4.232
 2005SOL     OW 6556   0.197   2.838   4.988
 2005SOL    HW1 6557   0.286   2.793   4.974
 2005SOL    HW2 6558   0.124   2.773   4.969
 2006SOL     OW 6559   1.525   2.861   3.914
 2006SOL    HW1 6560   1.462   2.785   3.927
 2006SOL    HW2 6561   1.573   2.879   4.000
 2007SOL     OW 6562   1.187   3.654   5.340
 2007SOL    HW1 6563   1.211   3.714   5.264
 2007SOL    HW2 6564   1.194   3.559   5.310
 2008SOL     OW 6565   0.317   2.113   5.525
 2008SOL    HW1 6566   0.388   2.184   5.531
 2008SOL    HW2 6567   0.229   2.152   5.553
 2009SOL     OW 6568   1.466   3.279   4.677
 2009SOL    HW1 6569   1.407   3.285   4.757
 2009SOL    HW2 6570   1.451   3.191   4.631
 2010SOL     OW 6571   1.667   3.576   4.296
 2010SOL    HW1 6572   1.626   3.553   4.208
 2010SOL    HW2 6573   1.649   3.502   4.361
 2011SOL     OW 6574   0.598   2.591   3.994
 2011SOL    HW1 6575   0.622   2.660   3.926
 2011SOL    HW2 6576   0.520   2.624   4.048
 2012SOL     OW 6577   1.281   2.207   4.668
 2012SOL    HW1 6578   1.195   2.157   4.655
 2012SOL    HW2 6579   1.343   2.153   4.724
 2013SOL     OW 6580   1.576   3.524   4.031
 2013SOL    HW1 6581   1.665   3.570   4.034
 2013SOL    HW2 6582   1.555   3.500   3.936
 2014SOL     OW 6583   0.807   2.467   5.189
 2014SOL    HW1 6584   0.760   2.464   5.278
 2014SOL    HW2 6585   0.756   2.412   5.123
 2015SOL     OW 6586   1.394   2.331   5.398
 2015SOL    HW1 6587   1.374   2.374   5.486
 2015SOL    HW2 6588   1.472   2.269   5.407
 2016SOL     OW 6589   0.973   2.752   5.296
 2016SOL    HW1 6590   1.019   2.668   5.267
 2016SOL    HW2 6591   0.917   2.786   5.221
 2017SOL     OW 6592   0.991   2.272   4.966
 2017SOL    HW1 6593   0.914   2.306   5.020
 2017SOL    HW2 6594   0.957   2.221   4.887
 2018SOL     OW 6595   1.041   2.563   4.153
 2018SOL    HW1 6596   1.067   2.559   4.249
 2018SOL    HW2 6597   0.956   2.512   4.139
 2019SOL     OW 6598   0.076   2.673   4.513
 2019SOL    HW1 6599   0.175   2.661   4.522
 2019SOL    HW2 6600   0.052   2.768   4.534
 2020SOL     OW 6601   0.130   3.683   5.295
 2020SOL    HW1 6602   0.120   3.668   5.394
 2020SOL    HW2 6603   0.044   3.719   5.259
 2021SOL     OW 6604   0.865   2.210   3.919
 2021SOL    HW1 6605   0.924   2.273   3.870
 2021SOL    HW2 6606   0.884   2.116   3.890
 2022SOL     OW 6607   1.719   2.447   5.555
 2022SOL    HW1 6608   1.693   2.536   5.519
 2022SOL    HW2 6609   1.717   2.379   5.482
 2023SOL     OW 6610   1.362   3.006   4.269
 2023SOL    HW1 6611   1.445   2.977   4.221
 2023SOL    HW2 6612   1.313   3.073   4.213
 2024SOL     OW 6613   0.550   2.058   4.609
 2024SOL    HW1 6614   0.545   2.053   4.709
 2024SOL    HW2 6615   0.552   2.154   4.580
 2025SOL     OW 6616   1.008   3.318   4.201
 2025SOL    HW1 6617   0.962   3.390   4.149
 2025SOL    HW2 6618   1.004   3.338   4.299
 2026SOL     OW 6619   0.351   3.663   4.577
 2026SOL    HW1 6620   0.401   3.577   4.583
 2026SOL    HW2 6621   0.416   3.740   4.574
 2027SOL     OW 6622   1.795   2.928   4.597
 2027SOL    HW1 6623   1.733   2.913   4.521
 2027SOL    HW2 6624   1.743   2.939   4.682
 2028SOL     OW 6625   1.227   3.412   5.230
 2028SOL    HW1 6626   1.233   3.335   5.294
 2028SOL    HW2 6627   1.175   3.386   5.150
 2029SOL     OW 6628   0.321   2.805   3.966
 2029SOL    HW1 6629   0.403   2.844   3.924
 2029SOL    HW2 6630   0.294   2.723   3.917
 2030SOL     OW 6631   1.458   2.597   4.452
 2030SOL    HW1 6632   1.453   2.532   4.527
 2030SOL    HW2 6633   1.538   2.656   4.465
 2031SOL     OW 6634   0.461   3.128   5.451
 2031SOL    HW1 6635   0.411   3.129   5.365
 2031SOL    HW2 6636   0.398   3.110   5.527
 2032SOL     OW 6637   1.111   3.638   3.961
 2032SOL    HW1 6638   1.051   3.576   4.011
 2032SOL    HW2 6639   1.142   3.594   3.876
 2033SOL     OW 6640   0.202   2.147   5.222
 2033SOL    HW1 6641   0.122   2.207   5.209
 2033SOL    HW2 6642   0.192   2.098   5.308
 2034SOL     OW 6643   1.632   3.239   3.805
 2034SOL    HW1 6644   1.600   3.333   3.795
 2034SOL    HW2 6645   1.556   3.176   3.793
 2035SOL     OW 6646   0.464   3.605   4.047
 2035SOL    HW1 6647   0.497   3.644   4.133
 2035SOL    HW2 6648   0.540   3.598   3.982
 2036SOL     OW 6649   1.400   1.969   4.150
 2036SOL    HW1 6650   1.376   1.932   4.060
 2036SOL    HW2 6651   1.499   1.985   4.154
 2037SOL     OW 6652   0.249   3.647   4.965
 2037SOL    HW1 6653   0.306   3.582   5.015
 2037SOL    HW2 6654   0.233   3.614   4.872
 2038SOL     OW 6655   0.940   3.560   4.628
 2038SOL    HW1 6656   1.020   3.503   4.649
 2038SOL    HW2 6657   0.891   3.520   4.551
 2039SOL     OW 6658   0.382   2.562   4.204
 2039SOL    HW1 6659   0.427   2.472   4.201
 2039SOL    HW2 6660   0.288   2.551   4.237
 2040SOL     OW 6661   1.547   2.084   5.453
 2040SOL    HW1 6662   1.542   2.121   5.545
 2040SOL    HW2 6663   1.475   2.015   5.441
 2041SOL     OW 6664   0.614   1.984   3.841
 2041SOL    HW1 6665   0.712   1.962   3.848
 2041SOL    HW2 6666   0.583   1.967   3.748
 2042SOL     OW 6667   0.781   2.126   5.473
 2042SOL    HW1 6668   0.848   2.065   5.516
 2042SOL    HW2 6669   0.708   2.145   5.538
 2043SOL     OW 6670   0.888   3.376   4.919
 2043SOL    HW1 6671   0.865   3.351   4.825
 2043SOL    HW2 6672   0.949   3.307   4.958
 2044SOL     OW 6673   1.351   2.452   5.157
 2044SOL    HW1 6674   1.379   2.409   5.242
 2044SOL    HW2 6675   1.376   2.548   5.158
 2045SOL     OW 6676   0.803   3.264   4.648
 2045SOL    HW1 6677   0.893   3.278   4.606
 2045SOL    HW2 6678   0.732   3.266   4.577
 2046SOL     OW 6679   0.922   2.365   4.623
 2046SOL    HW1 6680   0.897   2.356   4.527
 2046SOL    HW2 6681   0.970   2.283   4.654
 2047SOL     OW 6682   0.539   1.926   4.236
 2047SOL    HW1 6683   0.458   1.927   4.294
 2047SOL    HW2 6684   0.542   2.009   4.181
 2048SOL     OW 6685   1.434   3.050   3.765
 2048SOL    HW1 6686   1.466   2.974   3.822
 2048SOL    HW2 6687   1.342   3.077   3.795
 2049SOL     OW 6688   0.297   1.897   3.895
 2049SOL    HW1 6689   0.346   1.981   3.874
 2049SOL    HW2 6690   0.359   1.832   3.940
 2050SOL     OW 6691   0.935   2.098   4.204
 2050SOL    HW1 6692   0.887   2.139   4.126
 2050SOL    HW2 6693   1.034   2.096   4.185
 2051SOL     OW 6694   1.076   2.545   5.188
 2051SOL    HW1 6695   0.996   2.484   5.191
 2051SOL    HW2 6696   1.157   2.492   5.164
 2052SOL     OW 6697   1.227   3.432   4.517
 2052SOL    HW1 6698   1.248   3.506   4.452
 2052SOL    HW2 6699   1.295   3.432   4.590
 2053SOL     OW 6700   0.459   3.014   4.465
 2053SOL    HW1 6701   0.388   2.987   4.530
 2053SOL    HW2 6702   0.433   2.986   4.372
 2054SOL     OW 6703   1.271   3.659   4.315
 2054SOL    HW1 6704   1.315   3.723   4.251
 2054SOL    HW2 6705   1.221   3.711   4.385
 2055SOL     OW 6706   1.032   2.411   3.740
 2055SOL    HW1 6707   0.991   2.493   3.701
 2055SOL    HW2 6708   1.096   2.437   3.813
 2056SOL     OW 6709   0.078   2.418   5.110
 2056SOL    HW1 6710   0.170   2.417   5.069
 2056SOL    HW2 6711   0.072   2.492   5.177
 2057SOL     OW 6712   0.561   2.084   4.871
 2057SOL    HW1 6713   0.599   2.000   4.908
 2057SOL    HW2 6714   0.473   2.103   4.915
 2058SOL     OW 6715   0.866   2.316   4.366
 2058SOL    HW1 6716   0.834   2.388   4.304
 2058SOL    HW2 6717   0.890   2.235   4.313
 2059SOL     OW 6718   1.017   1.901   4.477
 2059SOL    HW1 6719   0.945   1.906   4.408
 2059SOL    HW2 6720   0.993   1.832   4.546
 2060SOL     OW 6721   1.429   3.035   4.591
 2060SOL    HW1 6722   1.374   2.951   4.584
 2060SOL    HW2 6723   1.455   3.064   4.499
 2061SOL     OW 6724   1.466   2.452   4.716
 2061SOL    HW1 6725   1.436   2.357   4.723
 2061SOL    HW2 6726   1.539   2.468   4.782
 2062SOL     OW 6727   1.857   2.695   4.101
 2062SOL    HW1 6728   1.899   2.631   4.165
 2062SOL    HW2 6729   1.819   2.644   4.023
 2063SOL     OW 6730   0.488   3.247   3.898
 2063SOL    HW1 6731   0.401   3.232   3.945
 2063SOL    HW2 6732   0.471   3.273   3.803
 2064SOL     OW 6733   1.664   3.142   4.381
 2064SOL    HW1 6734   1.763   3.150   4.395
 2064SOL    HW2 6735   1.619   3.226   4.412
 2065SOL     OW 6736   1.390   2.437   3.802
 2065SOL    HW1 6737   1.336   2.416   3.883
 2065SOL    HW2 6738   1.481   2.396   3.811
 2066SOL     OW 6739   0.527   2.118   4.052
 2066SOL    HW1 6740   0.554   2.059   3.977
 2066SOL    HW2 6741   0.527   2.213   4.021
 2067SOL     OW 6742   1.754   3.085   5.312
 2067SOL    HW1 6743   1.845   3.046   5.299
 2067SOL    HW2 6744   1.762   3.181   5.336
 2068SOL     OW 6745   1.064   3.209   5.064
 2068SOL    HW1 6746   0.984   3.186   5.119
 2068SOL    HW2 6747   1.147   3.183   5.113
 2069SOL     OW 6748   1.592   3.491   5.349
 2069SOL    HW1 6749   1.619   3.525   5.259
 2069SOL    HW2 6750   1.671   3.453   5.395
 2070SOL     OW 6751   1.111   3.057   4.824
 2070SOL    HW1 6752   1.071   3.101   4.905
 2070SOL    HW2 6753   1.070   3.094   4.741
 2071SOL     OW 6754   1.638   2.961   4.803
 2071SOL    HW1 6755   1.643   3.042   4.862
 2071SOL    HW2 6756   1.552   2.963   4.752
 2072SOL     OW 6757   0.915   1.951   5.126
 2072SOL    HW1 6758   0.940   1.931   5.031
 2072SOL    HW2 6759   0.987   2.007   5.168
 2073SOL     OW 6760   0.980   2.978   5.443
 2073SOL    HW1 6761   0.881   2.984   5.453
 2073SOL    HW2 6762   1.003   2.898   5.387
 2074SOL     OW 6763   0.705   2.912   4.092
 2074SOL    HW1 6764   0.691   2.919   4.191
 2074SOL    HW2 6765   0.789   2.861   4.074
 2075SOL     OW 6766   0.410   2.675   4.975
 2075SOL    HW1 6767   0.496   2.687   5.025
 2075SOL    HW2 6768   0.368   2.588   5.002
 2076SOL     OW 6769   1.274   2.248   4.986
 2076SOL    HW1 6770   1.295   2.322   5.050
 2076SOL    HW2 6771   1.185   2.265   4.943
 2077SOL     OW 6772   0.064   3.426   5.055
 2077SOL    HW1 6773   0.018   3.508   5.021
 2077SOL    HW2 6774   0.162   3.445   5.064
 2078SOL     OW 6775   0.367   2.962   4.225
 2078SOL    HW1 6776   0.360   3.045   4.169
 2078SOL    HW2 6777   0.371   2.882   4.165
 2079SOL     OW 6778   0.566   2.399   4.589
 2079SOL    HW1 6779   0.578   2.465   4.515
 2079SOL    HW2 6780   0.612   2.433   4.672
 2080SOL     OW 6781   1.252   3.210   4.112
 2080SOL    HW1 6782   1.302   3.287   4.152
 2080SOL    HW2 6783   1.157   3.212   4.144
 2081SOL     OW 6784   1.272   3.307   4.866
 2081SOL    HW1 6785   1.319   3.320   4.953
 2081SOL    HW2 6786   1.206   3.233   4.875
 2082SOL     OW 6787   1.582   2.501   4.196
 2082SOL    HW1 6788   1.551   2.562   4.269
 2082SOL    HW2 6789   1.632   2.553   4.127
 2083SOL     OW 6790   0.354   3.372   5.053
 2083SOL    HW1 6791   0.333   3.328   4.966
 2083SOL    HW2 6792   0.451   3.398   5.056
 2084SOL     OW 6793   0.402   2.613   5.322
 2084SOL    HW1 6794   0.470   2.668   5.275
 2084SOL    HW2 6795   0.442   2.525   5.349
 2085SOL     OW 6796   1.587   2.641   5.394
 2085SOL    HW1 6797   1.495   2.679   5.389
 2085SOL    HW2 6798   1.647   2.688   5.329
 2086SOL     OW 6799   1.013   1.967   5.494
 2086SOL    HW1 6800   1.019   2.052   5.442
 2086SOL    HW2 6801   1.045   1.891   5.437
 2087SOL     OW 6802   0.504   1.912   5.464
 2087SOL    HW1 6803   0.462   1.855   5.394
 2087SOL    HW2 6804   0.438   1.981   5.496
 2088SOL     OW 6805   0.573   2.732   4.753
 2088SOL    HW1 6806   0.617   2.821   4.744
 2088SOL    HW2 6807   0.510   2.732   4.830
 2089SOL     OW 6808   1.360   2.724   4.769
 2089SOL    HW1 6809   1.285   2.724   4.703
 2089SOL    HW2 6810   1.397   2.632   4.778
 2090SOL     OW 6811   1.209   2.387   3.999
 2090SOL    HW1 6812   1.222   2.303   4.053
 2090SOL    HW2 6813   1.180   2.461   4.059
 2091SOL     OW 6814   0.307   2.075   4.955
 2091SOL    HW1 6815   0.284   2.112   5.045
 2091SOL    HW2 6816   0.277   1.980   4.949
 2092SOL     OW 6817   0.037   3.172   5.006
 2092SOL    HW1 6818   0.090   3.123   5.074
 2092SOL    HW2 6819   0.059   3.270   5.011
 2093SOL     OW 6820   0.732   2.496   4.788
 2093SOL    HW1 6821   0.791   2.470   4.712
 2093SOL    HW2 6822   0.704   2.592   4.777
 2094SOL     OW 6823   1.728   2.797   5.578
 2094SOL    HW1 6824   1.682   2.790   5.489
 2094SOL    HW2 6825   1.666   2.841   5.644
 2095SOL     OW 6826   0.307   1.925   4.342
 2095SOL    HW1 6827   0.296   2.019   4.375
 2095SOL    HW2 6828   0.302   1.862   4.419
 2096SOL     OW 6829   1.622   2.229   4.098
 2096SOL    HW1 6830   1.624   2.153   4.162
 2096SOL    HW2 6831   1.574   2.306   4.138
 2097SOL     OW 6832   1.023   2.628   4.690
 2097SOL    HW1 6833   1.038   2.649   4.786
 2097SOL    HW2 6834   0.993   2.533   4.681
 2098SOL     OW 6835   0.980   3.435   5.424
 2098SOL    HW1 6836   0.960   3.479   5.336
 2098SOL    HW2 6837   1.019   3.344   5.408
 2099SOL     OW 6838   1.859   3.380   5.329
 2099SOL    HW1 6839   1.873   3.407   5.234
 2099SOL    HW2 6840   1.942   3.402   5.382
 2100SOL     OW 6841   0.350   2.760   5.528
 2100SOL    HW1 6842   0.426   2.804   5.576
 2100SOL    HW2 6843   0.385   2.713   5.446
 2101SOL     OW 6844   1.540   2.136   3.849
 2101SOL    HW1 6845   1.479   2.061   3.872
 2101SOL    HW2 6846   1.562   2.188   3.932
 2102SOL     OW 6847   1.303   2.700   3.766
 2102SOL    HW1 6848   1.337   2.607   3.781
 2102SOL    HW2 6849   1.321   2.727   3.671
 2103SOL     OW 6850   1.068   3.195   4.573
 2103SOL    HW1 6851   1.075   3.111   4.518
 2103SOL    HW2 6852   1.130   3.264   4.537
 2104SOL     OW 6853   0.319   2.672   4.673
 2104SOL    HW1 6854   0.412   2.708   4.678
 2104SOL    HW2 6855   0.313   2.587   4.725
 2105SOL     OW 6856   0.339   2.371   4.730
 2105SOL    HW1 6857   0.287   2.288   4.713
 2105SOL    HW2 6858   0.416   2.376   4.666
 2106SOL     OW 6859   1.138   2.242   5.402
 2106SOL    HW1 6860   1.093   2.305   5.466
 2106SOL    HW2 6861   1.231   2.273   5.385
 2107SOL     OW 6862   1.160   2.069   5.201
 2107SOL    HW1 6863   1.160   2.133   5.278
 2107SOL    HW2 6864   1.188   2.117   5.118
 2108SOL     OW 6865   0.008   3.188   3.924
 2108SOL    HW1 6866  -0.085   3.209   3.893
 2108SOL    HW2 6867   0.018   3.089   3.937
 2109SOL     OW 6868   0.088   3.663   4.651
 2109SOL    HW1 6869   0.046   3.577   4.624
 2109SOL    HW2 6870   0.182   3.666   4.617
 2110SOL     OW 6871   0.504   3.430   4.634
 2110SOL    HW1 6872   0.570   3.504   4.643
 2110SOL    HW2 6873   0.548   3.351   4.592
 2111SOL     OW 6874   1.002   2.658   4.962
 2111SOL    HW1 6875   1.043   2.626   5.048
 2111SOL    HW2 6876   0.906   2.631   4.959
 2112SOL     OW 6877   0.040   2.406   4.838
 2112SOL    HW1 6878   0.125   2.373   4.797
 2112SOL    HW2 6879   0.053   2.421   4.936
 2113SOL     OW 6880   0.189   2.382   5.446
 2113SOL    HW1 6881   0.248   2.342   5.376
 2113SOL    HW2 6882   0.131   2.453   5.405
 2114SOL     OW 6883   1.369   2.812   5.384
 2114SOL    HW1 6884   1.408   2.901   5.404
 2114SOL    HW2 6885   1.379   2.792   5.287
 2115SOL     OW 6886   0.815   2.434   4.049
 2115SOL    HW1 6887   0.822   2.345   4.003
 2115SOL    HW2 6888   0.721   2.468   4.041
 2116SOL     OW 6889   1.657   2.466   4.930
 2116SOL    HW1 6890   1.619   2.397   4.992
 2116SOL    HW2 6891   1.739   2.430   4.886
 2117SOL     OW 6892   0.252   3.426   5.468
 2117SOL    HW1 6893   0.222   3.483   5.544
 2117SOL    HW2 6894   0.245   3.329   5.494
 2118SOL     OW 6895   0.671   2.326   4.993
 2118SOL    HW1 6896   0.637   2.237   4.963
 2118SOL    HW2 6897   0.697   2.380   4.913
 2119SOL     OW 6898   0.930   3.540   5.189
 2119SOL    HW1 6899   0.906   3.522   5.094
 2119SOL    HW2 6900   0.960   3.634   5.199
 2120SOL     OW 6901   0.473   2.362   3.915
 2120SOL    HW1 6902   0.534   2.442   3.919
 2120SOL    HW2 6903   0.378   2.393   3.922
 2121SOL     OW 6904   0.159   2.999   5.190
 2121SOL    HW1 6905   0.181   2.938   5.266
 2121SOL    HW2 6906   0.169   2.950   5.104
 2122SOL     OW 6907   1.347   2.921   4.958
 2122SOL    HW1 6908   1.371   2.858   4.884
 2122SOL    HW2 6909   1.257   2.961   4.940
 2123SOL     OW 6910   1.302   2.717   4.033
 2123SOL    HW1 6911   1.216   2.686   4.075
 2123SOL    HW2 6912   1.298   2.703   3.934
 2124SOL     OW 6913   1.759   3.609   4.878
 2124SOL    HW1 6914   1.820   3.639   4.805
 2124SOL    HW2 6915   1.721   3.520   4.856
 2125SOL     OW 6916   1.252   3.593   4.852
 2125SOL    HW1 6917   1.336   3.598   4.798
 2125SOL    HW2 6918   1.229   3.497   4.870
 2126SOL     OW 6919   0.083   3.120   4.746
 2126SOL    HW1 6920   0.078   3.119   4.846
 2126SOL    HW2 6921   0.000   3.079   4.708
 2127SOL     OW 6922   0.688   3.524   5.440
 2127SOL    HW1 6923   0.632   3.605   5.449
 2127SOL    HW2 6924   0.740   3.528   5.354
 2128SOL     OW 6925   1.388   3.435   4.201
 2128SOL    HW1 6926   1.455   3.447   4.127
 2128SOL    HW2 6927   1.348   3.524   4.224
 2129SOL     OW 6928   0.130   3.656   5.575
 2129SOL    HW1 6929   0.089   3.582   5.628
 2129SOL    HW2 6930   0.194   3.707   5.633
 2130SOL     OW 6931   1.280   2.789   4.396
 2130SOL    HW1 6932   1.340   2.708   4.398
 2130SOL    HW2 6933   1.320   2.858   4.336
 2131SOL     OW 6934   0.830   3.135   5.146
 2131SOL    HW1 6935   0.825   3.168   5.241
 2131SOL    HW2 6936   0.744   3.154   5.100
 2132SOL     OW 6937   0.672   3.478   3.878
 2132SOL    HW1 6938   0.681   3.488   3.779
 2132SOL    HW2 6939   0.632   3.389   3.899
 2133SOL     OW 6940   1.650   3.582   5.118
 2133SOL    HW1 6941   1.703   3.592   5.034
 2133SOL    HW2 6942   1.623   3.672   5.152
 2134SOL     OW 6943   0.263   2.188   4.444
 2134SOL    HW1 6944   0.184   2.239   4.410
 2134SOL    HW2 6945   0.254   2.173   4.542
 2135SOL     OW 6946   1.194   3.474   3.755
 2135SOL    HW1 6947   1.200   3.381   3.792
 2135SOL    HW2 6948   1.135   3.474   3.675
 2136SOL     OW 6949   0.822   2.864   5.096
 2136SOL    HW1 6950   0.862   2.863   5.004
 2136SOL    HW2 6951   0.832   2.956   5.136
 2137SOL     OW 6952   0.916   2.772   4.015
 2137SOL    HW1 6953   0.979   2.810   3.947
 2137SOL    HW2 6954   0.956   2.689   4.054
 2138SOL     OW 6955   1.504   3.469   3.768
 2138SOL    HW1 6956   1.412   3.506   3.775
 2138SOL    HW2 6957   1.542   3.489   3.678
 2139SOL     OW 6958   0.372   3.150   5.214
 2139SOL    HW1 6959   0.359   3.243   5.180
 2139SOL    HW2 6960   0.288   3.098   5.201
 2140SOL     OW 6961   1.614   3.154   5.013
 2140SOL    HW1 6962   1.674   3.157   5.093
 2140SOL    HW2 6963   1.539   3.218   5.026
 2141SOL     OW 6964   1.039   2.960   4.420
 2141SOL    HW1 6965   0.969   2.913   4.474
 2141SOL    HW2 6966   1.098   2.892   4.377
 2142SOL     OW 6967   1.014   2.098   4.695
 2142SOL    HW1 6968   1.006   2.062   4.602
 2142SOL    HW2 6969   1.012   2.022   4.760
 2143SOL     OW 6970   0.590   3.349   4.215
 2143SOL    HW1 6971   0.632   3.291   4.145
 2143SOL    HW2 6972   0.546   3.428   4.171
 2144SOL     OW 6973   1.709   2.247   5.105
 2144SOL    HW1 6974   1.782   2.316   5.109
 2144SOL    HW2 6975   1.737   2.172   5.046
 2145SOL     OW 6976   0.255   3.210   4.014
 2145SOL    HW1 6977   0.159   3.211   3.987
 2145SOL    HW2 6978   0.267   3.263   4.098
 2146SOL     OW 6979   0.105   2.875   5.450
 2146SOL    HW1 6980   0.028   2.842   5.504
 2146SOL    HW2 6981   0.190   2.845   5.492
 2147SOL     OW 6982   0.672   2.065   5.213
 2147SOL    HW1 6983   0.762   2.049   5.173
 2147SOL    HW2 6984   0.680   2.070   5.312
 2148SOL     OW 6985   0.075   2.207   3.757
 2148SOL    HW1 6986  -0.017   2.179   3.728
 2148SOL    HW2 6987   0.106   2.284   3.701
 2149SOL     OW 6988   1.440   2.718   5.122
 2149SOL    HW1 6989   1.383   2.770   5.059
 2149SOL    HW2 6990   1.536   2.730   5.098
 2150SOL     OW 6991   0.072   2.028   4.042
 2150SOL    HW1 6992   0.055   2.111   3.988
 2150SOL    HW2 6993   0.162   1.991   4.020
 2151SOL     OW 6994   1.183   3.197   3.843
 2151SOL    HW1 6995   1.084   3.186   3.845
 2151SOL    HW2 6996   1.217   3.212   3.936
 2152SOL     OW 6997   0.613   2.704   5.155
 2152SOL    HW1 6998   0.669   2.785   5.138
 2152SOL    HW2 6999   0.672   2.624   5.158
 2153SOL     OW 7000   1.493   3.629   4.683
 2153SOL    HW1 7001   1.526   3.693   4.614
 2153SOL    HW2 7002   1.559   3.623   4.758
 2154SOL     OW 7003   0.716   2.427   5.432
 2154SOL    HW1 7004   0.735   2.492   5.506
 2154SOL    HW2 7005   0.776   2.347   5.441
 2155SOL     OW 7006   1.450   3.082   5.357
 2155SOL    HW1 7007   1.441   3.072   5.456
 2155SOL    HW2 7008   1.546   3.075   5.331
 2156SOL     OW 7009   0.390   3.603   5.284
 2156SOL    HW1 7010   0.299   3.644   5.282
 2156SOL    HW2 7011   0.383   3.509   5.316
 2157SOL     OW 7012   1.674   2.745   4.978
 2157SOL    HW1 7013   1.647   2.656   4.941
 2157SOL    HW2 7014   1.675   2.813   4.905
 2158SOL     OW 7015   1.225   2.187   4.173
 2158SOL    HW1 7016   1.290   2.113   4.162
 2158SOL    HW2 7017   1.245   2.237   4.257
 2159SOL     OW 7018   0.594   2.607   4.376
 2159SOL    HW1 7019   0.644   2.692   4.357
 2159SOL    HW2 7020   0.506   2.609   4.328
 2160SOL     OW 7021   1.777   2.204   5.366
 2160SOL    HW1 7022   1.760   2.235   5.272
 2160SOL    HW2 7023   1.693   2.167   5.404
 2161SOL     OW 7024   1.730   2.796   5.241
 2161SOL    HW1 7025   1.768   2.887   5.256
 2161SOL    HW2 7026   1.722   2.779   5.142
 2162SOL     OW 7027   0.859   3.236   3.740
 2162SOL    HW1 7028   0.813   3.251   3.828
 2162SOL    HW2 7029   0.903   3.321   3.710
 2163SOL     OW 7030   0.661   3.652   4.677
 2163SOL    HW1 7031   0.615   3.740   4.664
 2163SOL    HW2 7032   0.760   3.664   4.670
 2164SOL     OW 7033   0.859   2.818   4.585
 2164SOL    HW1 7034   0.913   2.749   4.633
 2164SOL    HW2 7035   0.827   2.887   4.651
 2165SOL     OW 7036   1.083   2.846   3.811
 2165SOL    HW1 7037   1.060   2.899   3.729
 2165SOL    HW2 7038   1.164   2.790   3.792
 2166SOL     OW 7039   1.861   3.431   4.575
 2166SOL    HW1 7040   1.790   3.419   4.505
 2166SOL    HW2 7041   1.862   3.352   4.635
 2167SOL     OW 7042   0.221   3.176   5.568
 2167SOL    HW1 7043   0.156   3.103   5.547
 2167SOL    HW2 7044   0.225   3.190   5.666
 2168SOL     OW 7045   0.079   3.102   4.377
 2168SOL    HW1 7046   0.078   3.055   4.465
 2168SOL    HW2 7047   0.161   3.074   4.326
 2169SOL     OW 7048   0.672   3.253   5.348
 2169SOL    HW1 7049   0.594   3.203   5.386
 2169SOL    HW2 7050   0.669   3.348   5.379
 2170SOL     OW 7051   0.428   2.286   4.244
 2170SOL    HW1 7052   0.458   2.214   4.182
 2170SOL    HW2 7053   0.389   2.246   4.327
 2171SOL     OW 7054   1.705   3.349   4.828
 2171SOL    HW1 7055   1.612   3.324   4.801
 2171SOL    HW2 7056   1.731   3.299   4.910
 2172SOL     OW 7057   0.317   2.409   5.004
 2172SOL    HW1 7058   0.355   2.350   5.076
 2172SOL    HW2 7059   0.357   2.383   4.916
 2173SOL     OW 7060   0.812   3.448   4.411
 2173SOL    HW1 7061   0.844   3.458   4.317
 2173SOL    HW2 7062   0.733   3.386   4.413
 2174SOL     OW 7063   1.424   2.076   4.836
 2174SOL    HW1 7064   1.476   2.011   4.891
 2174SOL    HW2 7065   1.375   2.139   4.897
 2175SOL     OW 7066   1.001   1.896   4.878
 2175SOL    HW1 7067   0.938   1.824   4.847
 2175SOL    HW2 7068   1.094   1.860   4.878
 2176SOL     OW 7069   0.770   3.192   4.025
 2176SOL    HW1 7070   0.724   3.105   4.042
 2176SOL    HW2 7071   0.861   3.189   4.066
 2177SOL     OW 7072   0.618   3.429   5.008
 2177SOL    HW1 7073   0.613   3.511   5.065
 2177SOL    HW2 7074   0.707   3.426   4.963
 2178SOL     OW 7075   1.352   1.914   3.892
 2178SOL    HW1 7076   1.387   1.873   3.808
 2178SOL    HW2 7077   1.262   1.876   3.912
 2179SOL     OW 7078   1.300   2.315   4.415
 2179SOL    HW1 7079   1.241   2.395   4.419
 2179SOL    HW2 7080   1.315   2.280   4.508
 2180SOL     OW 7081   1.593   2.083   4.606
 2180SOL    HW1 7082   1.509   2.082   4.660
 2180SOL    HW2 7083   1.595   2.166   4.550
 2181SOL     OW 7084   0.039   2.939   4.024
 2181SOL    HW1 7085   0.138   2.928   4.015
 2181SOL    HW2 7086  -0.001   2.853   4.056
 2182SOL     OW 7087   0.875   3.508   4.061
 2182SOL    HW1 7088   0.798   3.473   4.007
 2182SOL    HW2 7089   0.843   3.579   4.123
 2183SOL     OW 7090   0.230   2.490   5.699
 2183SOL    HW1 7091   0.137   2.488   5.736
 2183SOL    HW2 7092   0.231   2.451   5.607
 2184SOL     OW 7093   0.225   2.137   6.582
 2184SOL    HW1 7094   0.260   2.120   6.674
 2184SOL    HW2 7095   0.137   2.092   6.570
 2185SOL     OW 7096   0.019   2.230   6.233
 2185SOL    HW1 7097  -0.063   2.273   6.272
 2185SOL    HW2 7098  -0.009   2.157   6.170
 2186SOL     OW 7099   0.569   3.137   6.751
 2186SOL    HW1 7100   0.476   3.130   6.714
 2186SOL    HW2 7101   0.580   3.226   6.795
 2187SOL     OW 7102   1.555   3.373   6.289
 2187SOL    HW1 7103   1.498   3.357   6.370
 2187SOL    HW2 7104   1.496   3.383   6.209
 2188SOL     OW 7105   1.135   2.565   6.303
 2188SOL    HW1 7106   1.192   2.643   6.278
 2188SOL    HW2 7107   1.075   2.591   6.379
 2189SOL     OW 7108   1.755   2.469   5.817
 2189SOL    HW1 7109   1.743   2.456   5.718
 2189SOL    HW2 7110   1.725   2.388   5.866
 2190SOL     OW 7111   0.768   3.006   6.609
 2190SOL    HW1 7112   0.690   3.023   6.669
 2190SOL    HW2 7113   0.802   3.093   6.573
 2191SOL     OW 7114   0.850   2.660   7.409
 2191SOL    HW1 7115   0.846   2.736   7.474
 2191SOL    HW2 7116   0.872   2.696   7.318
 2192SOL     OW 7117   0.685   2.874   6.251
 2192SOL    HW1 7118   0.754   2.858   6.321
 2192SOL    HW2 7119   0.612   2.931   6.289
 2193SOL     OW 7120   0.686   3.023   7.389
 2193SOL    HW1 7121   0.746   3.102   7.403
 2193SOL    HW2 7122   0.600   3.054   7.348
 2194SOL     OW 7123   0.335   3.297   6.647
 2194SOL    HW1 7124   0.257   3.266   6.594
 2194SOL    HW2 7125   0.393   3.355   6.590
 2195SOL     OW 7126   1.460   3.367   6.925
 2195SOL    HW1 7127   1.484   3.461   6.951
 2195SOL    HW2 7128   1.444   3.313   7.007
 2196SOL     OW 7129   0.438   2.254   7.085
 2196SOL    HW1 7130   0.520   2.198   7.094
 2196SOL    HW2 7131   0.357   2.196   7.089
 2197SOL     OW 7132   0.231   3.575   6.069
 2197SOL    HW1 7133   0.265   3.652   6.123
 2197SOL    HW2 7134   0.275   3.575   5.979
 2198SOL     OW 7135   1.127   3.203   7.276
 2198SOL    HW1 7136   1.174   3.203   7.364
 2198SOL    HW2 7137   1.079   3.116   7.265
 2199SOL     OW 7138   0.230   3.296   6.124
 2199SOL    HW1 7139   0.204   3.392   6.124
 2199SOL    HW2 7140   0.159   3.242   6.169
 2200SOL     OW 7141   0.240   2.953   6.472
 2200SOL    HW1 7142   0.254   2.869   6.524
 2200SOL    HW2 7143   0.185   3.017   6.527
 2201SOL     OW 7144   0.620   3.648   7.025
 2201SOL    HW1 7145   0.528   3.631   7.060
 2201SOL    HW2 7146   0.648   3.740   7.051
 2202SOL     OW 7147   0.606   2.826   5.709
 2202SOL    HW1 7148   0.613   2.910   5.655
 2202SOL    HW2 7149   0.652   2.839   5.797
 2203SOL     OW 7150   1.594   1.976   7.066
 2203SOL    HW1 7151   1.576   2.043   6.994
 2203SOL    HW2 7152   1.591   2.022   7.155
 2204SOL     OW 7153   0.122   2.505   6.149
 2204SOL    HW1 7154   0.077   2.417   6.166
 2204SOL    HW2 7155   0.121   2.559   6.233
 2205SOL     OW 7156   1.842   3.629   5.945
 2205SOL    HW1 7157   1.896   3.600   6.025
 2205SOL    HW2 7158   1.872   3.719   5.916
 2206SOL     OW 7159   0.027   3.458   5.703
 2206SOL    HW1 7160   0.008   3.362   5.724
 2206SOL    HW2 7161  -0.006   3.516   5.778
 2207SOL     OW 7162   1.641   2.970   6.018
 2207SOL    HW1 7163   1.727   2.972   5.966
 2207SOL    HW2 7164   1.655   3.017   6.106
 2208SOL     OW 7165   0.113   2.599   7.183
 2208SOL    HW1 7166   0.201   2.586   7.228
 2208SOL    HW2 7167   0.100   2.696   7.161
 2209SOL     OW 7168   0.613   3.227   6.312
 2209SOL    HW1 7169   0.564   3.140   6.321
 2209SOL    HW2 7170   0.590   3.270   6.225
 2210SOL     OW 7171   1.293   3.090   7.009
 2210SOL    HW1 7172   1.330   3.017   6.951
 2210SOL    HW2 7173   1.345   3.095   7.094
 2211SOL     OW 7174   0.809   1.866   6.088
 2211SOL    HW1 7175   0.849   1.957   6.079
 2211SOL    HW2 7176   0.709   1.874   6.094
 2212SOL     OW 7177   0.197   2.838   6.850
 2212SOL    HW1 7178   0.286   2.793   6.836
 2212SOL    HW2 7179   0.124   2.773   6.831
 2213SOL     OW 7180   1.525   2.861   5.776
 2213SOL    HW1 7181   1.462   2.785   5.789
 2213SOL    HW2 7182   1.573   2.879   5.862
 2214SOL     OW 7183   1.187   3.654   7.202
 2214SOL    HW1 7184   1.211   3.714   7.126
 2214SOL    HW2 7185   1.194   3.559   7.172
 2215SOL     OW 7186   0.317   2.113   7.387
 2215SOL    HW1 7187   0.388   2.184   7.393
 2215SOL    HW2 7188   0.229   2.152   7.415
 2216SOL     OW 7189   1.466   3.279   6.539
 2216SOL    HW1 7190   1.407   3.285   6.619
 2216SOL    HW2 7191   1.451   3.191   6.493
 2217SOL     OW 7192   1.667   3.576   6.158
 2217SOL    HW1 7193   1.626   3.553   6.070
 2217SOL    HW2 7194   1.649   3.502   6.223
 2218SOL     OW 7195   0.598   2.591   5.856
 2218SOL    HW1 7196   0.622   2.660   5.788
 2218SOL    HW2 7197   0.520   2.624   5.910
 2219SOL     OW 7198   1.576   3.524   5.893
 2219SOL    HW1 7199   1.665   3.570   5.896
 2219SOL    HW2 7200   1.555   3.500   5.798
 2220SOL     OW 7201   0.807   2.467   7.051
 2220SOL    HW1 7202   0.760   2.464   7.140
 2220SOL    HW2 7203   0.756   2.412   6.985
 2221SOL     OW 7204   0.973   2.752   7.158
 2221SOL    HW1 7205   1.019   2.668   7.129
 2221SOL    HW2 7206   0.917   2.786   7.083
 2222SOL     OW 7207   0.991   2.272   6.828
 2222SOL    HW1 7208   0.914   2.306   6.882
 2222SOL    HW2 7209   0.957   2.221   6.749
 2223SOL     OW 7210   1.041   2.563   6.015
 2223SOL    HW1 7211   1.067   2.559   6.111
 2223SOL    HW2 7212   0.956   2.512   6.001
 2224SOL     OW 7213   0.076   2.673   6.375
 2224SOL    HW1 7214   0.175   2.661   6.384
 2224SOL    HW2 7215   0.052   2.768   6.396
 2225SOL     OW 7216   0.130   3.683   7.157
 2225SOL    HW1 7217   0.120   3.668   7.256
 2225SOL    HW2 7218   0.044   3.719   7.121
 2226SOL     OW 7219   0.865   2.210   5.781
 2226SOL    HW1 7220   0.924   2.273   5.732
 2226SOL    HW2 7221   0.884   2.116   5.752
 2227SOL     OW 7222   1.362   3.006   6.131
 2227SOL    HW1 7223   1.445   2.977   6.083
 2227SOL    HW2 7224   1.313   3.073   6.075
 2228SOL     OW 7225   0.550   2.058   6.471
 2228SOL    HW1 7226   0.545   2.053   6.571
 2228SOL    HW2 7227   0.552   2.154   6.442
 2229SOL     OW 7228   1.008   3.318   6.063
 2229SOL    HW1 7229   0.962   3.390   6.011
 2229SOL    HW2 7230   1.004   3.338   6.161
 2230SOL     OW 7231   0.351   3.663   6.439
 2230SOL    HW1 7232   0.401   3.577   6.445
 2230SOL    HW2 7233   0.416   3.740   6.436
 2231SOL     OW 7234   1.795   2.928   6.459
 2231SOL    HW1 7235   1.733   2.913   6.383
 2231SOL    HW2 7236   1.743   2.939   6.544
 2232SOL     OW 7237   1.227   3.412   7.092
 2232SOL    HW1 7238   1.233   3.335   7.156
 2232SOL    HW2 7239   1.175   3.386   7.012
 2233SOL     OW 7240   0.321   2.805   5.828
 2233SOL    HW1 7241   0.403   2.844   5.786
 2233SOL    HW2 7242   0.294   2.723   5.779
 2234SOL     OW 7243   0.461   3.128   7.313
 2234SOL    HW1 7244   0.411   3.129   7.227
 2234SOL    HW2 7245   0.398   3.110   7.389
 2235SOL     OW 7246   1.111   3.638   5.823
 2235SOL    HW1 7247   1.051   3.576   5.873
 2235SOL    HW2 7248   1.142   3.594   5.738
 2236SOL     OW 7249   0.202   2.147   7.084
 2236SOL    HW1 7250   0.122   2.207   7.071
 2236SOL    HW2 7251   0.192   2.098   7.170
 2237SOL     OW 7252   1.632   3.239   5.667
 2237SOL    HW1 7253   1.600   3.333   5.657
 2237SOL    HW2 7254   1.556   3.176   5.655
 2238SOL     OW 7255   0.464   3.605   5.909
 2238SOL    HW1 7256   0.497   3.644   5.995
 2238SOL    HW2 7257   0.540   3.598   5.844
 2239SOL     OW 7258   0.249   3.647   6.827
 2239SOL    HW1 7259   0.306   3.582   6.877
 2239SOL    HW2 7260   0.233   3.614   6.734
 2240SOL     OW 7261   0.940   3.560   6.490
 2240SOL    HW1 7262   1.020   3.503   6.511
 2240SOL    HW2 7263   0.891   3.520   6.413
 2241SOL     OW 7264   0.382   2.562   6.066
 2241SOL    HW1 7265   0.427   2.472   6.063
 2241SOL    HW2 7266   0.288   2.551   6.099
 2242SOL     OW 7267   0.614   1.984   5.703
 2242SOL    HW1 7268   0.712   1.962   5.710
 2242SOL    HW2 7269   0.583   1.967   5.610
 2243SOL     OW 7270   0.781   2.126   7.335
 2243SOL    HW1 7271   0.848   2.065   7.378
 2243SOL    HW2 7272   0.708   2.145   7.400
 2244SOL     OW 7273   0.888   3.376   6.781
 2244SOL    HW1 7274   0.865   3.351   6.687
 2244SOL    HW2 7275   0.949   3.307   6.820
 2245SOL     OW 7276   0.803   3.264   6.510
 2245SOL    HW1 7277   0.893   3.278   6.468
 2245SOL    HW2 7278   0.732   3.266   6.439
 2246SOL     OW 7279   0.922   2.365   6.485
 2246SOL    HW1 7280   0.897   2.356   6.389
 2246SOL    HW2 7281   0.970   2.283   6.516
 2247SOL     OW 7282   0.539   1.926   6.098
 2247SOL    HW1 7283   0.458   1.927   6.156
 2247SOL    HW2 7284   0.542   2.009   6.043
 2248SOL     OW 7285   1.434   3.050   5.627
 2248SOL    HW1 7286   1.466   2.974   5.684
 2248SOL    HW2 7287   1.342   3.077   5.657
 2249SOL     OW 7288   0.297   1.897   5.757
 2249SOL    HW1 7289   0.346   1.981   5.736
 2249SOL    HW2 7290   0.359   1.832   5.802
 2250SOL     OW 7291   0.935   2.098   6.066
 2250SOL    HW1 7292   0.887   2.139   5.988
 2250SOL    HW2 7293   1.034   2.096   6.047
 2251SOL     OW 7294   1.076   2.545   7.050
 2251SOL    HW1 7295   0.996   2.484   7.053
 2251SOL    HW2 7296   1.157   2.492   7.026
 2252SOL     OW 7297   1.227   3.432   6.379
 2252SOL    HW1 7298   1.248   3.506   6.314
 2252SOL    HW2 7299   1.295   3.432   6.452
 2253SOL     OW 7300   0.459   3.014   6.327
 2253SOL    HW1 7301   0.388   2.987   6.392
 2253SOL    HW2 7302   0.433   2.986   6.234
 2254SOL     OW 7303   1.271   3.659   6.177
 2254SOL    HW1 7304   1.315   3.723   6.113
 2254SOL    HW2 7305   1.221   3.711   6.247
 2255SOL     OW 7306   1.032   2.411   5.602
 2255SOL    HW1 7307   0.991   2.493   5.563
 2255SOL    HW2 7308   1.096   2.437   5.675
 2256SOL     OW 7309   0.078   2.418   6.972
 2256SOL    HW1 7310   0.170   2.417   6.931
 2256SOL    HW2 7311   0.072   2.492   7.039
 2257SOL     OW 7312   0.561   2.084   6.733
 2257SOL    HW1 7313   0.599   2.000   6.770
 2257SOL    HW2 7314   0.473   2.103   6.777
 2258SOL     OW 7315   0.866   2.316   6.228
 2258SOL    HW1 7316   0.834   2.388   6.166
 2258SOL    HW2 7317   0.890   2.235   6.175
 2259SOL     OW 7318   1.017   1.901   6.339
 2259SOL    HW1 7319   0.945   1.906   6.270
 2259SOL    HW2 7320   0.993   1.832   6.408
 2260SOL     OW 7321   1.429   3.035   6.453
 2260SOL    HW1 7322   1.374   2.951   6.446
 2260SOL    HW2 7323   1.455   3.064   6.361
 2261SOL     OW 7324   1.857   2.695   5.963
 2261SOL    HW1 7325   1.899   2.631   6.027
 2261SOL    HW2 7326   1.819   2.644   5.885
 2262SOL     OW 7327   0.488   3.247   5.760
 2262SOL    HW1 7328   0.401   3.232   5.807
 2262SOL    HW2 7329   0.471   3.273   5.665
 2263SOL     OW 7330   1.664   3.142   6.243
 2263SOL    HW1 7331   1.763   3.150   6.257
 2263SOL    HW2 7332   1.619   3.226   6.274
 2264SOL     OW 7333   1.390   2.437   5.664
 2264SOL    HW1 7334   1.336   2.416   5.745
 2264SOL    HW2 7335   1.481   2.396   5.673
 2265SOL     OW 7336   0.527   2.118   5.914
 2265SOL    HW1 7337   0.554   2.059   5.839
 2265SOL    HW2 7338   0.527   2.213   5.883
 2266SOL     OW 7339   1.754   3.085   7.174
 2266SOL    HW1 7340   1.845   3.046   7.161
 2266SOL    HW2 7341   1.762   3.181   7.198
 2267SOL     OW 7342   1.064   3.209   6.926
 2267SOL    HW1 7343   0.984   3.186   6.981
 2267SOL    HW2 7344   1.147   3.183   6.975
 2268SOL     OW 7345   1.592   3.491   7.211
 2268SOL    HW1 7346   1.619   3.525   7.121
 2268SOL    HW2 7347   1.671   3.453   7.257
 2269SOL     OW 7348   1.111   3.057   6.686
 2269SOL    HW1 7349   1.071   3.101   6.767
 2269SOL    HW2 7350   1.070   3.094   6.603
 2270SOL     OW 7351   1.638   2.961   6.665
 2270SOL    HW1 7352   1.643   3.042   6.724
 2270SOL    HW2 7353   1.552   2.963   6.614
 2271SOL     OW 7354   0.915   1.951   6.988
 2271SOL    HW1 7355   0.940   1.931   6.893
 2271SOL    HW2 7356   0.987   2.007   7.030
 2272SOL     OW 7357   0.980   2.978   7.305
 2272SOL    HW1 7358   0.881   2.984   7.315
 2272SOL    HW2 7359   1.003   2.898   7.249
 2273SOL     OW 7360   0.705   2.912   5.954
 2273SOL    HW1 7361   0.691   2.919   6.053
 2273SOL    HW2 7362   0.789   2.861   5.936
 2274SOL     OW 7363   0.410   2.675   6.837
 2274SOL    HW1 7364   0.496   2.687   6.887
 2274SOL    HW2 7365   0.368   2.588   6.864
 2275SOL     OW 7366   1.274   2.248   6.848
 2275SOL    HW1 7367   1.295   2.322   6.912
 2275SOL    HW2 7368   1.185   2.265   6.805
 2276SOL     OW 7369   0.064   3.426   6.917
 2276SOL    HW1 7370   0.018   3.508   6.883
 2276SOL    HW2 7371   0.162   3.445   6.926
 2277SOL     OW 7372   0.367   2.962   6.087
 2277SOL    HW1 7373   0.360   3.045   6.031
 2277SOL    HW2 7374   0.371   2.882   6.027
 2278SOL     OW 7375   0.566   2.399   6.451
 2278SOL    HW1 7376   0.578   2.465   6.377
 2278SOL    HW2 7377   0.612   2.433   6.534
 2279SOL     OW 7378   1.252   3.210   5.974
 2279SOL    HW1 7379   1.302   3.287   6.014
 2279SOL    HW2 7380   1.157   3.212   6.006
 2280SOL     OW 7381   1.272   3.307   6.728
 2280SOL    HW1 7382   1.319   3.320   6.815
 2280SOL    HW2 7383   1.206   3.233   6.737
 2281SOL     OW 7384   0.354   3.372   6.915
 2281SOL    HW1 7385   0.333   3.328   6.828
 2281SOL    HW2 7386   0.451   3.398   6.918
 2282SOL     OW 7387   0.402   2.613   7.184
 2282SOL    HW1 7388   0.470   2.668   7.137
 2282SOL    HW2 7389   0.442   2.525   7.211
 2283SOL     OW 7390   1.013   1.967   7.356
 2283SOL    HW1 7391   1.019   2.052   7.304
 2283SOL    HW2 7392   1.045   1.891   7.299
 2284SOL     OW 7393   0.504   1.912   7.326
 2284SOL    HW1 7394   0.462   1.855   7.256
 2284SOL    HW2 7395   0.438   1.981   7.358
 2285SOL     OW 7396   0.573   2.732   6.615
 2285SOL    HW1 7397   0.617   2.821   6.606
 2285SOL    HW2 7398   0.510   2.732   6.692
 2286SOL     OW 7399   1.360   2.724   6.631
 2286SOL    HW1 7400   1.285   2.724   6.565
 2286SOL    HW2 7401   1.397   2.632   6.640
 2287SOL     OW 7402   1.209   2.387   5.861
 2287SOL    HW1 7403   1.222   2.303   5.915
 2287SOL    HW2 7404   1.180   2.461   5.921
 2288SOL     OW 7405   0.307   2.075   6.817
 2288SOL    HW1 7406   0.284   2.112   6.907
 2288SOL    HW2 7407   0.277   1.980   6.811
 2289SOL     OW 7408   0.037   3.172   6.868
 2289SOL    HW1 7409   0.090   3.123   6.936
 2289SOL    HW2 7410   0.059   3.270   6.873
 2290SOL     OW 7411   0.732   2.496   6.650
 2290SOL    HW1 7412   0.791   2.470   6.574
 2290SOL    HW2 7413   0.704   2.592   6.639
 2291SOL     OW 7414   0.307   1.925   6.204
 2291SOL    HW1 7415   0.296   2.019   6.237
 2291SOL    HW2 7416   0.302   1.862   6.281
 2292SOL     OW 7417   1.622   2.229   5.960
 2292SOL    HW1 7418   1.624   2.153   6.024
 2292SOL    HW2 7419   1.574   2.306   6.000
 2293SOL     OW 7420   1.023   2.628   6.552
 2293SOL    HW1 7421   1.038   2.649   6.648
 2293SOL    HW2 7422   0.993   2.533   6.543
 2294SOL     OW 7423   0.980   3.435   7.286
 2294SOL    HW1 7424   0.960   3.479   7.198
 2294SOL    HW2 7425   1.019   3.344   7.270
 2295SOL     OW 7426   1.859   3.380   7.191
 2295SOL    HW1 7427   1.873   3.407   7.096
 2295SOL    HW2 7428   1.942   3.402   7.244
 2296SOL     OW 7429   0.350   2.760   7.390
 2296SOL    HW1 7430   0.426   2.804   7.438
 2296SOL    HW2 7431   0.385   2.713   7.308
 2297SOL     OW 7432   1.540   2.136   5.711
 2297SOL    HW1 7433   1.479   2.061   5.734
 2297SOL    HW2 7434   1.562   2.188   5.794
 2298SOL     OW 7435   1.303   2.700   5.628
 2298SOL    HW1 7436   1.337   2.607   5.643
 2298SOL    HW2 7437   1.321   2.727   5.533
 2299SOL     OW 7438   1.068   3.195   6.435
 2299SOL    HW1 7439   1.075   3.111   6.380
 2299SOL    HW2 7440   1.130   3.264   6.399
 2300SOL     OW 7441   0.319   2.672   6.535
 2300SOL    HW1 7442   0.412   2.708   6.540
 2300SOL    HW2 7443   0.313   2.587   6.587
 2301SOL     OW 7444   0.339   2.371   6.592
 2301SOL    HW1 7445   0.287   2.288   6.575
 2301SOL    HW2 7446   0.416   2.376   6.528
 2302SOL     OW 7447   1.138   2.242   7.264
 2302SOL    HW1 7448   1.093   2.305   7.328
 2302SOL    HW2 7449   1.231   2.273   7.247
 2303SOL     OW 7450   1.160   2.069   7.063
 2303SOL    HW1 7451   1.160   2.133   7.140
 2303SOL    HW2 7452   1.188   2.117   6.980
 2304SOL     OW 7453   0.008   3.188   5.786
 2304SOL    HW1 7454  -0.085   3.209   5.755
 2304SOL    HW2 7455   0.018   3.089   5.799
 2305SOL     OW 7456   0.088   3.663   6.513
 2305SOL    HW1 7457   0.046   3.577   6.486
 2305SOL    HW2 7458   0.182   3.666   6.479
 2306SOL     OW 7459   0.504   3.430   6.496
 2306SOL    HW1 7460   0.570   3.504   6.505
 2306SOL    HW2 7461   0.548   3.351   6.454
 2307SOL     OW 7462   1.002   2.658   6.824
 2307SOL    HW1 7463   1.043   2.626   6.910
 2307SOL    HW2 7464   0.906   2.631   6.821
 2308SOL     OW 7465   0.040   2.406   6.700
 2308SOL    HW1 7466   0.125   2.373   6.659
 2308SOL    HW2 7467   0.053   2.421   6.798
 2309SOL     OW 7468   0.189   2.382   7.308
 2309SOL    HW1 7469   0.248   2.342   7.238
 2309SOL    HW2 7470   0.131   2.453   7.267
 2310SOL     OW 7471   1.369   2.812   7.246
 2310SOL    HW1 7472   1.408   2.901   7.266
 2310SOL    HW2 7473   1.379   2.792   7.149
 2311SOL     OW 7474   0.815   2.434   5.911
 2311SOL    HW1 7475   0.822   2.345   5.865
 2311SOL    HW2 7476   0.721   2.468   5.903
 2312SOL     OW 7477   0.252   3.426   7.330
 2312SOL    HW1 7478   0.222   3.483   7.406
 2312SOL    HW2 7479   0.245   3.329   7.356
 2313SOL     OW 7480   0.671   2.326   6.855
 2313SOL    HW1 7481   0.637   2.237   6.825
 2313SOL    HW2 7482   0.697   2.380   6.775
 2314SOL     OW 7483   0.930   3.540   7.051
 2314SOL    HW1 7484   0.906   3.522   6.956
 2314SOL    HW2 7485   0.960   3.634   7.061
 2315SOL     OW 7486   0.473   2.362   5.777
 2315SOL    HW1 7487   0.534   2.442   5.781
 2315SOL    HW2 7488   0.378   2.393   5.784
 2316SOL     OW 7489   0.159   2.999   7.052
 2316SOL    HW1 7490   0.181   2.938   7.128
 2316SOL    HW2 7491   0.169   2.950   6.966
 2317SOL     OW 7492   1.347   2.921   6.820
 2317SOL    HW1 7493   1.371   2.858   6.746
 2317SOL    HW2 7494   1.257   2.961   6.802
 2318SOL     OW 7495   1.302   2.717   5.895
 2318SOL    HW1 7496   1.216   2.686   5.937
 2318SOL    HW2 7497   1.298   2.703   5.796
 2319SOL     OW 7498   1.759   3.609   6.740
 2319SOL    HW1 7499   1.820   3.639   6.667
 2319SOL    HW2 7500   1.721   3.520   6.718
 2320SOL     OW 7501   1.252   3.593   6.714
 2320SOL    HW1 7502   1.336   3.598   6.660
 2320SOL    HW2 7503   1.229   3.497   6.732
 2321SOL     OW 7504   0.083   3.120   6.608
 2321SOL    HW1 7505   0.078   3.119   6.708
 2321SOL    HW2 7506   0.000   3.079   6.570
 2322SOL     OW 7507   0.688   3.524   7.302
 2322SOL    HW1 7508   0.632   3.605   7.311
 2322SOL    HW2 7509   0.740   3.528   7.216
 2323SOL     OW 7510   1.726   1.997   6.109
 2323SOL    HW1 7511   1.799   1.980   6.042
 2323SOL    HW2 7512   1.695   1.910   6.147
 2324SOL     OW 7513   1.388   3.435   6.063
 2324SOL    HW1 7514   1.455   3.447   5.989
 2324SOL    HW2 7515   1.348   3.524   6.086
 2325SOL     OW 7516   0.130   3.656   7.437
 2325SOL    HW1 7517   0.089   3.582   7.490
 2325SOL    HW2 7518   0.194   3.707   7.495
 2326SOL     OW 7519   1.280   2.789   6.258
 2326SOL    HW1 7520   1.340   2.708   6.260
 2326SOL    HW2 7521   1.320   2.858   6.198
 2327SOL     OW 7522   0.830   3.135   7.008
 2327SOL    HW1 7523   0.825   3.168   7.103
 2327SOL    HW2 7524   0.744   3.154   6.962
 2328SOL     OW 7525   0.672   3.478   5.740
 2328SOL    HW1 7526   0.681   3.488   5.641
 2328SOL    HW2 7527   0.632   3.389   5.761
 2329SOL     OW 7528   1.650   3.582   6.980
 2329SOL    HW1 7529   1.703   3.592   6.896
 2329SOL    HW2 7530   1.623   3.672   7.014
 2330SOL     OW 7531   0.263   2.188   6.306
 2330SOL    HW1 7532   0.184   2.239   6.272
 2330SOL    HW2 7533   0.254   2.173   6.404
 2331SOL     OW 7534   1.194   3.474   5.617
 2331SOL    HW1 7535   1.200   3.381   5.654
 2331SOL    HW2 7536   1.135   3.474   5.537
 2332SOL     OW 7537   0.822   2.864   6.958
 2332SOL    HW1 7538   0.862   2.863   6.866
 2332SOL    HW2 7539   0.832   2.956   6.998
 2333SOL     OW 7540   0.916   2.772   5.877
 2333SOL    HW1 7541   0.979   2.810   5.809
 2333SOL    HW2 7542   0.956   2.689   5.916
 2334SOL     OW 7543   1.504   3.469   5.630
 2334SOL    HW1 7544   1.412   3.506   5.637
 2334SOL    HW2 7545   1.542   3.489   5.540
 2335SOL     OW 7546   0.372   3.150   7.076
 2335SOL    HW1 7547   0.359   3.243   7.042
 2335SOL    HW2 7548   0.288   3.098   7.063
 2336SOL     OW 7549   1.614   3.154   6.875
 2336SOL    HW1 7550   1.674   3.157   6.955
 2336SOL    HW2 7551   1.539   3.218   6.888
 2337SOL     OW 7552   1.039   2.960   6.282
 2337SOL    HW1 7553   0.969   2.913   6.336
 2337SOL    HW2 7554   1.098   2.892   6.239
 2338SOL     OW 7555   1.014   2.098   6.557
 2338SOL    HW1 7556   1.006   2.062   6.464
 2338SOL    HW2 7557   1.012   2.022   6.622
 2339SOL     OW 7558   0.590   3.349   6.077
 2339SOL    HW1 7559   0.632   3.291   6.007
 2339SOL    HW2 7560   0.546   3.428   6.033
 2340SOL     OW 7561   1.709   2.247   6.967
 2340SOL    HW1 7562   1.782   2.316   6.971
 2340SOL    HW2 7563   1.737   2.172   6.908
 2341SOL     OW 7564   0.255   3.210   5.876
 2341SOL    HW1 7565   0.159   3.211   5.849
 2341SOL    HW2 7566   0.267   3.263   5.960
 2342SOL     OW 7567   0.105   2.875   7.312
 2342SOL    HW1 7568   0.028   2.842   7.366
 2342SOL    HW2 7569   0.190   2.845   7.354
 2343SOL     OW 7570   0.672   2.065   7.075
 2343SOL    HW1 7571   0.762   2.049   7.035
 2343SOL    HW2 7572   0.680   2.070   7.174
 2344SOL     OW 7573   0.075   2.207   5.619
 2344SOL    HW1 7574  -0.017   2.179   5.590
 2344SOL    HW2 7575   0.106   2.284   5.563
 2345SOL     OW 7576   1.440   2.718   6.984
 2345SOL    HW1 7577   1.383   2.770   6.921
 2345SOL    HW2 7578   1.536   2.730   6.960
 2346SOL     OW 7579   0.072   2.028   5.904
 2346SOL    HW1 7580   0.055   2.111   5.850
 2346SOL    HW2 7581   0.162   1.991   5.882
 2347SOL     OW 7582   1.183   3.197   5.705
 2347SOL    HW1 7583   1.084   3.186   5.707
 2347SOL    HW2 7584   1.217   3.212   5.798
 2348SOL     OW 7585   0.613   2.704   7.017
 2348SOL    HW1 7586   0.669   2.785   7.000
 2348SOL    HW2 7587   0.672   2.624   7.020
 2349SOL     OW 7588   1.493   3.629   6.545
 2349SOL    HW1 7589   1.526   3.693   6.476
 2349SOL    HW2 7590   1.559   3.623   6.620
 2350SOL     OW 7591   0.716   2.427   7.294
 2350SOL    HW1 7592   0.735   2.492   7.368
 2350SOL    HW2 7593   0.776   2.347   7.303
 2351SOL     OW 7594   1.450   3.082   7.219
 2351SOL    HW1 7595   1.441   3.072   7.318
 2351SOL    HW2 7596   1.546   3.075   7.193
 2352SOL     OW 7597   0.390   3.603   7.146
 2352SOL    HW1 7598   0.299   3.644   7.144
 2352SOL    HW2 7599   0.383   3.509   7.178
 2353SOL     OW 7600   1.674   2.745   6.840
 2353SOL    HW1 7601   1.647   2.656   6.803
 2353SOL    HW2 7602   1.675   2.813   6.767
 2354SOL     OW 7603   0.594   2.607   6.238
 2354SOL    HW1 7604   0.644   2.692   6.219
 2354SOL    HW2 7605   0.506   2.609   6.190
 2355SOL     OW 7606   1.777   2.204   7.228
 2355SOL    HW1 7607   1.760   2.235   7.134
 2355SOL    HW2 7608   1.693   2.167   7.266
 2356SOL     OW 7609   1.730   2.796   7.103
 2356SOL    HW1 7610   1.768   2.887   7.118
 2356SOL    HW2 7611   1.722   2.779   7.004
 2357SOL     OW 7612   0.859   3.236   5.602
 2357SOL    HW1 7613   0.813   3.251   5.690
 2357SOL    HW2 7614   0.903   3.321   5.572
 2358SOL     OW 7615   0.661   3.652   6.539
 2358SOL    HW1 7616   0.615   3.740   6.526
 2358SOL    HW2 7617   0.760   3.664   6.532
 2359SOL     OW 7618   0.859   2.818   6.447
 2359SOL    HW1 7619   0.913   2.749   6.495
 2359SOL    HW2 7620   0.827   2.887   6.513
 2360SOL     OW 7621   1.083   2.846   5.673
 2360SOL    HW1 7622   1.060   2.899   5.591
 2360SOL    HW2 7623   1.164   2.790   5.654
 2361SOL     OW 7624   1.861   3.431   6.437
 2361SOL    HW1 7625   1.790   3.419   6.367
 2361SOL    HW2 7626   1.862   3.352   6.497
 2362SOL     OW 7627   0.221   3.176   7.430
 2362SOL    HW1 7628   0.156   3.103   7.409
 2362SOL    HW2 7629   0.225   3.190   7.528
 2363SOL     OW 7630   0.079   3.102   6.239
 2363SOL    HW1 7631   0.078   3.055   6.327
 2363SOL    HW2 7632   0.161   3.074   6.188
 2364SOL     OW 7633   0.672   3.253   7.210
 2364SOL    HW1 7634   0.594   3.203   7.248
 2364SOL    HW2 7635   0.669   3.348   7.241
 2365SOL     OW 7636   0.428   2.286   6.106
 2365SOL    HW1 7637   0.458   2.214   6.044
 2365SOL    HW2 7638   0.389   2.246   6.189
 2366SOL     OW 7639   1.705   3.349   6.690
 2366SOL    HW1 7640   1.612   3.324   6.663
 2366SOL    HW2 7641   1.731   3.299   6.772
 2367SOL     OW 7642   0.317   2.409   6.866
 2367SOL    HW1 7643   0.355   2.350   6.938
 2367SOL    HW2 7644   0.357   2.383   6.778
 2368SOL     OW 7645   0.812   3.448   6.273
 2368SOL    HW1 7646   0.844   3.458   6.179
 2368SOL    HW2 7647   0.733   3.386   6.275
 2369SOL     OW 7648   1.001   1.896   6.740
 2369SOL    HW1 7649   0.938   1.824   6.709
 2369SOL    HW2 7650   1.094   1.860   6.740
 2370SOL     OW 7651   0.770   3.192   5.887
 2370SOL    HW1 7652   0.724   3.105   5.904
 2370SOL    HW2 7653   0.861   3.189   5.928
 2371SOL     OW 7654   0.618   3.429   6.870
 2371SOL    HW1 7655   0.613   3.511   6.927
 2371SOL    HW2 7656   0.707   3.426   6.825
 2372SOL     OW 7657   1.352   1.914   5.754
 2372SOL    HW1 7658   1.387   1.873   5.670
 2372SOL    HW2 7659   1.262   1.876   5.774
 2373SOL     OW 7660   1.593   2.083   6.468
 2373SOL    HW1 7661   1.509   2.082   6.522
 2373SOL    HW2 7662   1.595   2.166   6.412
 2374SOL     OW 7663   0.039   2.939   5.886
 2374SOL    HW1 7664   0.138   2.928   5.877
 2374SOL    HW2 7665  -0.001   2.853   5.918
 2375SOL     OW 7666   0.875   3.508   5.923
 2375SOL    HW1 7667   0.798   3.473   5.869
 2375SOL    HW2 7668   0.843   3.579   5.985
 2376SOL     OW 7669   0.230   2.490   7.561
 2376SOL    HW1 7670   0.137   2.488   7.598
 2376SOL    HW2 7671   0.231   2.451   7.469
 2377SOL     OW 7672   0.225   2.137   8.444
 2377SOL    HW1 7673   0.260   2.120   8.536
 2377SOL    HW2 7674   0.137   2.092   8.432
 2378SOL     OW 7675   0.019   2.230   8.095
 2378SOL    HW1 7676  -0.063   2.273   8.134
 2378SOL    HW2 7677  -0.009   2.157   8.032
 2379SOL     OW 7678   0.569   3.137   8.613
 2379SOL    HW1 7679   0.476   3.130   8.576
 2379SOL    HW2 7680   0.580   3.226   8.657
 2380SOL     OW 7681   1.555   3.373   8.151
 2380SOL    HW1 7682   1.498   3.357   8.232
 2380SOL    HW2 7683   1.496   3.383   8.071
 2381SOL     OW 7684   1.135   2.565   8.165
 2381SOL    HW1 7685   1.192   2.643   8.140
 2381SOL    HW2 7686   1.075   2.591   8.241
 2382SOL     OW 7687   0.768   3.006   8.471
 2382SOL    HW1 7688   0.690   3.023   8.531
 2382SOL    HW2 7689   0.802   3.093   8.435
 2383SOL     OW 7690   0.850   2.660   9.271
 2383SOL    HW1 7691   0.846   2.736   9.336
 2383SOL    HW2 7692   0.872   2.696   9.180
 2384SOL     OW 7693   0.685   2.874   8.113
 2384SOL    HW1 7694   0.754   2.858   8.183
 2384SOL    HW2 7695   0.612   2.931   8.151
 2385SOL     OW 7696   0.686   3.023   9.251
 2385SOL    HW1 7697   0.746   3.102   9.265
 2385SOL    HW2 7698   0.600   3.054   9.210
 2386SOL     OW 7699   0.335   3.297   8.509
 2386SOL    HW1 7700   0.257   3.266   8.456
 2386SOL    HW2 7701   0.393   3.355   8.452
 2387SOL     OW 7702   1.460   3.367   8.787
 2387SOL    HW1 7703   1.484   3.461   8.813
 2387SOL    HW2 7704   1.444   3.313   8.869
 2388SOL     OW 7705   0.438   2.254   8.947
 2388SOL    HW1 7706   0.520   2.198   8.956
 2388SOL    HW2 7707   0.357   2.196   8.951
 2389SOL     OW 7708   1.603   2.309   8.185
 2389SOL    HW1 7709   1.529   2.355   8.135
 2389SOL    HW2 7710   1.654   2.377   8.238
 2390SOL     OW 7711   0.231   3.575   7.931
 2390SOL    HW1 7712   0.265   3.652   7.985
 2390SOL    HW2 7713   0.275   3.575   7.841
 2391SOL     OW 7714   1.127   3.203   9.138
 2391SOL    HW1 7715   1.174   3.203   9.226
 2391SOL    HW2 7716   1.079   3.116   9.127
 2392SOL     OW 7717   0.230   3.296   7.986
 2392SOL    HW1 7718   0.204   3.392   7.986
 2392SOL    HW2 7719   0.159   3.242   8.031
 2393SOL     OW 7720   0.240   2.953   8.334
 2393SOL    HW1 7721   0.254   2.869   8.386
 2393SOL    HW2 7722   0.185   3.017   8.389
 2394SOL     OW 7723   0.620   3.648   8.887
 2394SOL    HW1 7724   0.528   3.631   8.922
 2394SOL    HW2 7725   0.648   3.740   8.913
 2395SOL     OW 7726   0.606   2.826   7.571
 2395SOL    HW1 7727   0.613   2.910   7.517
 2395SOL    HW2 7728   0.652   2.839   7.659
 2396SOL     OW 7729   1.594   1.976   8.928
 2396SOL    HW1 7730   1.576   2.043   8.856
 2396SOL    HW2 7731   1.591   2.022   9.017
 2397SOL     OW 7732   0.122   2.505   8.011
 2397SOL    HW1 7733   0.077   2.417   8.028
 2397SOL    HW2 7734   0.121   2.559   8.095
 2398SOL     OW 7735   1.842   3.629   7.807
 2398SOL    HW1 7736   1.896   3.600   7.887
 2398SOL    HW2 7737   1.872   3.719   7.778
 2399SOL     OW 7738   0.027   3.458   7.565
 2399SOL    HW1 7739   0.008   3.362   7.586
 2399SOL    HW2 7740  -0.006   3.516   7.640
 2400SOL     OW 7741   1.689   2.784   8.060
 2400SOL    HW1 7742   1.784   2.755   8.068
 2400SOL    HW2 7743   1.681   2.849   7.985
 2401SOL     OW 7744   1.641   2.970   7.880
 2401SOL    HW1 7745   1.727   2.972   7.828
 2401SOL    HW2 7746   1.655   3.017   7.968
 2402SOL     OW 7747   0.113   2.599   9.045
 2402SOL    HW1 7748   0.201   2.586   9.090
 2402SOL    HW2 7749   0.100   2.696   9.023
 2403SOL     OW 7750   0.613   3.227   8.174
 2403SOL    HW1 7751   0.564   3.140   8.183
 2403SOL    HW2 7752   0.590   3.270   8.087
 2404SOL     OW 7753   1.293   3.090   8.871
 2404SOL    HW1 7754   1.330   3.017   8.813
 2404SOL    HW2 7755   1.345   3.095   8.956
 2405SOL     OW 7756   0.809   1.866   7.950
 2405SOL    HW1 7757   0.849   1.957   7.941
 2405SOL    HW2 7758   0.709   1.874   7.956
 2406SOL     OW 7759   0.197   2.838   8.712
 2406SOL    HW1 7760   0.286   2.793   8.698
 2406SOL    HW2 7761   0.124   2.773   8.693
 2407SOL     OW 7762   1.525   2.861   7.638
 2407SOL    HW1 7763   1.462   2.785   7.651
 2407SOL    HW2 7764   1.573   2.879   7.724
 2408SOL     OW 7765   1.187   3.654   9.064
 2408SOL    HW1 7766   1.211   3.714   8.988
 2408SOL    HW2 7767   1.194   3.559   9.034
 2409SOL     OW 7768   0.317   2.113   9.249
 2409SOL    HW1 7769   0.388   2.184   9.255
 2409SOL    HW2 7770   0.229   2.152   9.277
 2410SOL     OW 7771   1.466   3.279   8.401
 2410SOL    HW1 7772   1.407   3.285   8.481
 2410SOL    HW2 7773   1.451   3.191   8.355
 2411SOL     OW 7774   1.667   3.576   8.020
 2411SOL    HW1 7775   1.626   3.553   7.932
 2411SOL    HW2 7776   1.649   3.502   8.085
 2412SOL     OW 7777   0.598   2.591   7.718
 2412SOL    HW1 7778   0.622   2.660   7.650
 2412SOL    HW2 7779   0.520   2.624   7.772
 2413SOL     OW 7780   1.281   2.207   8.392
 2413SOL    HW1 7781   1.195   2.157   8.379
 2413SOL    HW2 7782   1.343   2.153   8.448
 2414SOL     OW 7783   1.576   3.524   7.755
 2414SOL    HW1 7784   1.665   3.570   7.758
 2414SOL    HW2 7785   1.555   3.500   7.660
 2415SOL     OW 7786   0.807   2.467   8.913
 2415SOL    HW1 7787   0.760   2.464   9.002
 2415SOL    HW2 7788   0.756   2.412   8.847
 2416SOL     OW 7789   1.394   2.331   9.122
 2416SOL    HW1 7790   1.374   2.374   9.210
 2416SOL    HW2 7791   1.472   2.269   9.131
 2417SOL     OW 7792   0.973   2.752   9.020
 2417SOL    HW1 7793   1.019   2.668   8.991
 2417SOL    HW2 7794   0.917   2.786   8.945
 2418SOL     OW 7795   0.991   2.272   8.690
 2418SOL    HW1 7796   0.914   2.306   8.744
 2418SOL    HW2 7797   0.957   2.221   8.611
 2419SOL     OW 7798   1.041   2.563   7.877
 2419SOL    HW1 7799   1.067   2.559   7.973
 2419SOL    HW2 7800   0.956   2.512   7.863
 2420SOL     OW 7801   0.076   2.673   8.237
 2420SOL    HW1 7802   0.175   2.661   8.246
 2420SOL    HW2 7803   0.052   2.768   8.258
 2421SOL     OW 7804   0.130   3.683   9.019
 2421SOL    HW1 7805   0.120   3.668   9.118
 2421SOL    HW2 7806   0.044   3.719   8.983
 2422SOL     OW 7807   0.865   2.210   7.643
 2422SOL    HW1 7808   0.924   2.273   7.594
 2422SOL    HW2 7809   0.884   2.116   7.614
 2423SOL     OW 7810   1.719   2.447   9.279
 2423SOL    HW1 7811   1.693   2.536   9.243
 2423SOL    HW2 7812   1.717   2.379   9.206
 2424SOL     OW 7813   1.362   3.006   7.993
 2424SOL    HW1 7814   1.445   2.977   7.945
 2424SOL    HW2 7815   1.313   3.073   7.937
 2425SOL     OW 7816   0.550   2.058   8.333
 2425SOL    HW1 7817   0.545   2.053   8.433
 2425SOL    HW2 7818   0.552   2.154   8.304
 2426SOL     OW 7819   1.008   3.318   7.925
 2426SOL    HW1 7820   0.962   3.390   7.873
 2426SOL    HW2 7821   1.004   3.338   8.023
 2427SOL     OW 7822   0.351   3.663   8.301
 2427SOL    HW1 7823   0.401   3.577   8.307
 2427SOL    HW2 7824   0.416   3.740   8.298
 2428SOL     OW 7825   1.795   2.928   8.321
 2428SOL    HW1 7826   1.733   2.913   8.245
 2428SOL    HW2 7827   1.743   2.939   8.406
 2429SOL     OW 7828   1.227   3.412   8.954
 2429SOL    HW1 7829   1.233   3.335   9.018
 2429SOL    HW2 7830   1.175   3.386   8.874
 2430SOL     OW 7831   0.321   2.805   7.690
 2430SOL    HW1 7832   0.403   2.844   7.648
 2430SOL    HW2 7833   0.294   2.723   7.641
 2431SOL     OW 7834   1.458   2.597   8.176
 2431SOL    HW1 7835   1.453   2.532   8.251
 2431SOL    HW2 7836   1.538   2.656   8.189
 2432SOL     OW 7837   0.461   3.128   9.175
 2432SOL    HW1 7838   0.411   3.129   9.089
 2432SOL    HW2 7839   0.398   3.110   9.251
 2433SOL     OW 7840   1.111   3.638   7.685
 2433SOL    HW1 7841   1.051   3.576   7.735
 2433SOL    HW2 7842   1.142   3.594   7.600
 2434SOL     OW 7843   0.202   2.147   8.946
 2434SOL    HW1 7844   0.122   2.207   8.933
 2434SOL    HW2 7845   0.192   2.098   9.032
 2435SOL     OW 7846   1.632   3.239   7.529
 2435SOL    HW1 7847   1.600   3.333   7.519
 2435SOL    HW2 7848   1.556   3.176   7.517
 2436SOL     OW 7849   0.464   3.605   7.771
 2436SOL    HW1 7850   0.497   3.644   7.857
 2436SOL    HW2 7851   0.540   3.598   7.706
 2437SOL     OW 7852   0.249   3.647   8.689
 2437SOL    HW1 7853   0.306   3.582   8.739
 2437SOL    HW2 7854   0.233   3.614   8.596
 2438SOL     OW 7855   0.940   3.560   8.352
 2438SOL    HW1 7856   1.020   3.503   8.373
 2438SOL    HW2 7857   0.891   3.520   8.275
 2439SOL     OW 7858   0.382   2.562   7.928
 2439SOL    HW1 7859   0.427   2.472   7.925
 2439SOL    HW2 7860   0.288   2.551   7.961
 2440SOL     OW 7861   1.547   2.084   9.177
 2440SOL    HW1 7862   1.542   2.121   9.269
 2440SOL    HW2 7863   1.475   2.015   9.165
 2441SOL     OW 7864   0.614   1.984   7.565
 2441SOL    HW1 7865   0.712   1.962   7.572
 2441SOL    HW2 7866   0.583   1.967   7.472
 2442SOL     OW 7867   0.781   2.126   9.197
 2442SOL    HW1 7868   0.848   2.065   9.240
 2442SOL    HW2 7869   0.708   2.145   9.262
 2443SOL     OW 7870   0.888   3.376   8.643
 2443SOL    HW1 7871   0.865   3.351   8.549
 2443SOL    HW2 7872   0.949   3.307   8.682
 2444SOL     OW 7873   1.351   2.452   8.881
 2444SOL    HW1 7874   1.379   2.409   8.966
 2444SOL    HW2 7875   1.376   2.548   8.882
 2445SOL     OW 7876   0.803   3.264   8.372
 2445SOL    HW1 7877   0.893   3.278   8.330
 2445SOL    HW2 7878   0.732   3.266   8.301
 2446SOL     OW 7879   0.922   2.365   8.347
 2446SOL    HW1 7880   0.897   2.356   8.251
 2446SOL    HW2 7881   0.970   2.283   8.378
 2447SOL     OW 7882   0.539   1.926   7.960
 2447SOL    HW1 7883   0.458   1.927   8.018
 2447SOL    HW2 7884   0.542   2.009   7.905
 2448SOL     OW 7885   1.434   3.050   7.489
 2448SOL    HW1 7886   1.466   2.974   7.546
 2448SOL    HW2 7887   1.342   3.077   7.519
 2449SOL     OW 7888   0.297   1.897   7.619
 2449SOL    HW1 7889   0.346   1.981   7.598
 2449SOL    HW2 7890   0.359   1.832   7.664
 2450SOL     OW 7891   0.935   2.098   7.928
 2450SOL    HW1 7892   0.887   2.139   7.850
 2450SOL    HW2 7893   1.034   2.096   7.909
 2451SOL     OW 7894   1.076   2.545   8.912
 2451SOL    HW1 7895   0.996   2.484   8.915
 2451SOL    HW2 7896   1.157   2.492   8.888
 2452SOL     OW 7897   1.227   3.432   8.241
 2452SOL    HW1 7898   1.248   3.506   8.176
 2452SOL    HW2 7899   1.295   3.432   8.314
 2453SOL     OW 7900   0.459   3.014   8.189
 2453SOL    HW1 7901   0.388   2.987   8.254
 2453SOL    HW2 7902   0.433   2.986   8.096
 2454SOL     OW 7903   1.271   3.659   8.039
 2454SOL    HW1 7904   1.315   3.723   7.975
 2454SOL    HW2 7905   1.221   3.711   8.109
 2455SOL     OW 7906   1.032   2.411   7.464
 2455SOL    HW1 7907   0.991   2.493   7.425
 2455SOL    HW2 7908   1.096   2.437   7.537
 2456SOL     OW 7909   0.078   2.418   8.834
 2456SOL    HW1 7910   0.170   2.417   8.793
 2456SOL    HW2 7911   0.072   2.492   8.901
 2457SOL     OW 7912   0.561   2.084   8.595
 2457SOL    HW1 7913   0.599   2.000   8.632
 2457SOL    HW2 7914   0.473   2.103   8.639
 2458SOL     OW 7915   0.866   2.316   8.090
 2458SOL    HW1 7916   0.834   2.388   8.028
 2458SOL    HW2 7917   0.890   2.235   8.037
 2459SOL     OW 7918   1.017   1.901   8.201
 2459SOL    HW1 7919   0.945   1.906   8.132
 2459SOL    HW2 7920   0.993   1.832   8.270
 2460SOL     OW 7921   1.429   3.035   8.315
 2460SOL    HW1 7922   1.374   2.951   8.308
 2460SOL    HW2 7923   1.455   3.064   8.223
 2461SOL     OW 7924   1.466   2.452   8.440
 2461SOL    HW1 7925   1.436   2.357   8.447
 2461SOL    HW2 7926   1.539   2.468   8.506
 2462SOL     OW 7927   0.488   3.247   7.622
 2462SOL    HW1 7928   0.401   3.232   7.669
 2462SOL    HW2 7929   0.471   3.273   7.527
 2463SOL     OW 7930   1.664   3.142   8.105
 2463SOL    HW1 7931   1.763   3.150   8.119
 2463SOL    HW2 7932   1.619   3.226   8.136
 2464SOL     OW 7933   0.527   2.118   7.776
 2464SOL    HW1 7934   0.554   2.059   7.701
 2464SOL    HW2 7935   0.527   2.213   7.745
 2465SOL     OW 7936   1.754   3.085   9.036
 2465SOL    HW1 7937   1.845   3.046   9.023
 2465SOL    HW2 7938   1.762   3.181   9.060
 2466SOL     OW 7939   1.064   3.209   8.788
 2466SOL    HW1 7940   0.984   3.186   8.843
 2466SOL    HW2 7941   1.147   3.183   8.837
 2467SOL     OW 7942   1.592   3.491   9.073
 2467SOL    HW1 7943   1.619   3.525   8.983
 2467SOL    HW2 7944   1.671   3.453   9.119
 2468SOL     OW 7945   1.111   3.057   8.548
 2468SOL    HW1 7946   1.071   3.101   8.629
 2468SOL    HW2 7947   1.070   3.094   8.465
 2469SOL     OW 7948   1.638   2.961   8.527
 2469SOL    HW1 7949   1.643   3.042   8.586
 2469SOL    HW2 7950   1.552   2.963   8.476
 2470SOL     OW 7951   0.915   1.951   8.850
 2470SOL    HW1 7952   0.940   1.931   8.755
 2470SOL    HW2 7953   0.987   2.007   8.892
 2471SOL     OW 7954   0.980   2.978   9.167
 2471SOL    HW1 7955   0.881   2.984   9.177
 2471SOL    HW2 7956   1.003   2.898   9.111
 2472SOL     OW 7957   0.705   2.912   7.816
 2472SOL    HW1 7958   0.691   2.919   7.915
 2472SOL    HW2 7959   0.789   2.861   7.798
 2473SOL     OW 7960   0.410   2.675   8.699
 2473SOL    HW1 7961   0.496   2.687   8.749
 2473SOL    HW2 7962   0.368   2.588   8.726
 2474SOL     OW 7963   1.274   2.248   8.710
 2474SOL    HW1 7964   1.295   2.322   8.774
 2474SOL    HW2 7965   1.185   2.265   8.667
 2475SOL     OW 7966   0.064   3.426   8.779
 2475SOL    HW1 7967   0.018   3.508   8.745
 2475SOL    HW2 7968   0.162   3.445   8.788
 2476SOL     OW 7969   0.367   2.962   7.949
 2476SOL    HW1 7970   0.360   3.045   7.893
 2476SOL    HW2 7971   0.371   2.882   7.889
 2477SOL     OW 7972   0.566   2.399   8.313
 2477SOL    HW1 7973   0.578   2.465   8.239
 2477SOL    HW2 7974   0.612   2.433   8.396
 2478SOL     OW 7975   1.252   3.210   7.836
 2478SOL    HW1 7976   1.302   3.287   7.876
 2478SOL    HW2 7977   1.157   3.212   7.868
 2479SOL     OW 7978   1.272   3.307   8.590
 2479SOL    HW1 7979   1.319   3.320   8.677
 2479SOL    HW2 7980   1.206   3.233   8.599
 2480SOL     OW 7981   0.354   3.372   8.777
 2480SOL    HW1 7982   0.333   3.328   8.690
 2480SOL    HW2 7983   0.451   3.398   8.780
 2481SOL     OW 7984   0.402   2.613   9.046
 2481SOL    HW1 7985   0.470   2.668   8.999
 2481SOL    HW2 7986   0.442   2.525   9.073
 2482SOL     OW 7987   1.587   2.641   9.118
 2482SOL    HW1 7988   1.495   2.679   9.113
 2482SOL    HW2 7989   1.647   2.688   9.053
 2483SOL     OW 7990   1.013   1.967   9.218
 2483SOL    HW1 7991   1.019   2.052   9.166
 2483SOL    HW2 7992   1.045   1.891   9.161
 2484SOL     OW 7993   0.504   1.912   9.188
 2484SOL    HW1 7994   0.462   1.855   9.118
 2484SOL    HW2 7995   0.438   1.981   9.220
 2485SOL     OW 7996   0.573   2.732   8.477
 2485SOL    HW1 7997   0.617   2.821   8.468
 2485SOL    HW2 7998   0.510   2.732   8.554
 2486SOL     OW 7999   1.360   2.724   8.493
 2486SOL    HW1 8000   1.285   2.724   8.427
 2486SOL    HW2 8001   1.397   2.632   8.502
 2487SOL     OW 8002   0.307   2.075   8.679
 2487SOL    HW1 8003   0.284   2.112   8.769
 2487SOL    HW2 8004   0.277   1.980   8.673
 2488SOL     OW 8005   0.037   3.172   8.730
 2488SOL    HW1 8006   0.090   3.123   8.798
 2488SOL    HW2 8007   0.059   3.270   8.735
 2489SOL     OW 8008   0.732   2.496   8.512
 2489SOL    HW1 8009   0.791   2.470   8.436
 2489SOL    HW2 8010   0.704   2.592   8.501
 2490SOL     OW 8011   1.728   2.797   9.302
 2490SOL    HW1 8012   1.682   2.790   9.213
 2490SOL    HW2 8013   1.666   2.841   9.368
 2491SOL     OW 8014   0.307   1.925   8.066
 2491SOL    HW1 8015   0.296   2.019   8.099
 2491SOL    HW2 8016   0.302   1.862   8.143
 2492SOL     OW 8017   1.622   2.229   7.822
 2492SOL    HW1 8018   1.624   2.153   7.886
 2492SOL    HW2 8019   1.574   2.306   7.862
 2493SOL     OW 8020   1.023   2.628   8.414
 2493SOL    HW1 8021   1.038   2.649   8.510
 2493SOL    HW2 8022   0.993   2.533   8.405
 2494SOL     OW 8023   0.980   3.435   9.148
 2494SOL    HW1 8024   0.960   3.479   9.060
 2494SOL    HW2 8025   1.019   3.344   9.132
 2495SOL     OW 8026   1.859   3.380   9.053
 2495SOL    HW1 8027   1.873   3.407   8.958
 2495SOL    HW2 8028   1.942   3.402   9.106
 2496SOL     OW 8029   0.350   2.760   9.252
 2496SOL    HW1 8030   0.426   2.804   9.300
 2496SOL    HW2 8031   0.385   2.713   9.170
 2497SOL     OW 8032   1.303   2.700   7.490
 2497SOL    HW1 8033   1.337   2.607   7.505
 2497SOL    HW2 8034   1.321   2.727   7.395
 2498SOL     OW 8035   1.068   3.195   8.297
 2498SOL    HW1 8036   1.075   3.111   8.242
 2498SOL    HW2 8037   1.130   3.264   8.261
 2499SOL     OW 8038   0.319   2.672   8.397
 2499SOL    HW1 8039   0.412   2.708   8.402
 2499SOL    HW2 8040   0.313   2.587   8.449
 2500SOL     OW 8041   0.339   2.371   8.454
 2500SOL    HW1 8042   0.287   2.288   8.437
 2500SOL    HW2 8043   0.416   2.376   8.390
 2501SOL     OW 8044   1.138   2.242   9.126
 2501SOL    HW1 8045   1.093   2.305   9.190
 2501SOL    HW2 8046   1.231   2.273   9.109
 2502SOL     OW 8047   1.160   2.069   8.925
 2502SOL    HW1 8048   1.160   2.133   9.002
 2502SOL    HW2 8049   1.188   2.117   8.842
 2503SOL     OW 8050   0.008   3.188   7.648
 2503SOL    HW1 8051  -0.085   3.209   7.617
 2503SOL    HW2 8052   0.018   3.089   7.661
 2504SOL     OW 8053   0.088   3.663   8.375
 2504SOL    HW1 8054   0.046   3.577   8.348
 2504SOL    HW2 8055   0.182   3.666   8.341
 2505SOL     OW 8056   0.504   3.430   8.358
 2505SOL    HW1 8057   0.570   3.504   8.367
 2505SOL    HW2 8058   0.548   3.351   8.316
 2506SOL     OW 8059   1.002   2.658   8.686
 2506SOL    HW1 8060   1.043   2.626   8.772
 2506SOL    HW2 8061   0.906   2.631   8.683
 2507SOL     OW 8062   0.040   2.406   8.562
 2507SOL    HW1 8063   0.125   2.373   8.521
 2507SOL    HW2 8064   0.053   2.421   8.660
 2508SOL     OW 8065   0.189   2.382   9.170
 2508SOL    HW1 8066   0.248   2.342   9.100
 2508SOL    HW2 8067   0.131   2.453   9.129
 2509SOL     OW 8068   1.369   2.812   9.108
 2509SOL    HW1 8069   1.408   2.901   9.128
 2509SOL    HW2 8070   1.379   2.792   9.011
 2510SOL     OW 8071   0.815   2.434   7.773
 2510SOL    HW1 8072   0.822   2.345   7.727
 2510SOL    HW2 8073   0.721   2.468   7.765
 2511SOL     OW 8074   1.657   2.466   8.654
 2511SOL    HW1 8075   1.619   2.397   8.716
 2511SOL    HW2 8076   1.739   2.430   8.610
 2512SOL     OW 8077   0.252   3.426   9.192
 2512SOL    HW1 8078   0.222   3.483   9.268
 2512SOL    HW2 8079   0.245   3.329   9.218
 2513SOL     OW 8080   0.671   2.326   8.717
 2513SOL    HW1 8081   0.637   2.237   8.687
 2513SOL    HW2 8082   0.697   2.380   8.637
 2514SOL     OW 8083   0.930   3.540   8.913
 2514SOL    HW1 8084   0.906   3.522   8.818
 2514SOL    HW2 8085   0.960   3.634   8.923
 2515SOL     OW 8086   0.473   2.362   7.639
 2515SOL    HW1 8087   0.534   2.442   7.643
 2515SOL    HW2 8088   0.378   2.393   7.646
 2516SOL     OW 8089   0.159   2.999   8.914
 2516SOL    HW1 8090   0.181   2.938   8.990
 2516SOL    HW2 8091   0.169   2.950   8.828
 2517SOL     OW 8092   1.347   2.921   8.682
 2517SOL    HW1 8093   1.371   2.858   8.608
 2517SOL    HW2 8094   1.257   2.961   8.664
 2518SOL     OW 8095   1.302   2.717   7.757
 2518SOL    HW1 8096   1.216   2.686   7.799
 2518SOL    HW2 8097   1.298   2.703   7.658
 2519SOL     OW 8098   1.759   3.609   8.602
 2519SOL    HW1 8099   1.820   3.639   8.529
 2519SOL    HW2 8100   1.721   3.520   8.580
 2520SOL     OW 8101   1.252   3.593   8.576
 2520SOL    HW1 8102   1.336   3.598   8.522
 2520SOL    HW2 8103   1.229   3.497   8.594
 2521SOL     OW 8104   0.083   3.120   8.470
 2521SOL    HW1 8105   0.078   3.119   8.570
 2521SOL    HW2 8106   0.000   3.079   8.432
 2522SOL     OW 8107   0.688   3.524   9.164
 2522SOL    HW1 8108   0.632   3.605   9.173
 2522SOL    HW2 8109   0.740   3.528   9.078
 2523SOL     OW 8110   1.726   1.997   7.971
 2523SOL    HW1 8111   1.799   1.980   7.904
 2523SOL    HW2 8112   1.695   1.910   8.009
 2524SOL     OW 8113   1.388   3.435   7.925
 2524SOL    HW1 8114   1.455   3.447   7.851
 2524SOL    HW2 8115   1.348   3.524   7.948
 2525SOL     OW 8116   0.130   3.656   9.299
 2525SOL    HW1 8117   0.089   3.582   9.352
 2525SOL    HW2 8118   0.194   3.707   9.357
 2526SOL     OW 8119   1.280   2.789   8.120
 2526SOL    HW1 8120   1.340   2.708   8.122
 2526SOL    HW2 8121   1.320   2.858   8.060
 2527SOL     OW 8122   0.830   3.135   8.870
 2527SOL    HW1 8123   0.825   3.168   8.965
 2527SOL    HW2 8124   0.744   3.154   8.824
 2528SOL     OW 8125   0.672   3.478   7.602
 2528SOL    HW1 8126   0.681   3.488   7.503
 2528SOL    HW2 8127   0.632   3.389   7.623
 2529SOL     OW 8128   1.650   3.582   8.842
 2529SOL    HW1 8129   1.703   3.592   8.758
 2529SOL    HW2 8130   1.623   3.672   8.876
 2530SOL     OW 8131   0.263   2.188   8.168
 2530SOL    HW1 8132   0.184   2.239   8.134
 2530SOL    HW2 8133   0.254   2.173   8.266
 2531SOL     OW 8134   1.194   3.474   7.479
 2531SOL    HW1 8135   1.200   3.381   7.516
 2531SOL    HW2 8136   1.135   3.474   7.399
 2532SOL     OW 8137   0.822   2.864   8.820
 2532SOL    HW1 8138   0.862   2.863   8.728
 2532SOL    HW2 8139   0.832   2.956   8.860
 2533SOL     OW 8140   0.916   2.772   7.739
 2533SOL    HW1 8141   0.979   2.810   7.671
 2533SOL    HW2 8142   0.956   2.689   7.778
 2534SOL     OW 8143   1.504   3.469   7.492
 2534SOL    HW1 8144   1.412   3.506   7.499
 2534SOL    HW2 8145   1.542   3.489   7.402
 2535SOL     OW 8146   0.372   3.150   8.938
 2535SOL    HW1 8147   0.359   3.243   8.904
 2535SOL    HW2 8148   0.288   3.098   8.925
 2536SOL     OW 8149   1.614   3.154   8.737
 2536SOL    HW1 8150   1.674   3.157   8.817
 2536SOL    HW2 8151   1.539   3.218   8.750
 2537SOL     OW 8152   1.039   2.960   8.144
 2537SOL    HW1 8153   0.969   2.913   8.198
 2537SOL    HW2 8154   1.098   2.892   8.101
 2538SOL     OW 8155   1.014   2.098   8.419
 2538SOL    HW1 8156   1.006   2.062   8.326
 2538SOL    HW2 8157   1.012   2.022   8.484
 2539SOL     OW 8158   0.590   3.349   7.939
 2539SOL    HW1 8159   0.632   3.291   7.869
 2539SOL    HW2 8160   0.546   3.428   7.895
 2540SOL     OW 8161   1.709   2.247   8.829
 2540SOL    HW1 8162   1.782   2.316   8.833
 2540SOL    HW2 8163   1.737   2.172   8.770
 2541SOL     OW 8164   0.255   3.210   7.738
 2541SOL    HW1 8165   0.159   3.211   7.711
 2541SOL    HW2 8166   0.267   3.263   7.822
 2542SOL     OW 8167   0.105   2.875   9.174
 2542SOL    HW1 8168   0.028   2.842   9.228
 2542SOL    HW2 8169   0.190   2.845   9.216
 2543SOL     OW 8170   0.672   2.065   8.937
 2543SOL    HW1 8171   0.762   2.049   8.897
 2543SOL    HW2 8172   0.680   2.070   9.036
 2544SOL     OW 8173   0.075   2.207   7.481
 2544SOL    HW1 8174  -0.017   2.179   7.452
 2544SOL    HW2 8175   0.106   2.284   7.425
 2545SOL     OW 8176   1.440   2.718   8.846
 2545SOL    HW1 8177   1.383   2.770   8.783
 2545SOL    HW2 8178   1.536   2.730   8.822
 2546SOL     OW 8179   0.072   2.028   7.766
 2546SOL    HW1 8180   0.055   2.111   7.712
 2546SOL    HW2 8181   0.162   1.991   7.744
 2547SOL     OW 8182   1.183   3.197   7.567
 2547SOL    HW1 8183   1.084   3.186   7.569
 2547SOL    HW2 8184   1.217   3.212   7.660
 2548SOL     OW 8185   0.613   2.704   8.879
 2548SOL    HW1 8186   0.669   2.785   8.862
 2548SOL    HW2 8187   0.672   2.624   8.882
 2549SOL     OW 8188   1.493   3.629   8.407
 2549SOL    HW1 8189   1.526   3.693   8.338
 2549SOL    HW2 8190   1.559   3.623   8.482
 2550SOL     OW 8191   0.716   2.427   9.156
 2550SOL    HW1 8192   0.735   2.492   9.230
 2550SOL    HW2 8193   0.776   2.347   9.165
 2551SOL     OW 8194   1.450   3.082   9.081
 2551SOL    HW1 8195   1.441   3.072   9.180
 2551SOL    HW2 8196   1.546   3.075   9.055
 2552SOL     OW 8197   0.390   3.603   9.008
 2552SOL    HW1 8198   0.299   3.644   9.006
 2552SOL    HW2 8199   0.383   3.509   9.040
 2553SOL     OW 8200   1.674   2.745   8.702
 2553SOL    HW1 8201   1.647   2.656   8.665
 2553SOL    HW2 8202   1.675   2.813   8.629
 2554SOL     OW 8203   0.594   2.607   8.100
 2554SOL    HW1 8204   0.644   2.692   8.081
 2554SOL    HW2 8205   0.506   2.609   8.052
 2555SOL     OW 8206   1.777   2.204   9.090
 2555SOL    HW1 8207   1.760   2.235   8.996
 2555SOL    HW2 8208   1.693   2.167   9.128
 2556SOL     OW 8209   1.730   2.796   8.965
 2556SOL    HW1 8210   1.768   2.887   8.980
 2556SOL    HW2 8211   1.722   2.779   8.866
 2557SOL     OW 8212   0.859   3.236   7.464
 2557SOL    HW1 8213   0.813   3.251   7.552
 2557SOL    HW2 8214   0.903   3.321   7.434
 2558SOL     OW 8215   0.661   3.652   8.401
 2558SOL    HW1 8216   0.615   3.740   8.388
 2558SOL    HW2 8217   0.760   3.664   8.394
 2559SOL     OW 8218   0.859   2.818   8.309
 2559SOL    HW1 8219   0.913   2.749   8.357
 2559SOL    HW2 8220   0.827   2.887   8.375
 2560SOL     OW 8221   1.083   2.846   7.535
 2560SOL    HW1 8222   1.060   2.899   7.453
 2560SOL    HW2 8223   1.164   2.790   7.516
 2561SOL     OW 8224   1.861   3.431   8.299
 2561SOL    HW1 8225   1.790   3.419   8.229
 2561SOL    HW2 8226   1.862   3.352   8.359
 2562SOL     OW 8227   0.221   3.176   9.292
 2562SOL    HW1 8228   0.156   3.103   9.271
 2562SOL    HW2 8229   0.225   3.190   9.390
 2563SOL     OW 8230   0.079   3.102   8.101
 2563SOL    HW1 8231   0.078   3.055   8.189
 2563SOL    HW2 8232   0.161   3.074   8.050
 2564SOL     OW 8233   0.672   3.253   9.072
 2564SOL    HW1 8234   0.594   3.203   9.110
 2564SOL    HW2 8235   0.669   3.348   9.103
 2565SOL     OW 8236   0.428   2.286   7.968
 2565SOL    HW1 8237   0.458   2.214   7.906
 2565SOL    HW2 8238   0.389   2.246   8.051
 2566SOL     OW 8239   1.705   3.349   8.552
 2566SOL    HW1 8240   1.612   3.324   8.525
 2566SOL    HW2 8241   1.731   3.299   8.634
 2567SOL     OW 8242   0.317   2.409   8.728
 2567SOL    HW1 8243   0.355   2.350   8.800
 2567SOL    HW2 8244   0.357   2.383   8.640
 2568SOL     OW 8245   0.812   3.448   8.135
 2568SOL    HW1 8246   0.844   3.458   8.041
 2568SOL    HW2 8247   0.733   3.386   8.137
 2569SOL     OW 8248   1.424   2.076   8.560
 2569SOL    HW1 8249   1.476   2.011   8.615
 2569SOL    HW2 8250   1.375   2.139   8.621
 2570SOL     OW 8251   1.001   1.896   8.602
 2570SOL    HW1 8252   0.938   1.824   8.571
 2570SOL    HW2 8253   1.094   1.860   8.602
 2571SOL     OW 8254   0.770   3.192   7.749
 2571SOL    HW1 8255   0.724   3.105   7.766
 2571SOL    HW2 8256   0.861   3.189   7.790
 2572SOL     OW 8257   0.618   3.429   8.732
 2572SOL    HW1 8258   0.613   3.511   8.789
 2572SOL    HW2 8259   0.707   3.426   8.687
 2573SOL     OW 8260   1.300   2.315   8.139
 2573SOL    HW1 8261   1.241   2.395   8.143
 2573SOL    HW2 8262   1.315   2.280   8.232
 2574SOL     OW 8263   1.593   2.083   8.330
 2574SOL    HW1 8264   1.509   2.082   8.384
 2574SOL    HW2 8265   1.595   2.166   8.274
 2575SOL     OW 8266   0.039   2.939   7.748
 2575SOL    HW1 8267   0.138   2.928   7.739
 2575SOL    HW2 8268  -0.001   2.853   7.780
 2576SOL     OW 8269   0.875   3.508   7.785
 2576SOL    HW1 8270   0.798   3.473   7.731
 2576SOL    HW2 8271   0.843   3.579   7.847
 2577SOL     OW 8272   0.230   2.490   9.423
 2577SOL    HW1 8273   0.137   2.488   9.460
 2577SOL    HW2 8274   0.231   2.451   9.331
 2578SOL     OW 8275   0.225   2.137  10.306
 2578SOL    HW1 8276   0.260   2.120  10.398
 2578SOL    HW2 8277   0.137   2.092  10.294
 2579SOL     OW 8278   0.019   2.230   9.957
 2579SOL    HW1 8279  -0.063   2.273   9.996
 2579SOL    HW2 8280  -0.009   2.157   9.894
 2580SOL     OW 8281   0.569   3.137  10.475
 2580SOL    HW1 8282   0.476   3.130  10.438
 2580SOL    HW2 8283   0.580   3.226  10.519
 2581SOL     OW 8284   1.555   3.373  10.013
 2581SOL    HW1 8285   1.498   3.357  10.094
 2581SOL    HW2 8286   1.496   3.383   9.933
 2582SOL     OW 8287   1.135   2.565  10.027
 2582SOL    HW1 8288   1.192   2.643  10.002
 2582SOL    HW2 8289   1.075   2.591  10.103
 2583SOL     OW 8290   1.755   2.469   9.541
 2583SOL    HW1 8291   1.743   2.456   9.442
 2583SOL    HW2 8292   1.725   2.388   9.590
 2584SOL     OW 8293   0.768   3.006  10.333
 2584SOL    HW1 8294   0.690   3.023  10.393
 2584SOL    HW2 8295   0.802   3.093  10.297
 2585SOL     OW 8296   0.850   2.660  11.133
 2585SOL    HW1 8297   0.846   2.736  11.198
 2585SOL    HW2 8298   0.872   2.696  11.042
 2586SOL     OW 8299   0.685   2.874   9.975
 2586SOL    HW1 8300   0.754   2.858  10.045
 2586SOL    HW2 8301   0.612   2.931  10.013
 2587SOL     OW 8302   0.686   3.023  11.113
 2587SOL    HW1 8303   0.746   3.102  11.127
 2587SOL    HW2 8304   0.600   3.054  11.072
 2588SOL     OW 8305   0.335   3.297  10.371
 2588SOL    HW1 8306   0.257   3.266  10.318
 2588SOL    HW2 8307   0.393   3.355  10.314
 2589SOL     OW 8308   1.460   3.367  10.649
 2589SOL    HW1 8309   1.484   3.461  10.675
 2589SOL    HW2 8310   1.444   3.313  10.731
 2590SOL     OW 8311   0.438   2.254  10.809
 2590SOL    HW1 8312   0.520   2.198  10.818
 2590SOL    HW2 8313   0.357   2.196  10.813
 2591SOL     OW 8314   1.603   2.309  10.047
 2591SOL    HW1 8315   1.529   2.355   9.997
 2591SOL    HW2 8316   1.654   2.377  10.100
 2592SOL     OW 8317   0.231   3.575   9.793
 2592SOL    HW1 8318   0.265   3.652   9.847
 2592SOL    HW2 8319   0.275   3.575   9.703
 2593SOL     OW 8320   1.127   3.203  11.000
 2593SOL    HW1 8321   1.174   3.203  11.088
 2593SOL    HW2 8322   1.079   3.116  10.989
 2594SOL     OW 8323   0.230   3.296   9.848
 2594SOL    HW1 8324   0.204   3.392   9.848
 2594SOL    HW2 8325   0.159   3.242   9.893
 2595SOL     OW 8326   0.240   2.953  10.196
 2595SOL    HW1 8327   0.254   2.869  10.248
 2595SOL    HW2 8328   0.185   3.017  10.251
 2596SOL     OW 8329   0.620   3.648  10.749
 2596SOL    HW1 8330   0.528   3.631  10.784
 2596SOL    HW2 8331   0.648   3.740  10.775
 2597SOL     OW 8332   0.606   2.826   9.433
 2597SOL    HW1 8333   0.613   2.910   9.379
 2597SOL    HW2 8334   0.652   2.839   9.521
 2598SOL     OW 8335   1.594   1.976  10.790
 2598SOL    HW1 8336   1.576   2.043  10.718
 2598SOL    HW2 8337   1.591   2.022  10.879
 2599SOL     OW 8338   0.122   2.505   9.873
 2599SOL    HW1 8339   0.077   2.417   9.890
 2599SOL    HW2 8340   0.121   2.559   9.957
 2600SOL     OW 8341   1.842   3.629   9.669
 2600SOL    HW1 8342   1.896   3.600   9.749
 2600SOL    HW2 8343   1.872   3.719   9.640
 2601SOL     OW 8344   0.027   3.458   9.427
 2601SOL    HW1 8345   0.008   3.362   9.448
 2601SOL    HW2 8346  -0.006   3.516   9.502
 2602SOL     OW 8347   1.689   2.784   9.922
 2602SOL    HW1 8348   1.784   2.755   9.930
 2602SOL    HW2 8349   1.681   2.849   9.847
 2603SOL     OW 8350   1.641   2.970   9.742
 2603SOL    HW1 8351   1.727   2.972   9.690
 2603SOL    HW2 8352   1.655   3.017   9.830
 2604SOL     OW 8353   0.113   2.599  10.907
 2604SOL    HW1 8354   0.201   2.586  10.952
 2604SOL    HW2 8355   0.100   2.696  10.885
 2605SOL     OW 8356   0.613   3.227  10.036
 2605SOL    HW1 8357   0.564   3.140  10.045
 2605SOL    HW2 8358   0.590   3.270   9.949
 2606SOL     OW 8359   1.293   3.090  10.733
 2606SOL    HW1 8360   1.330   3.017  10.675
 2606SOL    HW2 8361   1.345   3.095  10.818
 2607SOL     OW 8362   0.809   1.866   9.812
 2607SOL    HW1 8363   0.849   1.957   9.803
 2607SOL    HW2 8364   0.709   1.874   9.818
 2608SOL     OW 8365   0.197   2.838  10.574
 2608SOL    HW1 8366   0.286   2.793  10.560
 2608SOL    HW2 8367   0.124   2.773  10.555
 2609SOL     OW 8368   1.525   2.861   9.500
 2609SOL    HW1 8369   1.462   2.785   9.513
 2609SOL    HW2 8370   1.573   2.879   9.586
 2610SOL     OW 8371   1.187   3.654  10.926
 2610SOL    HW1 8372   1.211   3.714  10.850
 2610SOL    HW2 8373   1.194   3.559  10.896
 2611SOL     OW 8374   0.317   2.113  11.111
 2611SOL    HW1 8375   0.388   2.184  11.117
 2611SOL    HW2 8376   0.229   2.152  11.139
 2612SOL     OW 8377   1.466   3.279  10.263
 2612SOL    HW1 8378   1.407   3.285  10.343
 2612SOL    HW2 8379   1.451   3.191  10.217
 2613SOL     OW 8380   1.667   3.576   9.882
 2613SOL    HW1 8381   1.626   3.553   9.794
 2613SOL    HW2 8382   1.649   3.502   9.947
 2614SOL     OW 8383   0.598   2.591   9.580
 2614SOL    HW1 8384   0.622   2.660   9.512
 2614SOL    HW2 8385   0.520   2.624   9.634
 2615SOL     OW 8386   1.281   2.207  10.254
 2615SOL    HW1 8387   1.195   2.157  10.241
 2615SOL    HW2 8388   1.343   2.153  10.310
 2616SOL     OW 8389   1.576   3.524   9.617
 2616SOL    HW1 8390   1.665   3.570   9.620
 2616SOL    HW2 8391   1.555   3.500   9.522
 2617SOL     OW 8392   0.807   2.467  10.775
 2617SOL    HW1 8393   0.760   2.464  10.864
 2617SOL    HW2 8394   0.756   2.412  10.709
 2618SOL     OW 8395   1.394   2.331  10.984
 2618SOL    HW1 8396   1.374   2.374  11.072
 2618SOL    HW2 8397   1.472   2.269  10.993
 2619SOL     OW 8398   0.973   2.752  10.882
 2619SOL    HW1 8399   1.019   2.668  10.853
 2619SOL    HW2 8400   0.917   2.786  10.807
 2620SOL     OW 8401   0.991   2.272  10.552
 2620SOL    HW1 8402   0.914   2.306  10.606
 2620SOL    HW2 8403   0.957   2.221  10.473
 2621SOL     OW 8404   1.041   2.563   9.739
 2621SOL    HW1 8405   1.067   2.559   9.835
 2621SOL    HW2 8406   0.956   2.512   9.725
 2622SOL     OW 8407   0.076   2.673  10.099
 2622SOL    HW1 8408   0.175   2.661  10.108
 2622SOL    HW2 8409   0.052   2.768  10.120
 2623SOL     OW 8410   0.130   3.683  10.881
 2623SOL    HW1 8411   0.120   3.668  10.980
 2623SOL    HW2 8412   0.044   3.719  10.845
 2624SOL     OW 8413   0.865   2.210   9.505
 2624SOL    HW1 8414   0.924   2.273   9.456
 2624SOL    HW2 8415   0.884   2.116   9.476
 2625SOL     OW 8416   1.719   2.447  11.141
 2625SOL    HW1 8417   1.693   2.536  11.105
 2625SOL    HW2 8418   1.717   2.379  11.068
 2626SOL     OW 8419   1.362   3.006   9.855
 2626SOL    HW1 8420   1.445   2.977   9.807
 2626SOL    HW2 8421   1.313   3.073   9.799
 2627SOL     OW 8422   0.550   2.058  10.195
 2627SOL    HW1 8423   0.545   2.053  10.295
 2627SOL    HW2 8424   0.552   2.154  10.166
 2628SOL     OW 8425   1.008   3.318   9.787
 2628SOL    HW1 8426   0.962   3.390   9.735
 2628SOL    HW2 8427   1.004   3.338   9.885
 2629SOL     OW 8428   0.351   3.663  10.163
 2629SOL    HW1 8429   0.401   3.577  10.169
 2629SOL    HW2 8430   0.416   3.740  10.160
 2630SOL     OW 8431   1.795   2.928  10.183
 2630SOL    HW1 8432   1.733   2.913  10.107
 2630SOL    HW2 8433   1.743   2.939  10.268
 2631SOL     OW 8434   1.227   3.412  10.816
 2631SOL    HW1 8435   1.233   3.335  10.880
 2631SOL    HW2 8436   1.175   3.386  10.736
 2632SOL     OW 8437   0.321   2.805   9.552
 2632SOL    HW1 8438   0.403   2.844   9.510
 2632SOL    HW2 8439   0.294   2.723   9.503
 2633SOL     OW 8440   1.458   2.597  10.038
 2633SOL    HW1 8441   1.453   2.532  10.113
 2633SOL    HW2 8442   1.538   2.656  10.051
 2634SOL     OW 8443   0.461   3.128  11.037
 2634SOL    HW1 8444   0.411   3.129  10.951
 2634SOL    HW2 8445   0.398   3.110  11.113
 2635SOL     OW 8446   1.111   3.638   9.547
 2635SOL    HW1 8447   1.051   3.576   9.597
 2635SOL    HW2 8448   1.142   3.594   9.462
 2636SOL     OW 8449   0.202   2.147  10.808
 2636SOL    HW1 8450   0.122   2.207  10.795
 2636SOL    HW2 8451   0.192   2.098  10.894
 2637SOL     OW 8452   1.632   3.239   9.391
 2637SOL    HW1 8453   1.600   3.333   9.381
 2637SOL    HW2 8454   1.556   3.176   9.379
 2638SOL     OW 8455   0.464   3.605   9.633
 2638SOL    HW1 8456   0.497   3.644   9.719
 2638SOL    HW2 8457   0.540   3.598   9.568
 2639SOL     OW 8458   1.400   1.969   9.736
 2639SOL    HW1 8459   1.376   1.932   9.646
 2639SOL    HW2 8460   1.499   1.985   9.740
 2640SOL     OW 8461   0.249   3.647  10.551
 2640SOL    HW1 8462   0.306   3.582  10.601
 2640SOL    HW2 8463   0.233   3.614  10.458
 2641SOL     OW 8464   0.940   3.560  10.214
 2641SOL    HW1 8465   1.020   3.503  10.235
 2641SOL    HW2 8466   0.891   3.520  10.137
 2642SOL     OW 8467   0.382   2.562   9.790
 2642SOL    HW1 8468   0.427   2.472   9.787
 2642SOL    HW2 8469   0.288   2.551   9.823
 2643SOL     OW 8470   1.547   2.084  11.039
 2643SOL    HW1 8471   1.542   2.121  11.131
 2643SOL    HW2 8472   1.475   2.015  11.027
 2644SOL     OW 8473   0.614   1.984   9.427
 2644SOL    HW1 8474   0.712   1.962   9.434
 2644SOL    HW2 8475   0.583   1.967   9.334
 2645SOL     OW 8476   0.781   2.126  11.059
 2645SOL    HW1 8477   0.848   2.065  11.102
 2645SOL    HW2 8478   0.708   2.145  11.124
 2646SOL     OW 8479   0.888   3.376  10.505
 2646SOL    HW1 8480   0.865   3.351  10.411
 2646SOL    HW2 8481   0.949   3.307  10.544
 2647SOL     OW 8482   1.351   2.452  10.743
 2647SOL    HW1 8483   1.379   2.409  10.828
 2647SOL    HW2 8484   1.376   2.548  10.744
 2648SOL     OW 8485   0.803   3.264  10.234
 2648SOL    HW1 8486   0.893   3.278  10.192
 2648SOL    HW2 8487   0.732   3.266  10.163
 2649SOL     OW 8488   0.922   2.365  10.209
 2649SOL    HW1 8489   0.897   2.356  10.113
 2649SOL    HW2 8490   0.970   2.283  10.240
 2650SOL     OW 8491   0.539   1.926   9.822
 2650SOL    HW1 8492   0.458   1.927   9.880
 2650SOL    HW2 8493   0.542   2.009   9.767
 2651SOL     OW 8494   1.434   3.050   9.351
 2651SOL    HW1 8495   1.466   2.974   9.408
 2651SOL    HW2 8496   1.342   3.077   9.381
 2652SOL     OW 8497   0.297   1.897   9.481
 2652SOL    HW1 8498   0.346   1.981   9.460
 2652SOL    HW2 8499   0.359   1.832   9.526
 2653SOL     OW 8500   0.935   2.098   9.790
 2653SOL    HW1 8501   0.887   2.139   9.712
 2653SOL    HW2 8502   1.034   2.096   9.771
 2654SOL     OW 8503   1.076   2.545  10.774
 2654SOL    HW1 8504   0.996   2.484  10.777
 2654SOL    HW2 8505   1.157   2.492  10.750
 2655SOL     OW 8506   1.227   3.432  10.103
 2655SOL    HW1 8507   1.248   3.506  10.038
 2655SOL    HW2 8508   1.295   3.432  10.176
 2656SOL     OW 8509   0.459   3.014  10.051
 2656SOL    HW1 8510   0.388   2.987  10.116
 2656SOL    HW2 8511   0.433   2.986   9.958
 2657SOL     OW 8512   1.271   3.659   9.901
 2657SOL    HW1 8513   1.315   3.723   9.837
 2657SOL    HW2 8514   1.221   3.711   9.971
 2658SOL     OW 8515   1.032   2.411   9.326
 2658SOL    HW1 8516   0.991   2.493   9.287
 2658SOL    HW2 8517   1.096   2.437   9.399
 2659SOL     OW 8518   0.078   2.418  10.696
 2659SOL    HW1 8519   0.170   2.417  10.655
 2659SOL    HW2 8520   0.072   2.492  10.763
 2660SOL     OW 8521   0.561   2.084  10.457
 2660SOL    HW1 8522   0.599   2.000  10.494
 2660SOL    HW2 8523   0.473   2.103  10.501
 2661SOL     OW 8524   0.866   2.316   9.952
 2661SOL    HW1 8525   0.834   2.388   9.890
 2661SOL    HW2 8526   0.890   2.235   9.899
 2662SOL     OW 8527   1.017   1.901  10.063
 2662SOL    HW1 8528   0.945   1.906   9.994
 2662SOL    HW2 8529   0.993   1.832  10.132
 2663SOL     OW 8530   1.429   3.035  10.177
 2663SOL    HW1 8531   1.374   2.951  10.170
 2663SOL    HW2 8532   1.455   3.064  10.085
 2664SOL     OW 8533   1.466   2.452  10.302
 2664SOL    HW1 8534   1.436   2.357  10.309
 2664SOL    HW2 8535   1.539   2.468  10.368
 2665SOL     OW 8536   1.857   2.695   9.687
 2665SOL    HW1 8537   1.899   2.631   9.751
 2665SOL    HW2 8538   1.819   2.644   9.609
 2666SOL     OW 8539   0.488   3.247   9.484
 2666SOL    HW1 8540   0.401   3.232   9.531
 2666SOL    HW2 8541   0.471   3.273   9.389
 2667SOL     OW 8542   1.664   3.142   9.967
 2667SOL    HW1 8543   1.763   3.150   9.981
 2667SOL    HW2 8544   1.619   3.226   9.998
 2668SOL     OW 8545   1.390   2.437   9.388
 2668SOL    HW1 8546   1.336   2.416   9.469
 2668SOL    HW2 8547   1.481   2.396   9.397
 2669SOL     OW 8548   0.527   2.118   9.638
 2669SOL    HW1 8549   0.554   2.059   9.563
 2669SOL    HW2 8550   0.527   2.213   9.607
 2670SOL     OW 8551   1.754   3.085  10.898
 2670SOL    HW1 8552   1.845   3.046  10.885
 2670SOL    HW2 8553   1.762   3.181  10.922
 2671SOL     OW 8554   1.064   3.209  10.650
 2671SOL    HW1 8555   0.984   3.186  10.705
 2671SOL    HW2 8556   1.147   3.183  10.699
 2672SOL     OW 8557   1.592   3.491  10.935
 2672SOL    HW1 8558   1.619   3.525  10.845
 2672SOL    HW2 8559   1.671   3.453  10.981
 2673SOL     OW 8560   1.111   3.057  10.410
 2673SOL    HW1 8561   1.071   3.101  10.491
 2673SOL    HW2 8562   1.070   3.094  10.327
 2674SOL     OW 8563   1.638   2.961  10.389
 2674SOL    HW1 8564   1.643   3.042  10.448
 2674SOL    HW2 8565   1.552   2.963  10.338
 2675SOL     OW 8566   0.915   1.951  10.712
 2675SOL    HW1 8567   0.940   1.931  10.617
 2675SOL    HW2 8568   0.987   2.007  10.754
 2676SOL     OW 8569   0.980   2.978  11.029
 2676SOL    HW1 8570   0.881   2.984  11.039
 2676SOL    HW2 8571   1.003   2.898  10.973
 2677SOL     OW 8572   0.705   2.912   9.678
 2677SOL    HW1 8573   0.691   2.919   9.777
 2677SOL    HW2 8574   0.789   2.861   9.660
 2678SOL     OW 8575   0.410   2.675  10.561
 2678SOL    HW1 8576   0.496   2.687  10.611
 2678SOL    HW2 8577   0.368   2.588  10.588
 2679SOL     OW 8578   1.274   2.248  10.572
 2679SOL    HW1 8579   1.295   2.322  10.636
 2679SOL    HW2 8580   1.185   2.265  10.529
 2680SOL     OW 8581   0.064   3.426  10.641
 2680SOL    HW1 8582   0.018   3.508  10.607
 2680SOL    HW2 8583   0.162   3.445  10.650
 2681SOL     OW 8584   0.367   2.962   9.811
 2681SOL    HW1 8585   0.360   3.045   9.755
 2681SOL    HW2 8586   0.371   2.882   9.751
 2682SOL     OW 8587   0.566   2.399  10.175
 2682SOL    HW1 8588   0.578   2.465  10.101
 2682SOL    HW2 8589   0.612   2.433  10.258
 2683SOL     OW 8590   1.252   3.210   9.698
 2683SOL    HW1 8591   1.302   3.287   9.738
 2683SOL    HW2 8592   1.157   3.212   9.730
 2684SOL     OW 8593   1.272   3.307  10.452
 2684SOL    HW1 8594   1.319   3.320  10.539
 2684SOL    HW2 8595   1.206   3.233  10.461
 2685SOL     OW 8596   1.582   2.501   9.782
 2685SOL    HW1 8597   1.551   2.562   9.855
 2685SOL    HW2 8598   1.632   2.553   9.713
 2686SOL     OW 8599   0.354   3.372  10.639
 2686SOL    HW1 8600   0.333   3.328  10.552
 2686SOL    HW2 8601   0.451   3.398  10.642
 2687SOL     OW 8602   0.402   2.613  10.908
 2687SOL    HW1 8603   0.470   2.668  10.861
 2687SOL    HW2 8604   0.442   2.525  10.935
 2688SOL     OW 8605   1.587   2.641  10.980
 2688SOL    HW1 8606   1.495   2.679  10.975
 2688SOL    HW2 8607   1.647   2.688  10.915
 2689SOL     OW 8608   1.013   1.967  11.080
 2689SOL    HW1 8609   1.019   2.052  11.028
 2689SOL    HW2 8610   1.045   1.891  11.023
 2690SOL     OW 8611   0.504   1.912  11.050
 2690SOL    HW1 8612   0.462   1.855  10.980
 2690SOL    HW2 8613   0.438   1.981  11.082
 2691SOL     OW 8614   0.573   2.732  10.339
 2691SOL    HW1 8615   0.617   2.821  10.330
 2691SOL    HW2 8616   0.510   2.732  10.416
 2692SOL     OW 8617   1.360   2.724  10.355
 2692SOL    HW1 8618   1.285   2.724  10.289
 2692SOL    HW2 8619   1.397   2.632  10.364
 2693SOL     OW 8620   1.209   2.387   9.585
 2693SOL    HW1 8621   1.222   2.303   9.639
 2693SOL    HW2 8622   1.180   2.461   9.645
 2694SOL     OW 8623   0.307   2.075  10.541
 2694SOL    HW1 8624   0.284   2.112  10.631
 2694SOL    HW2 8625   0.277   1.980  10.535
 2695SOL     OW 8626   0.037   3.172  10.592
 2695SOL    HW1 8627   0.090   3.123  10.660
 2695SOL    HW2 8628   0.059   3.270  10.597
 2696SOL     OW 8629   0.732   2.496  10.374
 2696SOL    HW1 8630   0.791   2.470  10.298
 2696SOL    HW2 8631   0.704   2.592  10.363
 2697SOL     OW 8632   1.728   2.797  11.164
 2697SOL    HW1 8633   1.682   2.790  11.075
 2697SOL    HW2 8634   1.666   2.841  11.230
 2698SOL     OW 8635   0.307   1.925   9.928
 2698SOL    HW1 8636   0.296   2.019   9.961
 2698SOL    HW2 8637   0.302   1.862  10.005
 2699SOL     OW 8638   1.622   2.229   9.684
 2699SOL    HW1 8639   1.624   2.153   9.748
 2699SOL    HW2 8640   1.574   2.306   9.724
 2700SOL     OW 8641   1.023   2.628  10.276
 2700SOL    HW1 8642   1.038   2.649  10.372
 2700SOL    HW2 8643   0.993   2.533  10.267
 2701SOL     OW 8644   0.980   3.435  11.010
 2701SOL    HW1 8645   0.960   3.479  10.922
 2701SOL    HW2 8646   1.019   3.344  10.994
 2702SOL     OW 8647   1.859   3.380  10.915
 2702SOL    HW1 8648   1.873   3.407  10.820
 2702SOL    HW2 8649   1.942   3.402  10.968
 2703SOL     OW 8650   0.350   2.760  11.114
 2703SOL    HW1 8651   0.426   2.804  11.162
 2703SOL    HW2 8652   0.385   2.713  11.032
 2704SOL     OW 8653   1.540   2.136   9.435
 2704SOL    HW1 8654   1.479   2.061   9.458
 2704SOL    HW2 8655   1.562   2.188   9.518
 2705SOL     OW 8656   1.303   2.700   9.352
 2705SOL    HW1 8657   1.337   2.607   9.367
 2705SOL    HW2 8658   1.321   2.727   9.257
 2706SOL     OW 8659   1.068   3.195  10.159
 2706SOL    HW1 8660   1.075   3.111  10.104
 2706SOL    HW2 8661   1.130   3.264  10.123
 2707SOL     OW 8662   0.319   2.672  10.259
 2707SOL    HW1 8663   0.412   2.708  10.264
 2707SOL    HW2 8664   0.313   2.587  10.311
 2708SOL     OW 8665   0.339   2.371  10.316
 2708SOL    HW1 8666   0.287   2.288  10.299
 2708SOL    HW2 8667   0.416   2.376  10.252
 2709SOL     OW 8668   1.138   2.242  10.988
 2709SOL    HW1 8669   1.093   2.305  11.052
 2709SOL    HW2 8670   1.231   2.273  10.971
 2710SOL     OW 8671   1.160   2.069  10.787
 2710SOL    HW1 8672   1.160   2.133  10.864
 2710SOL    HW2 8673   1.188   2.117  10.704
 2711SOL     OW 8674   0.008   3.188   9.510
 2711SOL    HW1 8675  -0.085   3.209   9.479
 2711SOL    HW2 8676   0.018   3.089   9.523
 2712SOL     OW 8677   0.088   3.663  10.237
 2712SOL    HW1 8678   0.046   3.577  10.210
 2712SOL    HW2 8679   0.182   3.666  10.203
 2713SOL     OW 8680   0.504   3.430  10.220
 2713SOL    HW1 8681   0.570   3.504  10.229
 2713SOL    HW2 8682   0.548   3.351  10.178
 2714SOL     OW 8683   1.002   2.658  10.548
 2714SOL    HW1 8684   1.043   2.626  10.634
 2714SOL    HW2 8685   0.906   2.631  10.545
 2715SOL     OW 8686   0.040   2.406  10.424
 2715SOL    HW1 8687   0.125   2.373  10.383
 2715SOL    HW2 8688   0.053   2.421  10.522
 2716SOL     OW 8689   0.189   2.382  11.032
 2716SOL    HW1 8690   0.248   2.342  10.962
 2716SOL    HW2 8691   0.131   2.453  10.991
 2717SOL     OW 8692   1.369   2.812  10.970
 2717SOL    HW1 8693   1.408   2.901  10.990
 2717SOL    HW2 8694   1.379   2.792  10.873
 2718SOL     OW 8695   0.815   2.434   9.635
 2718SOL    HW1 8696   0.822   2.345   9.589
 2718SOL    HW2 8697   0.721   2.468   9.627
 2719SOL     OW 8698   1.657   2.466  10.516
 2719SOL    HW1 8699   1.619   2.397  10.578
 2719SOL    HW2 8700   1.739   2.430  10.472
 2720SOL     OW 8701   0.252   3.426  11.054
 2720SOL    HW1 8702   0.222   3.483  11.130
 2720SOL    HW2 8703   0.245   3.329  11.080
 2721SOL     OW 8704   0.671   2.326  10.579
 2721SOL    HW1 8705   0.637   2.237  10.549
 2721SOL    HW2 8706   0.697   2.380  10.499
 2722SOL     OW 8707   0.930   3.540  10.775
 2722SOL    HW1 8708   0.906   3.522  10.680
 2722SOL    HW2 8709   0.960   3.634  10.785
 2723SOL     OW 8710   0.473   2.362   9.501
 2723SOL    HW1 8711   0.534   2.442   9.505
 2723SOL    HW2 8712   0.378   2.393   9.508
 2724SOL     OW 8713   0.159   2.999  10.776
 2724SOL    HW1 8714   0.181   2.938  10.852
 2724SOL    HW2 8715   0.169   2.950  10.690
 2725SOL     OW 8716   1.347   2.921  10.544
 2725SOL    HW1 8717   1.371   2.858  10.470
 2725SOL    HW2 8718   1.257   2.961  10.526
 2726SOL     OW 8719   1.302   2.717   9.619
 2726SOL    HW1 8720   1.216   2.686   9.661
 2726SOL    HW2 8721   1.298   2.703   9.520
 2727SOL     OW 8722   1.759   3.609  10.464
 2727SOL    HW1 8723   1.820   3.639  10.391
 2727SOL    HW2 8724   1.721   3.520  10.442
 2728SOL     OW 8725   1.252   3.593  10.438
 2728SOL    HW1 8726   1.336   3.598  10.384
 2728SOL    HW2 8727   1.229   3.497  10.456
 2729SOL     OW 8728   0.083   3.120  10.332
 2729SOL    HW1 8729   0.078   3.119  10.432
 2729SOL    HW2 8730   0.000   3.079  10.294
 2730SOL     OW 8731   0.688   3.524  11.026
 2730SOL    HW1 8732   0.632   3.605  11.035
 2730SOL    HW2 8733   0.740   3.528  10.940
 2731SOL     OW 8734   1.388   3.435   9.787
 2731SOL    HW1 8735   1.455   3.447   9.713
 2731SOL    HW2 8736   1.348   3.524   9.810
 2732SOL     OW 8737   0.130   3.656  11.161
 2732SOL    HW1 8738   0.089   3.582  11.214
 2732SOL    HW2 8739   0.194   3.707  11.219
 2733SOL     OW 8740   1.280   2.789   9.982
 2733SOL    HW1 8741   1.340   2.708   9.984
 2733SOL    HW2 8742   1.320   2.858   9.922
 2734SOL     OW 8743   0.830   3.135  10.732
 2734SOL    HW1 8744   0.825   3.168  10.827
 2734SOL    HW2 8745   0.744   3.154  10.686
 2735SOL     OW 8746   0.672   3.478   9.464
 2735SOL    HW1 8747   0.681   3.488   9.365
 2735SOL    HW2 8748   0.632   3.389   9.485
 2736SOL     OW 8749   1.650   3.582  10.704
 2736SOL    HW1 8750   1.703   3.592  10.620
 2736SOL    HW2 8751   1.623   3.672  10.738
 2737SOL     OW 8752   0.263   2.188  10.030
 2737SOL    HW1 8753   0.184   2.239   9.996
 2737SOL    HW2 8754   0.254   2.173  10.128
 2738SOL     OW 8755   1.194   3.474   9.341
 2738SOL    HW1 8756   1.200   3.381   9.378
 2738SOL    HW2 8757   1.135   3.474   9.261
 2739SOL     OW 8758   0.822   2.864  10.682
 2739SOL    HW1 8759   0.862   2.863  10.590
 2739SOL    HW2 8760   0.832   2.956  10.722
 2740SOL     OW 8761   0.916   2.772   9.601
 2740SOL    HW1 8762   0.979   2.810   9.533
 2740SOL    HW2 8763   0.956   2.689   9.640
 2741SOL     OW 8764   1.504   3.469   9.354
 2741SOL    HW1 8765   1.412   3.506   9.361
 2741SOL    HW2 8766   1.542   3.489   9.264
 2742SOL     OW 8767   0.372   3.150  10.800
 2742SOL    HW1 8768   0.359   3.243  10.766
 2742SOL    HW2 8769   0.288   3.098  10.787
 2743SOL     OW 8770   1.614   3.154  10.599
 2743SOL    HW1 8771   1.674   3.157  10.679
 2743SOL    HW2 8772   1.539   3.218  10.612
 2744SOL     OW 8773   1.039   2.960  10.006
 2744SOL    HW1 8774   0.969   2.913  10.060
 2744SOL    HW2 8775   1.098   2.892   9.963
 2745SOL     OW 8776   1.014   2.098  10.281
 2745SOL    HW1 8777   1.006   2.062  10.188
 2745SOL    HW2 8778   1.012   2.022  10.346
 2746SOL     OW 8779   0.590   3.349   9.801
 2746SOL    HW1 8780   0.632   3.291   9.731
 2746SOL    HW2 8781   0.546   3.428   9.757
 2747SOL     OW 8782   1.709   2.247  10.691
 2747SOL    HW1 8783   1.782   2.316  10.695
 2747SOL    HW2 8784   1.737   2.172  10.632
 2748SOL     OW 8785   0.255   3.210   9.600
 2748SOL    HW1 8786   0.159   3.211   9.573
 2748SOL    HW2 8787   0.267   3.263   9.684
 2749SOL     OW 8788   0.105   2.875  11.036
 2749SOL    HW1 8789   0.028   2.842  11.090
 2749SOL    HW2 8790   0.190   2.845  11.078
 2750SOL     OW 8791   0.672   2.065  10.799
 2750SOL    HW1 8792   0.762   2.049  10.759
 2750SOL    HW2 8793   0.680   2.070  10.898
 2751SOL     OW 8794   0.075   2.207   9.343
 2751SOL    HW1 8795  -0.017   2.179   9.314
 2751SOL    HW2 8796   0.106   2.284   9.287
 2752SOL     OW 8797   1.440   2.718  10.708
 2752SOL    HW1 8798   1.383   2.770  10.645
 2752SOL    HW2 8799   1.536   2.730  10.684
 2753SOL     OW 8800   0.072   2.028   9.628
 2753SOL    HW1 8801   0.055   2.111   9.574
 2753SOL    HW2 8802   0.162   1.991   9.606
 2754SOL     OW 8803   1.183   3.197   9.429
 2754SOL    HW1 8804   1.084   3.186   9.431
 2754SOL    HW2 8805   1.217   3.212   9.522
 2755SOL     OW 8806   0.613   2.704  10.741
 2755SOL    HW1 8807   0.669   2.785  10.724
 2755SOL    HW2 8808   0.672   2.624  10.744
 2756SOL     OW 8809   1.493   3.629  10.269
 2756SOL    HW1 8810   1.526   3.693  10.200
 2756SOL    HW2 8811   1.559   3.623  10.344
 2757SOL     OW 8812   0.716   2.427  11.018
 2757SOL    HW1 8813   0.735   2.492  11.092
 2757SOL    HW2 8814   0.776   2.347  11.027
 2758SOL     OW 8815   1.450   3.082  10.943
 2758SOL    HW1 8816   1.441   3.072  11.042
 2758SOL    HW2 8817   1.546   3.075  10.917
 2759SOL     OW 8818   0.390   3.603  10.870
 2759SOL    HW1 8819   0.299   3.644  10.868
 2759SOL    HW2 8820   0.383   3.509  10.902
 2760SOL     OW 8821   1.674   2.745  10.564
 2760SOL    HW1 8822   1.647   2.656  10.527
 2760SOL    HW2 8823   1.675   2.813  10.491
 2761SOL     OW 8824   1.225   2.187   9.759
 2761SOL    HW1 8825   1.290   2.113   9.748
 2761SOL    HW2 8826   1.245   2.237   9.843
 2762SOL     OW 8827   0.594   2.607   9.962
 2762SOL    HW1 8828   0.644   2.692   9.943
 2762SOL    HW2 8829   0.506   2.609   9.914
 2763SOL     OW 8830   1.777   2.204  10.952
 2763SOL    HW1 8831   1.760   2.235  10.858
 2763SOL    HW2 8832   1.693   2.167  10.990
 2764SOL     OW 8833   1.730   2.796  10.827
 2764SOL    HW1 8834   1.768   2.887  10.842
 2764SOL    HW2 8835   1.722   2.779  10.728
 2765SOL     OW 8836   0.859   3.236   9.326
 2765SOL    HW1 8837   0.813   3.251   9.414
 2765SOL    HW2 8838   0.903   3.321   9.296
 2766SOL     OW 8839   0.661   3.652  10.263
 2766SOL    HW1 8840   0.615   3.740  10.250
 2766SOL    HW2 8841   0.760   3.664  10.256
 2767SOL     OW 8842   0.859   2.818  10.171
 2767SOL    HW1 8843   0.913   2.749  10.219
 2767SOL    HW2 8844   0.827   2.887  10.237
 2768SOL     OW 8845   1.083   2.846   9.397
 2768SOL    HW1 8846   1.060   2.899   9.315
 2768SOL    HW2 8847   1.164   2.790   9.378
 2769SOL     OW 8848   1.861   3.431  10.161
 2769SOL    HW1 8849   1.790   3.419  10.091
 2769SOL    HW2 8850   1.862   3.352  10.221
 2770SOL     OW 8851   0.221   3.176  11.154
 2770SOL    HW1 8852   0.156   3.103  11.133
 2770SOL    HW2 8853   0.225   3.190  11.252
 2771SOL     OW 8854   0.079   3.102   9.963
 2771SOL    HW1 8855   0.078   3.055  10.051
 2771SOL    HW2 8856   0.161   3.074   9.912
 2772SOL     OW 8857   0.672   3.253  10.934
 2772SOL    HW1 8858   0.594   3.203  10.972
 2772SOL    HW2 8859   0.669   3.348  10.965
 2773SOL     OW 8860   0.428   2.286   9.830
 2773SOL    HW1 8861   0.458   2.214   9.768
 2773SOL    HW2 8862   0.389   2.246   9.913
 2774SOL     OW 8863   1.705   3.349  10.414
 2774SOL    HW1 8864   1.612   3.324  10.387
 2774SOL    HW2 8865   1.731   3.299  10.496
 2775SOL     OW 8866   0.317   2.409  10.590
 2775SOL    HW1 8867   0.355   2.350  10.662
 2775SOL    HW2 8868   0.357   2.383  10.502
 2776SOL     OW 8869   0.812   3.448   9.997
 2776SOL    HW1 8870   0.844   3.458   9.903
 2776SOL    HW2 8871   0.733   3.386   9.999
 2777SOL     OW 8872   1.424   2.076  10.422
 2777SOL    HW1 8873   1.476   2.011  10.477
 2777SOL    HW2 8874   1.375   2.139  10.483
 2778SOL     OW 8875   1.001   1.896  10.464
 2778SOL    HW1 8876   0.938   1.824  10.433
 2778SOL    HW2 8877   1.094   1.860  10.464
 2779SOL     OW 8878   0.770   3.192   9.611
 2779SOL    HW1 8879   0.724   3.105   9.628
 2779SOL    HW2 8880   0.861   3.189   9.652
 2780SOL     OW 8881   0.618   3.429  10.594
 2780SOL    HW1 8882   0.613   3.511  10.651
 2780SOL    HW2 8883   0.707   3.426  10.549
 2781SOL     OW 8884   1.352   1.914   9.478
 2781SOL    HW1 8885   1.387   1.873   9.394
 2781SOL    HW2 8886   1.262   1.876   9.498
 2782SOL     OW 8887   1.300   2.315  10.001
 2782SOL    HW1 8888   1.241   2.395  10.005
 2782SOL    HW2 8889   1.315   2.280  10.094
 2783SOL     OW 8890   1.593   2.083  10.192
 2783SOL    HW1 8891   1.509   2.082  10.246
 2783SOL    HW2 8892   1.595   2.166  10.136
 2784SOL     OW 8893   0.039   2.939   9.610
 2784SOL    HW1 8894   0.138   2.928   9.601
 2784SOL    HW2 8895  -0.001   2.853   9.642
 2785SOL     OW 8896   0.875   3.508   9.647
 2785SOL    HW1 8897   0.798   3.473   9.593
 2785SOL    HW2 8898   0.843   3.579   9.709
 2786SOL     OW 8899   0.230   2.490  11.285
 2786SOL    HW1 8900   0.137   2.488  11.322
 2786SOL    HW2 8901   0.231   2.451  11.193
 2787SOL     OW 8902   0.225   2.137  12.168
 2787SOL    HW1 8903   0.260   2.120  12.260
 2787SOL    HW2 8904   0.137   2.092  12.156
 2788SOL     OW 8905   0.019   2.230  11.819
 2788SOL    HW1 8906  -0.063   2.273  11.858
 2788SOL    HW2 8907  -0.009   2.157  11.756
 2789SOL     OW 8908   0.569   3.137  12.337
 2789SOL    HW1 8909   0.476   3.130  12.300
 2789SOL    HW2 8910   0.580   3.226  12.381
 2790SOL     OW 8911   1.555   3.373  11.875
 2790SOL    HW1 8912   1.498   3.357  11.956
 2790SOL    HW2 8913   1.496   3.383  11.795
 2791SOL     OW 8914   1.135   2.565  11.889
 2791SOL    HW1 8915   1.192   2.643  11.864
 2791SOL    HW2 8916   1.075   2.591  11.965
 2792SOL     OW 8917   1.755   2.469  11.403
 2792SOL    HW1 8918   1.743   2.456  11.304
 2792SOL    HW2 8919   1.725   2.388  11.452
 2793SOL     OW 8920   0.768   3.006  12.195
 2793SOL    HW1 8921   0.690   3.023  12.255
 2793SOL    HW2 8922   0.802   3.093  12.159
 2794SOL     OW 8923   0.850   2.660  12.995
 2794SOL    HW1 8924   0.846   2.736  13.060
 2794SOL    HW2 8925   0.872   2.696  12.904
 2795SOL     OW 8926   0.685   2.874  11.837
 2795SOL    HW1 8927   0.754   2.858  11.907
 2795SOL    HW2 8928   0.612   2.931  11.875
 2796SOL     OW 8929   0.686   3.023  12.975
 2796SOL    HW1 8930   0.746   3.102  12.989
 2796SOL    HW2 8931   0.600   3.054  12.934
 2797SOL     OW 8932   0.335   3.297  12.233
 2797SOL    HW1 8933   0.257   3.266  12.180
 2797SOL    HW2 8934   0.393   3.355  12.176
 2798SOL     OW 8935   1.460   3.367  12.511
 2798SOL    HW1 8936   1.484   3.461  12.537
 2798SOL    HW2 8937   1.444   3.313  12.593
 2799SOL     OW 8938   0.438   2.254  12.671
 2799SOL    HW1 8939   0.520   2.198  12.680
 2799SOL    HW2 8940   0.357   2.196  12.675
 2800SOL     OW 8941   1.603   2.309  11.909
 2800SOL    HW1 8942   1.529   2.355  11.859
 2800SOL    HW2 8943   1.654   2.377  11.962
 2801SOL     OW 8944   0.231   3.575  11.655
 2801SOL    HW1 8945   0.265   3.652  11.709
 2801SOL    HW2 8946   0.275   3.575  11.565
 2802SOL     OW 8947   1.127   3.203  12.862
 2802SOL    HW1 8948   1.174   3.203  12.950
 2802SOL    HW2 8949   1.079   3.116  12.851
 2803SOL     OW 8950   0.230   3.296  11.710
 2803SOL    HW1 8951   0.204   3.392  11.710
 2803SOL    HW2 8952   0.159   3.242  11.755
 2804SOL     OW 8953   0.240   2.953  12.058
 2804SOL    HW1 8954   0.254   2.869  12.110
 2804SOL    HW2 8955   0.185   3.017  12.113
 2805SOL     OW 8956   0.620   3.648  12.611
 2805SOL    HW1 8957   0.528   3.631  12.646
 2805SOL    HW2 8958   0.648   3.740  12.637
 2806SOL     OW 8959   0.606   2.826  11.295
 2806SOL    HW1 8960   0.613   2.910  11.241
 2806SOL    HW2 8961   0.652   2.839  11.383
 2807SOL     OW 8962   1.594   1.976  12.652
 2807SOL    HW1 8963   1.576   2.043  12.580
 2807SOL    HW2 8964   1.591   2.022  12.741
 2808SOL     OW 8965   0.122   2.505  11.735
 2808SOL    HW1 8966   0.077   2.417  11.752
 2808SOL    HW2 8967   0.121   2.559  11.819
 2809SOL     OW 8968   1.842   3.629  11.531
 2809SOL    HW1 8969   1.896   3.600  11.611
 2809SOL    HW2 8970   1.872   3.719  11.502
 2810SOL     OW 8971   0.027   3.458  11.289
 2810SOL    HW1 8972   0.008   3.362  11.310
 2810SOL    HW2 8973  -0.006   3.516  11.364
 2811SOL     OW 8974   1.689   2.784  11.784
 2811SOL    HW1 8975   1.784   2.755  11.792
 2811SOL    HW2 8976   1.681   2.849  11.709
 2812SOL     OW 8977   1.641   2.970  11.604
 2812SOL    HW1 8978   1.727   2.972  11.552
 2812SOL    HW2 8979   1.655   3.017  11.692
 2813SOL     OW 8980   0.113   2.599  12.769
 2813SOL    HW1 8981   0.201   2.586  12.814
 2813SOL    HW2 8982   0.100   2.696  12.747
 2814SOL     OW 8983   0.613   3.227  11.898
 2814SOL    HW1 8984   0.564   3.140  11.907
 2814SOL    HW2 8985   0.590   3.270  11.811
 2815SOL     OW 8986   1.293   3.090  12.595
 2815SOL    HW1 8987   1.330   3.017  12.537
 2815SOL    HW2 8988   1.345   3.095  12.680
 2816SOL     OW 8989   0.809   1.866  11.674
 2816SOL    HW1 8990   0.849   1.957  11.665
 2816SOL    HW2 8991   0.709   1.874  11.680
 2817SOL     OW 8992   0.197   2.838  12.436
 2817SOL    HW1 8993   0.286   2.793  12.422
 2817SOL    HW2 8994   0.124   2.773  12.417
 2818SOL     OW 8995   1.525   2.861  11.362
 2818SOL    HW1 8996   1.462   2.785  11.375
 2818SOL    HW2 8997   1.573   2.879  11.448
 2819SOL     OW 8998   1.187   3.654  12.788
 2819SOL    HW1 8999   1.211   3.714  12.712
 2819SOL    HW2 9000   1.194   3.559  12.758
 2820SOL     OW 9001   0.317   2.113  12.973
 2820SOL    HW1 9002   0.388   2.184  12.979
 2820SOL    HW2 9003   0.229   2.152  13.001
 2821SOL     OW 9004   1.466   3.279  12.125
 2821SOL    HW1 9005   1.407   3.285  12.205
 2821SOL    HW2 9006   1.451   3.191  12.079
 2822SOL     OW 9007   1.667   3.576  11.744
 2822SOL    HW1 9008   1.626   3.553  11.656
 2822SOL    HW2 9009   1.649   3.502  11.809
 2823SOL     OW 9010   0.598   2.591  11.442
 2823SOL    HW1 9011   0.622   2.660  11.374
 2823SOL    HW2 9012   0.520   2.624  11.496
 2824SOL     OW 9013   1.281   2.207  12.116
 2824SOL    HW1 9014   1.195   2.157  12.103
 2824SOL    HW2 9015   1.343   2.153  12.172
 2825SOL     OW 9016   1.576   3.524  11.479
 2825SOL    HW1 9017   1.665   3.570  11.482
 2825SOL    HW2 9018   1.555   3.500  11.384
 2826SOL     OW 9019   0.807   2.467  12.637
 2826SOL    HW1 9020   0.760   2.464  12.726
 2826SOL    HW2 9021   0.756   2.412  12.571
 2827SOL     OW 9022   1.394   2.331  12.846
 2827SOL    HW1 9023   1.374   2.374  12.934
 2827SOL    HW2 9024   1.472   2.269  12.855
 2828SOL     OW 9025   0.973   2.752  12.744
 2828SOL    HW1 9026   1.019   2.668  12.715
 2828SOL    HW2 9027   0.917   2.786  12.669
 2829SOL     OW 9028   0.991   2.272  12.414
 2829SOL    HW1 9029   0.914   2.306  12.468
 2829SOL    HW2 9030   0.957   2.221  12.335
 2830SOL     OW 9031   1.041   2.563  11.601
 2830SOL    HW1 9032   1.067   2.559  11.697
 2830SOL    HW2 9033   0.956   2.512  11.587
 2831SOL     OW 9034   0.076   2.673  11.961
 2831SOL    HW1 9035   0.175   2.661  11.970
 2831SOL    HW2 9036   0.052   2.768  11.982
 2832SOL     OW 9037   0.130   3.683  12.743
 2832SOL    HW1 9038   0.120   3.668  12.842
 2832SOL    HW2 9039   0.044   3.719  12.707
 2833SOL     OW 9040   0.865   2.210  11.367
 2833SOL    HW1 9041   0.924   2.273  11.318
 2833SOL    HW2 9042   0.884   2.116  11.338
 2834SOL     OW 9043   1.719   2.447  13.003
 2834SOL    HW1 9044   1.693   2.536  12.967
 2834SOL    HW2 9045   1.717   2.379  12.930
 2835SOL     OW 9046   1.362   3.006  11.717
 2835SOL    HW1 9047   1.445   2.977  11.669
 2835SOL    HW2 9048   1.313   3.073  11.661
 2836SOL     OW 9049   0.550   2.058  12.057
 2836SOL    HW1 9050   0.545   2.053  12.157
 2836SOL    HW2 9051   0.552   2.154  12.028
 2837SOL     OW 9052   1.008   3.318  11.649
 2837SOL    HW1 9053   0.962   3.390  11.597
 2837SOL    HW2 9054   1.004   3.338  11.747
 2838SOL     OW 9055   0.351   3.663  12.025
 2838SOL    HW1 9056   0.401   3.577  12.031
 2838SOL    HW2 9057   0.416   3.740  12.022
 2839SOL     OW 9058   1.795   2.928  12.045
 2839SOL    HW1 9059   1.733   2.913  11.969
 2839SOL    HW2 9060   1.743   2.939  12.130
 2840SOL     OW 9061   1.227   3.412  12.678
 2840SOL    HW1 9062   1.233   3.335  12.742
 2840SOL    HW2 9063   1.175   3.386  12.598
 2841SOL     OW 9064   0.321   2.805  11.414
 2841SOL    HW1 9065   0.403   2.844  11.372
 2841SOL    HW2 9066   0.294   2.723  11.365
 2842SOL     OW 9067   1.458   2.597  11.900
 2842SOL    HW1 9068   1.453   2.532  11.975
 2842SOL    HW2 9069   1.538   2.656  11.913
 2843SOL     OW 9070   0.461   3.128  12.899
 2843SOL    HW1 9071   0.411   3.129  12.813
 2843SOL    HW2 9072   0.398   3.110  12.975
 2844SOL     OW 9073   1.111   3.638  11.409
 2844SOL    HW1 9074   1.051   3.576  11.459
 2844SOL    HW2 9075   1.142   3.594  11.324
 2845SOL     OW 9076   0.202   2.147  12.670
 2845SOL    HW1 9077   0.122   2.207  12.657
 2845SOL    HW2 9078   0.192   2.098  12.756
 2846SOL     OW 9079   1.632   3.239  11.253
 2846SOL    HW1 9080   1.600   3.333  11.243
 2846SOL    HW2 9081   1.556   3.176  11.241
 2847SOL     OW 9082   0.464   3.605  11.495
 2847SOL    HW1 9083   0.497   3.644  11.581
 2847SOL    HW2 9084   0.540   3.598  11.430
 2848SOL     OW 9085   1.400   1.969  11.598
 2848SOL    HW1 9086   1.376   1.932  11.508
 2848SOL    HW2 9087   1.499   1.985  11.602
 2849SOL     OW 9088   0.249   3.647  12.413
 2849SOL    HW1 9089   0.306   3.582  12.463
 2849SOL    HW2 9090   0.233   3.614  12.320
 2850SOL     OW 9091   0.940   3.560  12.076
 2850SOL    HW1 9092   1.020   3.503  12.097
 2850SOL    HW2 9093   0.891   3.520  11.999
 2851SOL     OW 9094   0.382   2.562  11.652
 2851SOL    HW1 9095   0.427   2.472  11.649
 2851SOL    HW2 9096   0.288   2.551  11.685
 2852SOL     OW 9097   1.547   2.084  12.901
 2852SOL    HW1 9098   1.542   2.121  12.993
 2852SOL    HW2 9099   1.475   2.015  12.889
 2853SOL     OW 9100   0.614   1.984  11.289
 2853SOL    HW1 9101   0.712   1.962  11.296
 2853SOL    HW2 9102   0.583   1.967  11.196
 2854SOL     OW 9103   0.781   2.126  12.921
 2854SOL    HW1 9104   0.848   2.065  12.964
 2854SOL    HW2 9105   0.708   2.145  12.986
 2855SOL     OW 9106   0.888   3.376  12.367
 2855SOL    HW1 9107   0.865   3.351  12.273
 2855SOL    HW2 9108   0.949   3.307  12.406
 2856SOL     OW 9109   1.351   2.452  12.605
 2856SOL    HW1 9110   1.379   2.409  12.690
 2856SOL    HW2 9111   1.376   2.548  12.606
 2857SOL     OW 9112   0.803   3.264  12.096
 2857SOL    HW1 9113   0.893   3.278  12.054
 2857SOL    HW2 9114   0.732   3.266  12.025
 2858SOL     OW 9115   0.922   2.365  12.071
 2858SOL    HW1 9116   0.897   2.356  11.975
 2858SOL    HW2 9117   0.970   2.283  12.102
 2859SOL     OW 9118   0.539   1.926  11.684
 2859SOL    HW1 9119   0.458   1.927  11.742
 2859SOL    HW2 9120   0.542   2.009  11.629
 2860SOL     OW 9121   1.434   3.050  11.213
 2860SOL    HW1 9122   1.466   2.974  11.270
 2860SOL    HW2 9123   1.342   3.077  11.243
 2861SOL     OW 9124   0.297   1.897  11.343
 2861SOL    HW1 9125   0.346   1.981  11.322
 2861SOL    HW2 9126   0.359   1.832  11.388
 2862SOL     OW 9127   0.935   2.098  11.652
 2862SOL    HW1 9128   0.887   2.139  11.574
 2862SOL    HW2 9129   1.034   2.096  11.633
 2863SOL     OW 9130   1.076   2.545  12.636
 2863SOL    HW1 9131   0.996   2.484  12.639
 2863SOL    HW2 9132   1.157   2.492  12.612
 2864SOL     OW 9133   1.227   3.432  11.965
 2864SOL    HW1 9134   1.248   3.506  11.900
 2864SOL    HW2 9135   1.295   3.432  12.038
 2865SOL     OW 9136   0.459   3.014  11.913
 2865SOL    HW1 9137   0.388   2.987  11.978
 2865SOL    HW2 9138   0.433   2.986  11.820
 2866SOL     OW 9139   1.271   3.659  11.763
 2866SOL    HW1 9140   1.315   3.723  11.699
 2866SOL    HW2 9141   1.221   3.711  11.833
 2867SOL     OW 9142   1.032   2.411  11.188
 2867SOL    HW1 9143   0.991   2.493  11.149
 2867SOL    HW2 9144   1.096   2.437  11.261
 2868SOL     OW 9145   0.078   2.418  12.558
 2868SOL    HW1 9146   0.170   2.417  12.517
 2868SOL    HW2 9147   0.072   2.492  12.625
 2869SOL     OW 9148   0.561   2.084  12.319
 2869SOL    HW1 9149   0.599   2.000  12.356
 2869SOL    HW2 9150   0.473   2.103  12.363
 2870SOL     OW 9151   0.866   2.316  11.814
 2870SOL    HW1 9152   0.834   2.388  11.752
 2870SOL    HW2 9153   0.890   2.235  11.761
 2871SOL     OW 9154   1.017   1.901  11.925
 2871SOL    HW1 9155   0.945   1.906  11.856
 2871SOL    HW2 9156   0.993   1.832  11.994
 2872SOL     OW 9157   1.429   3.035  12.039
 2872SOL    HW1 9158   1.374   2.951  12.032
 2872SOL    HW2 9159   1.455   3.064  11.947
 2873SOL     OW 9160   1.466   2.452  12.164
 2873SOL    HW1 9161   1.436   2.357  12.171
 2873SOL    HW2 9162   1.539   2.468  12.230
 2874SOL     OW 9163   1.857   2.695  11.549
 2874SOL    HW1 9164   1.899   2.631  11.613
 2874SOL    HW2 9165   1.819   2.644  11.471
 2875SOL     OW 9166   0.488   3.247  11.346
 2875SOL    HW1 9167   0.401   3.232  11.393
 2875SOL    HW2 9168   0.471   3.273  11.251
 2876SOL     OW 9169   1.664   3.142  11.829
 2876SOL    HW1 9170   1.763   3.150  11.843
 2876SOL    HW2 9171   1.619   3.226  11.860
 2877SOL     OW 9172   1.390   2.437  11.250
 2877SOL    HW1 9173   1.336   2.416  11.331
 2877SOL    HW2 9174   1.481   2.396  11.259
 2878SOL     OW 9175   0.527   2.118  11.500
 2878SOL    HW1 9176   0.554   2.059  11.425
 2878SOL    HW2 9177   0.527   2.213  11.469
 2879SOL     OW 9178   1.754   3.085  12.760
 2879SOL    HW1 9179   1.845   3.046  12.747
 2879SOL    HW2 9180   1.762   3.181  12.784
 2880SOL     OW 9181   1.064   3.209  12.512
 2880SOL    HW1 9182   0.984   3.186  12.567
 2880SOL    HW2 9183   1.147   3.183  12.561
 2881SOL     OW 9184   1.592   3.491  12.797
 2881SOL    HW1 9185   1.619   3.525  12.707
 2881SOL    HW2 9186   1.671   3.453  12.843
 2882SOL     OW 9187   1.111   3.057  12.272
 2882SOL    HW1 9188   1.071   3.101  12.353
 2882SOL    HW2 9189   1.070   3.094  12.189
 2883SOL     OW 9190   1.638   2.961  12.251
 2883SOL    HW1 9191   1.643   3.042  12.310
 2883SOL    HW2 9192   1.552   2.963  12.200
 2884SOL     OW 9193   0.915   1.951  12.574
 2884SOL    HW1 9194   0.940   1.931  12.479
 2884SOL    HW2 9195   0.987   2.007  12.616
 2885SOL     OW 9196   0.980   2.978  12.891
 2885SOL    HW1 9197   0.881   2.984  12.901
 2885SOL    HW2 9198   1.003   2.898  12.835
 2886SOL     OW 9199   0.705   2.912  11.540
 2886SOL    HW1 9200   0.691   2.919  11.639
 2886SOL    HW2 9201   0.789   2.861  11.522
 2887SOL     OW 9202   0.410   2.675  12.423
 2887SOL    HW1 9203   0.496   2.687  12.473
 2887SOL    HW2 9204   0.368   2.588  12.450
 2888SOL     OW 9205   1.274   2.248  12.434
 2888SOL    HW1 9206   1.295   2.322  12.498
 2888SOL    HW2 9207   1.185   2.265  12.391
 2889SOL     OW 9208   0.064   3.426  12.503
 2889SOL    HW1 9209   0.018   3.508  12.469
 2889SOL    HW2 9210   0.162   3.445  12.512
 2890SOL     OW 9211   0.367   2.962  11.673
 2890SOL    HW1 9212   0.360   3.045  11.617
 2890SOL    HW2 9213   0.371   2.882  11.613
 2891SOL     OW 9214   0.566   2.399  12.037
 2891SOL    HW1 9215   0.578   2.465  11.963
 2891SOL    HW2 9216   0.612   2.433  12.120
 2892SOL     OW 9217   1.252   3.210  11.560
 2892SOL    HW1 9218   1.302   3.287  11.600
 2892SOL    HW2 9219   1.157   3.212  11.592
 2893SOL     OW 9220   1.272   3.307  12.314
 2893SOL    HW1 9221   1.319   3.320  12.401
 2893SOL    HW2 9222   1.206   3.233  12.323
 2894SOL     OW 9223   1.582   2.501  11.644
 2894SOL    HW1 9224   1.551   2.562  11.717
 2894SOL    HW2 9225   1.632   2.553  11.575
 2895SOL     OW 9226   0.354   3.372  12.501
 2895SOL    HW1 9227   0.333   3.328  12.414
 2895SOL    HW2 9228   0.451   3.398  12.504
 2896SOL     OW 9229   0.402   2.613  12.770
 2896SOL    HW1 9230   0.470   2.668  12.723
 2896SOL    HW2 9231   0.442   2.525  12.797
 2897SOL     OW 9232   1.587   2.641  12.842
 2897SOL    HW1 9233   1.495   2.679  12.837
 2897SOL    HW2 9234   1.647   2.688  12.777
 2898SOL     OW 9235   1.013   1.967  12.942
 2898SOL    HW1 9236   1.019   2.052  12.890
 2898SOL    HW2 9237   1.045   1.891  12.885
 2899SOL     OW 9238   0.504   1.912  12.912
 2899SOL    HW1 9239   0.462   1.855  12.842
 2899SOL    HW2 9240   0.438   1.981  12.944
 2900SOL     OW 9241   0.573   2.732  12.201
 2900SOL    HW1 9242   0.617   2.821  12.192
 2900SOL    HW2 9243   0.510   2.732  12.278
 2901SOL     OW 9244   1.360   2.724  12.217
 2901SOL    HW1 9245   1.285   2.724  12.151
 2901SOL    HW2 9246   1.397   2.632  12.226
 2902SOL     OW 9247   1.209   2.387  11.447
 2902SOL    HW1 9248   1.222   2.303  11.501
 2902SOL    HW2 9249   1.180   2.461  11.507
 2903SOL     OW 9250   0.307   2.075  12.403
 2903SOL    HW1 9251   0.284   2.112  12.493
 2903SOL    HW2 9252   0.277   1.980  12.397
 2904SOL     OW 9253   0.037   3.172  12.454
 2904SOL    HW1 9254   0.090   3.123  12.522
 2904SOL    HW2 9255   0.059   3.270  12.459
 2905SOL     OW 9256   0.732   2.496  12.236
 2905SOL    HW1 9257   0.791   2.470  12.160
 2905SOL    HW2 9258   0.704   2.592  12.225
 2906SOL     OW 9259   1.728   2.797  13.026
 2906SOL    HW1 9260   1.682   2.790  12.937
 2906SOL    HW2 9261   1.666   2.841  13.092
 2907SOL     OW 9262   0.307   1.925  11.790
 2907SOL    HW1 9263   0.296   2.019  11.823
 2907SOL    HW2 9264   0.302   1.862  11.867
 2908SOL     OW 9265   1.622   2.229  11.546
 2908SOL    HW1 9266   1.624   2.153  11.610
 2908SOL    HW2 9267   1.574   2.306  11.586
 2909SOL     OW 9268   1.023   2.628  12.138
 2909SOL    HW1 9269   1.038   2.649  12.234
 2909SOL    HW2 9270   0.993   2.533  12.129
 2910SOL     OW 9271   0.980   3.435  12.872
 2910SOL    HW1 9272   0.960   3.479  12.784
 2910SOL    HW2 9273   1.019   3.344  12.856
 2911SOL     OW 9274   1.859   3.380  12.777
 2911SOL    HW1 9275   1.873   3.407  12.682
 2911SOL    HW2 9276   1.942   3.402  12.830
 2912SOL     OW 9277   0.350   2.760  12.976
 2912SOL    HW1 9278   0.426   2.804  13.024
 2912SOL    HW2 9279   0.385   2.713  12.894
 2913SOL     OW 9280   1.540   2.136  11.297
 2913SOL    HW1 9281   1.479   2.061  11.320
 2913SOL    HW2 9282   1.562   2.188  11.380
 2914SOL     OW 9283   1.303   2.700  11.214
 2914SOL    HW1 9284   1.337   2.607  11.229
 2914SOL    HW2 9285   1.321   2.727  11.119
 2915SOL     OW 9286   1.068   3.195  12.021
 2915SOL    HW1 9287   1.075   3.111  11.966
 2915SOL    HW2 9288   1.130   3.264  11.985
 2916SOL     OW 9289   0.319   2.672  12.121
 2916SOL    HW1 9290   0.412   2.708  12.126
 2916SOL    HW2 9291   0.313   2.587  12.173
 2917SOL     OW 9292   0.339   2.371  12.178
 2917SOL    HW1 9293   0.287   2.288  12.161
 2917SOL    HW2 9294   0.416   2.376  12.114
 2918SOL     OW 9295   1.138   2.242  12.850
 2918SOL    HW1 9296   1.093   2.305  12.914
 2918SOL    HW2 9297   1.231   2.273  12.833
 2919SOL     OW 9298   1.160   2.069  12.649
 2919SOL    HW1 9299   1.160   2.133  12.726
 2919SOL    HW2 9300   1.188   2.117  12.566
 2920SOL     OW 9301   0.008   3.188  11.372
 2920SOL    HW1 9302  -0.085   3.209  11.341
 2920SOL    HW2 9303   0.018   3.089  11.385
 2921SOL     OW 9304   0.088   3.663  12.099
 2921SOL    HW1 9305   0.046   3.577  12.072
 2921SOL    HW2 9306   0.182   3.666  12.065
 2922SOL     OW 9307   0.504   3.430  12.082
 2922SOL    HW1 9308   0.570   3.504  12.091
 2922SOL    HW2 9309   0.548   3.351  12.040
 2923SOL     OW 9310   1.002   2.658  12.410
 2923SOL    HW1 9311   1.043   2.626  12.496
 2923SOL    HW2 9312   0.906   2.631  12.407
 2924SOL     OW 9313   0.040   2.406  12.286
 2924SOL    HW1 9314   0.125   2.373  12.245
 2924SOL    HW2 9315   0.053   2.421  12.384
 2925SOL     OW 9316   0.189   2.382  12.894
 2925SOL    HW1 9317   0.248   2.342  12.824
 2925SOL    HW2 9318   0.131   2.453  12.853
 2926SOL     OW 9319   1.369   2.812  12.832
 2926SOL    HW1 9320   1.408   2.901  12.852
 2926SOL    HW2 9321   1.379   2.792  12.735
 2927SOL     OW 9322   0.815   2.434  11.497
 2927SOL    HW1 9323   0.822   2.345  11.451
 2927SOL    HW2 9324   0.721   2.468  11.489
 2928SOL     OW 9325   1.657   2.466  12.378
 2928SOL    HW1 9326   1.619   2.397  12.440
 2928SOL    HW2 9327   1.739   2.430  12.334
 2929SOL     OW 9328   0.252   3.426  12.916
 2929SOL    HW1 9329   0.222   3.483  12.992
 2929SOL    HW2 9330   0.245   3.329  12.942
 2930SOL     OW 9331   0.671   2.326  12.441
 2930SOL    HW1 9332   0.637   2.237  12.411
 2930SOL    HW2 9333   0.697   2.380  12.361
 2931SOL     OW 9334   0.930   3.540  12.637
 2931SOL    HW1 9335   0.906   3.522  12.542
 2931SOL    HW2 9336   0.960   3.634  12.647
 2932SOL     OW 9337   0.473   2.362  11.363
 2932SOL    HW1 9338   0.534   2.442  11.367
 2932SOL    HW2 9339   0.378   2.393  11.370
 2933SOL     OW 9340   0.159   2.999  12.638
 2933SOL    HW1 9341   0.181   2.938  12.714
 2933SOL    HW2 9342   0.169   2.950  12.552
 2934SOL     OW 9343   1.347   2.921  12.406
 2934SOL    HW1 9344   1.371   2.858  12.332
 2934SOL    HW2 9345   1.257   2.961  12.388
 2935SOL     OW 9346   1.302   2.717  11.481
 2935SOL    HW1 9347   1.216   2.686  11.523
 2935SOL    HW2 9348   1.298   2.703  11.382
 2936SOL     OW 9349   1.759   3.609  12.326
 2936SOL    HW1 9350   1.820   3.639  12.253
 2936SOL    HW2 9351   1.721   3.520  12.304
 2937SOL     OW 9352   1.252   3.593  12.300
 2937SOL    HW1 9353   1.336   3.598  12.246
 2937SOL    HW2 9354   1.229   3.497  12.318
 2938SOL     OW 9355   0.083   3.120  12.194
 2938SOL    HW1 9356   0.078   3.119  12.294
 2938SOL    HW2 9357   0.000   3.079  12.156
 2939SOL     OW 9358   0.688   3.524  12.888
 2939SOL    HW1 9359   0.632   3.605  12.897
 2939SOL    HW2 9360   0.740   3.528  12.802
 2940SOL     OW 9361   1.388   3.435  11.649
 2940SOL    HW1 9362   1.455   3.447  11.575
 2940SOL    HW2 9363   1.348   3.524  11.672
 2941SOL     OW 9364   0.130   3.656  13.023
 2941SOL    HW1 9365   0.089   3.582  13.076
 2941SOL    HW2 9366   0.194   3.707  13.081
 2942SOL     OW 9367   1.280   2.789  11.844
 2942SOL    HW1 9368   1.340   2.708  11.846
 2942SOL    HW2 9369   1.320   2.858  11.784
 2943SOL     OW 9370   0.830   3.135  12.594
 2943SOL    HW1 9371   0.825   3.168  12.689
 2943SOL    HW2 9372   0.744   3.154  12.548
 2944SOL     OW 9373   0.672   3.478  11.326
 2944SOL    HW1 9374   0.681   3.488  11.227
 2944SOL    HW2 9375   0.632   3.389  11.347
 2945SOL     OW 9376   1.650   3.582  12.566
 2945SOL    HW1 9377   1.703   3.592  12.482
 2945SOL    HW2 9378   1.623   3.672  12.600
 2946SOL     OW 9379   0.263   2.188  11.892
 2946SOL    HW1 9380   0.184   2.239  11.858
 2946SOL    HW2 9381   0.254   2.173  11.990
 2947SOL     OW 9382   1.194   3.474  11.203
 2947SOL    HW1 9383   1.200   3.381  11.240
 2947SOL    HW2 9384   1.135   3.474  11.123
 2948SOL     OW 9385   0.822   2.864  12.544
 2948SOL    HW1 9386   0.862   2.863  12.452
 2948SOL    HW2 9387   0.832   2.956  12.584
 2949SOL     OW 9388   0.916   2.772  11.463
 2949SOL    HW1 9389   0.979   2.810  11.395
 2949SOL    HW2 9390   0.956   2.689  11.502
 2950SOL     OW 9391   1.504   3.469  11.216
 2950SOL    HW1 9392   1.412   3.506  11.223
 2950SOL    HW2 9393   1.542   3.489  11.126
 2951SOL     OW 9394   0.372   3.150  12.662
 2951SOL    HW1 9395   0.359   3.243  12.628
 2951SOL    HW2 9396   0.288   3.098  12.649
 2952SOL     OW 9397   1.614   3.154  12.461
 2952SOL    HW1 9398   1.674   3.157  12.541
 2952SOL    HW2 9399   1.539   3.218  12.474
 2953SOL     OW 9400   1.039   2.960  11.868
 2953SOL    HW1 9401   0.969   2.913  11.922
 2953SOL    HW2 9402   1.098   2.892  11.825
 2954SOL     OW 9403   1.014   2.098  12.143
 2954SOL    HW1 9404   1.006   2.062  12.050
 2954SOL    HW2 9405   1.012   2.022  12.208
 2955SOL     OW 9406   0.590   3.349  11.663
 2955SOL    HW1 9407   0.632   3.291  11.593
 2955SOL    HW2 9408   0.546   3.428  11.619
 2956SOL     OW 9409   1.709   2.247  12.553
 2956SOL    HW1 9410   1.782   2.316  12.557
 2956SOL    HW2 9411   1.737   2.172  12.494
 2957SOL     OW 9412   0.255   3.210  11.462
 2957SOL    HW1 9413   0.159   3.211  11.435
 2957SOL    HW2 9414   0.267   3.263  11.546
 2958SOL     OW 9415   0.105   2.875  12.898
 2958SOL    HW1 9416   0.028   2.842  12.952
 2958SOL    HW2 9417   0.190   2.845  12.940
 2959SOL     OW 9418   0.672   2.065  12.661
 2959SOL    HW1 9419   0.762   2.049  12.621
 2959SOL    HW2 9420   0.680   2.070  12.760
 2960SOL     OW 9421   0.075   2.207  11.205
 2960SOL    HW1 9422  -0.017   2.179  11.176
 2960SOL    HW2 9423   0.106   2.284  11.149
 2961SOL     OW 9424   1.440   2.718  12.570
 2961SOL    HW1 9425   1.383   2.770  12.507
 2961SOL    HW2 9426   1.536   2.730  12.546
 2962SOL     OW 9427   0.072   2.028  11.490
 2962SOL    HW1 9428   0.055   2.111  11.436
 2962SOL    HW2 9429   0.162   1.991  11.468
 2963SOL     OW 9430   1.183   3.197  11.291
 2963SOL    HW1 9431   1.084   3.186  11.293
 2963SOL    HW2 9432   1.217   3.212  11.384
 2964SOL     OW 9433   0.613   2.704  12.603
 2964SOL    HW1 9434   0.669   2.785  12.586
 2964SOL    HW2 9435   0.672   2.624  12.606
 2965SOL     OW 9436   1.493   3.629  12.131
 2965SOL    HW1 9437   1.526   3.693  12.062
 2965SOL    HW2 9438   1.559   3.623  12.206
 2966SOL     OW 9439   0.716   2.427  12.880
 2966SOL    HW1 9440   0.735   2.492  12.954
 2966SOL    HW2 9441   0.776   2.347  12.889
 2967SOL     OW 9442   1.450   3.082  12.805
 2967SOL    HW1 9443   1.441   3.072  12.904
 2967SOL    HW2 9444   1.546   3.075  12.779
 2968SOL     OW 9445   0.390   3.603  12.732
 2968SOL    HW1 9446   0.299   3.644  12.730
 2968SOL    HW2 9447   0.383   3.509  12.764
 2969SOL     OW 9448   1.674   2.745  12.426
 2969SOL    HW1 9449   1.647   2.656  12.389
 2969SOL    HW2 9450   1.675   2.813  12.353
 2970SOL     OW 9451   1.225   2.187  11.621
 2970SOL    HW1 9452   1.290   2.113  11.610
 2970SOL    HW2 9453   1.245   2.237  11.705
 2971SOL     OW 9454   0.594   2.607  11.824
 2971SOL    HW1 9455   0.644   2.692  11.805
 2971SOL    HW2 9456   0.506   2.609  11.776
 2972SOL     OW 9457   1.777   2.204  12.814
 2972SOL    HW1 9458   1.760   2.235  12.720
 2972SOL    HW2 9459   1.693   2.167  12.852
 2973SOL     OW 9460   1.730   2.796  12.689
 2973SOL    HW1 9461   1.768   2.887  12.704
 2973SOL    HW2 9462   1.722   2.779  12.590
 2974SOL     OW 9463   0.859   3.236  11.188
 2974SOL    HW1 9464   0.813   3.251  11.276
 2974SOL    HW2 9465   0.903   3.321  11.158
 2975SOL     OW 9466   0.661   3.652  12.125
 2975SOL    HW1 9467   0.615   3.740  12.112
 2975SOL    HW2 9468   0.760   3.664  12.118
 2976SOL     OW 9469   0.859   2.818  12.033
 2976SOL    HW1 9470   0.913   2.749  12.081
 2976SOL    HW2 9471   0.827   2.887  12.099
 2977SOL     OW 9472   1.083   2.846  11.259
 2977SOL    HW1 9473   1.060   2.899  11.177
 2977SOL    HW2 9474   1.164   2.790  11.240
 2978SOL     OW 9475   1.861   3.431  12.023
 2978SOL    HW1 9476   1.790   3.419  11.953
 2978SOL    HW2 9477   1.862   3.352  12.083
 2979SOL     OW 9478   0.221   3.176  13.016
 2979SOL    HW1 9479   0.156   3.103  12.995
 2979SOL    HW2 9480   0.225   3.190  13.114
 2980SOL     OW 9481   0.079   3.102  11.825
 2980SOL    HW1 9482   0.078   3.055  11.913
 2980SOL    HW2 9483   0.161   3.074  11.774
 2981SOL     OW 9484   0.672   3.253  12.796
 2981SOL    HW1 9485   0.594   3.203  12.834
 2981SOL    HW2 9486   0.669   3.348  12.827
 2982SOL     OW 9487   0.428   2.286  11.692
 2982SOL    HW1 9488   0.458   2.214  11.630
 2982SOL    HW2 9489   0.389   2.246  11.775
 2983SOL     OW 9490   1.705   3.349  12.276
 2983SOL    HW1 9491   1.612   3.324  12.249
 2983SOL    HW2 9492   1.731   3.299  12.358
 2984SOL     OW 9493   0.317   2.409  12.452
 2984SOL    HW1 9494   0.355   2.350  12.524
 2984SOL    HW2 9495   0.357   2.383  12.364
 2985SOL     OW 9496   0.812   3.448  11.859
 2985SOL    HW1 9497   0.844   3.458  11.765
 2985SOL    HW2 9498   0.733   3.386  11.861
 2986SOL     OW 9499   1.424   2.076  12.284
 2986SOL    HW1 9500   1.476   2.011  12.339
 2986SOL    HW2 9501   1.375   2.139  12.345
 2987SOL     OW 9502   1.001   1.896  12.326
 2987SOL    HW1 9503   0.938   1.824  12.295
 2987SOL    HW2 9504   1.094   1.860  12.326
 2988SOL     OW 9505   0.770   3.192  11.473
 2988SOL    HW1 9506   0.724   3.105  11.490
 2988SOL    HW2 9507   0.861   3.189  11.514
 2989SOL     OW 9508   0.618   3.429  12.456
 2989SOL    HW1 9509   0.613   3.511  12.513
 2989SOL    HW2 9510   0.707   3.426  12.411
 2990SOL     OW 9511   1.352   1.914  11.340
 2990SOL    HW1 9512   1.387   1.873  11.256
 2990SOL    HW2 9513   1.262   1.876  11.360
 2991SOL     OW 9514   1.300   2.315  11.863
 2991SOL    HW1 9515   1.241   2.395  11.867
 2991SOL    HW2 9516   1.315   2.280  11.956
 2992SOL     OW 9517   1.593   2.083  12.054
 2992SOL    HW1 9518   1.509   2.082  12.108
 2992SOL    HW2 9519   1.595   2.166  11.998
 2993SOL     OW 9520   0.039   2.939  11.472
 2993SOL    HW1 9521   0.138   2.928  11.463
 2993SOL    HW2 9522  -0.001   2.853  11.504
 2994SOL     OW 9523   0.875   3.508  11.509
 2994SOL    HW1 9524   0.798   3.473  11.455
 2994SOL    HW2 9525   0.843   3.579  11.571
 2995SOL     OW 9526   0.230   2.490  13.147
 2995SOL    HW1 9527   0.137   2.488  13.184
 2995SOL    HW2 9528   0.231   2.451  13.055
 2996SOL     OW 9529   0.225   2.137  14.030
 2996SOL    HW1 9530   0.260   2.120  14.122
 2996SOL    HW2 9531   0.137   2.092  14.018
 2997SOL     OW 9532   0.019   2.230  13.681
 2997SOL    HW1 9533  -0.063   2.273  13.720
 2997SOL    HW2 9534  -0.009   2.157  13.618
 2998SOL     OW 9535   1.555   3.373  13.737
 2998SOL    HW1 9536   1.498   3.357  13.818
 2998SOL    HW2 9537   1.496   3.383  13.657
 2999SOL     OW 9538   1.135   2.565  13.751
 2999SOL    HW1 9539   1.192   2.643  13.726
 2999SOL    HW2 9540   1.075   2.591  13.827
 3000SOL     OW 9541   1.755   2.469  13.265
 3000SOL    HW1 9542   1.743   2.456  13.166
 3000SOL    HW2 9543   1.725   2.388  13.314
 3001SOL     OW 9544   0.685   2.874  13.699
 3001SOL    HW1 9545   0.754   2.858  13.769
 3001SOL    HW2 9546   0.612   2.931  13.737
 3002SOL     OW 9547   1.603   2.309  13.771
 3002SOL    HW1 9548   1.529   2.355  13.721
 3002SOL    HW2 9549   1.654   2.377  13.824
 3003SOL     OW 9550   0.231   3.575  13.517
 3003SOL    HW1 9551   0.265   3.652  13.571
 3003SOL    HW2 9552   0.275   3.575  13.427
 3004SOL     OW 9553   0.230   3.296  13.572
 3004SOL    HW1 9554   0.204   3.392  13.572
 3004SOL    HW2 9555   0.159   3.242  13.617
 3005SOL     OW 9556   0.240   2.953  13.920
 3005SOL    HW1 9557   0.254   2.869  13.972
 3005SOL    HW2 9558   0.185   3.017  13.975
 3006SOL     OW 9559   0.606   2.826  13.157
 3006SOL    HW1 9560   0.613   2.910  13.103
 3006SOL    HW2 9561   0.652   2.839  13.245
 3007SOL     OW 9562   0.122   2.505  13.597
 3007SOL    HW1 9563   0.077   2.417  13.614
 3007SOL    HW2 9564   0.121   2.559  13.681
 3008SOL     OW 9565   1.842   3.629  13.393
 3008SOL    HW1 9566   1.896   3.600  13.473
 3008SOL    HW2 9567   1.872   3.719  13.364
 3009SOL     OW 9568   0.027   3.458  13.151
 3009SOL    HW1 9569   0.008   3.362  13.172
 3009SOL    HW2 9570  -0.006   3.516  13.226
 3010SOL     OW 9571   1.689   2.784  13.646
 3010SOL    HW1 9572   1.784   2.755  13.654
 3010SOL    HW2 9573   1.681   2.849  13.571
 3011SOL     OW 9574   1.641   2.970  13.466
 3011SOL    HW1 9575   1.727   2.972  13.414
 3011SOL    HW2 9576   1.655   3.017  13.554
 3012SOL     OW 9577   0.613   3.227  13.760
 3012SOL    HW1 9578   0.564   3.140  13.769
 3012SOL    HW2 9579   0.590   3.270  13.673
 3013SOL     OW 9580   0.809   1.866  13.536
 3013SOL    HW1 9581   0.849   1.957  13.527
 3013SOL    HW2 9582   0.709   1.874  13.542
 3014SOL     OW 9583   1.525   2.861  13.224
 3014SOL    HW1 9584   1.462   2.785  13.237
 3014SOL    HW2 9585   1.573   2.879  13.310
 3015SOL     OW 9586   1.667   3.576  13.606
 3015SOL    HW1 9587   1.626   3.553  13.518
 3015SOL    HW2 9588   1.649   3.502  13.671
 3016SOL     OW 9589   0.598   2.591  13.304
 3016SOL    HW1 9590   0.622   2.660  13.236
 3016SOL    HW2 9591   0.520   2.624  13.358
 3017SOL     OW 9592   1.281   2.207  13.978
 3017SOL    HW1 9593   1.195   2.157  13.965
 3017SOL    HW2 9594   1.343   2.153  14.034
 3018SOL     OW 9595   1.576   3.524  13.341
 3018SOL    HW1 9596   1.665   3.570  13.344
 3018SOL    HW2 9597   1.555   3.500  13.246
 3019SOL     OW 9598   1.041   2.563  13.463
 3019SOL    HW1 9599   1.067   2.559  13.559
 3019SOL    HW2 9600   0.956   2.512  13.449
 3020SOL     OW 9601   0.076   2.673  13.823
 3020SOL    HW1 9602   0.175   2.661  13.832
 3020SOL    HW2 9603   0.052   2.768  13.844
 3021SOL     OW 9604   0.865   2.210  13.229
 3021SOL    HW1 9605   0.924   2.273  13.180
 3021SOL    HW2 9606   0.884   2.116  13.200
 3022SOL     OW 9607   1.362   3.006  13.579
 3022SOL    HW1 9608   1.445   2.977  13.531
 3022SOL    HW2 9609   1.313   3.073  13.523
 3023SOL     OW 9610   1.008   3.318  13.511
 3023SOL    HW1 9611   0.962   3.390  13.459
 3023SOL    HW2 9612   1.004   3.338  13.609
 3024SOL     OW 9613   0.351   3.663  13.887
 3024SOL    HW1 9614   0.401   3.577  13.893
 3024SOL    HW2 9615   0.416   3.740  13.884
 3025SOL     OW 9616   1.795   2.928  13.907
 3025SOL    HW1 9617   1.733   2.913  13.831
 3025SOL    HW2 9618   1.743   2.939  13.992
 3026SOL     OW 9619   0.321   2.805  13.276
 3026SOL    HW1 9620   0.403   2.844  13.234
 3026SOL    HW2 9621   0.294   2.723  13.227
 3027SOL     OW 9622   1.458   2.597  13.762
 3027SOL    HW1 9623   1.453   2.532  13.837
 3027SOL    HW2 9624   1.538   2.656  13.775
 3028SOL     OW 9625   1.111   3.638  13.271
 3028SOL    HW1 9626   1.051   3.576  13.321
 3028SOL    HW2 9627   1.142   3.594  13.186
 3029SOL     OW 9628   1.632   3.239  13.115
 3029SOL    HW1 9629   1.600   3.333  13.105
 3029SOL    HW2 9630   1.556   3.176  13.103
 3030SOL     OW 9631   0.464   3.605  13.357
 3030SOL    HW1 9632   0.497   3.644  13.443
 3030SOL    HW2 9633   0.540   3.598  13.292
 3031SOL     OW 9634   1.400   1.969  13.460
 3031SOL    HW1 9635   1.376   1.932  13.370
 3031SOL    HW2 9636   1.499   1.985  13.464
 3032SOL     OW 9637   0.940   3.560  13.938
 3032SOL    HW1 9638   1.020   3.503  13.959
 3032SOL    HW2 9639   0.891   3.520  13.861
 3033SOL     OW 9640   0.382   2.562  13.514
 3033SOL    HW1 9641   0.427   2.472  13.511
 3033SOL    HW2 9642   0.288   2.551  13.547
 3034SOL     OW 9643   0.614   1.984  13.151
 3034SOL    HW1 9644   0.712   1.962  13.158
 3034SOL    HW2 9645   0.583   1.967  13.058
 3035SOL     OW 9646   0.539   1.926  13.546
 3035SOL    HW1 9647   0.458   1.927  13.604
 3035SOL    HW2 9648   0.542   2.009  13.491
 3036SOL     OW 9649   1.434   3.050  13.075
 3036SOL    HW1 9650   1.466   2.974  13.132
 3036SOL    HW2 9651   1.342   3.077  13.105
 3037SOL     OW 9652   0.297   1.897  13.205
 3037SOL    HW1 9653   0.346   1.981  13.184
 3037SOL    HW2 9654   0.359   1.832  13.250
 3038SOL     OW 9655   0.935   2.098  13.514
 3038SOL    HW1 9656   0.887   2.139  13.436
 3038SOL    HW2 9657   1.034   2.096  13.495
 3039SOL     OW 9658   0.459   3.014  13.775
 3039SOL    HW1 9659   0.388   2.987  13.840
 3039SOL    HW2 9660   0.433   2.986  13.682
 3040SOL     OW 9661   1.271   3.659  13.625
 3040SOL    HW1 9662   1.315   3.723  13.561
 3040SOL    HW2 9663   1.221   3.711  13.695
 3041SOL     OW 9664   1.032   2.411  13.050
 3041SOL    HW1 9665   0.991   2.493  13.011
 3041SOL    HW2 9666   1.096   2.437  13.123
 3042SOL     OW 9667   0.866   2.316  13.676
 3042SOL    HW1 9668   0.834   2.388  13.614
 3042SOL    HW2 9669   0.890   2.235  13.623
 3043SOL     OW 9670   1.017   1.901  13.787
 3043SOL    HW1 9671   0.945   1.906  13.718
 3043SOL    HW2 9672   0.993   1.832  13.856
 3044SOL     OW 9673   1.857   2.695  13.411
 3044SOL    HW1 9674   1.899   2.631  13.475
 3044SOL    HW2 9675   1.819   2.644  13.333
 3045SOL     OW 9676   0.488   3.247  13.208
 3045SOL    HW1 9677   0.401   3.232  13.255
 3045SOL    HW2 9678   0.471   3.273  13.113
 3046SOL     OW 9679   1.664   3.142  13.691
 3046SOL    HW1 9680   1.763   3.150  13.705
 3046SOL    HW2 9681   1.619   3.226  13.722
 3047SOL     OW 9682   1.390   2.437  13.112
 3047SOL    HW1 9683   1.336   2.416  13.193
 3047SOL    HW2 9684   1.481   2.396  13.121
 3048SOL     OW 9685   0.527   2.118  13.362
 3048SOL    HW1 9686   0.554   2.059  13.287
 3048SOL    HW2 9687   0.527   2.213  13.331
 3049SOL     OW 9688   0.705   2.912  13.402
 3049SOL    HW1 9689   0.691   2.919  13.501
 3049SOL    HW2 9690   0.789   2.861  13.384
 3050SOL     OW 9691   0.367   2.962  13.535
 3050SOL    HW1 9692   0.360   3.045  13.479
 3050SOL    HW2 9693   0.371   2.882  13.475
 3051SOL     OW 9694   0.566   2.399  13.899
 3051SOL    HW1 9695   0.578   2.465  13.825
 3051SOL    HW2 9696   0.612   2.433  13.982
 3052SOL     OW 9697   1.252   3.210  13.422
 3052SOL    HW1 9698   1.302   3.287  13.462
 3052SOL    HW2 9699   1.157   3.212  13.454
 3053SOL     OW 9700   1.582   2.501  13.506
 3053SOL    HW1 9701   1.551   2.562  13.579
 3053SOL    HW2 9702   1.632   2.553  13.437
 3054SOL     OW 9703   1.209   2.387  13.309
 3054SOL    HW1 9704   1.222   2.303  13.363
 3054SOL    HW2 9705   1.180   2.461  13.369
 3055SOL     OW 9706   0.307   1.925  13.652
 3055SOL    HW1 9707   0.296   2.019  13.685
 3055SOL    HW2 9708   0.302   1.862  13.729
 3056SOL     OW 9709   1.622   2.229  13.408
 3056SOL    HW1 9710   1.624   2.153  13.472
 3056SOL    HW2 9711   1.574   2.306  13.448
 3057SOL     OW 9712   1.540   2.136  13.159
 3057SOL    HW1 9713   1.479   2.061  13.182
 3057SOL    HW2 9714   1.562   2.188  13.242
 3058SOL     OW 9715   1.303   2.700  13.076
 3058SOL    HW1 9716   1.337   2.607  13.091
 3058SOL    HW2 9717   1.321   2.727  12.981
 3059SOL     OW 9718   0.008   3.188  13.234
 3059SOL    HW1 9719  -0.085   3.209  13.203
 3059SOL    HW2 9720   0.018   3.089  13.247
 3060SOL     OW 9721   0.815   2.434  13.359
 3060SOL    HW1 9722   0.822   2.345  13.313
 3060SOL    HW2 9723   0.721   2.468  13.351
 3061SOL     OW 9724   0.473   2.362  13.225
 3061SOL    HW1 9725   0.534   2.442  13.229
 3061SOL    HW2 9726   0.378   2.393  13.232
 3062SOL     OW 9727   1.302   2.717  13.343
 3062SOL    HW1 9728   1.216   2.686  13.385
 3062SOL    HW2 9729   1.298   2.703  13.244
 3063SOL     OW 9730   1.388   3.435  13.511
 3063SOL    HW1 9731   1.455   3.447  13.437
 3063SOL    HW2 9732   1.348   3.524  13.534
 3064SOL     OW 9733   1.280   2.789  13.706
 3064SOL    HW1 9734   1.340   2.708  13.708
 3064SOL    HW2 9735   1.320   2.858  13.646
 3065SOL     OW 9736   0.672   3.478  13.188
 3065SOL    HW1 9737   0.681   3.488  13.089
 3065SOL    HW2 9738   0.632   3.389  13.209
 3066SOL     OW 9739   0.263   2.188  13.754
 3066SOL    HW1 9740   0.184   2.239  13.720
 3066SOL    HW2 9741   0.254   2.173  13.852
 3067SOL     OW 9742   1.194   3.474  13.065
 3067SOL    HW1 9743   1.200   3.381  13.102
 3067SOL    HW2 9744   1.135   3.474  12.985
 3068SOL     OW 9745   0.916   2.772  13.325
 3068SOL    HW1 9746   0.979   2.810  13.257
 3068SOL    HW2 9747   0.956   2.689  13.364
 3069SOL     OW 9748   1.504   3.469  13.078
 3069SOL    HW1 9749   1.412   3.506  13.085
 3069SOL    HW2 9750   1.542   3.489  12.988
 3070SOL     OW 9751   1.039   2.960  13.730
 3070SOL    HW1 9752   0.969   2.913  13.784
 3070SOL    HW2 9753   1.098   2.892  13.687
 3071SOL     OW 9754   0.590   3.349  13.525
 3071SOL    HW1 9755   0.632   3.291  13.455
 3071SOL    HW2 9756   0.546   3.428  13.481
 3072SOL     OW 9757   0.255   3.210  13.324
 3072SOL    HW1 9758   0.159   3.211  13.297
 3072SOL    HW2 9759   0.267   3.263  13.408
 3073SOL     OW 9760   0.075   2.207  13.067
 3073SOL    HW1 9761  -0.017   2.179  13.038
 3073SOL    HW2 9762   0.106   2.284  13.011
 3074SOL     OW 9763   0.072   2.028  13.352
 3074SOL    HW1 9764   0.055   2.111  13.298
 3074SOL    HW2 9765   0.162   1.991  13.330
 3075SOL     OW 9766   1.183   3.197  13.153
 3075SOL    HW1 9767   1.084   3.186  13.155
 3075SOL    HW2 9768   1.217   3.212  13.246
 3076SOL     OW 9769   1.225   2.187  13.483
 3076SOL    HW1 9770   1.290   2.113  13.472
 3076SOL    HW2 9771   1.245   2.237  13.567
 3077SOL     OW 9772   0.594   2.607  13.686
 3077SOL    HW1 9773   0.644   2.692  13.667
 3077SOL    HW2 9774   0.506   2.609  13.638
 3078SOL     OW 9775   0.859   3.236  13.050
 3078SOL    HW1 9776   0.813   3.251  13.138
 3078SOL    HW2 9777   0.903   3.321  13.020
 3079SOL     OW 9778   0.661   3.652  13.987
 3079SOL    HW1 9779   0.615   3.740  13.974
 3079SOL    HW2 9780   0.760   3.664  13.980
 3080SOL     OW 9781   0.859   2.818  13.895
 3080SOL    HW1 9782   0.913   2.749  13.943
 3080SOL    HW2 9783   0.827   2.887  13.961
 3081SOL     OW 9784   1.083   2.846  13.121
 3081SOL    HW1 9785   1.060   2.899  13.039
 3081SOL    HW2 9786   1.164   2.790  13.102
 3082SOL     OW 9787   0.079   3.102  13.687
 3082SOL    HW1 9788   0.078   3.055  13.775
 3082SOL    HW2 9789   0.161   3.074  13.636
 3083SOL     OW 9790   0.428   2.286  13.554
 3083SOL    HW1 9791   0.458   2.214  13.492
 3083SOL    HW2 9792   0.389   2.246  13.637
 3084SOL     OW 9793   1.705   3.349  14.138
 3084SOL    HW1 9794   1.612   3.324  14.111
 3084SOL    HW2 9795   1.731   3.299  14.220
 3085SOL     OW 9796   0.812   3.448  13.721
 3085SOL    HW1 9797   0.844   3.458  13.627
 3085SOL    HW2 9798   0.733   3.386  13.723
 3086SOL     OW 9799   0.770   3.192  13.335
 3086SOL    HW1 9800   0.724   3.105  13.352
 3086SOL    HW2 9801   0.861   3.189  13.376
 3087SOL     OW 9802   1.352   1.914  13.202
 3087SOL    HW1 9803   1.387   1.873  13.118
 3087SOL    HW2 9804   1.262   1.876  13.222
 3088SOL     OW 9805   1.300   2.315  13.725
 3088SOL    HW1 9806   1.241   2.395  13.729
 3088SOL    HW2 9807   1.315   2.280  13.818
 3089SOL     OW 9808   0.039   2.939  13.334
 3089SOL    HW1 9809   0.138   2.928  13.325
 3089SOL    HW2 9810  -0.001   2.853  13.366
 3090SOL     OW 9811   0.875   3.508  13.371
 3090SOL    HW1 9812   0.798   3.473  13.317
 3090SOL    HW2 9813   0.843   3.579  13.433
 3091SOL     OW 9814   0.225   3.999   0.996
 3091SOL    HW1 9815   0.260   3.982   1.088
 3091SOL    HW2 9816   0.137   3.954   0.984
 3092SOL     OW 9817   0.019   4.092   0.647
 3092SOL    HW1 9818  -0.063   4.135   0.686
 3092SOL    HW2 9819  -0.009   4.019   0.584
 3093SOL     OW 9820   1.755   4.331   0.231
 3093SOL    HW1 9821   1.743   4.318   0.132
 3093SOL    HW2 9822   1.725   4.250   0.280
 3094SOL     OW 9823   0.438   4.116   1.499
 3094SOL    HW1 9824   0.520   4.060   1.508
 3094SOL    HW2 9825   0.357   4.058   1.503
 3095SOL     OW 9826   1.594   3.838   1.480
 3095SOL    HW1 9827   1.576   3.905   1.408
 3095SOL    HW2 9828   1.591   3.884   1.569
 3096SOL     OW 9829   0.809   3.728   0.502
 3096SOL    HW1 9830   0.849   3.819   0.493
 3096SOL    HW2 9831   0.709   3.736   0.508
 3097SOL     OW 9832   1.281   4.069   0.944
 3097SOL    HW1 9833   1.195   4.019   0.931
 3097SOL    HW2 9834   1.343   4.015   1.000
 3098SOL     OW 9835   0.550   3.920   0.885
 3098SOL    HW1 9836   0.545   3.915   0.985
 3098SOL    HW2 9837   0.552   4.016   0.856
 3099SOL     OW 9838   0.202   4.009   1.498
 3099SOL    HW1 9839   0.122   4.069   1.485
 3099SOL    HW2 9840   0.192   3.960   1.584
 3100SOL     OW 9841   1.400   3.831   0.426
 3100SOL    HW1 9842   1.376   3.794   0.336
 3100SOL    HW2 9843   1.499   3.847   0.430
 3101SOL     OW 9844   1.547   3.946   1.729
 3101SOL    HW1 9845   1.542   3.983   1.821
 3101SOL    HW2 9846   1.475   3.877   1.717
 3102SOL     OW 9847   0.781   3.988   1.749
 3102SOL    HW1 9848   0.848   3.927   1.792
 3102SOL    HW2 9849   0.708   4.007   1.814
 3103SOL     OW 9850   0.539   3.788   0.512
 3103SOL    HW1 9851   0.458   3.789   0.570
 3103SOL    HW2 9852   0.542   3.871   0.457
 3104SOL     OW 9853   0.297   3.759   0.171
 3104SOL    HW1 9854   0.346   3.843   0.150
 3104SOL    HW2 9855   0.359   3.694   0.216
 3105SOL     OW 9856   0.561   3.946   1.147
 3105SOL    HW1 9857   0.599   3.862   1.184
 3105SOL    HW2 9858   0.473   3.965   1.191
 3106SOL     OW 9859   1.017   3.763   0.753
 3106SOL    HW1 9860   0.945   3.768   0.684
 3106SOL    HW2 9861   0.993   3.694   0.822
 3107SOL     OW 9862   0.915   3.813   1.402
 3107SOL    HW1 9863   0.940   3.793   1.307
 3107SOL    HW2 9864   0.987   3.869   1.444
 3108SOL     OW 9865   1.274   4.110   1.262
 3108SOL    HW1 9866   1.295   4.184   1.326
 3108SOL    HW2 9867   1.185   4.127   1.219
 3109SOL     OW 9868   0.504   3.774   1.740
 3109SOL    HW1 9869   0.462   3.717   1.670
 3109SOL    HW2 9870   0.438   3.843   1.772
 3110SOL     OW 9871   0.307   3.937   1.231
 3110SOL    HW1 9872   0.284   3.974   1.321
 3110SOL    HW2 9873   0.277   3.842   1.225
 3111SOL     OW 9874   1.540   3.998   0.125
 3111SOL    HW1 9875   1.479   3.923   0.148
 3111SOL    HW2 9876   1.562   4.050   0.208
 3112SOL     OW 9877   1.160   3.931   1.477
 3112SOL    HW1 9878   1.160   3.995   1.554
 3112SOL    HW2 9879   1.188   3.979   1.394
 3113SOL     OW 9880   0.903   3.810   0.133
 3113SOL    HW1 9881   0.954   3.811   0.047
 3113SOL    HW2 9882   0.959   3.768   0.204
 3114SOL     OW 9883   1.726   3.859   0.523
 3114SOL    HW1 9884   1.799   3.842   0.456
 3114SOL    HW2 9885   1.695   3.772   0.561
 3115SOL     OW 9886   1.841   3.899   0.963
 3115SOL    HW1 9887   1.880   3.814   0.927
 3115SOL    HW2 9888   1.743   3.901   0.944
 3116SOL     OW 9889   0.672   3.927   1.489
 3116SOL    HW1 9890   0.762   3.911   1.449
 3116SOL    HW2 9891   0.680   3.932   1.588
 3117SOL     OW 9892   0.075   4.069   0.033
 3117SOL    HW1 9893  -0.017   4.041   0.004
 3117SOL    HW2 9894   0.106   4.146  -0.023
 3118SOL     OW 9895   0.072   3.890   0.318
 3118SOL    HW1 9896   0.055   3.973   0.264
 3118SOL    HW2 9897   0.162   3.853   0.296
 3119SOL     OW 9898   1.225   4.049   0.449
 3119SOL    HW1 9899   1.290   3.975   0.438
 3119SOL    HW2 9900   1.245   4.099   0.533
 3120SOL     OW 9901   1.777   4.066   1.642
 3120SOL    HW1 9902   1.760   4.097   1.548
 3120SOL    HW2 9903   1.693   4.029   1.680
 3121SOL     OW 9904   1.824   3.916   1.227
 3121SOL    HW1 9905   1.820   3.826   1.271
 3121SOL    HW2 9906   1.827   3.905   1.128
 3122SOL     OW 9907   1.424   3.938   1.112
 3122SOL    HW1 9908   1.476   3.873   1.167
 3122SOL    HW2 9909   1.375   4.001   1.173
 3123SOL     OW 9910   1.001   3.758   1.154
 3123SOL    HW1 9911   0.938   3.686   1.123
 3123SOL    HW2 9912   1.094   3.722   1.154
 3124SOL     OW 9913   1.352   3.776   0.168
 3124SOL    HW1 9914   1.387   3.735   0.084
 3124SOL    HW2 9915   1.262   3.738   0.188
 3125SOL     OW 9916   1.300   4.177   0.691
 3125SOL    HW1 9917   1.241   4.257   0.695
 3125SOL    HW2 9918   1.315   4.142   0.784
 3126SOL     OW 9919   1.593   3.945   0.882
 3126SOL    HW1 9920   1.509   3.944   0.936
 3126SOL    HW2 9921   1.595   4.028   0.826
 3127SOL     OW 9922   0.225   3.999   2.858
 3127SOL    HW1 9923   0.260   3.982   2.950
 3127SOL    HW2 9924   0.137   3.954   2.846
 3128SOL     OW 9925   0.019   4.092   2.509
 3128SOL    HW1 9926  -0.063   4.135   2.548
 3128SOL    HW2 9927  -0.009   4.019   2.446
 3129SOL     OW 9928   1.755   4.331   2.093
 3129SOL    HW1 9929   1.743   4.318   1.994
 3129SOL    HW2 9930   1.725   4.250   2.142
 3130SOL     OW 9931   0.438   4.116   3.361
 3130SOL    HW1 9932   0.520   4.060   3.370
 3130SOL    HW2 9933   0.357   4.058   3.365
 3131SOL     OW 9934   1.594   3.838   3.342
 3131SOL    HW1 9935   1.576   3.905   3.270
 3131SOL    HW2 9936   1.591   3.884   3.431
 3132SOL     OW 9937   0.809   3.728   2.364
 3132SOL    HW1 9938   0.849   3.819   2.355
 3132SOL    HW2 9939   0.709   3.736   2.370
 3133SOL     OW 9940   1.281   4.069   2.806
 3133SOL    HW1 9941   1.195   4.019   2.793
 3133SOL    HW2 9942   1.343   4.015   2.862
 3134SOL     OW 9943   0.550   3.920   2.747
 3134SOL    HW1 9944   0.545   3.915   2.847
 3134SOL    HW2 9945   0.552   4.016   2.718
 3135SOL     OW 9946   0.202   4.009   3.360
 3135SOL    HW1 9947   0.122   4.069   3.347
 3135SOL    HW2 9948   0.192   3.960   3.446
 3136SOL     OW 9949   1.400   3.831   2.288
 3136SOL    HW1 9950   1.376   3.794   2.198
 3136SOL    HW2 9951   1.499   3.847   2.292
 3137SOL     OW 9952   1.547   3.946   3.591
 3137SOL    HW1 9953   1.542   3.983   3.683
 3137SOL    HW2 9954   1.475   3.877   3.579
 3138SOL     OW 9955   0.614   3.846   1.979
 3138SOL    HW1 9956   0.712   3.824   1.986
 3138SOL    HW2 9957   0.583   3.829   1.886
 3139SOL     OW 9958   0.781   3.988   3.611
 3139SOL    HW1 9959   0.848   3.927   3.654
 3139SOL    HW2 9960   0.708   4.007   3.676
 3140SOL     OW 9961   0.539   3.788   2.374
 3140SOL    HW1 9962   0.458   3.789   2.432
 3140SOL    HW2 9963   0.542   3.871   2.319
 3141SOL     OW 9964   0.297   3.759   2.033
 3141SOL    HW1 9965   0.346   3.843   2.012
 3141SOL    HW2 9966   0.359   3.694   2.078
 3142SOL     OW 9967   0.561   3.946   3.009
 3142SOL    HW1 9968   0.599   3.862   3.046
 3142SOL    HW2 9969   0.473   3.965   3.053
 3143SOL     OW 9970   1.017   3.763   2.615
 3143SOL    HW1 9971   0.945   3.768   2.546
 3143SOL    HW2 9972   0.993   3.694   2.684
 3144SOL     OW 9973   0.915   3.813   3.264
 3144SOL    HW1 9974   0.940   3.793   3.169
 3144SOL    HW2 9975   0.987   3.869   3.306
 3145SOL     OW 9976   1.274   4.110   3.124
 3145SOL    HW1 9977   1.295   4.184   3.188
 3145SOL    HW2 9978   1.185   4.127   3.081
 3146SOL     OW 9979   0.504   3.774   3.602
 3146SOL    HW1 9980   0.462   3.717   3.532
 3146SOL    HW2 9981   0.438   3.843   3.634
 3147SOL     OW 9982   0.307   3.937   3.093
 3147SOL    HW1 9983   0.284   3.974   3.183
 3147SOL    HW2 9984   0.277   3.842   3.087
 3148SOL     OW 9985   1.540   3.998   1.987
 3148SOL    HW1 9986   1.479   3.923   2.010
 3148SOL    HW2 9987   1.562   4.050   2.070
 3149SOL     OW 9988   1.160   3.931   3.339
 3149SOL    HW1 9989   1.160   3.995   3.416
 3149SOL    HW2 9990   1.188   3.979   3.256
 3150SOL     OW 9991   0.903   3.810   1.995
 3150SOL    HW1 9992   0.954   3.811   1.909
 3150SOL    HW2 9993   0.959   3.768   2.066
 3151SOL     OW 9994   1.726   3.859   2.385
 3151SOL    HW1 9995   1.799   3.842   2.318
 3151SOL    HW2 9996   1.695   3.772   2.423
 3152SOL     OW 9997   1.841   3.899   2.825
 3152SOL    HW1 9998   1.880   3.814   2.789
 3152SOL    HW2 9999   1.743   3.901   2.806
 3153SOL     OW10000   0.672   3.927   3.351
 3153SOL    HW110001   0.762   3.911   3.311
 3153SOL    HW210002   0.680   3.932   3.450
 3154SOL     OW10003   0.075   4.069   1.895
 3154SOL    HW110004  -0.017   4.041   1.866
 3154SOL    HW210005   0.106   4.146   1.839
 3155SOL     OW10006   0.072   3.890   2.180
 3155SOL    HW110007   0.055   3.973   2.126
 3155SOL    HW210008   0.162   3.853   2.158
 3156SOL     OW10009   1.225   4.049   2.311
 3156SOL    HW110010   1.290   3.975   2.300
 3156SOL    HW210011   1.245   4.099   2.395
 3157SOL     OW10012   1.777   4.066   3.504
 3157SOL    HW110013   1.760   4.097   3.410
 3157SOL    HW210014   1.693   4.029   3.542
 3158SOL     OW10015   1.824   3.916   3.089
 3158SOL    HW110016   1.820   3.826   3.133
 3158SOL    HW210017   1.827   3.905   2.990
 3159SOL     OW10018   1.424   3.938   2.974
 3159SOL    HW110019   1.476   3.873   3.029
 3159SOL    HW210020   1.375   4.001   3.035
 3160SOL     OW10021   1.001   3.758   3.016
 3160SOL    HW110022   0.938   3.686   2.985
 3160SOL    HW210023   1.094   3.722   3.016
 3161SOL     OW10024   1.352   3.776   2.030
 3161SOL    HW110025   1.387   3.735   1.946
 3161SOL    HW210026   1.262   3.738   2.050
 3162SOL     OW10027   1.300   4.177   2.553
 3162SOL    HW110028   1.241   4.257   2.557
 3162SOL    HW210029   1.315   4.142   2.646
 3163SOL     OW10030   1.593   3.945   2.744
 3163SOL    HW110031   1.509   3.944   2.798
 3163SOL    HW210032   1.595   4.028   2.688
 3164SOL     OW10033   0.225   3.999   4.720
 3164SOL    HW110034   0.260   3.982   4.812
 3164SOL    HW210035   0.137   3.954   4.708
 3165SOL     OW10036   0.019   4.092   4.371
 3165SOL    HW110037  -0.063   4.135   4.410
 3165SOL    HW210038  -0.009   4.019   4.308
 3166SOL     OW10039   1.755   4.331   3.955
 3166SOL    HW110040   1.743   4.318   3.856
 3166SOL    HW210041   1.725   4.250   4.004
 3167SOL     OW10042   0.438   4.116   5.223
 3167SOL    HW110043   0.520   4.060   5.232
 3167SOL    HW210044   0.357   4.058   5.227
 3168SOL     OW10045   1.594   3.838   5.204
 3168SOL    HW110046   1.576   3.905   5.132
 3168SOL    HW210047   1.591   3.884   5.293
 3169SOL     OW10048   0.809   3.728   4.226
 3169SOL    HW110049   0.849   3.819   4.217
 3169SOL    HW210050   0.709   3.736   4.232
 3170SOL     OW10051   1.281   4.069   4.668
 3170SOL    HW110052   1.195   4.019   4.655
 3170SOL    HW210053   1.343   4.015   4.724
 3171SOL     OW10054   0.550   3.920   4.609
 3171SOL    HW110055   0.545   3.915   4.709
 3171SOL    HW210056   0.552   4.016   4.580
 3172SOL     OW10057   0.202   4.009   5.222
 3172SOL    HW110058   0.122   4.069   5.209
 3172SOL    HW210059   0.192   3.960   5.308
 3173SOL     OW10060   1.400   3.831   4.150
 3173SOL    HW110061   1.376   3.794   4.060
 3173SOL    HW210062   1.499   3.847   4.154
 3174SOL     OW10063   1.547   3.946   5.453
 3174SOL    HW110064   1.542   3.983   5.545
 3174SOL    HW210065   1.475   3.877   5.441
 3175SOL     OW10066   0.614   3.846   3.841
 3175SOL    HW110067   0.712   3.824   3.848
 3175SOL    HW210068   0.583   3.829   3.748
 3176SOL     OW10069   0.781   3.988   5.473
 3176SOL    HW110070   0.848   3.927   5.516
 3176SOL    HW210071   0.708   4.007   5.538
 3177SOL     OW10072   0.539   3.788   4.236
 3177SOL    HW110073   0.458   3.789   4.294
 3177SOL    HW210074   0.542   3.871   4.181
 3178SOL     OW10075   0.297   3.759   3.895
 3178SOL    HW110076   0.346   3.843   3.874
 3178SOL    HW210077   0.359   3.694   3.940
 3179SOL     OW10078   0.561   3.946   4.871
 3179SOL    HW110079   0.599   3.862   4.908
 3179SOL    HW210080   0.473   3.965   4.915
 3180SOL     OW10081   1.017   3.763   4.477
 3180SOL    HW110082   0.945   3.768   4.408
 3180SOL    HW210083   0.993   3.694   4.546
 3181SOL     OW10084   0.915   3.813   5.126
 3181SOL    HW110085   0.940   3.793   5.031
 3181SOL    HW210086   0.987   3.869   5.168
 3182SOL     OW10087   1.274   4.110   4.986
 3182SOL    HW110088   1.295   4.184   5.050
 3182SOL    HW210089   1.185   4.127   4.943
 3183SOL     OW10090   0.504   3.774   5.464
 3183SOL    HW110091   0.462   3.717   5.394
 3183SOL    HW210092   0.438   3.843   5.496
 3184SOL     OW10093   0.307   3.937   4.955
 3184SOL    HW110094   0.284   3.974   5.045
 3184SOL    HW210095   0.277   3.842   4.949
 3185SOL     OW10096   1.540   3.998   3.849
 3185SOL    HW110097   1.479   3.923   3.872
 3185SOL    HW210098   1.562   4.050   3.932
 3186SOL     OW10099   1.160   3.931   5.201
 3186SOL    HW110100   1.160   3.995   5.278
 3186SOL    HW210101   1.188   3.979   5.118
 3187SOL     OW10102   0.903   3.810   3.857
 3187SOL    HW110103   0.954   3.811   3.771
 3187SOL    HW210104   0.959   3.768   3.928
 3188SOL     OW10105   1.726   3.859   4.247
 3188SOL    HW110106   1.799   3.842   4.180
 3188SOL    HW210107   1.695   3.772   4.285
 3189SOL     OW10108   1.841   3.899   4.687
 3189SOL    HW110109   1.880   3.814   4.651
 3189SOL    HW210110   1.743   3.901   4.668
 3190SOL     OW10111   0.672   3.927   5.213
 3190SOL    HW110112   0.762   3.911   5.173
 3190SOL    HW210113   0.680   3.932   5.312
 3191SOL     OW10114   0.075   4.069   3.757
 3191SOL    HW110115  -0.017   4.041   3.728
 3191SOL    HW210116   0.106   4.146   3.701
 3192SOL     OW10117   0.072   3.890   4.042
 3192SOL    HW110118   0.055   3.973   3.988
 3192SOL    HW210119   0.162   3.853   4.020
 3193SOL     OW10120   1.225   4.049   4.173
 3193SOL    HW110121   1.290   3.975   4.162
 3193SOL    HW210122   1.245   4.099   4.257
 3194SOL     OW10123   1.777   4.066   5.366
 3194SOL    HW110124   1.760   4.097   5.272
 3194SOL    HW210125   1.693   4.029   5.404
 3195SOL     OW10126   1.824   3.916   4.951
 3195SOL    HW110127   1.820   3.826   4.995
 3195SOL    HW210128   1.827   3.905   4.852
 3196SOL     OW10129   1.424   3.938   4.836
 3196SOL    HW110130   1.476   3.873   4.891
 3196SOL    HW210131   1.375   4.001   4.897
 3197SOL     OW10132   1.001   3.758   4.878
 3197SOL    HW110133   0.938   3.686   4.847
 3197SOL    HW210134   1.094   3.722   4.878
 3198SOL     OW10135   1.352   3.776   3.892
 3198SOL    HW110136   1.387   3.735   3.808
 3198SOL    HW210137   1.262   3.738   3.912
 3199SOL     OW10138   1.300   4.177   4.415
 3199SOL    HW110139   1.241   4.257   4.419
 3199SOL    HW210140   1.315   4.142   4.508
 3200SOL     OW10141   1.593   3.945   4.606
 3200SOL    HW110142   1.509   3.944   4.660
 3200SOL    HW210143   1.595   4.028   4.550
 3201SOL     OW10144   0.225   3.999   6.582
 3201SOL    HW110145   0.260   3.982   6.674
 3201SOL    HW210146   0.137   3.954   6.570
 3202SOL     OW10147   0.019   4.092   6.233
 3202SOL    HW110148  -0.063   4.135   6.272
 3202SOL    HW210149  -0.009   4.019   6.170
 3203SOL     OW10150   1.755   4.331   5.817
 3203SOL    HW110151   1.743   4.318   5.718
 3203SOL    HW210152   1.725   4.250   5.866
 3204SOL     OW10153   0.438   4.116   7.085
 3204SOL    HW110154   0.520   4.060   7.094
 3204SOL    HW210155   0.357   4.058   7.089
 3205SOL     OW10156   1.594   3.838   7.066
 3205SOL    HW110157   1.576   3.905   6.994
 3205SOL    HW210158   1.591   3.884   7.155
 3206SOL     OW10159   0.809   3.728   6.088
 3206SOL    HW110160   0.849   3.819   6.079
 3206SOL    HW210161   0.709   3.736   6.094
 3207SOL     OW10162   1.281   4.069   6.530
 3207SOL    HW110163   1.195   4.019   6.517
 3207SOL    HW210164   1.343   4.015   6.586
 3208SOL     OW10165   0.550   3.920   6.471
 3208SOL    HW110166   0.545   3.915   6.571
 3208SOL    HW210167   0.552   4.016   6.442
 3209SOL     OW10168   0.202   4.009   7.084
 3209SOL    HW110169   0.122   4.069   7.071
 3209SOL    HW210170   0.192   3.960   7.170
 3210SOL     OW10171   1.400   3.831   6.012
 3210SOL    HW110172   1.376   3.794   5.922
 3210SOL    HW210173   1.499   3.847   6.016
 3211SOL     OW10174   1.547   3.946   7.315
 3211SOL    HW110175   1.542   3.983   7.407
 3211SOL    HW210176   1.475   3.877   7.303
 3212SOL     OW10177   0.614   3.846   5.703
 3212SOL    HW110178   0.712   3.824   5.710
 3212SOL    HW210179   0.583   3.829   5.610
 3213SOL     OW10180   0.781   3.988   7.335
 3213SOL    HW110181   0.848   3.927   7.378
 3213SOL    HW210182   0.708   4.007   7.400
 3214SOL     OW10183   0.539   3.788   6.098
 3214SOL    HW110184   0.458   3.789   6.156
 3214SOL    HW210185   0.542   3.871   6.043
 3215SOL     OW10186   0.297   3.759   5.757
 3215SOL    HW110187   0.346   3.843   5.736
 3215SOL    HW210188   0.359   3.694   5.802
 3216SOL     OW10189   0.561   3.946   6.733
 3216SOL    HW110190   0.599   3.862   6.770
 3216SOL    HW210191   0.473   3.965   6.777
 3217SOL     OW10192   1.017   3.763   6.339
 3217SOL    HW110193   0.945   3.768   6.270
 3217SOL    HW210194   0.993   3.694   6.408
 3218SOL     OW10195   0.915   3.813   6.988
 3218SOL    HW110196   0.940   3.793   6.893
 3218SOL    HW210197   0.987   3.869   7.030
 3219SOL     OW10198   1.274   4.110   6.848
 3219SOL    HW110199   1.295   4.184   6.912
 3219SOL    HW210200   1.185   4.127   6.805
 3220SOL     OW10201   0.504   3.774   7.326
 3220SOL    HW110202   0.462   3.717   7.256
 3220SOL    HW210203   0.438   3.843   7.358
 3221SOL     OW10204   0.307   3.937   6.817
 3221SOL    HW110205   0.284   3.974   6.907
 3221SOL    HW210206   0.277   3.842   6.811
 3222SOL     OW10207   1.540   3.998   5.711
 3222SOL    HW110208   1.479   3.923   5.734
 3222SOL    HW210209   1.562   4.050   5.794
 3223SOL     OW10210   1.160   3.931   7.063
 3223SOL    HW110211   1.160   3.995   7.140
 3223SOL    HW210212   1.188   3.979   6.980
 3224SOL     OW10213   0.903   3.810   5.719
 3224SOL    HW110214   0.954   3.811   5.633
 3224SOL    HW210215   0.959   3.768   5.790
 3225SOL     OW10216   1.726   3.859   6.109
 3225SOL    HW110217   1.799   3.842   6.042
 3225SOL    HW210218   1.695   3.772   6.147
 3226SOL     OW10219   1.841   3.899   6.549
 3226SOL    HW110220   1.880   3.814   6.513
 3226SOL    HW210221   1.743   3.901   6.530
 3227SOL     OW10222   0.672   3.927   7.075
 3227SOL    HW110223   0.762   3.911   7.035
 3227SOL    HW210224   0.680   3.932   7.174
 3228SOL     OW10225   0.075   4.069   5.619
 3228SOL    HW110226  -0.017   4.041   5.590
 3228SOL    HW210227   0.106   4.146   5.563
 3229SOL     OW10228   0.072   3.890   5.904
 3229SOL    HW110229   0.055   3.973   5.850
 3229SOL    HW210230   0.162   3.853   5.882
 3230SOL     OW10231   1.225   4.049   6.035
 3230SOL    HW110232   1.290   3.975   6.024
 3230SOL    HW210233   1.245   4.099   6.119
 3231SOL     OW10234   1.777   4.066   7.228
 3231SOL    HW110235   1.760   4.097   7.134
 3231SOL    HW210236   1.693   4.029   7.266
 3232SOL     OW10237   1.824   3.916   6.813
 3232SOL    HW110238   1.820   3.826   6.857
 3232SOL    HW210239   1.827   3.905   6.714
 3233SOL     OW10240   1.424   3.938   6.698
 3233SOL    HW110241   1.476   3.873   6.753
 3233SOL    HW210242   1.375   4.001   6.759
 3234SOL     OW10243   1.001   3.758   6.740
 3234SOL    HW110244   0.938   3.686   6.709
 3234SOL    HW210245   1.094   3.722   6.740
 3235SOL     OW10246   1.352   3.776   5.754
 3235SOL    HW110247   1.387   3.735   5.670
 3235SOL    HW210248   1.262   3.738   5.774
 3236SOL     OW10249   1.300   4.177   6.277
 3236SOL    HW110250   1.241   4.257   6.281
 3236SOL    HW210251   1.315   4.142   6.370
 3237SOL     OW10252   1.593   3.945   6.468
 3237SOL    HW110253   1.509   3.944   6.522
 3237SOL    HW210254   1.595   4.028   6.412
 3238SOL     OW10255   0.225   3.999   8.444
 3238SOL    HW110256   0.260   3.982   8.536
 3238SOL    HW210257   0.137   3.954   8.432
 3239SOL     OW10258   0.019   4.092   8.095
 3239SOL    HW110259  -0.063   4.135   8.134
 3239SOL    HW210260  -0.009   4.019   8.032
 3240SOL     OW10261   1.755   4.331   7.679
 3240SOL    HW110262   1.743   4.318   7.580
 3240SOL    HW210263   1.725   4.250   7.728
 3241SOL     OW10264   0.438   4.116   8.947
 3241SOL    HW110265   0.520   4.060   8.956
 3241SOL    HW210266   0.357   4.058   8.951
 3242SOL     OW10267   1.594   3.838   8.928
 3242SOL    HW110268   1.576   3.905   8.856
 3242SOL    HW210269   1.591   3.884   9.017
 3243SOL     OW10270   0.809   3.728   7.950
 3243SOL    HW110271   0.849   3.819   7.941
 3243SOL    HW210272   0.709   3.736   7.956
 3244SOL     OW10273   1.281   4.069   8.392
 3244SOL    HW110274   1.195   4.019   8.379
 3244SOL    HW210275   1.343   4.015   8.448
 3245SOL     OW10276   0.550   3.920   8.333
 3245SOL    HW110277   0.545   3.915   8.433
 3245SOL    HW210278   0.552   4.016   8.304
 3246SOL     OW10279   0.202   4.009   8.946
 3246SOL    HW110280   0.122   4.069   8.933
 3246SOL    HW210281   0.192   3.960   9.032
 3247SOL     OW10282   1.400   3.831   7.874
 3247SOL    HW110283   1.376   3.794   7.784
 3247SOL    HW210284   1.499   3.847   7.878
 3248SOL     OW10285   1.547   3.946   9.177
 3248SOL    HW110286   1.542   3.983   9.269
 3248SOL    HW210287   1.475   3.877   9.165
 3249SOL     OW10288   0.614   3.846   7.565
 3249SOL    HW110289   0.712   3.824   7.572
 3249SOL    HW210290   0.583   3.829   7.472
 3250SOL     OW10291   0.781   3.988   9.197
 3250SOL    HW110292   0.848   3.927   9.240
 3250SOL    HW210293   0.708   4.007   9.262
 3251SOL     OW10294   0.539   3.788   7.960
 3251SOL    HW110295   0.458   3.789   8.018
 3251SOL    HW210296   0.542   3.871   7.905
 3252SOL     OW10297   0.297   3.759   7.619
 3252SOL    HW110298   0.346   3.843   7.598
 3252SOL    HW210299   0.359   3.694   7.664
 3253SOL     OW10300   0.561   3.946   8.595
 3253SOL    HW110301   0.599   3.862   8.632
 3253SOL    HW210302   0.473   3.965   8.639
 3254SOL     OW10303   1.017   3.763   8.201
 3254SOL    HW110304   0.945   3.768   8.132
 3254SOL    HW210305   0.993   3.694   8.270
 3255SOL     OW10306   0.915   3.813   8.850
 3255SOL    HW110307   0.940   3.793   8.755
 3255SOL    HW210308   0.987   3.869   8.892
 3256SOL     OW10309   1.274   4.110   8.710
 3256SOL    HW110310   1.295   4.184   8.774
 3256SOL    HW210311   1.185   4.127   8.667
 3257SOL     OW10312   0.504   3.774   9.188
 3257SOL    HW110313   0.462   3.717   9.118
 3257SOL    HW210314   0.438   3.843   9.220
 3258SOL     OW10315   0.307   3.937   8.679
 3258SOL    HW110316   0.284   3.974   8.769
 3258SOL    HW210317   0.277   3.842   8.673
 3259SOL     OW10318   1.540   3.998   7.573
 3259SOL    HW110319   1.479   3.923   7.596
 3259SOL    HW210320   1.562   4.050   7.656
 3260SOL     OW10321   1.160   3.931   8.925
 3260SOL    HW110322   1.160   3.995   9.002
 3260SOL    HW210323   1.188   3.979   8.842
 3261SOL     OW10324   0.903   3.810   7.581
 3261SOL    HW110325   0.954   3.811   7.495
 3261SOL    HW210326   0.959   3.768   7.652
 3262SOL     OW10327   1.726   3.859   7.971
 3262SOL    HW110328   1.799   3.842   7.904
 3262SOL    HW210329   1.695   3.772   8.009
 3263SOL     OW10330   1.841   3.899   8.411
 3263SOL    HW110331   1.880   3.814   8.375
 3263SOL    HW210332   1.743   3.901   8.392
 3264SOL     OW10333   0.672   3.927   8.937
 3264SOL    HW110334   0.762   3.911   8.897
 3264SOL    HW210335   0.680   3.932   9.036
 3265SOL     OW10336   0.075   4.069   7.481
 3265SOL    HW110337  -0.017   4.041   7.452
 3265SOL    HW210338   0.106   4.146   7.425
 3266SOL     OW10339   0.072   3.890   7.766
 3266SOL    HW110340   0.055   3.973   7.712
 3266SOL    HW210341   0.162   3.853   7.744
 3267SOL     OW10342   1.225   4.049   7.897
 3267SOL    HW110343   1.290   3.975   7.886
 3267SOL    HW210344   1.245   4.099   7.981
 3268SOL     OW10345   1.777   4.066   9.090
 3268SOL    HW110346   1.760   4.097   8.996
 3268SOL    HW210347   1.693   4.029   9.128
 3269SOL     OW10348   1.824   3.916   8.675
 3269SOL    HW110349   1.820   3.826   8.719
 3269SOL    HW210350   1.827   3.905   8.576
 3270SOL     OW10351   1.424   3.938   8.560
 3270SOL    HW110352   1.476   3.873   8.615
 3270SOL    HW210353   1.375   4.001   8.621
 3271SOL     OW10354   1.001   3.758   8.602
 3271SOL    HW110355   0.938   3.686   8.571
 3271SOL    HW210356   1.094   3.722   8.602
 3272SOL     OW10357   1.352   3.776   7.616
 3272SOL    HW110358   1.387   3.735   7.532
 3272SOL    HW210359   1.262   3.738   7.636
 3273SOL     OW10360   1.300   4.177   8.139
 3273SOL    HW110361   1.241   4.257   8.143
 3273SOL    HW210362   1.315   4.142   8.232
 3274SOL     OW10363   1.593   3.945   8.330
 3274SOL    HW110364   1.509   3.944   8.384
 3274SOL    HW210365   1.595   4.028   8.274
 3275SOL     OW10366   0.225   3.999  10.306
 3275SOL    HW110367   0.260   3.982  10.398
 3275SOL    HW210368   0.137   3.954  10.294
 3276SOL     OW10369   0.019   4.092   9.957
 3276SOL    HW110370  -0.063   4.135   9.996
 3276SOL    HW210371  -0.009   4.019   9.894
 3277SOL     OW10372   1.755   4.331   9.541
 3277SOL    HW110373   1.743   4.318   9.442
 3277SOL    HW210374   1.725   4.250   9.590
 3278SOL     OW10375   0.438   4.116  10.809
 3278SOL    HW110376   0.520   4.060  10.818
 3278SOL    HW210377   0.357   4.058  10.813
 3279SOL     OW10378   1.594   3.838  10.790
 3279SOL    HW110379   1.576   3.905  10.718
 3279SOL    HW210380   1.591   3.884  10.879
 3280SOL     OW10381   0.809   3.728   9.812
 3280SOL    HW110382   0.849   3.819   9.803
 3280SOL    HW210383   0.709   3.736   9.818
 3281SOL     OW10384   1.281   4.069  10.254
 3281SOL    HW110385   1.195   4.019  10.241
 3281SOL    HW210386   1.343   4.015  10.310
 3282SOL     OW10387   0.550   3.920  10.195
 3282SOL    HW110388   0.545   3.915  10.295
 3282SOL    HW210389   0.552   4.016  10.166
 3283SOL     OW10390   0.202   4.009  10.808
 3283SOL    HW110391   0.122   4.069  10.795
 3283SOL    HW210392   0.192   3.960  10.894
 3284SOL     OW10393   1.400   3.831   9.736
 3284SOL    HW110394   1.376   3.794   9.646
 3284SOL    HW210395   1.499   3.847   9.740
 3285SOL     OW10396   1.547   3.946  11.039
 3285SOL    HW110397   1.542   3.983  11.131
 3285SOL    HW210398   1.475   3.877  11.027
 3286SOL     OW10399   0.614   3.846   9.427
 3286SOL    HW110400   0.712   3.824   9.434
 3286SOL    HW210401   0.583   3.829   9.334
 3287SOL     OW10402   0.781   3.988  11.059
 3287SOL    HW110403   0.848   3.927  11.102
 3287SOL    HW210404   0.708   4.007  11.124
 3288SOL     OW10405   0.539   3.788   9.822
 3288SOL    HW110406   0.458   3.789   9.880
 3288SOL    HW210407   0.542   3.871   9.767
 3289SOL     OW10408   0.297   3.759   9.481
 3289SOL    HW110409   0.346   3.843   9.460
 3289SOL    HW210410   0.359   3.694   9.526
 3290SOL     OW10411   0.561   3.946  10.457
 3290SOL    HW110412   0.599   3.862  10.494
 3290SOL    HW210413   0.473   3.965  10.501
 3291SOL     OW10414   1.017   3.763  10.063
 3291SOL    HW110415   0.945   3.768   9.994
 3291SOL    HW210416   0.993   3.694  10.132
 3292SOL     OW10417   0.915   3.813  10.712
 3292SOL    HW110418   0.940   3.793  10.617
 3292SOL    HW210419   0.987   3.869  10.754
 3293SOL     OW10420   1.274   4.110  10.572
 3293SOL    HW110421   1.295   4.184  10.636
 3293SOL    HW210422   1.185   4.127  10.529
 3294SOL     OW10423   0.504   3.774  11.050
 3294SOL    HW110424   0.462   3.717  10.980
 3294SOL    HW210425   0.438   3.843  11.082
 3295SOL     OW10426   0.307   3.937  10.541
 3295SOL    HW110427   0.284   3.974  10.631
 3295SOL    HW210428   0.277   3.842  10.535
 3296SOL     OW10429   1.540   3.998   9.435
 3296SOL    HW110430   1.479   3.923   9.458
 3296SOL    HW210431   1.562   4.050   9.518
 3297SOL     OW10432   1.160   3.931  10.787
 3297SOL    HW110433   1.160   3.995  10.864
 3297SOL    HW210434   1.188   3.979  10.704
 3298SOL     OW10435   0.903   3.810   9.443
 3298SOL    HW110436   0.954   3.811   9.357
 3298SOL    HW210437   0.959   3.768   9.514
 3299SOL     OW10438   1.726   3.859   9.833
 3299SOL    HW110439   1.799   3.842   9.766
 3299SOL    HW210440   1.695   3.772   9.871
 3300SOL     OW10441   1.841   3.899  10.273
 3300SOL    HW110442   1.880   3.814  10.237
 3300SOL    HW210443   1.743   3.901  10.254
 3301SOL     OW10444   0.672   3.927  10.799
 3301SOL    HW110445   0.762   3.911  10.759
 3301SOL    HW210446   0.680   3.932  10.898
 3302SOL     OW10447   0.075   4.069   9.343
 3302SOL    HW110448  -0.017   4.041   9.314
 3302SOL    HW210449   0.106   4.146   9.287
 3303SOL     OW10450   0.072   3.890   9.628
 3303SOL    HW110451   0.055   3.973   9.574
 3303SOL    HW210452   0.162   3.853   9.606
 3304SOL     OW10453   1.225   4.049   9.759
 3304SOL    HW110454   1.290   3.975   9.748
 3304SOL    HW210455   1.245   4.099   9.843
 3305SOL     OW10456   1.777   4.066  10.952
 3305SOL    HW110457   1.760   4.097  10.858
 3305SOL    HW210458   1.693   4.029  10.990
 3306SOL     OW10459   1.824   3.916  10.537
 3306SOL    HW110460   1.820   3.826  10.581
 3306SOL    HW210461   1.827   3.905  10.438
 3307SOL     OW10462   1.424   3.938  10.422
 3307SOL    HW110463   1.476   3.873  10.477
 3307SOL    HW210464   1.375   4.001  10.483
 3308SOL     OW10465   1.001   3.758  10.464
 3308SOL    HW110466   0.938   3.686  10.433
 3308SOL    HW210467   1.094   3.722  10.464
 3309SOL     OW10468   1.352   3.776   9.478
 3309SOL    HW110469   1.387   3.735   9.394
 3309SOL    HW210470   1.262   3.738   9.498
 3310SOL     OW10471   1.300   4.177  10.001
 3310SOL    HW110472   1.241   4.257  10.005
 3310SOL    HW210473   1.315   4.142  10.094
 3311SOL     OW10474   1.593   3.945  10.192
 3311SOL    HW110475   1.509   3.944  10.246
 3311SOL    HW210476   1.595   4.028  10.136
 3312SOL     OW10477   0.225   3.999  12.168
 3312SOL    HW110478   0.260   3.982  12.260
 3312SOL    HW210479   0.137   3.954  12.156
 3313SOL     OW10480   0.019   4.092  11.819
 3313SOL    HW110481  -0.063   4.135  11.858
 3313SOL    HW210482  -0.009   4.019  11.756
 3314SOL     OW10483   1.755   4.331  11.403
 3314SOL    HW110484   1.743   4.318  11.304
 3314SOL    HW210485   1.725   4.250  11.452
 3315SOL     OW10486   0.438   4.116  12.671
 3315SOL    HW110487   0.520   4.060  12.680
 3315SOL    HW210488   0.357   4.058  12.675
 3316SOL     OW10489   1.594   3.838  12.652
 3316SOL    HW110490   1.576   3.905  12.580
 3316SOL    HW210491   1.591   3.884  12.741
 3317SOL     OW10492   0.809   3.728  11.674
 3317SOL    HW110493   0.849   3.819  11.665
 3317SOL    HW210494   0.709   3.736  11.680
 3318SOL     OW10495   1.281   4.069  12.116
 3318SOL    HW110496   1.195   4.019  12.103
 3318SOL    HW210497   1.343   4.015  12.172
 3319SOL     OW10498   0.550   3.920  12.057
 3319SOL    HW110499   0.545   3.915  12.157
 3319SOL    HW210500   0.552   4.016  12.028
 3320SOL     OW10501   0.202   4.009  12.670
 3320SOL    HW110502   0.122   4.069  12.657
 3320SOL    HW210503   0.192   3.960  12.756
 3321SOL     OW10504   1.400   3.831  11.598
 3321SOL    HW110505   1.376   3.794  11.508
 3321SOL    HW210506   1.499   3.847  11.602
 3322SOL     OW10507   1.547   3.946  12.901
 3322SOL    HW110508   1.542   3.983  12.993
 3322SOL    HW210509   1.475   3.877  12.889
 3323SOL     OW10510   0.614   3.846  11.289
 3323SOL    HW110511   0.712   3.824  11.296
 3323SOL    HW210512   0.583   3.829  11.196
 3324SOL     OW10513   0.781   3.988  12.921
 3324SOL    HW110514   0.848   3.927  12.964
 3324SOL    HW210515   0.708   4.007  12.986
 3325SOL     OW10516   0.539   3.788  11.684
 3325SOL    HW110517   0.458   3.789  11.742
 3325SOL    HW210518   0.542   3.871  11.629
 3326SOL     OW10519   0.297   3.759  11.343
 3326SOL    HW110520   0.346   3.843  11.322
 3326SOL    HW210521   0.359   3.694  11.388
 3327SOL     OW10522   0.561   3.946  12.319
 3327SOL    HW110523   0.599   3.862  12.356
 3327SOL    HW210524   0.473   3.965  12.363
 3328SOL     OW10525   1.017   3.763  11.925
 3328SOL    HW110526   0.945   3.768  11.856
 3328SOL    HW210527   0.993   3.694  11.994
 3329SOL     OW10528   0.915   3.813  12.574
 3329SOL    HW110529   0.940   3.793  12.479
 3329SOL    HW210530   0.987   3.869  12.616
 3330SOL     OW10531   1.274   4.110  12.434
 3330SOL    HW110532   1.295   4.184  12.498
 3330SOL    HW210533   1.185   4.127  12.391
 3331SOL     OW10534   0.504   3.774  12.912
 3331SOL    HW110535   0.462   3.717  12.842
 3331SOL    HW210536   0.438   3.843  12.944
 3332SOL     OW10537   0.307   3.937  12.403
 3332SOL    HW110538   0.284   3.974  12.493
 3332SOL    HW210539   0.277   3.842  12.397
 3333SOL     OW10540   1.540   3.998  11.297
 3333SOL    HW110541   1.479   3.923  11.320
 3333SOL    HW210542   1.562   4.050  11.380
 3334SOL     OW10543   1.160   3.931  12.649
 3334SOL    HW110544   1.160   3.995  12.726
 3334SOL    HW210545   1.188   3.979  12.566
 3335SOL     OW10546   0.903   3.810  11.305
 3335SOL    HW110547   0.954   3.811  11.219
 3335SOL    HW210548   0.959   3.768  11.376
 3336SOL     OW10549   1.726   3.859  11.695
 3336SOL    HW110550   1.799   3.842  11.628
 3336SOL    HW210551   1.695   3.772  11.733
 3337SOL     OW10552   1.841   3.899  12.135
 3337SOL    HW110553   1.880   3.814  12.099
 3337SOL    HW210554   1.743   3.901  12.116
 3338SOL     OW10555   0.672   3.927  12.661
 3338SOL    HW110556   0.762   3.911  12.621
 3338SOL    HW210557   0.680   3.932  12.760
 3339SOL     OW10558   0.075   4.069  11.205
 3339SOL    HW110559  -0.017   4.041  11.176
 3339SOL    HW210560   0.106   4.146  11.149
 3340SOL     OW10561   0.072   3.890  11.490
 3340SOL    HW110562   0.055   3.973  11.436
 3340SOL    HW210563   0.162   3.853  11.468
 3341SOL     OW10564   1.225   4.049  11.621
 3341SOL    HW110565   1.290   3.975  11.610
 3341SOL    HW210566   1.245   4.099  11.705
 3342SOL     OW10567   1.777   4.066  12.814
 3342SOL    HW110568   1.760   4.097  12.720
 3342SOL    HW210569   1.693   4.029  12.852
 3343SOL     OW10570   1.824   3.916  12.399
 3343SOL    HW110571   1.820   3.826  12.443
 3343SOL    HW210572   1.827   3.905  12.300
 3344SOL     OW10573   1.424   3.938  12.284
 3344SOL    HW110574   1.476   3.873  12.339
 3344SOL    HW210575   1.375   4.001  12.345
 3345SOL     OW10576   1.001   3.758  12.326
 3345SOL    HW110577   0.938   3.686  12.295
 3345SOL    HW210578   1.094   3.722  12.326
 3346SOL     OW10579   1.352   3.776  11.340
 3346SOL    HW110580   1.387   3.735  11.256
 3346SOL    HW210581   1.262   3.738  11.360
 3347SOL     OW10582   1.300   4.177  11.863
 3347SOL    HW110583   1.241   4.257  11.867
 3347SOL    HW210584   1.315   4.142  11.956
 3348SOL     OW10585   1.593   3.945  12.054
 3348SOL    HW110586   1.509   3.944  12.108
 3348SOL    HW210587   1.595   4.028  11.998
 3349SOL     OW10588   0.019   4.092  13.681
 3349SOL    HW110589  -0.063   4.135  13.720
 3349SOL    HW210590  -0.009   4.019  13.618
 3350SOL     OW10591   1.755   4.331  13.265
 3350SOL    HW110592   1.743   4.318  13.166
 3350SOL    HW210593   1.725   4.250  13.314
 3351SOL     OW10594   1.603   4.171  13.771
 3351SOL    HW110595   1.529   4.217  13.721
 3351SOL    HW210596   1.654   4.239  13.824
 3352SOL     OW10597   0.809   3.728  13.536
 3352SOL    HW110598   0.849   3.819  13.527
 3352SOL    HW210599   0.709   3.736  13.542
 3353SOL     OW10600   1.400   3.831  13.460
 3353SOL    HW110601   1.376   3.794  13.370
 3353SOL    HW210602   1.499   3.847  13.464
 3354SOL     OW10603   0.614   3.846  13.151
 3354SOL    HW110604   0.712   3.824  13.158
 3354SOL    HW210605   0.583   3.829  13.058
 3355SOL     OW10606   0.539   3.788  13.546
 3355SOL    HW110607   0.458   3.789  13.604
 3355SOL    HW210608   0.542   3.871  13.491
 3356SOL     OW10609   0.297   3.759  13.205
 3356SOL    HW110610   0.346   3.843  13.184
 3356SOL    HW210611   0.359   3.694  13.250
 3357SOL     OW10612   1.017   3.763  13.787
 3357SOL    HW110613   0.945   3.768  13.718
 3357SOL    HW210614   0.993   3.694  13.856
 3358SOL     OW10615   1.540   3.998  13.159
 3358SOL    HW110616   1.479   3.923  13.182
 3358SOL    HW210617   1.562   4.050  13.242
 3359SOL     OW10618   0.903   3.810  13.167
 3359SOL    HW110619   0.954   3.811  13.081
 3359SOL    HW210620   0.959   3.768  13.238
 3360SOL     OW10621   1.726   3.859  13.557
 3360SOL    HW110622   1.799   3.842  13.490
 3360SOL    HW210623   1.695   3.772  13.595
 3361SOL     OW10624   1.841   3.899  13.997
 3361SOL    HW110625   1.880   3.814  13.961
 3361SOL    HW210626   1.743   3.901  13.978
 3362SOL     OW10627   0.075   4.069  13.067
 3362SOL    HW110628  -0.017   4.041  13.038
 3362SOL    HW210629   0.106   4.146  13.011
 3363SOL     OW10630   0.072   3.890  13.352
 3363SOL    HW110631   0.055   3.973  13.298
 3363SOL    HW210632   0.162   3.853  13.330
 3364SOL     OW10633   1.225   4.049  13.483
 3364SOL    HW110634   1.290   3.975  13.472
 3364SOL    HW210635   1.245   4.099  13.567
 3365SOL     OW10636   1.352   3.776  13.202
 3365SOL    HW110637   1.387   3.735  13.118
 3365SOL    HW210638   1.262   3.738  13.222
 3366SOL     OW10639   1.300   4.177  13.725
 3366SOL    HW110640   1.241   4.257  13.729
 3366SOL    HW210641   1.315   4.142  13.818
 3367SOL     OW10642   2.092   0.628   0.113
 3367SOL    HW110643   1.999   0.626   0.150
 3367SOL    HW210644   2.093   0.589   0.021
 3368SOL     OW10645   2.087   0.275   0.996
 3368SOL    HW110646   2.122   0.258   1.088
 3368SOL    HW210647   1.999   0.230   0.984
 3369SOL     OW10648   1.881   0.368   0.647
 3369SOL    HW110649   1.799   0.411   0.686
 3369SOL    HW210650   1.853   0.295   0.584
 3370SOL     OW10651   2.431   1.275   1.165
 3370SOL    HW110652   2.338   1.268   1.128
 3370SOL    HW210653   2.442   1.364   1.209
 3371SOL     OW10654   3.417   1.511   0.703
 3371SOL    HW110655   3.360   1.495   0.784
 3371SOL    HW210656   3.358   1.521   0.623
 3372SOL     OW10657   2.997   0.703   0.717
 3372SOL    HW110658   3.054   0.781   0.692
 3372SOL    HW210659   2.937   0.729   0.793
 3373SOL     OW10660   3.617   0.607   0.231
 3373SOL    HW110661   3.605   0.594   0.132
 3373SOL    HW210662   3.587   0.526   0.280
 3374SOL     OW10663   2.630   1.144   1.023
 3374SOL    HW110664   2.552   1.161   1.083
 3374SOL    HW210665   2.664   1.231   0.987
 3375SOL     OW10666   2.712   0.798   1.823
 3375SOL    HW110667   2.708   0.874   1.888
 3375SOL    HW210668   2.734   0.834   1.732
 3376SOL     OW10669   2.547   1.012   0.665
 3376SOL    HW110670   2.616   0.996   0.735
 3376SOL    HW210671   2.474   1.069   0.703
 3377SOL     OW10672   2.548   1.161   1.803
 3377SOL    HW110673   2.608   1.240   1.817
 3377SOL    HW210674   2.462   1.192   1.762
 3378SOL     OW10675   2.197   1.435   1.061
 3378SOL    HW110676   2.119   1.404   1.008
 3378SOL    HW210677   2.255   1.493   1.004
 3379SOL     OW10678   3.322   1.505   1.339
 3379SOL    HW110679   3.346   1.599   1.365
 3379SOL    HW210680   3.306   1.451   1.421
 3380SOL     OW10681   2.300   0.392   1.499
 3380SOL    HW110682   2.382   0.336   1.508
 3380SOL    HW210683   2.219   0.334   1.503
 3381SOL     OW10684   3.465   0.447   0.737
 3381SOL    HW110685   3.391   0.493   0.687
 3381SOL    HW210686   3.516   0.515   0.790
 3382SOL     OW10687   2.093   1.713   0.483
 3382SOL    HW110688   2.127   1.790   0.537
 3382SOL    HW210689   2.137   1.713   0.393
 3383SOL     OW10690   2.989   1.341   1.690
 3383SOL    HW110691   3.036   1.341   1.778
 3383SOL    HW210692   2.941   1.254   1.679
 3384SOL     OW10693   2.092   1.434   0.538
 3384SOL    HW110694   2.066   1.530   0.538
 3384SOL    HW210695   2.021   1.380   0.583
 3385SOL     OW10696   2.102   1.091   0.886
 3385SOL    HW110697   2.116   1.007   0.938
 3385SOL    HW210698   2.047   1.155   0.941
 3386SOL     OW10699   2.482   1.786   1.439
 3386SOL    HW110700   2.390   1.769   1.474
 3386SOL    HW210701   2.510   1.878   1.465
 3387SOL     OW10702   2.468   0.964   0.123
 3387SOL    HW110703   2.475   1.048   0.069
 3387SOL    HW210704   2.514   0.977   0.211
 3388SOL     OW10705   3.456   0.114   1.480
 3388SOL    HW110706   3.438   0.181   1.408
 3388SOL    HW210707   3.453   0.160   1.569
 3389SOL     OW10708   1.984   0.643   0.563
 3389SOL    HW110709   1.939   0.555   0.580
 3389SOL    HW210710   1.983   0.697   0.647
 3390SOL     OW10711   3.704   1.767   0.359
 3390SOL    HW110712   3.758   1.738   0.439
 3390SOL    HW210713   3.734   1.857   0.330
 3391SOL     OW10714   1.889   1.596   0.117
 3391SOL    HW110715   1.870   1.500   0.138
 3391SOL    HW210716   1.856   1.654   0.192
 3392SOL     OW10717   3.551   0.922   0.612
 3392SOL    HW110718   3.646   0.893   0.620
 3392SOL    HW210719   3.543   0.987   0.537
 3393SOL     OW10720   3.503   1.108   0.432
 3393SOL    HW110721   3.589   1.110   0.380
 3393SOL    HW210722   3.517   1.155   0.520
 3394SOL     OW10723   1.975   0.737   1.597
 3394SOL    HW110724   2.063   0.724   1.642
 3394SOL    HW210725   1.962   0.834   1.575
 3395SOL     OW10726   2.475   1.365   0.726
 3395SOL    HW110727   2.426   1.278   0.735
 3395SOL    HW210728   2.452   1.408   0.639
 3396SOL     OW10729   3.155   1.228   1.423
 3396SOL    HW110730   3.192   1.155   1.365
 3396SOL    HW210731   3.207   1.233   1.508
 3397SOL     OW10732   2.671   0.004   0.502
 3397SOL    HW110733   2.711   0.095   0.493
 3397SOL    HW210734   2.571   0.012   0.508
 3398SOL     OW10735   2.059   0.976   1.264
 3398SOL    HW110736   2.148   0.931   1.250
 3398SOL    HW210737   1.986   0.911   1.245
 3399SOL     OW10738   3.387   0.999   0.190
 3399SOL    HW110739   3.324   0.923   0.203
 3399SOL    HW210740   3.435   1.017   0.276
 3400SOL     OW10741   3.049   1.792   1.616
 3400SOL    HW110742   3.073   1.852   1.540
 3400SOL    HW210743   3.056   1.697   1.586
 3401SOL     OW10744   2.179   0.251   1.801
 3401SOL    HW110745   2.250   0.322   1.807
 3401SOL    HW210746   2.091   0.290   1.829
 3402SOL     OW10747   3.328   1.417   0.953
 3402SOL    HW110748   3.269   1.423   1.033
 3402SOL    HW210749   3.313   1.329   0.907
 3403SOL     OW10750   3.529   1.714   0.572
 3403SOL    HW110751   3.488   1.691   0.484
 3403SOL    HW210752   3.511   1.640   0.637
 3404SOL     OW10753   2.460   0.729   0.270
 3404SOL    HW110754   2.484   0.798   0.202
 3404SOL    HW210755   2.382   0.762   0.324
 3405SOL     OW10756   3.143   0.345   0.944
 3405SOL    HW110757   3.057   0.295   0.931
 3405SOL    HW210758   3.205   0.291   1.000
 3406SOL     OW10759   3.438   1.662   0.307
 3406SOL    HW110760   3.527   1.708   0.310
 3406SOL    HW210761   3.417   1.638   0.212
 3407SOL     OW10762   2.669   0.605   1.465
 3407SOL    HW110763   2.622   0.602   1.554
 3407SOL    HW210764   2.618   0.550   1.399
 3408SOL     OW10765   3.256   0.469   1.674
 3408SOL    HW110766   3.236   0.512   1.762
 3408SOL    HW210767   3.334   0.407   1.683
 3409SOL     OW10768   2.835   0.890   1.572
 3409SOL    HW110769   2.881   0.806   1.543
 3409SOL    HW210770   2.779   0.924   1.497
 3410SOL     OW10771   2.853   0.410   1.242
 3410SOL    HW110772   2.776   0.444   1.296
 3410SOL    HW210773   2.819   0.359   1.163
 3411SOL     OW10774   2.903   0.701   0.429
 3411SOL    HW110775   2.929   0.697   0.525
 3411SOL    HW210776   2.818   0.650   0.415
 3412SOL     OW10777   1.938   0.811   0.789
 3412SOL    HW110778   2.037   0.799   0.798
 3412SOL    HW210779   1.914   0.906   0.810
 3413SOL     OW10780   2.727   0.348   0.195
 3413SOL    HW110781   2.786   0.411   0.146
 3413SOL    HW210782   2.746   0.254   0.166
 3414SOL     OW10783   3.581   0.585   1.831
 3414SOL    HW110784   3.555   0.674   1.795
 3414SOL    HW210785   3.579   0.517   1.758
 3415SOL     OW10786   3.224   1.144   0.545
 3415SOL    HW110787   3.307   1.115   0.497
 3415SOL    HW210788   3.175   1.211   0.489
 3416SOL     OW10789   2.412   0.196   0.885
 3416SOL    HW110790   2.407   0.191   0.985
 3416SOL    HW210791   2.414   0.292   0.856
 3417SOL     OW10792   2.870   1.456   0.477
 3417SOL    HW110793   2.824   1.528   0.425
 3417SOL    HW210794   2.866   1.476   0.575
 3418SOL     OW10795   2.213   1.801   0.853
 3418SOL    HW110796   2.263   1.715   0.859
 3418SOL    HW210797   2.278   1.878   0.850
 3419SOL     OW10798   3.657   1.066   0.873
 3419SOL    HW110799   3.595   1.051   0.797
 3419SOL    HW210800   3.605   1.077   0.958
 3420SOL     OW10801   3.089   1.550   1.506
 3420SOL    HW110802   3.095   1.473   1.570
 3420SOL    HW210803   3.037   1.524   1.426
 3421SOL     OW10804   2.183   0.943   0.242
 3421SOL    HW110805   2.265   0.982   0.200
 3421SOL    HW210806   2.156   0.861   0.193
 3422SOL     OW10807   3.320   0.735   0.728
 3422SOL    HW110808   3.315   0.670   0.803
 3422SOL    HW210809   3.400   0.794   0.741
 3423SOL     OW10810   2.323   1.266   1.727
 3423SOL    HW110811   2.273   1.267   1.641
 3423SOL    HW210812   2.260   1.248   1.803
 3424SOL     OW10813   2.973   1.776   0.237
 3424SOL    HW110814   2.913   1.714   0.287
 3424SOL    HW210815   3.004   1.732   0.152
 3425SOL     OW10816   2.064   0.285   1.498
 3425SOL    HW110817   1.984   0.345   1.485
 3425SOL    HW210818   2.054   0.236   1.584
 3426SOL     OW10819   3.494   1.377   0.081
 3426SOL    HW110820   3.462   1.471   0.071
 3426SOL    HW210821   3.418   1.314   0.069
 3427SOL     OW10822   2.326   1.743   0.323
 3427SOL    HW110823   2.359   1.782   0.409
 3427SOL    HW210824   2.402   1.736   0.258
 3428SOL     OW10825   3.262   0.107   0.426
 3428SOL    HW110826   3.238   0.070   0.336
 3428SOL    HW210827   3.361   0.123   0.430
 3429SOL     OW10828   2.111   1.785   1.241
 3429SOL    HW110829   2.168   1.720   1.291
 3429SOL    HW210830   2.095   1.752   1.148
 3430SOL     OW10831   2.802   1.698   0.904
 3430SOL    HW110832   2.882   1.641   0.925
 3430SOL    HW210833   2.753   1.658   0.827
 3431SOL     OW10834   2.244   0.700   0.480
 3431SOL    HW110835   2.289   0.610   0.477
 3431SOL    HW210836   2.150   0.689   0.513
 3432SOL     OW10837   3.409   0.222   1.729
 3432SOL    HW110838   3.404   0.259   1.821
 3432SOL    HW210839   3.337   0.153   1.717
 3433SOL     OW10840   2.476   0.122   0.117
 3433SOL    HW110841   2.574   0.100   0.124
 3433SOL    HW210842   2.445   0.105   0.024
 3434SOL     OW10843   2.643   0.264   1.749
 3434SOL    HW110844   2.710   0.203   1.792
 3434SOL    HW210845   2.570   0.283   1.814
 3435SOL     OW10846   2.750   1.514   1.195
 3435SOL    HW110847   2.727   1.489   1.101
 3435SOL    HW210848   2.811   1.445   1.234
 3436SOL     OW10849   3.213   0.590   1.433
 3436SOL    HW110850   3.241   0.547   1.518
 3436SOL    HW210851   3.238   0.686   1.434
 3437SOL     OW10852   2.665   1.402   0.924
 3437SOL    HW110853   2.755   1.416   0.882
 3437SOL    HW210854   2.594   1.404   0.853
 3438SOL     OW10855   2.784   0.503   0.899
 3438SOL    HW110856   2.759   0.494   0.803
 3438SOL    HW210857   2.832   0.421   0.930
 3439SOL     OW10858   2.401   0.064   0.512
 3439SOL    HW110859   2.320   0.065   0.570
 3439SOL    HW210860   2.404   0.147   0.457
 3440SOL     OW10861   3.296   1.188   0.041
 3440SOL    HW110862   3.328   1.112   0.098
 3440SOL    HW210863   3.204   1.215   0.071
 3441SOL     OW10864   2.159   0.035   0.171
 3441SOL    HW110865   2.208   0.119   0.150
 3441SOL    HW210866   2.221  -0.030   0.216
 3442SOL     OW10867   2.797   0.236   0.480
 3442SOL    HW110868   2.749   0.277   0.402
 3442SOL    HW210869   2.896   0.234   0.461
 3443SOL     OW10870   2.938   0.683   1.464
 3443SOL    HW110871   2.858   0.622   1.467
 3443SOL    HW210872   3.019   0.630   1.440
 3444SOL     OW10873   3.089   1.570   0.793
 3444SOL    HW110874   3.110   1.644   0.728
 3444SOL    HW210875   3.157   1.570   0.866
 3445SOL     OW10876   2.321   1.152   0.741
 3445SOL    HW110877   2.250   1.125   0.806
 3445SOL    HW210878   2.295   1.124   0.648
 3446SOL     OW10879   3.133   1.797   0.591
 3446SOL    HW110880   3.177   1.861   0.527
 3446SOL    HW210881   3.083   1.849   0.661
 3447SOL     OW10882   2.894   0.549   0.016
 3447SOL    HW110883   2.853   0.631  -0.023
 3447SOL    HW210884   2.958   0.575   0.089
 3448SOL     OW10885   1.940   0.556   1.386
 3448SOL    HW110886   2.032   0.555   1.345
 3448SOL    HW210887   1.934   0.630   1.453
 3449SOL     OW10888   2.423   0.222   1.147
 3449SOL    HW110889   2.461   0.138   1.184
 3449SOL    HW210890   2.335   0.241   1.191
 3450SOL     OW10891   2.728   0.454   0.642
 3450SOL    HW110892   2.696   0.526   0.580
 3450SOL    HW210893   2.752   0.373   0.589
 3451SOL     OW10894   2.879   0.039   0.753
 3451SOL    HW110895   2.807   0.044   0.684
 3451SOL    HW210896   2.855  -0.030   0.822
 3452SOL     OW10897   3.291   1.173   0.867
 3452SOL    HW110898   3.236   1.089   0.860
 3452SOL    HW210899   3.317   1.202   0.775
 3453SOL     OW10900   3.328   0.590   0.992
 3453SOL    HW110901   3.298   0.495   0.999
 3453SOL    HW210902   3.401   0.606   1.058
 3454SOL     OW10903   3.719   0.833   0.377
 3454SOL    HW110904   3.761   0.769   0.441
 3454SOL    HW210905   3.681   0.782   0.299
 3455SOL     OW10906   2.350   1.385   0.174
 3455SOL    HW110907   2.263   1.370   0.221
 3455SOL    HW210908   2.333   1.411   0.079
 3456SOL     OW10909   3.526   1.280   0.657
 3456SOL    HW110910   3.625   1.288   0.671
 3456SOL    HW210911   3.481   1.364   0.688
 3457SOL     OW10912   3.252   0.575   0.078
 3457SOL    HW110913   3.198   0.554   0.159
 3457SOL    HW210914   3.343   0.534   0.087
 3458SOL     OW10915   2.389   0.256   0.328
 3458SOL    HW110916   2.416   0.197   0.253
 3458SOL    HW210917   2.389   0.351   0.297
 3459SOL     OW10918   3.616   1.223   1.588
 3459SOL    HW110919   3.707   1.184   1.575
 3459SOL    HW210920   3.624   1.319   1.612
 3460SOL     OW10921   2.926   1.347   1.340
 3460SOL    HW110922   2.846   1.324   1.395
 3460SOL    HW210923   3.009   1.321   1.389
 3461SOL     OW10924   3.454   1.629   1.625
 3461SOL    HW110925   3.481   1.663   1.535
 3461SOL    HW210926   3.533   1.591   1.671
 3462SOL     OW10927   2.973   1.195   1.100
 3462SOL    HW110928   2.933   1.239   1.181
 3462SOL    HW210929   2.932   1.232   1.017
 3463SOL     OW10930   3.500   1.099   1.079
 3463SOL    HW110931   3.505   1.180   1.138
 3463SOL    HW210932   3.414   1.101   1.028
 3464SOL     OW10933   2.777   0.089   1.402
 3464SOL    HW110934   2.802   0.069   1.307
 3464SOL    HW210935   2.849   0.145   1.444
 3465SOL     OW10936   2.842   1.116   1.719
 3465SOL    HW110937   2.743   1.122   1.729
 3465SOL    HW210938   2.865   1.036   1.663
 3466SOL     OW10939   2.567   1.050   0.368
 3466SOL    HW110940   2.553   1.057   0.467
 3466SOL    HW210941   2.651   0.999   0.350
 3467SOL     OW10942   2.272   0.813   1.251
 3467SOL    HW110943   2.358   0.825   1.301
 3467SOL    HW210944   2.230   0.726   1.278
 3468SOL     OW10945   3.136   0.386   1.262
 3468SOL    HW110946   3.157   0.460   1.326
 3468SOL    HW210947   3.047   0.403   1.219
 3469SOL     OW10948   1.926   1.564   1.331
 3469SOL    HW110949   1.880   1.646   1.297
 3469SOL    HW210950   2.024   1.583   1.340
 3470SOL     OW10951   2.229   1.100   0.501
 3470SOL    HW110952   2.222   1.183   0.445
 3470SOL    HW210953   2.233   1.020   0.441
 3471SOL     OW10954   2.428   0.537   0.865
 3471SOL    HW110955   2.440   0.603   0.791
 3471SOL    HW210956   2.474   0.571   0.948
 3472SOL     OW10957   3.114   1.348   0.388
 3472SOL    HW110958   3.164   1.425   0.428
 3472SOL    HW210959   3.019   1.350   0.420
 3473SOL     OW10960   3.134   1.445   1.142
 3473SOL    HW110961   3.181   1.458   1.229
 3473SOL    HW210962   3.068   1.371   1.151
 3474SOL     OW10963   3.444   0.639   0.472
 3474SOL    HW110964   3.413   0.700   0.545
 3474SOL    HW210965   3.494   0.691   0.403
 3475SOL     OW10966   2.216   1.510   1.329
 3475SOL    HW110967   2.195   1.466   1.242
 3475SOL    HW210968   2.313   1.536   1.332
 3476SOL     OW10969   2.264   0.751   1.598
 3476SOL    HW110970   2.332   0.806   1.551
 3476SOL    HW210971   2.304   0.663   1.625
 3477SOL     OW10972   3.449   0.779   1.670
 3477SOL    HW110973   3.357   0.817   1.665
 3477SOL    HW210974   3.509   0.826   1.605
 3478SOL     OW10975   2.875   0.105   1.770
 3478SOL    HW110976   2.881   0.190   1.718
 3478SOL    HW210977   2.907   0.029   1.713
 3479SOL     OW10978   2.366   0.050   1.740
 3479SOL    HW110979   2.324  -0.007   1.670
 3479SOL    HW210980   2.300   0.119   1.772
 3480SOL     OW10981   2.435   0.870   1.029
 3480SOL    HW110982   2.479   0.959   1.020
 3480SOL    HW210983   2.372   0.870   1.106
 3481SOL     OW10984   3.222   0.862   1.045
 3481SOL    HW110985   3.147   0.862   0.979
 3481SOL    HW210986   3.259   0.770   1.054
 3482SOL     OW10987   3.071   0.525   0.275
 3482SOL    HW110988   3.084   0.441   0.329
 3482SOL    HW210989   3.042   0.599   0.335
 3483SOL     OW10990   2.169   0.213   1.231
 3483SOL    HW110991   2.146   0.250   1.321
 3483SOL    HW210992   2.139   0.118   1.225
 3484SOL     OW10993   1.899   1.310   1.282
 3484SOL    HW110994   1.952   1.261   1.350
 3484SOL    HW210995   1.921   1.408   1.287
 3485SOL     OW10996   2.594   0.634   1.064
 3485SOL    HW110997   2.653   0.608   0.988
 3485SOL    HW210998   2.566   0.730   1.053
 3486SOL     OW10999   3.590   0.935   1.854
 3486SOL    HW111000   3.544   0.928   1.765
 3486SOL    HW211001   3.528   0.979   1.920
 3487SOL     OW11002   2.169   0.063   0.618
 3487SOL    HW111003   2.158   0.157   0.651
 3487SOL    HW211004   2.164   0.000   0.695
 3488SOL     OW11005   3.484   0.367   0.374
 3488SOL    HW111006   3.486   0.291   0.438
 3488SOL    HW211007   3.436   0.444   0.414
 3489SOL     OW11008   2.885   0.766   0.966
 3489SOL    HW111009   2.900   0.787   1.062
 3489SOL    HW211010   2.855   0.671   0.957
 3490SOL     OW11011   2.842   1.573   1.700
 3490SOL    HW111012   2.822   1.617   1.612
 3490SOL    HW211013   2.881   1.482   1.684
 3491SOL     OW11014   3.721   1.518   1.605
 3491SOL    HW111015   3.735   1.545   1.510
 3491SOL    HW211016   3.804   1.540   1.658
 3492SOL     OW11017   2.212   0.898   1.804
 3492SOL    HW111018   2.288   0.942   1.852
 3492SOL    HW211019   2.247   0.851   1.722
 3493SOL     OW11020   3.402   0.274   0.125
 3493SOL    HW111021   3.341   0.199   0.148
 3493SOL    HW211022   3.424   0.326   0.208
 3494SOL     OW11023   3.165   0.838   0.042
 3494SOL    HW111024   3.199   0.745   0.057
 3494SOL    HW211025   3.183   0.865  -0.053
 3495SOL     OW11026   2.930   1.333   0.849
 3495SOL    HW111027   2.937   1.249   0.794
 3495SOL    HW211028   2.992   1.402   0.813
 3496SOL     OW11029   2.181   0.810   0.949
 3496SOL    HW111030   2.274   0.846   0.954
 3496SOL    HW211031   2.175   0.725   1.001
 3497SOL     OW11032   2.201   0.509   1.006
 3497SOL    HW111033   2.149   0.426   0.989
 3497SOL    HW211034   2.278   0.514   0.942
 3498SOL     OW11035   3.000   0.380   1.678
 3498SOL    HW111036   2.955   0.443   1.742
 3498SOL    HW211037   3.093   0.411   1.661
 3499SOL     OW11038   3.022   0.207   1.477
 3499SOL    HW111039   3.022   0.271   1.554
 3499SOL    HW211040   3.050   0.255   1.394
 3500SOL     OW11041   1.870   1.326   0.200
 3500SOL    HW111042   1.777   1.347   0.169
 3500SOL    HW211043   1.880   1.227   0.213
 3501SOL     OW11044   1.950   1.801   0.927
 3501SOL    HW111045   1.908   1.715   0.900
 3501SOL    HW211046   2.044   1.804   0.893
 3502SOL     OW11047   2.366   1.568   0.910
 3502SOL    HW111048   2.432   1.642   0.919
 3502SOL    HW211049   2.410   1.489   0.868
 3503SOL     OW11050   2.864   0.796   1.238
 3503SOL    HW111051   2.905   0.764   1.324
 3503SOL    HW211052   2.768   0.769   1.235
 3504SOL     OW11053   1.902   0.544   1.114
 3504SOL    HW111054   1.987   0.511   1.073
 3504SOL    HW211055   1.915   0.559   1.212
 3505SOL     OW11056   2.051   0.520   1.722
 3505SOL    HW111057   2.110   0.480   1.652
 3505SOL    HW211058   1.993   0.591   1.681
 3506SOL     OW11059   3.231   0.950   1.660
 3506SOL    HW111060   3.270   1.039   1.680
 3506SOL    HW211061   3.241   0.930   1.563
 3507SOL     OW11062   2.677   0.572   0.325
 3507SOL    HW111063   2.684   0.483   0.279
 3507SOL    HW211064   2.583   0.606   0.317
 3508SOL     OW11065   3.519   0.604   1.206
 3508SOL    HW111066   3.481   0.535   1.268
 3508SOL    HW211067   3.601   0.568   1.162
 3509SOL     OW11068   2.114   1.564   1.744
 3509SOL    HW111069   2.084   1.621   1.820
 3509SOL    HW211070   2.107   1.467   1.770
 3510SOL     OW11071   2.533   0.464   1.269
 3510SOL    HW111072   2.499   0.375   1.239
 3510SOL    HW211073   2.559   0.518   1.189
 3511SOL     OW11074   2.792   1.678   1.465
 3511SOL    HW111075   2.768   1.660   1.370
 3511SOL    HW211076   2.822   1.772   1.475
 3512SOL     OW11077   2.335   0.500   0.191
 3512SOL    HW111078   2.396   0.580   0.195
 3512SOL    HW211079   2.240   0.531   0.198
 3513SOL     OW11080   2.021   1.137   1.466
 3513SOL    HW111081   2.043   1.076   1.542
 3513SOL    HW211082   2.031   1.088   1.380
 3514SOL     OW11083   3.209   1.059   1.234
 3514SOL    HW111084   3.233   0.996   1.160
 3514SOL    HW211085   3.119   1.099   1.216
 3515SOL     OW11086   3.164   0.855   0.309
 3515SOL    HW111087   3.078   0.824   0.351
 3515SOL    HW211088   3.160   0.841   0.210
 3516SOL     OW11089   3.621   1.747   1.154
 3516SOL    HW111090   3.682   1.777   1.081
 3516SOL    HW211091   3.583   1.658   1.132
 3517SOL     OW11092   3.114   1.731   1.128
 3517SOL    HW111093   3.198   1.736   1.074
 3517SOL    HW211094   3.091   1.635   1.146
 3518SOL     OW11095   1.945   1.258   1.022
 3518SOL    HW111096   1.940   1.257   1.122
 3518SOL    HW211097   1.862   1.217   0.984
 3519SOL     OW11098   2.550   1.662   1.716
 3519SOL    HW111099   2.494   1.743   1.725
 3519SOL    HW211100   2.602   1.666   1.630
 3520SOL     OW11101   2.765   0.086   0.133
 3520SOL    HW111102   2.816   0.087   0.047
 3520SOL    HW211103   2.821   0.044   0.204
 3521SOL     OW11104   3.588   0.135   0.523
 3521SOL    HW111105   3.661   0.118   0.456
 3521SOL    HW211106   3.557   0.048   0.561
 3522SOL     OW11107   3.250   1.573   0.477
 3522SOL    HW111108   3.317   1.585   0.403
 3522SOL    HW211109   3.210   1.662   0.500
 3523SOL     OW11110   1.992   1.794   1.851
 3523SOL    HW111111   1.951   1.720   1.904
 3523SOL    HW211112   2.056   1.845   1.909
 3524SOL     OW11113   3.142   0.927   0.672
 3524SOL    HW111114   3.202   0.846   0.674
 3524SOL    HW211115   3.182   0.996   0.612
 3525SOL     OW11116   2.692   1.273   1.422
 3525SOL    HW111117   2.687   1.306   1.517
 3525SOL    HW211118   2.606   1.292   1.376
 3526SOL     OW11119   2.534   1.616   0.154
 3526SOL    HW111120   2.543   1.626   0.055
 3526SOL    HW211121   2.494   1.527   0.175
 3527SOL     OW11122   3.512   1.720   1.394
 3527SOL    HW111123   3.565   1.730   1.310
 3527SOL    HW211124   3.485   1.810   1.428
 3528SOL     OW11125   3.703   0.175   0.963
 3528SOL    HW111126   3.742   0.090   0.927
 3528SOL    HW211127   3.605   0.177   0.944
 3529SOL     OW11128   2.125   0.326   0.720
 3529SOL    HW111129   2.046   0.377   0.686
 3529SOL    HW211130   2.116   0.311   0.818
 3530SOL     OW11131   3.056   1.612   0.031
 3530SOL    HW111132   3.062   1.519   0.068
 3530SOL    HW211133   2.997   1.612  -0.049
 3531SOL     OW11134   2.684   1.002   1.372
 3531SOL    HW111135   2.724   1.001   1.280
 3531SOL    HW211136   2.694   1.094   1.412
 3532SOL     OW11137   2.778   0.910   0.291
 3532SOL    HW111138   2.841   0.948   0.223
 3532SOL    HW211139   2.818   0.827   0.330
 3533SOL     OW11140   3.366   1.607   0.044
 3533SOL    HW111141   3.274   1.644   0.051
 3533SOL    HW211142   3.404   1.627  -0.046
 3534SOL     OW11143   2.234   1.288   1.490
 3534SOL    HW111144   2.221   1.381   1.456
 3534SOL    HW211145   2.150   1.236   1.477
 3535SOL     OW11146   3.476   1.292   1.289
 3535SOL    HW111147   3.536   1.295   1.369
 3535SOL    HW211148   3.401   1.356   1.302
 3536SOL     OW11149   2.901   1.098   0.696
 3536SOL    HW111150   2.831   1.051   0.750
 3536SOL    HW211151   2.960   1.030   0.653
 3537SOL     OW11152   2.876   0.236   0.971
 3537SOL    HW111153   2.868   0.200   0.878
 3537SOL    HW211154   2.874   0.160   1.036
 3538SOL     OW11155   2.452   1.487   0.491
 3538SOL    HW111156   2.494   1.429   0.421
 3538SOL    HW211157   2.408   1.566   0.447
 3539SOL     OW11158   3.571   0.385   1.381
 3539SOL    HW111159   3.644   0.454   1.385
 3539SOL    HW211160   3.599   0.310   1.322
 3540SOL     OW11161   2.117   1.348   0.290
 3540SOL    HW111162   2.021   1.349   0.263
 3540SOL    HW211163   2.129   1.401   0.374
 3541SOL     OW11164   1.967   1.013   1.726
 3541SOL    HW111165   1.890   0.980   1.780
 3541SOL    HW211166   2.052   0.983   1.768
 3542SOL     OW11167   2.534   0.203   1.489
 3542SOL    HW111168   2.624   0.187   1.449
 3542SOL    HW211169   2.542   0.208   1.588
 3543SOL     OW11170   1.937   0.345   0.033
 3543SOL    HW111171   1.845   0.317   0.004
 3543SOL    HW211172   1.968   0.422  -0.023
 3544SOL     OW11173   3.302   0.856   1.398
 3544SOL    HW111174   3.245   0.908   1.335
 3544SOL    HW211175   3.398   0.868   1.374
 3545SOL     OW11176   1.934   0.166   0.318
 3545SOL    HW111177   1.917   0.249   0.264
 3545SOL    HW211178   2.024   0.129   0.296
 3546SOL     OW11179   3.045   1.335   0.119
 3546SOL    HW111180   2.946   1.324   0.121
 3546SOL    HW211181   3.079   1.350   0.212
 3547SOL     OW11182   2.475   0.842   1.431
 3547SOL    HW111183   2.531   0.923   1.414
 3547SOL    HW211184   2.534   0.762   1.434
 3548SOL     OW11185   3.355   1.767   0.959
 3548SOL    HW111186   3.388   1.831   0.890
 3548SOL    HW211187   3.421   1.761   1.034
 3549SOL     OW11188   2.578   0.565   1.708
 3549SOL    HW111189   2.597   0.630   1.782
 3549SOL    HW211190   2.638   0.485   1.717
 3550SOL     OW11191   3.312   1.220   1.633
 3550SOL    HW111192   3.303   1.210   1.732
 3550SOL    HW211193   3.408   1.213   1.607
 3551SOL     OW11194   2.252   1.741   1.560
 3551SOL    HW111195   2.161   1.782   1.558
 3551SOL    HW211196   2.245   1.647   1.592
 3552SOL     OW11197   3.536   0.883   1.254
 3552SOL    HW111198   3.509   0.794   1.217
 3552SOL    HW211199   3.537   0.951   1.181
 3553SOL     OW11200   3.087   0.325   0.449
 3553SOL    HW111201   3.152   0.251   0.438
 3553SOL    HW211202   3.107   0.375   0.533
 3554SOL     OW11203   2.456   0.745   0.652
 3554SOL    HW111204   2.506   0.830   0.633
 3554SOL    HW211205   2.368   0.747   0.604
 3555SOL     OW11206   3.639   0.342   1.642
 3555SOL    HW111207   3.622   0.373   1.548
 3555SOL    HW211208   3.555   0.305   1.680
 3556SOL     OW11209   3.592   0.934   1.517
 3556SOL    HW111210   3.630   1.025   1.532
 3556SOL    HW211211   3.584   0.917   1.418
 3557SOL     OW11212   2.721   1.374   0.016
 3557SOL    HW111213   2.675   1.389   0.104
 3557SOL    HW211214   2.765   1.459  -0.014
 3558SOL     OW11215   2.523   1.790   0.953
 3558SOL    HW111216   2.477   1.878   0.940
 3558SOL    HW211217   2.622   1.802   0.946
 3559SOL     OW11218   2.721   0.956   0.861
 3559SOL    HW111219   2.775   0.887   0.909
 3559SOL    HW211220   2.689   1.025   0.927
 3560SOL     OW11221   2.945   0.984   0.087
 3560SOL    HW111222   2.922   1.037   0.005
 3560SOL    HW211223   3.026   0.928   0.068
 3561SOL     OW11224   3.723   1.569   0.851
 3561SOL    HW111225   3.652   1.557   0.781
 3561SOL    HW211226   3.724   1.490   0.911
 3562SOL     OW11227   2.083   1.314   1.844
 3562SOL    HW111228   2.018   1.241   1.823
 3562SOL    HW211229   2.087   1.328   1.942
 3563SOL     OW11230   1.941   1.240   0.653
 3563SOL    HW111231   1.940   1.193   0.741
 3563SOL    HW211232   2.023   1.212   0.602
 3564SOL     OW11233   2.534   1.391   1.624
 3564SOL    HW111234   2.456   1.341   1.662
 3564SOL    HW211235   2.531   1.486   1.655
 3565SOL     OW11236   3.686   0.192   1.227
 3565SOL    HW111237   3.682   0.102   1.271
 3565SOL    HW211238   3.689   0.181   1.128
 3566SOL     OW11239   2.290   0.424   0.520
 3566SOL    HW111240   2.320   0.352   0.458
 3566SOL    HW211241   2.251   0.384   0.603
 3567SOL     OW11242   3.567   1.487   1.104
 3567SOL    HW111243   3.474   1.462   1.077
 3567SOL    HW211244   3.593   1.437   1.186
 3568SOL     OW11245   2.179   0.547   1.280
 3568SOL    HW111246   2.217   0.488   1.352
 3568SOL    HW211247   2.219   0.521   1.192
 3569SOL     OW11248   2.674   1.586   0.687
 3569SOL    HW111249   2.706   1.596   0.593
 3569SOL    HW211250   2.595   1.524   0.689
 3570SOL     OW11251   3.286   0.214   1.112
 3570SOL    HW111252   3.338   0.149   1.167
 3570SOL    HW211253   3.237   0.277   1.173
 3571SOL     OW11254   2.863   0.034   1.154
 3571SOL    HW111255   2.800  -0.038   1.123
 3571SOL    HW211256   2.956  -0.002   1.154
 3572SOL     OW11257   2.632   1.330   0.301
 3572SOL    HW111258   2.586   1.243   0.318
 3572SOL    HW211259   2.723   1.327   0.342
 3573SOL     OW11260   2.480   1.567   1.284
 3573SOL    HW111261   2.475   1.649   1.341
 3573SOL    HW211262   2.569   1.564   1.239
 3574SOL     OW11263   3.214   0.052   0.168
 3574SOL    HW111264   3.249   0.011   0.084
 3574SOL    HW211265   3.124   0.014   0.188
 3575SOL     OW11266   3.162   0.453   0.691
 3575SOL    HW111267   3.103   0.533   0.695
 3575SOL    HW211268   3.177   0.418   0.784
 3576SOL     OW11269   3.455   0.221   0.882
 3576SOL    HW111270   3.371   0.220   0.936
 3576SOL    HW211271   3.457   0.304   0.826
 3577SOL     OW11272   1.901   1.077   0.300
 3577SOL    HW111273   2.000   1.066   0.291
 3577SOL    HW211274   1.861   0.991   0.332
 3578SOL     OW11275   2.737   1.646   0.337
 3578SOL    HW111276   2.660   1.611   0.283
 3578SOL    HW211277   2.705   1.717   0.399
 3579SOL     OW11278   2.092   0.628   1.975
 3579SOL    HW111279   1.999   0.626   2.012
 3579SOL    HW211280   2.093   0.589   1.883
 3580SOL     OW11281   2.087   0.275   2.858
 3580SOL    HW111282   2.122   0.258   2.950
 3580SOL    HW211283   1.999   0.230   2.846
 3581SOL     OW11284   1.881   0.368   2.509
 3581SOL    HW111285   1.799   0.411   2.548
 3581SOL    HW211286   1.853   0.295   2.446
 3582SOL     OW11287   2.431   1.275   3.027
 3582SOL    HW111288   2.338   1.268   2.990
 3582SOL    HW211289   2.442   1.364   3.071
 3583SOL     OW11290   3.417   1.511   2.565
 3583SOL    HW111291   3.360   1.495   2.646
 3583SOL    HW211292   3.358   1.521   2.485
 3584SOL     OW11293   2.997   0.703   2.579
 3584SOL    HW111294   3.054   0.781   2.554
 3584SOL    HW211295   2.937   0.729   2.655
 3585SOL     OW11296   3.617   0.607   2.093
 3585SOL    HW111297   3.605   0.594   1.994
 3585SOL    HW211298   3.587   0.526   2.142
 3586SOL     OW11299   2.630   1.144   2.885
 3586SOL    HW111300   2.552   1.161   2.945
 3586SOL    HW211301   2.664   1.231   2.849
 3587SOL     OW11302   2.712   0.798   3.685
 3587SOL    HW111303   2.708   0.874   3.750
 3587SOL    HW211304   2.734   0.834   3.594
 3588SOL     OW11305   2.547   1.012   2.527
 3588SOL    HW111306   2.616   0.996   2.597
 3588SOL    HW211307   2.474   1.069   2.565
 3589SOL     OW11308   2.548   1.161   3.665
 3589SOL    HW111309   2.608   1.240   3.679
 3589SOL    HW211310   2.462   1.192   3.624
 3590SOL     OW11311   2.197   1.435   2.923
 3590SOL    HW111312   2.119   1.404   2.870
 3590SOL    HW211313   2.255   1.493   2.866
 3591SOL     OW11314   3.322   1.505   3.201
 3591SOL    HW111315   3.346   1.599   3.227
 3591SOL    HW211316   3.306   1.451   3.283
 3592SOL     OW11317   2.300   0.392   3.361
 3592SOL    HW111318   2.382   0.336   3.370
 3592SOL    HW211319   2.219   0.334   3.365
 3593SOL     OW11320   3.465   0.447   2.599
 3593SOL    HW111321   3.391   0.493   2.549
 3593SOL    HW211322   3.516   0.515   2.652
 3594SOL     OW11323   2.093   1.713   2.345
 3594SOL    HW111324   2.127   1.790   2.399
 3594SOL    HW211325   2.137   1.713   2.255
 3595SOL     OW11326   2.989   1.341   3.552
 3595SOL    HW111327   3.036   1.341   3.640
 3595SOL    HW211328   2.941   1.254   3.541
 3596SOL     OW11329   2.092   1.434   2.400
 3596SOL    HW111330   2.066   1.530   2.400
 3596SOL    HW211331   2.021   1.380   2.445
 3597SOL     OW11332   2.102   1.091   2.748
 3597SOL    HW111333   2.116   1.007   2.800
 3597SOL    HW211334   2.047   1.155   2.803
 3598SOL     OW11335   2.482   1.786   3.301
 3598SOL    HW111336   2.390   1.769   3.336
 3598SOL    HW211337   2.510   1.878   3.327
 3599SOL     OW11338   2.468   0.964   1.985
 3599SOL    HW111339   2.475   1.048   1.931
 3599SOL    HW211340   2.514   0.977   2.073
 3600SOL     OW11341   3.456   0.114   3.342
 3600SOL    HW111342   3.438   0.181   3.270
 3600SOL    HW211343   3.453   0.160   3.431
 3601SOL     OW11344   1.984   0.643   2.425
 3601SOL    HW111345   1.939   0.555   2.442
 3601SOL    HW211346   1.983   0.697   2.509
 3602SOL     OW11347   3.704   1.767   2.221
 3602SOL    HW111348   3.758   1.738   2.301
 3602SOL    HW211349   3.734   1.857   2.192
 3603SOL     OW11350   1.889   1.596   1.979
 3603SOL    HW111351   1.870   1.500   2.000
 3603SOL    HW211352   1.856   1.654   2.054
 3604SOL     OW11353   3.551   0.922   2.474
 3604SOL    HW111354   3.646   0.893   2.482
 3604SOL    HW211355   3.543   0.987   2.399
 3605SOL     OW11356   3.503   1.108   2.294
 3605SOL    HW111357   3.589   1.110   2.242
 3605SOL    HW211358   3.517   1.155   2.382
 3606SOL     OW11359   1.975   0.737   3.459
 3606SOL    HW111360   2.063   0.724   3.504
 3606SOL    HW211361   1.962   0.834   3.437
 3607SOL     OW11362   2.475   1.365   2.588
 3607SOL    HW111363   2.426   1.278   2.597
 3607SOL    HW211364   2.452   1.408   2.501
 3608SOL     OW11365   3.155   1.228   3.285
 3608SOL    HW111366   3.192   1.155   3.227
 3608SOL    HW211367   3.207   1.233   3.370
 3609SOL     OW11368   2.671   0.004   2.364
 3609SOL    HW111369   2.711   0.095   2.355
 3609SOL    HW211370   2.571   0.012   2.370
 3610SOL     OW11371   2.059   0.976   3.126
 3610SOL    HW111372   2.148   0.931   3.112
 3610SOL    HW211373   1.986   0.911   3.107
 3611SOL     OW11374   3.387   0.999   2.052
 3611SOL    HW111375   3.324   0.923   2.065
 3611SOL    HW211376   3.435   1.017   2.138
 3612SOL     OW11377   3.049   1.792   3.478
 3612SOL    HW111378   3.073   1.852   3.402
 3612SOL    HW211379   3.056   1.697   3.448
 3613SOL     OW11380   2.179   0.251   3.663
 3613SOL    HW111381   2.250   0.322   3.669
 3613SOL    HW211382   2.091   0.290   3.691
 3614SOL     OW11383   3.328   1.417   2.815
 3614SOL    HW111384   3.269   1.423   2.895
 3614SOL    HW211385   3.313   1.329   2.769
 3615SOL     OW11386   3.529   1.714   2.434
 3615SOL    HW111387   3.488   1.691   2.346
 3615SOL    HW211388   3.511   1.640   2.499
 3616SOL     OW11389   2.460   0.729   2.132
 3616SOL    HW111390   2.484   0.798   2.064
 3616SOL    HW211391   2.382   0.762   2.186
 3617SOL     OW11392   3.143   0.345   2.806
 3617SOL    HW111393   3.057   0.295   2.793
 3617SOL    HW211394   3.205   0.291   2.862
 3618SOL     OW11395   3.438   1.662   2.169
 3618SOL    HW111396   3.527   1.708   2.172
 3618SOL    HW211397   3.417   1.638   2.074
 3619SOL     OW11398   2.669   0.605   3.327
 3619SOL    HW111399   2.622   0.602   3.416
 3619SOL    HW211400   2.618   0.550   3.261
 3620SOL     OW11401   3.256   0.469   3.536
 3620SOL    HW111402   3.236   0.512   3.624
 3620SOL    HW211403   3.334   0.407   3.545
 3621SOL     OW11404   2.835   0.890   3.434
 3621SOL    HW111405   2.881   0.806   3.405
 3621SOL    HW211406   2.779   0.924   3.359
 3622SOL     OW11407   2.853   0.410   3.104
 3622SOL    HW111408   2.776   0.444   3.158
 3622SOL    HW211409   2.819   0.359   3.025
 3623SOL     OW11410   2.903   0.701   2.291
 3623SOL    HW111411   2.929   0.697   2.387
 3623SOL    HW211412   2.818   0.650   2.277
 3624SOL     OW11413   1.938   0.811   2.651
 3624SOL    HW111414   2.037   0.799   2.660
 3624SOL    HW211415   1.914   0.906   2.672
 3625SOL     OW11416   2.727   0.348   2.057
 3625SOL    HW111417   2.786   0.411   2.008
 3625SOL    HW211418   2.746   0.254   2.028
 3626SOL     OW11419   3.581   0.585   3.693
 3626SOL    HW111420   3.555   0.674   3.657
 3626SOL    HW211421   3.579   0.517   3.620
 3627SOL     OW11422   3.224   1.144   2.407
 3627SOL    HW111423   3.307   1.115   2.359
 3627SOL    HW211424   3.175   1.211   2.351
 3628SOL     OW11425   2.412   0.196   2.747
 3628SOL    HW111426   2.407   0.191   2.847
 3628SOL    HW211427   2.414   0.292   2.718
 3629SOL     OW11428   2.870   1.456   2.339
 3629SOL    HW111429   2.824   1.528   2.287
 3629SOL    HW211430   2.866   1.476   2.437
 3630SOL     OW11431   2.213   1.801   2.715
 3630SOL    HW111432   2.263   1.715   2.721
 3630SOL    HW211433   2.278   1.878   2.712
 3631SOL     OW11434   3.657   1.066   2.735
 3631SOL    HW111435   3.595   1.051   2.659
 3631SOL    HW211436   3.605   1.077   2.820
 3632SOL     OW11437   3.089   1.550   3.368
 3632SOL    HW111438   3.095   1.473   3.432
 3632SOL    HW211439   3.037   1.524   3.288
 3633SOL     OW11440   2.183   0.943   2.104
 3633SOL    HW111441   2.265   0.982   2.062
 3633SOL    HW211442   2.156   0.861   2.055
 3634SOL     OW11443   3.320   0.735   2.590
 3634SOL    HW111444   3.315   0.670   2.665
 3634SOL    HW211445   3.400   0.794   2.603
 3635SOL     OW11446   2.323   1.266   3.589
 3635SOL    HW111447   2.273   1.267   3.503
 3635SOL    HW211448   2.260   1.248   3.665
 3636SOL     OW11449   2.973   1.776   2.099
 3636SOL    HW111450   2.913   1.714   2.149
 3636SOL    HW211451   3.004   1.732   2.014
 3637SOL     OW11452   2.064   0.285   3.360
 3637SOL    HW111453   1.984   0.345   3.347
 3637SOL    HW211454   2.054   0.236   3.446
 3638SOL     OW11455   3.494   1.377   1.943
 3638SOL    HW111456   3.462   1.471   1.933
 3638SOL    HW211457   3.418   1.314   1.931
 3639SOL     OW11458   2.326   1.743   2.185
 3639SOL    HW111459   2.359   1.782   2.271
 3639SOL    HW211460   2.402   1.736   2.120
 3640SOL     OW11461   3.262   0.107   2.288
 3640SOL    HW111462   3.238   0.070   2.198
 3640SOL    HW211463   3.361   0.123   2.292
 3641SOL     OW11464   2.111   1.785   3.103
 3641SOL    HW111465   2.168   1.720   3.153
 3641SOL    HW211466   2.095   1.752   3.010
 3642SOL     OW11467   2.802   1.698   2.766
 3642SOL    HW111468   2.882   1.641   2.787
 3642SOL    HW211469   2.753   1.658   2.689
 3643SOL     OW11470   2.244   0.700   2.342
 3643SOL    HW111471   2.289   0.610   2.339
 3643SOL    HW211472   2.150   0.689   2.375
 3644SOL     OW11473   3.409   0.222   3.591
 3644SOL    HW111474   3.404   0.259   3.683
 3644SOL    HW211475   3.337   0.153   3.579
 3645SOL     OW11476   2.476   0.122   1.979
 3645SOL    HW111477   2.574   0.100   1.986
 3645SOL    HW211478   2.445   0.105   1.886
 3646SOL     OW11479   2.643   0.264   3.611
 3646SOL    HW111480   2.710   0.203   3.654
 3646SOL    HW211481   2.570   0.283   3.676
 3647SOL     OW11482   2.750   1.514   3.057
 3647SOL    HW111483   2.727   1.489   2.963
 3647SOL    HW211484   2.811   1.445   3.096
 3648SOL     OW11485   3.213   0.590   3.295
 3648SOL    HW111486   3.241   0.547   3.380
 3648SOL    HW211487   3.238   0.686   3.296
 3649SOL     OW11488   2.665   1.402   2.786
 3649SOL    HW111489   2.755   1.416   2.744
 3649SOL    HW211490   2.594   1.404   2.715
 3650SOL     OW11491   2.784   0.503   2.761
 3650SOL    HW111492   2.759   0.494   2.665
 3650SOL    HW211493   2.832   0.421   2.792
 3651SOL     OW11494   2.401   0.064   2.374
 3651SOL    HW111495   2.320   0.065   2.432
 3651SOL    HW211496   2.404   0.147   2.319
 3652SOL     OW11497   3.296   1.188   1.903
 3652SOL    HW111498   3.328   1.112   1.960
 3652SOL    HW211499   3.204   1.215   1.933
 3653SOL     OW11500   2.159   0.035   2.033
 3653SOL    HW111501   2.208   0.119   2.012
 3653SOL    HW211502   2.221  -0.030   2.078
 3654SOL     OW11503   2.797   0.236   2.342
 3654SOL    HW111504   2.749   0.277   2.264
 3654SOL    HW211505   2.896   0.234   2.323
 3655SOL     OW11506   2.938   0.683   3.326
 3655SOL    HW111507   2.858   0.622   3.329
 3655SOL    HW211508   3.019   0.630   3.302
 3656SOL     OW11509   3.089   1.570   2.655
 3656SOL    HW111510   3.110   1.644   2.590
 3656SOL    HW211511   3.157   1.570   2.728
 3657SOL     OW11512   2.321   1.152   2.603
 3657SOL    HW111513   2.250   1.125   2.668
 3657SOL    HW211514   2.295   1.124   2.510
 3658SOL     OW11515   3.133   1.797   2.453
 3658SOL    HW111516   3.177   1.861   2.389
 3658SOL    HW211517   3.083   1.849   2.523
 3659SOL     OW11518   2.894   0.549   1.878
 3659SOL    HW111519   2.853   0.631   1.839
 3659SOL    HW211520   2.958   0.575   1.951
 3660SOL     OW11521   1.940   0.556   3.248
 3660SOL    HW111522   2.032   0.555   3.207
 3660SOL    HW211523   1.934   0.630   3.315
 3661SOL     OW11524   2.423   0.222   3.009
 3661SOL    HW111525   2.461   0.138   3.046
 3661SOL    HW211526   2.335   0.241   3.053
 3662SOL     OW11527   2.728   0.454   2.504
 3662SOL    HW111528   2.696   0.526   2.442
 3662SOL    HW211529   2.752   0.373   2.451
 3663SOL     OW11530   2.879   0.039   2.615
 3663SOL    HW111531   2.807   0.044   2.546
 3663SOL    HW211532   2.855  -0.030   2.684
 3664SOL     OW11533   3.291   1.173   2.729
 3664SOL    HW111534   3.236   1.089   2.722
 3664SOL    HW211535   3.317   1.202   2.637
 3665SOL     OW11536   3.328   0.590   2.854
 3665SOL    HW111537   3.298   0.495   2.861
 3665SOL    HW211538   3.401   0.606   2.920
 3666SOL     OW11539   3.719   0.833   2.239
 3666SOL    HW111540   3.761   0.769   2.303
 3666SOL    HW211541   3.681   0.782   2.161
 3667SOL     OW11542   2.350   1.385   2.036
 3667SOL    HW111543   2.263   1.370   2.083
 3667SOL    HW211544   2.333   1.411   1.941
 3668SOL     OW11545   3.526   1.280   2.519
 3668SOL    HW111546   3.625   1.288   2.533
 3668SOL    HW211547   3.481   1.364   2.550
 3669SOL     OW11548   3.252   0.575   1.940
 3669SOL    HW111549   3.198   0.554   2.021
 3669SOL    HW211550   3.343   0.534   1.949
 3670SOL     OW11551   2.389   0.256   2.190
 3670SOL    HW111552   2.416   0.197   2.115
 3670SOL    HW211553   2.389   0.351   2.159
 3671SOL     OW11554   3.616   1.223   3.450
 3671SOL    HW111555   3.707   1.184   3.437
 3671SOL    HW211556   3.624   1.319   3.474
 3672SOL     OW11557   2.926   1.347   3.202
 3672SOL    HW111558   2.846   1.324   3.257
 3672SOL    HW211559   3.009   1.321   3.251
 3673SOL     OW11560   3.454   1.629   3.487
 3673SOL    HW111561   3.481   1.663   3.397
 3673SOL    HW211562   3.533   1.591   3.533
 3674SOL     OW11563   2.973   1.195   2.962
 3674SOL    HW111564   2.933   1.239   3.043
 3674SOL    HW211565   2.932   1.232   2.879
 3675SOL     OW11566   3.500   1.099   2.941
 3675SOL    HW111567   3.505   1.180   3.000
 3675SOL    HW211568   3.414   1.101   2.890
 3676SOL     OW11569   2.777   0.089   3.264
 3676SOL    HW111570   2.802   0.069   3.169
 3676SOL    HW211571   2.849   0.145   3.306
 3677SOL     OW11572   2.842   1.116   3.581
 3677SOL    HW111573   2.743   1.122   3.591
 3677SOL    HW211574   2.865   1.036   3.525
 3678SOL     OW11575   2.567   1.050   2.230
 3678SOL    HW111576   2.553   1.057   2.329
 3678SOL    HW211577   2.651   0.999   2.212
 3679SOL     OW11578   2.272   0.813   3.113
 3679SOL    HW111579   2.358   0.825   3.163
 3679SOL    HW211580   2.230   0.726   3.140
 3680SOL     OW11581   3.136   0.386   3.124
 3680SOL    HW111582   3.157   0.460   3.188
 3680SOL    HW211583   3.047   0.403   3.081
 3681SOL     OW11584   1.926   1.564   3.193
 3681SOL    HW111585   1.880   1.646   3.159
 3681SOL    HW211586   2.024   1.583   3.202
 3682SOL     OW11587   2.229   1.100   2.363
 3682SOL    HW111588   2.222   1.183   2.307
 3682SOL    HW211589   2.233   1.020   2.303
 3683SOL     OW11590   2.428   0.537   2.727
 3683SOL    HW111591   2.440   0.603   2.653
 3683SOL    HW211592   2.474   0.571   2.810
 3684SOL     OW11593   3.114   1.348   2.250
 3684SOL    HW111594   3.164   1.425   2.290
 3684SOL    HW211595   3.019   1.350   2.282
 3685SOL     OW11596   3.134   1.445   3.004
 3685SOL    HW111597   3.181   1.458   3.091
 3685SOL    HW211598   3.068   1.371   3.013
 3686SOL     OW11599   3.444   0.639   2.334
 3686SOL    HW111600   3.413   0.700   2.407
 3686SOL    HW211601   3.494   0.691   2.265
 3687SOL     OW11602   2.216   1.510   3.191
 3687SOL    HW111603   2.195   1.466   3.104
 3687SOL    HW211604   2.313   1.536   3.194
 3688SOL     OW11605   2.264   0.751   3.460
 3688SOL    HW111606   2.332   0.806   3.413
 3688SOL    HW211607   2.304   0.663   3.487
 3689SOL     OW11608   3.449   0.779   3.532
 3689SOL    HW111609   3.357   0.817   3.527
 3689SOL    HW211610   3.509   0.826   3.467
 3690SOL     OW11611   2.875   0.105   3.632
 3690SOL    HW111612   2.881   0.190   3.580
 3690SOL    HW211613   2.907   0.029   3.575
 3691SOL     OW11614   2.366   0.050   3.602
 3691SOL    HW111615   2.324  -0.007   3.532
 3691SOL    HW211616   2.300   0.119   3.634
 3692SOL     OW11617   2.435   0.870   2.891
 3692SOL    HW111618   2.479   0.959   2.882
 3692SOL    HW211619   2.372   0.870   2.968
 3693SOL     OW11620   3.222   0.862   2.907
 3693SOL    HW111621   3.147   0.862   2.841
 3693SOL    HW211622   3.259   0.770   2.916
 3694SOL     OW11623   3.071   0.525   2.137
 3694SOL    HW111624   3.084   0.441   2.191
 3694SOL    HW211625   3.042   0.599   2.197
 3695SOL     OW11626   2.169   0.213   3.093
 3695SOL    HW111627   2.146   0.250   3.183
 3695SOL    HW211628   2.139   0.118   3.087
 3696SOL     OW11629   1.899   1.310   3.144
 3696SOL    HW111630   1.952   1.261   3.212
 3696SOL    HW211631   1.921   1.408   3.149
 3697SOL     OW11632   2.594   0.634   2.926
 3697SOL    HW111633   2.653   0.608   2.850
 3697SOL    HW211634   2.566   0.730   2.915
 3698SOL     OW11635   3.590   0.935   3.716
 3698SOL    HW111636   3.544   0.928   3.627
 3698SOL    HW211637   3.528   0.979   3.782
 3699SOL     OW11638   2.169   0.063   2.480
 3699SOL    HW111639   2.158   0.157   2.513
 3699SOL    HW211640   2.164   0.000   2.557
 3700SOL     OW11641   3.484   0.367   2.236
 3700SOL    HW111642   3.486   0.291   2.300
 3700SOL    HW211643   3.436   0.444   2.276
 3701SOL     OW11644   2.885   0.766   2.828
 3701SOL    HW111645   2.900   0.787   2.924
 3701SOL    HW211646   2.855   0.671   2.819
 3702SOL     OW11647   2.842   1.573   3.562
 3702SOL    HW111648   2.822   1.617   3.474
 3702SOL    HW211649   2.881   1.482   3.546
 3703SOL     OW11650   3.721   1.518   3.467
 3703SOL    HW111651   3.735   1.545   3.372
 3703SOL    HW211652   3.804   1.540   3.520
 3704SOL     OW11653   2.212   0.898   3.666
 3704SOL    HW111654   2.288   0.942   3.714
 3704SOL    HW211655   2.247   0.851   3.584
 3705SOL     OW11656   3.402   0.274   1.987
 3705SOL    HW111657   3.341   0.199   2.010
 3705SOL    HW211658   3.424   0.326   2.070
 3706SOL     OW11659   3.165   0.838   1.904
 3706SOL    HW111660   3.199   0.745   1.919
 3706SOL    HW211661   3.183   0.865   1.809
 3707SOL     OW11662   2.930   1.333   2.711
 3707SOL    HW111663   2.937   1.249   2.656
 3707SOL    HW211664   2.992   1.402   2.675
 3708SOL     OW11665   2.181   0.810   2.811
 3708SOL    HW111666   2.274   0.846   2.816
 3708SOL    HW211667   2.175   0.725   2.863
 3709SOL     OW11668   2.201   0.509   2.868
 3709SOL    HW111669   2.149   0.426   2.851
 3709SOL    HW211670   2.278   0.514   2.804
 3710SOL     OW11671   3.000   0.380   3.540
 3710SOL    HW111672   2.955   0.443   3.604
 3710SOL    HW211673   3.093   0.411   3.523
 3711SOL     OW11674   3.022   0.207   3.339
 3711SOL    HW111675   3.022   0.271   3.416
 3711SOL    HW211676   3.050   0.255   3.256
 3712SOL     OW11677   1.870   1.326   2.062
 3712SOL    HW111678   1.777   1.347   2.031
 3712SOL    HW211679   1.880   1.227   2.075
 3713SOL     OW11680   1.950   1.801   2.789
 3713SOL    HW111681   1.908   1.715   2.762
 3713SOL    HW211682   2.044   1.804   2.755
 3714SOL     OW11683   2.366   1.568   2.772
 3714SOL    HW111684   2.432   1.642   2.781
 3714SOL    HW211685   2.410   1.489   2.730
 3715SOL     OW11686   2.864   0.796   3.100
 3715SOL    HW111687   2.905   0.764   3.186
 3715SOL    HW211688   2.768   0.769   3.097
 3716SOL     OW11689   1.902   0.544   2.976
 3716SOL    HW111690   1.987   0.511   2.935
 3716SOL    HW211691   1.915   0.559   3.074
 3717SOL     OW11692   2.051   0.520   3.584
 3717SOL    HW111693   2.110   0.480   3.514
 3717SOL    HW211694   1.993   0.591   3.543
 3718SOL     OW11695   3.231   0.950   3.522
 3718SOL    HW111696   3.270   1.039   3.542
 3718SOL    HW211697   3.241   0.930   3.425
 3719SOL     OW11698   2.677   0.572   2.187
 3719SOL    HW111699   2.684   0.483   2.141
 3719SOL    HW211700   2.583   0.606   2.179
 3720SOL     OW11701   3.519   0.604   3.068
 3720SOL    HW111702   3.481   0.535   3.130
 3720SOL    HW211703   3.601   0.568   3.024
 3721SOL     OW11704   2.114   1.564   3.606
 3721SOL    HW111705   2.084   1.621   3.682
 3721SOL    HW211706   2.107   1.467   3.632
 3722SOL     OW11707   2.533   0.464   3.131
 3722SOL    HW111708   2.499   0.375   3.101
 3722SOL    HW211709   2.559   0.518   3.051
 3723SOL     OW11710   2.792   1.678   3.327
 3723SOL    HW111711   2.768   1.660   3.232
 3723SOL    HW211712   2.822   1.772   3.337
 3724SOL     OW11713   2.335   0.500   2.053
 3724SOL    HW111714   2.396   0.580   2.057
 3724SOL    HW211715   2.240   0.531   2.060
 3725SOL     OW11716   2.021   1.137   3.328
 3725SOL    HW111717   2.043   1.076   3.404
 3725SOL    HW211718   2.031   1.088   3.242
 3726SOL     OW11719   3.209   1.059   3.096
 3726SOL    HW111720   3.233   0.996   3.022
 3726SOL    HW211721   3.119   1.099   3.078
 3727SOL     OW11722   3.164   0.855   2.171
 3727SOL    HW111723   3.078   0.824   2.213
 3727SOL    HW211724   3.160   0.841   2.072
 3728SOL     OW11725   3.621   1.747   3.016
 3728SOL    HW111726   3.682   1.777   2.943
 3728SOL    HW211727   3.583   1.658   2.994
 3729SOL     OW11728   3.114   1.731   2.990
 3729SOL    HW111729   3.198   1.736   2.936
 3729SOL    HW211730   3.091   1.635   3.008
 3730SOL     OW11731   1.945   1.258   2.884
 3730SOL    HW111732   1.940   1.257   2.984
 3730SOL    HW211733   1.862   1.217   2.846
 3731SOL     OW11734   2.550   1.662   3.578
 3731SOL    HW111735   2.494   1.743   3.587
 3731SOL    HW211736   2.602   1.666   3.492
 3732SOL     OW11737   3.588   0.135   2.385
 3732SOL    HW111738   3.661   0.118   2.318
 3732SOL    HW211739   3.557   0.048   2.423
 3733SOL     OW11740   3.250   1.573   2.339
 3733SOL    HW111741   3.317   1.585   2.265
 3733SOL    HW211742   3.210   1.662   2.362
 3734SOL     OW11743   1.992   1.794   3.713
 3734SOL    HW111744   1.951   1.720   3.766
 3734SOL    HW211745   2.056   1.845   3.771
 3735SOL     OW11746   3.142   0.927   2.534
 3735SOL    HW111747   3.202   0.846   2.536
 3735SOL    HW211748   3.182   0.996   2.474
 3736SOL     OW11749   2.692   1.273   3.284
 3736SOL    HW111750   2.687   1.306   3.379
 3736SOL    HW211751   2.606   1.292   3.238
 3737SOL     OW11752   2.534   1.616   2.016
 3737SOL    HW111753   2.543   1.626   1.917
 3737SOL    HW211754   2.494   1.527   2.037
 3738SOL     OW11755   3.512   1.720   3.256
 3738SOL    HW111756   3.565   1.730   3.172
 3738SOL    HW211757   3.485   1.810   3.290
 3739SOL     OW11758   3.703   0.175   2.825
 3739SOL    HW111759   3.742   0.090   2.789
 3739SOL    HW211760   3.605   0.177   2.806
 3740SOL     OW11761   2.125   0.326   2.582
 3740SOL    HW111762   2.046   0.377   2.548
 3740SOL    HW211763   2.116   0.311   2.680
 3741SOL     OW11764   3.056   1.612   1.893
 3741SOL    HW111765   3.062   1.519   1.930
 3741SOL    HW211766   2.997   1.612   1.813
 3742SOL     OW11767   2.684   1.002   3.234
 3742SOL    HW111768   2.724   1.001   3.142
 3742SOL    HW211769   2.694   1.094   3.274
 3743SOL     OW11770   2.778   0.910   2.153
 3743SOL    HW111771   2.841   0.948   2.085
 3743SOL    HW211772   2.818   0.827   2.192
 3744SOL     OW11773   3.366   1.607   1.906
 3744SOL    HW111774   3.274   1.644   1.913
 3744SOL    HW211775   3.404   1.627   1.816
 3745SOL     OW11776   2.234   1.288   3.352
 3745SOL    HW111777   2.221   1.381   3.318
 3745SOL    HW211778   2.150   1.236   3.339
 3746SOL     OW11779   3.476   1.292   3.151
 3746SOL    HW111780   3.536   1.295   3.231
 3746SOL    HW211781   3.401   1.356   3.164
 3747SOL     OW11782   2.901   1.098   2.558
 3747SOL    HW111783   2.831   1.051   2.612
 3747SOL    HW211784   2.960   1.030   2.515
 3748SOL     OW11785   2.876   0.236   2.833
 3748SOL    HW111786   2.868   0.200   2.740
 3748SOL    HW211787   2.874   0.160   2.898
 3749SOL     OW11788   2.452   1.487   2.353
 3749SOL    HW111789   2.494   1.429   2.283
 3749SOL    HW211790   2.408   1.566   2.309
 3750SOL     OW11791   3.571   0.385   3.243
 3750SOL    HW111792   3.644   0.454   3.247
 3750SOL    HW211793   3.599   0.310   3.184
 3751SOL     OW11794   2.117   1.348   2.152
 3751SOL    HW111795   2.021   1.349   2.125
 3751SOL    HW211796   2.129   1.401   2.236
 3752SOL     OW11797   1.967   1.013   3.588
 3752SOL    HW111798   1.890   0.980   3.642
 3752SOL    HW211799   2.052   0.983   3.630
 3753SOL     OW11800   2.534   0.203   3.351
 3753SOL    HW111801   2.624   0.187   3.311
 3753SOL    HW211802   2.542   0.208   3.450
 3754SOL     OW11803   1.937   0.345   1.895
 3754SOL    HW111804   1.845   0.317   1.866
 3754SOL    HW211805   1.968   0.422   1.839
 3755SOL     OW11806   3.302   0.856   3.260
 3755SOL    HW111807   3.245   0.908   3.197
 3755SOL    HW211808   3.398   0.868   3.236
 3756SOL     OW11809   1.934   0.166   2.180
 3756SOL    HW111810   1.917   0.249   2.126
 3756SOL    HW211811   2.024   0.129   2.158
 3757SOL     OW11812   3.045   1.335   1.981
 3757SOL    HW111813   2.946   1.324   1.983
 3757SOL    HW211814   3.079   1.350   2.074
 3758SOL     OW11815   2.475   0.842   3.293
 3758SOL    HW111816   2.531   0.923   3.276
 3758SOL    HW211817   2.534   0.762   3.296
 3759SOL     OW11818   3.355   1.767   2.821
 3759SOL    HW111819   3.388   1.831   2.752
 3759SOL    HW211820   3.421   1.761   2.896
 3760SOL     OW11821   2.578   0.565   3.570
 3760SOL    HW111822   2.597   0.630   3.644
 3760SOL    HW211823   2.638   0.485   3.579
 3761SOL     OW11824   3.312   1.220   3.495
 3761SOL    HW111825   3.303   1.210   3.594
 3761SOL    HW211826   3.408   1.213   3.469
 3762SOL     OW11827   2.252   1.741   3.422
 3762SOL    HW111828   2.161   1.782   3.420
 3762SOL    HW211829   2.245   1.647   3.454
 3763SOL     OW11830   3.536   0.883   3.116
 3763SOL    HW111831   3.509   0.794   3.079
 3763SOL    HW211832   3.537   0.951   3.043
 3764SOL     OW11833   3.087   0.325   2.311
 3764SOL    HW111834   3.152   0.251   2.300
 3764SOL    HW211835   3.107   0.375   2.395
 3765SOL     OW11836   2.456   0.745   2.514
 3765SOL    HW111837   2.506   0.830   2.495
 3765SOL    HW211838   2.368   0.747   2.466
 3766SOL     OW11839   3.639   0.342   3.504
 3766SOL    HW111840   3.622   0.373   3.410
 3766SOL    HW211841   3.555   0.305   3.542
 3767SOL     OW11842   3.592   0.934   3.379
 3767SOL    HW111843   3.630   1.025   3.394
 3767SOL    HW211844   3.584   0.917   3.280
 3768SOL     OW11845   2.721   1.374   1.878
 3768SOL    HW111846   2.675   1.389   1.966
 3768SOL    HW211847   2.765   1.459   1.848
 3769SOL     OW11848   2.523   1.790   2.815
 3769SOL    HW111849   2.477   1.878   2.802
 3769SOL    HW211850   2.622   1.802   2.808
 3770SOL     OW11851   2.721   0.956   2.723
 3770SOL    HW111852   2.775   0.887   2.771
 3770SOL    HW211853   2.689   1.025   2.789
 3771SOL     OW11854   2.945   0.984   1.949
 3771SOL    HW111855   2.922   1.037   1.867
 3771SOL    HW211856   3.026   0.928   1.930
 3772SOL     OW11857   3.723   1.569   2.713
 3772SOL    HW111858   3.652   1.557   2.643
 3772SOL    HW211859   3.724   1.490   2.773
 3773SOL     OW11860   2.083   1.314   3.706
 3773SOL    HW111861   2.018   1.241   3.685
 3773SOL    HW211862   2.087   1.328   3.804
 3774SOL     OW11863   1.941   1.240   2.515
 3774SOL    HW111864   1.940   1.193   2.603
 3774SOL    HW211865   2.023   1.212   2.464
 3775SOL     OW11866   2.534   1.391   3.486
 3775SOL    HW111867   2.456   1.341   3.524
 3775SOL    HW211868   2.531   1.486   3.517
 3776SOL     OW11869   3.686   0.192   3.089
 3776SOL    HW111870   3.682   0.102   3.133
 3776SOL    HW211871   3.689   0.181   2.990
 3777SOL     OW11872   2.290   0.424   2.382
 3777SOL    HW111873   2.320   0.352   2.320
 3777SOL    HW211874   2.251   0.384   2.465
 3778SOL     OW11875   3.567   1.487   2.966
 3778SOL    HW111876   3.474   1.462   2.939
 3778SOL    HW211877   3.593   1.437   3.048
 3779SOL     OW11878   2.179   0.547   3.142
 3779SOL    HW111879   2.217   0.488   3.214
 3779SOL    HW211880   2.219   0.521   3.054
 3780SOL     OW11881   2.674   1.586   2.549
 3780SOL    HW111882   2.706   1.596   2.455
 3780SOL    HW211883   2.595   1.524   2.551
 3781SOL     OW11884   3.286   0.214   2.974
 3781SOL    HW111885   3.338   0.149   3.029
 3781SOL    HW211886   3.237   0.277   3.035
 3782SOL     OW11887   2.863   0.034   3.016
 3782SOL    HW111888   2.800  -0.038   2.985
 3782SOL    HW211889   2.956  -0.002   3.016
 3783SOL     OW11890   2.632   1.330   2.163
 3783SOL    HW111891   2.586   1.243   2.180
 3783SOL    HW211892   2.723   1.327   2.204
 3784SOL     OW11893   2.480   1.567   3.146
 3784SOL    HW111894   2.475   1.649   3.203
 3784SOL    HW211895   2.569   1.564   3.101
 3785SOL     OW11896   3.214   0.052   2.030
 3785SOL    HW111897   3.249   0.011   1.946
 3785SOL    HW211898   3.124   0.014   2.050
 3786SOL     OW11899   3.162   0.453   2.553
 3786SOL    HW111900   3.103   0.533   2.557
 3786SOL    HW211901   3.177   0.418   2.646
 3787SOL     OW11902   3.455   0.221   2.744
 3787SOL    HW111903   3.371   0.220   2.798
 3787SOL    HW211904   3.457   0.304   2.688
 3788SOL     OW11905   1.901   1.077   2.162
 3788SOL    HW111906   2.000   1.066   2.153
 3788SOL    HW211907   1.861   0.991   2.194
 3789SOL     OW11908   2.737   1.646   2.199
 3789SOL    HW111909   2.660   1.611   2.145
 3789SOL    HW211910   2.705   1.717   2.261
 3790SOL     OW11911   2.092   0.628   3.837
 3790SOL    HW111912   1.999   0.626   3.874
 3790SOL    HW211913   2.093   0.589   3.745
 3791SOL     OW11914   2.087   0.275   4.720
 3791SOL    HW111915   2.122   0.258   4.812
 3791SOL    HW211916   1.999   0.230   4.708
 3792SOL     OW11917   1.881   0.368   4.371
 3792SOL    HW111918   1.799   0.411   4.410
 3792SOL    HW211919   1.853   0.295   4.308
 3793SOL     OW11920   2.431   1.275   4.889
 3793SOL    HW111921   2.338   1.268   4.852
 3793SOL    HW211922   2.442   1.364   4.933
 3794SOL     OW11923   3.417   1.511   4.427
 3794SOL    HW111924   3.360   1.495   4.508
 3794SOL    HW211925   3.358   1.521   4.347
 3795SOL     OW11926   2.997   0.703   4.441
 3795SOL    HW111927   3.054   0.781   4.416
 3795SOL    HW211928   2.937   0.729   4.517
 3796SOL     OW11929   3.617   0.607   3.955
 3796SOL    HW111930   3.605   0.594   3.856
 3796SOL    HW211931   3.587   0.526   4.004
 3797SOL     OW11932   2.630   1.144   4.747
 3797SOL    HW111933   2.552   1.161   4.807
 3797SOL    HW211934   2.664   1.231   4.711
 3798SOL     OW11935   2.712   0.798   5.547
 3798SOL    HW111936   2.708   0.874   5.612
 3798SOL    HW211937   2.734   0.834   5.456
 3799SOL     OW11938   2.547   1.012   4.389
 3799SOL    HW111939   2.616   0.996   4.459
 3799SOL    HW211940   2.474   1.069   4.427
 3800SOL     OW11941   2.548   1.161   5.527
 3800SOL    HW111942   2.608   1.240   5.541
 3800SOL    HW211943   2.462   1.192   5.486
 3801SOL     OW11944   2.197   1.435   4.785
 3801SOL    HW111945   2.119   1.404   4.732
 3801SOL    HW211946   2.255   1.493   4.728
 3802SOL     OW11947   3.322   1.505   5.063
 3802SOL    HW111948   3.346   1.599   5.089
 3802SOL    HW211949   3.306   1.451   5.145
 3803SOL     OW11950   2.300   0.392   5.223
 3803SOL    HW111951   2.382   0.336   5.232
 3803SOL    HW211952   2.219   0.334   5.227
 3804SOL     OW11953   3.465   0.447   4.461
 3804SOL    HW111954   3.391   0.493   4.411
 3804SOL    HW211955   3.516   0.515   4.514
 3805SOL     OW11956   2.093   1.713   4.207
 3805SOL    HW111957   2.127   1.790   4.261
 3805SOL    HW211958   2.137   1.713   4.117
 3806SOL     OW11959   2.989   1.341   5.414
 3806SOL    HW111960   3.036   1.341   5.502
 3806SOL    HW211961   2.941   1.254   5.403
 3807SOL     OW11962   2.092   1.434   4.262
 3807SOL    HW111963   2.066   1.530   4.262
 3807SOL    HW211964   2.021   1.380   4.307
 3808SOL     OW11965   2.102   1.091   4.610
 3808SOL    HW111966   2.116   1.007   4.662
 3808SOL    HW211967   2.047   1.155   4.665
 3809SOL     OW11968   2.482   1.786   5.163
 3809SOL    HW111969   2.390   1.769   5.198
 3809SOL    HW211970   2.510   1.878   5.189
 3810SOL     OW11971   2.468   0.964   3.847
 3810SOL    HW111972   2.475   1.048   3.793
 3810SOL    HW211973   2.514   0.977   3.935
 3811SOL     OW11974   3.456   0.114   5.204
 3811SOL    HW111975   3.438   0.181   5.132
 3811SOL    HW211976   3.453   0.160   5.293
 3812SOL     OW11977   1.984   0.643   4.287
 3812SOL    HW111978   1.939   0.555   4.304
 3812SOL    HW211979   1.983   0.697   4.371
 3813SOL     OW11980   3.704   1.767   4.083
 3813SOL    HW111981   3.758   1.738   4.163
 3813SOL    HW211982   3.734   1.857   4.054
 3814SOL     OW11983   1.889   1.596   3.841
 3814SOL    HW111984   1.870   1.500   3.862
 3814SOL    HW211985   1.856   1.654   3.916
 3815SOL     OW11986   3.551   0.922   4.336
 3815SOL    HW111987   3.646   0.893   4.344
 3815SOL    HW211988   3.543   0.987   4.261
 3816SOL     OW11989   3.503   1.108   4.156
 3816SOL    HW111990   3.589   1.110   4.104
 3816SOL    HW211991   3.517   1.155   4.244
 3817SOL     OW11992   1.975   0.737   5.321
 3817SOL    HW111993   2.063   0.724   5.366
 3817SOL    HW211994   1.962   0.834   5.299
 3818SOL     OW11995   2.475   1.365   4.450
 3818SOL    HW111996   2.426   1.278   4.459
 3818SOL    HW211997   2.452   1.408   4.363
 3819SOL     OW11998   3.155   1.228   5.147
 3819SOL    HW111999   3.192   1.155   5.089
 3819SOL    HW212000   3.207   1.233   5.232
 3820SOL     OW12001   2.671   0.004   4.226
 3820SOL    HW112002   2.711   0.095   4.217
 3820SOL    HW212003   2.571   0.012   4.232
 3821SOL     OW12004   2.059   0.976   4.988
 3821SOL    HW112005   2.148   0.931   4.974
 3821SOL    HW212006   1.986   0.911   4.969
 3822SOL     OW12007   3.387   0.999   3.914
 3822SOL    HW112008   3.324   0.923   3.927
 3822SOL    HW212009   3.435   1.017   4.000
 3823SOL     OW12010   3.049   1.792   5.340
 3823SOL    HW112011   3.073   1.852   5.264
 3823SOL    HW212012   3.056   1.697   5.310
 3824SOL     OW12013   2.179   0.251   5.525
 3824SOL    HW112014   2.250   0.322   5.531
 3824SOL    HW212015   2.091   0.290   5.553
 3825SOL     OW12016   3.328   1.417   4.677
 3825SOL    HW112017   3.269   1.423   4.757
 3825SOL    HW212018   3.313   1.329   4.631
 3826SOL     OW12019   3.529   1.714   4.296
 3826SOL    HW112020   3.488   1.691   4.208
 3826SOL    HW212021   3.511   1.640   4.361
 3827SOL     OW12022   2.460   0.729   3.994
 3827SOL    HW112023   2.484   0.798   3.926
 3827SOL    HW212024   2.382   0.762   4.048
 3828SOL     OW12025   3.143   0.345   4.668
 3828SOL    HW112026   3.057   0.295   4.655
 3828SOL    HW212027   3.205   0.291   4.724
 3829SOL     OW12028   3.438   1.662   4.031
 3829SOL    HW112029   3.527   1.708   4.034
 3829SOL    HW212030   3.417   1.638   3.936
 3830SOL     OW12031   2.669   0.605   5.189
 3830SOL    HW112032   2.622   0.602   5.278
 3830SOL    HW212033   2.618   0.550   5.123
 3831SOL     OW12034   3.256   0.469   5.398
 3831SOL    HW112035   3.236   0.512   5.486
 3831SOL    HW212036   3.334   0.407   5.407
 3832SOL     OW12037   2.835   0.890   5.296
 3832SOL    HW112038   2.881   0.806   5.267
 3832SOL    HW212039   2.779   0.924   5.221
 3833SOL     OW12040   2.853   0.410   4.966
 3833SOL    HW112041   2.776   0.444   5.020
 3833SOL    HW212042   2.819   0.359   4.887
 3834SOL     OW12043   2.903   0.701   4.153
 3834SOL    HW112044   2.929   0.697   4.249
 3834SOL    HW212045   2.818   0.650   4.139
 3835SOL     OW12046   1.938   0.811   4.513
 3835SOL    HW112047   2.037   0.799   4.522
 3835SOL    HW212048   1.914   0.906   4.534
 3836SOL     OW12049   2.727   0.348   3.919
 3836SOL    HW112050   2.786   0.411   3.870
 3836SOL    HW212051   2.746   0.254   3.890
 3837SOL     OW12052   3.581   0.585   5.555
 3837SOL    HW112053   3.555   0.674   5.519
 3837SOL    HW212054   3.579   0.517   5.482
 3838SOL     OW12055   3.224   1.144   4.269
 3838SOL    HW112056   3.307   1.115   4.221
 3838SOL    HW212057   3.175   1.211   4.213
 3839SOL     OW12058   2.412   0.196   4.609
 3839SOL    HW112059   2.407   0.191   4.709
 3839SOL    HW212060   2.414   0.292   4.580
 3840SOL     OW12061   2.870   1.456   4.201
 3840SOL    HW112062   2.824   1.528   4.149
 3840SOL    HW212063   2.866   1.476   4.299
 3841SOL     OW12064   2.213   1.801   4.577
 3841SOL    HW112065   2.263   1.715   4.583
 3841SOL    HW212066   2.278   1.878   4.574
 3842SOL     OW12067   3.657   1.066   4.597
 3842SOL    HW112068   3.595   1.051   4.521
 3842SOL    HW212069   3.605   1.077   4.682
 3843SOL     OW12070   3.089   1.550   5.230
 3843SOL    HW112071   3.095   1.473   5.294
 3843SOL    HW212072   3.037   1.524   5.150
 3844SOL     OW12073   2.183   0.943   3.966
 3844SOL    HW112074   2.265   0.982   3.924
 3844SOL    HW212075   2.156   0.861   3.917
 3845SOL     OW12076   3.320   0.735   4.452
 3845SOL    HW112077   3.315   0.670   4.527
 3845SOL    HW212078   3.400   0.794   4.465
 3846SOL     OW12079   2.323   1.266   5.451
 3846SOL    HW112080   2.273   1.267   5.365
 3846SOL    HW212081   2.260   1.248   5.527
 3847SOL     OW12082   2.973   1.776   3.961
 3847SOL    HW112083   2.913   1.714   4.011
 3847SOL    HW212084   3.004   1.732   3.876
 3848SOL     OW12085   2.064   0.285   5.222
 3848SOL    HW112086   1.984   0.345   5.209
 3848SOL    HW212087   2.054   0.236   5.308
 3849SOL     OW12088   3.494   1.377   3.805
 3849SOL    HW112089   3.462   1.471   3.795
 3849SOL    HW212090   3.418   1.314   3.793
 3850SOL     OW12091   2.326   1.743   4.047
 3850SOL    HW112092   2.359   1.782   4.133
 3850SOL    HW212093   2.402   1.736   3.982
 3851SOL     OW12094   3.262   0.107   4.150
 3851SOL    HW112095   3.238   0.070   4.060
 3851SOL    HW212096   3.361   0.123   4.154
 3852SOL     OW12097   2.111   1.785   4.965
 3852SOL    HW112098   2.168   1.720   5.015
 3852SOL    HW212099   2.095   1.752   4.872
 3853SOL     OW12100   2.802   1.698   4.628
 3853SOL    HW112101   2.882   1.641   4.649
 3853SOL    HW212102   2.753   1.658   4.551
 3854SOL     OW12103   2.244   0.700   4.204
 3854SOL    HW112104   2.289   0.610   4.201
 3854SOL    HW212105   2.150   0.689   4.237
 3855SOL     OW12106   3.409   0.222   5.453
 3855SOL    HW112107   3.404   0.259   5.545
 3855SOL    HW212108   3.337   0.153   5.441
 3856SOL     OW12109   2.476   0.122   3.841
 3856SOL    HW112110   2.574   0.100   3.848
 3856SOL    HW212111   2.445   0.105   3.748
 3857SOL     OW12112   2.643   0.264   5.473
 3857SOL    HW112113   2.710   0.203   5.516
 3857SOL    HW212114   2.570   0.283   5.538
 3858SOL     OW12115   2.750   1.514   4.919
 3858SOL    HW112116   2.727   1.489   4.825
 3858SOL    HW212117   2.811   1.445   4.958
 3859SOL     OW12118   3.213   0.590   5.157
 3859SOL    HW112119   3.241   0.547   5.242
 3859SOL    HW212120   3.238   0.686   5.158
 3860SOL     OW12121   2.665   1.402   4.648
 3860SOL    HW112122   2.755   1.416   4.606
 3860SOL    HW212123   2.594   1.404   4.577
 3861SOL     OW12124   2.784   0.503   4.623
 3861SOL    HW112125   2.759   0.494   4.527
 3861SOL    HW212126   2.832   0.421   4.654
 3862SOL     OW12127   2.401   0.064   4.236
 3862SOL    HW112128   2.320   0.065   4.294
 3862SOL    HW212129   2.404   0.147   4.181
 3863SOL     OW12130   3.296   1.188   3.765
 3863SOL    HW112131   3.328   1.112   3.822
 3863SOL    HW212132   3.204   1.215   3.795
 3864SOL     OW12133   2.159   0.035   3.895
 3864SOL    HW112134   2.208   0.119   3.874
 3864SOL    HW212135   2.221  -0.030   3.940
 3865SOL     OW12136   2.797   0.236   4.204
 3865SOL    HW112137   2.749   0.277   4.126
 3865SOL    HW212138   2.896   0.234   4.185
 3866SOL     OW12139   2.938   0.683   5.188
 3866SOL    HW112140   2.858   0.622   5.191
 3866SOL    HW212141   3.019   0.630   5.164
 3867SOL     OW12142   3.089   1.570   4.517
 3867SOL    HW112143   3.110   1.644   4.452
 3867SOL    HW212144   3.157   1.570   4.590
 3868SOL     OW12145   2.321   1.152   4.465
 3868SOL    HW112146   2.250   1.125   4.530
 3868SOL    HW212147   2.295   1.124   4.372
 3869SOL     OW12148   3.133   1.797   4.315
 3869SOL    HW112149   3.177   1.861   4.251
 3869SOL    HW212150   3.083   1.849   4.385
 3870SOL     OW12151   2.894   0.549   3.740
 3870SOL    HW112152   2.853   0.631   3.701
 3870SOL    HW212153   2.958   0.575   3.813
 3871SOL     OW12154   1.940   0.556   5.110
 3871SOL    HW112155   2.032   0.555   5.069
 3871SOL    HW212156   1.934   0.630   5.177
 3872SOL     OW12157   2.423   0.222   4.871
 3872SOL    HW112158   2.461   0.138   4.908
 3872SOL    HW212159   2.335   0.241   4.915
 3873SOL     OW12160   2.728   0.454   4.366
 3873SOL    HW112161   2.696   0.526   4.304
 3873SOL    HW212162   2.752   0.373   4.313
 3874SOL     OW12163   2.879   0.039   4.477
 3874SOL    HW112164   2.807   0.044   4.408
 3874SOL    HW212165   2.855  -0.030   4.546
 3875SOL     OW12166   3.291   1.173   4.591
 3875SOL    HW112167   3.236   1.089   4.584
 3875SOL    HW212168   3.317   1.202   4.499
 3876SOL     OW12169   3.328   0.590   4.716
 3876SOL    HW112170   3.298   0.495   4.723
 3876SOL    HW212171   3.401   0.606   4.782
 3877SOL     OW12172   3.719   0.833   4.101
 3877SOL    HW112173   3.761   0.769   4.165
 3877SOL    HW212174   3.681   0.782   4.023
 3878SOL     OW12175   2.350   1.385   3.898
 3878SOL    HW112176   2.263   1.370   3.945
 3878SOL    HW212177   2.333   1.411   3.803
 3879SOL     OW12178   3.526   1.280   4.381
 3879SOL    HW112179   3.625   1.288   4.395
 3879SOL    HW212180   3.481   1.364   4.412
 3880SOL     OW12181   3.252   0.575   3.802
 3880SOL    HW112182   3.198   0.554   3.883
 3880SOL    HW212183   3.343   0.534   3.811
 3881SOL     OW12184   2.389   0.256   4.052
 3881SOL    HW112185   2.416   0.197   3.977
 3881SOL    HW212186   2.389   0.351   4.021
 3882SOL     OW12187   3.616   1.223   5.312
 3882SOL    HW112188   3.707   1.184   5.299
 3882SOL    HW212189   3.624   1.319   5.336
 3883SOL     OW12190   2.926   1.347   5.064
 3883SOL    HW112191   2.846   1.324   5.119
 3883SOL    HW212192   3.009   1.321   5.113
 3884SOL     OW12193   3.454   1.629   5.349
 3884SOL    HW112194   3.481   1.663   5.259
 3884SOL    HW212195   3.533   1.591   5.395
 3885SOL     OW12196   2.973   1.195   4.824
 3885SOL    HW112197   2.933   1.239   4.905
 3885SOL    HW212198   2.932   1.232   4.741
 3886SOL     OW12199   3.500   1.099   4.803
 3886SOL    HW112200   3.505   1.180   4.862
 3886SOL    HW212201   3.414   1.101   4.752
 3887SOL     OW12202   2.777   0.089   5.126
 3887SOL    HW112203   2.802   0.069   5.031
 3887SOL    HW212204   2.849   0.145   5.168
 3888SOL     OW12205   2.842   1.116   5.443
 3888SOL    HW112206   2.743   1.122   5.453
 3888SOL    HW212207   2.865   1.036   5.387
 3889SOL     OW12208   2.567   1.050   4.092
 3889SOL    HW112209   2.553   1.057   4.191
 3889SOL    HW212210   2.651   0.999   4.074
 3890SOL     OW12211   2.272   0.813   4.975
 3890SOL    HW112212   2.358   0.825   5.025
 3890SOL    HW212213   2.230   0.726   5.002
 3891SOL     OW12214   3.136   0.386   4.986
 3891SOL    HW112215   3.157   0.460   5.050
 3891SOL    HW212216   3.047   0.403   4.943
 3892SOL     OW12217   1.926   1.564   5.055
 3892SOL    HW112218   1.880   1.646   5.021
 3892SOL    HW212219   2.024   1.583   5.064
 3893SOL     OW12220   2.229   1.100   4.225
 3893SOL    HW112221   2.222   1.183   4.169
 3893SOL    HW212222   2.233   1.020   4.165
 3894SOL     OW12223   2.428   0.537   4.589
 3894SOL    HW112224   2.440   0.603   4.515
 3894SOL    HW212225   2.474   0.571   4.672
 3895SOL     OW12226   3.114   1.348   4.112
 3895SOL    HW112227   3.164   1.425   4.152
 3895SOL    HW212228   3.019   1.350   4.144
 3896SOL     OW12229   3.134   1.445   4.866
 3896SOL    HW112230   3.181   1.458   4.953
 3896SOL    HW212231   3.068   1.371   4.875
 3897SOL     OW12232   3.444   0.639   4.196
 3897SOL    HW112233   3.413   0.700   4.269
 3897SOL    HW212234   3.494   0.691   4.127
 3898SOL     OW12235   2.216   1.510   5.053
 3898SOL    HW112236   2.195   1.466   4.966
 3898SOL    HW212237   2.313   1.536   5.056
 3899SOL     OW12238   2.264   0.751   5.322
 3899SOL    HW112239   2.332   0.806   5.275
 3899SOL    HW212240   2.304   0.663   5.349
 3900SOL     OW12241   3.449   0.779   5.394
 3900SOL    HW112242   3.357   0.817   5.389
 3900SOL    HW212243   3.509   0.826   5.329
 3901SOL     OW12244   2.875   0.105   5.494
 3901SOL    HW112245   2.881   0.190   5.442
 3901SOL    HW212246   2.907   0.029   5.437
 3902SOL     OW12247   2.366   0.050   5.464
 3902SOL    HW112248   2.324  -0.007   5.394
 3902SOL    HW212249   2.300   0.119   5.496
 3903SOL     OW12250   2.435   0.870   4.753
 3903SOL    HW112251   2.479   0.959   4.744
 3903SOL    HW212252   2.372   0.870   4.830
 3904SOL     OW12253   3.222   0.862   4.769
 3904SOL    HW112254   3.147   0.862   4.703
 3904SOL    HW212255   3.259   0.770   4.778
 3905SOL     OW12256   3.071   0.525   3.999
 3905SOL    HW112257   3.084   0.441   4.053
 3905SOL    HW212258   3.042   0.599   4.059
 3906SOL     OW12259   2.169   0.213   4.955
 3906SOL    HW112260   2.146   0.250   5.045
 3906SOL    HW212261   2.139   0.118   4.949
 3907SOL     OW12262   1.899   1.310   5.006
 3907SOL    HW112263   1.952   1.261   5.074
 3907SOL    HW212264   1.921   1.408   5.011
 3908SOL     OW12265   2.594   0.634   4.788
 3908SOL    HW112266   2.653   0.608   4.712
 3908SOL    HW212267   2.566   0.730   4.777
 3909SOL     OW12268   3.590   0.935   5.578
 3909SOL    HW112269   3.544   0.928   5.489
 3909SOL    HW212270   3.528   0.979   5.644
 3910SOL     OW12271   2.169   0.063   4.342
 3910SOL    HW112272   2.158   0.157   4.375
 3910SOL    HW212273   2.164   0.000   4.419
 3911SOL     OW12274   3.484   0.367   4.098
 3911SOL    HW112275   3.486   0.291   4.162
 3911SOL    HW212276   3.436   0.444   4.138
 3912SOL     OW12277   2.885   0.766   4.690
 3912SOL    HW112278   2.900   0.787   4.786
 3912SOL    HW212279   2.855   0.671   4.681
 3913SOL     OW12280   2.842   1.573   5.424
 3913SOL    HW112281   2.822   1.617   5.336
 3913SOL    HW212282   2.881   1.482   5.408
 3914SOL     OW12283   3.721   1.518   5.329
 3914SOL    HW112284   3.735   1.545   5.234
 3914SOL    HW212285   3.804   1.540   5.382
 3915SOL     OW12286   2.212   0.898   5.528
 3915SOL    HW112287   2.288   0.942   5.576
 3915SOL    HW212288   2.247   0.851   5.446
 3916SOL     OW12289   3.402   0.274   3.849
 3916SOL    HW112290   3.341   0.199   3.872
 3916SOL    HW212291   3.424   0.326   3.932
 3917SOL     OW12292   3.165   0.838   3.766
 3917SOL    HW112293   3.199   0.745   3.781
 3917SOL    HW212294   3.183   0.865   3.671
 3918SOL     OW12295   2.930   1.333   4.573
 3918SOL    HW112296   2.937   1.249   4.518
 3918SOL    HW212297   2.992   1.402   4.537
 3919SOL     OW12298   2.181   0.810   4.673
 3919SOL    HW112299   2.274   0.846   4.678
 3919SOL    HW212300   2.175   0.725   4.725
 3920SOL     OW12301   2.201   0.509   4.730
 3920SOL    HW112302   2.149   0.426   4.713
 3920SOL    HW212303   2.278   0.514   4.666
 3921SOL     OW12304   3.000   0.380   5.402
 3921SOL    HW112305   2.955   0.443   5.466
 3921SOL    HW212306   3.093   0.411   5.385
 3922SOL     OW12307   3.022   0.207   5.201
 3922SOL    HW112308   3.022   0.271   5.278
 3922SOL    HW212309   3.050   0.255   5.118
 3923SOL     OW12310   1.870   1.326   3.924
 3923SOL    HW112311   1.777   1.347   3.893
 3923SOL    HW212312   1.880   1.227   3.937
 3924SOL     OW12313   1.950   1.801   4.651
 3924SOL    HW112314   1.908   1.715   4.624
 3924SOL    HW212315   2.044   1.804   4.617
 3925SOL     OW12316   2.366   1.568   4.634
 3925SOL    HW112317   2.432   1.642   4.643
 3925SOL    HW212318   2.410   1.489   4.592
 3926SOL     OW12319   2.864   0.796   4.962
 3926SOL    HW112320   2.905   0.764   5.048
 3926SOL    HW212321   2.768   0.769   4.959
 3927SOL     OW12322   1.902   0.544   4.838
 3927SOL    HW112323   1.987   0.511   4.797
 3927SOL    HW212324   1.915   0.559   4.936
 3928SOL     OW12325   2.051   0.520   5.446
 3928SOL    HW112326   2.110   0.480   5.376
 3928SOL    HW212327   1.993   0.591   5.405
 3929SOL     OW12328   3.231   0.950   5.384
 3929SOL    HW112329   3.270   1.039   5.404
 3929SOL    HW212330   3.241   0.930   5.287
 3930SOL     OW12331   2.677   0.572   4.049
 3930SOL    HW112332   2.684   0.483   4.003
 3930SOL    HW212333   2.583   0.606   4.041
 3931SOL     OW12334   3.519   0.604   4.930
 3931SOL    HW112335   3.481   0.535   4.992
 3931SOL    HW212336   3.601   0.568   4.886
 3932SOL     OW12337   2.114   1.564   5.468
 3932SOL    HW112338   2.084   1.621   5.544
 3932SOL    HW212339   2.107   1.467   5.494
 3933SOL     OW12340   2.533   0.464   4.993
 3933SOL    HW112341   2.499   0.375   4.963
 3933SOL    HW212342   2.559   0.518   4.913
 3934SOL     OW12343   2.792   1.678   5.189
 3934SOL    HW112344   2.768   1.660   5.094
 3934SOL    HW212345   2.822   1.772   5.199
 3935SOL     OW12346   2.335   0.500   3.915
 3935SOL    HW112347   2.396   0.580   3.919
 3935SOL    HW212348   2.240   0.531   3.922
 3936SOL     OW12349   2.021   1.137   5.190
 3936SOL    HW112350   2.043   1.076   5.266
 3936SOL    HW212351   2.031   1.088   5.104
 3937SOL     OW12352   3.209   1.059   4.958
 3937SOL    HW112353   3.233   0.996   4.884
 3937SOL    HW212354   3.119   1.099   4.940
 3938SOL     OW12355   3.164   0.855   4.033
 3938SOL    HW112356   3.078   0.824   4.075
 3938SOL    HW212357   3.160   0.841   3.934
 3939SOL     OW12358   3.621   1.747   4.878
 3939SOL    HW112359   3.682   1.777   4.805
 3939SOL    HW212360   3.583   1.658   4.856
 3940SOL     OW12361   3.114   1.731   4.852
 3940SOL    HW112362   3.198   1.736   4.798
 3940SOL    HW212363   3.091   1.635   4.870
 3941SOL     OW12364   1.945   1.258   4.746
 3941SOL    HW112365   1.940   1.257   4.846
 3941SOL    HW212366   1.862   1.217   4.708
 3942SOL     OW12367   2.550   1.662   5.440
 3942SOL    HW112368   2.494   1.743   5.449
 3942SOL    HW212369   2.602   1.666   5.354
 3943SOL     OW12370   3.588   0.135   4.247
 3943SOL    HW112371   3.661   0.118   4.180
 3943SOL    HW212372   3.557   0.048   4.285
 3944SOL     OW12373   3.250   1.573   4.201
 3944SOL    HW112374   3.317   1.585   4.127
 3944SOL    HW212375   3.210   1.662   4.224
 3945SOL     OW12376   1.992   1.794   5.575
 3945SOL    HW112377   1.951   1.720   5.628
 3945SOL    HW212378   2.056   1.845   5.633
 3946SOL     OW12379   3.142   0.927   4.396
 3946SOL    HW112380   3.202   0.846   4.398
 3946SOL    HW212381   3.182   0.996   4.336
 3947SOL     OW12382   2.692   1.273   5.146
 3947SOL    HW112383   2.687   1.306   5.241
 3947SOL    HW212384   2.606   1.292   5.100
 3948SOL     OW12385   2.534   1.616   3.878
 3948SOL    HW112386   2.543   1.626   3.779
 3948SOL    HW212387   2.494   1.527   3.899
 3949SOL     OW12388   3.512   1.720   5.118
 3949SOL    HW112389   3.565   1.730   5.034
 3949SOL    HW212390   3.485   1.810   5.152
 3950SOL     OW12391   3.703   0.175   4.687
 3950SOL    HW112392   3.742   0.090   4.651
 3950SOL    HW212393   3.605   0.177   4.668
 3951SOL     OW12394   2.125   0.326   4.444
 3951SOL    HW112395   2.046   0.377   4.410
 3951SOL    HW212396   2.116   0.311   4.542
 3952SOL     OW12397   3.056   1.612   3.755
 3952SOL    HW112398   3.062   1.519   3.792
 3952SOL    HW212399   2.997   1.612   3.675
 3953SOL     OW12400   2.684   1.002   5.096
 3953SOL    HW112401   2.724   1.001   5.004
 3953SOL    HW212402   2.694   1.094   5.136
 3954SOL     OW12403   2.778   0.910   4.015
 3954SOL    HW112404   2.841   0.948   3.947
 3954SOL    HW212405   2.818   0.827   4.054
 3955SOL     OW12406   3.366   1.607   3.768
 3955SOL    HW112407   3.274   1.644   3.775
 3955SOL    HW212408   3.404   1.627   3.678
 3956SOL     OW12409   2.234   1.288   5.214
 3956SOL    HW112410   2.221   1.381   5.180
 3956SOL    HW212411   2.150   1.236   5.201
 3957SOL     OW12412   3.476   1.292   5.013
 3957SOL    HW112413   3.536   1.295   5.093
 3957SOL    HW212414   3.401   1.356   5.026
 3958SOL     OW12415   2.901   1.098   4.420
 3958SOL    HW112416   2.831   1.051   4.474
 3958SOL    HW212417   2.960   1.030   4.377
 3959SOL     OW12418   2.876   0.236   4.695
 3959SOL    HW112419   2.868   0.200   4.602
 3959SOL    HW212420   2.874   0.160   4.760
 3960SOL     OW12421   2.452   1.487   4.215
 3960SOL    HW112422   2.494   1.429   4.145
 3960SOL    HW212423   2.408   1.566   4.171
 3961SOL     OW12424   3.571   0.385   5.105
 3961SOL    HW112425   3.644   0.454   5.109
 3961SOL    HW212426   3.599   0.310   5.046
 3962SOL     OW12427   2.117   1.348   4.014
 3962SOL    HW112428   2.021   1.349   3.987
 3962SOL    HW212429   2.129   1.401   4.098
 3963SOL     OW12430   1.967   1.013   5.450
 3963SOL    HW112431   1.890   0.980   5.504
 3963SOL    HW212432   2.052   0.983   5.492
 3964SOL     OW12433   2.534   0.203   5.213
 3964SOL    HW112434   2.624   0.187   5.173
 3964SOL    HW212435   2.542   0.208   5.312
 3965SOL     OW12436   1.937   0.345   3.757
 3965SOL    HW112437   1.845   0.317   3.728
 3965SOL    HW212438   1.968   0.422   3.701
 3966SOL     OW12439   3.302   0.856   5.122
 3966SOL    HW112440   3.245   0.908   5.059
 3966SOL    HW212441   3.398   0.868   5.098
 3967SOL     OW12442   1.934   0.166   4.042
 3967SOL    HW112443   1.917   0.249   3.988
 3967SOL    HW212444   2.024   0.129   4.020
 3968SOL     OW12445   3.045   1.335   3.843
 3968SOL    HW112446   2.946   1.324   3.845
 3968SOL    HW212447   3.079   1.350   3.936
 3969SOL     OW12448   2.475   0.842   5.155
 3969SOL    HW112449   2.531   0.923   5.138
 3969SOL    HW212450   2.534   0.762   5.158
 3970SOL     OW12451   3.355   1.767   4.683
 3970SOL    HW112452   3.388   1.831   4.614
 3970SOL    HW212453   3.421   1.761   4.758
 3971SOL     OW12454   2.578   0.565   5.432
 3971SOL    HW112455   2.597   0.630   5.506
 3971SOL    HW212456   2.638   0.485   5.441
 3972SOL     OW12457   3.312   1.220   5.357
 3972SOL    HW112458   3.303   1.210   5.456
 3972SOL    HW212459   3.408   1.213   5.331
 3973SOL     OW12460   2.252   1.741   5.284
 3973SOL    HW112461   2.161   1.782   5.282
 3973SOL    HW212462   2.245   1.647   5.316
 3974SOL     OW12463   3.536   0.883   4.978
 3974SOL    HW112464   3.509   0.794   4.941
 3974SOL    HW212465   3.537   0.951   4.905
 3975SOL     OW12466   3.087   0.325   4.173
 3975SOL    HW112467   3.152   0.251   4.162
 3975SOL    HW212468   3.107   0.375   4.257
 3976SOL     OW12469   2.456   0.745   4.376
 3976SOL    HW112470   2.506   0.830   4.357
 3976SOL    HW212471   2.368   0.747   4.328
 3977SOL     OW12472   3.639   0.342   5.366
 3977SOL    HW112473   3.622   0.373   5.272
 3977SOL    HW212474   3.555   0.305   5.404
 3978SOL     OW12475   3.592   0.934   5.241
 3978SOL    HW112476   3.630   1.025   5.256
 3978SOL    HW212477   3.584   0.917   5.142
 3979SOL     OW12478   2.721   1.374   3.740
 3979SOL    HW112479   2.675   1.389   3.828
 3979SOL    HW212480   2.765   1.459   3.710
 3980SOL     OW12481   2.523   1.790   4.677
 3980SOL    HW112482   2.477   1.878   4.664
 3980SOL    HW212483   2.622   1.802   4.670
 3981SOL     OW12484   2.721   0.956   4.585
 3981SOL    HW112485   2.775   0.887   4.633
 3981SOL    HW212486   2.689   1.025   4.651
 3982SOL     OW12487   2.945   0.984   3.811
 3982SOL    HW112488   2.922   1.037   3.729
 3982SOL    HW212489   3.026   0.928   3.792
 3983SOL     OW12490   3.723   1.569   4.575
 3983SOL    HW112491   3.652   1.557   4.505
 3983SOL    HW212492   3.724   1.490   4.635
 3984SOL     OW12493   2.083   1.314   5.568
 3984SOL    HW112494   2.018   1.241   5.547
 3984SOL    HW212495   2.087   1.328   5.666
 3985SOL     OW12496   1.941   1.240   4.377
 3985SOL    HW112497   1.940   1.193   4.465
 3985SOL    HW212498   2.023   1.212   4.326
 3986SOL     OW12499   2.534   1.391   5.348
 3986SOL    HW112500   2.456   1.341   5.386
 3986SOL    HW212501   2.531   1.486   5.379
 3987SOL     OW12502   3.686   0.192   4.951
 3987SOL    HW112503   3.682   0.102   4.995
 3987SOL    HW212504   3.689   0.181   4.852
 3988SOL     OW12505   2.290   0.424   4.244
 3988SOL    HW112506   2.320   0.352   4.182
 3988SOL    HW212507   2.251   0.384   4.327
 3989SOL     OW12508   3.567   1.487   4.828
 3989SOL    HW112509   3.474   1.462   4.801
 3989SOL    HW212510   3.593   1.437   4.910
 3990SOL     OW12511   2.179   0.547   5.004
 3990SOL    HW112512   2.217   0.488   5.076
 3990SOL    HW212513   2.219   0.521   4.916
 3991SOL     OW12514   2.674   1.586   4.411
 3991SOL    HW112515   2.706   1.596   4.317
 3991SOL    HW212516   2.595   1.524   4.413
 3992SOL     OW12517   3.286   0.214   4.836
 3992SOL    HW112518   3.338   0.149   4.891
 3992SOL    HW212519   3.237   0.277   4.897
 3993SOL     OW12520   2.863   0.034   4.878
 3993SOL    HW112521   2.800  -0.038   4.847
 3993SOL    HW212522   2.956  -0.002   4.878
 3994SOL     OW12523   2.632   1.330   4.025
 3994SOL    HW112524   2.586   1.243   4.042
 3994SOL    HW212525   2.723   1.327   4.066
 3995SOL     OW12526   2.480   1.567   5.008
 3995SOL    HW112527   2.475   1.649   5.065
 3995SOL    HW212528   2.569   1.564   4.963
 3996SOL     OW12529   3.214   0.052   3.892
 3996SOL    HW112530   3.249   0.011   3.808
 3996SOL    HW212531   3.124   0.014   3.912
 3997SOL     OW12532   3.162   0.453   4.415
 3997SOL    HW112533   3.103   0.533   4.419
 3997SOL    HW212534   3.177   0.418   4.508
 3998SOL     OW12535   3.455   0.221   4.606
 3998SOL    HW112536   3.371   0.220   4.660
 3998SOL    HW212537   3.457   0.304   4.550
 3999SOL     OW12538   1.901   1.077   4.024
 3999SOL    HW112539   2.000   1.066   4.015
 3999SOL    HW212540   1.861   0.991   4.056
 4000SOL     OW12541   2.737   1.646   4.061
 4000SOL    HW112542   2.660   1.611   4.007
 4000SOL    HW212543   2.705   1.717   4.123
 4001SOL     OW12544   2.092   0.628   5.699
 4001SOL    HW112545   1.999   0.626   5.736
 4001SOL    HW212546   2.093   0.589   5.607
 4002SOL     OW12547   2.087   0.275   6.582
 4002SOL    HW112548   2.122   0.258   6.674
 4002SOL    HW212549   1.999   0.230   6.570
 4003SOL     OW12550   1.881   0.368   6.233
 4003SOL    HW112551   1.799   0.411   6.272
 4003SOL    HW212552   1.853   0.295   6.170
 4004SOL     OW12553   2.431   1.275   6.751
 4004SOL    HW112554   2.338   1.268   6.714
 4004SOL    HW212555   2.442   1.364   6.795
 4005SOL     OW12556   3.417   1.511   6.289
 4005SOL    HW112557   3.360   1.495   6.370
 4005SOL    HW212558   3.358   1.521   6.209
 4006SOL     OW12559   2.997   0.703   6.303
 4006SOL    HW112560   3.054   0.781   6.278
 4006SOL    HW212561   2.937   0.729   6.379
 4007SOL     OW12562   3.617   0.607   5.817
 4007SOL    HW112563   3.605   0.594   5.718
 4007SOL    HW212564   3.587   0.526   5.866
 4008SOL     OW12565   2.630   1.144   6.609
 4008SOL    HW112566   2.552   1.161   6.669
 4008SOL    HW212567   2.664   1.231   6.573
 4009SOL     OW12568   2.712   0.798   7.409
 4009SOL    HW112569   2.708   0.874   7.474
 4009SOL    HW212570   2.734   0.834   7.318
 4010SOL     OW12571   2.547   1.012   6.251
 4010SOL    HW112572   2.616   0.996   6.321
 4010SOL    HW212573   2.474   1.069   6.289
 4011SOL     OW12574   2.548   1.161   7.389
 4011SOL    HW112575   2.608   1.240   7.403
 4011SOL    HW212576   2.462   1.192   7.348
 4012SOL     OW12577   3.322   1.505   6.925
 4012SOL    HW112578   3.346   1.599   6.951
 4012SOL    HW212579   3.306   1.451   7.007
 4013SOL     OW12580   2.300   0.392   7.085
 4013SOL    HW112581   2.382   0.336   7.094
 4013SOL    HW212582   2.219   0.334   7.089
 4014SOL     OW12583   3.465   0.447   6.323
 4014SOL    HW112584   3.391   0.493   6.273
 4014SOL    HW212585   3.516   0.515   6.376
 4015SOL     OW12586   2.093   1.713   6.069
 4015SOL    HW112587   2.127   1.790   6.123
 4015SOL    HW212588   2.137   1.713   5.979
 4016SOL     OW12589   2.989   1.341   7.276
 4016SOL    HW112590   3.036   1.341   7.364
 4016SOL    HW212591   2.941   1.254   7.265
 4017SOL     OW12592   2.102   1.091   6.472
 4017SOL    HW112593   2.116   1.007   6.524
 4017SOL    HW212594   2.047   1.155   6.527
 4018SOL     OW12595   2.468   0.964   5.709
 4018SOL    HW112596   2.475   1.048   5.655
 4018SOL    HW212597   2.514   0.977   5.797
 4019SOL     OW12598   3.456   0.114   7.066
 4019SOL    HW112599   3.438   0.181   6.994
 4019SOL    HW212600   3.453   0.160   7.155
 4020SOL     OW12601   1.984   0.643   6.149
 4020SOL    HW112602   1.939   0.555   6.166
 4020SOL    HW212603   1.983   0.697   6.233
 4021SOL     OW12604   3.704   1.767   5.945
 4021SOL    HW112605   3.758   1.738   6.025
 4021SOL    HW212606   3.734   1.857   5.916
 4022SOL     OW12607   1.889   1.596   5.703
 4022SOL    HW112608   1.870   1.500   5.724
 4022SOL    HW212609   1.856   1.654   5.778
 4023SOL     OW12610   3.551   0.922   6.198
 4023SOL    HW112611   3.646   0.893   6.206
 4023SOL    HW212612   3.543   0.987   6.123
 4024SOL     OW12613   3.503   1.108   6.018
 4024SOL    HW112614   3.589   1.110   5.966
 4024SOL    HW212615   3.517   1.155   6.106
 4025SOL     OW12616   1.975   0.737   7.183
 4025SOL    HW112617   2.063   0.724   7.228
 4025SOL    HW212618   1.962   0.834   7.161
 4026SOL     OW12619   3.155   1.228   7.009
 4026SOL    HW112620   3.192   1.155   6.951
 4026SOL    HW212621   3.207   1.233   7.094
 4027SOL     OW12622   2.671   0.004   6.088
 4027SOL    HW112623   2.711   0.095   6.079
 4027SOL    HW212624   2.571   0.012   6.094
 4028SOL     OW12625   2.059   0.976   6.850
 4028SOL    HW112626   2.148   0.931   6.836
 4028SOL    HW212627   1.986   0.911   6.831
 4029SOL     OW12628   3.387   0.999   5.776
 4029SOL    HW112629   3.324   0.923   5.789
 4029SOL    HW212630   3.435   1.017   5.862
 4030SOL     OW12631   3.049   1.792   7.202
 4030SOL    HW112632   3.073   1.852   7.126
 4030SOL    HW212633   3.056   1.697   7.172
 4031SOL     OW12634   2.179   0.251   7.387
 4031SOL    HW112635   2.250   0.322   7.393
 4031SOL    HW212636   2.091   0.290   7.415
 4032SOL     OW12637   3.328   1.417   6.539
 4032SOL    HW112638   3.269   1.423   6.619
 4032SOL    HW212639   3.313   1.329   6.493
 4033SOL     OW12640   3.529   1.714   6.158
 4033SOL    HW112641   3.488   1.691   6.070
 4033SOL    HW212642   3.511   1.640   6.223
 4034SOL     OW12643   2.460   0.729   5.856
 4034SOL    HW112644   2.484   0.798   5.788
 4034SOL    HW212645   2.382   0.762   5.910
 4035SOL     OW12646   3.143   0.345   6.530
 4035SOL    HW112647   3.057   0.295   6.517
 4035SOL    HW212648   3.205   0.291   6.586
 4036SOL     OW12649   3.438   1.662   5.893
 4036SOL    HW112650   3.527   1.708   5.896
 4036SOL    HW212651   3.417   1.638   5.798
 4037SOL     OW12652   2.669   0.605   7.051
 4037SOL    HW112653   2.622   0.602   7.140
 4037SOL    HW212654   2.618   0.550   6.985
 4038SOL     OW12655   3.256   0.469   7.260
 4038SOL    HW112656   3.236   0.512   7.348
 4038SOL    HW212657   3.334   0.407   7.269
 4039SOL     OW12658   2.835   0.890   7.158
 4039SOL    HW112659   2.881   0.806   7.129
 4039SOL    HW212660   2.779   0.924   7.083
 4040SOL     OW12661   2.853   0.410   6.828
 4040SOL    HW112662   2.776   0.444   6.882
 4040SOL    HW212663   2.819   0.359   6.749
 4041SOL     OW12664   2.903   0.701   6.015
 4041SOL    HW112665   2.929   0.697   6.111
 4041SOL    HW212666   2.818   0.650   6.001
 4042SOL     OW12667   1.938   0.811   6.375
 4042SOL    HW112668   2.037   0.799   6.384
 4042SOL    HW212669   1.914   0.906   6.396
 4043SOL     OW12670   2.727   0.348   5.781
 4043SOL    HW112671   2.786   0.411   5.732
 4043SOL    HW212672   2.746   0.254   5.752
 4044SOL     OW12673   3.581   0.585   7.417
 4044SOL    HW112674   3.555   0.674   7.381
 4044SOL    HW212675   3.579   0.517   7.344
 4045SOL     OW12676   3.224   1.144   6.131
 4045SOL    HW112677   3.307   1.115   6.083
 4045SOL    HW212678   3.175   1.211   6.075
 4046SOL     OW12679   2.412   0.196   6.471
 4046SOL    HW112680   2.407   0.191   6.571
 4046SOL    HW212681   2.414   0.292   6.442
 4047SOL     OW12682   2.870   1.456   6.063
 4047SOL    HW112683   2.824   1.528   6.011
 4047SOL    HW212684   2.866   1.476   6.161
 4048SOL     OW12685   2.213   1.801   6.439
 4048SOL    HW112686   2.263   1.715   6.445
 4048SOL    HW212687   2.278   1.878   6.436
 4049SOL     OW12688   3.657   1.066   6.459
 4049SOL    HW112689   3.595   1.051   6.383
 4049SOL    HW212690   3.605   1.077   6.544
 4050SOL     OW12691   3.089   1.550   7.092
 4050SOL    HW112692   3.095   1.473   7.156
 4050SOL    HW212693   3.037   1.524   7.012
 4051SOL     OW12694   2.183   0.943   5.828
 4051SOL    HW112695   2.265   0.982   5.786
 4051SOL    HW212696   2.156   0.861   5.779
 4052SOL     OW12697   3.320   0.735   6.314
 4052SOL    HW112698   3.315   0.670   6.389
 4052SOL    HW212699   3.400   0.794   6.327
 4053SOL     OW12700   2.973   1.776   5.823
 4053SOL    HW112701   2.913   1.714   5.873
 4053SOL    HW212702   3.004   1.732   5.738
 4054SOL     OW12703   2.064   0.285   7.084
 4054SOL    HW112704   1.984   0.345   7.071
 4054SOL    HW212705   2.054   0.236   7.170
 4055SOL     OW12706   3.494   1.377   5.667
 4055SOL    HW112707   3.462   1.471   5.657
 4055SOL    HW212708   3.418   1.314   5.655
 4056SOL     OW12709   2.326   1.743   5.909
 4056SOL    HW112710   2.359   1.782   5.995
 4056SOL    HW212711   2.402   1.736   5.844
 4057SOL     OW12712   3.262   0.107   6.012
 4057SOL    HW112713   3.238   0.070   5.922
 4057SOL    HW212714   3.361   0.123   6.016
 4058SOL     OW12715   2.111   1.785   6.827
 4058SOL    HW112716   2.168   1.720   6.877
 4058SOL    HW212717   2.095   1.752   6.734
 4059SOL     OW12718   2.244   0.700   6.066
 4059SOL    HW112719   2.289   0.610   6.063
 4059SOL    HW212720   2.150   0.689   6.099
 4060SOL     OW12721   3.409   0.222   7.315
 4060SOL    HW112722   3.404   0.259   7.407
 4060SOL    HW212723   3.337   0.153   7.303
 4061SOL     OW12724   2.476   0.122   5.703
 4061SOL    HW112725   2.574   0.100   5.710
 4061SOL    HW212726   2.445   0.105   5.610
 4062SOL     OW12727   2.643   0.264   7.335
 4062SOL    HW112728   2.710   0.203   7.378
 4062SOL    HW212729   2.570   0.283   7.400
 4063SOL     OW12730   3.213   0.590   7.019
 4063SOL    HW112731   3.241   0.547   7.104
 4063SOL    HW212732   3.238   0.686   7.020
 4064SOL     OW12733   2.784   0.503   6.485
 4064SOL    HW112734   2.759   0.494   6.389
 4064SOL    HW212735   2.832   0.421   6.516
 4065SOL     OW12736   2.401   0.064   6.098
 4065SOL    HW112737   2.320   0.065   6.156
 4065SOL    HW212738   2.404   0.147   6.043
 4066SOL     OW12739   3.296   1.188   5.627
 4066SOL    HW112740   3.328   1.112   5.684
 4066SOL    HW212741   3.204   1.215   5.657
 4067SOL     OW12742   2.159   0.035   5.757
 4067SOL    HW112743   2.208   0.119   5.736
 4067SOL    HW212744   2.221  -0.030   5.802
 4068SOL     OW12745   2.797   0.236   6.066
 4068SOL    HW112746   2.749   0.277   5.988
 4068SOL    HW212747   2.896   0.234   6.047
 4069SOL     OW12748   2.938   0.683   7.050
 4069SOL    HW112749   2.858   0.622   7.053
 4069SOL    HW212750   3.019   0.630   7.026
 4070SOL     OW12751   3.089   1.570   6.379
 4070SOL    HW112752   3.110   1.644   6.314
 4070SOL    HW212753   3.157   1.570   6.452
 4071SOL     OW12754   3.133   1.797   6.177
 4071SOL    HW112755   3.177   1.861   6.113
 4071SOL    HW212756   3.083   1.849   6.247
 4072SOL     OW12757   2.894   0.549   5.602
 4072SOL    HW112758   2.853   0.631   5.563
 4072SOL    HW212759   2.958   0.575   5.675
 4073SOL     OW12760   1.940   0.556   6.972
 4073SOL    HW112761   2.032   0.555   6.931
 4073SOL    HW212762   1.934   0.630   7.039
 4074SOL     OW12763   2.423   0.222   6.733
 4074SOL    HW112764   2.461   0.138   6.770
 4074SOL    HW212765   2.335   0.241   6.777
 4075SOL     OW12766   2.728   0.454   6.228
 4075SOL    HW112767   2.696   0.526   6.166
 4075SOL    HW212768   2.752   0.373   6.175
 4076SOL     OW12769   2.879   0.039   6.339
 4076SOL    HW112770   2.807   0.044   6.270
 4076SOL    HW212771   2.855  -0.030   6.408
 4077SOL     OW12772   3.291   1.173   6.453
 4077SOL    HW112773   3.236   1.089   6.446
 4077SOL    HW212774   3.317   1.202   6.361
 4078SOL     OW12775   3.328   0.590   6.578
 4078SOL    HW112776   3.298   0.495   6.585
 4078SOL    HW212777   3.401   0.606   6.644
 4079SOL     OW12778   3.719   0.833   5.963
 4079SOL    HW112779   3.761   0.769   6.027
 4079SOL    HW212780   3.681   0.782   5.885
 4080SOL     OW12781   2.350   1.385   5.760
 4080SOL    HW112782   2.263   1.370   5.807
 4080SOL    HW212783   2.333   1.411   5.665
 4081SOL     OW12784   3.526   1.280   6.243
 4081SOL    HW112785   3.625   1.288   6.257
 4081SOL    HW212786   3.481   1.364   6.274
 4082SOL     OW12787   3.252   0.575   5.664
 4082SOL    HW112788   3.198   0.554   5.745
 4082SOL    HW212789   3.343   0.534   5.673
 4083SOL     OW12790   2.389   0.256   5.914
 4083SOL    HW112791   2.416   0.197   5.839
 4083SOL    HW212792   2.389   0.351   5.883
 4084SOL     OW12793   3.616   1.223   7.174
 4084SOL    HW112794   3.707   1.184   7.161
 4084SOL    HW212795   3.624   1.319   7.198
 4085SOL     OW12796   2.926   1.347   6.926
 4085SOL    HW112797   2.846   1.324   6.981
 4085SOL    HW212798   3.009   1.321   6.975
 4086SOL     OW12799   3.454   1.629   7.211
 4086SOL    HW112800   3.481   1.663   7.121
 4086SOL    HW212801   3.533   1.591   7.257
 4087SOL     OW12802   2.973   1.195   6.686
 4087SOL    HW112803   2.933   1.239   6.767
 4087SOL    HW212804   2.932   1.232   6.603
 4088SOL     OW12805   3.500   1.099   6.665
 4088SOL    HW112806   3.505   1.180   6.724
 4088SOL    HW212807   3.414   1.101   6.614
 4089SOL     OW12808   2.777   0.089   6.988
 4089SOL    HW112809   2.802   0.069   6.893
 4089SOL    HW212810   2.849   0.145   7.030
 4090SOL     OW12811   2.842   1.116   7.305
 4090SOL    HW112812   2.743   1.122   7.315
 4090SOL    HW212813   2.865   1.036   7.249
 4091SOL     OW12814   2.567   1.050   5.954
 4091SOL    HW112815   2.553   1.057   6.053
 4091SOL    HW212816   2.651   0.999   5.936
 4092SOL     OW12817   2.272   0.813   6.837
 4092SOL    HW112818   2.358   0.825   6.887
 4092SOL    HW212819   2.230   0.726   6.864
 4093SOL     OW12820   3.136   0.386   6.848
 4093SOL    HW112821   3.157   0.460   6.912
 4093SOL    HW212822   3.047   0.403   6.805
 4094SOL     OW12823   1.926   1.564   6.917
 4094SOL    HW112824   1.880   1.646   6.883
 4094SOL    HW212825   2.024   1.583   6.926
 4095SOL     OW12826   2.229   1.100   6.087
 4095SOL    HW112827   2.222   1.183   6.031
 4095SOL    HW212828   2.233   1.020   6.027
 4096SOL     OW12829   2.428   0.537   6.451
 4096SOL    HW112830   2.440   0.603   6.377
 4096SOL    HW212831   2.474   0.571   6.534
 4097SOL     OW12832   3.114   1.348   5.974
 4097SOL    HW112833   3.164   1.425   6.014
 4097SOL    HW212834   3.019   1.350   6.006
 4098SOL     OW12835   3.134   1.445   6.728
 4098SOL    HW112836   3.181   1.458   6.815
 4098SOL    HW212837   3.068   1.371   6.737
 4099SOL     OW12838   3.444   0.639   6.058
 4099SOL    HW112839   3.413   0.700   6.131
 4099SOL    HW212840   3.494   0.691   5.989
 4100SOL     OW12841   2.216   1.510   6.915
 4100SOL    HW112842   2.195   1.466   6.828
 4100SOL    HW212843   2.313   1.536   6.918
 4101SOL     OW12844   2.264   0.751   7.184
 4101SOL    HW112845   2.332   0.806   7.137
 4101SOL    HW212846   2.304   0.663   7.211
 4102SOL     OW12847   3.449   0.779   7.256
 4102SOL    HW112848   3.357   0.817   7.251
 4102SOL    HW212849   3.509   0.826   7.191
 4103SOL     OW12850   2.875   0.105   7.356
 4103SOL    HW112851   2.881   0.190   7.304
 4103SOL    HW212852   2.907   0.029   7.299
 4104SOL     OW12853   2.366   0.050   7.326
 4104SOL    HW112854   2.324  -0.007   7.256
 4104SOL    HW212855   2.300   0.119   7.358
 4105SOL     OW12856   2.435   0.870   6.615
 4105SOL    HW112857   2.479   0.959   6.606
 4105SOL    HW212858   2.372   0.870   6.692
 4106SOL     OW12859   3.222   0.862   6.631
 4106SOL    HW112860   3.147   0.862   6.565
 4106SOL    HW212861   3.259   0.770   6.640
 4107SOL     OW12862   3.071   0.525   5.861
 4107SOL    HW112863   3.084   0.441   5.915
 4107SOL    HW212864   3.042   0.599   5.921
 4108SOL     OW12865   2.169   0.213   6.817
 4108SOL    HW112866   2.146   0.250   6.907
 4108SOL    HW212867   2.139   0.118   6.811
 4109SOL     OW12868   2.594   0.634   6.650
 4109SOL    HW112869   2.653   0.608   6.574
 4109SOL    HW212870   2.566   0.730   6.639
 4110SOL     OW12871   3.590   0.935   7.440
 4110SOL    HW112872   3.544   0.928   7.351
 4110SOL    HW212873   3.528   0.979   7.506
 4111SOL     OW12874   2.169   0.063   6.204
 4111SOL    HW112875   2.158   0.157   6.237
 4111SOL    HW212876   2.164   0.000   6.281
 4112SOL     OW12877   3.484   0.367   5.960
 4112SOL    HW112878   3.486   0.291   6.024
 4112SOL    HW212879   3.436   0.444   6.000
 4113SOL     OW12880   2.885   0.766   6.552
 4113SOL    HW112881   2.900   0.787   6.648
 4113SOL    HW212882   2.855   0.671   6.543
 4114SOL     OW12883   2.842   1.573   7.286
 4114SOL    HW112884   2.822   1.617   7.198
 4114SOL    HW212885   2.881   1.482   7.270
 4115SOL     OW12886   3.721   1.518   7.191
 4115SOL    HW112887   3.735   1.545   7.096
 4115SOL    HW212888   3.804   1.540   7.244
 4116SOL     OW12889   2.212   0.898   7.390
 4116SOL    HW112890   2.288   0.942   7.438
 4116SOL    HW212891   2.247   0.851   7.308
 4117SOL     OW12892   3.402   0.274   5.711
 4117SOL    HW112893   3.341   0.199   5.734
 4117SOL    HW212894   3.424   0.326   5.794
 4118SOL     OW12895   3.165   0.838   5.628
 4118SOL    HW112896   3.199   0.745   5.643
 4118SOL    HW212897   3.183   0.865   5.533
 4119SOL     OW12898   2.930   1.333   6.435
 4119SOL    HW112899   2.937   1.249   6.380
 4119SOL    HW212900   2.992   1.402   6.399
 4120SOL     OW12901   2.181   0.810   6.535
 4120SOL    HW112902   2.274   0.846   6.540
 4120SOL    HW212903   2.175   0.725   6.587
 4121SOL     OW12904   2.201   0.509   6.592
 4121SOL    HW112905   2.149   0.426   6.575
 4121SOL    HW212906   2.278   0.514   6.528
 4122SOL     OW12907   3.000   0.380   7.264
 4122SOL    HW112908   2.955   0.443   7.328
 4122SOL    HW212909   3.093   0.411   7.247
 4123SOL     OW12910   3.022   0.207   7.063
 4123SOL    HW112911   3.022   0.271   7.140
 4123SOL    HW212912   3.050   0.255   6.980
 4124SOL     OW12913   1.870   1.326   5.786
 4124SOL    HW112914   1.777   1.347   5.755
 4124SOL    HW212915   1.880   1.227   5.799
 4125SOL     OW12916   1.950   1.801   6.513
 4125SOL    HW112917   1.908   1.715   6.486
 4125SOL    HW212918   2.044   1.804   6.479
 4126SOL     OW12919   2.864   0.796   6.824
 4126SOL    HW112920   2.905   0.764   6.910
 4126SOL    HW212921   2.768   0.769   6.821
 4127SOL     OW12922   1.902   0.544   6.700
 4127SOL    HW112923   1.987   0.511   6.659
 4127SOL    HW212924   1.915   0.559   6.798
 4128SOL     OW12925   2.051   0.520   7.308
 4128SOL    HW112926   2.110   0.480   7.238
 4128SOL    HW212927   1.993   0.591   7.267
 4129SOL     OW12928   3.231   0.950   7.246
 4129SOL    HW112929   3.270   1.039   7.266
 4129SOL    HW212930   3.241   0.930   7.149
 4130SOL     OW12931   2.677   0.572   5.911
 4130SOL    HW112932   2.684   0.483   5.865
 4130SOL    HW212933   2.583   0.606   5.903
 4131SOL     OW12934   3.519   0.604   6.792
 4131SOL    HW112935   3.481   0.535   6.854
 4131SOL    HW212936   3.601   0.568   6.748
 4132SOL     OW12937   2.533   0.464   6.855
 4132SOL    HW112938   2.499   0.375   6.825
 4132SOL    HW212939   2.559   0.518   6.775
 4133SOL     OW12940   2.792   1.678   7.051
 4133SOL    HW112941   2.768   1.660   6.956
 4133SOL    HW212942   2.822   1.772   7.061
 4134SOL     OW12943   2.335   0.500   5.777
 4134SOL    HW112944   2.396   0.580   5.781
 4134SOL    HW212945   2.240   0.531   5.784
 4135SOL     OW12946   2.021   1.137   7.052
 4135SOL    HW112947   2.043   1.076   7.128
 4135SOL    HW212948   2.031   1.088   6.966
 4136SOL     OW12949   3.209   1.059   6.820
 4136SOL    HW112950   3.233   0.996   6.746
 4136SOL    HW212951   3.119   1.099   6.802
 4137SOL     OW12952   3.164   0.855   5.895
 4137SOL    HW112953   3.078   0.824   5.937
 4137SOL    HW212954   3.160   0.841   5.796
 4138SOL     OW12955   3.621   1.747   6.740
 4138SOL    HW112956   3.682   1.777   6.667
 4138SOL    HW212957   3.583   1.658   6.718
 4139SOL     OW12958   3.114   1.731   6.714
 4139SOL    HW112959   3.198   1.736   6.660
 4139SOL    HW212960   3.091   1.635   6.732
 4140SOL     OW12961   3.588   0.135   6.109
 4140SOL    HW112962   3.661   0.118   6.042
 4140SOL    HW212963   3.557   0.048   6.147
 4141SOL     OW12964   3.250   1.573   6.063
 4141SOL    HW112965   3.317   1.585   5.989
 4141SOL    HW212966   3.210   1.662   6.086
 4142SOL     OW12967   1.992   1.794   7.437
 4142SOL    HW112968   1.951   1.720   7.490
 4142SOL    HW212969   2.056   1.845   7.495
 4143SOL     OW12970   3.142   0.927   6.258
 4143SOL    HW112971   3.202   0.846   6.260
 4143SOL    HW212972   3.182   0.996   6.198
 4144SOL     OW12973   2.692   1.273   7.008
 4144SOL    HW112974   2.687   1.306   7.103
 4144SOL    HW212975   2.606   1.292   6.962
 4145SOL     OW12976   2.534   1.616   5.740
 4145SOL    HW112977   2.543   1.626   5.641
 4145SOL    HW212978   2.494   1.527   5.761
 4146SOL     OW12979   3.512   1.720   6.980
 4146SOL    HW112980   3.565   1.730   6.896
 4146SOL    HW212981   3.485   1.810   7.014
 4147SOL     OW12982   3.703   0.175   6.549
 4147SOL    HW112983   3.742   0.090   6.513
 4147SOL    HW212984   3.605   0.177   6.530
 4148SOL     OW12985   2.125   0.326   6.306
 4148SOL    HW112986   2.046   0.377   6.272
 4148SOL    HW212987   2.116   0.311   6.404
 4149SOL     OW12988   3.056   1.612   5.617
 4149SOL    HW112989   3.062   1.519   5.654
 4149SOL    HW212990   2.997   1.612   5.537
 4150SOL     OW12991   2.684   1.002   6.958
 4150SOL    HW112992   2.724   1.001   6.866
 4150SOL    HW212993   2.694   1.094   6.998
 4151SOL     OW12994   2.778   0.910   5.877
 4151SOL    HW112995   2.841   0.948   5.809
 4151SOL    HW212996   2.818   0.827   5.916
 4152SOL     OW12997   3.366   1.607   5.630
 4152SOL    HW112998   3.274   1.644   5.637
 4152SOL    HW212999   3.404   1.627   5.540
 4153SOL     OW13000   2.234   1.288   7.076
 4153SOL    HW113001   2.221   1.381   7.042
 4153SOL    HW213002   2.150   1.236   7.063
 4154SOL     OW13003   3.476   1.292   6.875
 4154SOL    HW113004   3.536   1.295   6.955
 4154SOL    HW213005   3.401   1.356   6.888
 4155SOL     OW13006   2.901   1.098   6.282
 4155SOL    HW113007   2.831   1.051   6.336
 4155SOL    HW213008   2.960   1.030   6.239
 4156SOL     OW13009   2.876   0.236   6.557
 4156SOL    HW113010   2.868   0.200   6.464
 4156SOL    HW213011   2.874   0.160   6.622
 4157SOL     OW13012   3.571   0.385   6.967
 4157SOL    HW113013   3.644   0.454   6.971
 4157SOL    HW213014   3.599   0.310   6.908
 4158SOL     OW13015   2.117   1.348   5.876
 4158SOL    HW113016   2.021   1.349   5.849
 4158SOL    HW213017   2.129   1.401   5.960
 4159SOL     OW13018   1.967   1.013   7.312
 4159SOL    HW113019   1.890   0.980   7.366
 4159SOL    HW213020   2.052   0.983   7.354
 4160SOL     OW13021   2.534   0.203   7.075
 4160SOL    HW113022   2.624   0.187   7.035
 4160SOL    HW213023   2.542   0.208   7.174
 4161SOL     OW13024   1.937   0.345   5.619
 4161SOL    HW113025   1.845   0.317   5.590
 4161SOL    HW213026   1.968   0.422   5.563
 4162SOL     OW13027   3.302   0.856   6.984
 4162SOL    HW113028   3.245   0.908   6.921
 4162SOL    HW213029   3.398   0.868   6.960
 4163SOL     OW13030   1.934   0.166   5.904
 4163SOL    HW113031   1.917   0.249   5.850
 4163SOL    HW213032   2.024   0.129   5.882
 4164SOL     OW13033   3.045   1.335   5.705
 4164SOL    HW113034   2.946   1.324   5.707
 4164SOL    HW213035   3.079   1.350   5.798
 4165SOL     OW13036   2.475   0.842   7.017
 4165SOL    HW113037   2.531   0.923   7.000
 4165SOL    HW213038   2.534   0.762   7.020
 4166SOL     OW13039   3.355   1.767   6.545
 4166SOL    HW113040   3.388   1.831   6.476
 4166SOL    HW213041   3.421   1.761   6.620
 4167SOL     OW13042   2.578   0.565   7.294
 4167SOL    HW113043   2.597   0.630   7.368
 4167SOL    HW213044   2.638   0.485   7.303
 4168SOL     OW13045   3.312   1.220   7.219
 4168SOL    HW113046   3.303   1.210   7.318
 4168SOL    HW213047   3.408   1.213   7.193
 4169SOL     OW13048   3.536   0.883   6.840
 4169SOL    HW113049   3.509   0.794   6.803
 4169SOL    HW213050   3.537   0.951   6.767
 4170SOL     OW13051   3.087   0.325   6.035
 4170SOL    HW113052   3.152   0.251   6.024
 4170SOL    HW213053   3.107   0.375   6.119
 4171SOL     OW13054   2.456   0.745   6.238
 4171SOL    HW113055   2.506   0.830   6.219
 4171SOL    HW213056   2.368   0.747   6.190
 4172SOL     OW13057   3.639   0.342   7.228
 4172SOL    HW113058   3.622   0.373   7.134
 4172SOL    HW213059   3.555   0.305   7.266
 4173SOL     OW13060   3.592   0.934   7.103
 4173SOL    HW113061   3.630   1.025   7.118
 4173SOL    HW213062   3.584   0.917   7.004
 4174SOL     OW13063   2.721   1.374   5.602
 4174SOL    HW113064   2.675   1.389   5.690
 4174SOL    HW213065   2.765   1.459   5.572
 4175SOL     OW13066   2.721   0.956   6.447
 4175SOL    HW113067   2.775   0.887   6.495
 4175SOL    HW213068   2.689   1.025   6.513
 4176SOL     OW13069   2.945   0.984   5.673
 4176SOL    HW113070   2.922   1.037   5.591
 4176SOL    HW213071   3.026   0.928   5.654
 4177SOL     OW13072   3.723   1.569   6.437
 4177SOL    HW113073   3.652   1.557   6.367
 4177SOL    HW213074   3.724   1.490   6.497
 4178SOL     OW13075   3.686   0.192   6.813
 4178SOL    HW113076   3.682   0.102   6.857
 4178SOL    HW213077   3.689   0.181   6.714
 4179SOL     OW13078   2.290   0.424   6.106
 4179SOL    HW113079   2.320   0.352   6.044
 4179SOL    HW213080   2.251   0.384   6.189
 4180SOL     OW13081   3.567   1.487   6.690
 4180SOL    HW113082   3.474   1.462   6.663
 4180SOL    HW213083   3.593   1.437   6.772
 4181SOL     OW13084   2.179   0.547   6.866
 4181SOL    HW113085   2.217   0.488   6.938
 4181SOL    HW213086   2.219   0.521   6.778
 4182SOL     OW13087   3.286   0.214   6.698
 4182SOL    HW113088   3.338   0.149   6.753
 4182SOL    HW213089   3.237   0.277   6.759
 4183SOL     OW13090   2.863   0.034   6.740
 4183SOL    HW113091   2.800  -0.038   6.709
 4183SOL    HW213092   2.956  -0.002   6.740
 4184SOL     OW13093   2.632   1.330   5.887
 4184SOL    HW113094   2.586   1.243   5.904
 4184SOL    HW213095   2.723   1.327   5.928
 4185SOL     OW13096   3.214   0.052   5.754
 4185SOL    HW113097   3.249   0.011   5.670
 4185SOL    HW213098   3.124   0.014   5.774
 4186SOL     OW13099   3.162   0.453   6.277
 4186SOL    HW113100   3.103   0.533   6.281
 4186SOL    HW213101   3.177   0.418   6.370
 4187SOL     OW13102   3.455   0.221   6.468
 4187SOL    HW113103   3.371   0.220   6.522
 4187SOL    HW213104   3.457   0.304   6.412
 4188SOL     OW13105   1.901   1.077   5.886
 4188SOL    HW113106   2.000   1.066   5.877
 4188SOL    HW213107   1.861   0.991   5.918
 4189SOL     OW13108   2.737   1.646   5.923
 4189SOL    HW113109   2.660   1.611   5.869
 4189SOL    HW213110   2.705   1.717   5.985
 4190SOL     OW13111   2.092   0.628   7.561
 4190SOL    HW113112   1.999   0.626   7.598
 4190SOL    HW213113   2.093   0.589   7.469
 4191SOL     OW13114   2.087   0.275   8.444
 4191SOL    HW113115   2.122   0.258   8.536
 4191SOL    HW213116   1.999   0.230   8.432
 4192SOL     OW13117   1.881   0.368   8.095
 4192SOL    HW113118   1.799   0.411   8.134
 4192SOL    HW213119   1.853   0.295   8.032
 4193SOL     OW13120   2.431   1.275   8.613
 4193SOL    HW113121   2.338   1.268   8.576
 4193SOL    HW213122   2.442   1.364   8.657
 4194SOL     OW13123   3.417   1.511   8.151
 4194SOL    HW113124   3.360   1.495   8.232
 4194SOL    HW213125   3.358   1.521   8.071
 4195SOL     OW13126   2.997   0.703   8.165
 4195SOL    HW113127   3.054   0.781   8.140
 4195SOL    HW213128   2.937   0.729   8.241
 4196SOL     OW13129   3.617   0.607   7.679
 4196SOL    HW113130   3.605   0.594   7.580
 4196SOL    HW213131   3.587   0.526   7.728
 4197SOL     OW13132   2.630   1.144   8.471
 4197SOL    HW113133   2.552   1.161   8.531
 4197SOL    HW213134   2.664   1.231   8.435
 4198SOL     OW13135   2.712   0.798   9.271
 4198SOL    HW113136   2.708   0.874   9.336
 4198SOL    HW213137   2.734   0.834   9.180
 4199SOL     OW13138   2.547   1.012   8.113
 4199SOL    HW113139   2.616   0.996   8.183
 4199SOL    HW213140   2.474   1.069   8.151
 4200SOL     OW13141   2.548   1.161   9.251
 4200SOL    HW113142   2.608   1.240   9.265
 4200SOL    HW213143   2.462   1.192   9.210
 4201SOL     OW13144   2.197   1.435   8.509
 4201SOL    HW113145   2.119   1.404   8.456
 4201SOL    HW213146   2.255   1.493   8.452
 4202SOL     OW13147   3.322   1.505   8.787
 4202SOL    HW113148   3.346   1.599   8.813
 4202SOL    HW213149   3.306   1.451   8.869
 4203SOL     OW13150   2.300   0.392   8.947
 4203SOL    HW113151   2.382   0.336   8.956
 4203SOL    HW213152   2.219   0.334   8.951
 4204SOL     OW13153   3.465   0.447   8.185
 4204SOL    HW113154   3.391   0.493   8.135
 4204SOL    HW213155   3.516   0.515   8.238
 4205SOL     OW13156   2.093   1.713   7.931
 4205SOL    HW113157   2.127   1.790   7.985
 4205SOL    HW213158   2.137   1.713   7.841
 4206SOL     OW13159   2.989   1.341   9.138
 4206SOL    HW113160   3.036   1.341   9.226
 4206SOL    HW213161   2.941   1.254   9.127
 4207SOL     OW13162   2.092   1.434   7.986
 4207SOL    HW113163   2.066   1.530   7.986
 4207SOL    HW213164   2.021   1.380   8.031
 4208SOL     OW13165   2.102   1.091   8.334
 4208SOL    HW113166   2.116   1.007   8.386
 4208SOL    HW213167   2.047   1.155   8.389
 4209SOL     OW13168   2.482   1.786   8.887
 4209SOL    HW113169   2.390   1.769   8.922
 4209SOL    HW213170   2.510   1.878   8.913
 4210SOL     OW13171   2.468   0.964   7.571
 4210SOL    HW113172   2.475   1.048   7.517
 4210SOL    HW213173   2.514   0.977   7.659
 4211SOL     OW13174   3.456   0.114   8.928
 4211SOL    HW113175   3.438   0.181   8.856
 4211SOL    HW213176   3.453   0.160   9.017
 4212SOL     OW13177   1.984   0.643   8.011
 4212SOL    HW113178   1.939   0.555   8.028
 4212SOL    HW213179   1.983   0.697   8.095
 4213SOL     OW13180   3.704   1.767   7.807
 4213SOL    HW113181   3.758   1.738   7.887
 4213SOL    HW213182   3.734   1.857   7.778
 4214SOL     OW13183   3.551   0.922   8.060
 4214SOL    HW113184   3.646   0.893   8.068
 4214SOL    HW213185   3.543   0.987   7.985
 4215SOL     OW13186   3.503   1.108   7.880
 4215SOL    HW113187   3.589   1.110   7.828
 4215SOL    HW213188   3.517   1.155   7.968
 4216SOL     OW13189   1.975   0.737   9.045
 4216SOL    HW113190   2.063   0.724   9.090
 4216SOL    HW213191   1.962   0.834   9.023
 4217SOL     OW13192   2.475   1.365   8.174
 4217SOL    HW113193   2.426   1.278   8.183
 4217SOL    HW213194   2.452   1.408   8.087
 4218SOL     OW13195   3.155   1.228   8.871
 4218SOL    HW113196   3.192   1.155   8.813
 4218SOL    HW213197   3.207   1.233   8.956
 4219SOL     OW13198   2.671   0.004   7.950
 4219SOL    HW113199   2.711   0.095   7.941
 4219SOL    HW213200   2.571   0.012   7.956
 4220SOL     OW13201   2.059   0.976   8.712
 4220SOL    HW113202   2.148   0.931   8.698
 4220SOL    HW213203   1.986   0.911   8.693
 4221SOL     OW13204   3.387   0.999   7.638
 4221SOL    HW113205   3.324   0.923   7.651
 4221SOL    HW213206   3.435   1.017   7.724
 4222SOL     OW13207   3.049   1.792   9.064
 4222SOL    HW113208   3.073   1.852   8.988
 4222SOL    HW213209   3.056   1.697   9.034
 4223SOL     OW13210   2.179   0.251   9.249
 4223SOL    HW113211   2.250   0.322   9.255
 4223SOL    HW213212   2.091   0.290   9.277
 4224SOL     OW13213   3.328   1.417   8.401
 4224SOL    HW113214   3.269   1.423   8.481
 4224SOL    HW213215   3.313   1.329   8.355
 4225SOL     OW13216   3.529   1.714   8.020
 4225SOL    HW113217   3.488   1.691   7.932
 4225SOL    HW213218   3.511   1.640   8.085
 4226SOL     OW13219   2.460   0.729   7.718
 4226SOL    HW113220   2.484   0.798   7.650
 4226SOL    HW213221   2.382   0.762   7.772
 4227SOL     OW13222   3.143   0.345   8.392
 4227SOL    HW113223   3.057   0.295   8.379
 4227SOL    HW213224   3.205   0.291   8.448
 4228SOL     OW13225   3.438   1.662   7.755
 4228SOL    HW113226   3.527   1.708   7.758
 4228SOL    HW213227   3.417   1.638   7.660
 4229SOL     OW13228   2.669   0.605   8.913
 4229SOL    HW113229   2.622   0.602   9.002
 4229SOL    HW213230   2.618   0.550   8.847
 4230SOL     OW13231   3.256   0.469   9.122
 4230SOL    HW113232   3.236   0.512   9.210
 4230SOL    HW213233   3.334   0.407   9.131
 4231SOL     OW13234   2.835   0.890   9.020
 4231SOL    HW113235   2.881   0.806   8.991
 4231SOL    HW213236   2.779   0.924   8.945
 4232SOL     OW13237   2.853   0.410   8.690
 4232SOL    HW113238   2.776   0.444   8.744
 4232SOL    HW213239   2.819   0.359   8.611
 4233SOL     OW13240   2.903   0.701   7.877
 4233SOL    HW113241   2.929   0.697   7.973
 4233SOL    HW213242   2.818   0.650   7.863
 4234SOL     OW13243   1.938   0.811   8.237
 4234SOL    HW113244   2.037   0.799   8.246
 4234SOL    HW213245   1.914   0.906   8.258
 4235SOL     OW13246   2.727   0.348   7.643
 4235SOL    HW113247   2.786   0.411   7.594
 4235SOL    HW213248   2.746   0.254   7.614
 4236SOL     OW13249   3.581   0.585   9.279
 4236SOL    HW113250   3.555   0.674   9.243
 4236SOL    HW213251   3.579   0.517   9.206
 4237SOL     OW13252   3.224   1.144   7.993
 4237SOL    HW113253   3.307   1.115   7.945
 4237SOL    HW213254   3.175   1.211   7.937
 4238SOL     OW13255   2.412   0.196   8.333
 4238SOL    HW113256   2.407   0.191   8.433
 4238SOL    HW213257   2.414   0.292   8.304
 4239SOL     OW13258   2.870   1.456   7.925
 4239SOL    HW113259   2.824   1.528   7.873
 4239SOL    HW213260   2.866   1.476   8.023
 4240SOL     OW13261   2.213   1.801   8.301
 4240SOL    HW113262   2.263   1.715   8.307
 4240SOL    HW213263   2.278   1.878   8.298
 4241SOL     OW13264   3.657   1.066   8.321
 4241SOL    HW113265   3.595   1.051   8.245
 4241SOL    HW213266   3.605   1.077   8.406
 4242SOL     OW13267   3.089   1.550   8.954
 4242SOL    HW113268   3.095   1.473   9.018
 4242SOL    HW213269   3.037   1.524   8.874
 4243SOL     OW13270   2.183   0.943   7.690
 4243SOL    HW113271   2.265   0.982   7.648
 4243SOL    HW213272   2.156   0.861   7.641
 4244SOL     OW13273   3.320   0.735   8.176
 4244SOL    HW113274   3.315   0.670   8.251
 4244SOL    HW213275   3.400   0.794   8.189
 4245SOL     OW13276   2.323   1.266   9.175
 4245SOL    HW113277   2.273   1.267   9.089
 4245SOL    HW213278   2.260   1.248   9.251
 4246SOL     OW13279   2.973   1.776   7.685
 4246SOL    HW113280   2.913   1.714   7.735
 4246SOL    HW213281   3.004   1.732   7.600
 4247SOL     OW13282   2.064   0.285   8.946
 4247SOL    HW113283   1.984   0.345   8.933
 4247SOL    HW213284   2.054   0.236   9.032
 4248SOL     OW13285   3.494   1.377   7.529
 4248SOL    HW113286   3.462   1.471   7.519
 4248SOL    HW213287   3.418   1.314   7.517
 4249SOL     OW13288   2.326   1.743   7.771
 4249SOL    HW113289   2.359   1.782   7.857
 4249SOL    HW213290   2.402   1.736   7.706
 4250SOL     OW13291   3.262   0.107   7.874
 4250SOL    HW113292   3.238   0.070   7.784
 4250SOL    HW213293   3.361   0.123   7.878
 4251SOL     OW13294   2.111   1.785   8.689
 4251SOL    HW113295   2.168   1.720   8.739
 4251SOL    HW213296   2.095   1.752   8.596
 4252SOL     OW13297   2.802   1.698   8.352
 4252SOL    HW113298   2.882   1.641   8.373
 4252SOL    HW213299   2.753   1.658   8.275
 4253SOL     OW13300   2.244   0.700   7.928
 4253SOL    HW113301   2.289   0.610   7.925
 4253SOL    HW213302   2.150   0.689   7.961
 4254SOL     OW13303   3.409   0.222   9.177
 4254SOL    HW113304   3.404   0.259   9.269
 4254SOL    HW213305   3.337   0.153   9.165
 4255SOL     OW13306   2.476   0.122   7.565
 4255SOL    HW113307   2.574   0.100   7.572
 4255SOL    HW213308   2.445   0.105   7.472
 4256SOL     OW13309   2.643   0.264   9.197
 4256SOL    HW113310   2.710   0.203   9.240
 4256SOL    HW213311   2.570   0.283   9.262
 4257SOL     OW13312   2.750   1.514   8.643
 4257SOL    HW113313   2.727   1.489   8.549
 4257SOL    HW213314   2.811   1.445   8.682
 4258SOL     OW13315   3.213   0.590   8.881
 4258SOL    HW113316   3.241   0.547   8.966
 4258SOL    HW213317   3.238   0.686   8.882
 4259SOL     OW13318   2.665   1.402   8.372
 4259SOL    HW113319   2.755   1.416   8.330
 4259SOL    HW213320   2.594   1.404   8.301
 4260SOL     OW13321   2.784   0.503   8.347
 4260SOL    HW113322   2.759   0.494   8.251
 4260SOL    HW213323   2.832   0.421   8.378
 4261SOL     OW13324   2.401   0.064   7.960
 4261SOL    HW113325   2.320   0.065   8.018
 4261SOL    HW213326   2.404   0.147   7.905
 4262SOL     OW13327   3.296   1.188   7.489
 4262SOL    HW113328   3.328   1.112   7.546
 4262SOL    HW213329   3.204   1.215   7.519
 4263SOL     OW13330   2.159   0.035   7.619
 4263SOL    HW113331   2.208   0.119   7.598
 4263SOL    HW213332   2.221  -0.030   7.664
 4264SOL     OW13333   2.797   0.236   7.928
 4264SOL    HW113334   2.749   0.277   7.850
 4264SOL    HW213335   2.896   0.234   7.909
 4265SOL     OW13336   2.938   0.683   8.912
 4265SOL    HW113337   2.858   0.622   8.915
 4265SOL    HW213338   3.019   0.630   8.888
 4266SOL     OW13339   3.089   1.570   8.241
 4266SOL    HW113340   3.110   1.644   8.176
 4266SOL    HW213341   3.157   1.570   8.314
 4267SOL     OW13342   2.321   1.152   8.189
 4267SOL    HW113343   2.250   1.125   8.254
 4267SOL    HW213344   2.295   1.124   8.096
 4268SOL     OW13345   3.133   1.797   8.039
 4268SOL    HW113346   3.177   1.861   7.975
 4268SOL    HW213347   3.083   1.849   8.109
 4269SOL     OW13348   2.894   0.549   7.464
 4269SOL    HW113349   2.853   0.631   7.425
 4269SOL    HW213350   2.958   0.575   7.537
 4270SOL     OW13351   1.940   0.556   8.834
 4270SOL    HW113352   2.032   0.555   8.793
 4270SOL    HW213353   1.934   0.630   8.901
 4271SOL     OW13354   2.423   0.222   8.595
 4271SOL    HW113355   2.461   0.138   8.632
 4271SOL    HW213356   2.335   0.241   8.639
 4272SOL     OW13357   2.728   0.454   8.090
 4272SOL    HW113358   2.696   0.526   8.028
 4272SOL    HW213359   2.752   0.373   8.037
 4273SOL     OW13360   2.879   0.039   8.201
 4273SOL    HW113361   2.807   0.044   8.132
 4273SOL    HW213362   2.855  -0.030   8.270
 4274SOL     OW13363   3.291   1.173   8.315
 4274SOL    HW113364   3.236   1.089   8.308
 4274SOL    HW213365   3.317   1.202   8.223
 4275SOL     OW13366   3.328   0.590   8.440
 4275SOL    HW113367   3.298   0.495   8.447
 4275SOL    HW213368   3.401   0.606   8.506
 4276SOL     OW13369   3.719   0.833   7.825
 4276SOL    HW113370   3.761   0.769   7.889
 4276SOL    HW213371   3.681   0.782   7.747
 4277SOL     OW13372   3.526   1.280   8.105
 4277SOL    HW113373   3.625   1.288   8.119
 4277SOL    HW213374   3.481   1.364   8.136
 4278SOL     OW13375   3.252   0.575   7.526
 4278SOL    HW113376   3.198   0.554   7.607
 4278SOL    HW213377   3.343   0.534   7.535
 4279SOL     OW13378   2.389   0.256   7.776
 4279SOL    HW113379   2.416   0.197   7.701
 4279SOL    HW213380   2.389   0.351   7.745
 4280SOL     OW13381   3.616   1.223   9.036
 4280SOL    HW113382   3.707   1.184   9.023
 4280SOL    HW213383   3.624   1.319   9.060
 4281SOL     OW13384   2.926   1.347   8.788
 4281SOL    HW113385   2.846   1.324   8.843
 4281SOL    HW213386   3.009   1.321   8.837
 4282SOL     OW13387   3.454   1.629   9.073
 4282SOL    HW113388   3.481   1.663   8.983
 4282SOL    HW213389   3.533   1.591   9.119
 4283SOL     OW13390   2.973   1.195   8.548
 4283SOL    HW113391   2.933   1.239   8.629
 4283SOL    HW213392   2.932   1.232   8.465
 4284SOL     OW13393   3.500   1.099   8.527
 4284SOL    HW113394   3.505   1.180   8.586
 4284SOL    HW213395   3.414   1.101   8.476
 4285SOL     OW13396   2.777   0.089   8.850
 4285SOL    HW113397   2.802   0.069   8.755
 4285SOL    HW213398   2.849   0.145   8.892
 4286SOL     OW13399   2.842   1.116   9.167
 4286SOL    HW113400   2.743   1.122   9.177
 4286SOL    HW213401   2.865   1.036   9.111
 4287SOL     OW13402   2.567   1.050   7.816
 4287SOL    HW113403   2.553   1.057   7.915
 4287SOL    HW213404   2.651   0.999   7.798
 4288SOL     OW13405   2.272   0.813   8.699
 4288SOL    HW113406   2.358   0.825   8.749
 4288SOL    HW213407   2.230   0.726   8.726
 4289SOL     OW13408   3.136   0.386   8.710
 4289SOL    HW113409   3.157   0.460   8.774
 4289SOL    HW213410   3.047   0.403   8.667
 4290SOL     OW13411   1.926   1.564   8.779
 4290SOL    HW113412   1.880   1.646   8.745
 4290SOL    HW213413   2.024   1.583   8.788
 4291SOL     OW13414   2.229   1.100   7.949
 4291SOL    HW113415   2.222   1.183   7.893
 4291SOL    HW213416   2.233   1.020   7.889
 4292SOL     OW13417   2.428   0.537   8.313
 4292SOL    HW113418   2.440   0.603   8.239
 4292SOL    HW213419   2.474   0.571   8.396
 4293SOL     OW13420   3.114   1.348   7.836
 4293SOL    HW113421   3.164   1.425   7.876
 4293SOL    HW213422   3.019   1.350   7.868
 4294SOL     OW13423   3.134   1.445   8.590
 4294SOL    HW113424   3.181   1.458   8.677
 4294SOL    HW213425   3.068   1.371   8.599
 4295SOL     OW13426   3.444   0.639   7.920
 4295SOL    HW113427   3.413   0.700   7.993
 4295SOL    HW213428   3.494   0.691   7.851
 4296SOL     OW13429   2.216   1.510   8.777
 4296SOL    HW113430   2.195   1.466   8.690
 4296SOL    HW213431   2.313   1.536   8.780
 4297SOL     OW13432   2.264   0.751   9.046
 4297SOL    HW113433   2.332   0.806   8.999
 4297SOL    HW213434   2.304   0.663   9.073
 4298SOL     OW13435   3.449   0.779   9.118
 4298SOL    HW113436   3.357   0.817   9.113
 4298SOL    HW213437   3.509   0.826   9.053
 4299SOL     OW13438   2.875   0.105   9.218
 4299SOL    HW113439   2.881   0.190   9.166
 4299SOL    HW213440   2.907   0.029   9.161
 4300SOL     OW13441   2.366   0.050   9.188
 4300SOL    HW113442   2.324  -0.007   9.118
 4300SOL    HW213443   2.300   0.119   9.220
 4301SOL     OW13444   2.435   0.870   8.477
 4301SOL    HW113445   2.479   0.959   8.468
 4301SOL    HW213446   2.372   0.870   8.554
 4302SOL     OW13447   3.222   0.862   8.493
 4302SOL    HW113448   3.147   0.862   8.427
 4302SOL    HW213449   3.259   0.770   8.502
 4303SOL     OW13450   3.071   0.525   7.723
 4303SOL    HW113451   3.084   0.441   7.777
 4303SOL    HW213452   3.042   0.599   7.783
 4304SOL     OW13453   2.169   0.213   8.679
 4304SOL    HW113454   2.146   0.250   8.769
 4304SOL    HW213455   2.139   0.118   8.673
 4305SOL     OW13456   1.899   1.310   8.730
 4305SOL    HW113457   1.952   1.261   8.798
 4305SOL    HW213458   1.921   1.408   8.735
 4306SOL     OW13459   2.594   0.634   8.512
 4306SOL    HW113460   2.653   0.608   8.436
 4306SOL    HW213461   2.566   0.730   8.501
 4307SOL     OW13462   3.590   0.935   9.302
 4307SOL    HW113463   3.544   0.928   9.213
 4307SOL    HW213464   3.528   0.979   9.368
 4308SOL     OW13465   2.169   0.063   8.066
 4308SOL    HW113466   2.158   0.157   8.099
 4308SOL    HW213467   2.164   0.000   8.143
 4309SOL     OW13468   3.484   0.367   7.822
 4309SOL    HW113469   3.486   0.291   7.886
 4309SOL    HW213470   3.436   0.444   7.862
 4310SOL     OW13471   2.885   0.766   8.414
 4310SOL    HW113472   2.900   0.787   8.510
 4310SOL    HW213473   2.855   0.671   8.405
 4311SOL     OW13474   2.842   1.573   9.148
 4311SOL    HW113475   2.822   1.617   9.060
 4311SOL    HW213476   2.881   1.482   9.132
 4312SOL     OW13477   3.721   1.518   9.053
 4312SOL    HW113478   3.735   1.545   8.958
 4312SOL    HW213479   3.804   1.540   9.106
 4313SOL     OW13480   2.212   0.898   9.252
 4313SOL    HW113481   2.288   0.942   9.300
 4313SOL    HW213482   2.247   0.851   9.170
 4314SOL     OW13483   3.402   0.274   7.573
 4314SOL    HW113484   3.341   0.199   7.596
 4314SOL    HW213485   3.424   0.326   7.656
 4315SOL     OW13486   3.165   0.838   7.490
 4315SOL    HW113487   3.199   0.745   7.505
 4315SOL    HW213488   3.183   0.865   7.395
 4316SOL     OW13489   2.930   1.333   8.297
 4316SOL    HW113490   2.937   1.249   8.242
 4316SOL    HW213491   2.992   1.402   8.261
 4317SOL     OW13492   2.181   0.810   8.397
 4317SOL    HW113493   2.274   0.846   8.402
 4317SOL    HW213494   2.175   0.725   8.449
 4318SOL     OW13495   2.201   0.509   8.454
 4318SOL    HW113496   2.149   0.426   8.437
 4318SOL    HW213497   2.278   0.514   8.390
 4319SOL     OW13498   3.000   0.380   9.126
 4319SOL    HW113499   2.955   0.443   9.190
 4319SOL    HW213500   3.093   0.411   9.109
 4320SOL     OW13501   3.022   0.207   8.925
 4320SOL    HW113502   3.022   0.271   9.002
 4320SOL    HW213503   3.050   0.255   8.842
 4321SOL     OW13504   1.950   1.801   8.375
 4321SOL    HW113505   1.908   1.715   8.348
 4321SOL    HW213506   2.044   1.804   8.341
 4322SOL     OW13507   2.366   1.568   8.358
 4322SOL    HW113508   2.432   1.642   8.367
 4322SOL    HW213509   2.410   1.489   8.316
 4323SOL     OW13510   2.864   0.796   8.686
 4323SOL    HW113511   2.905   0.764   8.772
 4323SOL    HW213512   2.768   0.769   8.683
 4324SOL     OW13513   1.902   0.544   8.562
 4324SOL    HW113514   1.987   0.511   8.521
 4324SOL    HW213515   1.915   0.559   8.660
 4325SOL     OW13516   2.051   0.520   9.170
 4325SOL    HW113517   2.110   0.480   9.100
 4325SOL    HW213518   1.993   0.591   9.129
 4326SOL     OW13519   3.231   0.950   9.108
 4326SOL    HW113520   3.270   1.039   9.128
 4326SOL    HW213521   3.241   0.930   9.011
 4327SOL     OW13522   2.677   0.572   7.773
 4327SOL    HW113523   2.684   0.483   7.727
 4327SOL    HW213524   2.583   0.606   7.765
 4328SOL     OW13525   3.519   0.604   8.654
 4328SOL    HW113526   3.481   0.535   8.716
 4328SOL    HW213527   3.601   0.568   8.610
 4329SOL     OW13528   2.114   1.564   9.192
 4329SOL    HW113529   2.084   1.621   9.268
 4329SOL    HW213530   2.107   1.467   9.218
 4330SOL     OW13531   2.533   0.464   8.717
 4330SOL    HW113532   2.499   0.375   8.687
 4330SOL    HW213533   2.559   0.518   8.637
 4331SOL     OW13534   2.792   1.678   8.913
 4331SOL    HW113535   2.768   1.660   8.818
 4331SOL    HW213536   2.822   1.772   8.923
 4332SOL     OW13537   2.335   0.500   7.639
 4332SOL    HW113538   2.396   0.580   7.643
 4332SOL    HW213539   2.240   0.531   7.646
 4333SOL     OW13540   2.021   1.137   8.914
 4333SOL    HW113541   2.043   1.076   8.990
 4333SOL    HW213542   2.031   1.088   8.828
 4334SOL     OW13543   3.209   1.059   8.682
 4334SOL    HW113544   3.233   0.996   8.608
 4334SOL    HW213545   3.119   1.099   8.664
 4335SOL     OW13546   3.164   0.855   7.757
 4335SOL    HW113547   3.078   0.824   7.799
 4335SOL    HW213548   3.160   0.841   7.658
 4336SOL     OW13549   3.621   1.747   8.602
 4336SOL    HW113550   3.682   1.777   8.529
 4336SOL    HW213551   3.583   1.658   8.580
 4337SOL     OW13552   3.114   1.731   8.576
 4337SOL    HW113553   3.198   1.736   8.522
 4337SOL    HW213554   3.091   1.635   8.594
 4338SOL     OW13555   1.945   1.258   8.470
 4338SOL    HW113556   1.940   1.257   8.570
 4338SOL    HW213557   1.862   1.217   8.432
 4339SOL     OW13558   2.550   1.662   9.164
 4339SOL    HW113559   2.494   1.743   9.173
 4339SOL    HW213560   2.602   1.666   9.078
 4340SOL     OW13561   3.588   0.135   7.971
 4340SOL    HW113562   3.661   0.118   7.904
 4340SOL    HW213563   3.557   0.048   8.009
 4341SOL     OW13564   3.250   1.573   7.925
 4341SOL    HW113565   3.317   1.585   7.851
 4341SOL    HW213566   3.210   1.662   7.948
 4342SOL     OW13567   1.992   1.794   9.299
 4342SOL    HW113568   1.951   1.720   9.352
 4342SOL    HW213569   2.056   1.845   9.357
 4343SOL     OW13570   3.142   0.927   8.120
 4343SOL    HW113571   3.202   0.846   8.122
 4343SOL    HW213572   3.182   0.996   8.060
 4344SOL     OW13573   2.692   1.273   8.870
 4344SOL    HW113574   2.687   1.306   8.965
 4344SOL    HW213575   2.606   1.292   8.824
 4345SOL     OW13576   3.512   1.720   8.842
 4345SOL    HW113577   3.565   1.730   8.758
 4345SOL    HW213578   3.485   1.810   8.876
 4346SOL     OW13579   3.703   0.175   8.411
 4346SOL    HW113580   3.742   0.090   8.375
 4346SOL    HW213581   3.605   0.177   8.392
 4347SOL     OW13582   2.125   0.326   8.168
 4347SOL    HW113583   2.046   0.377   8.134
 4347SOL    HW213584   2.116   0.311   8.266
 4348SOL     OW13585   3.056   1.612   7.479
 4348SOL    HW113586   3.062   1.519   7.516
 4348SOL    HW213587   2.997   1.612   7.399
 4349SOL     OW13588   2.684   1.002   8.820
 4349SOL    HW113589   2.724   1.001   8.728
 4349SOL    HW213590   2.694   1.094   8.860
 4350SOL     OW13591   2.778   0.910   7.739
 4350SOL    HW113592   2.841   0.948   7.671
 4350SOL    HW213593   2.818   0.827   7.778
 4351SOL     OW13594   3.366   1.607   7.492
 4351SOL    HW113595   3.274   1.644   7.499
 4351SOL    HW213596   3.404   1.627   7.402
 4352SOL     OW13597   2.234   1.288   8.938
 4352SOL    HW113598   2.221   1.381   8.904
 4352SOL    HW213599   2.150   1.236   8.925
 4353SOL     OW13600   3.476   1.292   8.737
 4353SOL    HW113601   3.536   1.295   8.817
 4353SOL    HW213602   3.401   1.356   8.750
 4354SOL     OW13603   2.901   1.098   8.144
 4354SOL    HW113604   2.831   1.051   8.198
 4354SOL    HW213605   2.960   1.030   8.101
 4355SOL     OW13606   2.876   0.236   8.419
 4355SOL    HW113607   2.868   0.200   8.326
 4355SOL    HW213608   2.874   0.160   8.484
 4356SOL     OW13609   2.452   1.487   7.939
 4356SOL    HW113610   2.494   1.429   7.869
 4356SOL    HW213611   2.408   1.566   7.895
 4357SOL     OW13612   3.571   0.385   8.829
 4357SOL    HW113613   3.644   0.454   8.833
 4357SOL    HW213614   3.599   0.310   8.770
 4358SOL     OW13615   1.967   1.013   9.174
 4358SOL    HW113616   1.890   0.980   9.228
 4358SOL    HW213617   2.052   0.983   9.216
 4359SOL     OW13618   2.534   0.203   8.937
 4359SOL    HW113619   2.624   0.187   8.897
 4359SOL    HW213620   2.542   0.208   9.036
 4360SOL     OW13621   1.937   0.345   7.481
 4360SOL    HW113622   1.845   0.317   7.452
 4360SOL    HW213623   1.968   0.422   7.425
 4361SOL     OW13624   3.302   0.856   8.846
 4361SOL    HW113625   3.245   0.908   8.783
 4361SOL    HW213626   3.398   0.868   8.822
 4362SOL     OW13627   1.934   0.166   7.766
 4362SOL    HW113628   1.917   0.249   7.712
 4362SOL    HW213629   2.024   0.129   7.744
 4363SOL     OW13630   3.045   1.335   7.567
 4363SOL    HW113631   2.946   1.324   7.569
 4363SOL    HW213632   3.079   1.350   7.660
 4364SOL     OW13633   2.475   0.842   8.879
 4364SOL    HW113634   2.531   0.923   8.862
 4364SOL    HW213635   2.534   0.762   8.882
 4365SOL     OW13636   3.355   1.767   8.407
 4365SOL    HW113637   3.388   1.831   8.338
 4365SOL    HW213638   3.421   1.761   8.482
 4366SOL     OW13639   2.578   0.565   9.156
 4366SOL    HW113640   2.597   0.630   9.230
 4366SOL    HW213641   2.638   0.485   9.165
 4367SOL     OW13642   3.312   1.220   9.081
 4367SOL    HW113643   3.303   1.210   9.180
 4367SOL    HW213644   3.408   1.213   9.055
 4368SOL     OW13645   2.252   1.741   9.008
 4368SOL    HW113646   2.161   1.782   9.006
 4368SOL    HW213647   2.245   1.647   9.040
 4369SOL     OW13648   3.536   0.883   8.702
 4369SOL    HW113649   3.509   0.794   8.665
 4369SOL    HW213650   3.537   0.951   8.629
 4370SOL     OW13651   3.087   0.325   7.897
 4370SOL    HW113652   3.152   0.251   7.886
 4370SOL    HW213653   3.107   0.375   7.981
 4371SOL     OW13654   2.456   0.745   8.100
 4371SOL    HW113655   2.506   0.830   8.081
 4371SOL    HW213656   2.368   0.747   8.052
 4372SOL     OW13657   3.639   0.342   9.090
 4372SOL    HW113658   3.622   0.373   8.996
 4372SOL    HW213659   3.555   0.305   9.128
 4373SOL     OW13660   3.592   0.934   8.965
 4373SOL    HW113661   3.630   1.025   8.980
 4373SOL    HW213662   3.584   0.917   8.866
 4374SOL     OW13663   2.721   1.374   7.464
 4374SOL    HW113664   2.675   1.389   7.552
 4374SOL    HW213665   2.765   1.459   7.434
 4375SOL     OW13666   2.523   1.790   8.401
 4375SOL    HW113667   2.477   1.878   8.388
 4375SOL    HW213668   2.622   1.802   8.394
 4376SOL     OW13669   2.721   0.956   8.309
 4376SOL    HW113670   2.775   0.887   8.357
 4376SOL    HW213671   2.689   1.025   8.375
 4377SOL     OW13672   2.945   0.984   7.535
 4377SOL    HW113673   2.922   1.037   7.453
 4377SOL    HW213674   3.026   0.928   7.516
 4378SOL     OW13675   3.723   1.569   8.299
 4378SOL    HW113676   3.652   1.557   8.229
 4378SOL    HW213677   3.724   1.490   8.359
 4379SOL     OW13678   2.083   1.314   9.292
 4379SOL    HW113679   2.018   1.241   9.271
 4379SOL    HW213680   2.087   1.328   9.390
 4380SOL     OW13681   1.941   1.240   8.101
 4380SOL    HW113682   1.940   1.193   8.189
 4380SOL    HW213683   2.023   1.212   8.050
 4381SOL     OW13684   2.534   1.391   9.072
 4381SOL    HW113685   2.456   1.341   9.110
 4381SOL    HW213686   2.531   1.486   9.103
 4382SOL     OW13687   3.686   0.192   8.675
 4382SOL    HW113688   3.682   0.102   8.719
 4382SOL    HW213689   3.689   0.181   8.576
 4383SOL     OW13690   2.290   0.424   7.968
 4383SOL    HW113691   2.320   0.352   7.906
 4383SOL    HW213692   2.251   0.384   8.051
 4384SOL     OW13693   3.567   1.487   8.552
 4384SOL    HW113694   3.474   1.462   8.525
 4384SOL    HW213695   3.593   1.437   8.634
 4385SOL     OW13696   2.179   0.547   8.728
 4385SOL    HW113697   2.217   0.488   8.800
 4385SOL    HW213698   2.219   0.521   8.640
 4386SOL     OW13699   2.674   1.586   8.135
 4386SOL    HW113700   2.706   1.596   8.041
 4386SOL    HW213701   2.595   1.524   8.137
 4387SOL     OW13702   3.286   0.214   8.560
 4387SOL    HW113703   3.338   0.149   8.615
 4387SOL    HW213704   3.237   0.277   8.621
 4388SOL     OW13705   2.863   0.034   8.602
 4388SOL    HW113706   2.800  -0.038   8.571
 4388SOL    HW213707   2.956  -0.002   8.602
 4389SOL     OW13708   2.632   1.330   7.749
 4389SOL    HW113709   2.586   1.243   7.766
 4389SOL    HW213710   2.723   1.327   7.790
 4390SOL     OW13711   2.480   1.567   8.732
 4390SOL    HW113712   2.475   1.649   8.789
 4390SOL    HW213713   2.569   1.564   8.687
 4391SOL     OW13714   3.214   0.052   7.616
 4391SOL    HW113715   3.249   0.011   7.532
 4391SOL    HW213716   3.124   0.014   7.636
 4392SOL     OW13717   3.162   0.453   8.139
 4392SOL    HW113718   3.103   0.533   8.143
 4392SOL    HW213719   3.177   0.418   8.232
 4393SOL     OW13720   3.455   0.221   8.330
 4393SOL    HW113721   3.371   0.220   8.384
 4393SOL    HW213722   3.457   0.304   8.274
 4394SOL     OW13723   1.901   1.077   7.748
 4394SOL    HW113724   2.000   1.066   7.739
 4394SOL    HW213725   1.861   0.991   7.780
 4395SOL     OW13726   2.092   0.628   9.423
 4395SOL    HW113727   1.999   0.626   9.460
 4395SOL    HW213728   2.093   0.589   9.331
 4396SOL     OW13729   2.087   0.275  10.306
 4396SOL    HW113730   2.122   0.258  10.398
 4396SOL    HW213731   1.999   0.230  10.294
 4397SOL     OW13732   1.881   0.368   9.957
 4397SOL    HW113733   1.799   0.411   9.996
 4397SOL    HW213734   1.853   0.295   9.894
 4398SOL     OW13735   2.431   1.275  10.475
 4398SOL    HW113736   2.338   1.268  10.438
 4398SOL    HW213737   2.442   1.364  10.519
 4399SOL     OW13738   3.417   1.511  10.013
 4399SOL    HW113739   3.360   1.495  10.094
 4399SOL    HW213740   3.358   1.521   9.933
 4400SOL     OW13741   2.997   0.703  10.027
 4400SOL    HW113742   3.054   0.781  10.002
 4400SOL    HW213743   2.937   0.729  10.103
 4401SOL     OW13744   3.617   0.607   9.541
 4401SOL    HW113745   3.605   0.594   9.442
 4401SOL    HW213746   3.587   0.526   9.590
 4402SOL     OW13747   2.630   1.144  10.333
 4402SOL    HW113748   2.552   1.161  10.393
 4402SOL    HW213749   2.664   1.231  10.297
 4403SOL     OW13750   2.712   0.798  11.133
 4403SOL    HW113751   2.708   0.874  11.198
 4403SOL    HW213752   2.734   0.834  11.042
 4404SOL     OW13753   2.547   1.012   9.975
 4404SOL    HW113754   2.616   0.996  10.045
 4404SOL    HW213755   2.474   1.069  10.013
 4405SOL     OW13756   2.548   1.161  11.113
 4405SOL    HW113757   2.608   1.240  11.127
 4405SOL    HW213758   2.462   1.192  11.072
 4406SOL     OW13759   2.197   1.435  10.371
 4406SOL    HW113760   2.119   1.404  10.318
 4406SOL    HW213761   2.255   1.493  10.314
 4407SOL     OW13762   3.322   1.505  10.649
 4407SOL    HW113763   3.346   1.599  10.675
 4407SOL    HW213764   3.306   1.451  10.731
 4408SOL     OW13765   2.300   0.392  10.809
 4408SOL    HW113766   2.382   0.336  10.818
 4408SOL    HW213767   2.219   0.334  10.813
 4409SOL     OW13768   3.465   0.447  10.047
 4409SOL    HW113769   3.391   0.493   9.997
 4409SOL    HW213770   3.516   0.515  10.100
 4410SOL     OW13771   2.093   1.713   9.793
 4410SOL    HW113772   2.127   1.790   9.847
 4410SOL    HW213773   2.137   1.713   9.703
 4411SOL     OW13774   2.989   1.341  11.000
 4411SOL    HW113775   3.036   1.341  11.088
 4411SOL    HW213776   2.941   1.254  10.989
 4412SOL     OW13777   2.092   1.434   9.848
 4412SOL    HW113778   2.066   1.530   9.848
 4412SOL    HW213779   2.021   1.380   9.893
 4413SOL     OW13780   2.102   1.091  10.196
 4413SOL    HW113781   2.116   1.007  10.248
 4413SOL    HW213782   2.047   1.155  10.251
 4414SOL     OW13783   2.482   1.786  10.749
 4414SOL    HW113784   2.390   1.769  10.784
 4414SOL    HW213785   2.510   1.878  10.775
 4415SOL     OW13786   2.468   0.964   9.433
 4415SOL    HW113787   2.475   1.048   9.379
 4415SOL    HW213788   2.514   0.977   9.521
 4416SOL     OW13789   3.456   0.114  10.790
 4416SOL    HW113790   3.438   0.181  10.718
 4416SOL    HW213791   3.453   0.160  10.879
 4417SOL     OW13792   1.984   0.643   9.873
 4417SOL    HW113793   1.939   0.555   9.890
 4417SOL    HW213794   1.983   0.697   9.957
 4418SOL     OW13795   3.704   1.767   9.669
 4418SOL    HW113796   3.758   1.738   9.749
 4418SOL    HW213797   3.734   1.857   9.640
 4419SOL     OW13798   1.889   1.596   9.427
 4419SOL    HW113799   1.870   1.500   9.448
 4419SOL    HW213800   1.856   1.654   9.502
 4420SOL     OW13801   3.551   0.922   9.922
 4420SOL    HW113802   3.646   0.893   9.930
 4420SOL    HW213803   3.543   0.987   9.847
 4421SOL     OW13804   3.503   1.108   9.742
 4421SOL    HW113805   3.589   1.110   9.690
 4421SOL    HW213806   3.517   1.155   9.830
 4422SOL     OW13807   1.975   0.737  10.907
 4422SOL    HW113808   2.063   0.724  10.952
 4422SOL    HW213809   1.962   0.834  10.885
 4423SOL     OW13810   2.475   1.365  10.036
 4423SOL    HW113811   2.426   1.278  10.045
 4423SOL    HW213812   2.452   1.408   9.949
 4424SOL     OW13813   3.155   1.228  10.733
 4424SOL    HW113814   3.192   1.155  10.675
 4424SOL    HW213815   3.207   1.233  10.818
 4425SOL     OW13816   2.671   0.004   9.812
 4425SOL    HW113817   2.711   0.095   9.803
 4425SOL    HW213818   2.571   0.012   9.818
 4426SOL     OW13819   2.059   0.976  10.574
 4426SOL    HW113820   2.148   0.931  10.560
 4426SOL    HW213821   1.986   0.911  10.555
 4427SOL     OW13822   3.387   0.999   9.500
 4427SOL    HW113823   3.324   0.923   9.513
 4427SOL    HW213824   3.435   1.017   9.586
 4428SOL     OW13825   3.049   1.792  10.926
 4428SOL    HW113826   3.073   1.852  10.850
 4428SOL    HW213827   3.056   1.697  10.896
 4429SOL     OW13828   2.179   0.251  11.111
 4429SOL    HW113829   2.250   0.322  11.117
 4429SOL    HW213830   2.091   0.290  11.139
 4430SOL     OW13831   3.328   1.417  10.263
 4430SOL    HW113832   3.269   1.423  10.343
 4430SOL    HW213833   3.313   1.329  10.217
 4431SOL     OW13834   3.529   1.714   9.882
 4431SOL    HW113835   3.488   1.691   9.794
 4431SOL    HW213836   3.511   1.640   9.947
 4432SOL     OW13837   2.460   0.729   9.580
 4432SOL    HW113838   2.484   0.798   9.512
 4432SOL    HW213839   2.382   0.762   9.634
 4433SOL     OW13840   3.143   0.345  10.254
 4433SOL    HW113841   3.057   0.295  10.241
 4433SOL    HW213842   3.205   0.291  10.310
 4434SOL     OW13843   3.438   1.662   9.617
 4434SOL    HW113844   3.527   1.708   9.620
 4434SOL    HW213845   3.417   1.638   9.522
 4435SOL     OW13846   2.669   0.605  10.775
 4435SOL    HW113847   2.622   0.602  10.864
 4435SOL    HW213848   2.618   0.550  10.709
 4436SOL     OW13849   3.256   0.469  10.984
 4436SOL    HW113850   3.236   0.512  11.072
 4436SOL    HW213851   3.334   0.407  10.993
 4437SOL     OW13852   2.835   0.890  10.882
 4437SOL    HW113853   2.881   0.806  10.853
 4437SOL    HW213854   2.779   0.924  10.807
 4438SOL     OW13855   2.853   0.410  10.552
 4438SOL    HW113856   2.776   0.444  10.606
 4438SOL    HW213857   2.819   0.359  10.473
 4439SOL     OW13858   2.903   0.701   9.739
 4439SOL    HW113859   2.929   0.697   9.835
 4439SOL    HW213860   2.818   0.650   9.725
 4440SOL     OW13861   1.938   0.811  10.099
 4440SOL    HW113862   2.037   0.799  10.108
 4440SOL    HW213863   1.914   0.906  10.120
 4441SOL     OW13864   2.727   0.348   9.505
 4441SOL    HW113865   2.786   0.411   9.456
 4441SOL    HW213866   2.746   0.254   9.476
 4442SOL     OW13867   3.581   0.585  11.141
 4442SOL    HW113868   3.555   0.674  11.105
 4442SOL    HW213869   3.579   0.517  11.068
 4443SOL     OW13870   3.224   1.144   9.855
 4443SOL    HW113871   3.307   1.115   9.807
 4443SOL    HW213872   3.175   1.211   9.799
 4444SOL     OW13873   2.412   0.196  10.195
 4444SOL    HW113874   2.407   0.191  10.295
 4444SOL    HW213875   2.414   0.292  10.166
 4445SOL     OW13876   2.870   1.456   9.787
 4445SOL    HW113877   2.824   1.528   9.735
 4445SOL    HW213878   2.866   1.476   9.885
 4446SOL     OW13879   2.213   1.801  10.163
 4446SOL    HW113880   2.263   1.715  10.169
 4446SOL    HW213881   2.278   1.878  10.160
 4447SOL     OW13882   3.657   1.066  10.183
 4447SOL    HW113883   3.595   1.051  10.107
 4447SOL    HW213884   3.605   1.077  10.268
 4448SOL     OW13885   3.089   1.550  10.816
 4448SOL    HW113886   3.095   1.473  10.880
 4448SOL    HW213887   3.037   1.524  10.736
 4449SOL     OW13888   2.183   0.943   9.552
 4449SOL    HW113889   2.265   0.982   9.510
 4449SOL    HW213890   2.156   0.861   9.503
 4450SOL     OW13891   3.320   0.735  10.038
 4450SOL    HW113892   3.315   0.670  10.113
 4450SOL    HW213893   3.400   0.794  10.051
 4451SOL     OW13894   2.323   1.266  11.037
 4451SOL    HW113895   2.273   1.267  10.951
 4451SOL    HW213896   2.260   1.248  11.113
 4452SOL     OW13897   2.973   1.776   9.547
 4452SOL    HW113898   2.913   1.714   9.597
 4452SOL    HW213899   3.004   1.732   9.462
 4453SOL     OW13900   2.064   0.285  10.808
 4453SOL    HW113901   1.984   0.345  10.795
 4453SOL    HW213902   2.054   0.236  10.894
 4454SOL     OW13903   3.494   1.377   9.391
 4454SOL    HW113904   3.462   1.471   9.381
 4454SOL    HW213905   3.418   1.314   9.379
 4455SOL     OW13906   2.326   1.743   9.633
 4455SOL    HW113907   2.359   1.782   9.719
 4455SOL    HW213908   2.402   1.736   9.568
 4456SOL     OW13909   3.262   0.107   9.736
 4456SOL    HW113910   3.238   0.070   9.646
 4456SOL    HW213911   3.361   0.123   9.740
 4457SOL     OW13912   2.111   1.785  10.551
 4457SOL    HW113913   2.168   1.720  10.601
 4457SOL    HW213914   2.095   1.752  10.458
 4458SOL     OW13915   2.802   1.698  10.214
 4458SOL    HW113916   2.882   1.641  10.235
 4458SOL    HW213917   2.753   1.658  10.137
 4459SOL     OW13918   2.244   0.700   9.790
 4459SOL    HW113919   2.289   0.610   9.787
 4459SOL    HW213920   2.150   0.689   9.823
 4460SOL     OW13921   3.409   0.222  11.039
 4460SOL    HW113922   3.404   0.259  11.131
 4460SOL    HW213923   3.337   0.153  11.027
 4461SOL     OW13924   2.476   0.122   9.427
 4461SOL    HW113925   2.574   0.100   9.434
 4461SOL    HW213926   2.445   0.105   9.334
 4462SOL     OW13927   2.643   0.264  11.059
 4462SOL    HW113928   2.710   0.203  11.102
 4462SOL    HW213929   2.570   0.283  11.124
 4463SOL     OW13930   2.750   1.514  10.505
 4463SOL    HW113931   2.727   1.489  10.411
 4463SOL    HW213932   2.811   1.445  10.544
 4464SOL     OW13933   3.213   0.590  10.743
 4464SOL    HW113934   3.241   0.547  10.828
 4464SOL    HW213935   3.238   0.686  10.744
 4465SOL     OW13936   2.665   1.402  10.234
 4465SOL    HW113937   2.755   1.416  10.192
 4465SOL    HW213938   2.594   1.404  10.163
 4466SOL     OW13939   2.784   0.503  10.209
 4466SOL    HW113940   2.759   0.494  10.113
 4466SOL    HW213941   2.832   0.421  10.240
 4467SOL     OW13942   2.401   0.064   9.822
 4467SOL    HW113943   2.320   0.065   9.880
 4467SOL    HW213944   2.404   0.147   9.767
 4468SOL     OW13945   3.296   1.188   9.351
 4468SOL    HW113946   3.328   1.112   9.408
 4468SOL    HW213947   3.204   1.215   9.381
 4469SOL     OW13948   2.159   0.035   9.481
 4469SOL    HW113949   2.208   0.119   9.460
 4469SOL    HW213950   2.221  -0.030   9.526
 4470SOL     OW13951   2.797   0.236   9.790
 4470SOL    HW113952   2.749   0.277   9.712
 4470SOL    HW213953   2.896   0.234   9.771
 4471SOL     OW13954   2.938   0.683  10.774
 4471SOL    HW113955   2.858   0.622  10.777
 4471SOL    HW213956   3.019   0.630  10.750
 4472SOL     OW13957   3.089   1.570  10.103
 4472SOL    HW113958   3.110   1.644  10.038
 4472SOL    HW213959   3.157   1.570  10.176
 4473SOL     OW13960   2.321   1.152  10.051
 4473SOL    HW113961   2.250   1.125  10.116
 4473SOL    HW213962   2.295   1.124   9.958
 4474SOL     OW13963   3.133   1.797   9.901
 4474SOL    HW113964   3.177   1.861   9.837
 4474SOL    HW213965   3.083   1.849   9.971
 4475SOL     OW13966   2.894   0.549   9.326
 4475SOL    HW113967   2.853   0.631   9.287
 4475SOL    HW213968   2.958   0.575   9.399
 4476SOL     OW13969   1.940   0.556  10.696
 4476SOL    HW113970   2.032   0.555  10.655
 4476SOL    HW213971   1.934   0.630  10.763
 4477SOL     OW13972   2.423   0.222  10.457
 4477SOL    HW113973   2.461   0.138  10.494
 4477SOL    HW213974   2.335   0.241  10.501
 4478SOL     OW13975   2.728   0.454   9.952
 4478SOL    HW113976   2.696   0.526   9.890
 4478SOL    HW213977   2.752   0.373   9.899
 4479SOL     OW13978   2.879   0.039  10.063
 4479SOL    HW113979   2.807   0.044   9.994
 4479SOL    HW213980   2.855  -0.030  10.132
 4480SOL     OW13981   3.291   1.173  10.177
 4480SOL    HW113982   3.236   1.089  10.170
 4480SOL    HW213983   3.317   1.202  10.085
 4481SOL     OW13984   3.328   0.590  10.302
 4481SOL    HW113985   3.298   0.495  10.309
 4481SOL    HW213986   3.401   0.606  10.368
 4482SOL     OW13987   3.719   0.833   9.687
 4482SOL    HW113988   3.761   0.769   9.751
 4482SOL    HW213989   3.681   0.782   9.609
 4483SOL     OW13990   2.350   1.385   9.484
 4483SOL    HW113991   2.263   1.370   9.531
 4483SOL    HW213992   2.333   1.411   9.389
 4484SOL     OW13993   3.526   1.280   9.967
 4484SOL    HW113994   3.625   1.288   9.981
 4484SOL    HW213995   3.481   1.364   9.998
 4485SOL     OW13996   3.252   0.575   9.388
 4485SOL    HW113997   3.198   0.554   9.469
 4485SOL    HW213998   3.343   0.534   9.397
 4486SOL     OW13999   2.389   0.256   9.638
 4486SOL    HW114000   2.416   0.197   9.563
 4486SOL    HW214001   2.389   0.351   9.607
 4487SOL     OW14002   3.616   1.223  10.898
 4487SOL    HW114003   3.707   1.184  10.885
 4487SOL    HW214004   3.624   1.319  10.922
 4488SOL     OW14005   2.926   1.347  10.650
 4488SOL    HW114006   2.846   1.324  10.705
 4488SOL    HW214007   3.009   1.321  10.699
 4489SOL     OW14008   3.454   1.629  10.935
 4489SOL    HW114009   3.481   1.663  10.845
 4489SOL    HW214010   3.533   1.591  10.981
 4490SOL     OW14011   2.973   1.195  10.410
 4490SOL    HW114012   2.933   1.239  10.491
 4490SOL    HW214013   2.932   1.232  10.327
 4491SOL     OW14014   3.500   1.099  10.389
 4491SOL    HW114015   3.505   1.180  10.448
 4491SOL    HW214016   3.414   1.101  10.338
 4492SOL     OW14017   2.777   0.089  10.712
 4492SOL    HW114018   2.802   0.069  10.617
 4492SOL    HW214019   2.849   0.145  10.754
 4493SOL     OW14020   2.842   1.116  11.029
 4493SOL    HW114021   2.743   1.122  11.039
 4493SOL    HW214022   2.865   1.036  10.973
 4494SOL     OW14023   2.567   1.050   9.678
 4494SOL    HW114024   2.553   1.057   9.777
 4494SOL    HW214025   2.651   0.999   9.660
 4495SOL     OW14026   2.272   0.813  10.561
 4495SOL    HW114027   2.358   0.825  10.611
 4495SOL    HW214028   2.230   0.726  10.588
 4496SOL     OW14029   3.136   0.386  10.572
 4496SOL    HW114030   3.157   0.460  10.636
 4496SOL    HW214031   3.047   0.403  10.529
 4497SOL     OW14032   1.926   1.564  10.641
 4497SOL    HW114033   1.880   1.646  10.607
 4497SOL    HW214034   2.024   1.583  10.650
 4498SOL     OW14035   2.229   1.100   9.811
 4498SOL    HW114036   2.222   1.183   9.755
 4498SOL    HW214037   2.233   1.020   9.751
 4499SOL     OW14038   2.428   0.537  10.175
 4499SOL    HW114039   2.440   0.603  10.101
 4499SOL    HW214040   2.474   0.571  10.258
 4500SOL     OW14041   3.114   1.348   9.698
 4500SOL    HW114042   3.164   1.425   9.738
 4500SOL    HW214043   3.019   1.350   9.730
 4501SOL     OW14044   3.134   1.445  10.452
 4501SOL    HW114045   3.181   1.458  10.539
 4501SOL    HW214046   3.068   1.371  10.461
 4502SOL     OW14047   3.444   0.639   9.782
 4502SOL    HW114048   3.413   0.700   9.855
 4502SOL    HW214049   3.494   0.691   9.713
 4503SOL     OW14050   2.216   1.510  10.639
 4503SOL    HW114051   2.195   1.466  10.552
 4503SOL    HW214052   2.313   1.536  10.642
 4504SOL     OW14053   2.264   0.751  10.908
 4504SOL    HW114054   2.332   0.806  10.861
 4504SOL    HW214055   2.304   0.663  10.935
 4505SOL     OW14056   3.449   0.779  10.980
 4505SOL    HW114057   3.357   0.817  10.975
 4505SOL    HW214058   3.509   0.826  10.915
 4506SOL     OW14059   2.875   0.105  11.080
 4506SOL    HW114060   2.881   0.190  11.028
 4506SOL    HW214061   2.907   0.029  11.023
 4507SOL     OW14062   2.366   0.050  11.050
 4507SOL    HW114063   2.324  -0.007  10.980
 4507SOL    HW214064   2.300   0.119  11.082
 4508SOL     OW14065   2.435   0.870  10.339
 4508SOL    HW114066   2.479   0.959  10.330
 4508SOL    HW214067   2.372   0.870  10.416
 4509SOL     OW14068   3.222   0.862  10.355
 4509SOL    HW114069   3.147   0.862  10.289
 4509SOL    HW214070   3.259   0.770  10.364
 4510SOL     OW14071   3.071   0.525   9.585
 4510SOL    HW114072   3.084   0.441   9.639
 4510SOL    HW214073   3.042   0.599   9.645
 4511SOL     OW14074   2.169   0.213  10.541
 4511SOL    HW114075   2.146   0.250  10.631
 4511SOL    HW214076   2.139   0.118  10.535
 4512SOL     OW14077   1.899   1.310  10.592
 4512SOL    HW114078   1.952   1.261  10.660
 4512SOL    HW214079   1.921   1.408  10.597
 4513SOL     OW14080   2.594   0.634  10.374
 4513SOL    HW114081   2.653   0.608  10.298
 4513SOL    HW214082   2.566   0.730  10.363
 4514SOL     OW14083   3.590   0.935  11.164
 4514SOL    HW114084   3.544   0.928  11.075
 4514SOL    HW214085   3.528   0.979  11.230
 4515SOL     OW14086   2.169   0.063   9.928
 4515SOL    HW114087   2.158   0.157   9.961
 4515SOL    HW214088   2.164   0.000  10.005
 4516SOL     OW14089   3.484   0.367   9.684
 4516SOL    HW114090   3.486   0.291   9.748
 4516SOL    HW214091   3.436   0.444   9.724
 4517SOL     OW14092   2.885   0.766  10.276
 4517SOL    HW114093   2.900   0.787  10.372
 4517SOL    HW214094   2.855   0.671  10.267
 4518SOL     OW14095   2.842   1.573  11.010
 4518SOL    HW114096   2.822   1.617  10.922
 4518SOL    HW214097   2.881   1.482  10.994
 4519SOL     OW14098   3.721   1.518  10.915
 4519SOL    HW114099   3.735   1.545  10.820
 4519SOL    HW214100   3.804   1.540  10.968
 4520SOL     OW14101   2.212   0.898  11.114
 4520SOL    HW114102   2.288   0.942  11.162
 4520SOL    HW214103   2.247   0.851  11.032
 4521SOL     OW14104   3.402   0.274   9.435
 4521SOL    HW114105   3.341   0.199   9.458
 4521SOL    HW214106   3.424   0.326   9.518
 4522SOL     OW14107   3.165   0.838   9.352
 4522SOL    HW114108   3.199   0.745   9.367
 4522SOL    HW214109   3.183   0.865   9.257
 4523SOL     OW14110   2.930   1.333  10.159
 4523SOL    HW114111   2.937   1.249  10.104
 4523SOL    HW214112   2.992   1.402  10.123
 4524SOL     OW14113   2.181   0.810  10.259
 4524SOL    HW114114   2.274   0.846  10.264
 4524SOL    HW214115   2.175   0.725  10.311
 4525SOL     OW14116   2.201   0.509  10.316
 4525SOL    HW114117   2.149   0.426  10.299
 4525SOL    HW214118   2.278   0.514  10.252
 4526SOL     OW14119   3.000   0.380  10.988
 4526SOL    HW114120   2.955   0.443  11.052
 4526SOL    HW214121   3.093   0.411  10.971
 4527SOL     OW14122   3.022   0.207  10.787
 4527SOL    HW114123   3.022   0.271  10.864
 4527SOL    HW214124   3.050   0.255  10.704
 4528SOL     OW14125   1.870   1.326   9.510
 4528SOL    HW114126   1.777   1.347   9.479
 4528SOL    HW214127   1.880   1.227   9.523
 4529SOL     OW14128   1.950   1.801  10.237
 4529SOL    HW114129   1.908   1.715  10.210
 4529SOL    HW214130   2.044   1.804  10.203
 4530SOL     OW14131   2.366   1.568  10.220
 4530SOL    HW114132   2.432   1.642  10.229
 4530SOL    HW214133   2.410   1.489  10.178
 4531SOL     OW14134   2.864   0.796  10.548
 4531SOL    HW114135   2.905   0.764  10.634
 4531SOL    HW214136   2.768   0.769  10.545
 4532SOL     OW14137   1.902   0.544  10.424
 4532SOL    HW114138   1.987   0.511  10.383
 4532SOL    HW214139   1.915   0.559  10.522
 4533SOL     OW14140   2.051   0.520  11.032
 4533SOL    HW114141   2.110   0.480  10.962
 4533SOL    HW214142   1.993   0.591  10.991
 4534SOL     OW14143   3.231   0.950  10.970
 4534SOL    HW114144   3.270   1.039  10.990
 4534SOL    HW214145   3.241   0.930  10.873
 4535SOL     OW14146   2.677   0.572   9.635
 4535SOL    HW114147   2.684   0.483   9.589
 4535SOL    HW214148   2.583   0.606   9.627
 4536SOL     OW14149   3.519   0.604  10.516
 4536SOL    HW114150   3.481   0.535  10.578
 4536SOL    HW214151   3.601   0.568  10.472
 4537SOL     OW14152   2.114   1.564  11.054
 4537SOL    HW114153   2.084   1.621  11.130
 4537SOL    HW214154   2.107   1.467  11.080
 4538SOL     OW14155   2.533   0.464  10.579
 4538SOL    HW114156   2.499   0.375  10.549
 4538SOL    HW214157   2.559   0.518  10.499
 4539SOL     OW14158   2.792   1.678  10.775
 4539SOL    HW114159   2.768   1.660  10.680
 4539SOL    HW214160   2.822   1.772  10.785
 4540SOL     OW14161   2.335   0.500   9.501
 4540SOL    HW114162   2.396   0.580   9.505
 4540SOL    HW214163   2.240   0.531   9.508
 4541SOL     OW14164   2.021   1.137  10.776
 4541SOL    HW114165   2.043   1.076  10.852
 4541SOL    HW214166   2.031   1.088  10.690
 4542SOL     OW14167   3.209   1.059  10.544
 4542SOL    HW114168   3.233   0.996  10.470
 4542SOL    HW214169   3.119   1.099  10.526
 4543SOL     OW14170   3.164   0.855   9.619
 4543SOL    HW114171   3.078   0.824   9.661
 4543SOL    HW214172   3.160   0.841   9.520
 4544SOL     OW14173   3.621   1.747  10.464
 4544SOL    HW114174   3.682   1.777  10.391
 4544SOL    HW214175   3.583   1.658  10.442
 4545SOL     OW14176   3.114   1.731  10.438
 4545SOL    HW114177   3.198   1.736  10.384
 4545SOL    HW214178   3.091   1.635  10.456
 4546SOL     OW14179   1.945   1.258  10.332
 4546SOL    HW114180   1.940   1.257  10.432
 4546SOL    HW214181   1.862   1.217  10.294
 4547SOL     OW14182   2.550   1.662  11.026
 4547SOL    HW114183   2.494   1.743  11.035
 4547SOL    HW214184   2.602   1.666  10.940
 4548SOL     OW14185   3.588   0.135   9.833
 4548SOL    HW114186   3.661   0.118   9.766
 4548SOL    HW214187   3.557   0.048   9.871
 4549SOL     OW14188   3.250   1.573   9.787
 4549SOL    HW114189   3.317   1.585   9.713
 4549SOL    HW214190   3.210   1.662   9.810
 4550SOL     OW14191   1.992   1.794  11.161
 4550SOL    HW114192   1.951   1.720  11.214
 4550SOL    HW214193   2.056   1.845  11.219
 4551SOL     OW14194   3.142   0.927   9.982
 4551SOL    HW114195   3.202   0.846   9.984
 4551SOL    HW214196   3.182   0.996   9.922
 4552SOL     OW14197   2.692   1.273  10.732
 4552SOL    HW114198   2.687   1.306  10.827
 4552SOL    HW214199   2.606   1.292  10.686
 4553SOL     OW14200   2.534   1.616   9.464
 4553SOL    HW114201   2.543   1.626   9.365
 4553SOL    HW214202   2.494   1.527   9.485
 4554SOL     OW14203   3.512   1.720  10.704
 4554SOL    HW114204   3.565   1.730  10.620
 4554SOL    HW214205   3.485   1.810  10.738
 4555SOL     OW14206   3.703   0.175  10.273
 4555SOL    HW114207   3.742   0.090  10.237
 4555SOL    HW214208   3.605   0.177  10.254
 4556SOL     OW14209   2.125   0.326  10.030
 4556SOL    HW114210   2.046   0.377   9.996
 4556SOL    HW214211   2.116   0.311  10.128
 4557SOL     OW14212   3.056   1.612   9.341
 4557SOL    HW114213   3.062   1.519   9.378
 4557SOL    HW214214   2.997   1.612   9.261
 4558SOL     OW14215   2.684   1.002  10.682
 4558SOL    HW114216   2.724   1.001  10.590
 4558SOL    HW214217   2.694   1.094  10.722
 4559SOL     OW14218   2.778   0.910   9.601
 4559SOL    HW114219   2.841   0.948   9.533
 4559SOL    HW214220   2.818   0.827   9.640
 4560SOL     OW14221   3.366   1.607   9.354
 4560SOL    HW114222   3.274   1.644   9.361
 4560SOL    HW214223   3.404   1.627   9.264
 4561SOL     OW14224   2.234   1.288  10.800
 4561SOL    HW114225   2.221   1.381  10.766
 4561SOL    HW214226   2.150   1.236  10.787
 4562SOL     OW14227   3.476   1.292  10.599
 4562SOL    HW114228   3.536   1.295  10.679
 4562SOL    HW214229   3.401   1.356  10.612
 4563SOL     OW14230   2.901   1.098  10.006
 4563SOL    HW114231   2.831   1.051  10.060
 4563SOL    HW214232   2.960   1.030   9.963
 4564SOL     OW14233   2.876   0.236  10.281
 4564SOL    HW114234   2.868   0.200  10.188
 4564SOL    HW214235   2.874   0.160  10.346
 4565SOL     OW14236   2.452   1.487   9.801
 4565SOL    HW114237   2.494   1.429   9.731
 4565SOL    HW214238   2.408   1.566   9.757
 4566SOL     OW14239   3.571   0.385  10.691
 4566SOL    HW114240   3.644   0.454  10.695
 4566SOL    HW214241   3.599   0.310  10.632
 4567SOL     OW14242   2.117   1.348   9.600
 4567SOL    HW114243   2.021   1.349   9.573
 4567SOL    HW214244   2.129   1.401   9.684
 4568SOL     OW14245   1.967   1.013  11.036
 4568SOL    HW114246   1.890   0.980  11.090
 4568SOL    HW214247   2.052   0.983  11.078
 4569SOL     OW14248   2.534   0.203  10.799
 4569SOL    HW114249   2.624   0.187  10.759
 4569SOL    HW214250   2.542   0.208  10.898
 4570SOL     OW14251   1.937   0.345   9.343
 4570SOL    HW114252   1.845   0.317   9.314
 4570SOL    HW214253   1.968   0.422   9.287
 4571SOL     OW14254   3.302   0.856  10.708
 4571SOL    HW114255   3.245   0.908  10.645
 4571SOL    HW214256   3.398   0.868  10.684
 4572SOL     OW14257   1.934   0.166   9.628
 4572SOL    HW114258   1.917   0.249   9.574
 4572SOL    HW214259   2.024   0.129   9.606
 4573SOL     OW14260   3.045   1.335   9.429
 4573SOL    HW114261   2.946   1.324   9.431
 4573SOL    HW214262   3.079   1.350   9.522
 4574SOL     OW14263   2.475   0.842  10.741
 4574SOL    HW114264   2.531   0.923  10.724
 4574SOL    HW214265   2.534   0.762  10.744
 4575SOL     OW14266   3.355   1.767  10.269
 4575SOL    HW114267   3.388   1.831  10.200
 4575SOL    HW214268   3.421   1.761  10.344
 4576SOL     OW14269   2.578   0.565  11.018
 4576SOL    HW114270   2.597   0.630  11.092
 4576SOL    HW214271   2.638   0.485  11.027
 4577SOL     OW14272   3.312   1.220  10.943
 4577SOL    HW114273   3.303   1.210  11.042
 4577SOL    HW214274   3.408   1.213  10.917
 4578SOL     OW14275   2.252   1.741  10.870
 4578SOL    HW114276   2.161   1.782  10.868
 4578SOL    HW214277   2.245   1.647  10.902
 4579SOL     OW14278   3.536   0.883  10.564
 4579SOL    HW114279   3.509   0.794  10.527
 4579SOL    HW214280   3.537   0.951  10.491
 4580SOL     OW14281   3.087   0.325   9.759
 4580SOL    HW114282   3.152   0.251   9.748
 4580SOL    HW214283   3.107   0.375   9.843
 4581SOL     OW14284   2.456   0.745   9.962
 4581SOL    HW114285   2.506   0.830   9.943
 4581SOL    HW214286   2.368   0.747   9.914
 4582SOL     OW14287   3.639   0.342  10.952
 4582SOL    HW114288   3.622   0.373  10.858
 4582SOL    HW214289   3.555   0.305  10.990
 4583SOL     OW14290   3.592   0.934  10.827
 4583SOL    HW114291   3.630   1.025  10.842
 4583SOL    HW214292   3.584   0.917  10.728
 4584SOL     OW14293   2.721   1.374   9.326
 4584SOL    HW114294   2.675   1.389   9.414
 4584SOL    HW214295   2.765   1.459   9.296
 4585SOL     OW14296   2.523   1.790  10.263
 4585SOL    HW114297   2.477   1.878  10.250
 4585SOL    HW214298   2.622   1.802  10.256
 4586SOL     OW14299   2.721   0.956  10.171
 4586SOL    HW114300   2.775   0.887  10.219
 4586SOL    HW214301   2.689   1.025  10.237
 4587SOL     OW14302   2.945   0.984   9.397
 4587SOL    HW114303   2.922   1.037   9.315
 4587SOL    HW214304   3.026   0.928   9.378
 4588SOL     OW14305   3.723   1.569  10.161
 4588SOL    HW114306   3.652   1.557  10.091
 4588SOL    HW214307   3.724   1.490  10.221
 4589SOL     OW14308   2.083   1.314  11.154
 4589SOL    HW114309   2.018   1.241  11.133
 4589SOL    HW214310   2.087   1.328  11.252
 4590SOL     OW14311   1.941   1.240   9.963
 4590SOL    HW114312   1.940   1.193  10.051
 4590SOL    HW214313   2.023   1.212   9.912
 4591SOL     OW14314   2.534   1.391  10.934
 4591SOL    HW114315   2.456   1.341  10.972
 4591SOL    HW214316   2.531   1.486  10.965
 4592SOL     OW14317   3.686   0.192  10.537
 4592SOL    HW114318   3.682   0.102  10.581
 4592SOL    HW214319   3.689   0.181  10.438
 4593SOL     OW14320   2.290   0.424   9.830
 4593SOL    HW114321   2.320   0.352   9.768
 4593SOL    HW214322   2.251   0.384   9.913
 4594SOL     OW14323   3.567   1.487  10.414
 4594SOL    HW114324   3.474   1.462  10.387
 4594SOL    HW214325   3.593   1.437  10.496
 4595SOL     OW14326   2.179   0.547  10.590
 4595SOL    HW114327   2.217   0.488  10.662
 4595SOL    HW214328   2.219   0.521  10.502
 4596SOL     OW14329   2.674   1.586   9.997
 4596SOL    HW114330   2.706   1.596   9.903
 4596SOL    HW214331   2.595   1.524   9.999
 4597SOL     OW14332   3.286   0.214  10.422
 4597SOL    HW114333   3.338   0.149  10.477
 4597SOL    HW214334   3.237   0.277  10.483
 4598SOL     OW14335   2.863   0.034  10.464
 4598SOL    HW114336   2.800  -0.038  10.433
 4598SOL    HW214337   2.956  -0.002  10.464
 4599SOL     OW14338   2.632   1.330   9.611
 4599SOL    HW114339   2.586   1.243   9.628
 4599SOL    HW214340   2.723   1.327   9.652
 4600SOL     OW14341   2.480   1.567  10.594
 4600SOL    HW114342   2.475   1.649  10.651
 4600SOL    HW214343   2.569   1.564  10.549
 4601SOL     OW14344   3.214   0.052   9.478
 4601SOL    HW114345   3.249   0.011   9.394
 4601SOL    HW214346   3.124   0.014   9.498
 4602SOL     OW14347   3.162   0.453  10.001
 4602SOL    HW114348   3.103   0.533  10.005
 4602SOL    HW214349   3.177   0.418  10.094
 4603SOL     OW14350   3.455   0.221  10.192
 4603SOL    HW114351   3.371   0.220  10.246
 4603SOL    HW214352   3.457   0.304  10.136
 4604SOL     OW14353   1.901   1.077   9.610
 4604SOL    HW114354   2.000   1.066   9.601
 4604SOL    HW214355   1.861   0.991   9.642
 4605SOL     OW14356   2.737   1.646   9.647
 4605SOL    HW114357   2.660   1.611   9.593
 4605SOL    HW214358   2.705   1.717   9.709
 4606SOL     OW14359   2.092   0.628  11.285
 4606SOL    HW114360   1.999   0.626  11.322
 4606SOL    HW214361   2.093   0.589  11.193
 4607SOL     OW14362   2.087   0.275  12.168
 4607SOL    HW114363   2.122   0.258  12.260
 4607SOL    HW214364   1.999   0.230  12.156
 4608SOL     OW14365   1.881   0.368  11.819
 4608SOL    HW114366   1.799   0.411  11.858
 4608SOL    HW214367   1.853   0.295  11.756
 4609SOL     OW14368   2.431   1.275  12.337
 4609SOL    HW114369   2.338   1.268  12.300
 4609SOL    HW214370   2.442   1.364  12.381
 4610SOL     OW14371   3.417   1.511  11.875
 4610SOL    HW114372   3.360   1.495  11.956
 4610SOL    HW214373   3.358   1.521  11.795
 4611SOL     OW14374   2.997   0.703  11.889
 4611SOL    HW114375   3.054   0.781  11.864
 4611SOL    HW214376   2.937   0.729  11.965
 4612SOL     OW14377   3.617   0.607  11.403
 4612SOL    HW114378   3.605   0.594  11.304
 4612SOL    HW214379   3.587   0.526  11.452
 4613SOL     OW14380   2.630   1.144  12.195
 4613SOL    HW114381   2.552   1.161  12.255
 4613SOL    HW214382   2.664   1.231  12.159
 4614SOL     OW14383   2.712   0.798  12.995
 4614SOL    HW114384   2.708   0.874  13.060
 4614SOL    HW214385   2.734   0.834  12.904
 4615SOL     OW14386   2.547   1.012  11.837
 4615SOL    HW114387   2.616   0.996  11.907
 4615SOL    HW214388   2.474   1.069  11.875
 4616SOL     OW14389   2.548   1.161  12.975
 4616SOL    HW114390   2.608   1.240  12.989
 4616SOL    HW214391   2.462   1.192  12.934
 4617SOL     OW14392   2.197   1.435  12.233
 4617SOL    HW114393   2.119   1.404  12.180
 4617SOL    HW214394   2.255   1.493  12.176
 4618SOL     OW14395   3.322   1.505  12.511
 4618SOL    HW114396   3.346   1.599  12.537
 4618SOL    HW214397   3.306   1.451  12.593
 4619SOL     OW14398   2.300   0.392  12.671
 4619SOL    HW114399   2.382   0.336  12.680
 4619SOL    HW214400   2.219   0.334  12.675
 4620SOL     OW14401   3.465   0.447  11.909
 4620SOL    HW114402   3.391   0.493  11.859
 4620SOL    HW214403   3.516   0.515  11.962
 4621SOL     OW14404   2.093   1.713  11.655
 4621SOL    HW114405   2.127   1.790  11.709
 4621SOL    HW214406   2.137   1.713  11.565
 4622SOL     OW14407   2.989   1.341  12.862
 4622SOL    HW114408   3.036   1.341  12.950
 4622SOL    HW214409   2.941   1.254  12.851
 4623SOL     OW14410   2.092   1.434  11.710
 4623SOL    HW114411   2.066   1.530  11.710
 4623SOL    HW214412   2.021   1.380  11.755
 4624SOL     OW14413   2.102   1.091  12.058
 4624SOL    HW114414   2.116   1.007  12.110
 4624SOL    HW214415   2.047   1.155  12.113
 4625SOL     OW14416   2.482   1.786  12.611
 4625SOL    HW114417   2.390   1.769  12.646
 4625SOL    HW214418   2.510   1.878  12.637
 4626SOL     OW14419   2.468   0.964  11.295
 4626SOL    HW114420   2.475   1.048  11.241
 4626SOL    HW214421   2.514   0.977  11.383
 4627SOL     OW14422   3.456   0.114  12.652
 4627SOL    HW114423   3.438   0.181  12.580
 4627SOL    HW214424   3.453   0.160  12.741
 4628SOL     OW14425   1.984   0.643  11.735
 4628SOL    HW114426   1.939   0.555  11.752
 4628SOL    HW214427   1.983   0.697  11.819
 4629SOL     OW14428   3.704   1.767  11.531
 4629SOL    HW114429   3.758   1.738  11.611
 4629SOL    HW214430   3.734   1.857  11.502
 4630SOL     OW14431   1.889   1.596  11.289
 4630SOL    HW114432   1.870   1.500  11.310
 4630SOL    HW214433   1.856   1.654  11.364
 4631SOL     OW14434   3.551   0.922  11.784
 4631SOL    HW114435   3.646   0.893  11.792
 4631SOL    HW214436   3.543   0.987  11.709
 4632SOL     OW14437   3.503   1.108  11.604
 4632SOL    HW114438   3.589   1.110  11.552
 4632SOL    HW214439   3.517   1.155  11.692
 4633SOL     OW14440   1.975   0.737  12.769
 4633SOL    HW114441   2.063   0.724  12.814
 4633SOL    HW214442   1.962   0.834  12.747
 4634SOL     OW14443   2.475   1.365  11.898
 4634SOL    HW114444   2.426   1.278  11.907
 4634SOL    HW214445   2.452   1.408  11.811
 4635SOL     OW14446   3.155   1.228  12.595
 4635SOL    HW114447   3.192   1.155  12.537
 4635SOL    HW214448   3.207   1.233  12.680
 4636SOL     OW14449   2.671   0.004  11.674
 4636SOL    HW114450   2.711   0.095  11.665
 4636SOL    HW214451   2.571   0.012  11.680
 4637SOL     OW14452   2.059   0.976  12.436
 4637SOL    HW114453   2.148   0.931  12.422
 4637SOL    HW214454   1.986   0.911  12.417
 4638SOL     OW14455   3.387   0.999  11.362
 4638SOL    HW114456   3.324   0.923  11.375
 4638SOL    HW214457   3.435   1.017  11.448
 4639SOL     OW14458   3.049   1.792  12.788
 4639SOL    HW114459   3.073   1.852  12.712
 4639SOL    HW214460   3.056   1.697  12.758
 4640SOL     OW14461   2.179   0.251  12.973
 4640SOL    HW114462   2.250   0.322  12.979
 4640SOL    HW214463   2.091   0.290  13.001
 4641SOL     OW14464   3.328   1.417  12.125
 4641SOL    HW114465   3.269   1.423  12.205
 4641SOL    HW214466   3.313   1.329  12.079
 4642SOL     OW14467   3.529   1.714  11.744
 4642SOL    HW114468   3.488   1.691  11.656
 4642SOL    HW214469   3.511   1.640  11.809
 4643SOL     OW14470   2.460   0.729  11.442
 4643SOL    HW114471   2.484   0.798  11.374
 4643SOL    HW214472   2.382   0.762  11.496
 4644SOL     OW14473   3.143   0.345  12.116
 4644SOL    HW114474   3.057   0.295  12.103
 4644SOL    HW214475   3.205   0.291  12.172
 4645SOL     OW14476   3.438   1.662  11.479
 4645SOL    HW114477   3.527   1.708  11.482
 4645SOL    HW214478   3.417   1.638  11.384
 4646SOL     OW14479   2.669   0.605  12.637
 4646SOL    HW114480   2.622   0.602  12.726
 4646SOL    HW214481   2.618   0.550  12.571
 4647SOL     OW14482   3.256   0.469  12.846
 4647SOL    HW114483   3.236   0.512  12.934
 4647SOL    HW214484   3.334   0.407  12.855
 4648SOL     OW14485   2.835   0.890  12.744
 4648SOL    HW114486   2.881   0.806  12.715
 4648SOL    HW214487   2.779   0.924  12.669
 4649SOL     OW14488   2.853   0.410  12.414
 4649SOL    HW114489   2.776   0.444  12.468
 4649SOL    HW214490   2.819   0.359  12.335
 4650SOL     OW14491   2.903   0.701  11.601
 4650SOL    HW114492   2.929   0.697  11.697
 4650SOL    HW214493   2.818   0.650  11.587
 4651SOL     OW14494   1.938   0.811  11.961
 4651SOL    HW114495   2.037   0.799  11.970
 4651SOL    HW214496   1.914   0.906  11.982
 4652SOL     OW14497   2.727   0.348  11.367
 4652SOL    HW114498   2.786   0.411  11.318
 4652SOL    HW214499   2.746   0.254  11.338
 4653SOL     OW14500   3.581   0.585  13.003
 4653SOL    HW114501   3.555   0.674  12.967
 4653SOL    HW214502   3.579   0.517  12.930
 4654SOL     OW14503   3.224   1.144  11.717
 4654SOL    HW114504   3.307   1.115  11.669
 4654SOL    HW214505   3.175   1.211  11.661
 4655SOL     OW14506   2.412   0.196  12.057
 4655SOL    HW114507   2.407   0.191  12.157
 4655SOL    HW214508   2.414   0.292  12.028
 4656SOL     OW14509   2.870   1.456  11.649
 4656SOL    HW114510   2.824   1.528  11.597
 4656SOL    HW214511   2.866   1.476  11.747
 4657SOL     OW14512   2.213   1.801  12.025
 4657SOL    HW114513   2.263   1.715  12.031
 4657SOL    HW214514   2.278   1.878  12.022
 4658SOL     OW14515   3.657   1.066  12.045
 4658SOL    HW114516   3.595   1.051  11.969
 4658SOL    HW214517   3.605   1.077  12.130
 4659SOL     OW14518   3.089   1.550  12.678
 4659SOL    HW114519   3.095   1.473  12.742
 4659SOL    HW214520   3.037   1.524  12.598
 4660SOL     OW14521   2.183   0.943  11.414
 4660SOL    HW114522   2.265   0.982  11.372
 4660SOL    HW214523   2.156   0.861  11.365
 4661SOL     OW14524   3.320   0.735  11.900
 4661SOL    HW114525   3.315   0.670  11.975
 4661SOL    HW214526   3.400   0.794  11.913
 4662SOL     OW14527   2.323   1.266  12.899
 4662SOL    HW114528   2.273   1.267  12.813
 4662SOL    HW214529   2.260   1.248  12.975
 4663SOL     OW14530   2.973   1.776  11.409
 4663SOL    HW114531   2.913   1.714  11.459
 4663SOL    HW214532   3.004   1.732  11.324
 4664SOL     OW14533   2.064   0.285  12.670
 4664SOL    HW114534   1.984   0.345  12.657
 4664SOL    HW214535   2.054   0.236  12.756
 4665SOL     OW14536   3.494   1.377  11.253
 4665SOL    HW114537   3.462   1.471  11.243
 4665SOL    HW214538   3.418   1.314  11.241
 4666SOL     OW14539   2.326   1.743  11.495
 4666SOL    HW114540   2.359   1.782  11.581
 4666SOL    HW214541   2.402   1.736  11.430
 4667SOL     OW14542   3.262   0.107  11.598
 4667SOL    HW114543   3.238   0.070  11.508
 4667SOL    HW214544   3.361   0.123  11.602
 4668SOL     OW14545   2.111   1.785  12.413
 4668SOL    HW114546   2.168   1.720  12.463
 4668SOL    HW214547   2.095   1.752  12.320
 4669SOL     OW14548   2.802   1.698  12.076
 4669SOL    HW114549   2.882   1.641  12.097
 4669SOL    HW214550   2.753   1.658  11.999
 4670SOL     OW14551   2.244   0.700  11.652
 4670SOL    HW114552   2.289   0.610  11.649
 4670SOL    HW214553   2.150   0.689  11.685
 4671SOL     OW14554   3.409   0.222  12.901
 4671SOL    HW114555   3.404   0.259  12.993
 4671SOL    HW214556   3.337   0.153  12.889
 4672SOL     OW14557   2.476   0.122  11.289
 4672SOL    HW114558   2.574   0.100  11.296
 4672SOL    HW214559   2.445   0.105  11.196
 4673SOL     OW14560   2.643   0.264  12.921
 4673SOL    HW114561   2.710   0.203  12.964
 4673SOL    HW214562   2.570   0.283  12.986
 4674SOL     OW14563   2.750   1.514  12.367
 4674SOL    HW114564   2.727   1.489  12.273
 4674SOL    HW214565   2.811   1.445  12.406
 4675SOL     OW14566   3.213   0.590  12.605
 4675SOL    HW114567   3.241   0.547  12.690
 4675SOL    HW214568   3.238   0.686  12.606
 4676SOL     OW14569   2.665   1.402  12.096
 4676SOL    HW114570   2.755   1.416  12.054
 4676SOL    HW214571   2.594   1.404  12.025
 4677SOL     OW14572   2.784   0.503  12.071
 4677SOL    HW114573   2.759   0.494  11.975
 4677SOL    HW214574   2.832   0.421  12.102
 4678SOL     OW14575   2.401   0.064  11.684
 4678SOL    HW114576   2.320   0.065  11.742
 4678SOL    HW214577   2.404   0.147  11.629
 4679SOL     OW14578   3.296   1.188  11.213
 4679SOL    HW114579   3.328   1.112  11.270
 4679SOL    HW214580   3.204   1.215  11.243
 4680SOL     OW14581   2.159   0.035  11.343
 4680SOL    HW114582   2.208   0.119  11.322
 4680SOL    HW214583   2.221  -0.030  11.388
 4681SOL     OW14584   2.797   0.236  11.652
 4681SOL    HW114585   2.749   0.277  11.574
 4681SOL    HW214586   2.896   0.234  11.633
 4682SOL     OW14587   2.938   0.683  12.636
 4682SOL    HW114588   2.858   0.622  12.639
 4682SOL    HW214589   3.019   0.630  12.612
 4683SOL     OW14590   3.089   1.570  11.965
 4683SOL    HW114591   3.110   1.644  11.900
 4683SOL    HW214592   3.157   1.570  12.038
 4684SOL     OW14593   2.321   1.152  11.913
 4684SOL    HW114594   2.250   1.125  11.978
 4684SOL    HW214595   2.295   1.124  11.820
 4685SOL     OW14596   3.133   1.797  11.763
 4685SOL    HW114597   3.177   1.861  11.699
 4685SOL    HW214598   3.083   1.849  11.833
 4686SOL     OW14599   2.894   0.549  11.188
 4686SOL    HW114600   2.853   0.631  11.149
 4686SOL    HW214601   2.958   0.575  11.261
 4687SOL     OW14602   1.940   0.556  12.558
 4687SOL    HW114603   2.032   0.555  12.517
 4687SOL    HW214604   1.934   0.630  12.625
 4688SOL     OW14605   2.423   0.222  12.319
 4688SOL    HW114606   2.461   0.138  12.356
 4688SOL    HW214607   2.335   0.241  12.363
 4689SOL     OW14608   2.728   0.454  11.814
 4689SOL    HW114609   2.696   0.526  11.752
 4689SOL    HW214610   2.752   0.373  11.761
 4690SOL     OW14611   2.879   0.039  11.925
 4690SOL    HW114612   2.807   0.044  11.856
 4690SOL    HW214613   2.855  -0.030  11.994
 4691SOL     OW14614   3.291   1.173  12.039
 4691SOL    HW114615   3.236   1.089  12.032
 4691SOL    HW214616   3.317   1.202  11.947
 4692SOL     OW14617   3.328   0.590  12.164
 4692SOL    HW114618   3.298   0.495  12.171
 4692SOL    HW214619   3.401   0.606  12.230
 4693SOL     OW14620   3.719   0.833  11.549
 4693SOL    HW114621   3.761   0.769  11.613
 4693SOL    HW214622   3.681   0.782  11.471
 4694SOL     OW14623   2.350   1.385  11.346
 4694SOL    HW114624   2.263   1.370  11.393
 4694SOL    HW214625   2.333   1.411  11.251
 4695SOL     OW14626   3.526   1.280  11.829
 4695SOL    HW114627   3.625   1.288  11.843
 4695SOL    HW214628   3.481   1.364  11.860
 4696SOL     OW14629   3.252   0.575  11.250
 4696SOL    HW114630   3.198   0.554  11.331
 4696SOL    HW214631   3.343   0.534  11.259
 4697SOL     OW14632   2.389   0.256  11.500
 4697SOL    HW114633   2.416   0.197  11.425
 4697SOL    HW214634   2.389   0.351  11.469
 4698SOL     OW14635   3.616   1.223  12.760
 4698SOL    HW114636   3.707   1.184  12.747
 4698SOL    HW214637   3.624   1.319  12.784
 4699SOL     OW14638   2.926   1.347  12.512
 4699SOL    HW114639   2.846   1.324  12.567
 4699SOL    HW214640   3.009   1.321  12.561
 4700SOL     OW14641   3.454   1.629  12.797
 4700SOL    HW114642   3.481   1.663  12.707
 4700SOL    HW214643   3.533   1.591  12.843
 4701SOL     OW14644   2.973   1.195  12.272
 4701SOL    HW114645   2.933   1.239  12.353
 4701SOL    HW214646   2.932   1.232  12.189
 4702SOL     OW14647   3.500   1.099  12.251
 4702SOL    HW114648   3.505   1.180  12.310
 4702SOL    HW214649   3.414   1.101  12.200
 4703SOL     OW14650   2.777   0.089  12.574
 4703SOL    HW114651   2.802   0.069  12.479
 4703SOL    HW214652   2.849   0.145  12.616
 4704SOL     OW14653   2.842   1.116  12.891
 4704SOL    HW114654   2.743   1.122  12.901
 4704SOL    HW214655   2.865   1.036  12.835
 4705SOL     OW14656   2.567   1.050  11.540
 4705SOL    HW114657   2.553   1.057  11.639
 4705SOL    HW214658   2.651   0.999  11.522
 4706SOL     OW14659   2.272   0.813  12.423
 4706SOL    HW114660   2.358   0.825  12.473
 4706SOL    HW214661   2.230   0.726  12.450
 4707SOL     OW14662   3.136   0.386  12.434
 4707SOL    HW114663   3.157   0.460  12.498
 4707SOL    HW214664   3.047   0.403  12.391
 4708SOL     OW14665   1.926   1.564  12.503
 4708SOL    HW114666   1.880   1.646  12.469
 4708SOL    HW214667   2.024   1.583  12.512
 4709SOL     OW14668   2.229   1.100  11.673
 4709SOL    HW114669   2.222   1.183  11.617
 4709SOL    HW214670   2.233   1.020  11.613
 4710SOL     OW14671   2.428   0.537  12.037
 4710SOL    HW114672   2.440   0.603  11.963
 4710SOL    HW214673   2.474   0.571  12.120
 4711SOL     OW14674   3.114   1.348  11.560
 4711SOL    HW114675   3.164   1.425  11.600
 4711SOL    HW214676   3.019   1.350  11.592
 4712SOL     OW14677   3.134   1.445  12.314
 4712SOL    HW114678   3.181   1.458  12.401
 4712SOL    HW214679   3.068   1.371  12.323
 4713SOL     OW14680   3.444   0.639  11.644
 4713SOL    HW114681   3.413   0.700  11.717
 4713SOL    HW214682   3.494   0.691  11.575
 4714SOL     OW14683   2.216   1.510  12.501
 4714SOL    HW114684   2.195   1.466  12.414
 4714SOL    HW214685   2.313   1.536  12.504
 4715SOL     OW14686   2.264   0.751  12.770
 4715SOL    HW114687   2.332   0.806  12.723
 4715SOL    HW214688   2.304   0.663  12.797
 4716SOL     OW14689   3.449   0.779  12.842
 4716SOL    HW114690   3.357   0.817  12.837
 4716SOL    HW214691   3.509   0.826  12.777
 4717SOL     OW14692   2.875   0.105  12.942
 4717SOL    HW114693   2.881   0.190  12.890
 4717SOL    HW214694   2.907   0.029  12.885
 4718SOL     OW14695   2.366   0.050  12.912
 4718SOL    HW114696   2.324  -0.007  12.842
 4718SOL    HW214697   2.300   0.119  12.944
 4719SOL     OW14698   2.435   0.870  12.201
 4719SOL    HW114699   2.479   0.959  12.192
 4719SOL    HW214700   2.372   0.870  12.278
 4720SOL     OW14701   3.222   0.862  12.217
 4720SOL    HW114702   3.147   0.862  12.151
 4720SOL    HW214703   3.259   0.770  12.226
 4721SOL     OW14704   3.071   0.525  11.447
 4721SOL    HW114705   3.084   0.441  11.501
 4721SOL    HW214706   3.042   0.599  11.507
 4722SOL     OW14707   2.169   0.213  12.403
 4722SOL    HW114708   2.146   0.250  12.493
 4722SOL    HW214709   2.139   0.118  12.397
 4723SOL     OW14710   1.899   1.310  12.454
 4723SOL    HW114711   1.952   1.261  12.522
 4723SOL    HW214712   1.921   1.408  12.459
 4724SOL     OW14713   2.594   0.634  12.236
 4724SOL    HW114714   2.653   0.608  12.160
 4724SOL    HW214715   2.566   0.730  12.225
 4725SOL     OW14716   3.590   0.935  13.026
 4725SOL    HW114717   3.544   0.928  12.937
 4725SOL    HW214718   3.528   0.979  13.092
 4726SOL     OW14719   2.169   0.063  11.790
 4726SOL    HW114720   2.158   0.157  11.823
 4726SOL    HW214721   2.164   0.000  11.867
 4727SOL     OW14722   3.484   0.367  11.546
 4727SOL    HW114723   3.486   0.291  11.610
 4727SOL    HW214724   3.436   0.444  11.586
 4728SOL     OW14725   2.885   0.766  12.138
 4728SOL    HW114726   2.900   0.787  12.234
 4728SOL    HW214727   2.855   0.671  12.129
 4729SOL     OW14728   2.842   1.573  12.872
 4729SOL    HW114729   2.822   1.617  12.784
 4729SOL    HW214730   2.881   1.482  12.856
 4730SOL     OW14731   3.721   1.518  12.777
 4730SOL    HW114732   3.735   1.545  12.682
 4730SOL    HW214733   3.804   1.540  12.830
 4731SOL     OW14734   2.212   0.898  12.976
 4731SOL    HW114735   2.288   0.942  13.024
 4731SOL    HW214736   2.247   0.851  12.894
 4732SOL     OW14737   3.402   0.274  11.297
 4732SOL    HW114738   3.341   0.199  11.320
 4732SOL    HW214739   3.424   0.326  11.380
 4733SOL     OW14740   3.165   0.838  11.214
 4733SOL    HW114741   3.199   0.745  11.229
 4733SOL    HW214742   3.183   0.865  11.119
 4734SOL     OW14743   2.930   1.333  12.021
 4734SOL    HW114744   2.937   1.249  11.966
 4734SOL    HW214745   2.992   1.402  11.985
 4735SOL     OW14746   2.181   0.810  12.121
 4735SOL    HW114747   2.274   0.846  12.126
 4735SOL    HW214748   2.175   0.725  12.173
 4736SOL     OW14749   2.201   0.509  12.178
 4736SOL    HW114750   2.149   0.426  12.161
 4736SOL    HW214751   2.278   0.514  12.114
 4737SOL     OW14752   3.000   0.380  12.850
 4737SOL    HW114753   2.955   0.443  12.914
 4737SOL    HW214754   3.093   0.411  12.833
 4738SOL     OW14755   3.022   0.207  12.649
 4738SOL    HW114756   3.022   0.271  12.726
 4738SOL    HW214757   3.050   0.255  12.566
 4739SOL     OW14758   1.870   1.326  11.372
 4739SOL    HW114759   1.777   1.347  11.341
 4739SOL    HW214760   1.880   1.227  11.385
 4740SOL     OW14761   1.950   1.801  12.099
 4740SOL    HW114762   1.908   1.715  12.072
 4740SOL    HW214763   2.044   1.804  12.065
 4741SOL     OW14764   2.366   1.568  12.082
 4741SOL    HW114765   2.432   1.642  12.091
 4741SOL    HW214766   2.410   1.489  12.040
 4742SOL     OW14767   2.864   0.796  12.410
 4742SOL    HW114768   2.905   0.764  12.496
 4742SOL    HW214769   2.768   0.769  12.407
 4743SOL     OW14770   1.902   0.544  12.286
 4743SOL    HW114771   1.987   0.511  12.245
 4743SOL    HW214772   1.915   0.559  12.384
 4744SOL     OW14773   2.051   0.520  12.894
 4744SOL    HW114774   2.110   0.480  12.824
 4744SOL    HW214775   1.993   0.591  12.853
 4745SOL     OW14776   3.231   0.950  12.832
 4745SOL    HW114777   3.270   1.039  12.852
 4745SOL    HW214778   3.241   0.930  12.735
 4746SOL     OW14779   2.677   0.572  11.497
 4746SOL    HW114780   2.684   0.483  11.451
 4746SOL    HW214781   2.583   0.606  11.489
 4747SOL     OW14782   3.519   0.604  12.378
 4747SOL    HW114783   3.481   0.535  12.440
 4747SOL    HW214784   3.601   0.568  12.334
 4748SOL     OW14785   2.114   1.564  12.916
 4748SOL    HW114786   2.084   1.621  12.992
 4748SOL    HW214787   2.107   1.467  12.942
 4749SOL     OW14788   2.533   0.464  12.441
 4749SOL    HW114789   2.499   0.375  12.411
 4749SOL    HW214790   2.559   0.518  12.361
 4750SOL     OW14791   2.792   1.678  12.637
 4750SOL    HW114792   2.768   1.660  12.542
 4750SOL    HW214793   2.822   1.772  12.647
 4751SOL     OW14794   2.335   0.500  11.363
 4751SOL    HW114795   2.396   0.580  11.367
 4751SOL    HW214796   2.240   0.531  11.370
 4752SOL     OW14797   2.021   1.137  12.638
 4752SOL    HW114798   2.043   1.076  12.714
 4752SOL    HW214799   2.031   1.088  12.552
 4753SOL     OW14800   3.209   1.059  12.406
 4753SOL    HW114801   3.233   0.996  12.332
 4753SOL    HW214802   3.119   1.099  12.388
 4754SOL     OW14803   3.164   0.855  11.481
 4754SOL    HW114804   3.078   0.824  11.523
 4754SOL    HW214805   3.160   0.841  11.382
 4755SOL     OW14806   3.621   1.747  12.326
 4755SOL    HW114807   3.682   1.777  12.253
 4755SOL    HW214808   3.583   1.658  12.304
 4756SOL     OW14809   3.114   1.731  12.300
 4756SOL    HW114810   3.198   1.736  12.246
 4756SOL    HW214811   3.091   1.635  12.318
 4757SOL     OW14812   1.945   1.258  12.194
 4757SOL    HW114813   1.940   1.257  12.294
 4757SOL    HW214814   1.862   1.217  12.156
 4758SOL     OW14815   2.550   1.662  12.888
 4758SOL    HW114816   2.494   1.743  12.897
 4758SOL    HW214817   2.602   1.666  12.802
 4759SOL     OW14818   3.588   0.135  11.695
 4759SOL    HW114819   3.661   0.118  11.628
 4759SOL    HW214820   3.557   0.048  11.733
 4760SOL     OW14821   3.250   1.573  11.649
 4760SOL    HW114822   3.317   1.585  11.575
 4760SOL    HW214823   3.210   1.662  11.672
 4761SOL     OW14824   1.992   1.794  13.023
 4761SOL    HW114825   1.951   1.720  13.076
 4761SOL    HW214826   2.056   1.845  13.081
 4762SOL     OW14827   3.142   0.927  11.844
 4762SOL    HW114828   3.202   0.846  11.846
 4762SOL    HW214829   3.182   0.996  11.784
 4763SOL     OW14830   2.692   1.273  12.594
 4763SOL    HW114831   2.687   1.306  12.689
 4763SOL    HW214832   2.606   1.292  12.548
 4764SOL     OW14833   2.534   1.616  11.326
 4764SOL    HW114834   2.543   1.626  11.227
 4764SOL    HW214835   2.494   1.527  11.347
 4765SOL     OW14836   3.512   1.720  12.566
 4765SOL    HW114837   3.565   1.730  12.482
 4765SOL    HW214838   3.485   1.810  12.600
 4766SOL     OW14839   3.703   0.175  12.135
 4766SOL    HW114840   3.742   0.090  12.099
 4766SOL    HW214841   3.605   0.177  12.116
 4767SOL     OW14842   2.125   0.326  11.892
 4767SOL    HW114843   2.046   0.377  11.858
 4767SOL    HW214844   2.116   0.311  11.990
 4768SOL     OW14845   3.056   1.612  11.203
 4768SOL    HW114846   3.062   1.519  11.240
 4768SOL    HW214847   2.997   1.612  11.123
 4769SOL     OW14848   2.684   1.002  12.544
 4769SOL    HW114849   2.724   1.001  12.452
 4769SOL    HW214850   2.694   1.094  12.584
 4770SOL     OW14851   2.778   0.910  11.463
 4770SOL    HW114852   2.841   0.948  11.395
 4770SOL    HW214853   2.818   0.827  11.502
 4771SOL     OW14854   3.366   1.607  11.216
 4771SOL    HW114855   3.274   1.644  11.223
 4771SOL    HW214856   3.404   1.627  11.126
 4772SOL     OW14857   2.234   1.288  12.662
 4772SOL    HW114858   2.221   1.381  12.628
 4772SOL    HW214859   2.150   1.236  12.649
 4773SOL     OW14860   3.476   1.292  12.461
 4773SOL    HW114861   3.536   1.295  12.541
 4773SOL    HW214862   3.401   1.356  12.474
 4774SOL     OW14863   2.901   1.098  11.868
 4774SOL    HW114864   2.831   1.051  11.922
 4774SOL    HW214865   2.960   1.030  11.825
 4775SOL     OW14866   2.876   0.236  12.143
 4775SOL    HW114867   2.868   0.200  12.050
 4775SOL    HW214868   2.874   0.160  12.208
 4776SOL     OW14869   2.452   1.487  11.663
 4776SOL    HW114870   2.494   1.429  11.593
 4776SOL    HW214871   2.408   1.566  11.619
 4777SOL     OW14872   3.571   0.385  12.553
 4777SOL    HW114873   3.644   0.454  12.557
 4777SOL    HW214874   3.599   0.310  12.494
 4778SOL     OW14875   2.117   1.348  11.462
 4778SOL    HW114876   2.021   1.349  11.435
 4778SOL    HW214877   2.129   1.401  11.546
 4779SOL     OW14878   1.967   1.013  12.898
 4779SOL    HW114879   1.890   0.980  12.952
 4779SOL    HW214880   2.052   0.983  12.940
 4780SOL     OW14881   2.534   0.203  12.661
 4780SOL    HW114882   2.624   0.187  12.621
 4780SOL    HW214883   2.542   0.208  12.760
 4781SOL     OW14884   1.937   0.345  11.205
 4781SOL    HW114885   1.845   0.317  11.176
 4781SOL    HW214886   1.968   0.422  11.149
 4782SOL     OW14887   3.302   0.856  12.570
 4782SOL    HW114888   3.245   0.908  12.507
 4782SOL    HW214889   3.398   0.868  12.546
 4783SOL     OW14890   1.934   0.166  11.490
 4783SOL    HW114891   1.917   0.249  11.436
 4783SOL    HW214892   2.024   0.129  11.468
 4784SOL     OW14893   3.045   1.335  11.291
 4784SOL    HW114894   2.946   1.324  11.293
 4784SOL    HW214895   3.079   1.350  11.384
 4785SOL     OW14896   2.475   0.842  12.603
 4785SOL    HW114897   2.531   0.923  12.586
 4785SOL    HW214898   2.534   0.762  12.606
 4786SOL     OW14899   3.355   1.767  12.131
 4786SOL    HW114900   3.388   1.831  12.062
 4786SOL    HW214901   3.421   1.761  12.206
 4787SOL     OW14902   2.578   0.565  12.880
 4787SOL    HW114903   2.597   0.630  12.954
 4787SOL    HW214904   2.638   0.485  12.889
 4788SOL     OW14905   3.312   1.220  12.805
 4788SOL    HW114906   3.303   1.210  12.904
 4788SOL    HW214907   3.408   1.213  12.779
 4789SOL     OW14908   2.252   1.741  12.732
 4789SOL    HW114909   2.161   1.782  12.730
 4789SOL    HW214910   2.245   1.647  12.764
 4790SOL     OW14911   3.536   0.883  12.426
 4790SOL    HW114912   3.509   0.794  12.389
 4790SOL    HW214913   3.537   0.951  12.353
 4791SOL     OW14914   3.087   0.325  11.621
 4791SOL    HW114915   3.152   0.251  11.610
 4791SOL    HW214916   3.107   0.375  11.705
 4792SOL     OW14917   2.456   0.745  11.824
 4792SOL    HW114918   2.506   0.830  11.805
 4792SOL    HW214919   2.368   0.747  11.776
 4793SOL     OW14920   3.639   0.342  12.814
 4793SOL    HW114921   3.622   0.373  12.720
 4793SOL    HW214922   3.555   0.305  12.852
 4794SOL     OW14923   3.592   0.934  12.689
 4794SOL    HW114924   3.630   1.025  12.704
 4794SOL    HW214925   3.584   0.917  12.590
 4795SOL     OW14926   2.721   1.374  11.188
 4795SOL    HW114927   2.675   1.389  11.276
 4795SOL    HW214928   2.765   1.459  11.158
 4796SOL     OW14929   2.523   1.790  12.125
 4796SOL    HW114930   2.477   1.878  12.112
 4796SOL    HW214931   2.622   1.802  12.118
 4797SOL     OW14932   2.721   0.956  12.033
 4797SOL    HW114933   2.775   0.887  12.081
 4797SOL    HW214934   2.689   1.025  12.099
 4798SOL     OW14935   2.945   0.984  11.259
 4798SOL    HW114936   2.922   1.037  11.177
 4798SOL    HW214937   3.026   0.928  11.240
 4799SOL     OW14938   3.723   1.569  12.023
 4799SOL    HW114939   3.652   1.557  11.953
 4799SOL    HW214940   3.724   1.490  12.083
 4800SOL     OW14941   2.083   1.314  13.016
 4800SOL    HW114942   2.018   1.241  12.995
 4800SOL    HW214943   2.087   1.328  13.114
 4801SOL     OW14944   1.941   1.240  11.825
 4801SOL    HW114945   1.940   1.193  11.913
 4801SOL    HW214946   2.023   1.212  11.774
 4802SOL     OW14947   2.534   1.391  12.796
 4802SOL    HW114948   2.456   1.341  12.834
 4802SOL    HW214949   2.531   1.486  12.827
 4803SOL     OW14950   3.686   0.192  12.399
 4803SOL    HW114951   3.682   0.102  12.443
 4803SOL    HW214952   3.689   0.181  12.300
 4804SOL     OW14953   2.290   0.424  11.692
 4804SOL    HW114954   2.320   0.352  11.630
 4804SOL    HW214955   2.251   0.384  11.775
 4805SOL     OW14956   3.567   1.487  12.276
 4805SOL    HW114957   3.474   1.462  12.249
 4805SOL    HW214958   3.593   1.437  12.358
 4806SOL     OW14959   2.179   0.547  12.452
 4806SOL    HW114960   2.217   0.488  12.524
 4806SOL    HW214961   2.219   0.521  12.364
 4807SOL     OW14962   2.674   1.586  11.859
 4807SOL    HW114963   2.706   1.596  11.765
 4807SOL    HW214964   2.595   1.524  11.861
 4808SOL     OW14965   3.286   0.214  12.284
 4808SOL    HW114966   3.338   0.149  12.339
 4808SOL    HW214967   3.237   0.277  12.345
 4809SOL     OW14968   2.863   0.034  12.326
 4809SOL    HW114969   2.800  -0.038  12.295
 4809SOL    HW214970   2.956  -0.002  12.326
 4810SOL     OW14971   2.632   1.330  11.473
 4810SOL    HW114972   2.586   1.243  11.490
 4810SOL    HW214973   2.723   1.327  11.514
 4811SOL     OW14974   2.480   1.567  12.456
 4811SOL    HW114975   2.475   1.649  12.513
 4811SOL    HW214976   2.569   1.564  12.411
 4812SOL     OW14977   3.214   0.052  11.340
 4812SOL    HW114978   3.249   0.011  11.256
 4812SOL    HW214979   3.124   0.014  11.360
 4813SOL     OW14980   3.162   0.453  11.863
 4813SOL    HW114981   3.103   0.533  11.867
 4813SOL    HW214982   3.177   0.418  11.956
 4814SOL     OW14983   3.455   0.221  12.054
 4814SOL    HW114984   3.371   0.220  12.108
 4814SOL    HW214985   3.457   0.304  11.998
 4815SOL     OW14986   1.901   1.077  11.472
 4815SOL    HW114987   2.000   1.066  11.463
 4815SOL    HW214988   1.861   0.991  11.504
 4816SOL     OW14989   2.737   1.646  11.509
 4816SOL    HW114990   2.660   1.611  11.455
 4816SOL    HW214991   2.705   1.717  11.571
 4817SOL     OW14992   2.092   0.628  13.147
 4817SOL    HW114993   1.999   0.626  13.184
 4817SOL    HW214994   2.093   0.589  13.055
 4818SOL     OW14995   2.087   0.275  14.030
 4818SOL    HW114996   2.122   0.258  14.122
 4818SOL    HW214997   1.999   0.230  14.018
 4819SOL     OW14998   1.881   0.368  13.681
 4819SOL    HW114999   1.799   0.411  13.720
 4819SOL    HW215000   1.853   0.295  13.618
 4820SOL     OW15001   3.417   1.511  13.737
 4820SOL    HW115002   3.360   1.495  13.818
 4820SOL    HW215003   3.358   1.521  13.657
 4821SOL     OW15004   2.997   0.703  13.751
 4821SOL    HW115005   3.054   0.781  13.726
 4821SOL    HW215006   2.937   0.729  13.827
 4822SOL     OW15007   3.617   0.607  13.265
 4822SOL    HW115008   3.605   0.594  13.166
 4822SOL    HW215009   3.587   0.526  13.314
 4823SOL     OW15010   2.547   1.012  13.699
 4823SOL    HW115011   2.616   0.996  13.769
 4823SOL    HW215012   2.474   1.069  13.737
 4824SOL     OW15013   3.465   0.447  13.771
 4824SOL    HW115014   3.391   0.493  13.721
 4824SOL    HW215015   3.516   0.515  13.824
 4825SOL     OW15016   2.093   1.713  13.517
 4825SOL    HW115017   2.127   1.790  13.571
 4825SOL    HW215018   2.137   1.713  13.427
 4826SOL     OW15019   2.092   1.434  13.572
 4826SOL    HW115020   2.066   1.530  13.572
 4826SOL    HW215021   2.021   1.380  13.617
 4827SOL     OW15022   2.102   1.091  13.920
 4827SOL    HW115023   2.116   1.007  13.972
 4827SOL    HW215024   2.047   1.155  13.975
 4828SOL     OW15025   2.468   0.964  13.157
 4828SOL    HW115026   2.475   1.048  13.103
 4828SOL    HW215027   2.514   0.977  13.245
 4829SOL     OW15028   1.984   0.643  13.597
 4829SOL    HW115029   1.939   0.555  13.614
 4829SOL    HW215030   1.983   0.697  13.681
 4830SOL     OW15031   3.704   1.767  13.393
 4830SOL    HW115032   3.758   1.738  13.473
 4830SOL    HW215033   3.734   1.857  13.364
 4831SOL     OW15034   1.889   1.596  13.151
 4831SOL    HW115035   1.870   1.500  13.172
 4831SOL    HW215036   1.856   1.654  13.226
 4832SOL     OW15037   3.551   0.922  13.646
 4832SOL    HW115038   3.646   0.893  13.654
 4832SOL    HW215039   3.543   0.987  13.571
 4833SOL     OW15040   3.503   1.108  13.466
 4833SOL    HW115041   3.589   1.110  13.414
 4833SOL    HW215042   3.517   1.155  13.554
 4834SOL     OW15043   2.475   1.365  13.760
 4834SOL    HW115044   2.426   1.278  13.769
 4834SOL    HW215045   2.452   1.408  13.673
 4835SOL     OW15046   2.671   0.004  13.536
 4835SOL    HW115047   2.711   0.095  13.527
 4835SOL    HW215048   2.571   0.012  13.542
 4836SOL     OW15049   3.387   0.999  13.224
 4836SOL    HW115050   3.324   0.923  13.237
 4836SOL    HW215051   3.435   1.017  13.310
 4837SOL     OW15052   3.529   1.714  13.606
 4837SOL    HW115053   3.488   1.691  13.518
 4837SOL    HW215054   3.511   1.640  13.671
 4838SOL     OW15055   2.460   0.729  13.304
 4838SOL    HW115056   2.484   0.798  13.236
 4838SOL    HW215057   2.382   0.762  13.358
 4839SOL     OW15058   3.143   0.345  13.978
 4839SOL    HW115059   3.057   0.295  13.965
 4839SOL    HW215060   3.205   0.291  14.034
 4840SOL     OW15061   3.438   1.662  13.341
 4840SOL    HW115062   3.527   1.708  13.344
 4840SOL    HW215063   3.417   1.638  13.246
 4841SOL     OW15064   2.903   0.701  13.463
 4841SOL    HW115065   2.929   0.697  13.559
 4841SOL    HW215066   2.818   0.650  13.449
 4842SOL     OW15067   1.938   0.811  13.823
 4842SOL    HW115068   2.037   0.799  13.832
 4842SOL    HW215069   1.914   0.906  13.844
 4843SOL     OW15070   2.727   0.348  13.229
 4843SOL    HW115071   2.786   0.411  13.180
 4843SOL    HW215072   2.746   0.254  13.200
 4844SOL     OW15073   3.224   1.144  13.579
 4844SOL    HW115074   3.307   1.115  13.531
 4844SOL    HW215075   3.175   1.211  13.523
 4845SOL     OW15076   2.870   1.456  13.511
 4845SOL    HW115077   2.824   1.528  13.459
 4845SOL    HW215078   2.866   1.476  13.609
 4846SOL     OW15079   2.213   1.801  13.887
 4846SOL    HW115080   2.263   1.715  13.893
 4846SOL    HW215081   2.278   1.878  13.884
 4847SOL     OW15082   3.657   1.066  13.907
 4847SOL    HW115083   3.595   1.051  13.831
 4847SOL    HW215084   3.605   1.077  13.992
 4848SOL     OW15085   2.183   0.943  13.276
 4848SOL    HW115086   2.265   0.982  13.234
 4848SOL    HW215087   2.156   0.861  13.227
 4849SOL     OW15088   3.320   0.735  13.762
 4849SOL    HW115089   3.315   0.670  13.837
 4849SOL    HW215090   3.400   0.794  13.775
 4850SOL     OW15091   2.973   1.776  13.271
 4850SOL    HW115092   2.913   1.714  13.321
 4850SOL    HW215093   3.004   1.732  13.186
 4851SOL     OW15094   3.494   1.377  13.115
 4851SOL    HW115095   3.462   1.471  13.105
 4851SOL    HW215096   3.418   1.314  13.103
 4852SOL     OW15097   2.326   1.743  13.357
 4852SOL    HW115098   2.359   1.782  13.443
 4852SOL    HW215099   2.402   1.736  13.292
 4853SOL     OW15100   3.262   0.107  13.460
 4853SOL    HW115101   3.238   0.070  13.370
 4853SOL    HW215102   3.361   0.123  13.464
 4854SOL     OW15103   2.802   1.698  13.938
 4854SOL    HW115104   2.882   1.641  13.959
 4854SOL    HW215105   2.753   1.658  13.861
 4855SOL     OW15106   2.244   0.700  13.514
 4855SOL    HW115107   2.289   0.610  13.511
 4855SOL    HW215108   2.150   0.689  13.547
 4856SOL     OW15109   2.476   0.122  13.151
 4856SOL    HW115110   2.574   0.100  13.158
 4856SOL    HW215111   2.445   0.105  13.058
 4857SOL     OW15112   2.401   0.064  13.546
 4857SOL    HW115113   2.320   0.065  13.604
 4857SOL    HW215114   2.404   0.147  13.491
 4858SOL     OW15115   3.296   1.188  13.075
 4858SOL    HW115116   3.328   1.112  13.132
 4858SOL    HW215117   3.204   1.215  13.105
 4859SOL     OW15118   2.159   0.035  13.205
 4859SOL    HW115119   2.208   0.119  13.184
 4859SOL    HW215120   2.221  -0.030  13.250
 4860SOL     OW15121   2.797   0.236  13.514
 4860SOL    HW115122   2.749   0.277  13.436
 4860SOL    HW215123   2.896   0.234  13.495
 4861SOL     OW15124   2.321   1.152  13.775
 4861SOL    HW115125   2.250   1.125  13.840
 4861SOL    HW215126   2.295   1.124  13.682
 4862SOL     OW15127   3.133   1.797  13.625
 4862SOL    HW115128   3.177   1.861  13.561
 4862SOL    HW215129   3.083   1.849  13.695
 4863SOL     OW15130   2.894   0.549  13.050
 4863SOL    HW115131   2.853   0.631  13.011
 4863SOL    HW215132   2.958   0.575  13.123
 4864SOL     OW15133   2.728   0.454  13.676
 4864SOL    HW115134   2.696   0.526  13.614
 4864SOL    HW215135   2.752   0.373  13.623
 4865SOL     OW15136   2.879   0.039  13.787
 4865SOL    HW115137   2.807   0.044  13.718
 4865SOL    HW215138   2.855  -0.030  13.856
 4866SOL     OW15139   3.719   0.833  13.411
 4866SOL    HW115140   3.761   0.769  13.475
 4866SOL    HW215141   3.681   0.782  13.333
 4867SOL     OW15142   2.350   1.385  13.208
 4867SOL    HW115143   2.263   1.370  13.255
 4867SOL    HW215144   2.333   1.411  13.113
 4868SOL     OW15145   3.526   1.280  13.691
 4868SOL    HW115146   3.625   1.288  13.705
 4868SOL    HW215147   3.481   1.364  13.722
 4869SOL     OW15148   3.252   0.575  13.112
 4869SOL    HW115149   3.198   0.554  13.193
 4869SOL    HW215150   3.343   0.534  13.121
 4870SOL     OW15151   2.389   0.256  13.362
 4870SOL    HW115152   2.416   0.197  13.287
 4870SOL    HW215153   2.389   0.351  13.331
 4871SOL     OW15154   2.567   1.050  13.402
 4871SOL    HW115155   2.553   1.057  13.501
 4871SOL    HW215156   2.651   0.999  13.384
 4872SOL     OW15157   2.229   1.100  13.535
 4872SOL    HW115158   2.222   1.183  13.479
 4872SOL    HW215159   2.233   1.020  13.475
 4873SOL     OW15160   2.428   0.537  13.899
 4873SOL    HW115161   2.440   0.603  13.825
 4873SOL    HW215162   2.474   0.571  13.982
 4874SOL     OW15163   3.114   1.348  13.422
 4874SOL    HW115164   3.164   1.425  13.462
 4874SOL    HW215165   3.019   1.350  13.454
 4875SOL     OW15166   3.444   0.639  13.506
 4875SOL    HW115167   3.413   0.700  13.579
 4875SOL    HW215168   3.494   0.691  13.437
 4876SOL     OW15169   3.071   0.525  13.309
 4876SOL    HW115170   3.084   0.441  13.363
 4876SOL    HW215171   3.042   0.599  13.369
 4877SOL     OW15172   2.169   0.063  13.652
 4877SOL    HW115173   2.158   0.157  13.685
 4877SOL    HW215174   2.164   0.000  13.729
 4878SOL     OW15175   3.484   0.367  13.408
 4878SOL    HW115176   3.486   0.291  13.472
 4878SOL    HW215177   3.436   0.444  13.448
 4879SOL     OW15178   3.402   0.274  13.159
 4879SOL    HW115179   3.341   0.199  13.182
 4879SOL    HW215180   3.424   0.326  13.242
 4880SOL     OW15181   3.165   0.838  13.076
 4880SOL    HW115182   3.199   0.745  13.091
 4880SOL    HW215183   3.183   0.865  12.981
 4881SOL     OW15184   1.870   1.326  13.234
 4881SOL    HW115185   1.777   1.347  13.203
 4881SOL    HW215186   1.880   1.227  13.247
 4882SOL     OW15187   2.677   0.572  13.359
 4882SOL    HW115188   2.684   0.483  13.313
 4882SOL    HW215189   2.583   0.606  13.351
 4883SOL     OW15190   2.335   0.500  13.225
 4883SOL    HW115191   2.396   0.580  13.229
 4883SOL    HW215192   2.240   0.531  13.232
 4884SOL     OW15193   3.164   0.855  13.343
 4884SOL    HW115194   3.078   0.824  13.385
 4884SOL    HW215195   3.160   0.841  13.244
 4885SOL     OW15196   3.588   0.135  13.557
 4885SOL    HW115197   3.661   0.118  13.490
 4885SOL    HW215198   3.557   0.048  13.595
 4886SOL     OW15199   3.250   1.573  13.511
 4886SOL    HW115200   3.317   1.585  13.437
 4886SOL    HW215201   3.210   1.662  13.534
 4887SOL     OW15202   3.142   0.927  13.706
 4887SOL    HW115203   3.202   0.846  13.708
 4887SOL    HW215204   3.182   0.996  13.646
 4888SOL     OW15205   2.534   1.616  13.188
 4888SOL    HW115206   2.543   1.626  13.089
 4888SOL    HW215207   2.494   1.527  13.209
 4889SOL     OW15208   3.703   0.175  13.997
 4889SOL    HW115209   3.742   0.090  13.961
 4889SOL    HW215210   3.605   0.177  13.978
 4890SOL     OW15211   2.125   0.326  13.754
 4890SOL    HW115212   2.046   0.377  13.720
 4890SOL    HW215213   2.116   0.311  13.852
 4891SOL     OW15214   3.056   1.612  13.065
 4891SOL    HW115215   3.062   1.519  13.102
 4891SOL    HW215216   2.997   1.612  12.985
 4892SOL     OW15217   2.778   0.910  13.325
 4892SOL    HW115218   2.841   0.948  13.257
 4892SOL    HW215219   2.818   0.827  13.364
 4893SOL     OW15220   3.366   1.607  13.078
 4893SOL    HW115221   3.274   1.644  13.085
 4893SOL    HW215222   3.404   1.627  12.988
 4894SOL     OW15223   2.901   1.098  13.730
 4894SOL    HW115224   2.831   1.051  13.784
 4894SOL    HW215225   2.960   1.030  13.687
 4895SOL     OW15226   2.452   1.487  13.525
 4895SOL    HW115227   2.494   1.429  13.455
 4895SOL    HW215228   2.408   1.566  13.481
 4896SOL     OW15229   2.117   1.348  13.324
 4896SOL    HW115230   2.021   1.349  13.297
 4896SOL    HW215231   2.129   1.401  13.408
 4897SOL     OW15232   1.937   0.345  13.067
 4897SOL    HW115233   1.845   0.317  13.038
 4897SOL    HW215234   1.968   0.422  13.011
 4898SOL     OW15235   1.934   0.166  13.352
 4898SOL    HW115236   1.917   0.249  13.298
 4898SOL    HW215237   2.024   0.129  13.330
 4899SOL     OW15238   3.045   1.335  13.153
 4899SOL    HW115239   2.946   1.324  13.155
 4899SOL    HW215240   3.079   1.350  13.246
 4900SOL     OW15241   3.087   0.325  13.483
 4900SOL    HW115242   3.152   0.251  13.472
 4900SOL    HW215243   3.107   0.375  13.567
 4901SOL     OW15244   2.456   0.745  13.686
 4901SOL    HW115245   2.506   0.830  13.667
 4901SOL    HW215246   2.368   0.747  13.638
 4902SOL     OW15247   2.721   1.374  13.050
 4902SOL    HW115248   2.675   1.389  13.138
 4902SOL    HW215249   2.765   1.459  13.020
 4903SOL     OW15250   2.523   1.790  13.987
 4903SOL    HW115251   2.477   1.878  13.974
 4903SOL    HW215252   2.622   1.802  13.980
 4904SOL     OW15253   2.721   0.956  13.895
 4904SOL    HW115254   2.775   0.887  13.943
 4904SOL    HW215255   2.689   1.025  13.961
 4905SOL     OW15256   2.945   0.984  13.121
 4905SOL    HW115257   2.922   1.037  13.039
 4905SOL    HW215258   3.026   0.928  13.102
 4906SOL     OW15259   1.941   1.240  13.687
 4906SOL    HW115260   1.940   1.193  13.775
 4906SOL    HW215261   2.023   1.212  13.636
 4907SOL     OW15262   2.290   0.424  13.554
 4907SOL    HW115263   2.320   0.352  13.492
 4907SOL    HW215264   2.251   0.384  13.637
 4908SOL     OW15265   3.567   1.487  14.138
 4908SOL    HW115266   3.474   1.462  14.111
 4908SOL    HW215267   3.593   1.437  14.220
 4909SOL     OW15268   2.674   1.586  13.721
 4909SOL    HW115269   2.706   1.596  13.627
 4909SOL    HW215270   2.595   1.524  13.723
 4910SOL     OW15271   2.632   1.330  13.335
 4910SOL    HW115272   2.586   1.243  13.352
 4910SOL    HW215273   2.723   1.327  13.376
 4911SOL     OW15274   3.214   0.052  13.202
 4911SOL    HW115275   3.249   0.011  13.118
 4911SOL    HW215276   3.124   0.014  13.222
 4912SOL     OW15277   3.162   0.453  13.725
 4912SOL    HW115278   3.103   0.533  13.729
 4912SOL    HW215279   3.177   0.418  13.818
 4913SOL     OW15280   1.901   1.077  13.334
 4913SOL    HW115281   2.000   1.066  13.325
 4913SOL    HW215282   1.861   0.991  13.366
 4914SOL     OW15283   2.737   1.646  13.371
 4914SOL    HW115284   2.660   1.611  13.317
 4914SOL    HW215285   2.705   1.717  13.433
 4915SOL     OW15286   2.092   2.490   0.113
 4915SOL    HW115287   1.999   2.488   0.150
 4915SOL    HW215288   2.093   2.451   0.021
 4916SOL     OW15289   1.881   2.230   0.647
 4916SOL    HW115290   1.799   2.273   0.686
 4916SOL    HW215291   1.853   2.157   0.584
 4917SOL     OW15292   2.431   3.137   1.165
 4917SOL    HW115293   2.338   3.130   1.128
 4917SOL    HW215294   2.442   3.226   1.209
 4918SOL     OW15295   3.417   3.373   0.703
 4918SOL    HW115296   3.360   3.357   0.784
 4918SOL    HW215297   3.358   3.383   0.623
 4919SOL     OW15298   2.997   2.565   0.717
 4919SOL    HW115299   3.054   2.643   0.692
 4919SOL    HW215300   2.937   2.591   0.793
 4920SOL     OW15301   3.617   2.469   0.231
 4920SOL    HW115302   3.605   2.456   0.132
 4920SOL    HW215303   3.587   2.388   0.280
 4921SOL     OW15304   2.630   3.006   1.023
 4921SOL    HW115305   2.552   3.023   1.083
 4921SOL    HW215306   2.664   3.093   0.987
 4922SOL     OW15307   2.712   2.660   1.823
 4922SOL    HW115308   2.708   2.736   1.888
 4922SOL    HW215309   2.734   2.696   1.732
 4923SOL     OW15310   2.547   2.874   0.665
 4923SOL    HW115311   2.616   2.858   0.735
 4923SOL    HW215312   2.474   2.931   0.703
 4924SOL     OW15313   2.548   3.023   1.803
 4924SOL    HW115314   2.608   3.102   1.817
 4924SOL    HW215315   2.462   3.054   1.762
 4925SOL     OW15316   2.197   3.297   1.061
 4925SOL    HW115317   2.119   3.266   1.008
 4925SOL    HW215318   2.255   3.355   1.004
 4926SOL     OW15319   3.322   3.367   1.339
 4926SOL    HW115320   3.346   3.461   1.365
 4926SOL    HW215321   3.306   3.313   1.421
 4927SOL     OW15322   2.300   2.254   1.499
 4927SOL    HW115323   2.382   2.198   1.508
 4927SOL    HW215324   2.219   2.196   1.503
 4928SOL     OW15325   3.465   2.309   0.737
 4928SOL    HW115326   3.391   2.355   0.687
 4928SOL    HW215327   3.516   2.377   0.790
 4929SOL     OW15328   2.093   3.575   0.483
 4929SOL    HW115329   2.127   3.652   0.537
 4929SOL    HW215330   2.137   3.575   0.393
 4930SOL     OW15331   2.989   3.203   1.690
 4930SOL    HW115332   3.036   3.203   1.778
 4930SOL    HW215333   2.941   3.116   1.679
 4931SOL     OW15334   2.092   3.296   0.538
 4931SOL    HW115335   2.066   3.392   0.538
 4931SOL    HW215336   2.021   3.242   0.583
 4932SOL     OW15337   2.102   2.953   0.886
 4932SOL    HW115338   2.116   2.869   0.938
 4932SOL    HW215339   2.047   3.017   0.941
 4933SOL     OW15340   2.482   3.648   1.439
 4933SOL    HW115341   2.390   3.631   1.474
 4933SOL    HW215342   2.510   3.740   1.465
 4934SOL     OW15343   2.468   2.826   0.123
 4934SOL    HW115344   2.475   2.910   0.069
 4934SOL    HW215345   2.514   2.839   0.211
 4935SOL     OW15346   3.456   1.976   1.480
 4935SOL    HW115347   3.438   2.043   1.408
 4935SOL    HW215348   3.453   2.022   1.569
 4936SOL     OW15349   1.984   2.505   0.563
 4936SOL    HW115350   1.939   2.417   0.580
 4936SOL    HW215351   1.983   2.559   0.647
 4937SOL     OW15352   3.704   3.629   0.359
 4937SOL    HW115353   3.758   3.600   0.439
 4937SOL    HW215354   3.734   3.719   0.330
 4938SOL     OW15355   1.889   3.458   0.117
 4938SOL    HW115356   1.870   3.362   0.138
 4938SOL    HW215357   1.856   3.516   0.192
 4939SOL     OW15358   3.551   2.784   0.612
 4939SOL    HW115359   3.646   2.755   0.620
 4939SOL    HW215360   3.543   2.849   0.537
 4940SOL     OW15361   3.503   2.970   0.432
 4940SOL    HW115362   3.589   2.972   0.380
 4940SOL    HW215363   3.517   3.017   0.520
 4941SOL     OW15364   1.975   2.599   1.597
 4941SOL    HW115365   2.063   2.586   1.642
 4941SOL    HW215366   1.962   2.696   1.575
 4942SOL     OW15367   2.475   3.227   0.726
 4942SOL    HW115368   2.426   3.140   0.735
 4942SOL    HW215369   2.452   3.270   0.639
 4943SOL     OW15370   3.155   3.090   1.423
 4943SOL    HW115371   3.192   3.017   1.365
 4943SOL    HW215372   3.207   3.095   1.508
 4944SOL     OW15373   2.671   1.866   0.502
 4944SOL    HW115374   2.711   1.957   0.493
 4944SOL    HW215375   2.571   1.874   0.508
 4945SOL     OW15376   2.059   2.838   1.264
 4945SOL    HW115377   2.148   2.793   1.250
 4945SOL    HW215378   1.986   2.773   1.245
 4946SOL     OW15379   3.387   2.861   0.190
 4946SOL    HW115380   3.324   2.785   0.203
 4946SOL    HW215381   3.435   2.879   0.276
 4947SOL     OW15382   3.049   3.654   1.616
 4947SOL    HW115383   3.073   3.714   1.540
 4947SOL    HW215384   3.056   3.559   1.586
 4948SOL     OW15385   3.328   3.279   0.953
 4948SOL    HW115386   3.269   3.285   1.033
 4948SOL    HW215387   3.313   3.191   0.907
 4949SOL     OW15388   3.529   3.576   0.572
 4949SOL    HW115389   3.488   3.553   0.484
 4949SOL    HW215390   3.511   3.502   0.637
 4950SOL     OW15391   2.460   2.591   0.270
 4950SOL    HW115392   2.484   2.660   0.202
 4950SOL    HW215393   2.382   2.624   0.324
 4951SOL     OW15394   3.143   2.207   0.944
 4951SOL    HW115395   3.057   2.157   0.931
 4951SOL    HW215396   3.205   2.153   1.000
 4952SOL     OW15397   3.438   3.524   0.307
 4952SOL    HW115398   3.527   3.570   0.310
 4952SOL    HW215399   3.417   3.500   0.212
 4953SOL     OW15400   2.669   2.467   1.465
 4953SOL    HW115401   2.622   2.464   1.554
 4953SOL    HW215402   2.618   2.412   1.399
 4954SOL     OW15403   3.256   2.331   1.674
 4954SOL    HW115404   3.236   2.374   1.762
 4954SOL    HW215405   3.334   2.269   1.683
 4955SOL     OW15406   2.835   2.752   1.572
 4955SOL    HW115407   2.881   2.668   1.543
 4955SOL    HW215408   2.779   2.786   1.497
 4956SOL     OW15409   2.853   2.272   1.242
 4956SOL    HW115410   2.776   2.306   1.296
 4956SOL    HW215411   2.819   2.221   1.163
 4957SOL     OW15412   2.903   2.563   0.429
 4957SOL    HW115413   2.929   2.559   0.525
 4957SOL    HW215414   2.818   2.512   0.415
 4958SOL     OW15415   1.938   2.673   0.789
 4958SOL    HW115416   2.037   2.661   0.798
 4958SOL    HW215417   1.914   2.768   0.810
 4959SOL     OW15418   1.992   3.683   1.571
 4959SOL    HW115419   1.982   3.668   1.670
 4959SOL    HW215420   1.906   3.719   1.535
 4960SOL     OW15421   2.727   2.210   0.195
 4960SOL    HW115422   2.786   2.273   0.146
 4960SOL    HW215423   2.746   2.116   0.166
 4961SOL     OW15424   3.581   2.447   1.831
 4961SOL    HW115425   3.555   2.536   1.795
 4961SOL    HW215426   3.579   2.379   1.758
 4962SOL     OW15427   3.224   3.006   0.545
 4962SOL    HW115428   3.307   2.977   0.497
 4962SOL    HW215429   3.175   3.073   0.489
 4963SOL     OW15430   2.412   2.058   0.885
 4963SOL    HW115431   2.407   2.053   0.985
 4963SOL    HW215432   2.414   2.154   0.856
 4964SOL     OW15433   2.870   3.318   0.477
 4964SOL    HW115434   2.824   3.390   0.425
 4964SOL    HW215435   2.866   3.338   0.575
 4965SOL     OW15436   2.213   3.663   0.853
 4965SOL    HW115437   2.263   3.577   0.859
 4965SOL    HW215438   2.278   3.740   0.850
 4966SOL     OW15439   3.657   2.928   0.873
 4966SOL    HW115440   3.595   2.913   0.797
 4966SOL    HW215441   3.605   2.939   0.958
 4967SOL     OW15442   3.089   3.412   1.506
 4967SOL    HW115443   3.095   3.335   1.570
 4967SOL    HW215444   3.037   3.386   1.426
 4968SOL     OW15445   2.183   2.805   0.242
 4968SOL    HW115446   2.265   2.844   0.200
 4968SOL    HW215447   2.156   2.723   0.193
 4969SOL     OW15448   3.320   2.597   0.728
 4969SOL    HW115449   3.315   2.532   0.803
 4969SOL    HW215450   3.400   2.656   0.741
 4970SOL     OW15451   2.323   3.128   1.727
 4970SOL    HW115452   2.273   3.129   1.641
 4970SOL    HW215453   2.260   3.110   1.803
 4971SOL     OW15454   2.973   3.638   0.237
 4971SOL    HW115455   2.913   3.576   0.287
 4971SOL    HW215456   3.004   3.594   0.152
 4972SOL     OW15457   3.494   3.239   0.081
 4972SOL    HW115458   3.462   3.333   0.071
 4972SOL    HW215459   3.418   3.176   0.069
 4973SOL     OW15460   2.326   3.605   0.323
 4973SOL    HW115461   2.359   3.644   0.409
 4973SOL    HW215462   2.402   3.598   0.258
 4974SOL     OW15463   3.262   1.969   0.426
 4974SOL    HW115464   3.238   1.932   0.336
 4974SOL    HW215465   3.361   1.985   0.430
 4975SOL     OW15466   2.111   3.647   1.241
 4975SOL    HW115467   2.168   3.582   1.291
 4975SOL    HW215468   2.095   3.614   1.148
 4976SOL     OW15469   2.802   3.560   0.904
 4976SOL    HW115470   2.882   3.503   0.925
 4976SOL    HW215471   2.753   3.520   0.827
 4977SOL     OW15472   2.244   2.562   0.480
 4977SOL    HW115473   2.289   2.472   0.477
 4977SOL    HW215474   2.150   2.551   0.513
 4978SOL     OW15475   3.409   2.084   1.729
 4978SOL    HW115476   3.404   2.121   1.821
 4978SOL    HW215477   3.337   2.015   1.717
 4979SOL     OW15478   2.643   2.126   1.749
 4979SOL    HW115479   2.710   2.065   1.792
 4979SOL    HW215480   2.570   2.145   1.814
 4980SOL     OW15481   2.750   3.376   1.195
 4980SOL    HW115482   2.727   3.351   1.101
 4980SOL    HW215483   2.811   3.307   1.234
 4981SOL     OW15484   3.213   2.452   1.433
 4981SOL    HW115485   3.241   2.409   1.518
 4981SOL    HW215486   3.238   2.548   1.434
 4982SOL     OW15487   2.665   3.264   0.924
 4982SOL    HW115488   2.755   3.278   0.882
 4982SOL    HW215489   2.594   3.266   0.853
 4983SOL     OW15490   2.784   2.365   0.899
 4983SOL    HW115491   2.759   2.356   0.803
 4983SOL    HW215492   2.832   2.283   0.930
 4984SOL     OW15493   2.401   1.926   0.512
 4984SOL    HW115494   2.320   1.927   0.570
 4984SOL    HW215495   2.404   2.009   0.457
 4985SOL     OW15496   3.296   3.050   0.041
 4985SOL    HW115497   3.328   2.974   0.098
 4985SOL    HW215498   3.204   3.077   0.071
 4986SOL     OW15499   2.797   2.098   0.480
 4986SOL    HW115500   2.749   2.139   0.402
 4986SOL    HW215501   2.896   2.096   0.461
 4987SOL     OW15502   2.938   2.545   1.464
 4987SOL    HW115503   2.858   2.484   1.467
 4987SOL    HW215504   3.019   2.492   1.440
 4988SOL     OW15505   3.089   3.432   0.793
 4988SOL    HW115506   3.110   3.506   0.728
 4988SOL    HW215507   3.157   3.432   0.866
 4989SOL     OW15508   2.321   3.014   0.741
 4989SOL    HW115509   2.250   2.987   0.806
 4989SOL    HW215510   2.295   2.986   0.648
 4990SOL     OW15511   3.133   3.659   0.591
 4990SOL    HW115512   3.177   3.723   0.527
 4990SOL    HW215513   3.083   3.711   0.661
 4991SOL     OW15514   2.894   2.411   0.016
 4991SOL    HW115515   2.853   2.493  -0.023
 4991SOL    HW215516   2.958   2.437   0.089
 4992SOL     OW15517   1.940   2.418   1.386
 4992SOL    HW115518   2.032   2.417   1.345
 4992SOL    HW215519   1.934   2.492   1.453
 4993SOL     OW15520   2.423   2.084   1.147
 4993SOL    HW115521   2.461   2.000   1.184
 4993SOL    HW215522   2.335   2.103   1.191
 4994SOL     OW15523   2.728   2.316   0.642
 4994SOL    HW115524   2.696   2.388   0.580
 4994SOL    HW215525   2.752   2.235   0.589
 4995SOL     OW15526   2.879   1.901   0.753
 4995SOL    HW115527   2.807   1.906   0.684
 4995SOL    HW215528   2.855   1.832   0.822
 4996SOL     OW15529   3.291   3.035   0.867
 4996SOL    HW115530   3.236   2.951   0.860
 4996SOL    HW215531   3.317   3.064   0.775
 4997SOL     OW15532   3.328   2.452   0.992
 4997SOL    HW115533   3.298   2.357   0.999
 4997SOL    HW215534   3.401   2.468   1.058
 4998SOL     OW15535   3.719   2.695   0.377
 4998SOL    HW115536   3.761   2.631   0.441
 4998SOL    HW215537   3.681   2.644   0.299
 4999SOL     OW15538   2.350   3.247   0.174
 4999SOL    HW115539   2.263   3.232   0.221
 4999SOL    HW215540   2.333   3.273   0.079
 5000SOL     OW15541   3.526   3.142   0.657
 5000SOL    HW115542   3.625   3.150   0.671
 5000SOL    HW215543   3.481   3.226   0.688
 5001SOL     OW15544   3.252   2.437   0.078
 5001SOL    HW115545   3.198   2.416   0.159
 5001SOL    HW215546   3.343   2.396   0.087
 5002SOL     OW15547   2.389   2.118   0.328
 5002SOL    HW115548   2.416   2.059   0.253
 5002SOL    HW215549   2.389   2.213   0.297
 5003SOL     OW15550   3.616   3.085   1.588
 5003SOL    HW115551   3.707   3.046   1.575
 5003SOL    HW215552   3.624   3.181   1.612
 5004SOL     OW15553   2.926   3.209   1.340
 5004SOL    HW115554   2.846   3.186   1.395
 5004SOL    HW215555   3.009   3.183   1.389
 5005SOL     OW15556   3.454   3.491   1.625
 5005SOL    HW115557   3.481   3.525   1.535
 5005SOL    HW215558   3.533   3.453   1.671
 5006SOL     OW15559   2.973   3.057   1.100
 5006SOL    HW115560   2.933   3.101   1.181
 5006SOL    HW215561   2.932   3.094   1.017
 5007SOL     OW15562   3.500   2.961   1.079
 5007SOL    HW115563   3.505   3.042   1.138
 5007SOL    HW215564   3.414   2.963   1.028
 5008SOL     OW15565   2.777   1.951   1.402
 5008SOL    HW115566   2.802   1.931   1.307
 5008SOL    HW215567   2.849   2.007   1.444
 5009SOL     OW15568   2.842   2.978   1.719
 5009SOL    HW115569   2.743   2.984   1.729
 5009SOL    HW215570   2.865   2.898   1.663
 5010SOL     OW15571   2.567   2.912   0.368
 5010SOL    HW115572   2.553   2.919   0.467
 5010SOL    HW215573   2.651   2.861   0.350
 5011SOL     OW15574   2.272   2.675   1.251
 5011SOL    HW115575   2.358   2.687   1.301
 5011SOL    HW215576   2.230   2.588   1.278
 5012SOL     OW15577   3.136   2.248   1.262
 5012SOL    HW115578   3.157   2.322   1.326
 5012SOL    HW215579   3.047   2.265   1.219
 5013SOL     OW15580   1.926   3.426   1.331
 5013SOL    HW115581   1.880   3.508   1.297
 5013SOL    HW215582   2.024   3.445   1.340
 5014SOL     OW15583   2.229   2.962   0.501
 5014SOL    HW115584   2.222   3.045   0.445
 5014SOL    HW215585   2.233   2.882   0.441
 5015SOL     OW15586   2.428   2.399   0.865
 5015SOL    HW115587   2.440   2.465   0.791
 5015SOL    HW215588   2.474   2.433   0.948
 5016SOL     OW15589   3.114   3.210   0.388
 5016SOL    HW115590   3.164   3.287   0.428
 5016SOL    HW215591   3.019   3.212   0.420
 5017SOL     OW15592   3.134   3.307   1.142
 5017SOL    HW115593   3.181   3.320   1.229
 5017SOL    HW215594   3.068   3.233   1.151
 5018SOL     OW15595   3.444   2.501   0.472
 5018SOL    HW115596   3.413   2.562   0.545
 5018SOL    HW215597   3.494   2.553   0.403
 5019SOL     OW15598   2.216   3.372   1.329
 5019SOL    HW115599   2.195   3.328   1.242
 5019SOL    HW215600   2.313   3.398   1.332
 5020SOL     OW15601   2.264   2.613   1.598
 5020SOL    HW115602   2.332   2.668   1.551
 5020SOL    HW215603   2.304   2.525   1.625
 5021SOL     OW15604   3.449   2.641   1.670
 5021SOL    HW115605   3.357   2.679   1.665
 5021SOL    HW215606   3.509   2.688   1.605
 5022SOL     OW15607   2.875   1.967   1.770
 5022SOL    HW115608   2.881   2.052   1.718
 5022SOL    HW215609   2.907   1.891   1.713
 5023SOL     OW15610   2.366   1.912   1.740
 5023SOL    HW115611   2.324   1.855   1.670
 5023SOL    HW215612   2.300   1.981   1.772
 5024SOL     OW15613   2.435   2.732   1.029
 5024SOL    HW115614   2.479   2.821   1.020
 5024SOL    HW215615   2.372   2.732   1.106
 5025SOL     OW15616   3.222   2.724   1.045
 5025SOL    HW115617   3.147   2.724   0.979
 5025SOL    HW215618   3.259   2.632   1.054
 5026SOL     OW15619   3.071   2.387   0.275
 5026SOL    HW115620   3.084   2.303   0.329
 5026SOL    HW215621   3.042   2.461   0.335
 5027SOL     OW15622   1.899   3.172   1.282
 5027SOL    HW115623   1.952   3.123   1.350
 5027SOL    HW215624   1.921   3.270   1.287
 5028SOL     OW15625   2.594   2.496   1.064
 5028SOL    HW115626   2.653   2.470   0.988
 5028SOL    HW215627   2.566   2.592   1.053
 5029SOL     OW15628   3.590   2.797   1.854
 5029SOL    HW115629   3.544   2.790   1.765
 5029SOL    HW215630   3.528   2.841   1.920
 5030SOL     OW15631   2.169   1.925   0.618
 5030SOL    HW115632   2.158   2.019   0.651
 5030SOL    HW215633   2.164   1.862   0.695
 5031SOL     OW15634   3.484   2.229   0.374
 5031SOL    HW115635   3.486   2.153   0.438
 5031SOL    HW215636   3.436   2.306   0.414
 5032SOL     OW15637   2.885   2.628   0.966
 5032SOL    HW115638   2.900   2.649   1.062
 5032SOL    HW215639   2.855   2.533   0.957
 5033SOL     OW15640   2.842   3.435   1.700
 5033SOL    HW115641   2.822   3.479   1.612
 5033SOL    HW215642   2.881   3.344   1.684
 5034SOL     OW15643   3.721   3.380   1.605
 5034SOL    HW115644   3.735   3.407   1.510
 5034SOL    HW215645   3.804   3.402   1.658
 5035SOL     OW15646   2.212   2.760   1.804
 5035SOL    HW115647   2.288   2.804   1.852
 5035SOL    HW215648   2.247   2.713   1.722
 5036SOL     OW15649   3.402   2.136   0.125
 5036SOL    HW115650   3.341   2.061   0.148
 5036SOL    HW215651   3.424   2.188   0.208
 5037SOL     OW15652   3.165   2.700   0.042
 5037SOL    HW115653   3.199   2.607   0.057
 5037SOL    HW215654   3.183   2.727  -0.053
 5038SOL     OW15655   2.930   3.195   0.849
 5038SOL    HW115656   2.937   3.111   0.794
 5038SOL    HW215657   2.992   3.264   0.813
 5039SOL     OW15658   2.181   2.672   0.949
 5039SOL    HW115659   2.274   2.708   0.954
 5039SOL    HW215660   2.175   2.587   1.001
 5040SOL     OW15661   2.201   2.371   1.006
 5040SOL    HW115662   2.149   2.288   0.989
 5040SOL    HW215663   2.278   2.376   0.942
 5041SOL     OW15664   3.000   2.242   1.678
 5041SOL    HW115665   2.955   2.305   1.742
 5041SOL    HW215666   3.093   2.273   1.661
 5042SOL     OW15667   3.022   2.069   1.477
 5042SOL    HW115668   3.022   2.133   1.554
 5042SOL    HW215669   3.050   2.117   1.394
 5043SOL     OW15670   1.870   3.188   0.200
 5043SOL    HW115671   1.777   3.209   0.169
 5043SOL    HW215672   1.880   3.089   0.213
 5044SOL     OW15673   1.950   3.663   0.927
 5044SOL    HW115674   1.908   3.577   0.900
 5044SOL    HW215675   2.044   3.666   0.893
 5045SOL     OW15676   2.366   3.430   0.910
 5045SOL    HW115677   2.432   3.504   0.919
 5045SOL    HW215678   2.410   3.351   0.868
 5046SOL     OW15679   2.864   2.658   1.238
 5046SOL    HW115680   2.905   2.626   1.324
 5046SOL    HW215681   2.768   2.631   1.235
 5047SOL     OW15682   1.902   2.406   1.114
 5047SOL    HW115683   1.987   2.373   1.073
 5047SOL    HW215684   1.915   2.421   1.212
 5048SOL     OW15685   2.051   2.382   1.722
 5048SOL    HW115686   2.110   2.342   1.652
 5048SOL    HW215687   1.993   2.453   1.681
 5049SOL     OW15688   3.231   2.812   1.660
 5049SOL    HW115689   3.270   2.901   1.680
 5049SOL    HW215690   3.241   2.792   1.563
 5050SOL     OW15691   2.677   2.434   0.325
 5050SOL    HW115692   2.684   2.345   0.279
 5050SOL    HW215693   2.583   2.468   0.317
 5051SOL     OW15694   3.519   2.466   1.206
 5051SOL    HW115695   3.481   2.397   1.268
 5051SOL    HW215696   3.601   2.430   1.162
 5052SOL     OW15697   2.114   3.426   1.744
 5052SOL    HW115698   2.084   3.483   1.820
 5052SOL    HW215699   2.107   3.329   1.770
 5053SOL     OW15700   2.533   2.326   1.269
 5053SOL    HW115701   2.499   2.237   1.239
 5053SOL    HW215702   2.559   2.380   1.189
 5054SOL     OW15703   2.792   3.540   1.465
 5054SOL    HW115704   2.768   3.522   1.370
 5054SOL    HW215705   2.822   3.634   1.475
 5055SOL     OW15706   2.335   2.362   0.191
 5055SOL    HW115707   2.396   2.442   0.195
 5055SOL    HW215708   2.240   2.393   0.198
 5056SOL     OW15709   2.021   2.999   1.466
 5056SOL    HW115710   2.043   2.938   1.542
 5056SOL    HW215711   2.031   2.950   1.380
 5057SOL     OW15712   3.209   2.921   1.234
 5057SOL    HW115713   3.233   2.858   1.160
 5057SOL    HW215714   3.119   2.961   1.216
 5058SOL     OW15715   3.164   2.717   0.309
 5058SOL    HW115716   3.078   2.686   0.351
 5058SOL    HW215717   3.160   2.703   0.210
 5059SOL     OW15718   3.621   3.609   1.154
 5059SOL    HW115719   3.682   3.639   1.081
 5059SOL    HW215720   3.583   3.520   1.132
 5060SOL     OW15721   3.114   3.593   1.128
 5060SOL    HW115722   3.198   3.598   1.074
 5060SOL    HW215723   3.091   3.497   1.146
 5061SOL     OW15724   1.945   3.120   1.022
 5061SOL    HW115725   1.940   3.119   1.122
 5061SOL    HW215726   1.862   3.079   0.984
 5062SOL     OW15727   2.550   3.524   1.716
 5062SOL    HW115728   2.494   3.605   1.725
 5062SOL    HW215729   2.602   3.528   1.630
 5063SOL     OW15730   2.765   1.948   0.133
 5063SOL    HW115731   2.816   1.949   0.047
 5063SOL    HW215732   2.821   1.906   0.204
 5064SOL     OW15733   3.588   1.997   0.523
 5064SOL    HW115734   3.661   1.980   0.456
 5064SOL    HW215735   3.557   1.910   0.561
 5065SOL     OW15736   3.250   3.435   0.477
 5065SOL    HW115737   3.317   3.447   0.403
 5065SOL    HW215738   3.210   3.524   0.500
 5066SOL     OW15739   1.992   3.656   1.851
 5066SOL    HW115740   1.951   3.582   1.904
 5066SOL    HW215741   2.056   3.707   1.909
 5067SOL     OW15742   3.142   2.789   0.672
 5067SOL    HW115743   3.202   2.708   0.674
 5067SOL    HW215744   3.182   2.858   0.612
 5068SOL     OW15745   2.692   3.135   1.422
 5068SOL    HW115746   2.687   3.168   1.517
 5068SOL    HW215747   2.606   3.154   1.376
 5069SOL     OW15748   2.534   3.478   0.154
 5069SOL    HW115749   2.543   3.488   0.055
 5069SOL    HW215750   2.494   3.389   0.175
 5070SOL     OW15751   3.512   3.582   1.394
 5070SOL    HW115752   3.565   3.592   1.310
 5070SOL    HW215753   3.485   3.672   1.428
 5071SOL     OW15754   3.703   2.037   0.963
 5071SOL    HW115755   3.742   1.952   0.927
 5071SOL    HW215756   3.605   2.039   0.944
 5072SOL     OW15757   3.056   3.474   0.031
 5072SOL    HW115758   3.062   3.381   0.068
 5072SOL    HW215759   2.997   3.474  -0.049
 5073SOL     OW15760   2.684   2.864   1.372
 5073SOL    HW115761   2.724   2.863   1.280
 5073SOL    HW215762   2.694   2.956   1.412
 5074SOL     OW15763   2.778   2.772   0.291
 5074SOL    HW115764   2.841   2.810   0.223
 5074SOL    HW215765   2.818   2.689   0.330
 5075SOL     OW15766   3.366   3.469   0.044
 5075SOL    HW115767   3.274   3.506   0.051
 5075SOL    HW215768   3.404   3.489  -0.046
 5076SOL     OW15769   2.234   3.150   1.490
 5076SOL    HW115770   2.221   3.243   1.456
 5076SOL    HW215771   2.150   3.098   1.477
 5077SOL     OW15772   3.476   3.154   1.289
 5077SOL    HW115773   3.536   3.157   1.369
 5077SOL    HW215774   3.401   3.218   1.302
 5078SOL     OW15775   2.901   2.960   0.696
 5078SOL    HW115776   2.831   2.913   0.750
 5078SOL    HW215777   2.960   2.892   0.653
 5079SOL     OW15778   2.876   2.098   0.971
 5079SOL    HW115779   2.868   2.062   0.878
 5079SOL    HW215780   2.874   2.022   1.036
 5080SOL     OW15781   2.452   3.349   0.491
 5080SOL    HW115782   2.494   3.291   0.421
 5080SOL    HW215783   2.408   3.428   0.447
 5081SOL     OW15784   3.571   2.247   1.381
 5081SOL    HW115785   3.644   2.316   1.385
 5081SOL    HW215786   3.599   2.172   1.322
 5082SOL     OW15787   2.117   3.210   0.290
 5082SOL    HW115788   2.021   3.211   0.263
 5082SOL    HW215789   2.129   3.263   0.374
 5083SOL     OW15790   1.967   2.875   1.726
 5083SOL    HW115791   1.890   2.842   1.780
 5083SOL    HW215792   2.052   2.845   1.768
 5084SOL     OW15793   2.534   2.065   1.489
 5084SOL    HW115794   2.624   2.049   1.449
 5084SOL    HW215795   2.542   2.070   1.588
 5085SOL     OW15796   1.937   2.207   0.033
 5085SOL    HW115797   1.845   2.179   0.004
 5085SOL    HW215798   1.968   2.284  -0.023
 5086SOL     OW15799   3.302   2.718   1.398
 5086SOL    HW115800   3.245   2.770   1.335
 5086SOL    HW215801   3.398   2.730   1.374
 5087SOL     OW15802   3.045   3.197   0.119
 5087SOL    HW115803   2.946   3.186   0.121
 5087SOL    HW215804   3.079   3.212   0.212
 5088SOL     OW15805   2.475   2.704   1.431
 5088SOL    HW115806   2.531   2.785   1.414
 5088SOL    HW215807   2.534   2.624   1.434
 5089SOL     OW15808   3.355   3.629   0.959
 5089SOL    HW115809   3.388   3.693   0.890
 5089SOL    HW215810   3.421   3.623   1.034
 5090SOL     OW15811   2.578   2.427   1.708
 5090SOL    HW115812   2.597   2.492   1.782
 5090SOL    HW215813   2.638   2.347   1.717
 5091SOL     OW15814   3.312   3.082   1.633
 5091SOL    HW115815   3.303   3.072   1.732
 5091SOL    HW215816   3.408   3.075   1.607
 5092SOL     OW15817   2.252   3.603   1.560
 5092SOL    HW115818   2.161   3.644   1.558
 5092SOL    HW215819   2.245   3.509   1.592
 5093SOL     OW15820   3.536   2.745   1.254
 5093SOL    HW115821   3.509   2.656   1.217
 5093SOL    HW215822   3.537   2.813   1.181
 5094SOL     OW15823   3.087   2.187   0.449
 5094SOL    HW115824   3.152   2.113   0.438
 5094SOL    HW215825   3.107   2.237   0.533
 5095SOL     OW15826   2.456   2.607   0.652
 5095SOL    HW115827   2.506   2.692   0.633
 5095SOL    HW215828   2.368   2.609   0.604
 5096SOL     OW15829   3.639   2.204   1.642
 5096SOL    HW115830   3.622   2.235   1.548
 5096SOL    HW215831   3.555   2.167   1.680
 5097SOL     OW15832   3.592   2.796   1.517
 5097SOL    HW115833   3.630   2.887   1.532
 5097SOL    HW215834   3.584   2.779   1.418
 5098SOL     OW15835   2.721   3.236   0.016
 5098SOL    HW115836   2.675   3.251   0.104
 5098SOL    HW215837   2.765   3.321  -0.014
 5099SOL     OW15838   2.523   3.652   0.953
 5099SOL    HW115839   2.477   3.740   0.940
 5099SOL    HW215840   2.622   3.664   0.946
 5100SOL     OW15841   2.721   2.818   0.861
 5100SOL    HW115842   2.775   2.749   0.909
 5100SOL    HW215843   2.689   2.887   0.927
 5101SOL     OW15844   2.945   2.846   0.087
 5101SOL    HW115845   2.922   2.899   0.005
 5101SOL    HW215846   3.026   2.790   0.068
 5102SOL     OW15847   3.723   3.431   0.851
 5102SOL    HW115848   3.652   3.419   0.781
 5102SOL    HW215849   3.724   3.352   0.911
 5103SOL     OW15850   2.083   3.176   1.844
 5103SOL    HW115851   2.018   3.103   1.823
 5103SOL    HW215852   2.087   3.190   1.942
 5104SOL     OW15853   1.941   3.102   0.653
 5104SOL    HW115854   1.940   3.055   0.741
 5104SOL    HW215855   2.023   3.074   0.602
 5105SOL     OW15856   2.534   3.253   1.624
 5105SOL    HW115857   2.456   3.203   1.662
 5105SOL    HW215858   2.531   3.348   1.655
 5106SOL     OW15859   3.686   2.054   1.227
 5106SOL    HW115860   3.682   1.964   1.271
 5106SOL    HW215861   3.689   2.043   1.128
 5107SOL     OW15862   2.290   2.286   0.520
 5107SOL    HW115863   2.320   2.214   0.458
 5107SOL    HW215864   2.251   2.246   0.603
 5108SOL     OW15865   3.567   3.349   1.104
 5108SOL    HW115866   3.474   3.324   1.077
 5108SOL    HW215867   3.593   3.299   1.186
 5109SOL     OW15868   2.179   2.409   1.280
 5109SOL    HW115869   2.217   2.350   1.352
 5109SOL    HW215870   2.219   2.383   1.192
 5110SOL     OW15871   2.674   3.448   0.687
 5110SOL    HW115872   2.706   3.458   0.593
 5110SOL    HW215873   2.595   3.386   0.689
 5111SOL     OW15874   3.286   2.076   1.112
 5111SOL    HW115875   3.338   2.011   1.167
 5111SOL    HW215876   3.237   2.139   1.173
 5112SOL     OW15877   2.863   1.896   1.154
 5112SOL    HW115878   2.800   1.824   1.123
 5112SOL    HW215879   2.956   1.860   1.154
 5113SOL     OW15880   2.632   3.192   0.301
 5113SOL    HW115881   2.586   3.105   0.318
 5113SOL    HW215882   2.723   3.189   0.342
 5114SOL     OW15883   2.480   3.429   1.284
 5114SOL    HW115884   2.475   3.511   1.341
 5114SOL    HW215885   2.569   3.426   1.239
 5115SOL     OW15886   3.214   1.914   0.168
 5115SOL    HW115887   3.249   1.873   0.084
 5115SOL    HW215888   3.124   1.876   0.188
 5116SOL     OW15889   3.162   2.315   0.691
 5116SOL    HW115890   3.103   2.395   0.695
 5116SOL    HW215891   3.177   2.280   0.784
 5117SOL     OW15892   3.455   2.083   0.882
 5117SOL    HW115893   3.371   2.082   0.936
 5117SOL    HW215894   3.457   2.166   0.826
 5118SOL     OW15895   1.901   2.939   0.300
 5118SOL    HW115896   2.000   2.928   0.291
 5118SOL    HW215897   1.861   2.853   0.332
 5119SOL     OW15898   2.737   3.508   0.337
 5119SOL    HW115899   2.660   3.473   0.283
 5119SOL    HW215900   2.705   3.579   0.399
 5120SOL     OW15901   2.092   2.490   1.975
 5120SOL    HW115902   1.999   2.488   2.012
 5120SOL    HW215903   2.093   2.451   1.883
 5121SOL     OW15904   1.881   2.230   2.509
 5121SOL    HW115905   1.799   2.273   2.548
 5121SOL    HW215906   1.853   2.157   2.446
 5122SOL     OW15907   2.431   3.137   3.027
 5122SOL    HW115908   2.338   3.130   2.990
 5122SOL    HW215909   2.442   3.226   3.071
 5123SOL     OW15910   3.417   3.373   2.565
 5123SOL    HW115911   3.360   3.357   2.646
 5123SOL    HW215912   3.358   3.383   2.485
 5124SOL     OW15913   2.997   2.565   2.579
 5124SOL    HW115914   3.054   2.643   2.554
 5124SOL    HW215915   2.937   2.591   2.655
 5125SOL     OW15916   3.617   2.469   2.093
 5125SOL    HW115917   3.605   2.456   1.994
 5125SOL    HW215918   3.587   2.388   2.142
 5126SOL     OW15919   2.630   3.006   2.885
 5126SOL    HW115920   2.552   3.023   2.945
 5126SOL    HW215921   2.664   3.093   2.849
 5127SOL     OW15922   2.712   2.660   3.685
 5127SOL    HW115923   2.708   2.736   3.750
 5127SOL    HW215924   2.734   2.696   3.594
 5128SOL     OW15925   2.547   2.874   2.527
 5128SOL    HW115926   2.616   2.858   2.597
 5128SOL    HW215927   2.474   2.931   2.565
 5129SOL     OW15928   2.548   3.023   3.665
 5129SOL    HW115929   2.608   3.102   3.679
 5129SOL    HW215930   2.462   3.054   3.624
 5130SOL     OW15931   2.197   3.297   2.923
 5130SOL    HW115932   2.119   3.266   2.870
 5130SOL    HW215933   2.255   3.355   2.866
 5131SOL     OW15934   3.322   3.367   3.201
 5131SOL    HW115935   3.346   3.461   3.227
 5131SOL    HW215936   3.306   3.313   3.283
 5132SOL     OW15937   2.300   2.254   3.361
 5132SOL    HW115938   2.382   2.198   3.370
 5132SOL    HW215939   2.219   2.196   3.365
 5133SOL     OW15940   3.465   2.309   2.599
 5133SOL    HW115941   3.391   2.355   2.549
 5133SOL    HW215942   3.516   2.377   2.652
 5134SOL     OW15943   2.093   3.575   2.345
 5134SOL    HW115944   2.127   3.652   2.399
 5134SOL    HW215945   2.137   3.575   2.255
 5135SOL     OW15946   2.989   3.203   3.552
 5135SOL    HW115947   3.036   3.203   3.640
 5135SOL    HW215948   2.941   3.116   3.541
 5136SOL     OW15949   2.092   3.296   2.400
 5136SOL    HW115950   2.066   3.392   2.400
 5136SOL    HW215951   2.021   3.242   2.445
 5137SOL     OW15952   2.102   2.953   2.748
 5137SOL    HW115953   2.116   2.869   2.800
 5137SOL    HW215954   2.047   3.017   2.803
 5138SOL     OW15955   2.482   3.648   3.301
 5138SOL    HW115956   2.390   3.631   3.336
 5138SOL    HW215957   2.510   3.740   3.327
 5139SOL     OW15958   2.468   2.826   1.985
 5139SOL    HW115959   2.475   2.910   1.931
 5139SOL    HW215960   2.514   2.839   2.073
 5140SOL     OW15961   3.456   1.976   3.342
 5140SOL    HW115962   3.438   2.043   3.270
 5140SOL    HW215963   3.453   2.022   3.431
 5141SOL     OW15964   1.984   2.505   2.425
 5141SOL    HW115965   1.939   2.417   2.442
 5141SOL    HW215966   1.983   2.559   2.509
 5142SOL     OW15967   3.704   3.629   2.221
 5142SOL    HW115968   3.758   3.600   2.301
 5142SOL    HW215969   3.734   3.719   2.192
 5143SOL     OW15970   1.889   3.458   1.979
 5143SOL    HW115971   1.870   3.362   2.000
 5143SOL    HW215972   1.856   3.516   2.054
 5144SOL     OW15973   3.551   2.784   2.474
 5144SOL    HW115974   3.646   2.755   2.482
 5144SOL    HW215975   3.543   2.849   2.399
 5145SOL     OW15976   3.503   2.970   2.294
 5145SOL    HW115977   3.589   2.972   2.242
 5145SOL    HW215978   3.517   3.017   2.382
 5146SOL     OW15979   1.975   2.599   3.459
 5146SOL    HW115980   2.063   2.586   3.504
 5146SOL    HW215981   1.962   2.696   3.437
 5147SOL     OW15982   2.475   3.227   2.588
 5147SOL    HW115983   2.426   3.140   2.597
 5147SOL    HW215984   2.452   3.270   2.501
 5148SOL     OW15985   3.155   3.090   3.285
 5148SOL    HW115986   3.192   3.017   3.227
 5148SOL    HW215987   3.207   3.095   3.370
 5149SOL     OW15988   2.671   1.866   2.364
 5149SOL    HW115989   2.711   1.957   2.355
 5149SOL    HW215990   2.571   1.874   2.370
 5150SOL     OW15991   2.059   2.838   3.126
 5150SOL    HW115992   2.148   2.793   3.112
 5150SOL    HW215993   1.986   2.773   3.107
 5151SOL     OW15994   3.387   2.861   2.052
 5151SOL    HW115995   3.324   2.785   2.065
 5151SOL    HW215996   3.435   2.879   2.138
 5152SOL     OW15997   3.049   3.654   3.478
 5152SOL    HW115998   3.073   3.714   3.402
 5152SOL    HW215999   3.056   3.559   3.448
 5153SOL     OW16000   3.328   3.279   2.815
 5153SOL    HW116001   3.269   3.285   2.895
 5153SOL    HW216002   3.313   3.191   2.769
 5154SOL     OW16003   3.529   3.576   2.434
 5154SOL    HW116004   3.488   3.553   2.346
 5154SOL    HW216005   3.511   3.502   2.499
 5155SOL     OW16006   2.460   2.591   2.132
 5155SOL    HW116007   2.484   2.660   2.064
 5155SOL    HW216008   2.382   2.624   2.186
 5156SOL     OW16009   3.143   2.207   2.806
 5156SOL    HW116010   3.057   2.157   2.793
 5156SOL    HW216011   3.205   2.153   2.862
 5157SOL     OW16012   3.438   3.524   2.169
 5157SOL    HW116013   3.527   3.570   2.172
 5157SOL    HW216014   3.417   3.500   2.074
 5158SOL     OW16015   2.669   2.467   3.327
 5158SOL    HW116016   2.622   2.464   3.416
 5158SOL    HW216017   2.618   2.412   3.261
 5159SOL     OW16018   3.256   2.331   3.536
 5159SOL    HW116019   3.236   2.374   3.624
 5159SOL    HW216020   3.334   2.269   3.545
 5160SOL     OW16021   2.835   2.752   3.434
 5160SOL    HW116022   2.881   2.668   3.405
 5160SOL    HW216023   2.779   2.786   3.359
 5161SOL     OW16024   2.853   2.272   3.104
 5161SOL    HW116025   2.776   2.306   3.158
 5161SOL    HW216026   2.819   2.221   3.025
 5162SOL     OW16027   2.903   2.563   2.291
 5162SOL    HW116028   2.929   2.559   2.387
 5162SOL    HW216029   2.818   2.512   2.277
 5163SOL     OW16030   1.938   2.673   2.651
 5163SOL    HW116031   2.037   2.661   2.660
 5163SOL    HW216032   1.914   2.768   2.672
 5164SOL     OW16033   1.992   3.683   3.433
 5164SOL    HW116034   1.982   3.668   3.532
 5164SOL    HW216035   1.906   3.719   3.397
 5165SOL     OW16036   2.727   2.210   2.057
 5165SOL    HW116037   2.786   2.273   2.008
 5165SOL    HW216038   2.746   2.116   2.028
 5166SOL     OW16039   3.581   2.447   3.693
 5166SOL    HW116040   3.555   2.536   3.657
 5166SOL    HW216041   3.579   2.379   3.620
 5167SOL     OW16042   3.224   3.006   2.407
 5167SOL    HW116043   3.307   2.977   2.359
 5167SOL    HW216044   3.175   3.073   2.351
 5168SOL     OW16045   2.412   2.058   2.747
 5168SOL    HW116046   2.407   2.053   2.847
 5168SOL    HW216047   2.414   2.154   2.718
 5169SOL     OW16048   2.870   3.318   2.339
 5169SOL    HW116049   2.824   3.390   2.287
 5169SOL    HW216050   2.866   3.338   2.437
 5170SOL     OW16051   2.213   3.663   2.715
 5170SOL    HW116052   2.263   3.577   2.721
 5170SOL    HW216053   2.278   3.740   2.712
 5171SOL     OW16054   3.657   2.928   2.735
 5171SOL    HW116055   3.595   2.913   2.659
 5171SOL    HW216056   3.605   2.939   2.820
 5172SOL     OW16057   3.089   3.412   3.368
 5172SOL    HW116058   3.095   3.335   3.432
 5172SOL    HW216059   3.037   3.386   3.288
 5173SOL     OW16060   2.183   2.805   2.104
 5173SOL    HW116061   2.265   2.844   2.062
 5173SOL    HW216062   2.156   2.723   2.055
 5174SOL     OW16063   3.320   2.597   2.590
 5174SOL    HW116064   3.315   2.532   2.665
 5174SOL    HW216065   3.400   2.656   2.603
 5175SOL     OW16066   2.323   3.128   3.589
 5175SOL    HW116067   2.273   3.129   3.503
 5175SOL    HW216068   2.260   3.110   3.665
 5176SOL     OW16069   2.973   3.638   2.099
 5176SOL    HW116070   2.913   3.576   2.149
 5176SOL    HW216071   3.004   3.594   2.014
 5177SOL     OW16072   3.494   3.239   1.943
 5177SOL    HW116073   3.462   3.333   1.933
 5177SOL    HW216074   3.418   3.176   1.931
 5178SOL     OW16075   2.326   3.605   2.185
 5178SOL    HW116076   2.359   3.644   2.271
 5178SOL    HW216077   2.402   3.598   2.120
 5179SOL     OW16078   3.262   1.969   2.288
 5179SOL    HW116079   3.238   1.932   2.198
 5179SOL    HW216080   3.361   1.985   2.292
 5180SOL     OW16081   2.111   3.647   3.103
 5180SOL    HW116082   2.168   3.582   3.153
 5180SOL    HW216083   2.095   3.614   3.010
 5181SOL     OW16084   2.802   3.560   2.766
 5181SOL    HW116085   2.882   3.503   2.787
 5181SOL    HW216086   2.753   3.520   2.689
 5182SOL     OW16087   2.244   2.562   2.342
 5182SOL    HW116088   2.289   2.472   2.339
 5182SOL    HW216089   2.150   2.551   2.375
 5183SOL     OW16090   3.409   2.084   3.591
 5183SOL    HW116091   3.404   2.121   3.683
 5183SOL    HW216092   3.337   2.015   3.579
 5184SOL     OW16093   2.476   1.984   1.979
 5184SOL    HW116094   2.574   1.962   1.986
 5184SOL    HW216095   2.445   1.967   1.886
 5185SOL     OW16096   2.643   2.126   3.611
 5185SOL    HW116097   2.710   2.065   3.654
 5185SOL    HW216098   2.570   2.145   3.676
 5186SOL     OW16099   2.750   3.376   3.057
 5186SOL    HW116100   2.727   3.351   2.963
 5186SOL    HW216101   2.811   3.307   3.096
 5187SOL     OW16102   3.213   2.452   3.295
 5187SOL    HW116103   3.241   2.409   3.380
 5187SOL    HW216104   3.238   2.548   3.296
 5188SOL     OW16105   2.665   3.264   2.786
 5188SOL    HW116106   2.755   3.278   2.744
 5188SOL    HW216107   2.594   3.266   2.715
 5189SOL     OW16108   2.784   2.365   2.761
 5189SOL    HW116109   2.759   2.356   2.665
 5189SOL    HW216110   2.832   2.283   2.792
 5190SOL     OW16111   2.401   1.926   2.374
 5190SOL    HW116112   2.320   1.927   2.432
 5190SOL    HW216113   2.404   2.009   2.319
 5191SOL     OW16114   3.296   3.050   1.903
 5191SOL    HW116115   3.328   2.974   1.960
 5191SOL    HW216116   3.204   3.077   1.933
 5192SOL     OW16117   2.797   2.098   2.342
 5192SOL    HW116118   2.749   2.139   2.264
 5192SOL    HW216119   2.896   2.096   2.323
 5193SOL     OW16120   2.938   2.545   3.326
 5193SOL    HW116121   2.858   2.484   3.329
 5193SOL    HW216122   3.019   2.492   3.302
 5194SOL     OW16123   3.089   3.432   2.655
 5194SOL    HW116124   3.110   3.506   2.590
 5194SOL    HW216125   3.157   3.432   2.728
 5195SOL     OW16126   2.321   3.014   2.603
 5195SOL    HW116127   2.250   2.987   2.668
 5195SOL    HW216128   2.295   2.986   2.510
 5196SOL     OW16129   3.133   3.659   2.453
 5196SOL    HW116130   3.177   3.723   2.389
 5196SOL    HW216131   3.083   3.711   2.523
 5197SOL     OW16132   2.894   2.411   1.878
 5197SOL    HW116133   2.853   2.493   1.839
 5197SOL    HW216134   2.958   2.437   1.951
 5198SOL     OW16135   1.940   2.418   3.248
 5198SOL    HW116136   2.032   2.417   3.207
 5198SOL    HW216137   1.934   2.492   3.315
 5199SOL     OW16138   2.423   2.084   3.009
 5199SOL    HW116139   2.461   2.000   3.046
 5199SOL    HW216140   2.335   2.103   3.053
 5200SOL     OW16141   2.728   2.316   2.504
 5200SOL    HW116142   2.696   2.388   2.442
 5200SOL    HW216143   2.752   2.235   2.451
 5201SOL     OW16144   2.879   1.901   2.615
 5201SOL    HW116145   2.807   1.906   2.546
 5201SOL    HW216146   2.855   1.832   2.684
 5202SOL     OW16147   3.291   3.035   2.729
 5202SOL    HW116148   3.236   2.951   2.722
 5202SOL    HW216149   3.317   3.064   2.637
 5203SOL     OW16150   3.328   2.452   2.854
 5203SOL    HW116151   3.298   2.357   2.861
 5203SOL    HW216152   3.401   2.468   2.920
 5204SOL     OW16153   3.719   2.695   2.239
 5204SOL    HW116154   3.761   2.631   2.303
 5204SOL    HW216155   3.681   2.644   2.161
 5205SOL     OW16156   2.350   3.247   2.036
 5205SOL    HW116157   2.263   3.232   2.083
 5205SOL    HW216158   2.333   3.273   1.941
 5206SOL     OW16159   3.526   3.142   2.519
 5206SOL    HW116160   3.625   3.150   2.533
 5206SOL    HW216161   3.481   3.226   2.550
 5207SOL     OW16162   3.252   2.437   1.940
 5207SOL    HW116163   3.198   2.416   2.021
 5207SOL    HW216164   3.343   2.396   1.949
 5208SOL     OW16165   2.389   2.118   2.190
 5208SOL    HW116166   2.416   2.059   2.115
 5208SOL    HW216167   2.389   2.213   2.159
 5209SOL     OW16168   3.616   3.085   3.450
 5209SOL    HW116169   3.707   3.046   3.437
 5209SOL    HW216170   3.624   3.181   3.474
 5210SOL     OW16171   2.926   3.209   3.202
 5210SOL    HW116172   2.846   3.186   3.257
 5210SOL    HW216173   3.009   3.183   3.251
 5211SOL     OW16174   3.454   3.491   3.487
 5211SOL    HW116175   3.481   3.525   3.397
 5211SOL    HW216176   3.533   3.453   3.533
 5212SOL     OW16177   2.973   3.057   2.962
 5212SOL    HW116178   2.933   3.101   3.043
 5212SOL    HW216179   2.932   3.094   2.879
 5213SOL     OW16180   3.500   2.961   2.941
 5213SOL    HW116181   3.505   3.042   3.000
 5213SOL    HW216182   3.414   2.963   2.890
 5214SOL     OW16183   2.777   1.951   3.264
 5214SOL    HW116184   2.802   1.931   3.169
 5214SOL    HW216185   2.849   2.007   3.306
 5215SOL     OW16186   2.842   2.978   3.581
 5215SOL    HW116187   2.743   2.984   3.591
 5215SOL    HW216188   2.865   2.898   3.525
 5216SOL     OW16189   2.567   2.912   2.230
 5216SOL    HW116190   2.553   2.919   2.329
 5216SOL    HW216191   2.651   2.861   2.212
 5217SOL     OW16192   2.272   2.675   3.113
 5217SOL    HW116193   2.358   2.687   3.163
 5217SOL    HW216194   2.230   2.588   3.140
 5218SOL     OW16195   3.136   2.248   3.124
 5218SOL    HW116196   3.157   2.322   3.188
 5218SOL    HW216197   3.047   2.265   3.081
 5219SOL     OW16198   1.926   3.426   3.193
 5219SOL    HW116199   1.880   3.508   3.159
 5219SOL    HW216200   2.024   3.445   3.202
 5220SOL     OW16201   2.229   2.962   2.363
 5220SOL    HW116202   2.222   3.045   2.307
 5220SOL    HW216203   2.233   2.882   2.303
 5221SOL     OW16204   2.428   2.399   2.727
 5221SOL    HW116205   2.440   2.465   2.653
 5221SOL    HW216206   2.474   2.433   2.810
 5222SOL     OW16207   3.114   3.210   2.250
 5222SOL    HW116208   3.164   3.287   2.290
 5222SOL    HW216209   3.019   3.212   2.282
 5223SOL     OW16210   3.134   3.307   3.004
 5223SOL    HW116211   3.181   3.320   3.091
 5223SOL    HW216212   3.068   3.233   3.013
 5224SOL     OW16213   3.444   2.501   2.334
 5224SOL    HW116214   3.413   2.562   2.407
 5224SOL    HW216215   3.494   2.553   2.265
 5225SOL     OW16216   2.216   3.372   3.191
 5225SOL    HW116217   2.195   3.328   3.104
 5225SOL    HW216218   2.313   3.398   3.194
 5226SOL     OW16219   2.264   2.613   3.460
 5226SOL    HW116220   2.332   2.668   3.413
 5226SOL    HW216221   2.304   2.525   3.487
 5227SOL     OW16222   3.449   2.641   3.532
 5227SOL    HW116223   3.357   2.679   3.527
 5227SOL    HW216224   3.509   2.688   3.467
 5228SOL     OW16225   2.875   1.967   3.632
 5228SOL    HW116226   2.881   2.052   3.580
 5228SOL    HW216227   2.907   1.891   3.575
 5229SOL     OW16228   2.366   1.912   3.602
 5229SOL    HW116229   2.324   1.855   3.532
 5229SOL    HW216230   2.300   1.981   3.634
 5230SOL     OW16231   2.435   2.732   2.891
 5230SOL    HW116232   2.479   2.821   2.882
 5230SOL    HW216233   2.372   2.732   2.968
 5231SOL     OW16234   3.222   2.724   2.907
 5231SOL    HW116235   3.147   2.724   2.841
 5231SOL    HW216236   3.259   2.632   2.916
 5232SOL     OW16237   3.071   2.387   2.137
 5232SOL    HW116238   3.084   2.303   2.191
 5232SOL    HW216239   3.042   2.461   2.197
 5233SOL     OW16240   1.899   3.172   3.144
 5233SOL    HW116241   1.952   3.123   3.212
 5233SOL    HW216242   1.921   3.270   3.149
 5234SOL     OW16243   2.594   2.496   2.926
 5234SOL    HW116244   2.653   2.470   2.850
 5234SOL    HW216245   2.566   2.592   2.915
 5235SOL     OW16246   3.590   2.797   3.716
 5235SOL    HW116247   3.544   2.790   3.627
 5235SOL    HW216248   3.528   2.841   3.782
 5236SOL     OW16249   2.169   1.925   2.480
 5236SOL    HW116250   2.158   2.019   2.513
 5236SOL    HW216251   2.164   1.862   2.557
 5237SOL     OW16252   3.484   2.229   2.236
 5237SOL    HW116253   3.486   2.153   2.300
 5237SOL    HW216254   3.436   2.306   2.276
 5238SOL     OW16255   2.885   2.628   2.828
 5238SOL    HW116256   2.900   2.649   2.924
 5238SOL    HW216257   2.855   2.533   2.819
 5239SOL     OW16258   2.842   3.435   3.562
 5239SOL    HW116259   2.822   3.479   3.474
 5239SOL    HW216260   2.881   3.344   3.546
 5240SOL     OW16261   3.721   3.380   3.467
 5240SOL    HW116262   3.735   3.407   3.372
 5240SOL    HW216263   3.804   3.402   3.520
 5241SOL     OW16264   2.212   2.760   3.666
 5241SOL    HW116265   2.288   2.804   3.714
 5241SOL    HW216266   2.247   2.713   3.584
 5242SOL     OW16267   3.402   2.136   1.987
 5242SOL    HW116268   3.341   2.061   2.010
 5242SOL    HW216269   3.424   2.188   2.070
 5243SOL     OW16270   3.165   2.700   1.904
 5243SOL    HW116271   3.199   2.607   1.919
 5243SOL    HW216272   3.183   2.727   1.809
 5244SOL     OW16273   2.930   3.195   2.711
 5244SOL    HW116274   2.937   3.111   2.656
 5244SOL    HW216275   2.992   3.264   2.675
 5245SOL     OW16276   2.181   2.672   2.811
 5245SOL    HW116277   2.274   2.708   2.816
 5245SOL    HW216278   2.175   2.587   2.863
 5246SOL     OW16279   2.201   2.371   2.868
 5246SOL    HW116280   2.149   2.288   2.851
 5246SOL    HW216281   2.278   2.376   2.804
 5247SOL     OW16282   3.000   2.242   3.540
 5247SOL    HW116283   2.955   2.305   3.604
 5247SOL    HW216284   3.093   2.273   3.523
 5248SOL     OW16285   3.022   2.069   3.339
 5248SOL    HW116286   3.022   2.133   3.416
 5248SOL    HW216287   3.050   2.117   3.256
 5249SOL     OW16288   1.870   3.188   2.062
 5249SOL    HW116289   1.777   3.209   2.031
 5249SOL    HW216290   1.880   3.089   2.075
 5250SOL     OW16291   1.950   3.663   2.789
 5250SOL    HW116292   1.908   3.577   2.762
 5250SOL    HW216293   2.044   3.666   2.755
 5251SOL     OW16294   2.366   3.430   2.772
 5251SOL    HW116295   2.432   3.504   2.781
 5251SOL    HW216296   2.410   3.351   2.730
 5252SOL     OW16297   2.864   2.658   3.100
 5252SOL    HW116298   2.905   2.626   3.186
 5252SOL    HW216299   2.768   2.631   3.097
 5253SOL     OW16300   1.902   2.406   2.976
 5253SOL    HW116301   1.987   2.373   2.935
 5253SOL    HW216302   1.915   2.421   3.074
 5254SOL     OW16303   2.051   2.382   3.584
 5254SOL    HW116304   2.110   2.342   3.514
 5254SOL    HW216305   1.993   2.453   3.543
 5255SOL     OW16306   3.231   2.812   3.522
 5255SOL    HW116307   3.270   2.901   3.542
 5255SOL    HW216308   3.241   2.792   3.425
 5256SOL     OW16309   2.677   2.434   2.187
 5256SOL    HW116310   2.684   2.345   2.141
 5256SOL    HW216311   2.583   2.468   2.179
 5257SOL     OW16312   3.519   2.466   3.068
 5257SOL    HW116313   3.481   2.397   3.130
 5257SOL    HW216314   3.601   2.430   3.024
 5258SOL     OW16315   2.114   3.426   3.606
 5258SOL    HW116316   2.084   3.483   3.682
 5258SOL    HW216317   2.107   3.329   3.632
 5259SOL     OW16318   2.533   2.326   3.131
 5259SOL    HW116319   2.499   2.237   3.101
 5259SOL    HW216320   2.559   2.380   3.051
 5260SOL     OW16321   2.792   3.540   3.327
 5260SOL    HW116322   2.768   3.522   3.232
 5260SOL    HW216323   2.822   3.634   3.337
 5261SOL     OW16324   2.335   2.362   2.053
 5261SOL    HW116325   2.396   2.442   2.057
 5261SOL    HW216326   2.240   2.393   2.060
 5262SOL     OW16327   2.021   2.999   3.328
 5262SOL    HW116328   2.043   2.938   3.404
 5262SOL    HW216329   2.031   2.950   3.242
 5263SOL     OW16330   3.209   2.921   3.096
 5263SOL    HW116331   3.233   2.858   3.022
 5263SOL    HW216332   3.119   2.961   3.078
 5264SOL     OW16333   3.164   2.717   2.171
 5264SOL    HW116334   3.078   2.686   2.213
 5264SOL    HW216335   3.160   2.703   2.072
 5265SOL     OW16336   3.621   3.609   3.016
 5265SOL    HW116337   3.682   3.639   2.943
 5265SOL    HW216338   3.583   3.520   2.994
 5266SOL     OW16339   3.114   3.593   2.990
 5266SOL    HW116340   3.198   3.598   2.936
 5266SOL    HW216341   3.091   3.497   3.008
 5267SOL     OW16342   1.945   3.120   2.884
 5267SOL    HW116343   1.940   3.119   2.984
 5267SOL    HW216344   1.862   3.079   2.846
 5268SOL     OW16345   2.550   3.524   3.578
 5268SOL    HW116346   2.494   3.605   3.587
 5268SOL    HW216347   2.602   3.528   3.492
 5269SOL     OW16348   3.588   1.997   2.385
 5269SOL    HW116349   3.661   1.980   2.318
 5269SOL    HW216350   3.557   1.910   2.423
 5270SOL     OW16351   3.250   3.435   2.339
 5270SOL    HW116352   3.317   3.447   2.265
 5270SOL    HW216353   3.210   3.524   2.362
 5271SOL     OW16354   1.992   3.656   3.713
 5271SOL    HW116355   1.951   3.582   3.766
 5271SOL    HW216356   2.056   3.707   3.771
 5272SOL     OW16357   3.142   2.789   2.534
 5272SOL    HW116358   3.202   2.708   2.536
 5272SOL    HW216359   3.182   2.858   2.474
 5273SOL     OW16360   2.692   3.135   3.284
 5273SOL    HW116361   2.687   3.168   3.379
 5273SOL    HW216362   2.606   3.154   3.238
 5274SOL     OW16363   2.534   3.478   2.016
 5274SOL    HW116364   2.543   3.488   1.917
 5274SOL    HW216365   2.494   3.389   2.037
 5275SOL     OW16366   3.512   3.582   3.256
 5275SOL    HW116367   3.565   3.592   3.172
 5275SOL    HW216368   3.485   3.672   3.290
 5276SOL     OW16369   3.703   2.037   2.825
 5276SOL    HW116370   3.742   1.952   2.789
 5276SOL    HW216371   3.605   2.039   2.806
 5277SOL     OW16372   3.056   3.474   1.893
 5277SOL    HW116373   3.062   3.381   1.930
 5277SOL    HW216374   2.997   3.474   1.813
 5278SOL     OW16375   2.684   2.864   3.234
 5278SOL    HW116376   2.724   2.863   3.142
 5278SOL    HW216377   2.694   2.956   3.274
 5279SOL     OW16378   2.778   2.772   2.153
 5279SOL    HW116379   2.841   2.810   2.085
 5279SOL    HW216380   2.818   2.689   2.192
 5280SOL     OW16381   3.366   3.469   1.906
 5280SOL    HW116382   3.274   3.506   1.913
 5280SOL    HW216383   3.404   3.489   1.816
 5281SOL     OW16384   2.234   3.150   3.352
 5281SOL    HW116385   2.221   3.243   3.318
 5281SOL    HW216386   2.150   3.098   3.339
 5282SOL     OW16387   3.476   3.154   3.151
 5282SOL    HW116388   3.536   3.157   3.231
 5282SOL    HW216389   3.401   3.218   3.164
 5283SOL     OW16390   2.901   2.960   2.558
 5283SOL    HW116391   2.831   2.913   2.612
 5283SOL    HW216392   2.960   2.892   2.515
 5284SOL     OW16393   2.876   2.098   2.833
 5284SOL    HW116394   2.868   2.062   2.740
 5284SOL    HW216395   2.874   2.022   2.898
 5285SOL     OW16396   2.452   3.349   2.353
 5285SOL    HW116397   2.494   3.291   2.283
 5285SOL    HW216398   2.408   3.428   2.309
 5286SOL     OW16399   3.571   2.247   3.243
 5286SOL    HW116400   3.644   2.316   3.247
 5286SOL    HW216401   3.599   2.172   3.184
 5287SOL     OW16402   2.117   3.210   2.152
 5287SOL    HW116403   2.021   3.211   2.125
 5287SOL    HW216404   2.129   3.263   2.236
 5288SOL     OW16405   1.967   2.875   3.588
 5288SOL    HW116406   1.890   2.842   3.642
 5288SOL    HW216407   2.052   2.845   3.630
 5289SOL     OW16408   2.534   2.065   3.351
 5289SOL    HW116409   2.624   2.049   3.311
 5289SOL    HW216410   2.542   2.070   3.450
 5290SOL     OW16411   1.937   2.207   1.895
 5290SOL    HW116412   1.845   2.179   1.866
 5290SOL    HW216413   1.968   2.284   1.839
 5291SOL     OW16414   3.302   2.718   3.260
 5291SOL    HW116415   3.245   2.770   3.197
 5291SOL    HW216416   3.398   2.730   3.236
 5292SOL     OW16417   3.045   3.197   1.981
 5292SOL    HW116418   2.946   3.186   1.983
 5292SOL    HW216419   3.079   3.212   2.074
 5293SOL     OW16420   2.475   2.704   3.293
 5293SOL    HW116421   2.531   2.785   3.276
 5293SOL    HW216422   2.534   2.624   3.296
 5294SOL     OW16423   3.355   3.629   2.821
 5294SOL    HW116424   3.388   3.693   2.752
 5294SOL    HW216425   3.421   3.623   2.896
 5295SOL     OW16426   2.578   2.427   3.570
 5295SOL    HW116427   2.597   2.492   3.644
 5295SOL    HW216428   2.638   2.347   3.579
 5296SOL     OW16429   3.312   3.082   3.495
 5296SOL    HW116430   3.303   3.072   3.594
 5296SOL    HW216431   3.408   3.075   3.469
 5297SOL     OW16432   2.252   3.603   3.422
 5297SOL    HW116433   2.161   3.644   3.420
 5297SOL    HW216434   2.245   3.509   3.454
 5298SOL     OW16435   3.536   2.745   3.116
 5298SOL    HW116436   3.509   2.656   3.079
 5298SOL    HW216437   3.537   2.813   3.043
 5299SOL     OW16438   3.087   2.187   2.311
 5299SOL    HW116439   3.152   2.113   2.300
 5299SOL    HW216440   3.107   2.237   2.395
 5300SOL     OW16441   2.456   2.607   2.514
 5300SOL    HW116442   2.506   2.692   2.495
 5300SOL    HW216443   2.368   2.609   2.466
 5301SOL     OW16444   3.639   2.204   3.504
 5301SOL    HW116445   3.622   2.235   3.410
 5301SOL    HW216446   3.555   2.167   3.542
 5302SOL     OW16447   3.592   2.796   3.379
 5302SOL    HW116448   3.630   2.887   3.394
 5302SOL    HW216449   3.584   2.779   3.280
 5303SOL     OW16450   2.721   3.236   1.878
 5303SOL    HW116451   2.675   3.251   1.966
 5303SOL    HW216452   2.765   3.321   1.848
 5304SOL     OW16453   2.523   3.652   2.815
 5304SOL    HW116454   2.477   3.740   2.802
 5304SOL    HW216455   2.622   3.664   2.808
 5305SOL     OW16456   2.721   2.818   2.723
 5305SOL    HW116457   2.775   2.749   2.771
 5305SOL    HW216458   2.689   2.887   2.789
 5306SOL     OW16459   2.945   2.846   1.949
 5306SOL    HW116460   2.922   2.899   1.867
 5306SOL    HW216461   3.026   2.790   1.930
 5307SOL     OW16462   3.723   3.431   2.713
 5307SOL    HW116463   3.652   3.419   2.643
 5307SOL    HW216464   3.724   3.352   2.773
 5308SOL     OW16465   2.083   3.176   3.706
 5308SOL    HW116466   2.018   3.103   3.685
 5308SOL    HW216467   2.087   3.190   3.804
 5309SOL     OW16468   1.941   3.102   2.515
 5309SOL    HW116469   1.940   3.055   2.603
 5309SOL    HW216470   2.023   3.074   2.464
 5310SOL     OW16471   2.534   3.253   3.486
 5310SOL    HW116472   2.456   3.203   3.524
 5310SOL    HW216473   2.531   3.348   3.517
 5311SOL     OW16474   3.686   2.054   3.089
 5311SOL    HW116475   3.682   1.964   3.133
 5311SOL    HW216476   3.689   2.043   2.990
 5312SOL     OW16477   2.290   2.286   2.382
 5312SOL    HW116478   2.320   2.214   2.320
 5312SOL    HW216479   2.251   2.246   2.465
 5313SOL     OW16480   3.567   3.349   2.966
 5313SOL    HW116481   3.474   3.324   2.939
 5313SOL    HW216482   3.593   3.299   3.048
 5314SOL     OW16483   2.179   2.409   3.142
 5314SOL    HW116484   2.217   2.350   3.214
 5314SOL    HW216485   2.219   2.383   3.054
 5315SOL     OW16486   2.674   3.448   2.549
 5315SOL    HW116487   2.706   3.458   2.455
 5315SOL    HW216488   2.595   3.386   2.551
 5316SOL     OW16489   3.286   2.076   2.974
 5316SOL    HW116490   3.338   2.011   3.029
 5316SOL    HW216491   3.237   2.139   3.035
 5317SOL     OW16492   2.863   1.896   3.016
 5317SOL    HW116493   2.800   1.824   2.985
 5317SOL    HW216494   2.956   1.860   3.016
 5318SOL     OW16495   2.632   3.192   2.163
 5318SOL    HW116496   2.586   3.105   2.180
 5318SOL    HW216497   2.723   3.189   2.204
 5319SOL     OW16498   2.480   3.429   3.146
 5319SOL    HW116499   2.475   3.511   3.203
 5319SOL    HW216500   2.569   3.426   3.101
 5320SOL     OW16501   3.214   1.914   2.030
 5320SOL    HW116502   3.249   1.873   1.946
 5320SOL    HW216503   3.124   1.876   2.050
 5321SOL     OW16504   3.162   2.315   2.553
 5321SOL    HW116505   3.103   2.395   2.557
 5321SOL    HW216506   3.177   2.280   2.646
 5322SOL     OW16507   3.455   2.083   2.744
 5322SOL    HW116508   3.371   2.082   2.798
 5322SOL    HW216509   3.457   2.166   2.688
 5323SOL     OW16510   1.901   2.939   2.162
 5323SOL    HW116511   2.000   2.928   2.153
 5323SOL    HW216512   1.861   2.853   2.194
 5324SOL     OW16513   2.737   3.508   2.199
 5324SOL    HW116514   2.660   3.473   2.145
 5324SOL    HW216515   2.705   3.579   2.261
 5325SOL     OW16516   2.092   2.490   3.837
 5325SOL    HW116517   1.999   2.488   3.874
 5325SOL    HW216518   2.093   2.451   3.745
 5326SOL     OW16519   1.881   2.230   4.371
 5326SOL    HW116520   1.799   2.273   4.410
 5326SOL    HW216521   1.853   2.157   4.308
 5327SOL     OW16522   2.431   3.137   4.889
 5327SOL    HW116523   2.338   3.130   4.852
 5327SOL    HW216524   2.442   3.226   4.933
 5328SOL     OW16525   3.417   3.373   4.427
 5328SOL    HW116526   3.360   3.357   4.508
 5328SOL    HW216527   3.358   3.383   4.347
 5329SOL     OW16528   2.997   2.565   4.441
 5329SOL    HW116529   3.054   2.643   4.416
 5329SOL    HW216530   2.937   2.591   4.517
 5330SOL     OW16531   3.617   2.469   3.955
 5330SOL    HW116532   3.605   2.456   3.856
 5330SOL    HW216533   3.587   2.388   4.004
 5331SOL     OW16534   2.630   3.006   4.747
 5331SOL    HW116535   2.552   3.023   4.807
 5331SOL    HW216536   2.664   3.093   4.711
 5332SOL     OW16537   2.712   2.660   5.547
 5332SOL    HW116538   2.708   2.736   5.612
 5332SOL    HW216539   2.734   2.696   5.456
 5333SOL     OW16540   2.547   2.874   4.389
 5333SOL    HW116541   2.616   2.858   4.459
 5333SOL    HW216542   2.474   2.931   4.427
 5334SOL     OW16543   2.548   3.023   5.527
 5334SOL    HW116544   2.608   3.102   5.541
 5334SOL    HW216545   2.462   3.054   5.486
 5335SOL     OW16546   2.197   3.297   4.785
 5335SOL    HW116547   2.119   3.266   4.732
 5335SOL    HW216548   2.255   3.355   4.728
 5336SOL     OW16549   3.322   3.367   5.063
 5336SOL    HW116550   3.346   3.461   5.089
 5336SOL    HW216551   3.306   3.313   5.145
 5337SOL     OW16552   2.300   2.254   5.223
 5337SOL    HW116553   2.382   2.198   5.232
 5337SOL    HW216554   2.219   2.196   5.227
 5338SOL     OW16555   3.465   2.309   4.461
 5338SOL    HW116556   3.391   2.355   4.411
 5338SOL    HW216557   3.516   2.377   4.514
 5339SOL     OW16558   2.093   3.575   4.207
 5339SOL    HW116559   2.127   3.652   4.261
 5339SOL    HW216560   2.137   3.575   4.117
 5340SOL     OW16561   2.989   3.203   5.414
 5340SOL    HW116562   3.036   3.203   5.502
 5340SOL    HW216563   2.941   3.116   5.403
 5341SOL     OW16564   2.092   3.296   4.262
 5341SOL    HW116565   2.066   3.392   4.262
 5341SOL    HW216566   2.021   3.242   4.307
 5342SOL     OW16567   2.102   2.953   4.610
 5342SOL    HW116568   2.116   2.869   4.662
 5342SOL    HW216569   2.047   3.017   4.665
 5343SOL     OW16570   2.482   3.648   5.163
 5343SOL    HW116571   2.390   3.631   5.198
 5343SOL    HW216572   2.510   3.740   5.189
 5344SOL     OW16573   2.468   2.826   3.847
 5344SOL    HW116574   2.475   2.910   3.793
 5344SOL    HW216575   2.514   2.839   3.935
 5345SOL     OW16576   3.456   1.976   5.204
 5345SOL    HW116577   3.438   2.043   5.132
 5345SOL    HW216578   3.453   2.022   5.293
 5346SOL     OW16579   1.984   2.505   4.287
 5346SOL    HW116580   1.939   2.417   4.304
 5346SOL    HW216581   1.983   2.559   4.371
 5347SOL     OW16582   3.704   3.629   4.083
 5347SOL    HW116583   3.758   3.600   4.163
 5347SOL    HW216584   3.734   3.719   4.054
 5348SOL     OW16585   1.889   3.458   3.841
 5348SOL    HW116586   1.870   3.362   3.862
 5348SOL    HW216587   1.856   3.516   3.916
 5349SOL     OW16588   3.551   2.784   4.336
 5349SOL    HW116589   3.646   2.755   4.344
 5349SOL    HW216590   3.543   2.849   4.261
 5350SOL     OW16591   3.503   2.970   4.156
 5350SOL    HW116592   3.589   2.972   4.104
 5350SOL    HW216593   3.517   3.017   4.244
 5351SOL     OW16594   1.975   2.599   5.321
 5351SOL    HW116595   2.063   2.586   5.366
 5351SOL    HW216596   1.962   2.696   5.299
 5352SOL     OW16597   2.475   3.227   4.450
 5352SOL    HW116598   2.426   3.140   4.459
 5352SOL    HW216599   2.452   3.270   4.363
 5353SOL     OW16600   3.155   3.090   5.147
 5353SOL    HW116601   3.192   3.017   5.089
 5353SOL    HW216602   3.207   3.095   5.232
 5354SOL     OW16603   2.671   1.866   4.226
 5354SOL    HW116604   2.711   1.957   4.217
 5354SOL    HW216605   2.571   1.874   4.232
 5355SOL     OW16606   2.059   2.838   4.988
 5355SOL    HW116607   2.148   2.793   4.974
 5355SOL    HW216608   1.986   2.773   4.969
 5356SOL     OW16609   3.387   2.861   3.914
 5356SOL    HW116610   3.324   2.785   3.927
 5356SOL    HW216611   3.435   2.879   4.000
 5357SOL     OW16612   3.049   3.654   5.340
 5357SOL    HW116613   3.073   3.714   5.264
 5357SOL    HW216614   3.056   3.559   5.310
 5358SOL     OW16615   3.328   3.279   4.677
 5358SOL    HW116616   3.269   3.285   4.757
 5358SOL    HW216617   3.313   3.191   4.631
 5359SOL     OW16618   3.529   3.576   4.296
 5359SOL    HW116619   3.488   3.553   4.208
 5359SOL    HW216620   3.511   3.502   4.361
 5360SOL     OW16621   2.460   2.591   3.994
 5360SOL    HW116622   2.484   2.660   3.926
 5360SOL    HW216623   2.382   2.624   4.048
 5361SOL     OW16624   3.143   2.207   4.668
 5361SOL    HW116625   3.057   2.157   4.655
 5361SOL    HW216626   3.205   2.153   4.724
 5362SOL     OW16627   3.438   3.524   4.031
 5362SOL    HW116628   3.527   3.570   4.034
 5362SOL    HW216629   3.417   3.500   3.936
 5363SOL     OW16630   2.669   2.467   5.189
 5363SOL    HW116631   2.622   2.464   5.278
 5363SOL    HW216632   2.618   2.412   5.123
 5364SOL     OW16633   3.256   2.331   5.398
 5364SOL    HW116634   3.236   2.374   5.486
 5364SOL    HW216635   3.334   2.269   5.407
 5365SOL     OW16636   2.835   2.752   5.296
 5365SOL    HW116637   2.881   2.668   5.267
 5365SOL    HW216638   2.779   2.786   5.221
 5366SOL     OW16639   2.853   2.272   4.966
 5366SOL    HW116640   2.776   2.306   5.020
 5366SOL    HW216641   2.819   2.221   4.887
 5367SOL     OW16642   2.903   2.563   4.153
 5367SOL    HW116643   2.929   2.559   4.249
 5367SOL    HW216644   2.818   2.512   4.139
 5368SOL     OW16645   1.938   2.673   4.513
 5368SOL    HW116646   2.037   2.661   4.522
 5368SOL    HW216647   1.914   2.768   4.534
 5369SOL     OW16648   1.992   3.683   5.295
 5369SOL    HW116649   1.982   3.668   5.394
 5369SOL    HW216650   1.906   3.719   5.259
 5370SOL     OW16651   2.727   2.210   3.919
 5370SOL    HW116652   2.786   2.273   3.870
 5370SOL    HW216653   2.746   2.116   3.890
 5371SOL     OW16654   3.581   2.447   5.555
 5371SOL    HW116655   3.555   2.536   5.519
 5371SOL    HW216656   3.579   2.379   5.482
 5372SOL     OW16657   3.224   3.006   4.269
 5372SOL    HW116658   3.307   2.977   4.221
 5372SOL    HW216659   3.175   3.073   4.213
 5373SOL     OW16660   2.412   2.058   4.609
 5373SOL    HW116661   2.407   2.053   4.709
 5373SOL    HW216662   2.414   2.154   4.580
 5374SOL     OW16663   2.870   3.318   4.201
 5374SOL    HW116664   2.824   3.390   4.149
 5374SOL    HW216665   2.866   3.338   4.299
 5375SOL     OW16666   2.213   3.663   4.577
 5375SOL    HW116667   2.263   3.577   4.583
 5375SOL    HW216668   2.278   3.740   4.574
 5376SOL     OW16669   3.657   2.928   4.597
 5376SOL    HW116670   3.595   2.913   4.521
 5376SOL    HW216671   3.605   2.939   4.682
 5377SOL     OW16672   3.089   3.412   5.230
 5377SOL    HW116673   3.095   3.335   5.294
 5377SOL    HW216674   3.037   3.386   5.150
 5378SOL     OW16675   2.183   2.805   3.966
 5378SOL    HW116676   2.265   2.844   3.924
 5378SOL    HW216677   2.156   2.723   3.917
 5379SOL     OW16678   3.320   2.597   4.452
 5379SOL    HW116679   3.315   2.532   4.527
 5379SOL    HW216680   3.400   2.656   4.465
 5380SOL     OW16681   2.323   3.128   5.451
 5380SOL    HW116682   2.273   3.129   5.365
 5380SOL    HW216683   2.260   3.110   5.527
 5381SOL     OW16684   2.973   3.638   3.961
 5381SOL    HW116685   2.913   3.576   4.011
 5381SOL    HW216686   3.004   3.594   3.876
 5382SOL     OW16687   3.494   3.239   3.805
 5382SOL    HW116688   3.462   3.333   3.795
 5382SOL    HW216689   3.418   3.176   3.793
 5383SOL     OW16690   2.326   3.605   4.047
 5383SOL    HW116691   2.359   3.644   4.133
 5383SOL    HW216692   2.402   3.598   3.982
 5384SOL     OW16693   3.262   1.969   4.150
 5384SOL    HW116694   3.238   1.932   4.060
 5384SOL    HW216695   3.361   1.985   4.154
 5385SOL     OW16696   2.111   3.647   4.965
 5385SOL    HW116697   2.168   3.582   5.015
 5385SOL    HW216698   2.095   3.614   4.872
 5386SOL     OW16699   2.802   3.560   4.628
 5386SOL    HW116700   2.882   3.503   4.649
 5386SOL    HW216701   2.753   3.520   4.551
 5387SOL     OW16702   2.244   2.562   4.204
 5387SOL    HW116703   2.289   2.472   4.201
 5387SOL    HW216704   2.150   2.551   4.237
 5388SOL     OW16705   3.409   2.084   5.453
 5388SOL    HW116706   3.404   2.121   5.545
 5388SOL    HW216707   3.337   2.015   5.441
 5389SOL     OW16708   2.476   1.984   3.841
 5389SOL    HW116709   2.574   1.962   3.848
 5389SOL    HW216710   2.445   1.967   3.748
 5390SOL     OW16711   2.643   2.126   5.473
 5390SOL    HW116712   2.710   2.065   5.516
 5390SOL    HW216713   2.570   2.145   5.538
 5391SOL     OW16714   2.750   3.376   4.919
 5391SOL    HW116715   2.727   3.351   4.825
 5391SOL    HW216716   2.811   3.307   4.958
 5392SOL     OW16717   3.213   2.452   5.157
 5392SOL    HW116718   3.241   2.409   5.242
 5392SOL    HW216719   3.238   2.548   5.158
 5393SOL     OW16720   2.665   3.264   4.648
 5393SOL    HW116721   2.755   3.278   4.606
 5393SOL    HW216722   2.594   3.266   4.577
 5394SOL     OW16723   2.784   2.365   4.623
 5394SOL    HW116724   2.759   2.356   4.527
 5394SOL    HW216725   2.832   2.283   4.654
 5395SOL     OW16726   2.401   1.926   4.236
 5395SOL    HW116727   2.320   1.927   4.294
 5395SOL    HW216728   2.404   2.009   4.181
 5396SOL     OW16729   3.296   3.050   3.765
 5396SOL    HW116730   3.328   2.974   3.822
 5396SOL    HW216731   3.204   3.077   3.795
 5397SOL     OW16732   2.797   2.098   4.204
 5397SOL    HW116733   2.749   2.139   4.126
 5397SOL    HW216734   2.896   2.096   4.185
 5398SOL     OW16735   2.938   2.545   5.188
 5398SOL    HW116736   2.858   2.484   5.191
 5398SOL    HW216737   3.019   2.492   5.164
 5399SOL     OW16738   3.089   3.432   4.517
 5399SOL    HW116739   3.110   3.506   4.452
 5399SOL    HW216740   3.157   3.432   4.590
 5400SOL     OW16741   2.321   3.014   4.465
 5400SOL    HW116742   2.250   2.987   4.530
 5400SOL    HW216743   2.295   2.986   4.372
 5401SOL     OW16744   3.133   3.659   4.315
 5401SOL    HW116745   3.177   3.723   4.251
 5401SOL    HW216746   3.083   3.711   4.385
 5402SOL     OW16747   2.894   2.411   3.740
 5402SOL    HW116748   2.853   2.493   3.701
 5402SOL    HW216749   2.958   2.437   3.813
 5403SOL     OW16750   1.940   2.418   5.110
 5403SOL    HW116751   2.032   2.417   5.069
 5403SOL    HW216752   1.934   2.492   5.177
 5404SOL     OW16753   2.423   2.084   4.871
 5404SOL    HW116754   2.461   2.000   4.908
 5404SOL    HW216755   2.335   2.103   4.915
 5405SOL     OW16756   2.728   2.316   4.366
 5405SOL    HW116757   2.696   2.388   4.304
 5405SOL    HW216758   2.752   2.235   4.313
 5406SOL     OW16759   2.879   1.901   4.477
 5406SOL    HW116760   2.807   1.906   4.408
 5406SOL    HW216761   2.855   1.832   4.546
 5407SOL     OW16762   3.291   3.035   4.591
 5407SOL    HW116763   3.236   2.951   4.584
 5407SOL    HW216764   3.317   3.064   4.499
 5408SOL     OW16765   3.328   2.452   4.716
 5408SOL    HW116766   3.298   2.357   4.723
 5408SOL    HW216767   3.401   2.468   4.782
 5409SOL     OW16768   3.719   2.695   4.101
 5409SOL    HW116769   3.761   2.631   4.165
 5409SOL    HW216770   3.681   2.644   4.023
 5410SOL     OW16771   2.350   3.247   3.898
 5410SOL    HW116772   2.263   3.232   3.945
 5410SOL    HW216773   2.333   3.273   3.803
 5411SOL     OW16774   3.526   3.142   4.381
 5411SOL    HW116775   3.625   3.150   4.395
 5411SOL    HW216776   3.481   3.226   4.412
 5412SOL     OW16777   3.252   2.437   3.802
 5412SOL    HW116778   3.198   2.416   3.883
 5412SOL    HW216779   3.343   2.396   3.811
 5413SOL     OW16780   2.389   2.118   4.052
 5413SOL    HW116781   2.416   2.059   3.977
 5413SOL    HW216782   2.389   2.213   4.021
 5414SOL     OW16783   3.616   3.085   5.312
 5414SOL    HW116784   3.707   3.046   5.299
 5414SOL    HW216785   3.624   3.181   5.336
 5415SOL     OW16786   2.926   3.209   5.064
 5415SOL    HW116787   2.846   3.186   5.119
 5415SOL    HW216788   3.009   3.183   5.113
 5416SOL     OW16789   3.454   3.491   5.349
 5416SOL    HW116790   3.481   3.525   5.259
 5416SOL    HW216791   3.533   3.453   5.395
 5417SOL     OW16792   2.973   3.057   4.824
 5417SOL    HW116793   2.933   3.101   4.905
 5417SOL    HW216794   2.932   3.094   4.741
 5418SOL     OW16795   3.500   2.961   4.803
 5418SOL    HW116796   3.505   3.042   4.862
 5418SOL    HW216797   3.414   2.963   4.752
 5419SOL     OW16798   2.777   1.951   5.126
 5419SOL    HW116799   2.802   1.931   5.031
 5419SOL    HW216800   2.849   2.007   5.168
 5420SOL     OW16801   2.842   2.978   5.443
 5420SOL    HW116802   2.743   2.984   5.453
 5420SOL    HW216803   2.865   2.898   5.387
 5421SOL     OW16804   2.567   2.912   4.092
 5421SOL    HW116805   2.553   2.919   4.191
 5421SOL    HW216806   2.651   2.861   4.074
 5422SOL     OW16807   2.272   2.675   4.975
 5422SOL    HW116808   2.358   2.687   5.025
 5422SOL    HW216809   2.230   2.588   5.002
 5423SOL     OW16810   3.136   2.248   4.986
 5423SOL    HW116811   3.157   2.322   5.050
 5423SOL    HW216812   3.047   2.265   4.943
 5424SOL     OW16813   1.926   3.426   5.055
 5424SOL    HW116814   1.880   3.508   5.021
 5424SOL    HW216815   2.024   3.445   5.064
 5425SOL     OW16816   2.229   2.962   4.225
 5425SOL    HW116817   2.222   3.045   4.169
 5425SOL    HW216818   2.233   2.882   4.165
 5426SOL     OW16819   2.428   2.399   4.589
 5426SOL    HW116820   2.440   2.465   4.515
 5426SOL    HW216821   2.474   2.433   4.672
 5427SOL     OW16822   3.114   3.210   4.112
 5427SOL    HW116823   3.164   3.287   4.152
 5427SOL    HW216824   3.019   3.212   4.144
 5428SOL     OW16825   3.134   3.307   4.866
 5428SOL    HW116826   3.181   3.320   4.953
 5428SOL    HW216827   3.068   3.233   4.875
 5429SOL     OW16828   3.444   2.501   4.196
 5429SOL    HW116829   3.413   2.562   4.269
 5429SOL    HW216830   3.494   2.553   4.127
 5430SOL     OW16831   2.216   3.372   5.053
 5430SOL    HW116832   2.195   3.328   4.966
 5430SOL    HW216833   2.313   3.398   5.056
 5431SOL     OW16834   2.264   2.613   5.322
 5431SOL    HW116835   2.332   2.668   5.275
 5431SOL    HW216836   2.304   2.525   5.349
 5432SOL     OW16837   3.449   2.641   5.394
 5432SOL    HW116838   3.357   2.679   5.389
 5432SOL    HW216839   3.509   2.688   5.329
 5433SOL     OW16840   2.875   1.967   5.494
 5433SOL    HW116841   2.881   2.052   5.442
 5433SOL    HW216842   2.907   1.891   5.437
 5434SOL     OW16843   2.366   1.912   5.464
 5434SOL    HW116844   2.324   1.855   5.394
 5434SOL    HW216845   2.300   1.981   5.496
 5435SOL     OW16846   2.435   2.732   4.753
 5435SOL    HW116847   2.479   2.821   4.744
 5435SOL    HW216848   2.372   2.732   4.830
 5436SOL     OW16849   3.222   2.724   4.769
 5436SOL    HW116850   3.147   2.724   4.703
 5436SOL    HW216851   3.259   2.632   4.778
 5437SOL     OW16852   3.071   2.387   3.999
 5437SOL    HW116853   3.084   2.303   4.053
 5437SOL    HW216854   3.042   2.461   4.059
 5438SOL     OW16855   1.899   3.172   5.006
 5438SOL    HW116856   1.952   3.123   5.074
 5438SOL    HW216857   1.921   3.270   5.011
 5439SOL     OW16858   2.594   2.496   4.788
 5439SOL    HW116859   2.653   2.470   4.712
 5439SOL    HW216860   2.566   2.592   4.777
 5440SOL     OW16861   3.590   2.797   5.578
 5440SOL    HW116862   3.544   2.790   5.489
 5440SOL    HW216863   3.528   2.841   5.644
 5441SOL     OW16864   2.169   1.925   4.342
 5441SOL    HW116865   2.158   2.019   4.375
 5441SOL    HW216866   2.164   1.862   4.419
 5442SOL     OW16867   3.484   2.229   4.098
 5442SOL    HW116868   3.486   2.153   4.162
 5442SOL    HW216869   3.436   2.306   4.138
 5443SOL     OW16870   2.885   2.628   4.690
 5443SOL    HW116871   2.900   2.649   4.786
 5443SOL    HW216872   2.855   2.533   4.681
 5444SOL     OW16873   2.842   3.435   5.424
 5444SOL    HW116874   2.822   3.479   5.336
 5444SOL    HW216875   2.881   3.344   5.408
 5445SOL     OW16876   3.721   3.380   5.329
 5445SOL    HW116877   3.735   3.407   5.234
 5445SOL    HW216878   3.804   3.402   5.382
 5446SOL     OW16879   2.212   2.760   5.528
 5446SOL    HW116880   2.288   2.804   5.576
 5446SOL    HW216881   2.247   2.713   5.446
 5447SOL     OW16882   3.402   2.136   3.849
 5447SOL    HW116883   3.341   2.061   3.872
 5447SOL    HW216884   3.424   2.188   3.932
 5448SOL     OW16885   3.165   2.700   3.766
 5448SOL    HW116886   3.199   2.607   3.781
 5448SOL    HW216887   3.183   2.727   3.671
 5449SOL     OW16888   2.930   3.195   4.573
 5449SOL    HW116889   2.937   3.111   4.518
 5449SOL    HW216890   2.992   3.264   4.537
 5450SOL     OW16891   2.181   2.672   4.673
 5450SOL    HW116892   2.274   2.708   4.678
 5450SOL    HW216893   2.175   2.587   4.725
 5451SOL     OW16894   2.201   2.371   4.730
 5451SOL    HW116895   2.149   2.288   4.713
 5451SOL    HW216896   2.278   2.376   4.666
 5452SOL     OW16897   3.000   2.242   5.402
 5452SOL    HW116898   2.955   2.305   5.466
 5452SOL    HW216899   3.093   2.273   5.385
 5453SOL     OW16900   3.022   2.069   5.201
 5453SOL    HW116901   3.022   2.133   5.278
 5453SOL    HW216902   3.050   2.117   5.118
 5454SOL     OW16903   1.870   3.188   3.924
 5454SOL    HW116904   1.777   3.209   3.893
 5454SOL    HW216905   1.880   3.089   3.937
 5455SOL     OW16906   1.950   3.663   4.651
 5455SOL    HW116907   1.908   3.577   4.624
 5455SOL    HW216908   2.044   3.666   4.617
 5456SOL     OW16909   2.366   3.430   4.634
 5456SOL    HW116910   2.432   3.504   4.643
 5456SOL    HW216911   2.410   3.351   4.592
 5457SOL     OW16912   2.864   2.658   4.962
 5457SOL    HW116913   2.905   2.626   5.048
 5457SOL    HW216914   2.768   2.631   4.959
 5458SOL     OW16915   1.902   2.406   4.838
 5458SOL    HW116916   1.987   2.373   4.797
 5458SOL    HW216917   1.915   2.421   4.936
 5459SOL     OW16918   2.051   2.382   5.446
 5459SOL    HW116919   2.110   2.342   5.376
 5459SOL    HW216920   1.993   2.453   5.405
 5460SOL     OW16921   3.231   2.812   5.384
 5460SOL    HW116922   3.270   2.901   5.404
 5460SOL    HW216923   3.241   2.792   5.287
 5461SOL     OW16924   2.677   2.434   4.049
 5461SOL    HW116925   2.684   2.345   4.003
 5461SOL    HW216926   2.583   2.468   4.041
 5462SOL     OW16927   3.519   2.466   4.930
 5462SOL    HW116928   3.481   2.397   4.992
 5462SOL    HW216929   3.601   2.430   4.886
 5463SOL     OW16930   2.114   3.426   5.468
 5463SOL    HW116931   2.084   3.483   5.544
 5463SOL    HW216932   2.107   3.329   5.494
 5464SOL     OW16933   2.533   2.326   4.993
 5464SOL    HW116934   2.499   2.237   4.963
 5464SOL    HW216935   2.559   2.380   4.913
 5465SOL     OW16936   2.792   3.540   5.189
 5465SOL    HW116937   2.768   3.522   5.094
 5465SOL    HW216938   2.822   3.634   5.199
 5466SOL     OW16939   2.335   2.362   3.915
 5466SOL    HW116940   2.396   2.442   3.919
 5466SOL    HW216941   2.240   2.393   3.922
 5467SOL     OW16942   2.021   2.999   5.190
 5467SOL    HW116943   2.043   2.938   5.266
 5467SOL    HW216944   2.031   2.950   5.104
 5468SOL     OW16945   3.209   2.921   4.958
 5468SOL    HW116946   3.233   2.858   4.884
 5468SOL    HW216947   3.119   2.961   4.940
 5469SOL     OW16948   3.164   2.717   4.033
 5469SOL    HW116949   3.078   2.686   4.075
 5469SOL    HW216950   3.160   2.703   3.934
 5470SOL     OW16951   3.621   3.609   4.878
 5470SOL    HW116952   3.682   3.639   4.805
 5470SOL    HW216953   3.583   3.520   4.856
 5471SOL     OW16954   3.114   3.593   4.852
 5471SOL    HW116955   3.198   3.598   4.798
 5471SOL    HW216956   3.091   3.497   4.870
 5472SOL     OW16957   1.945   3.120   4.746
 5472SOL    HW116958   1.940   3.119   4.846
 5472SOL    HW216959   1.862   3.079   4.708
 5473SOL     OW16960   2.550   3.524   5.440
 5473SOL    HW116961   2.494   3.605   5.449
 5473SOL    HW216962   2.602   3.528   5.354
 5474SOL     OW16963   3.588   1.997   4.247
 5474SOL    HW116964   3.661   1.980   4.180
 5474SOL    HW216965   3.557   1.910   4.285
 5475SOL     OW16966   3.250   3.435   4.201
 5475SOL    HW116967   3.317   3.447   4.127
 5475SOL    HW216968   3.210   3.524   4.224
 5476SOL     OW16969   1.992   3.656   5.575
 5476SOL    HW116970   1.951   3.582   5.628
 5476SOL    HW216971   2.056   3.707   5.633
 5477SOL     OW16972   3.142   2.789   4.396
 5477SOL    HW116973   3.202   2.708   4.398
 5477SOL    HW216974   3.182   2.858   4.336
 5478SOL     OW16975   2.692   3.135   5.146
 5478SOL    HW116976   2.687   3.168   5.241
 5478SOL    HW216977   2.606   3.154   5.100
 5479SOL     OW16978   2.534   3.478   3.878
 5479SOL    HW116979   2.543   3.488   3.779
 5479SOL    HW216980   2.494   3.389   3.899
 5480SOL     OW16981   3.512   3.582   5.118
 5480SOL    HW116982   3.565   3.592   5.034
 5480SOL    HW216983   3.485   3.672   5.152
 5481SOL     OW16984   3.703   2.037   4.687
 5481SOL    HW116985   3.742   1.952   4.651
 5481SOL    HW216986   3.605   2.039   4.668
 5482SOL     OW16987   3.056   3.474   3.755
 5482SOL    HW116988   3.062   3.381   3.792
 5482SOL    HW216989   2.997   3.474   3.675
 5483SOL     OW16990   2.684   2.864   5.096
 5483SOL    HW116991   2.724   2.863   5.004
 5483SOL    HW216992   2.694   2.956   5.136
 5484SOL     OW16993   2.778   2.772   4.015
 5484SOL    HW116994   2.841   2.810   3.947
 5484SOL    HW216995   2.818   2.689   4.054
 5485SOL     OW16996   3.366   3.469   3.768
 5485SOL    HW116997   3.274   3.506   3.775
 5485SOL    HW216998   3.404   3.489   3.678
 5486SOL     OW16999   2.234   3.150   5.214
 5486SOL    HW117000   2.221   3.243   5.180
 5486SOL    HW217001   2.150   3.098   5.201
 5487SOL     OW17002   3.476   3.154   5.013
 5487SOL    HW117003   3.536   3.157   5.093
 5487SOL    HW217004   3.401   3.218   5.026
 5488SOL     OW17005   2.901   2.960   4.420
 5488SOL    HW117006   2.831   2.913   4.474
 5488SOL    HW217007   2.960   2.892   4.377
 5489SOL     OW17008   2.876   2.098   4.695
 5489SOL    HW117009   2.868   2.062   4.602
 5489SOL    HW217010   2.874   2.022   4.760
 5490SOL     OW17011   2.452   3.349   4.215
 5490SOL    HW117012   2.494   3.291   4.145
 5490SOL    HW217013   2.408   3.428   4.171
 5491SOL     OW17014   3.571   2.247   5.105
 5491SOL    HW117015   3.644   2.316   5.109
 5491SOL    HW217016   3.599   2.172   5.046
 5492SOL     OW17017   2.117   3.210   4.014
 5492SOL    HW117018   2.021   3.211   3.987
 5492SOL    HW217019   2.129   3.263   4.098
 5493SOL     OW17020   1.967   2.875   5.450
 5493SOL    HW117021   1.890   2.842   5.504
 5493SOL    HW217022   2.052   2.845   5.492
 5494SOL     OW17023   2.534   2.065   5.213
 5494SOL    HW117024   2.624   2.049   5.173
 5494SOL    HW217025   2.542   2.070   5.312
 5495SOL     OW17026   1.937   2.207   3.757
 5495SOL    HW117027   1.845   2.179   3.728
 5495SOL    HW217028   1.968   2.284   3.701
 5496SOL     OW17029   3.302   2.718   5.122
 5496SOL    HW117030   3.245   2.770   5.059
 5496SOL    HW217031   3.398   2.730   5.098
 5497SOL     OW17032   3.045   3.197   3.843
 5497SOL    HW117033   2.946   3.186   3.845
 5497SOL    HW217034   3.079   3.212   3.936
 5498SOL     OW17035   2.475   2.704   5.155
 5498SOL    HW117036   2.531   2.785   5.138
 5498SOL    HW217037   2.534   2.624   5.158
 5499SOL     OW17038   3.355   3.629   4.683
 5499SOL    HW117039   3.388   3.693   4.614
 5499SOL    HW217040   3.421   3.623   4.758
 5500SOL     OW17041   2.578   2.427   5.432
 5500SOL    HW117042   2.597   2.492   5.506
 5500SOL    HW217043   2.638   2.347   5.441
 5501SOL     OW17044   3.312   3.082   5.357
 5501SOL    HW117045   3.303   3.072   5.456
 5501SOL    HW217046   3.408   3.075   5.331
 5502SOL     OW17047   2.252   3.603   5.284
 5502SOL    HW117048   2.161   3.644   5.282
 5502SOL    HW217049   2.245   3.509   5.316
 5503SOL     OW17050   3.536   2.745   4.978
 5503SOL    HW117051   3.509   2.656   4.941
 5503SOL    HW217052   3.537   2.813   4.905
 5504SOL     OW17053   3.087   2.187   4.173
 5504SOL    HW117054   3.152   2.113   4.162
 5504SOL    HW217055   3.107   2.237   4.257
 5505SOL     OW17056   2.456   2.607   4.376
 5505SOL    HW117057   2.506   2.692   4.357
 5505SOL    HW217058   2.368   2.609   4.328
 5506SOL     OW17059   3.639   2.204   5.366
 5506SOL    HW117060   3.622   2.235   5.272
 5506SOL    HW217061   3.555   2.167   5.404
 5507SOL     OW17062   3.592   2.796   5.241
 5507SOL    HW117063   3.630   2.887   5.256
 5507SOL    HW217064   3.584   2.779   5.142
 5508SOL     OW17065   2.721   3.236   3.740
 5508SOL    HW117066   2.675   3.251   3.828
 5508SOL    HW217067   2.765   3.321   3.710
 5509SOL     OW17068   2.523   3.652   4.677
 5509SOL    HW117069   2.477   3.740   4.664
 5509SOL    HW217070   2.622   3.664   4.670
 5510SOL     OW17071   2.721   2.818   4.585
 5510SOL    HW117072   2.775   2.749   4.633
 5510SOL    HW217073   2.689   2.887   4.651
 5511SOL     OW17074   2.945   2.846   3.811
 5511SOL    HW117075   2.922   2.899   3.729
 5511SOL    HW217076   3.026   2.790   3.792
 5512SOL     OW17077   3.723   3.431   4.575
 5512SOL    HW117078   3.652   3.419   4.505
 5512SOL    HW217079   3.724   3.352   4.635
 5513SOL     OW17080   2.083   3.176   5.568
 5513SOL    HW117081   2.018   3.103   5.547
 5513SOL    HW217082   2.087   3.190   5.666
 5514SOL     OW17083   1.941   3.102   4.377
 5514SOL    HW117084   1.940   3.055   4.465
 5514SOL    HW217085   2.023   3.074   4.326
 5515SOL     OW17086   2.534   3.253   5.348
 5515SOL    HW117087   2.456   3.203   5.386
 5515SOL    HW217088   2.531   3.348   5.379
 5516SOL     OW17089   3.686   2.054   4.951
 5516SOL    HW117090   3.682   1.964   4.995
 5516SOL    HW217091   3.689   2.043   4.852
 5517SOL     OW17092   2.290   2.286   4.244
 5517SOL    HW117093   2.320   2.214   4.182
 5517SOL    HW217094   2.251   2.246   4.327
 5518SOL     OW17095   3.567   3.349   4.828
 5518SOL    HW117096   3.474   3.324   4.801
 5518SOL    HW217097   3.593   3.299   4.910
 5519SOL     OW17098   2.179   2.409   5.004
 5519SOL    HW117099   2.217   2.350   5.076
 5519SOL    HW217100   2.219   2.383   4.916
 5520SOL     OW17101   2.674   3.448   4.411
 5520SOL    HW117102   2.706   3.458   4.317
 5520SOL    HW217103   2.595   3.386   4.413
 5521SOL     OW17104   3.286   2.076   4.836
 5521SOL    HW117105   3.338   2.011   4.891
 5521SOL    HW217106   3.237   2.139   4.897
 5522SOL     OW17107   2.863   1.896   4.878
 5522SOL    HW117108   2.800   1.824   4.847
 5522SOL    HW217109   2.956   1.860   4.878
 5523SOL     OW17110   2.632   3.192   4.025
 5523SOL    HW117111   2.586   3.105   4.042
 5523SOL    HW217112   2.723   3.189   4.066
 5524SOL     OW17113   2.480   3.429   5.008
 5524SOL    HW117114   2.475   3.511   5.065
 5524SOL    HW217115   2.569   3.426   4.963
 5525SOL     OW17116   3.214   1.914   3.892
 5525SOL    HW117117   3.249   1.873   3.808
 5525SOL    HW217118   3.124   1.876   3.912
 5526SOL     OW17119   3.162   2.315   4.415
 5526SOL    HW117120   3.103   2.395   4.419
 5526SOL    HW217121   3.177   2.280   4.508
 5527SOL     OW17122   3.455   2.083   4.606
 5527SOL    HW117123   3.371   2.082   4.660
 5527SOL    HW217124   3.457   2.166   4.550
 5528SOL     OW17125   1.901   2.939   4.024
 5528SOL    HW117126   2.000   2.928   4.015
 5528SOL    HW217127   1.861   2.853   4.056
 5529SOL     OW17128   2.737   3.508   4.061
 5529SOL    HW117129   2.660   3.473   4.007
 5529SOL    HW217130   2.705   3.579   4.123
 5530SOL     OW17131   2.092   2.490   5.699
 5530SOL    HW117132   1.999   2.488   5.736
 5530SOL    HW217133   2.093   2.451   5.607
 5531SOL     OW17134   1.881   2.230   6.233
 5531SOL    HW117135   1.799   2.273   6.272
 5531SOL    HW217136   1.853   2.157   6.170
 5532SOL     OW17137   2.431   3.137   6.751
 5532SOL    HW117138   2.338   3.130   6.714
 5532SOL    HW217139   2.442   3.226   6.795
 5533SOL     OW17140   3.417   3.373   6.289
 5533SOL    HW117141   3.360   3.357   6.370
 5533SOL    HW217142   3.358   3.383   6.209
 5534SOL     OW17143   2.997   2.565   6.303
 5534SOL    HW117144   3.054   2.643   6.278
 5534SOL    HW217145   2.937   2.591   6.379
 5535SOL     OW17146   3.617   2.469   5.817
 5535SOL    HW117147   3.605   2.456   5.718
 5535SOL    HW217148   3.587   2.388   5.866
 5536SOL     OW17149   2.630   3.006   6.609
 5536SOL    HW117150   2.552   3.023   6.669
 5536SOL    HW217151   2.664   3.093   6.573
 5537SOL     OW17152   2.712   2.660   7.409
 5537SOL    HW117153   2.708   2.736   7.474
 5537SOL    HW217154   2.734   2.696   7.318
 5538SOL     OW17155   2.547   2.874   6.251
 5538SOL    HW117156   2.616   2.858   6.321
 5538SOL    HW217157   2.474   2.931   6.289
 5539SOL     OW17158   2.548   3.023   7.389
 5539SOL    HW117159   2.608   3.102   7.403
 5539SOL    HW217160   2.462   3.054   7.348
 5540SOL     OW17161   2.197   3.297   6.647
 5540SOL    HW117162   2.119   3.266   6.594
 5540SOL    HW217163   2.255   3.355   6.590
 5541SOL     OW17164   3.322   3.367   6.925
 5541SOL    HW117165   3.346   3.461   6.951
 5541SOL    HW217166   3.306   3.313   7.007
 5542SOL     OW17167   2.300   2.254   7.085
 5542SOL    HW117168   2.382   2.198   7.094
 5542SOL    HW217169   2.219   2.196   7.089
 5543SOL     OW17170   3.465   2.309   6.323
 5543SOL    HW117171   3.391   2.355   6.273
 5543SOL    HW217172   3.516   2.377   6.376
 5544SOL     OW17173   2.093   3.575   6.069
 5544SOL    HW117174   2.127   3.652   6.123
 5544SOL    HW217175   2.137   3.575   5.979
 5545SOL     OW17176   2.989   3.203   7.276
 5545SOL    HW117177   3.036   3.203   7.364
 5545SOL    HW217178   2.941   3.116   7.265
 5546SOL     OW17179   2.092   3.296   6.124
 5546SOL    HW117180   2.066   3.392   6.124
 5546SOL    HW217181   2.021   3.242   6.169
 5547SOL     OW17182   2.482   3.648   7.025
 5547SOL    HW117183   2.390   3.631   7.060
 5547SOL    HW217184   2.510   3.740   7.051
 5548SOL     OW17185   2.468   2.826   5.709
 5548SOL    HW117186   2.475   2.910   5.655
 5548SOL    HW217187   2.514   2.839   5.797
 5549SOL     OW17188   3.456   1.976   7.066
 5549SOL    HW117189   3.438   2.043   6.994
 5549SOL    HW217190   3.453   2.022   7.155
 5550SOL     OW17191   1.984   2.505   6.149
 5550SOL    HW117192   1.939   2.417   6.166
 5550SOL    HW217193   1.983   2.559   6.233
 5551SOL     OW17194   3.704   3.629   5.945
 5551SOL    HW117195   3.758   3.600   6.025
 5551SOL    HW217196   3.734   3.719   5.916
 5552SOL     OW17197   1.889   3.458   5.703
 5552SOL    HW117198   1.870   3.362   5.724
 5552SOL    HW217199   1.856   3.516   5.778
 5553SOL     OW17200   3.551   2.784   6.198
 5553SOL    HW117201   3.646   2.755   6.206
 5553SOL    HW217202   3.543   2.849   6.123
 5554SOL     OW17203   3.503   2.970   6.018
 5554SOL    HW117204   3.589   2.972   5.966
 5554SOL    HW217205   3.517   3.017   6.106
 5555SOL     OW17206   2.475   3.227   6.312
 5555SOL    HW117207   2.426   3.140   6.321
 5555SOL    HW217208   2.452   3.270   6.225
 5556SOL     OW17209   3.155   3.090   7.009
 5556SOL    HW117210   3.192   3.017   6.951
 5556SOL    HW217211   3.207   3.095   7.094
 5557SOL     OW17212   2.059   2.838   6.850
 5557SOL    HW117213   2.148   2.793   6.836
 5557SOL    HW217214   1.986   2.773   6.831
 5558SOL     OW17215   3.387   2.861   5.776
 5558SOL    HW117216   3.324   2.785   5.789
 5558SOL    HW217217   3.435   2.879   5.862
 5559SOL     OW17218   3.049   3.654   7.202
 5559SOL    HW117219   3.073   3.714   7.126
 5559SOL    HW217220   3.056   3.559   7.172
 5560SOL     OW17221   3.328   3.279   6.539
 5560SOL    HW117222   3.269   3.285   6.619
 5560SOL    HW217223   3.313   3.191   6.493
 5561SOL     OW17224   3.529   3.576   6.158
 5561SOL    HW117225   3.488   3.553   6.070
 5561SOL    HW217226   3.511   3.502   6.223
 5562SOL     OW17227   2.460   2.591   5.856
 5562SOL    HW117228   2.484   2.660   5.788
 5562SOL    HW217229   2.382   2.624   5.910
 5563SOL     OW17230   3.143   2.207   6.530
 5563SOL    HW117231   3.057   2.157   6.517
 5563SOL    HW217232   3.205   2.153   6.586
 5564SOL     OW17233   3.438   3.524   5.893
 5564SOL    HW117234   3.527   3.570   5.896
 5564SOL    HW217235   3.417   3.500   5.798
 5565SOL     OW17236   3.256   2.331   7.260
 5565SOL    HW117237   3.236   2.374   7.348
 5565SOL    HW217238   3.334   2.269   7.269
 5566SOL     OW17239   2.835   2.752   7.158
 5566SOL    HW117240   2.881   2.668   7.129
 5566SOL    HW217241   2.779   2.786   7.083
 5567SOL     OW17242   2.853   2.272   6.828
 5567SOL    HW117243   2.776   2.306   6.882
 5567SOL    HW217244   2.819   2.221   6.749
 5568SOL     OW17245   2.903   2.563   6.015
 5568SOL    HW117246   2.929   2.559   6.111
 5568SOL    HW217247   2.818   2.512   6.001
 5569SOL     OW17248   1.992   3.683   7.157
 5569SOL    HW117249   1.982   3.668   7.256
 5569SOL    HW217250   1.906   3.719   7.121
 5570SOL     OW17251   2.727   2.210   5.781
 5570SOL    HW117252   2.786   2.273   5.732
 5570SOL    HW217253   2.746   2.116   5.752
 5571SOL     OW17254   3.581   2.447   7.417
 5571SOL    HW117255   3.555   2.536   7.381
 5571SOL    HW217256   3.579   2.379   7.344
 5572SOL     OW17257   3.224   3.006   6.131
 5572SOL    HW117258   3.307   2.977   6.083
 5572SOL    HW217259   3.175   3.073   6.075
 5573SOL     OW17260   2.870   3.318   6.063
 5573SOL    HW117261   2.824   3.390   6.011
 5573SOL    HW217262   2.866   3.338   6.161
 5574SOL     OW17263   2.213   3.663   6.439
 5574SOL    HW117264   2.263   3.577   6.445
 5574SOL    HW217265   2.278   3.740   6.436
 5575SOL     OW17266   3.657   2.928   6.459
 5575SOL    HW117267   3.595   2.913   6.383
 5575SOL    HW217268   3.605   2.939   6.544
 5576SOL     OW17269   3.089   3.412   7.092
 5576SOL    HW117270   3.095   3.335   7.156
 5576SOL    HW217271   3.037   3.386   7.012
 5577SOL     OW17272   2.183   2.805   5.828
 5577SOL    HW117273   2.265   2.844   5.786
 5577SOL    HW217274   2.156   2.723   5.779
 5578SOL     OW17275   3.320   2.597   6.314
 5578SOL    HW117276   3.315   2.532   6.389
 5578SOL    HW217277   3.400   2.656   6.327
 5579SOL     OW17278   2.323   3.128   7.313
 5579SOL    HW117279   2.273   3.129   7.227
 5579SOL    HW217280   2.260   3.110   7.389
 5580SOL     OW17281   2.973   3.638   5.823
 5580SOL    HW117282   2.913   3.576   5.873
 5580SOL    HW217283   3.004   3.594   5.738
 5581SOL     OW17284   3.494   3.239   5.667
 5581SOL    HW117285   3.462   3.333   5.657
 5581SOL    HW217286   3.418   3.176   5.655
 5582SOL     OW17287   2.326   3.605   5.909
 5582SOL    HW117288   2.359   3.644   5.995
 5582SOL    HW217289   2.402   3.598   5.844
 5583SOL     OW17290   3.262   1.969   6.012
 5583SOL    HW117291   3.238   1.932   5.922
 5583SOL    HW217292   3.361   1.985   6.016
 5584SOL     OW17293   2.111   3.647   6.827
 5584SOL    HW117294   2.168   3.582   6.877
 5584SOL    HW217295   2.095   3.614   6.734
 5585SOL     OW17296   2.802   3.560   6.490
 5585SOL    HW117297   2.882   3.503   6.511
 5585SOL    HW217298   2.753   3.520   6.413
 5586SOL     OW17299   3.409   2.084   7.315
 5586SOL    HW117300   3.404   2.121   7.407
 5586SOL    HW217301   3.337   2.015   7.303
 5587SOL     OW17302   2.476   1.984   5.703
 5587SOL    HW117303   2.574   1.962   5.710
 5587SOL    HW217304   2.445   1.967   5.610
 5588SOL     OW17305   2.750   3.376   6.781
 5588SOL    HW117306   2.727   3.351   6.687
 5588SOL    HW217307   2.811   3.307   6.820
 5589SOL     OW17308   3.213   2.452   7.019
 5589SOL    HW117309   3.241   2.409   7.104
 5589SOL    HW217310   3.238   2.548   7.020
 5590SOL     OW17311   2.665   3.264   6.510
 5590SOL    HW117312   2.755   3.278   6.468
 5590SOL    HW217313   2.594   3.266   6.439
 5591SOL     OW17314   2.401   1.926   6.098
 5591SOL    HW117315   2.320   1.927   6.156
 5591SOL    HW217316   2.404   2.009   6.043
 5592SOL     OW17317   3.296   3.050   5.627
 5592SOL    HW117318   3.328   2.974   5.684
 5592SOL    HW217319   3.204   3.077   5.657
 5593SOL     OW17320   2.938   2.545   7.050
 5593SOL    HW117321   2.858   2.484   7.053
 5593SOL    HW217322   3.019   2.492   7.026
 5594SOL     OW17323   3.089   3.432   6.379
 5594SOL    HW117324   3.110   3.506   6.314
 5594SOL    HW217325   3.157   3.432   6.452
 5595SOL     OW17326   2.321   3.014   6.327
 5595SOL    HW117327   2.250   2.987   6.392
 5595SOL    HW217328   2.295   2.986   6.234
 5596SOL     OW17329   3.133   3.659   6.177
 5596SOL    HW117330   3.177   3.723   6.113
 5596SOL    HW217331   3.083   3.711   6.247
 5597SOL     OW17332   2.894   2.411   5.602
 5597SOL    HW117333   2.853   2.493   5.563
 5597SOL    HW217334   2.958   2.437   5.675
 5598SOL     OW17335   1.940   2.418   6.972
 5598SOL    HW117336   2.032   2.417   6.931
 5598SOL    HW217337   1.934   2.492   7.039
 5599SOL     OW17338   3.291   3.035   6.453
 5599SOL    HW117339   3.236   2.951   6.446
 5599SOL    HW217340   3.317   3.064   6.361
 5600SOL     OW17341   3.328   2.452   6.578
 5600SOL    HW117342   3.298   2.357   6.585
 5600SOL    HW217343   3.401   2.468   6.644
 5601SOL     OW17344   3.719   2.695   5.963
 5601SOL    HW117345   3.761   2.631   6.027
 5601SOL    HW217346   3.681   2.644   5.885
 5602SOL     OW17347   2.350   3.247   5.760
 5602SOL    HW117348   2.263   3.232   5.807
 5602SOL    HW217349   2.333   3.273   5.665
 5603SOL     OW17350   3.526   3.142   6.243
 5603SOL    HW117351   3.625   3.150   6.257
 5603SOL    HW217352   3.481   3.226   6.274
 5604SOL     OW17353   3.252   2.437   5.664
 5604SOL    HW117354   3.198   2.416   5.745
 5604SOL    HW217355   3.343   2.396   5.673
 5605SOL     OW17356   2.389   2.118   5.914
 5605SOL    HW117357   2.416   2.059   5.839
 5605SOL    HW217358   2.389   2.213   5.883
 5606SOL     OW17359   3.616   3.085   7.174
 5606SOL    HW117360   3.707   3.046   7.161
 5606SOL    HW217361   3.624   3.181   7.198
 5607SOL     OW17362   2.926   3.209   6.926
 5607SOL    HW117363   2.846   3.186   6.981
 5607SOL    HW217364   3.009   3.183   6.975
 5608SOL     OW17365   3.454   3.491   7.211
 5608SOL    HW117366   3.481   3.525   7.121
 5608SOL    HW217367   3.533   3.453   7.257
 5609SOL     OW17368   2.973   3.057   6.686
 5609SOL    HW117369   2.933   3.101   6.767
 5609SOL    HW217370   2.932   3.094   6.603
 5610SOL     OW17371   3.500   2.961   6.665
 5610SOL    HW117372   3.505   3.042   6.724
 5610SOL    HW217373   3.414   2.963   6.614
 5611SOL     OW17374   2.777   1.951   6.988
 5611SOL    HW117375   2.802   1.931   6.893
 5611SOL    HW217376   2.849   2.007   7.030
 5612SOL     OW17377   2.842   2.978   7.305
 5612SOL    HW117378   2.743   2.984   7.315
 5612SOL    HW217379   2.865   2.898   7.249
 5613SOL     OW17380   2.567   2.912   5.954
 5613SOL    HW117381   2.553   2.919   6.053
 5613SOL    HW217382   2.651   2.861   5.936
 5614SOL     OW17383   2.272   2.675   6.837
 5614SOL    HW117384   2.358   2.687   6.887
 5614SOL    HW217385   2.230   2.588   6.864
 5615SOL     OW17386   3.136   2.248   6.848
 5615SOL    HW117387   3.157   2.322   6.912
 5615SOL    HW217388   3.047   2.265   6.805
 5616SOL     OW17389   1.926   3.426   6.917
 5616SOL    HW117390   1.880   3.508   6.883
 5616SOL    HW217391   2.024   3.445   6.926
 5617SOL     OW17392   2.229   2.962   6.087
 5617SOL    HW117393   2.222   3.045   6.031
 5617SOL    HW217394   2.233   2.882   6.027
 5618SOL     OW17395   3.114   3.210   5.974
 5618SOL    HW117396   3.164   3.287   6.014
 5618SOL    HW217397   3.019   3.212   6.006
 5619SOL     OW17398   3.134   3.307   6.728
 5619SOL    HW117399   3.181   3.320   6.815
 5619SOL    HW217400   3.068   3.233   6.737
 5620SOL     OW17401   3.444   2.501   6.058
 5620SOL    HW117402   3.413   2.562   6.131
 5620SOL    HW217403   3.494   2.553   5.989
 5621SOL     OW17404   2.216   3.372   6.915
 5621SOL    HW117405   2.195   3.328   6.828
 5621SOL    HW217406   2.313   3.398   6.918
 5622SOL     OW17407   3.449   2.641   7.256
 5622SOL    HW117408   3.357   2.679   7.251
 5622SOL    HW217409   3.509   2.688   7.191
 5623SOL     OW17410   2.875   1.967   7.356
 5623SOL    HW117411   2.881   2.052   7.304
 5623SOL    HW217412   2.907   1.891   7.299
 5624SOL     OW17413   2.366   1.912   7.326
 5624SOL    HW117414   2.324   1.855   7.256
 5624SOL    HW217415   2.300   1.981   7.358
 5625SOL     OW17416   2.435   2.732   6.615
 5625SOL    HW117417   2.479   2.821   6.606
 5625SOL    HW217418   2.372   2.732   6.692
 5626SOL     OW17419   3.222   2.724   6.631
 5626SOL    HW117420   3.147   2.724   6.565
 5626SOL    HW217421   3.259   2.632   6.640
 5627SOL     OW17422   3.071   2.387   5.861
 5627SOL    HW117423   3.084   2.303   5.915
 5627SOL    HW217424   3.042   2.461   5.921
 5628SOL     OW17425   2.169   2.075   6.817
 5628SOL    HW117426   2.146   2.112   6.907
 5628SOL    HW217427   2.139   1.980   6.811
 5629SOL     OW17428   1.899   3.172   6.868
 5629SOL    HW117429   1.952   3.123   6.936
 5629SOL    HW217430   1.921   3.270   6.873
 5630SOL     OW17431   3.590   2.797   7.440
 5630SOL    HW117432   3.544   2.790   7.351
 5630SOL    HW217433   3.528   2.841   7.506
 5631SOL     OW17434   3.484   2.229   5.960
 5631SOL    HW117435   3.486   2.153   6.024
 5631SOL    HW217436   3.436   2.306   6.000
 5632SOL     OW17437   2.885   2.628   6.552
 5632SOL    HW117438   2.900   2.649   6.648
 5632SOL    HW217439   2.855   2.533   6.543
 5633SOL     OW17440   2.842   3.435   7.286
 5633SOL    HW117441   2.822   3.479   7.198
 5633SOL    HW217442   2.881   3.344   7.270
 5634SOL     OW17443   3.721   3.380   7.191
 5634SOL    HW117444   3.735   3.407   7.096
 5634SOL    HW217445   3.804   3.402   7.244
 5635SOL     OW17446   3.402   2.136   5.711
 5635SOL    HW117447   3.341   2.061   5.734
 5635SOL    HW217448   3.424   2.188   5.794
 5636SOL     OW17449   3.165   2.700   5.628
 5636SOL    HW117450   3.199   2.607   5.643
 5636SOL    HW217451   3.183   2.727   5.533
 5637SOL     OW17452   2.930   3.195   6.435
 5637SOL    HW117453   2.937   3.111   6.380
 5637SOL    HW217454   2.992   3.264   6.399
 5638SOL     OW17455   3.000   2.242   7.264
 5638SOL    HW117456   2.955   2.305   7.328
 5638SOL    HW217457   3.093   2.273   7.247
 5639SOL     OW17458   3.022   2.069   7.063
 5639SOL    HW117459   3.022   2.133   7.140
 5639SOL    HW217460   3.050   2.117   6.980
 5640SOL     OW17461   1.870   3.188   5.786
 5640SOL    HW117462   1.777   3.209   5.755
 5640SOL    HW217463   1.880   3.089   5.799
 5641SOL     OW17464   1.950   3.663   6.513
 5641SOL    HW117465   1.908   3.577   6.486
 5641SOL    HW217466   2.044   3.666   6.479
 5642SOL     OW17467   2.366   3.430   6.496
 5642SOL    HW117468   2.432   3.504   6.505
 5642SOL    HW217469   2.410   3.351   6.454
 5643SOL     OW17470   2.864   2.658   6.824
 5643SOL    HW117471   2.905   2.626   6.910
 5643SOL    HW217472   2.768   2.631   6.821
 5644SOL     OW17473   3.231   2.812   7.246
 5644SOL    HW117474   3.270   2.901   7.266
 5644SOL    HW217475   3.241   2.792   7.149
 5645SOL     OW17476   2.677   2.434   5.911
 5645SOL    HW117477   2.684   2.345   5.865
 5645SOL    HW217478   2.583   2.468   5.903
 5646SOL     OW17479   3.519   2.466   6.792
 5646SOL    HW117480   3.481   2.397   6.854
 5646SOL    HW217481   3.601   2.430   6.748
 5647SOL     OW17482   2.114   3.426   7.330
 5647SOL    HW117483   2.084   3.483   7.406
 5647SOL    HW217484   2.107   3.329   7.356
 5648SOL     OW17485   2.792   3.540   7.051
 5648SOL    HW117486   2.768   3.522   6.956
 5648SOL    HW217487   2.822   3.634   7.061
 5649SOL     OW17488   2.335   2.362   5.777
 5649SOL    HW117489   2.396   2.442   5.781
 5649SOL    HW217490   2.240   2.393   5.784
 5650SOL     OW17491   2.021   2.999   7.052
 5650SOL    HW117492   2.043   2.938   7.128
 5650SOL    HW217493   2.031   2.950   6.966
 5651SOL     OW17494   3.209   2.921   6.820
 5651SOL    HW117495   3.233   2.858   6.746
 5651SOL    HW217496   3.119   2.961   6.802
 5652SOL     OW17497   3.164   2.717   5.895
 5652SOL    HW117498   3.078   2.686   5.937
 5652SOL    HW217499   3.160   2.703   5.796
 5653SOL     OW17500   3.621   3.609   6.740
 5653SOL    HW117501   3.682   3.639   6.667
 5653SOL    HW217502   3.583   3.520   6.718
 5654SOL     OW17503   3.114   3.593   6.714
 5654SOL    HW117504   3.198   3.598   6.660
 5654SOL    HW217505   3.091   3.497   6.732
 5655SOL     OW17506   1.945   3.120   6.608
 5655SOL    HW117507   1.940   3.119   6.708
 5655SOL    HW217508   1.862   3.079   6.570
 5656SOL     OW17509   2.550   3.524   7.302
 5656SOL    HW117510   2.494   3.605   7.311
 5656SOL    HW217511   2.602   3.528   7.216
 5657SOL     OW17512   3.588   1.997   6.109
 5657SOL    HW117513   3.661   1.980   6.042
 5657SOL    HW217514   3.557   1.910   6.147
 5658SOL     OW17515   3.250   3.435   6.063
 5658SOL    HW117516   3.317   3.447   5.989
 5658SOL    HW217517   3.210   3.524   6.086
 5659SOL     OW17518   1.992   3.656   7.437
 5659SOL    HW117519   1.951   3.582   7.490
 5659SOL    HW217520   2.056   3.707   7.495
 5660SOL     OW17521   3.142   2.789   6.258
 5660SOL    HW117522   3.202   2.708   6.260
 5660SOL    HW217523   3.182   2.858   6.198
 5661SOL     OW17524   2.692   3.135   7.008
 5661SOL    HW117525   2.687   3.168   7.103
 5661SOL    HW217526   2.606   3.154   6.962
 5662SOL     OW17527   2.534   3.478   5.740
 5662SOL    HW117528   2.543   3.488   5.641
 5662SOL    HW217529   2.494   3.389   5.761
 5663SOL     OW17530   3.512   3.582   6.980
 5663SOL    HW117531   3.565   3.592   6.896
 5663SOL    HW217532   3.485   3.672   7.014
 5664SOL     OW17533   3.703   2.037   6.549
 5664SOL    HW117534   3.742   1.952   6.513
 5664SOL    HW217535   3.605   2.039   6.530
 5665SOL     OW17536   3.056   3.474   5.617
 5665SOL    HW117537   3.062   3.381   5.654
 5665SOL    HW217538   2.997   3.474   5.537
 5666SOL     OW17539   2.684   2.864   6.958
 5666SOL    HW117540   2.724   2.863   6.866
 5666SOL    HW217541   2.694   2.956   6.998
 5667SOL     OW17542   2.778   2.772   5.877
 5667SOL    HW117543   2.841   2.810   5.809
 5667SOL    HW217544   2.818   2.689   5.916
 5668SOL     OW17545   3.366   3.469   5.630
 5668SOL    HW117546   3.274   3.506   5.637
 5668SOL    HW217547   3.404   3.489   5.540
 5669SOL     OW17548   2.234   3.150   7.076
 5669SOL    HW117549   2.221   3.243   7.042
 5669SOL    HW217550   2.150   3.098   7.063
 5670SOL     OW17551   3.476   3.154   6.875
 5670SOL    HW117552   3.536   3.157   6.955
 5670SOL    HW217553   3.401   3.218   6.888
 5671SOL     OW17554   2.901   2.960   6.282
 5671SOL    HW117555   2.831   2.913   6.336
 5671SOL    HW217556   2.960   2.892   6.239
 5672SOL     OW17557   2.452   3.349   6.077
 5672SOL    HW117558   2.494   3.291   6.007
 5672SOL    HW217559   2.408   3.428   6.033
 5673SOL     OW17560   3.571   2.247   6.967
 5673SOL    HW117561   3.644   2.316   6.971
 5673SOL    HW217562   3.599   2.172   6.908
 5674SOL     OW17563   2.117   3.210   5.876
 5674SOL    HW117564   2.021   3.211   5.849
 5674SOL    HW217565   2.129   3.263   5.960
 5675SOL     OW17566   1.937   2.207   5.619
 5675SOL    HW117567   1.845   2.179   5.590
 5675SOL    HW217568   1.968   2.284   5.563
 5676SOL     OW17569   3.302   2.718   6.984
 5676SOL    HW117570   3.245   2.770   6.921
 5676SOL    HW217571   3.398   2.730   6.960
 5677SOL     OW17572   3.045   3.197   5.705
 5677SOL    HW117573   2.946   3.186   5.707
 5677SOL    HW217574   3.079   3.212   5.798
 5678SOL     OW17575   3.355   3.629   6.545
 5678SOL    HW117576   3.388   3.693   6.476
 5678SOL    HW217577   3.421   3.623   6.620
 5679SOL     OW17578   3.312   3.082   7.219
 5679SOL    HW117579   3.303   3.072   7.318
 5679SOL    HW217580   3.408   3.075   7.193
 5680SOL     OW17581   2.252   3.603   7.146
 5680SOL    HW117582   2.161   3.644   7.144
 5680SOL    HW217583   2.245   3.509   7.178
 5681SOL     OW17584   3.536   2.745   6.840
 5681SOL    HW117585   3.509   2.656   6.803
 5681SOL    HW217586   3.537   2.813   6.767
 5682SOL     OW17587   3.087   2.187   6.035
 5682SOL    HW117588   3.152   2.113   6.024
 5682SOL    HW217589   3.107   2.237   6.119
 5683SOL     OW17590   3.639   2.204   7.228
 5683SOL    HW117591   3.622   2.235   7.134
 5683SOL    HW217592   3.555   2.167   7.266
 5684SOL     OW17593   3.592   2.796   7.103
 5684SOL    HW117594   3.630   2.887   7.118
 5684SOL    HW217595   3.584   2.779   7.004
 5685SOL     OW17596   2.721   3.236   5.602
 5685SOL    HW117597   2.675   3.251   5.690
 5685SOL    HW217598   2.765   3.321   5.572
 5686SOL     OW17599   2.523   3.652   6.539
 5686SOL    HW117600   2.477   3.740   6.526
 5686SOL    HW217601   2.622   3.664   6.532
 5687SOL     OW17602   2.721   2.818   6.447
 5687SOL    HW117603   2.775   2.749   6.495
 5687SOL    HW217604   2.689   2.887   6.513
 5688SOL     OW17605   2.945   2.846   5.673
 5688SOL    HW117606   2.922   2.899   5.591
 5688SOL    HW217607   3.026   2.790   5.654
 5689SOL     OW17608   3.723   3.431   6.437
 5689SOL    HW117609   3.652   3.419   6.367
 5689SOL    HW217610   3.724   3.352   6.497
 5690SOL     OW17611   2.083   3.176   7.430
 5690SOL    HW117612   2.018   3.103   7.409
 5690SOL    HW217613   2.087   3.190   7.528
 5691SOL     OW17614   1.941   3.102   6.239
 5691SOL    HW117615   1.940   3.055   6.327
 5691SOL    HW217616   2.023   3.074   6.188
 5692SOL     OW17617   2.534   3.253   7.210
 5692SOL    HW117618   2.456   3.203   7.248
 5692SOL    HW217619   2.531   3.348   7.241
 5693SOL     OW17620   3.686   2.054   6.813
 5693SOL    HW117621   3.682   1.964   6.857
 5693SOL    HW217622   3.689   2.043   6.714
 5694SOL     OW17623   2.290   2.286   6.106
 5694SOL    HW117624   2.320   2.214   6.044
 5694SOL    HW217625   2.251   2.246   6.189
 5695SOL     OW17626   3.567   3.349   6.690
 5695SOL    HW117627   3.474   3.324   6.663
 5695SOL    HW217628   3.593   3.299   6.772
 5696SOL     OW17629   2.179   2.409   6.866
 5696SOL    HW117630   2.217   2.350   6.938
 5696SOL    HW217631   2.219   2.383   6.778
 5697SOL     OW17632   2.674   3.448   6.273
 5697SOL    HW117633   2.706   3.458   6.179
 5697SOL    HW217634   2.595   3.386   6.275
 5698SOL     OW17635   3.286   2.076   6.698
 5698SOL    HW117636   3.338   2.011   6.753
 5698SOL    HW217637   3.237   2.139   6.759
 5699SOL     OW17638   2.632   3.192   5.887
 5699SOL    HW117639   2.586   3.105   5.904
 5699SOL    HW217640   2.723   3.189   5.928
 5700SOL     OW17641   2.480   3.429   6.870
 5700SOL    HW117642   2.475   3.511   6.927
 5700SOL    HW217643   2.569   3.426   6.825
 5701SOL     OW17644   3.214   1.914   5.754
 5701SOL    HW117645   3.249   1.873   5.670
 5701SOL    HW217646   3.124   1.876   5.774
 5702SOL     OW17647   3.162   2.315   6.277
 5702SOL    HW117648   3.103   2.395   6.281
 5702SOL    HW217649   3.177   2.280   6.370
 5703SOL     OW17650   3.455   2.083   6.468
 5703SOL    HW117651   3.371   2.082   6.522
 5703SOL    HW217652   3.457   2.166   6.412
 5704SOL     OW17653   1.901   2.939   5.886
 5704SOL    HW117654   2.000   2.928   5.877
 5704SOL    HW217655   1.861   2.853   5.918
 5705SOL     OW17656   2.737   3.508   5.923
 5705SOL    HW117657   2.660   3.473   5.869
 5705SOL    HW217658   2.705   3.579   5.985
 5706SOL     OW17659   1.881   2.230   8.095
 5706SOL    HW117660   1.799   2.273   8.134
 5706SOL    HW217661   1.853   2.157   8.032
 5707SOL     OW17662   2.431   3.137   8.613
 5707SOL    HW117663   2.338   3.130   8.576
 5707SOL    HW217664   2.442   3.226   8.657
 5708SOL     OW17665   3.417   3.373   8.151
 5708SOL    HW117666   3.360   3.357   8.232
 5708SOL    HW217667   3.358   3.383   8.071
 5709SOL     OW17668   2.997   2.565   8.165
 5709SOL    HW117669   3.054   2.643   8.140
 5709SOL    HW217670   2.937   2.591   8.241
 5710SOL     OW17671   3.617   2.469   7.679
 5710SOL    HW117672   3.605   2.456   7.580
 5710SOL    HW217673   3.587   2.388   7.728
 5711SOL     OW17674   2.630   3.006   8.471
 5711SOL    HW117675   2.552   3.023   8.531
 5711SOL    HW217676   2.664   3.093   8.435
 5712SOL     OW17677   2.712   2.660   9.271
 5712SOL    HW117678   2.708   2.736   9.336
 5712SOL    HW217679   2.734   2.696   9.180
 5713SOL     OW17680   2.547   2.874   8.113
 5713SOL    HW117681   2.616   2.858   8.183
 5713SOL    HW217682   2.474   2.931   8.151
 5714SOL     OW17683   2.548   3.023   9.251
 5714SOL    HW117684   2.608   3.102   9.265
 5714SOL    HW217685   2.462   3.054   9.210
 5715SOL     OW17686   2.197   3.297   8.509
 5715SOL    HW117687   2.119   3.266   8.456
 5715SOL    HW217688   2.255   3.355   8.452
 5716SOL     OW17689   3.322   3.367   8.787
 5716SOL    HW117690   3.346   3.461   8.813
 5716SOL    HW217691   3.306   3.313   8.869
 5717SOL     OW17692   2.300   2.254   8.947
 5717SOL    HW117693   2.382   2.198   8.956
 5717SOL    HW217694   2.219   2.196   8.951
 5718SOL     OW17695   3.465   2.309   8.185
 5718SOL    HW117696   3.391   2.355   8.135
 5718SOL    HW217697   3.516   2.377   8.238
 5719SOL     OW17698   2.093   3.575   7.931
 5719SOL    HW117699   2.127   3.652   7.985
 5719SOL    HW217700   2.137   3.575   7.841
 5720SOL     OW17701   2.989   3.203   9.138
 5720SOL    HW117702   3.036   3.203   9.226
 5720SOL    HW217703   2.941   3.116   9.127
 5721SOL     OW17704   2.092   3.296   7.986
 5721SOL    HW117705   2.066   3.392   7.986
 5721SOL    HW217706   2.021   3.242   8.031
 5722SOL     OW17707   2.102   2.953   8.334
 5722SOL    HW117708   2.116   2.869   8.386
 5722SOL    HW217709   2.047   3.017   8.389
 5723SOL     OW17710   2.482   3.648   8.887
 5723SOL    HW117711   2.390   3.631   8.922
 5723SOL    HW217712   2.510   3.740   8.913
 5724SOL     OW17713   2.468   2.826   7.571
 5724SOL    HW117714   2.475   2.910   7.517
 5724SOL    HW217715   2.514   2.839   7.659
 5725SOL     OW17716   3.456   1.976   8.928
 5725SOL    HW117717   3.438   2.043   8.856
 5725SOL    HW217718   3.453   2.022   9.017
 5726SOL     OW17719   1.984   2.505   8.011
 5726SOL    HW117720   1.939   2.417   8.028
 5726SOL    HW217721   1.983   2.559   8.095
 5727SOL     OW17722   3.704   3.629   7.807
 5727SOL    HW117723   3.758   3.600   7.887
 5727SOL    HW217724   3.734   3.719   7.778
 5728SOL     OW17725   1.889   3.458   7.565
 5728SOL    HW117726   1.870   3.362   7.586
 5728SOL    HW217727   1.856   3.516   7.640
 5729SOL     OW17728   3.551   2.784   8.060
 5729SOL    HW117729   3.646   2.755   8.068
 5729SOL    HW217730   3.543   2.849   7.985
 5730SOL     OW17731   3.503   2.970   7.880
 5730SOL    HW117732   3.589   2.972   7.828
 5730SOL    HW217733   3.517   3.017   7.968
 5731SOL     OW17734   1.975   2.599   9.045
 5731SOL    HW117735   2.063   2.586   9.090
 5731SOL    HW217736   1.962   2.696   9.023
 5732SOL     OW17737   2.475   3.227   8.174
 5732SOL    HW117738   2.426   3.140   8.183
 5732SOL    HW217739   2.452   3.270   8.087
 5733SOL     OW17740   3.155   3.090   8.871
 5733SOL    HW117741   3.192   3.017   8.813
 5733SOL    HW217742   3.207   3.095   8.956
 5734SOL     OW17743   2.059   2.838   8.712
 5734SOL    HW117744   2.148   2.793   8.698
 5734SOL    HW217745   1.986   2.773   8.693
 5735SOL     OW17746   3.387   2.861   7.638
 5735SOL    HW117747   3.324   2.785   7.651
 5735SOL    HW217748   3.435   2.879   7.724
 5736SOL     OW17749   3.049   3.654   9.064
 5736SOL    HW117750   3.073   3.714   8.988
 5736SOL    HW217751   3.056   3.559   9.034
 5737SOL     OW17752   2.179   2.113   9.249
 5737SOL    HW117753   2.250   2.184   9.255
 5737SOL    HW217754   2.091   2.152   9.277
 5738SOL     OW17755   3.328   3.279   8.401
 5738SOL    HW117756   3.269   3.285   8.481
 5738SOL    HW217757   3.313   3.191   8.355
 5739SOL     OW17758   3.529   3.576   8.020
 5739SOL    HW117759   3.488   3.553   7.932
 5739SOL    HW217760   3.511   3.502   8.085
 5740SOL     OW17761   3.143   2.207   8.392
 5740SOL    HW117762   3.057   2.157   8.379
 5740SOL    HW217763   3.205   2.153   8.448
 5741SOL     OW17764   3.438   3.524   7.755
 5741SOL    HW117765   3.527   3.570   7.758
 5741SOL    HW217766   3.417   3.500   7.660
 5742SOL     OW17767   2.669   2.467   8.913
 5742SOL    HW117768   2.622   2.464   9.002
 5742SOL    HW217769   2.618   2.412   8.847
 5743SOL     OW17770   3.256   2.331   9.122
 5743SOL    HW117771   3.236   2.374   9.210
 5743SOL    HW217772   3.334   2.269   9.131
 5744SOL     OW17773   2.835   2.752   9.020
 5744SOL    HW117774   2.881   2.668   8.991
 5744SOL    HW217775   2.779   2.786   8.945
 5745SOL     OW17776   2.853   2.272   8.690
 5745SOL    HW117777   2.776   2.306   8.744
 5745SOL    HW217778   2.819   2.221   8.611
 5746SOL     OW17779   2.903   2.563   7.877
 5746SOL    HW117780   2.929   2.559   7.973
 5746SOL    HW217781   2.818   2.512   7.863
 5747SOL     OW17782   1.938   2.673   8.237
 5747SOL    HW117783   2.037   2.661   8.246
 5747SOL    HW217784   1.914   2.768   8.258
 5748SOL     OW17785   1.992   3.683   9.019
 5748SOL    HW117786   1.982   3.668   9.118
 5748SOL    HW217787   1.906   3.719   8.983
 5749SOL     OW17788   3.581   2.447   9.279
 5749SOL    HW117789   3.555   2.536   9.243
 5749SOL    HW217790   3.579   2.379   9.206
 5750SOL     OW17791   3.224   3.006   7.993
 5750SOL    HW117792   3.307   2.977   7.945
 5750SOL    HW217793   3.175   3.073   7.937
 5751SOL     OW17794   2.412   2.058   8.333
 5751SOL    HW117795   2.407   2.053   8.433
 5751SOL    HW217796   2.414   2.154   8.304
 5752SOL     OW17797   2.870   3.318   7.925
 5752SOL    HW117798   2.824   3.390   7.873
 5752SOL    HW217799   2.866   3.338   8.023
 5753SOL     OW17800   2.213   3.663   8.301
 5753SOL    HW117801   2.263   3.577   8.307
 5753SOL    HW217802   2.278   3.740   8.298
 5754SOL     OW17803   3.657   2.928   8.321
 5754SOL    HW117804   3.595   2.913   8.245
 5754SOL    HW217805   3.605   2.939   8.406
 5755SOL     OW17806   3.089   3.412   8.954
 5755SOL    HW117807   3.095   3.335   9.018
 5755SOL    HW217808   3.037   3.386   8.874
 5756SOL     OW17809   3.320   2.597   8.176
 5756SOL    HW117810   3.315   2.532   8.251
 5756SOL    HW217811   3.400   2.656   8.189
 5757SOL     OW17812   2.323   3.128   9.175
 5757SOL    HW117813   2.273   3.129   9.089
 5757SOL    HW217814   2.260   3.110   9.251
 5758SOL     OW17815   2.973   3.638   7.685
 5758SOL    HW117816   2.913   3.576   7.735
 5758SOL    HW217817   3.004   3.594   7.600
 5759SOL     OW17818   3.494   3.239   7.529
 5759SOL    HW117819   3.462   3.333   7.519
 5759SOL    HW217820   3.418   3.176   7.517
 5760SOL     OW17821   2.326   3.605   7.771
 5760SOL    HW117822   2.359   3.644   7.857
 5760SOL    HW217823   2.402   3.598   7.706
 5761SOL     OW17824   3.262   1.969   7.874
 5761SOL    HW117825   3.238   1.932   7.784
 5761SOL    HW217826   3.361   1.985   7.878
 5762SOL     OW17827   2.111   3.647   8.689
 5762SOL    HW117828   2.168   3.582   8.739
 5762SOL    HW217829   2.095   3.614   8.596
 5763SOL     OW17830   2.802   3.560   8.352
 5763SOL    HW117831   2.882   3.503   8.373
 5763SOL    HW217832   2.753   3.520   8.275
 5764SOL     OW17833   2.244   2.562   7.928
 5764SOL    HW117834   2.289   2.472   7.925
 5764SOL    HW217835   2.150   2.551   7.961
 5765SOL     OW17836   3.409   2.084   9.177
 5765SOL    HW117837   3.404   2.121   9.269
 5765SOL    HW217838   3.337   2.015   9.165
 5766SOL     OW17839   2.643   2.126   9.197
 5766SOL    HW117840   2.710   2.065   9.240
 5766SOL    HW217841   2.570   2.145   9.262
 5767SOL     OW17842   2.750   3.376   8.643
 5767SOL    HW117843   2.727   3.351   8.549
 5767SOL    HW217844   2.811   3.307   8.682
 5768SOL     OW17845   3.213   2.452   8.881
 5768SOL    HW117846   3.241   2.409   8.966
 5768SOL    HW217847   3.238   2.548   8.882
 5769SOL     OW17848   2.665   3.264   8.372
 5769SOL    HW117849   2.755   3.278   8.330
 5769SOL    HW217850   2.594   3.266   8.301
 5770SOL     OW17851   2.784   2.365   8.347
 5770SOL    HW117852   2.759   2.356   8.251
 5770SOL    HW217853   2.832   2.283   8.378
 5771SOL     OW17854   2.401   1.926   7.960
 5771SOL    HW117855   2.320   1.927   8.018
 5771SOL    HW217856   2.404   2.009   7.905
 5772SOL     OW17857   3.296   3.050   7.489
 5772SOL    HW117858   3.328   2.974   7.546
 5772SOL    HW217859   3.204   3.077   7.519
 5773SOL     OW17860   2.797   2.098   7.928
 5773SOL    HW117861   2.749   2.139   7.850
 5773SOL    HW217862   2.896   2.096   7.909
 5774SOL     OW17863   2.938   2.545   8.912
 5774SOL    HW117864   2.858   2.484   8.915
 5774SOL    HW217865   3.019   2.492   8.888
 5775SOL     OW17866   3.089   3.432   8.241
 5775SOL    HW117867   3.110   3.506   8.176
 5775SOL    HW217868   3.157   3.432   8.314
 5776SOL     OW17869   2.321   3.014   8.189
 5776SOL    HW117870   2.250   2.987   8.254
 5776SOL    HW217871   2.295   2.986   8.096
 5777SOL     OW17872   3.133   3.659   8.039
 5777SOL    HW117873   3.177   3.723   7.975
 5777SOL    HW217874   3.083   3.711   8.109
 5778SOL     OW17875   2.894   2.411   7.464
 5778SOL    HW117876   2.853   2.493   7.425
 5778SOL    HW217877   2.958   2.437   7.537
 5779SOL     OW17878   1.940   2.418   8.834
 5779SOL    HW117879   2.032   2.417   8.793
 5779SOL    HW217880   1.934   2.492   8.901
 5780SOL     OW17881   2.423   2.084   8.595
 5780SOL    HW117882   2.461   2.000   8.632
 5780SOL    HW217883   2.335   2.103   8.639
 5781SOL     OW17884   2.728   2.316   8.090
 5781SOL    HW117885   2.696   2.388   8.028
 5781SOL    HW217886   2.752   2.235   8.037
 5782SOL     OW17887   2.879   1.901   8.201
 5782SOL    HW117888   2.807   1.906   8.132
 5782SOL    HW217889   2.855   1.832   8.270
 5783SOL     OW17890   3.291   3.035   8.315
 5783SOL    HW117891   3.236   2.951   8.308
 5783SOL    HW217892   3.317   3.064   8.223
 5784SOL     OW17893   3.328   2.452   8.440
 5784SOL    HW117894   3.298   2.357   8.447
 5784SOL    HW217895   3.401   2.468   8.506
 5785SOL     OW17896   3.719   2.695   7.825
 5785SOL    HW117897   3.761   2.631   7.889
 5785SOL    HW217898   3.681   2.644   7.747
 5786SOL     OW17899   2.350   3.247   7.622
 5786SOL    HW117900   2.263   3.232   7.669
 5786SOL    HW217901   2.333   3.273   7.527
 5787SOL     OW17902   3.526   3.142   8.105
 5787SOL    HW117903   3.625   3.150   8.119
 5787SOL    HW217904   3.481   3.226   8.136
 5788SOL     OW17905   3.252   2.437   7.526
 5788SOL    HW117906   3.198   2.416   7.607
 5788SOL    HW217907   3.343   2.396   7.535
 5789SOL     OW17908   2.389   2.118   7.776
 5789SOL    HW117909   2.416   2.059   7.701
 5789SOL    HW217910   2.389   2.213   7.745
 5790SOL     OW17911   3.616   3.085   9.036
 5790SOL    HW117912   3.707   3.046   9.023
 5790SOL    HW217913   3.624   3.181   9.060
 5791SOL     OW17914   2.926   3.209   8.788
 5791SOL    HW117915   2.846   3.186   8.843
 5791SOL    HW217916   3.009   3.183   8.837
 5792SOL     OW17917   3.454   3.491   9.073
 5792SOL    HW117918   3.481   3.525   8.983
 5792SOL    HW217919   3.533   3.453   9.119
 5793SOL     OW17920   2.973   3.057   8.548
 5793SOL    HW117921   2.933   3.101   8.629
 5793SOL    HW217922   2.932   3.094   8.465
 5794SOL     OW17923   3.500   2.961   8.527
 5794SOL    HW117924   3.505   3.042   8.586
 5794SOL    HW217925   3.414   2.963   8.476
 5795SOL     OW17926   2.777   1.951   8.850
 5795SOL    HW117927   2.802   1.931   8.755
 5795SOL    HW217928   2.849   2.007   8.892
 5796SOL     OW17929   2.842   2.978   9.167
 5796SOL    HW117930   2.743   2.984   9.177
 5796SOL    HW217931   2.865   2.898   9.111
 5797SOL     OW17932   2.567   2.912   7.816
 5797SOL    HW117933   2.553   2.919   7.915
 5797SOL    HW217934   2.651   2.861   7.798
 5798SOL     OW17935   2.272   2.675   8.699
 5798SOL    HW117936   2.358   2.687   8.749
 5798SOL    HW217937   2.230   2.588   8.726
 5799SOL     OW17938   3.136   2.248   8.710
 5799SOL    HW117939   3.157   2.322   8.774
 5799SOL    HW217940   3.047   2.265   8.667
 5800SOL     OW17941   1.926   3.426   8.779
 5800SOL    HW117942   1.880   3.508   8.745
 5800SOL    HW217943   2.024   3.445   8.788
 5801SOL     OW17944   2.229   2.962   7.949
 5801SOL    HW117945   2.222   3.045   7.893
 5801SOL    HW217946   2.233   2.882   7.889
 5802SOL     OW17947   2.428   2.399   8.313
 5802SOL    HW117948   2.440   2.465   8.239
 5802SOL    HW217949   2.474   2.433   8.396
 5803SOL     OW17950   3.114   3.210   7.836
 5803SOL    HW117951   3.164   3.287   7.876
 5803SOL    HW217952   3.019   3.212   7.868
 5804SOL     OW17953   3.134   3.307   8.590
 5804SOL    HW117954   3.181   3.320   8.677
 5804SOL    HW217955   3.068   3.233   8.599
 5805SOL     OW17956   3.444   2.501   7.920
 5805SOL    HW117957   3.413   2.562   7.993
 5805SOL    HW217958   3.494   2.553   7.851
 5806SOL     OW17959   2.216   3.372   8.777
 5806SOL    HW117960   2.195   3.328   8.690
 5806SOL    HW217961   2.313   3.398   8.780
 5807SOL     OW17962   2.264   2.613   9.046
 5807SOL    HW117963   2.332   2.668   8.999
 5807SOL    HW217964   2.304   2.525   9.073
 5808SOL     OW17965   3.449   2.641   9.118
 5808SOL    HW117966   3.357   2.679   9.113
 5808SOL    HW217967   3.509   2.688   9.053
 5809SOL     OW17968   2.875   1.967   9.218
 5809SOL    HW117969   2.881   2.052   9.166
 5809SOL    HW217970   2.907   1.891   9.161
 5810SOL     OW17971   2.366   1.912   9.188
 5810SOL    HW117972   2.324   1.855   9.118
 5810SOL    HW217973   2.300   1.981   9.220
 5811SOL     OW17974   2.435   2.732   8.477
 5811SOL    HW117975   2.479   2.821   8.468
 5811SOL    HW217976   2.372   2.732   8.554
 5812SOL     OW17977   3.222   2.724   8.493
 5812SOL    HW117978   3.147   2.724   8.427
 5812SOL    HW217979   3.259   2.632   8.502
 5813SOL     OW17980   3.071   2.387   7.723
 5813SOL    HW117981   3.084   2.303   7.777
 5813SOL    HW217982   3.042   2.461   7.783
 5814SOL     OW17983   2.169   2.075   8.679
 5814SOL    HW117984   2.146   2.112   8.769
 5814SOL    HW217985   2.139   1.980   8.673
 5815SOL     OW17986   1.899   3.172   8.730
 5815SOL    HW117987   1.952   3.123   8.798
 5815SOL    HW217988   1.921   3.270   8.735
 5816SOL     OW17989   2.594   2.496   8.512
 5816SOL    HW117990   2.653   2.470   8.436
 5816SOL    HW217991   2.566   2.592   8.501
 5817SOL     OW17992   3.590   2.797   9.302
 5817SOL    HW117993   3.544   2.790   9.213
 5817SOL    HW217994   3.528   2.841   9.368
 5818SOL     OW17995   3.484   2.229   7.822
 5818SOL    HW117996   3.486   2.153   7.886
 5818SOL    HW217997   3.436   2.306   7.862
 5819SOL     OW17998   2.885   2.628   8.414
 5819SOL    HW117999   2.900   2.649   8.510
 5819SOL    HW218000   2.855   2.533   8.405
 5820SOL     OW18001   2.842   3.435   9.148
 5820SOL    HW118002   2.822   3.479   9.060
 5820SOL    HW218003   2.881   3.344   9.132
 5821SOL     OW18004   3.721   3.380   9.053
 5821SOL    HW118005   3.735   3.407   8.958
 5821SOL    HW218006   3.804   3.402   9.106
 5822SOL     OW18007   2.212   2.760   9.252
 5822SOL    HW118008   2.288   2.804   9.300
 5822SOL    HW218009   2.247   2.713   9.170
 5823SOL     OW18010   3.402   2.136   7.573
 5823SOL    HW118011   3.341   2.061   7.596
 5823SOL    HW218012   3.424   2.188   7.656
 5824SOL     OW18013   3.165   2.700   7.490
 5824SOL    HW118014   3.199   2.607   7.505
 5824SOL    HW218015   3.183   2.727   7.395
 5825SOL     OW18016   2.930   3.195   8.297
 5825SOL    HW118017   2.937   3.111   8.242
 5825SOL    HW218018   2.992   3.264   8.261
 5826SOL     OW18019   2.181   2.672   8.397
 5826SOL    HW118020   2.274   2.708   8.402
 5826SOL    HW218021   2.175   2.587   8.449
 5827SOL     OW18022   2.201   2.371   8.454
 5827SOL    HW118023   2.149   2.288   8.437
 5827SOL    HW218024   2.278   2.376   8.390
 5828SOL     OW18025   3.000   2.242   9.126
 5828SOL    HW118026   2.955   2.305   9.190
 5828SOL    HW218027   3.093   2.273   9.109
 5829SOL     OW18028   3.022   2.069   8.925
 5829SOL    HW118029   3.022   2.133   9.002
 5829SOL    HW218030   3.050   2.117   8.842
 5830SOL     OW18031   1.870   3.188   7.648
 5830SOL    HW118032   1.777   3.209   7.617
 5830SOL    HW218033   1.880   3.089   7.661
 5831SOL     OW18034   1.950   3.663   8.375
 5831SOL    HW118035   1.908   3.577   8.348
 5831SOL    HW218036   2.044   3.666   8.341
 5832SOL     OW18037   2.366   3.430   8.358
 5832SOL    HW118038   2.432   3.504   8.367
 5832SOL    HW218039   2.410   3.351   8.316
 5833SOL     OW18040   2.864   2.658   8.686
 5833SOL    HW118041   2.905   2.626   8.772
 5833SOL    HW218042   2.768   2.631   8.683
 5834SOL     OW18043   1.902   2.406   8.562
 5834SOL    HW118044   1.987   2.373   8.521
 5834SOL    HW218045   1.915   2.421   8.660
 5835SOL     OW18046   2.051   2.382   9.170
 5835SOL    HW118047   2.110   2.342   9.100
 5835SOL    HW218048   1.993   2.453   9.129
 5836SOL     OW18049   3.231   2.812   9.108
 5836SOL    HW118050   3.270   2.901   9.128
 5836SOL    HW218051   3.241   2.792   9.011
 5837SOL     OW18052   3.519   2.466   8.654
 5837SOL    HW118053   3.481   2.397   8.716
 5837SOL    HW218054   3.601   2.430   8.610
 5838SOL     OW18055   2.114   3.426   9.192
 5838SOL    HW118056   2.084   3.483   9.268
 5838SOL    HW218057   2.107   3.329   9.218
 5839SOL     OW18058   2.533   2.326   8.717
 5839SOL    HW118059   2.499   2.237   8.687
 5839SOL    HW218060   2.559   2.380   8.637
 5840SOL     OW18061   2.792   3.540   8.913
 5840SOL    HW118062   2.768   3.522   8.818
 5840SOL    HW218063   2.822   3.634   8.923
 5841SOL     OW18064   2.021   2.999   8.914
 5841SOL    HW118065   2.043   2.938   8.990
 5841SOL    HW218066   2.031   2.950   8.828
 5842SOL     OW18067   3.209   2.921   8.682
 5842SOL    HW118068   3.233   2.858   8.608
 5842SOL    HW218069   3.119   2.961   8.664
 5843SOL     OW18070   3.164   2.717   7.757
 5843SOL    HW118071   3.078   2.686   7.799
 5843SOL    HW218072   3.160   2.703   7.658
 5844SOL     OW18073   3.621   3.609   8.602
 5844SOL    HW118074   3.682   3.639   8.529
 5844SOL    HW218075   3.583   3.520   8.580
 5845SOL     OW18076   3.114   3.593   8.576
 5845SOL    HW118077   3.198   3.598   8.522
 5845SOL    HW218078   3.091   3.497   8.594
 5846SOL     OW18079   1.945   3.120   8.470
 5846SOL    HW118080   1.940   3.119   8.570
 5846SOL    HW218081   1.862   3.079   8.432
 5847SOL     OW18082   2.550   3.524   9.164
 5847SOL    HW118083   2.494   3.605   9.173
 5847SOL    HW218084   2.602   3.528   9.078
 5848SOL     OW18085   3.588   1.997   7.971
 5848SOL    HW118086   3.661   1.980   7.904
 5848SOL    HW218087   3.557   1.910   8.009
 5849SOL     OW18088   3.250   3.435   7.925
 5849SOL    HW118089   3.317   3.447   7.851
 5849SOL    HW218090   3.210   3.524   7.948
 5850SOL     OW18091   1.992   3.656   9.299
 5850SOL    HW118092   1.951   3.582   9.352
 5850SOL    HW218093   2.056   3.707   9.357
 5851SOL     OW18094   3.142   2.789   8.120
 5851SOL    HW118095   3.202   2.708   8.122
 5851SOL    HW218096   3.182   2.858   8.060
 5852SOL     OW18097   2.692   3.135   8.870
 5852SOL    HW118098   2.687   3.168   8.965
 5852SOL    HW218099   2.606   3.154   8.824
 5853SOL     OW18100   2.534   3.478   7.602
 5853SOL    HW118101   2.543   3.488   7.503
 5853SOL    HW218102   2.494   3.389   7.623
 5854SOL     OW18103   3.512   3.582   8.842
 5854SOL    HW118104   3.565   3.592   8.758
 5854SOL    HW218105   3.485   3.672   8.876
 5855SOL     OW18106   3.703   2.037   8.411
 5855SOL    HW118107   3.742   1.952   8.375
 5855SOL    HW218108   3.605   2.039   8.392
 5856SOL     OW18109   3.056   3.474   7.479
 5856SOL    HW118110   3.062   3.381   7.516
 5856SOL    HW218111   2.997   3.474   7.399
 5857SOL     OW18112   2.684   2.864   8.820
 5857SOL    HW118113   2.724   2.863   8.728
 5857SOL    HW218114   2.694   2.956   8.860
 5858SOL     OW18115   2.778   2.772   7.739
 5858SOL    HW118116   2.841   2.810   7.671
 5858SOL    HW218117   2.818   2.689   7.778
 5859SOL     OW18118   3.366   3.469   7.492
 5859SOL    HW118119   3.274   3.506   7.499
 5859SOL    HW218120   3.404   3.489   7.402
 5860SOL     OW18121   2.234   3.150   8.938
 5860SOL    HW118122   2.221   3.243   8.904
 5860SOL    HW218123   2.150   3.098   8.925
 5861SOL     OW18124   3.476   3.154   8.737
 5861SOL    HW118125   3.536   3.157   8.817
 5861SOL    HW218126   3.401   3.218   8.750
 5862SOL     OW18127   2.901   2.960   8.144
 5862SOL    HW118128   2.831   2.913   8.198
 5862SOL    HW218129   2.960   2.892   8.101
 5863SOL     OW18130   2.876   2.098   8.419
 5863SOL    HW118131   2.868   2.062   8.326
 5863SOL    HW218132   2.874   2.022   8.484
 5864SOL     OW18133   2.452   3.349   7.939
 5864SOL    HW118134   2.494   3.291   7.869
 5864SOL    HW218135   2.408   3.428   7.895
 5865SOL     OW18136   3.571   2.247   8.829
 5865SOL    HW118137   3.644   2.316   8.833
 5865SOL    HW218138   3.599   2.172   8.770
 5866SOL     OW18139   2.117   3.210   7.738
 5866SOL    HW118140   2.021   3.211   7.711
 5866SOL    HW218141   2.129   3.263   7.822
 5867SOL     OW18142   1.967   2.875   9.174
 5867SOL    HW118143   1.890   2.842   9.228
 5867SOL    HW218144   2.052   2.845   9.216
 5868SOL     OW18145   2.534   2.065   8.937
 5868SOL    HW118146   2.624   2.049   8.897
 5868SOL    HW218147   2.542   2.070   9.036
 5869SOL     OW18148   1.937   2.207   7.481
 5869SOL    HW118149   1.845   2.179   7.452
 5869SOL    HW218150   1.968   2.284   7.425
 5870SOL     OW18151   3.302   2.718   8.846
 5870SOL    HW118152   3.245   2.770   8.783
 5870SOL    HW218153   3.398   2.730   8.822
 5871SOL     OW18154   3.045   3.197   7.567
 5871SOL    HW118155   2.946   3.186   7.569
 5871SOL    HW218156   3.079   3.212   7.660
 5872SOL     OW18157   2.475   2.704   8.879
 5872SOL    HW118158   2.531   2.785   8.862
 5872SOL    HW218159   2.534   2.624   8.882
 5873SOL     OW18160   3.355   3.629   8.407
 5873SOL    HW118161   3.388   3.693   8.338
 5873SOL    HW218162   3.421   3.623   8.482
 5874SOL     OW18163   2.578   2.427   9.156
 5874SOL    HW118164   2.597   2.492   9.230
 5874SOL    HW218165   2.638   2.347   9.165
 5875SOL     OW18166   3.312   3.082   9.081
 5875SOL    HW118167   3.303   3.072   9.180
 5875SOL    HW218168   3.408   3.075   9.055
 5876SOL     OW18169   2.252   3.603   9.008
 5876SOL    HW118170   2.161   3.644   9.006
 5876SOL    HW218171   2.245   3.509   9.040
 5877SOL     OW18172   3.536   2.745   8.702
 5877SOL    HW118173   3.509   2.656   8.665
 5877SOL    HW218174   3.537   2.813   8.629
 5878SOL     OW18175   3.087   2.187   7.897
 5878SOL    HW118176   3.152   2.113   7.886
 5878SOL    HW218177   3.107   2.237   7.981
 5879SOL     OW18178   2.456   2.607   8.100
 5879SOL    HW118179   2.506   2.692   8.081
 5879SOL    HW218180   2.368   2.609   8.052
 5880SOL     OW18181   3.639   2.204   9.090
 5880SOL    HW118182   3.622   2.235   8.996
 5880SOL    HW218183   3.555   2.167   9.128
 5881SOL     OW18184   3.592   2.796   8.965
 5881SOL    HW118185   3.630   2.887   8.980
 5881SOL    HW218186   3.584   2.779   8.866
 5882SOL     OW18187   2.721   3.236   7.464
 5882SOL    HW118188   2.675   3.251   7.552
 5882SOL    HW218189   2.765   3.321   7.434
 5883SOL     OW18190   2.523   3.652   8.401
 5883SOL    HW118191   2.477   3.740   8.388
 5883SOL    HW218192   2.622   3.664   8.394
 5884SOL     OW18193   2.721   2.818   8.309
 5884SOL    HW118194   2.775   2.749   8.357
 5884SOL    HW218195   2.689   2.887   8.375
 5885SOL     OW18196   2.945   2.846   7.535
 5885SOL    HW118197   2.922   2.899   7.453
 5885SOL    HW218198   3.026   2.790   7.516
 5886SOL     OW18199   3.723   3.431   8.299
 5886SOL    HW118200   3.652   3.419   8.229
 5886SOL    HW218201   3.724   3.352   8.359
 5887SOL     OW18202   2.083   3.176   9.292
 5887SOL    HW118203   2.018   3.103   9.271
 5887SOL    HW218204   2.087   3.190   9.390
 5888SOL     OW18205   1.941   3.102   8.101
 5888SOL    HW118206   1.940   3.055   8.189
 5888SOL    HW218207   2.023   3.074   8.050
 5889SOL     OW18208   2.534   3.253   9.072
 5889SOL    HW118209   2.456   3.203   9.110
 5889SOL    HW218210   2.531   3.348   9.103
 5890SOL     OW18211   3.686   2.054   8.675
 5890SOL    HW118212   3.682   1.964   8.719
 5890SOL    HW218213   3.689   2.043   8.576
 5891SOL     OW18214   2.290   2.286   7.968
 5891SOL    HW118215   2.320   2.214   7.906
 5891SOL    HW218216   2.251   2.246   8.051
 5892SOL     OW18217   3.567   3.349   8.552
 5892SOL    HW118218   3.474   3.324   8.525
 5892SOL    HW218219   3.593   3.299   8.634
 5893SOL     OW18220   2.179   2.409   8.728
 5893SOL    HW118221   2.217   2.350   8.800
 5893SOL    HW218222   2.219   2.383   8.640
 5894SOL     OW18223   2.674   3.448   8.135
 5894SOL    HW118224   2.706   3.458   8.041
 5894SOL    HW218225   2.595   3.386   8.137
 5895SOL     OW18226   3.286   2.076   8.560
 5895SOL    HW118227   3.338   2.011   8.615
 5895SOL    HW218228   3.237   2.139   8.621
 5896SOL     OW18229   2.863   1.896   8.602
 5896SOL    HW118230   2.800   1.824   8.571
 5896SOL    HW218231   2.956   1.860   8.602
 5897SOL     OW18232   2.632   3.192   7.749
 5897SOL    HW118233   2.586   3.105   7.766
 5897SOL    HW218234   2.723   3.189   7.790
 5898SOL     OW18235   2.480   3.429   8.732
 5898SOL    HW118236   2.475   3.511   8.789
 5898SOL    HW218237   2.569   3.426   8.687
 5899SOL     OW18238   3.214   1.914   7.616
 5899SOL    HW118239   3.249   1.873   7.532
 5899SOL    HW218240   3.124   1.876   7.636
 5900SOL     OW18241   3.162   2.315   8.139
 5900SOL    HW118242   3.103   2.395   8.143
 5900SOL    HW218243   3.177   2.280   8.232
 5901SOL     OW18244   3.455   2.083   8.330
 5901SOL    HW118245   3.371   2.082   8.384
 5901SOL    HW218246   3.457   2.166   8.274
 5902SOL     OW18247   1.901   2.939   7.748
 5902SOL    HW118248   2.000   2.928   7.739
 5902SOL    HW218249   1.861   2.853   7.780
 5903SOL     OW18250   2.737   3.508   7.785
 5903SOL    HW118251   2.660   3.473   7.731
 5903SOL    HW218252   2.705   3.579   7.847
 5904SOL     OW18253   2.092   2.490   9.423
 5904SOL    HW118254   1.999   2.488   9.460
 5904SOL    HW218255   2.093   2.451   9.331
 5905SOL     OW18256   1.881   2.230   9.957
 5905SOL    HW118257   1.799   2.273   9.996
 5905SOL    HW218258   1.853   2.157   9.894
 5906SOL     OW18259   2.431   3.137  10.475
 5906SOL    HW118260   2.338   3.130  10.438
 5906SOL    HW218261   2.442   3.226  10.519
 5907SOL     OW18262   3.417   3.373  10.013
 5907SOL    HW118263   3.360   3.357  10.094
 5907SOL    HW218264   3.358   3.383   9.933
 5908SOL     OW18265   2.997   2.565  10.027
 5908SOL    HW118266   3.054   2.643  10.002
 5908SOL    HW218267   2.937   2.591  10.103
 5909SOL     OW18268   3.617   2.469   9.541
 5909SOL    HW118269   3.605   2.456   9.442
 5909SOL    HW218270   3.587   2.388   9.590
 5910SOL     OW18271   2.630   3.006  10.333
 5910SOL    HW118272   2.552   3.023  10.393
 5910SOL    HW218273   2.664   3.093  10.297
 5911SOL     OW18274   2.712   2.660  11.133
 5911SOL    HW118275   2.708   2.736  11.198
 5911SOL    HW218276   2.734   2.696  11.042
 5912SOL     OW18277   2.547   2.874   9.975
 5912SOL    HW118278   2.616   2.858  10.045
 5912SOL    HW218279   2.474   2.931  10.013
 5913SOL     OW18280   2.548   3.023  11.113
 5913SOL    HW118281   2.608   3.102  11.127
 5913SOL    HW218282   2.462   3.054  11.072
 5914SOL     OW18283   2.197   3.297  10.371
 5914SOL    HW118284   2.119   3.266  10.318
 5914SOL    HW218285   2.255   3.355  10.314
 5915SOL     OW18286   3.322   3.367  10.649
 5915SOL    HW118287   3.346   3.461  10.675
 5915SOL    HW218288   3.306   3.313  10.731
 5916SOL     OW18289   2.300   2.254  10.809
 5916SOL    HW118290   2.382   2.198  10.818
 5916SOL    HW218291   2.219   2.196  10.813
 5917SOL     OW18292   3.465   2.309  10.047
 5917SOL    HW118293   3.391   2.355   9.997
 5917SOL    HW218294   3.516   2.377  10.100
 5918SOL     OW18295   2.093   3.575   9.793
 5918SOL    HW118296   2.127   3.652   9.847
 5918SOL    HW218297   2.137   3.575   9.703
 5919SOL     OW18298   2.989   3.203  11.000
 5919SOL    HW118299   3.036   3.203  11.088
 5919SOL    HW218300   2.941   3.116  10.989
 5920SOL     OW18301   2.092   3.296   9.848
 5920SOL    HW118302   2.066   3.392   9.848
 5920SOL    HW218303   2.021   3.242   9.893
 5921SOL     OW18304   2.102   2.953  10.196
 5921SOL    HW118305   2.116   2.869  10.248
 5921SOL    HW218306   2.047   3.017  10.251
 5922SOL     OW18307   2.482   3.648  10.749
 5922SOL    HW118308   2.390   3.631  10.784
 5922SOL    HW218309   2.510   3.740  10.775
 5923SOL     OW18310   2.468   2.826   9.433
 5923SOL    HW118311   2.475   2.910   9.379
 5923SOL    HW218312   2.514   2.839   9.521
 5924SOL     OW18313   3.456   1.976  10.790
 5924SOL    HW118314   3.438   2.043  10.718
 5924SOL    HW218315   3.453   2.022  10.879
 5925SOL     OW18316   1.984   2.505   9.873
 5925SOL    HW118317   1.939   2.417   9.890
 5925SOL    HW218318   1.983   2.559   9.957
 5926SOL     OW18319   3.704   3.629   9.669
 5926SOL    HW118320   3.758   3.600   9.749
 5926SOL    HW218321   3.734   3.719   9.640
 5927SOL     OW18322   1.889   3.458   9.427
 5927SOL    HW118323   1.870   3.362   9.448
 5927SOL    HW218324   1.856   3.516   9.502
 5928SOL     OW18325   3.551   2.784   9.922
 5928SOL    HW118326   3.646   2.755   9.930
 5928SOL    HW218327   3.543   2.849   9.847
 5929SOL     OW18328   3.503   2.970   9.742
 5929SOL    HW118329   3.589   2.972   9.690
 5929SOL    HW218330   3.517   3.017   9.830
 5930SOL     OW18331   1.975   2.599  10.907
 5930SOL    HW118332   2.063   2.586  10.952
 5930SOL    HW218333   1.962   2.696  10.885
 5931SOL     OW18334   2.475   3.227  10.036
 5931SOL    HW118335   2.426   3.140  10.045
 5931SOL    HW218336   2.452   3.270   9.949
 5932SOL     OW18337   3.155   3.090  10.733
 5932SOL    HW118338   3.192   3.017  10.675
 5932SOL    HW218339   3.207   3.095  10.818
 5933SOL     OW18340   2.671   1.866   9.812
 5933SOL    HW118341   2.711   1.957   9.803
 5933SOL    HW218342   2.571   1.874   9.818
 5934SOL     OW18343   2.059   2.838  10.574
 5934SOL    HW118344   2.148   2.793  10.560
 5934SOL    HW218345   1.986   2.773  10.555
 5935SOL     OW18346   3.387   2.861   9.500
 5935SOL    HW118347   3.324   2.785   9.513
 5935SOL    HW218348   3.435   2.879   9.586
 5936SOL     OW18349   3.049   3.654  10.926
 5936SOL    HW118350   3.073   3.714  10.850
 5936SOL    HW218351   3.056   3.559  10.896
 5937SOL     OW18352   2.179   2.113  11.111
 5937SOL    HW118353   2.250   2.184  11.117
 5937SOL    HW218354   2.091   2.152  11.139
 5938SOL     OW18355   3.328   3.279  10.263
 5938SOL    HW118356   3.269   3.285  10.343
 5938SOL    HW218357   3.313   3.191  10.217
 5939SOL     OW18358   3.529   3.576   9.882
 5939SOL    HW118359   3.488   3.553   9.794
 5939SOL    HW218360   3.511   3.502   9.947
 5940SOL     OW18361   2.460   2.591   9.580
 5940SOL    HW118362   2.484   2.660   9.512
 5940SOL    HW218363   2.382   2.624   9.634
 5941SOL     OW18364   3.143   2.207  10.254
 5941SOL    HW118365   3.057   2.157  10.241
 5941SOL    HW218366   3.205   2.153  10.310
 5942SOL     OW18367   3.438   3.524   9.617
 5942SOL    HW118368   3.527   3.570   9.620
 5942SOL    HW218369   3.417   3.500   9.522
 5943SOL     OW18370   2.669   2.467  10.775
 5943SOL    HW118371   2.622   2.464  10.864
 5943SOL    HW218372   2.618   2.412  10.709
 5944SOL     OW18373   3.256   2.331  10.984
 5944SOL    HW118374   3.236   2.374  11.072
 5944SOL    HW218375   3.334   2.269  10.993
 5945SOL     OW18376   2.835   2.752  10.882
 5945SOL    HW118377   2.881   2.668  10.853
 5945SOL    HW218378   2.779   2.786  10.807
 5946SOL     OW18379   2.853   2.272  10.552
 5946SOL    HW118380   2.776   2.306  10.606
 5946SOL    HW218381   2.819   2.221  10.473
 5947SOL     OW18382   2.903   2.563   9.739
 5947SOL    HW118383   2.929   2.559   9.835
 5947SOL    HW218384   2.818   2.512   9.725
 5948SOL     OW18385   1.938   2.673  10.099
 5948SOL    HW118386   2.037   2.661  10.108
 5948SOL    HW218387   1.914   2.768  10.120
 5949SOL     OW18388   1.992   3.683  10.881
 5949SOL    HW118389   1.982   3.668  10.980
 5949SOL    HW218390   1.906   3.719  10.845
 5950SOL     OW18391   2.727   2.210   9.505
 5950SOL    HW118392   2.786   2.273   9.456
 5950SOL    HW218393   2.746   2.116   9.476
 5951SOL     OW18394   3.581   2.447  11.141
 5951SOL    HW118395   3.555   2.536  11.105
 5951SOL    HW218396   3.579   2.379  11.068
 5952SOL     OW18397   3.224   3.006   9.855
 5952SOL    HW118398   3.307   2.977   9.807
 5952SOL    HW218399   3.175   3.073   9.799
 5953SOL     OW18400   2.412   2.058  10.195
 5953SOL    HW118401   2.407   2.053  10.295
 5953SOL    HW218402   2.414   2.154  10.166
 5954SOL     OW18403   2.870   3.318   9.787
 5954SOL    HW118404   2.824   3.390   9.735
 5954SOL    HW218405   2.866   3.338   9.885
 5955SOL     OW18406   2.213   3.663  10.163
 5955SOL    HW118407   2.263   3.577  10.169
 5955SOL    HW218408   2.278   3.740  10.160
 5956SOL     OW18409   3.657   2.928  10.183
 5956SOL    HW118410   3.595   2.913  10.107
 5956SOL    HW218411   3.605   2.939  10.268
 5957SOL     OW18412   3.089   3.412  10.816
 5957SOL    HW118413   3.095   3.335  10.880
 5957SOL    HW218414   3.037   3.386  10.736
 5958SOL     OW18415   2.183   2.805   9.552
 5958SOL    HW118416   2.265   2.844   9.510
 5958SOL    HW218417   2.156   2.723   9.503
 5959SOL     OW18418   3.320   2.597  10.038
 5959SOL    HW118419   3.315   2.532  10.113
 5959SOL    HW218420   3.400   2.656  10.051
 5960SOL     OW18421   2.323   3.128  11.037
 5960SOL    HW118422   2.273   3.129  10.951
 5960SOL    HW218423   2.260   3.110  11.113
 5961SOL     OW18424   2.973   3.638   9.547
 5961SOL    HW118425   2.913   3.576   9.597
 5961SOL    HW218426   3.004   3.594   9.462
 5962SOL     OW18427   3.494   3.239   9.391
 5962SOL    HW118428   3.462   3.333   9.381
 5962SOL    HW218429   3.418   3.176   9.379
 5963SOL     OW18430   2.326   3.605   9.633
 5963SOL    HW118431   2.359   3.644   9.719
 5963SOL    HW218432   2.402   3.598   9.568
 5964SOL     OW18433   3.262   1.969   9.736
 5964SOL    HW118434   3.238   1.932   9.646
 5964SOL    HW218435   3.361   1.985   9.740
 5965SOL     OW18436   2.111   3.647  10.551
 5965SOL    HW118437   2.168   3.582  10.601
 5965SOL    HW218438   2.095   3.614  10.458
 5966SOL     OW18439   2.802   3.560  10.214
 5966SOL    HW118440   2.882   3.503  10.235
 5966SOL    HW218441   2.753   3.520  10.137
 5967SOL     OW18442   2.244   2.562   9.790
 5967SOL    HW118443   2.289   2.472   9.787
 5967SOL    HW218444   2.150   2.551   9.823
 5968SOL     OW18445   3.409   2.084  11.039
 5968SOL    HW118446   3.404   2.121  11.131
 5968SOL    HW218447   3.337   2.015  11.027
 5969SOL     OW18448   2.476   1.984   9.427
 5969SOL    HW118449   2.574   1.962   9.434
 5969SOL    HW218450   2.445   1.967   9.334
 5970SOL     OW18451   2.643   2.126  11.059
 5970SOL    HW118452   2.710   2.065  11.102
 5970SOL    HW218453   2.570   2.145  11.124
 5971SOL     OW18454   2.750   3.376  10.505
 5971SOL    HW118455   2.727   3.351  10.411
 5971SOL    HW218456   2.811   3.307  10.544
 5972SOL     OW18457   3.213   2.452  10.743
 5972SOL    HW118458   3.241   2.409  10.828
 5972SOL    HW218459   3.238   2.548  10.744
 5973SOL     OW18460   2.665   3.264  10.234
 5973SOL    HW118461   2.755   3.278  10.192
 5973SOL    HW218462   2.594   3.266  10.163
 5974SOL     OW18463   2.784   2.365  10.209
 5974SOL    HW118464   2.759   2.356  10.113
 5974SOL    HW218465   2.832   2.283  10.240
 5975SOL     OW18466   2.401   1.926   9.822
 5975SOL    HW118467   2.320   1.927   9.880
 5975SOL    HW218468   2.404   2.009   9.767
 5976SOL     OW18469   3.296   3.050   9.351
 5976SOL    HW118470   3.328   2.974   9.408
 5976SOL    HW218471   3.204   3.077   9.381
 5977SOL     OW18472   2.797   2.098   9.790
 5977SOL    HW118473   2.749   2.139   9.712
 5977SOL    HW218474   2.896   2.096   9.771
 5978SOL     OW18475   2.938   2.545  10.774
 5978SOL    HW118476   2.858   2.484  10.777
 5978SOL    HW218477   3.019   2.492  10.750
 5979SOL     OW18478   3.089   3.432  10.103
 5979SOL    HW118479   3.110   3.506  10.038
 5979SOL    HW218480   3.157   3.432  10.176
 5980SOL     OW18481   2.321   3.014  10.051
 5980SOL    HW118482   2.250   2.987  10.116
 5980SOL    HW218483   2.295   2.986   9.958
 5981SOL     OW18484   3.133   3.659   9.901
 5981SOL    HW118485   3.177   3.723   9.837
 5981SOL    HW218486   3.083   3.711   9.971
 5982SOL     OW18487   2.894   2.411   9.326
 5982SOL    HW118488   2.853   2.493   9.287
 5982SOL    HW218489   2.958   2.437   9.399
 5983SOL     OW18490   1.940   2.418  10.696
 5983SOL    HW118491   2.032   2.417  10.655
 5983SOL    HW218492   1.934   2.492  10.763
 5984SOL     OW18493   2.423   2.084  10.457
 5984SOL    HW118494   2.461   2.000  10.494
 5984SOL    HW218495   2.335   2.103  10.501
 5985SOL     OW18496   2.728   2.316   9.952
 5985SOL    HW118497   2.696   2.388   9.890
 5985SOL    HW218498   2.752   2.235   9.899
 5986SOL     OW18499   2.879   1.901  10.063
 5986SOL    HW118500   2.807   1.906   9.994
 5986SOL    HW218501   2.855   1.832  10.132
 5987SOL     OW18502   3.291   3.035  10.177
 5987SOL    HW118503   3.236   2.951  10.170
 5987SOL    HW218504   3.317   3.064  10.085
 5988SOL     OW18505   3.328   2.452  10.302
 5988SOL    HW118506   3.298   2.357  10.309
 5988SOL    HW218507   3.401   2.468  10.368
 5989SOL     OW18508   3.719   2.695   9.687
 5989SOL    HW118509   3.761   2.631   9.751
 5989SOL    HW218510   3.681   2.644   9.609
 5990SOL     OW18511   2.350   3.247   9.484
 5990SOL    HW118512   2.263   3.232   9.531
 5990SOL    HW218513   2.333   3.273   9.389
 5991SOL     OW18514   3.526   3.142   9.967
 5991SOL    HW118515   3.625   3.150   9.981
 5991SOL    HW218516   3.481   3.226   9.998
 5992SOL     OW18517   3.252   2.437   9.388
 5992SOL    HW118518   3.198   2.416   9.469
 5992SOL    HW218519   3.343   2.396   9.397
 5993SOL     OW18520   2.389   2.118   9.638
 5993SOL    HW118521   2.416   2.059   9.563
 5993SOL    HW218522   2.389   2.213   9.607
 5994SOL     OW18523   3.616   3.085  10.898
 5994SOL    HW118524   3.707   3.046  10.885
 5994SOL    HW218525   3.624   3.181  10.922
 5995SOL     OW18526   2.926   3.209  10.650
 5995SOL    HW118527   2.846   3.186  10.705
 5995SOL    HW218528   3.009   3.183  10.699
 5996SOL     OW18529   3.454   3.491  10.935
 5996SOL    HW118530   3.481   3.525  10.845
 5996SOL    HW218531   3.533   3.453  10.981
 5997SOL     OW18532   2.973   3.057  10.410
 5997SOL    HW118533   2.933   3.101  10.491
 5997SOL    HW218534   2.932   3.094  10.327
 5998SOL     OW18535   3.500   2.961  10.389
 5998SOL    HW118536   3.505   3.042  10.448
 5998SOL    HW218537   3.414   2.963  10.338
 5999SOL     OW18538   2.777   1.951  10.712
 5999SOL    HW118539   2.802   1.931  10.617
 5999SOL    HW218540   2.849   2.007  10.754
 6000SOL     OW18541   2.842   2.978  11.029
 6000SOL    HW118542   2.743   2.984  11.039
 6000SOL    HW218543   2.865   2.898  10.973
 6001SOL     OW18544   2.567   2.912   9.678
 6001SOL    HW118545   2.553   2.919   9.777
 6001SOL    HW218546   2.651   2.861   9.660
 6002SOL     OW18547   2.272   2.675  10.561
 6002SOL    HW118548   2.358   2.687  10.611
 6002SOL    HW218549   2.230   2.588  10.588
 6003SOL     OW18550   3.136   2.248  10.572
 6003SOL    HW118551   3.157   2.322  10.636
 6003SOL    HW218552   3.047   2.265  10.529
 6004SOL     OW18553   1.926   3.426  10.641
 6004SOL    HW118554   1.880   3.508  10.607
 6004SOL    HW218555   2.024   3.445  10.650
 6005SOL     OW18556   2.229   2.962   9.811
 6005SOL    HW118557   2.222   3.045   9.755
 6005SOL    HW218558   2.233   2.882   9.751
 6006SOL     OW18559   2.428   2.399  10.175
 6006SOL    HW118560   2.440   2.465  10.101
 6006SOL    HW218561   2.474   2.433  10.258
 6007SOL     OW18562   3.114   3.210   9.698
 6007SOL    HW118563   3.164   3.287   9.738
 6007SOL    HW218564   3.019   3.212   9.730
 6008SOL     OW18565   3.134   3.307  10.452
 6008SOL    HW118566   3.181   3.320  10.539
 6008SOL    HW218567   3.068   3.233  10.461
 6009SOL     OW18568   3.444   2.501   9.782
 6009SOL    HW118569   3.413   2.562   9.855
 6009SOL    HW218570   3.494   2.553   9.713
 6010SOL     OW18571   2.216   3.372  10.639
 6010SOL    HW118572   2.195   3.328  10.552
 6010SOL    HW218573   2.313   3.398  10.642
 6011SOL     OW18574   2.264   2.613  10.908
 6011SOL    HW118575   2.332   2.668  10.861
 6011SOL    HW218576   2.304   2.525  10.935
 6012SOL     OW18577   3.449   2.641  10.980
 6012SOL    HW118578   3.357   2.679  10.975
 6012SOL    HW218579   3.509   2.688  10.915
 6013SOL     OW18580   2.875   1.967  11.080
 6013SOL    HW118581   2.881   2.052  11.028
 6013SOL    HW218582   2.907   1.891  11.023
 6014SOL     OW18583   2.366   1.912  11.050
 6014SOL    HW118584   2.324   1.855  10.980
 6014SOL    HW218585   2.300   1.981  11.082
 6015SOL     OW18586   2.435   2.732  10.339
 6015SOL    HW118587   2.479   2.821  10.330
 6015SOL    HW218588   2.372   2.732  10.416
 6016SOL     OW18589   3.222   2.724  10.355
 6016SOL    HW118590   3.147   2.724  10.289
 6016SOL    HW218591   3.259   2.632  10.364
 6017SOL     OW18592   3.071   2.387   9.585
 6017SOL    HW118593   3.084   2.303   9.639
 6017SOL    HW218594   3.042   2.461   9.645
 6018SOL     OW18595   1.899   3.172  10.592
 6018SOL    HW118596   1.952   3.123  10.660
 6018SOL    HW218597   1.921   3.270  10.597
 6019SOL     OW18598   2.594   2.496  10.374
 6019SOL    HW118599   2.653   2.470  10.298
 6019SOL    HW218600   2.566   2.592  10.363
 6020SOL     OW18601   3.590   2.797  11.164
 6020SOL    HW118602   3.544   2.790  11.075
 6020SOL    HW218603   3.528   2.841  11.230
 6021SOL     OW18604   3.484   2.229   9.684
 6021SOL    HW118605   3.486   2.153   9.748
 6021SOL    HW218606   3.436   2.306   9.724
 6022SOL     OW18607   2.885   2.628  10.276
 6022SOL    HW118608   2.900   2.649  10.372
 6022SOL    HW218609   2.855   2.533  10.267
 6023SOL     OW18610   2.842   3.435  11.010
 6023SOL    HW118611   2.822   3.479  10.922
 6023SOL    HW218612   2.881   3.344  10.994
 6024SOL     OW18613   3.721   3.380  10.915
 6024SOL    HW118614   3.735   3.407  10.820
 6024SOL    HW218615   3.804   3.402  10.968
 6025SOL     OW18616   2.212   2.760  11.114
 6025SOL    HW118617   2.288   2.804  11.162
 6025SOL    HW218618   2.247   2.713  11.032
 6026SOL     OW18619   3.402   2.136   9.435
 6026SOL    HW118620   3.341   2.061   9.458
 6026SOL    HW218621   3.424   2.188   9.518
 6027SOL     OW18622   3.165   2.700   9.352
 6027SOL    HW118623   3.199   2.607   9.367
 6027SOL    HW218624   3.183   2.727   9.257
 6028SOL     OW18625   2.930   3.195  10.159
 6028SOL    HW118626   2.937   3.111  10.104
 6028SOL    HW218627   2.992   3.264  10.123
 6029SOL     OW18628   2.181   2.672  10.259
 6029SOL    HW118629   2.274   2.708  10.264
 6029SOL    HW218630   2.175   2.587  10.311
 6030SOL     OW18631   2.201   2.371  10.316
 6030SOL    HW118632   2.149   2.288  10.299
 6030SOL    HW218633   2.278   2.376  10.252
 6031SOL     OW18634   3.000   2.242  10.988
 6031SOL    HW118635   2.955   2.305  11.052
 6031SOL    HW218636   3.093   2.273  10.971
 6032SOL     OW18637   3.022   2.069  10.787
 6032SOL    HW118638   3.022   2.133  10.864
 6032SOL    HW218639   3.050   2.117  10.704
 6033SOL     OW18640   1.870   3.188   9.510
 6033SOL    HW118641   1.777   3.209   9.479
 6033SOL    HW218642   1.880   3.089   9.523
 6034SOL     OW18643   1.950   3.663  10.237
 6034SOL    HW118644   1.908   3.577  10.210
 6034SOL    HW218645   2.044   3.666  10.203
 6035SOL     OW18646   2.366   3.430  10.220
 6035SOL    HW118647   2.432   3.504  10.229
 6035SOL    HW218648   2.410   3.351  10.178
 6036SOL     OW18649   2.864   2.658  10.548
 6036SOL    HW118650   2.905   2.626  10.634
 6036SOL    HW218651   2.768   2.631  10.545
 6037SOL     OW18652   1.902   2.406  10.424
 6037SOL    HW118653   1.987   2.373  10.383
 6037SOL    HW218654   1.915   2.421  10.522
 6038SOL     OW18655   2.051   2.382  11.032
 6038SOL    HW118656   2.110   2.342  10.962
 6038SOL    HW218657   1.993   2.453  10.991
 6039SOL     OW18658   3.231   2.812  10.970
 6039SOL    HW118659   3.270   2.901  10.990
 6039SOL    HW218660   3.241   2.792  10.873
 6040SOL     OW18661   2.677   2.434   9.635
 6040SOL    HW118662   2.684   2.345   9.589
 6040SOL    HW218663   2.583   2.468   9.627
 6041SOL     OW18664   3.519   2.466  10.516
 6041SOL    HW118665   3.481   2.397  10.578
 6041SOL    HW218666   3.601   2.430  10.472
 6042SOL     OW18667   2.114   3.426  11.054
 6042SOL    HW118668   2.084   3.483  11.130
 6042SOL    HW218669   2.107   3.329  11.080
 6043SOL     OW18670   2.533   2.326  10.579
 6043SOL    HW118671   2.499   2.237  10.549
 6043SOL    HW218672   2.559   2.380  10.499
 6044SOL     OW18673   2.792   3.540  10.775
 6044SOL    HW118674   2.768   3.522  10.680
 6044SOL    HW218675   2.822   3.634  10.785
 6045SOL     OW18676   2.335   2.362   9.501
 6045SOL    HW118677   2.396   2.442   9.505
 6045SOL    HW218678   2.240   2.393   9.508
 6046SOL     OW18679   2.021   2.999  10.776
 6046SOL    HW118680   2.043   2.938  10.852
 6046SOL    HW218681   2.031   2.950  10.690
 6047SOL     OW18682   3.209   2.921  10.544
 6047SOL    HW118683   3.233   2.858  10.470
 6047SOL    HW218684   3.119   2.961  10.526
 6048SOL     OW18685   3.164   2.717   9.619
 6048SOL    HW118686   3.078   2.686   9.661
 6048SOL    HW218687   3.160   2.703   9.520
 6049SOL     OW18688   3.621   3.609  10.464
 6049SOL    HW118689   3.682   3.639  10.391
 6049SOL    HW218690   3.583   3.520  10.442
 6050SOL     OW18691   3.114   3.593  10.438
 6050SOL    HW118692   3.198   3.598  10.384
 6050SOL    HW218693   3.091   3.497  10.456
 6051SOL     OW18694   1.945   3.120  10.332
 6051SOL    HW118695   1.940   3.119  10.432
 6051SOL    HW218696   1.862   3.079  10.294
 6052SOL     OW18697   2.550   3.524  11.026
 6052SOL    HW118698   2.494   3.605  11.035
 6052SOL    HW218699   2.602   3.528  10.940
 6053SOL     OW18700   3.588   1.997   9.833
 6053SOL    HW118701   3.661   1.980   9.766
 6053SOL    HW218702   3.557   1.910   9.871
 6054SOL     OW18703   3.250   3.435   9.787
 6054SOL    HW118704   3.317   3.447   9.713
 6054SOL    HW218705   3.210   3.524   9.810
 6055SOL     OW18706   1.992   3.656  11.161
 6055SOL    HW118707   1.951   3.582  11.214
 6055SOL    HW218708   2.056   3.707  11.219
 6056SOL     OW18709   3.142   2.789   9.982
 6056SOL    HW118710   3.202   2.708   9.984
 6056SOL    HW218711   3.182   2.858   9.922
 6057SOL     OW18712   2.692   3.135  10.732
 6057SOL    HW118713   2.687   3.168  10.827
 6057SOL    HW218714   2.606   3.154  10.686
 6058SOL     OW18715   2.534   3.478   9.464
 6058SOL    HW118716   2.543   3.488   9.365
 6058SOL    HW218717   2.494   3.389   9.485
 6059SOL     OW18718   3.512   3.582  10.704
 6059SOL    HW118719   3.565   3.592  10.620
 6059SOL    HW218720   3.485   3.672  10.738
 6060SOL     OW18721   3.703   2.037  10.273
 6060SOL    HW118722   3.742   1.952  10.237
 6060SOL    HW218723   3.605   2.039  10.254
 6061SOL     OW18724   3.056   3.474   9.341
 6061SOL    HW118725   3.062   3.381   9.378
 6061SOL    HW218726   2.997   3.474   9.261
 6062SOL     OW18727   2.684   2.864  10.682
 6062SOL    HW118728   2.724   2.863  10.590
 6062SOL    HW218729   2.694   2.956  10.722
 6063SOL     OW18730   2.778   2.772   9.601
 6063SOL    HW118731   2.841   2.810   9.533
 6063SOL    HW218732   2.818   2.689   9.640
 6064SOL     OW18733   3.366   3.469   9.354
 6064SOL    HW118734   3.274   3.506   9.361
 6064SOL    HW218735   3.404   3.489   9.264
 6065SOL     OW18736   2.234   3.150  10.800
 6065SOL    HW118737   2.221   3.243  10.766
 6065SOL    HW218738   2.150   3.098  10.787
 6066SOL     OW18739   3.476   3.154  10.599
 6066SOL    HW118740   3.536   3.157  10.679
 6066SOL    HW218741   3.401   3.218  10.612
 6067SOL     OW18742   2.901   2.960  10.006
 6067SOL    HW118743   2.831   2.913  10.060
 6067SOL    HW218744   2.960   2.892   9.963
 6068SOL     OW18745   2.876   2.098  10.281
 6068SOL    HW118746   2.868   2.062  10.188
 6068SOL    HW218747   2.874   2.022  10.346
 6069SOL     OW18748   2.452   3.349   9.801
 6069SOL    HW118749   2.494   3.291   9.731
 6069SOL    HW218750   2.408   3.428   9.757
 6070SOL     OW18751   3.571   2.247  10.691
 6070SOL    HW118752   3.644   2.316  10.695
 6070SOL    HW218753   3.599   2.172  10.632
 6071SOL     OW18754   2.117   3.210   9.600
 6071SOL    HW118755   2.021   3.211   9.573
 6071SOL    HW218756   2.129   3.263   9.684
 6072SOL     OW18757   1.967   2.875  11.036
 6072SOL    HW118758   1.890   2.842  11.090
 6072SOL    HW218759   2.052   2.845  11.078
 6073SOL     OW18760   2.534   2.065  10.799
 6073SOL    HW118761   2.624   2.049  10.759
 6073SOL    HW218762   2.542   2.070  10.898
 6074SOL     OW18763   3.302   2.718  10.708
 6074SOL    HW118764   3.245   2.770  10.645
 6074SOL    HW218765   3.398   2.730  10.684
 6075SOL     OW18766   3.045   3.197   9.429
 6075SOL    HW118767   2.946   3.186   9.431
 6075SOL    HW218768   3.079   3.212   9.522
 6076SOL     OW18769   2.475   2.704  10.741
 6076SOL    HW118770   2.531   2.785  10.724
 6076SOL    HW218771   2.534   2.624  10.744
 6077SOL     OW18772   3.355   3.629  10.269
 6077SOL    HW118773   3.388   3.693  10.200
 6077SOL    HW218774   3.421   3.623  10.344
 6078SOL     OW18775   2.578   2.427  11.018
 6078SOL    HW118776   2.597   2.492  11.092
 6078SOL    HW218777   2.638   2.347  11.027
 6079SOL     OW18778   3.312   3.082  10.943
 6079SOL    HW118779   3.303   3.072  11.042
 6079SOL    HW218780   3.408   3.075  10.917
 6080SOL     OW18781   2.252   3.603  10.870
 6080SOL    HW118782   2.161   3.644  10.868
 6080SOL    HW218783   2.245   3.509  10.902
 6081SOL     OW18784   3.536   2.745  10.564
 6081SOL    HW118785   3.509   2.656  10.527
 6081SOL    HW218786   3.537   2.813  10.491
 6082SOL     OW18787   3.087   2.187   9.759
 6082SOL    HW118788   3.152   2.113   9.748
 6082SOL    HW218789   3.107   2.237   9.843
 6083SOL     OW18790   2.456   2.607   9.962
 6083SOL    HW118791   2.506   2.692   9.943
 6083SOL    HW218792   2.368   2.609   9.914
 6084SOL     OW18793   3.639   2.204  10.952
 6084SOL    HW118794   3.622   2.235  10.858
 6084SOL    HW218795   3.555   2.167  10.990
 6085SOL     OW18796   3.592   2.796  10.827
 6085SOL    HW118797   3.630   2.887  10.842
 6085SOL    HW218798   3.584   2.779  10.728
 6086SOL     OW18799   2.721   3.236   9.326
 6086SOL    HW118800   2.675   3.251   9.414
 6086SOL    HW218801   2.765   3.321   9.296
 6087SOL     OW18802   2.523   3.652  10.263
 6087SOL    HW118803   2.477   3.740  10.250
 6087SOL    HW218804   2.622   3.664  10.256
 6088SOL     OW18805   2.721   2.818  10.171
 6088SOL    HW118806   2.775   2.749  10.219
 6088SOL    HW218807   2.689   2.887  10.237
 6089SOL     OW18808   2.945   2.846   9.397
 6089SOL    HW118809   2.922   2.899   9.315
 6089SOL    HW218810   3.026   2.790   9.378
 6090SOL     OW18811   3.723   3.431  10.161
 6090SOL    HW118812   3.652   3.419  10.091
 6090SOL    HW218813   3.724   3.352  10.221
 6091SOL     OW18814   2.083   3.176  11.154
 6091SOL    HW118815   2.018   3.103  11.133
 6091SOL    HW218816   2.087   3.190  11.252
 6092SOL     OW18817   1.941   3.102   9.963
 6092SOL    HW118818   1.940   3.055  10.051
 6092SOL    HW218819   2.023   3.074   9.912
 6093SOL     OW18820   2.534   3.253  10.934
 6093SOL    HW118821   2.456   3.203  10.972
 6093SOL    HW218822   2.531   3.348  10.965
 6094SOL     OW18823   3.686   2.054  10.537
 6094SOL    HW118824   3.682   1.964  10.581
 6094SOL    HW218825   3.689   2.043  10.438
 6095SOL     OW18826   2.290   2.286   9.830
 6095SOL    HW118827   2.320   2.214   9.768
 6095SOL    HW218828   2.251   2.246   9.913
 6096SOL     OW18829   3.567   3.349  10.414
 6096SOL    HW118830   3.474   3.324  10.387
 6096SOL    HW218831   3.593   3.299  10.496
 6097SOL     OW18832   2.179   2.409  10.590
 6097SOL    HW118833   2.217   2.350  10.662
 6097SOL    HW218834   2.219   2.383  10.502
 6098SOL     OW18835   2.674   3.448   9.997
 6098SOL    HW118836   2.706   3.458   9.903
 6098SOL    HW218837   2.595   3.386   9.999
 6099SOL     OW18838   3.286   2.076  10.422
 6099SOL    HW118839   3.338   2.011  10.477
 6099SOL    HW218840   3.237   2.139  10.483
 6100SOL     OW18841   2.863   1.896  10.464
 6100SOL    HW118842   2.800   1.824  10.433
 6100SOL    HW218843   2.956   1.860  10.464
 6101SOL     OW18844   2.632   3.192   9.611
 6101SOL    HW118845   2.586   3.105   9.628
 6101SOL    HW218846   2.723   3.189   9.652
 6102SOL     OW18847   2.480   3.429  10.594
 6102SOL    HW118848   2.475   3.511  10.651
 6102SOL    HW218849   2.569   3.426  10.549
 6103SOL     OW18850   3.214   1.914   9.478
 6103SOL    HW118851   3.249   1.873   9.394
 6103SOL    HW218852   3.124   1.876   9.498
 6104SOL     OW18853   3.162   2.315  10.001
 6104SOL    HW118854   3.103   2.395  10.005
 6104SOL    HW218855   3.177   2.280  10.094
 6105SOL     OW18856   3.455   2.083  10.192
 6105SOL    HW118857   3.371   2.082  10.246
 6105SOL    HW218858   3.457   2.166  10.136
 6106SOL     OW18859   1.901   2.939   9.610
 6106SOL    HW118860   2.000   2.928   9.601
 6106SOL    HW218861   1.861   2.853   9.642
 6107SOL     OW18862   2.737   3.508   9.647
 6107SOL    HW118863   2.660   3.473   9.593
 6107SOL    HW218864   2.705   3.579   9.709
 6108SOL     OW18865   2.092   2.490  11.285
 6108SOL    HW118866   1.999   2.488  11.322
 6108SOL    HW218867   2.093   2.451  11.193
 6109SOL     OW18868   1.881   2.230  11.819
 6109SOL    HW118869   1.799   2.273  11.858
 6109SOL    HW218870   1.853   2.157  11.756
 6110SOL     OW18871   2.431   3.137  12.337
 6110SOL    HW118872   2.338   3.130  12.300
 6110SOL    HW218873   2.442   3.226  12.381
 6111SOL     OW18874   3.417   3.373  11.875
 6111SOL    HW118875   3.360   3.357  11.956
 6111SOL    HW218876   3.358   3.383  11.795
 6112SOL     OW18877   2.997   2.565  11.889
 6112SOL    HW118878   3.054   2.643  11.864
 6112SOL    HW218879   2.937   2.591  11.965
 6113SOL     OW18880   3.617   2.469  11.403
 6113SOL    HW118881   3.605   2.456  11.304
 6113SOL    HW218882   3.587   2.388  11.452
 6114SOL     OW18883   2.630   3.006  12.195
 6114SOL    HW118884   2.552   3.023  12.255
 6114SOL    HW218885   2.664   3.093  12.159
 6115SOL     OW18886   2.712   2.660  12.995
 6115SOL    HW118887   2.708   2.736  13.060
 6115SOL    HW218888   2.734   2.696  12.904
 6116SOL     OW18889   2.547   2.874  11.837
 6116SOL    HW118890   2.616   2.858  11.907
 6116SOL    HW218891   2.474   2.931  11.875
 6117SOL     OW18892   2.548   3.023  12.975
 6117SOL    HW118893   2.608   3.102  12.989
 6117SOL    HW218894   2.462   3.054  12.934
 6118SOL     OW18895   2.197   3.297  12.233
 6118SOL    HW118896   2.119   3.266  12.180
 6118SOL    HW218897   2.255   3.355  12.176
 6119SOL     OW18898   3.322   3.367  12.511
 6119SOL    HW118899   3.346   3.461  12.537
 6119SOL    HW218900   3.306   3.313  12.593
 6120SOL     OW18901   2.300   2.254  12.671
 6120SOL    HW118902   2.382   2.198  12.680
 6120SOL    HW218903   2.219   2.196  12.675
 6121SOL     OW18904   3.465   2.309  11.909
 6121SOL    HW118905   3.391   2.355  11.859
 6121SOL    HW218906   3.516   2.377  11.962
 6122SOL     OW18907   2.093   3.575  11.655
 6122SOL    HW118908   2.127   3.652  11.709
 6122SOL    HW218909   2.137   3.575  11.565
 6123SOL     OW18910   2.989   3.203  12.862
 6123SOL    HW118911   3.036   3.203  12.950
 6123SOL    HW218912   2.941   3.116  12.851
 6124SOL     OW18913   2.092   3.296  11.710
 6124SOL    HW118914   2.066   3.392  11.710
 6124SOL    HW218915   2.021   3.242  11.755
 6125SOL     OW18916   2.102   2.953  12.058
 6125SOL    HW118917   2.116   2.869  12.110
 6125SOL    HW218918   2.047   3.017  12.113
 6126SOL     OW18919   2.482   3.648  12.611
 6126SOL    HW118920   2.390   3.631  12.646
 6126SOL    HW218921   2.510   3.740  12.637
 6127SOL     OW18922   2.468   2.826  11.295
 6127SOL    HW118923   2.475   2.910  11.241
 6127SOL    HW218924   2.514   2.839  11.383
 6128SOL     OW18925   3.456   1.976  12.652
 6128SOL    HW118926   3.438   2.043  12.580
 6128SOL    HW218927   3.453   2.022  12.741
 6129SOL     OW18928   1.984   2.505  11.735
 6129SOL    HW118929   1.939   2.417  11.752
 6129SOL    HW218930   1.983   2.559  11.819
 6130SOL     OW18931   3.704   3.629  11.531
 6130SOL    HW118932   3.758   3.600  11.611
 6130SOL    HW218933   3.734   3.719  11.502
 6131SOL     OW18934   1.889   3.458  11.289
 6131SOL    HW118935   1.870   3.362  11.310
 6131SOL    HW218936   1.856   3.516  11.364
 6132SOL     OW18937   3.551   2.784  11.784
 6132SOL    HW118938   3.646   2.755  11.792
 6132SOL    HW218939   3.543   2.849  11.709
 6133SOL     OW18940   3.503   2.970  11.604
 6133SOL    HW118941   3.589   2.972  11.552
 6133SOL    HW218942   3.517   3.017  11.692
 6134SOL     OW18943   1.975   2.599  12.769
 6134SOL    HW118944   2.063   2.586  12.814
 6134SOL    HW218945   1.962   2.696  12.747
 6135SOL     OW18946   2.475   3.227  11.898
 6135SOL    HW118947   2.426   3.140  11.907
 6135SOL    HW218948   2.452   3.270  11.811
 6136SOL     OW18949   3.155   3.090  12.595
 6136SOL    HW118950   3.192   3.017  12.537
 6136SOL    HW218951   3.207   3.095  12.680
 6137SOL     OW18952   2.671   1.866  11.674
 6137SOL    HW118953   2.711   1.957  11.665
 6137SOL    HW218954   2.571   1.874  11.680
 6138SOL     OW18955   2.059   2.838  12.436
 6138SOL    HW118956   2.148   2.793  12.422
 6138SOL    HW218957   1.986   2.773  12.417
 6139SOL     OW18958   3.387   2.861  11.362
 6139SOL    HW118959   3.324   2.785  11.375
 6139SOL    HW218960   3.435   2.879  11.448
 6140SOL     OW18961   3.049   3.654  12.788
 6140SOL    HW118962   3.073   3.714  12.712
 6140SOL    HW218963   3.056   3.559  12.758
 6141SOL     OW18964   2.179   2.113  12.973
 6141SOL    HW118965   2.250   2.184  12.979
 6141SOL    HW218966   2.091   2.152  13.001
 6142SOL     OW18967   3.328   3.279  12.125
 6142SOL    HW118968   3.269   3.285  12.205
 6142SOL    HW218969   3.313   3.191  12.079
 6143SOL     OW18970   3.529   3.576  11.744
 6143SOL    HW118971   3.488   3.553  11.656
 6143SOL    HW218972   3.511   3.502  11.809
 6144SOL     OW18973   2.460   2.591  11.442
 6144SOL    HW118974   2.484   2.660  11.374
 6144SOL    HW218975   2.382   2.624  11.496
 6145SOL     OW18976   3.143   2.207  12.116
 6145SOL    HW118977   3.057   2.157  12.103
 6145SOL    HW218978   3.205   2.153  12.172
 6146SOL     OW18979   3.438   3.524  11.479
 6146SOL    HW118980   3.527   3.570  11.482
 6146SOL    HW218981   3.417   3.500  11.384
 6147SOL     OW18982   2.669   2.467  12.637
 6147SOL    HW118983   2.622   2.464  12.726
 6147SOL    HW218984   2.618   2.412  12.571
 6148SOL     OW18985   3.256   2.331  12.846
 6148SOL    HW118986   3.236   2.374  12.934
 6148SOL    HW218987   3.334   2.269  12.855
 6149SOL     OW18988   2.835   2.752  12.744
 6149SOL    HW118989   2.881   2.668  12.715
 6149SOL    HW218990   2.779   2.786  12.669
 6150SOL     OW18991   2.853   2.272  12.414
 6150SOL    HW118992   2.776   2.306  12.468
 6150SOL    HW218993   2.819   2.221  12.335
 6151SOL     OW18994   2.903   2.563  11.601
 6151SOL    HW118995   2.929   2.559  11.697
 6151SOL    HW218996   2.818   2.512  11.587
 6152SOL     OW18997   1.938   2.673  11.961
 6152SOL    HW118998   2.037   2.661  11.970
 6152SOL    HW218999   1.914   2.768  11.982
 6153SOL     OW19000   1.992   3.683  12.743
 6153SOL    HW119001   1.982   3.668  12.842
 6153SOL    HW219002   1.906   3.719  12.707
 6154SOL     OW19003   2.727   2.210  11.367
 6154SOL    HW119004   2.786   2.273  11.318
 6154SOL    HW219005   2.746   2.116  11.338
 6155SOL     OW19006   3.581   2.447  13.003
 6155SOL    HW119007   3.555   2.536  12.967
 6155SOL    HW219008   3.579   2.379  12.930
 6156SOL     OW19009   3.224   3.006  11.717
 6156SOL    HW119010   3.307   2.977  11.669
 6156SOL    HW219011   3.175   3.073  11.661
 6157SOL     OW19012   2.412   2.058  12.057
 6157SOL    HW119013   2.407   2.053  12.157
 6157SOL    HW219014   2.414   2.154  12.028
 6158SOL     OW19015   2.870   3.318  11.649
 6158SOL    HW119016   2.824   3.390  11.597
 6158SOL    HW219017   2.866   3.338  11.747
 6159SOL     OW19018   2.213   3.663  12.025
 6159SOL    HW119019   2.263   3.577  12.031
 6159SOL    HW219020   2.278   3.740  12.022
 6160SOL     OW19021   3.657   2.928  12.045
 6160SOL    HW119022   3.595   2.913  11.969
 6160SOL    HW219023   3.605   2.939  12.130
 6161SOL     OW19024   3.089   3.412  12.678
 6161SOL    HW119025   3.095   3.335  12.742
 6161SOL    HW219026   3.037   3.386  12.598
 6162SOL     OW19027   2.183   2.805  11.414
 6162SOL    HW119028   2.265   2.844  11.372
 6162SOL    HW219029   2.156   2.723  11.365
 6163SOL     OW19030   3.320   2.597  11.900
 6163SOL    HW119031   3.315   2.532  11.975
 6163SOL    HW219032   3.400   2.656  11.913
 6164SOL     OW19033   2.323   3.128  12.899
 6164SOL    HW119034   2.273   3.129  12.813
 6164SOL    HW219035   2.260   3.110  12.975
 6165SOL     OW19036   2.973   3.638  11.409
 6165SOL    HW119037   2.913   3.576  11.459
 6165SOL    HW219038   3.004   3.594  11.324
 6166SOL     OW19039   3.494   3.239  11.253
 6166SOL    HW119040   3.462   3.333  11.243
 6166SOL    HW219041   3.418   3.176  11.241
 6167SOL     OW19042   2.326   3.605  11.495
 6167SOL    HW119043   2.359   3.644  11.581
 6167SOL    HW219044   2.402   3.598  11.430
 6168SOL     OW19045   3.262   1.969  11.598
 6168SOL    HW119046   3.238   1.932  11.508
 6168SOL    HW219047   3.361   1.985  11.602
 6169SOL     OW19048   2.111   3.647  12.413
 6169SOL    HW119049   2.168   3.582  12.463
 6169SOL    HW219050   2.095   3.614  12.320
 6170SOL     OW19051   2.802   3.560  12.076
 6170SOL    HW119052   2.882   3.503  12.097
 6170SOL    HW219053   2.753   3.520  11.999
 6171SOL     OW19054   2.244   2.562  11.652
 6171SOL    HW119055   2.289   2.472  11.649
 6171SOL    HW219056   2.150   2.551  11.685
 6172SOL     OW19057   3.409   2.084  12.901
 6172SOL    HW119058   3.404   2.121  12.993
 6172SOL    HW219059   3.337   2.015  12.889
 6173SOL     OW19060   2.476   1.984  11.289
 6173SOL    HW119061   2.574   1.962  11.296
 6173SOL    HW219062   2.445   1.967  11.196
 6174SOL     OW19063   2.643   2.126  12.921
 6174SOL    HW119064   2.710   2.065  12.964
 6174SOL    HW219065   2.570   2.145  12.986
 6175SOL     OW19066   2.750   3.376  12.367
 6175SOL    HW119067   2.727   3.351  12.273
 6175SOL    HW219068   2.811   3.307  12.406
 6176SOL     OW19069   3.213   2.452  12.605
 6176SOL    HW119070   3.241   2.409  12.690
 6176SOL    HW219071   3.238   2.548  12.606
 6177SOL     OW19072   2.665   3.264  12.096
 6177SOL    HW119073   2.755   3.278  12.054
 6177SOL    HW219074   2.594   3.266  12.025
 6178SOL     OW19075   2.784   2.365  12.071
 6178SOL    HW119076   2.759   2.356  11.975
 6178SOL    HW219077   2.832   2.283  12.102
 6179SOL     OW19078   2.401   1.926  11.684
 6179SOL    HW119079   2.320   1.927  11.742
 6179SOL    HW219080   2.404   2.009  11.629
 6180SOL     OW19081   3.296   3.050  11.213
 6180SOL    HW119082   3.328   2.974  11.270
 6180SOL    HW219083   3.204   3.077  11.243
 6181SOL     OW19084   2.797   2.098  11.652
 6181SOL    HW119085   2.749   2.139  11.574
 6181SOL    HW219086   2.896   2.096  11.633
 6182SOL     OW19087   2.938   2.545  12.636
 6182SOL    HW119088   2.858   2.484  12.639
 6182SOL    HW219089   3.019   2.492  12.612
 6183SOL     OW19090   3.089   3.432  11.965
 6183SOL    HW119091   3.110   3.506  11.900
 6183SOL    HW219092   3.157   3.432  12.038
 6184SOL     OW19093   2.321   3.014  11.913
 6184SOL    HW119094   2.250   2.987  11.978
 6184SOL    HW219095   2.295   2.986  11.820
 6185SOL     OW19096   3.133   3.659  11.763
 6185SOL    HW119097   3.177   3.723  11.699
 6185SOL    HW219098   3.083   3.711  11.833
 6186SOL     OW19099   2.894   2.411  11.188
 6186SOL    HW119100   2.853   2.493  11.149
 6186SOL    HW219101   2.958   2.437  11.261
 6187SOL     OW19102   1.940   2.418  12.558
 6187SOL    HW119103   2.032   2.417  12.517
 6187SOL    HW219104   1.934   2.492  12.625
 6188SOL     OW19105   2.423   2.084  12.319
 6188SOL    HW119106   2.461   2.000  12.356
 6188SOL    HW219107   2.335   2.103  12.363
 6189SOL     OW19108   2.728   2.316  11.814
 6189SOL    HW119109   2.696   2.388  11.752
 6189SOL    HW219110   2.752   2.235  11.761
 6190SOL     OW19111   2.879   1.901  11.925
 6190SOL    HW119112   2.807   1.906  11.856
 6190SOL    HW219113   2.855   1.832  11.994
 6191SOL     OW19114   3.291   3.035  12.039
 6191SOL    HW119115   3.236   2.951  12.032
 6191SOL    HW219116   3.317   3.064  11.947
 6192SOL     OW19117   3.328   2.452  12.164
 6192SOL    HW119118   3.298   2.357  12.171
 6192SOL    HW219119   3.401   2.468  12.230
 6193SOL     OW19120   3.719   2.695  11.549
 6193SOL    HW119121   3.761   2.631  11.613
 6193SOL    HW219122   3.681   2.644  11.471
 6194SOL     OW19123   2.350   3.247  11.346
 6194SOL    HW119124   2.263   3.232  11.393
 6194SOL    HW219125   2.333   3.273  11.251
 6195SOL     OW19126   3.526   3.142  11.829
 6195SOL    HW119127   3.625   3.150  11.843
 6195SOL    HW219128   3.481   3.226  11.860
 6196SOL     OW19129   3.252   2.437  11.250
 6196SOL    HW119130   3.198   2.416  11.331
 6196SOL    HW219131   3.343   2.396  11.259
 6197SOL     OW19132   2.389   2.118  11.500
 6197SOL    HW119133   2.416   2.059  11.425
 6197SOL    HW219134   2.389   2.213  11.469
 6198SOL     OW19135   3.616   3.085  12.760
 6198SOL    HW119136   3.707   3.046  12.747
 6198SOL    HW219137   3.624   3.181  12.784
 6199SOL     OW19138   2.926   3.209  12.512
 6199SOL    HW119139   2.846   3.186  12.567
 6199SOL    HW219140   3.009   3.183  12.561
 6200SOL     OW19141   3.454   3.491  12.797
 6200SOL    HW119142   3.481   3.525  12.707
 6200SOL    HW219143   3.533   3.453  12.843
 6201SOL     OW19144   2.973   3.057  12.272
 6201SOL    HW119145   2.933   3.101  12.353
 6201SOL    HW219146   2.932   3.094  12.189
 6202SOL     OW19147   3.500   2.961  12.251
 6202SOL    HW119148   3.505   3.042  12.310
 6202SOL    HW219149   3.414   2.963  12.200
 6203SOL     OW19150   2.777   1.951  12.574
 6203SOL    HW119151   2.802   1.931  12.479
 6203SOL    HW219152   2.849   2.007  12.616
 6204SOL     OW19153   2.842   2.978  12.891
 6204SOL    HW119154   2.743   2.984  12.901
 6204SOL    HW219155   2.865   2.898  12.835
 6205SOL     OW19156   2.567   2.912  11.540
 6205SOL    HW119157   2.553   2.919  11.639
 6205SOL    HW219158   2.651   2.861  11.522
 6206SOL     OW19159   2.272   2.675  12.423
 6206SOL    HW119160   2.358   2.687  12.473
 6206SOL    HW219161   2.230   2.588  12.450
 6207SOL     OW19162   3.136   2.248  12.434
 6207SOL    HW119163   3.157   2.322  12.498
 6207SOL    HW219164   3.047   2.265  12.391
 6208SOL     OW19165   1.926   3.426  12.503
 6208SOL    HW119166   1.880   3.508  12.469
 6208SOL    HW219167   2.024   3.445  12.512
 6209SOL     OW19168   2.229   2.962  11.673
 6209SOL    HW119169   2.222   3.045  11.617
 6209SOL    HW219170   2.233   2.882  11.613
 6210SOL     OW19171   2.428   2.399  12.037
 6210SOL    HW119172   2.440   2.465  11.963
 6210SOL    HW219173   2.474   2.433  12.120
 6211SOL     OW19174   3.114   3.210  11.560
 6211SOL    HW119175   3.164   3.287  11.600
 6211SOL    HW219176   3.019   3.212  11.592
 6212SOL     OW19177   3.134   3.307  12.314
 6212SOL    HW119178   3.181   3.320  12.401
 6212SOL    HW219179   3.068   3.233  12.323
 6213SOL     OW19180   3.444   2.501  11.644
 6213SOL    HW119181   3.413   2.562  11.717
 6213SOL    HW219182   3.494   2.553  11.575
 6214SOL     OW19183   2.216   3.372  12.501
 6214SOL    HW119184   2.195   3.328  12.414
 6214SOL    HW219185   2.313   3.398  12.504
 6215SOL     OW19186   2.264   2.613  12.770
 6215SOL    HW119187   2.332   2.668  12.723
 6215SOL    HW219188   2.304   2.525  12.797
 6216SOL     OW19189   3.449   2.641  12.842
 6216SOL    HW119190   3.357   2.679  12.837
 6216SOL    HW219191   3.509   2.688  12.777
 6217SOL     OW19192   2.875   1.967  12.942
 6217SOL    HW119193   2.881   2.052  12.890
 6217SOL    HW219194   2.907   1.891  12.885
 6218SOL     OW19195   2.366   1.912  12.912
 6218SOL    HW119196   2.324   1.855  12.842
 6218SOL    HW219197   2.300   1.981  12.944
 6219SOL     OW19198   2.435   2.732  12.201
 6219SOL    HW119199   2.479   2.821  12.192
 6219SOL    HW219200   2.372   2.732  12.278
 6220SOL     OW19201   3.222   2.724  12.217
 6220SOL    HW119202   3.147   2.724  12.151
 6220SOL    HW219203   3.259   2.632  12.226
 6221SOL     OW19204   3.071   2.387  11.447
 6221SOL    HW119205   3.084   2.303  11.501
 6221SOL    HW219206   3.042   2.461  11.507
 6222SOL     OW19207   1.899   3.172  12.454
 6222SOL    HW119208   1.952   3.123  12.522
 6222SOL    HW219209   1.921   3.270  12.459
 6223SOL     OW19210   2.594   2.496  12.236
 6223SOL    HW119211   2.653   2.470  12.160
 6223SOL    HW219212   2.566   2.592  12.225
 6224SOL     OW19213   3.590   2.797  13.026
 6224SOL    HW119214   3.544   2.790  12.937
 6224SOL    HW219215   3.528   2.841  13.092
 6225SOL     OW19216   3.484   2.229  11.546
 6225SOL    HW119217   3.486   2.153  11.610
 6225SOL    HW219218   3.436   2.306  11.586
 6226SOL     OW19219   2.885   2.628  12.138
 6226SOL    HW119220   2.900   2.649  12.234
 6226SOL    HW219221   2.855   2.533  12.129
 6227SOL     OW19222   2.842   3.435  12.872
 6227SOL    HW119223   2.822   3.479  12.784
 6227SOL    HW219224   2.881   3.344  12.856
 6228SOL     OW19225   3.721   3.380  12.777
 6228SOL    HW119226   3.735   3.407  12.682
 6228SOL    HW219227   3.804   3.402  12.830
 6229SOL     OW19228   2.212   2.760  12.976
 6229SOL    HW119229   2.288   2.804  13.024
 6229SOL    HW219230   2.247   2.713  12.894
 6230SOL     OW19231   3.402   2.136  11.297
 6230SOL    HW119232   3.341   2.061  11.320
 6230SOL    HW219233   3.424   2.188  11.380
 6231SOL     OW19234   3.165   2.700  11.214
 6231SOL    HW119235   3.199   2.607  11.229
 6231SOL    HW219236   3.183   2.727  11.119
 6232SOL     OW19237   2.930   3.195  12.021
 6232SOL    HW119238   2.937   3.111  11.966
 6232SOL    HW219239   2.992   3.264  11.985
 6233SOL     OW19240   2.181   2.672  12.121
 6233SOL    HW119241   2.274   2.708  12.126
 6233SOL    HW219242   2.175   2.587  12.173
 6234SOL     OW19243   2.201   2.371  12.178
 6234SOL    HW119244   2.149   2.288  12.161
 6234SOL    HW219245   2.278   2.376  12.114
 6235SOL     OW19246   3.000   2.242  12.850
 6235SOL    HW119247   2.955   2.305  12.914
 6235SOL    HW219248   3.093   2.273  12.833
 6236SOL     OW19249   3.022   2.069  12.649
 6236SOL    HW119250   3.022   2.133  12.726
 6236SOL    HW219251   3.050   2.117  12.566
 6237SOL     OW19252   1.870   3.188  11.372
 6237SOL    HW119253   1.777   3.209  11.341
 6237SOL    HW219254   1.880   3.089  11.385
 6238SOL     OW19255   1.950   3.663  12.099
 6238SOL    HW119256   1.908   3.577  12.072
 6238SOL    HW219257   2.044   3.666  12.065
 6239SOL     OW19258   2.366   3.430  12.082
 6239SOL    HW119259   2.432   3.504  12.091
 6239SOL    HW219260   2.410   3.351  12.040
 6240SOL     OW19261   2.864   2.658  12.410
 6240SOL    HW119262   2.905   2.626  12.496
 6240SOL    HW219263   2.768   2.631  12.407
 6241SOL     OW19264   1.902   2.406  12.286
 6241SOL    HW119265   1.987   2.373  12.245
 6241SOL    HW219266   1.915   2.421  12.384
 6242SOL     OW19267   2.051   2.382  12.894
 6242SOL    HW119268   2.110   2.342  12.824
 6242SOL    HW219269   1.993   2.453  12.853
 6243SOL     OW19270   3.231   2.812  12.832
 6243SOL    HW119271   3.270   2.901  12.852
 6243SOL    HW219272   3.241   2.792  12.735
 6244SOL     OW19273   2.677   2.434  11.497
 6244SOL    HW119274   2.684   2.345  11.451
 6244SOL    HW219275   2.583   2.468  11.489
 6245SOL     OW19276   3.519   2.466  12.378
 6245SOL    HW119277   3.481   2.397  12.440
 6245SOL    HW219278   3.601   2.430  12.334
 6246SOL     OW19279   2.114   3.426  12.916
 6246SOL    HW119280   2.084   3.483  12.992
 6246SOL    HW219281   2.107   3.329  12.942
 6247SOL     OW19282   2.533   2.326  12.441
 6247SOL    HW119283   2.499   2.237  12.411
 6247SOL    HW219284   2.559   2.380  12.361
 6248SOL     OW19285   2.792   3.540  12.637
 6248SOL    HW119286   2.768   3.522  12.542
 6248SOL    HW219287   2.822   3.634  12.647
 6249SOL     OW19288   2.335   2.362  11.363
 6249SOL    HW119289   2.396   2.442  11.367
 6249SOL    HW219290   2.240   2.393  11.370
 6250SOL     OW19291   2.021   2.999  12.638
 6250SOL    HW119292   2.043   2.938  12.714
 6250SOL    HW219293   2.031   2.950  12.552
 6251SOL     OW19294   3.209   2.921  12.406
 6251SOL    HW119295   3.233   2.858  12.332
 6251SOL    HW219296   3.119   2.961  12.388
 6252SOL     OW19297   3.164   2.717  11.481
 6252SOL    HW119298   3.078   2.686  11.523
 6252SOL    HW219299   3.160   2.703  11.382
 6253SOL     OW19300   3.621   3.609  12.326
 6253SOL    HW119301   3.682   3.639  12.253
 6253SOL    HW219302   3.583   3.520  12.304
 6254SOL     OW19303   3.114   3.593  12.300
 6254SOL    HW119304   3.198   3.598  12.246
 6254SOL    HW219305   3.091   3.497  12.318
 6255SOL     OW19306   1.945   3.120  12.194
 6255SOL    HW119307   1.940   3.119  12.294
 6255SOL    HW219308   1.862   3.079  12.156
 6256SOL     OW19309   2.550   3.524  12.888
 6256SOL    HW119310   2.494   3.605  12.897
 6256SOL    HW219311   2.602   3.528  12.802
 6257SOL     OW19312   3.588   1.997  11.695
 6257SOL    HW119313   3.661   1.980  11.628
 6257SOL    HW219314   3.557   1.910  11.733
 6258SOL     OW19315   3.250   3.435  11.649
 6258SOL    HW119316   3.317   3.447  11.575
 6258SOL    HW219317   3.210   3.524  11.672
 6259SOL     OW19318   1.992   3.656  13.023
 6259SOL    HW119319   1.951   3.582  13.076
 6259SOL    HW219320   2.056   3.707  13.081
 6260SOL     OW19321   3.142   2.789  11.844
 6260SOL    HW119322   3.202   2.708  11.846
 6260SOL    HW219323   3.182   2.858  11.784
 6261SOL     OW19324   2.692   3.135  12.594
 6261SOL    HW119325   2.687   3.168  12.689
 6261SOL    HW219326   2.606   3.154  12.548
 6262SOL     OW19327   2.534   3.478  11.326
 6262SOL    HW119328   2.543   3.488  11.227
 6262SOL    HW219329   2.494   3.389  11.347
 6263SOL     OW19330   3.512   3.582  12.566
 6263SOL    HW119331   3.565   3.592  12.482
 6263SOL    HW219332   3.485   3.672  12.600
 6264SOL     OW19333   3.703   2.037  12.135
 6264SOL    HW119334   3.742   1.952  12.099
 6264SOL    HW219335   3.605   2.039  12.116
 6265SOL     OW19336   3.056   3.474  11.203
 6265SOL    HW119337   3.062   3.381  11.240
 6265SOL    HW219338   2.997   3.474  11.123
 6266SOL     OW19339   2.684   2.864  12.544
 6266SOL    HW119340   2.724   2.863  12.452
 6266SOL    HW219341   2.694   2.956  12.584
 6267SOL     OW19342   2.778   2.772  11.463
 6267SOL    HW119343   2.841   2.810  11.395
 6267SOL    HW219344   2.818   2.689  11.502
 6268SOL     OW19345   3.366   3.469  11.216
 6268SOL    HW119346   3.274   3.506  11.223
 6268SOL    HW219347   3.404   3.489  11.126
 6269SOL     OW19348   2.234   3.150  12.662
 6269SOL    HW119349   2.221   3.243  12.628
 6269SOL    HW219350   2.150   3.098  12.649
 6270SOL     OW19351   3.476   3.154  12.461
 6270SOL    HW119352   3.536   3.157  12.541
 6270SOL    HW219353   3.401   3.218  12.474
 6271SOL     OW19354   2.901   2.960  11.868
 6271SOL    HW119355   2.831   2.913  11.922
 6271SOL    HW219356   2.960   2.892  11.825
 6272SOL     OW19357   2.876   2.098  12.143
 6272SOL    HW119358   2.868   2.062  12.050
 6272SOL    HW219359   2.874   2.022  12.208
 6273SOL     OW19360   2.452   3.349  11.663
 6273SOL    HW119361   2.494   3.291  11.593
 6273SOL    HW219362   2.408   3.428  11.619
 6274SOL     OW19363   3.571   2.247  12.553
 6274SOL    HW119364   3.644   2.316  12.557
 6274SOL    HW219365   3.599   2.172  12.494
 6275SOL     OW19366   2.117   3.210  11.462
 6275SOL    HW119367   2.021   3.211  11.435
 6275SOL    HW219368   2.129   3.263  11.546
 6276SOL     OW19369   1.967   2.875  12.898
 6276SOL    HW119370   1.890   2.842  12.952
 6276SOL    HW219371   2.052   2.845  12.940
 6277SOL     OW19372   2.534   2.065  12.661
 6277SOL    HW119373   2.624   2.049  12.621
 6277SOL    HW219374   2.542   2.070  12.760
 6278SOL     OW19375   3.302   2.718  12.570
 6278SOL    HW119376   3.245   2.770  12.507
 6278SOL    HW219377   3.398   2.730  12.546
 6279SOL     OW19378   3.045   3.197  11.291
 6279SOL    HW119379   2.946   3.186  11.293
 6279SOL    HW219380   3.079   3.212  11.384
 6280SOL     OW19381   2.475   2.704  12.603
 6280SOL    HW119382   2.531   2.785  12.586
 6280SOL    HW219383   2.534   2.624  12.606
 6281SOL     OW19384   3.355   3.629  12.131
 6281SOL    HW119385   3.388   3.693  12.062
 6281SOL    HW219386   3.421   3.623  12.206
 6282SOL     OW19387   2.578   2.427  12.880
 6282SOL    HW119388   2.597   2.492  12.954
 6282SOL    HW219389   2.638   2.347  12.889
 6283SOL     OW19390   3.312   3.082  12.805
 6283SOL    HW119391   3.303   3.072  12.904
 6283SOL    HW219392   3.408   3.075  12.779
 6284SOL     OW19393   2.252   3.603  12.732
 6284SOL    HW119394   2.161   3.644  12.730
 6284SOL    HW219395   2.245   3.509  12.764
 6285SOL     OW19396   3.536   2.745  12.426
 6285SOL    HW119397   3.509   2.656  12.389
 6285SOL    HW219398   3.537   2.813  12.353
 6286SOL     OW19399   3.087   2.187  11.621
 6286SOL    HW119400   3.152   2.113  11.610
 6286SOL    HW219401   3.107   2.237  11.705
 6287SOL     OW19402   2.456   2.607  11.824
 6287SOL    HW119403   2.506   2.692  11.805
 6287SOL    HW219404   2.368   2.609  11.776
 6288SOL     OW19405   3.639   2.204  12.814
 6288SOL    HW119406   3.622   2.235  12.720
 6288SOL    HW219407   3.555   2.167  12.852
 6289SOL     OW19408   3.592   2.796  12.689
 6289SOL    HW119409   3.630   2.887  12.704
 6289SOL    HW219410   3.584   2.779  12.590
 6290SOL     OW19411   2.721   3.236  11.188
 6290SOL    HW119412   2.675   3.251  11.276
 6290SOL    HW219413   2.765   3.321  11.158
 6291SOL     OW19414   2.523   3.652  12.125
 6291SOL    HW119415   2.477   3.740  12.112
 6291SOL    HW219416   2.622   3.664  12.118
 6292SOL     OW19417   2.721   2.818  12.033
 6292SOL    HW119418   2.775   2.749  12.081
 6292SOL    HW219419   2.689   2.887  12.099
 6293SOL     OW19420   2.945   2.846  11.259
 6293SOL    HW119421   2.922   2.899  11.177
 6293SOL    HW219422   3.026   2.790  11.240
 6294SOL     OW19423   3.723   3.431  12.023
 6294SOL    HW119424   3.652   3.419  11.953
 6294SOL    HW219425   3.724   3.352  12.083
 6295SOL     OW19426   2.083   3.176  13.016
 6295SOL    HW119427   2.018   3.103  12.995
 6295SOL    HW219428   2.087   3.190  13.114
 6296SOL     OW19429   1.941   3.102  11.825
 6296SOL    HW119430   1.940   3.055  11.913
 6296SOL    HW219431   2.023   3.074  11.774
 6297SOL     OW19432   2.534   3.253  12.796
 6297SOL    HW119433   2.456   3.203  12.834
 6297SOL    HW219434   2.531   3.348  12.827
 6298SOL     OW19435   3.686   2.054  12.399
 6298SOL    HW119436   3.682   1.964  12.443
 6298SOL    HW219437   3.689   2.043  12.300
 6299SOL     OW19438   2.290   2.286  11.692
 6299SOL    HW119439   2.320   2.214  11.630
 6299SOL    HW219440   2.251   2.246  11.775
 6300SOL     OW19441   3.567   3.349  12.276
 6300SOL    HW119442   3.474   3.324  12.249
 6300SOL    HW219443   3.593   3.299  12.358
 6301SOL     OW19444   2.179   2.409  12.452
 6301SOL    HW119445   2.217   2.350  12.524
 6301SOL    HW219446   2.219   2.383  12.364
 6302SOL     OW19447   2.674   3.448  11.859
 6302SOL    HW119448   2.706   3.458  11.765
 6302SOL    HW219449   2.595   3.386  11.861
 6303SOL     OW19450   3.286   2.076  12.284
 6303SOL    HW119451   3.338   2.011  12.339
 6303SOL    HW219452   3.237   2.139  12.345
 6304SOL     OW19453   2.863   1.896  12.326
 6304SOL    HW119454   2.800   1.824  12.295
 6304SOL    HW219455   2.956   1.860  12.326
 6305SOL     OW19456   2.632   3.192  11.473
 6305SOL    HW119457   2.586   3.105  11.490
 6305SOL    HW219458   2.723   3.189  11.514
 6306SOL     OW19459   2.480   3.429  12.456
 6306SOL    HW119460   2.475   3.511  12.513
 6306SOL    HW219461   2.569   3.426  12.411
 6307SOL     OW19462   3.214   1.914  11.340
 6307SOL    HW119463   3.249   1.873  11.256
 6307SOL    HW219464   3.124   1.876  11.360
 6308SOL     OW19465   3.162   2.315  11.863
 6308SOL    HW119466   3.103   2.395  11.867
 6308SOL    HW219467   3.177   2.280  11.956
 6309SOL     OW19468   3.455   2.083  12.054
 6309SOL    HW119469   3.371   2.082  12.108
 6309SOL    HW219470   3.457   2.166  11.998
 6310SOL     OW19471   1.901   2.939  11.472
 6310SOL    HW119472   2.000   2.928  11.463
 6310SOL    HW219473   1.861   2.853  11.504
 6311SOL     OW19474   2.737   3.508  11.509
 6311SOL    HW119475   2.660   3.473  11.455
 6311SOL    HW219476   2.705   3.579  11.571
 6312SOL     OW19477   2.092   2.490  13.147
 6312SOL    HW119478   1.999   2.488  13.184
 6312SOL    HW219479   2.093   2.451  13.055
 6313SOL     OW19480   1.881   2.230  13.681
 6313SOL    HW119481   1.799   2.273  13.720
 6313SOL    HW219482   1.853   2.157  13.618
 6314SOL     OW19483   3.417   3.373  13.737
 6314SOL    HW119484   3.360   3.357  13.818
 6314SOL    HW219485   3.358   3.383  13.657
 6315SOL     OW19486   2.997   2.565  13.751
 6315SOL    HW119487   3.054   2.643  13.726
 6315SOL    HW219488   2.937   2.591  13.827
 6316SOL     OW19489   3.617   2.469  13.265
 6316SOL    HW119490   3.605   2.456  13.166
 6316SOL    HW219491   3.587   2.388  13.314
 6317SOL     OW19492   2.547   2.874  13.699
 6317SOL    HW119493   2.616   2.858  13.769
 6317SOL    HW219494   2.474   2.931  13.737
 6318SOL     OW19495   3.465   2.309  13.771
 6318SOL    HW119496   3.391   2.355  13.721
 6318SOL    HW219497   3.516   2.377  13.824
 6319SOL     OW19498   2.093   3.575  13.517
 6319SOL    HW119499   2.127   3.652  13.571
 6319SOL    HW219500   2.137   3.575  13.427
 6320SOL     OW19501   2.092   3.296  13.572
 6320SOL    HW119502   2.066   3.392  13.572
 6320SOL    HW219503   2.021   3.242  13.617
 6321SOL     OW19504   2.102   2.953  13.920
 6321SOL    HW119505   2.116   2.869  13.972
 6321SOL    HW219506   2.047   3.017  13.975
 6322SOL     OW19507   2.468   2.826  13.157
 6322SOL    HW119508   2.475   2.910  13.103
 6322SOL    HW219509   2.514   2.839  13.245
 6323SOL     OW19510   1.984   2.505  13.597
 6323SOL    HW119511   1.939   2.417  13.614
 6323SOL    HW219512   1.983   2.559  13.681
 6324SOL     OW19513   3.704   3.629  13.393
 6324SOL    HW119514   3.758   3.600  13.473
 6324SOL    HW219515   3.734   3.719  13.364
 6325SOL     OW19516   1.889   3.458  13.151
 6325SOL    HW119517   1.870   3.362  13.172
 6325SOL    HW219518   1.856   3.516  13.226
 6326SOL     OW19519   3.551   2.784  13.646
 6326SOL    HW119520   3.646   2.755  13.654
 6326SOL    HW219521   3.543   2.849  13.571
 6327SOL     OW19522   3.503   2.970  13.466
 6327SOL    HW119523   3.589   2.972  13.414
 6327SOL    HW219524   3.517   3.017  13.554
 6328SOL     OW19525   2.475   3.227  13.760
 6328SOL    HW119526   2.426   3.140  13.769
 6328SOL    HW219527   2.452   3.270  13.673
 6329SOL     OW19528   2.671   1.866  13.536
 6329SOL    HW119529   2.711   1.957  13.527
 6329SOL    HW219530   2.571   1.874  13.542
 6330SOL     OW19531   3.387   2.861  13.224
 6330SOL    HW119532   3.324   2.785  13.237
 6330SOL    HW219533   3.435   2.879  13.310
 6331SOL     OW19534   3.529   3.576  13.606
 6331SOL    HW119535   3.488   3.553  13.518
 6331SOL    HW219536   3.511   3.502  13.671
 6332SOL     OW19537   2.460   2.591  13.304
 6332SOL    HW119538   2.484   2.660  13.236
 6332SOL    HW219539   2.382   2.624  13.358
 6333SOL     OW19540   3.143   2.207  13.978
 6333SOL    HW119541   3.057   2.157  13.965
 6333SOL    HW219542   3.205   2.153  14.034
 6334SOL     OW19543   3.438   3.524  13.341
 6334SOL    HW119544   3.527   3.570  13.344
 6334SOL    HW219545   3.417   3.500  13.246
 6335SOL     OW19546   2.903   2.563  13.463
 6335SOL    HW119547   2.929   2.559  13.559
 6335SOL    HW219548   2.818   2.512  13.449
 6336SOL     OW19549   1.938   2.673  13.823
 6336SOL    HW119550   2.037   2.661  13.832
 6336SOL    HW219551   1.914   2.768  13.844
 6337SOL     OW19552   2.727   2.210  13.229
 6337SOL    HW119553   2.786   2.273  13.180
 6337SOL    HW219554   2.746   2.116  13.200
 6338SOL     OW19555   3.224   3.006  13.579
 6338SOL    HW119556   3.307   2.977  13.531
 6338SOL    HW219557   3.175   3.073  13.523
 6339SOL     OW19558   2.870   3.318  13.511
 6339SOL    HW119559   2.824   3.390  13.459
 6339SOL    HW219560   2.866   3.338  13.609
 6340SOL     OW19561   2.213   3.663  13.887
 6340SOL    HW119562   2.263   3.577  13.893
 6340SOL    HW219563   2.278   3.740  13.884
 6341SOL     OW19564   3.657   2.928  13.907
 6341SOL    HW119565   3.595   2.913  13.831
 6341SOL    HW219566   3.605   2.939  13.992
 6342SOL     OW19567   2.183   2.805  13.276
 6342SOL    HW119568   2.265   2.844  13.234
 6342SOL    HW219569   2.156   2.723  13.227
 6343SOL     OW19570   3.320   2.597  13.762
 6343SOL    HW119571   3.315   2.532  13.837
 6343SOL    HW219572   3.400   2.656  13.775
 6344SOL     OW19573   2.973   3.638  13.271
 6344SOL    HW119574   2.913   3.576  13.321
 6344SOL    HW219575   3.004   3.594  13.186
 6345SOL     OW19576   3.494   3.239  13.115
 6345SOL    HW119577   3.462   3.333  13.105
 6345SOL    HW219578   3.418   3.176  13.103
 6346SOL     OW19579   2.326   3.605  13.357
 6346SOL    HW119580   2.359   3.644  13.443
 6346SOL    HW219581   2.402   3.598  13.292
 6347SOL     OW19582   3.262   1.969  13.460
 6347SOL    HW119583   3.238   1.932  13.370
 6347SOL    HW219584   3.361   1.985  13.464
 6348SOL     OW19585   2.802   3.560  13.938
 6348SOL    HW119586   2.882   3.503  13.959
 6348SOL    HW219587   2.753   3.520  13.861
 6349SOL     OW19588   2.244   2.562  13.514
 6349SOL    HW119589   2.289   2.472  13.511
 6349SOL    HW219590   2.150   2.551  13.547
 6350SOL     OW19591   2.476   1.984  13.151
 6350SOL    HW119592   2.574   1.962  13.158
 6350SOL    HW219593   2.445   1.967  13.058
 6351SOL     OW19594   2.401   1.926  13.546
 6351SOL    HW119595   2.320   1.927  13.604
 6351SOL    HW219596   2.404   2.009  13.491
 6352SOL     OW19597   3.296   3.050  13.075
 6352SOL    HW119598   3.328   2.974  13.132
 6352SOL    HW219599   3.204   3.077  13.105
 6353SOL     OW19600   2.797   2.098  13.514
 6353SOL    HW119601   2.749   2.139  13.436
 6353SOL    HW219602   2.896   2.096  13.495
 6354SOL     OW19603   2.321   3.014  13.775
 6354SOL    HW119604   2.250   2.987  13.840
 6354SOL    HW219605   2.295   2.986  13.682
 6355SOL     OW19606   3.133   3.659  13.625
 6355SOL    HW119607   3.177   3.723  13.561
 6355SOL    HW219608   3.083   3.711  13.695
 6356SOL     OW19609   2.894   2.411  13.050
 6356SOL    HW119610   2.853   2.493  13.011
 6356SOL    HW219611   2.958   2.437  13.123
 6357SOL     OW19612   2.728   2.316  13.676
 6357SOL    HW119613   2.696   2.388  13.614
 6357SOL    HW219614   2.752   2.235  13.623
 6358SOL     OW19615   2.879   1.901  13.787
 6358SOL    HW119616   2.807   1.906  13.718
 6358SOL    HW219617   2.855   1.832  13.856
 6359SOL     OW19618   3.719   2.695  13.411
 6359SOL    HW119619   3.761   2.631  13.475
 6359SOL    HW219620   3.681   2.644  13.333
 6360SOL     OW19621   2.350   3.247  13.208
 6360SOL    HW119622   2.263   3.232  13.255
 6360SOL    HW219623   2.333   3.273  13.113
 6361SOL     OW19624   3.526   3.142  13.691
 6361SOL    HW119625   3.625   3.150  13.705
 6361SOL    HW219626   3.481   3.226  13.722
 6362SOL     OW19627   3.252   2.437  13.112
 6362SOL    HW119628   3.198   2.416  13.193
 6362SOL    HW219629   3.343   2.396  13.121
 6363SOL     OW19630   2.389   2.118  13.362
 6363SOL    HW119631   2.416   2.059  13.287
 6363SOL    HW219632   2.389   2.213  13.331
 6364SOL     OW19633   2.567   2.912  13.402
 6364SOL    HW119634   2.553   2.919  13.501
 6364SOL    HW219635   2.651   2.861  13.384
 6365SOL     OW19636   2.229   2.962  13.535
 6365SOL    HW119637   2.222   3.045  13.479
 6365SOL    HW219638   2.233   2.882  13.475
 6366SOL     OW19639   2.428   2.399  13.899
 6366SOL    HW119640   2.440   2.465  13.825
 6366SOL    HW219641   2.474   2.433  13.982
 6367SOL     OW19642   3.114   3.210  13.422
 6367SOL    HW119643   3.164   3.287  13.462
 6367SOL    HW219644   3.019   3.212  13.454
 6368SOL     OW19645   3.444   2.501  13.506
 6368SOL    HW119646   3.413   2.562  13.579
 6368SOL    HW219647   3.494   2.553  13.437
 6369SOL     OW19648   3.071   2.387  13.309
 6369SOL    HW119649   3.084   2.303  13.363
 6369SOL    HW219650   3.042   2.461  13.369
 6370SOL     OW19651   3.484   2.229  13.408
 6370SOL    HW119652   3.486   2.153  13.472
 6370SOL    HW219653   3.436   2.306  13.448
 6371SOL     OW19654   3.402   2.136  13.159
 6371SOL    HW119655   3.341   2.061  13.182
 6371SOL    HW219656   3.424   2.188  13.242
 6372SOL     OW19657   3.165   2.700  13.076
 6372SOL    HW119658   3.199   2.607  13.091
 6372SOL    HW219659   3.183   2.727  12.981
 6373SOL     OW19660   1.870   3.188  13.234
 6373SOL    HW119661   1.777   3.209  13.203
 6373SOL    HW219662   1.880   3.089  13.247
 6374SOL     OW19663   2.677   2.434  13.359
 6374SOL    HW119664   2.684   2.345  13.313
 6374SOL    HW219665   2.583   2.468  13.351
 6375SOL     OW19666   2.335   2.362  13.225
 6375SOL    HW119667   2.396   2.442  13.229
 6375SOL    HW219668   2.240   2.393  13.232
 6376SOL     OW19669   3.164   2.717  13.343
 6376SOL    HW119670   3.078   2.686  13.385
 6376SOL    HW219671   3.160   2.703  13.244
 6377SOL     OW19672   3.588   1.997  13.557
 6377SOL    HW119673   3.661   1.980  13.490
 6377SOL    HW219674   3.557   1.910  13.595
 6378SOL     OW19675   3.250   3.435  13.511
 6378SOL    HW119676   3.317   3.447  13.437
 6378SOL    HW219677   3.210   3.524  13.534
 6379SOL     OW19678   3.142   2.789  13.706
 6379SOL    HW119679   3.202   2.708  13.708
 6379SOL    HW219680   3.182   2.858  13.646
 6380SOL     OW19681   2.534   3.478  13.188
 6380SOL    HW119682   2.543   3.488  13.089
 6380SOL    HW219683   2.494   3.389  13.209
 6381SOL     OW19684   3.703   2.037  13.997
 6381SOL    HW119685   3.742   1.952  13.961
 6381SOL    HW219686   3.605   2.039  13.978
 6382SOL     OW19687   2.125   2.188  13.754
 6382SOL    HW119688   2.046   2.239  13.720
 6382SOL    HW219689   2.116   2.173  13.852
 6383SOL     OW19690   3.056   3.474  13.065
 6383SOL    HW119691   3.062   3.381  13.102
 6383SOL    HW219692   2.997   3.474  12.985
 6384SOL     OW19693   2.778   2.772  13.325
 6384SOL    HW119694   2.841   2.810  13.257
 6384SOL    HW219695   2.818   2.689  13.364
 6385SOL     OW19696   3.366   3.469  13.078
 6385SOL    HW119697   3.274   3.506  13.085
 6385SOL    HW219698   3.404   3.489  12.988
 6386SOL     OW19699   2.901   2.960  13.730
 6386SOL    HW119700   2.831   2.913  13.784
 6386SOL    HW219701   2.960   2.892  13.687
 6387SOL     OW19702   2.452   3.349  13.525
 6387SOL    HW119703   2.494   3.291  13.455
 6387SOL    HW219704   2.408   3.428  13.481
 6388SOL     OW19705   2.117   3.210  13.324
 6388SOL    HW119706   2.021   3.211  13.297
 6388SOL    HW219707   2.129   3.263  13.408
 6389SOL     OW19708   3.045   3.197  13.153
 6389SOL    HW119709   2.946   3.186  13.155
 6389SOL    HW219710   3.079   3.212  13.246
 6390SOL     OW19711   3.087   2.187  13.483
 6390SOL    HW119712   3.152   2.113  13.472
 6390SOL    HW219713   3.107   2.237  13.567
 6391SOL     OW19714   2.456   2.607  13.686
 6391SOL    HW119715   2.506   2.692  13.667
 6391SOL    HW219716   2.368   2.609  13.638
 6392SOL     OW19717   2.721   3.236  13.050
 6392SOL    HW119718   2.675   3.251  13.138
 6392SOL    HW219719   2.765   3.321  13.020
 6393SOL     OW19720   2.523   3.652  13.987
 6393SOL    HW119721   2.477   3.740  13.974
 6393SOL    HW219722   2.622   3.664  13.980
 6394SOL     OW19723   2.721   2.818  13.895
 6394SOL    HW119724   2.775   2.749  13.943
 6394SOL    HW219725   2.689   2.887  13.961
 6395SOL     OW19726   2.945   2.846  13.121
 6395SOL    HW119727   2.922   2.899  13.039
 6395SOL    HW219728   3.026   2.790  13.102
 6396SOL     OW19729   1.941   3.102  13.687
 6396SOL    HW119730   1.940   3.055  13.775
 6396SOL    HW219731   2.023   3.074  13.636
 6397SOL     OW19732   2.290   2.286  13.554
 6397SOL    HW119733   2.320   2.214  13.492
 6397SOL    HW219734   2.251   2.246  13.637
 6398SOL     OW19735   3.567   3.349  14.138
 6398SOL    HW119736   3.474   3.324  14.111
 6398SOL    HW219737   3.593   3.299  14.220
 6399SOL     OW19738   2.674   3.448  13.721
 6399SOL    HW119739   2.706   3.458  13.627
 6399SOL    HW219740   2.595   3.386  13.723
 6400SOL     OW19741   2.632   3.192  13.335
 6400SOL    HW119742   2.586   3.105  13.352
 6400SOL    HW219743   2.723   3.189  13.376
 6401SOL     OW19744   3.214   1.914  13.202
 6401SOL    HW119745   3.249   1.873  13.118
 6401SOL    HW219746   3.124   1.876  13.222
 6402SOL     OW19747   3.162   2.315  13.725
 6402SOL    HW119748   3.103   2.395  13.729
 6402SOL    HW219749   3.177   2.280  13.818
 6403SOL     OW19750   1.901   2.939  13.334
 6403SOL    HW119751   2.000   2.928  13.325
 6403SOL    HW219752   1.861   2.853  13.366
 6404SOL     OW19753   2.737   3.508  13.371
 6404SOL    HW119754   2.660   3.473  13.317
 6404SOL    HW219755   2.705   3.579  13.433
 6405SOL     OW19756   2.087   3.999   0.996
 6405SOL    HW119757   2.122   3.982   1.088
 6405SOL    HW219758   1.999   3.954   0.984
 6406SOL     OW19759   1.881   4.092   0.647
 6406SOL    HW119760   1.799   4.135   0.686
 6406SOL    HW219761   1.853   4.019   0.584
 6407SOL     OW19762   3.617   4.331   0.231
 6407SOL    HW119763   3.605   4.318   0.132
 6407SOL    HW219764   3.587   4.250   0.280
 6408SOL     OW19765   2.300   4.116   1.499
 6408SOL    HW119766   2.382   4.060   1.508
 6408SOL    HW219767   2.219   4.058   1.503
 6409SOL     OW19768   3.456   3.838   1.480
 6409SOL    HW119769   3.438   3.905   1.408
 6409SOL    HW219770   3.453   3.884   1.569
 6410SOL     OW19771   2.671   3.728   0.502
 6410SOL    HW119772   2.711   3.819   0.493
 6410SOL    HW219773   2.571   3.736   0.508
 6411SOL     OW19774   3.143   4.069   0.944
 6411SOL    HW119775   3.057   4.019   0.931
 6411SOL    HW219776   3.205   4.015   1.000
 6412SOL     OW19777   2.412   3.920   0.885
 6412SOL    HW119778   2.407   3.915   0.985
 6412SOL    HW219779   2.414   4.016   0.856
 6413SOL     OW19780   2.064   4.009   1.498
 6413SOL    HW119781   1.984   4.069   1.485
 6413SOL    HW219782   2.054   3.960   1.584
 6414SOL     OW19783   3.262   3.831   0.426
 6414SOL    HW119784   3.238   3.794   0.336
 6414SOL    HW219785   3.361   3.847   0.430
 6415SOL     OW19786   3.409   3.946   1.729
 6415SOL    HW119787   3.404   3.983   1.821
 6415SOL    HW219788   3.337   3.877   1.717
 6416SOL     OW19789   2.643   3.988   1.749
 6416SOL    HW119790   2.710   3.927   1.792
 6416SOL    HW219791   2.570   4.007   1.814
 6417SOL     OW19792   2.401   3.788   0.512
 6417SOL    HW119793   2.320   3.789   0.570
 6417SOL    HW219794   2.404   3.871   0.457
 6418SOL     OW19795   2.159   3.759   0.171
 6418SOL    HW119796   2.208   3.843   0.150
 6418SOL    HW219797   2.221   3.694   0.216
 6419SOL     OW19798   2.423   3.946   1.147
 6419SOL    HW119799   2.461   3.862   1.184
 6419SOL    HW219800   2.335   3.965   1.191
 6420SOL     OW19801   2.879   3.763   0.753
 6420SOL    HW119802   2.807   3.768   0.684
 6420SOL    HW219803   2.855   3.694   0.822
 6421SOL     OW19804   2.777   3.813   1.402
 6421SOL    HW119805   2.802   3.793   1.307
 6421SOL    HW219806   2.849   3.869   1.444
 6422SOL     OW19807   3.136   4.110   1.262
 6422SOL    HW119808   3.157   4.184   1.326
 6422SOL    HW219809   3.047   4.127   1.219
 6423SOL     OW19810   2.366   3.774   1.740
 6423SOL    HW119811   2.324   3.717   1.670
 6423SOL    HW219812   2.300   3.843   1.772
 6424SOL     OW19813   2.169   3.937   1.231
 6424SOL    HW119814   2.146   3.974   1.321
 6424SOL    HW219815   2.139   3.842   1.225
 6425SOL     OW19816   3.402   3.998   0.125
 6425SOL    HW119817   3.341   3.923   0.148
 6425SOL    HW219818   3.424   4.050   0.208
 6426SOL     OW19819   3.022   3.931   1.477
 6426SOL    HW119820   3.022   3.995   1.554
 6426SOL    HW219821   3.050   3.979   1.394
 6427SOL     OW19822   2.765   3.810   0.133
 6427SOL    HW119823   2.816   3.811   0.047
 6427SOL    HW219824   2.821   3.768   0.204
 6428SOL     OW19825   3.588   3.859   0.523
 6428SOL    HW119826   3.661   3.842   0.456
 6428SOL    HW219827   3.557   3.772   0.561
 6429SOL     OW19828   3.703   3.899   0.963
 6429SOL    HW119829   3.742   3.814   0.927
 6429SOL    HW219830   3.605   3.901   0.944
 6430SOL     OW19831   2.534   3.927   1.489
 6430SOL    HW119832   2.624   3.911   1.449
 6430SOL    HW219833   2.542   3.932   1.588
 6431SOL     OW19834   1.934   3.890   0.318
 6431SOL    HW119835   1.917   3.973   0.264
 6431SOL    HW219836   2.024   3.853   0.296
 6432SOL     OW19837   3.087   4.049   0.449
 6432SOL    HW119838   3.152   3.975   0.438
 6432SOL    HW219839   3.107   4.099   0.533
 6433SOL     OW19840   3.639   4.066   1.642
 6433SOL    HW119841   3.622   4.097   1.548
 6433SOL    HW219842   3.555   4.029   1.680
 6434SOL     OW19843   3.686   3.916   1.227
 6434SOL    HW119844   3.682   3.826   1.271
 6434SOL    HW219845   3.689   3.905   1.128
 6435SOL     OW19846   3.286   3.938   1.112
 6435SOL    HW119847   3.338   3.873   1.167
 6435SOL    HW219848   3.237   4.001   1.173
 6436SOL     OW19849   2.863   3.758   1.154
 6436SOL    HW119850   2.800   3.686   1.123
 6436SOL    HW219851   2.956   3.722   1.154
 6437SOL     OW19852   3.214   3.776   0.168
 6437SOL    HW119853   3.249   3.735   0.084
 6437SOL    HW219854   3.124   3.738   0.188
 6438SOL     OW19855   3.162   4.177   0.691
 6438SOL    HW119856   3.103   4.257   0.695
 6438SOL    HW219857   3.177   4.142   0.784
 6439SOL     OW19858   3.455   3.945   0.882
 6439SOL    HW119859   3.371   3.944   0.936
 6439SOL    HW219860   3.457   4.028   0.826
 6440SOL     OW19861   2.087   3.999   2.858
 6440SOL    HW119862   2.122   3.982   2.950
 6440SOL    HW219863   1.999   3.954   2.846
 6441SOL     OW19864   1.881   4.092   2.509
 6441SOL    HW119865   1.799   4.135   2.548
 6441SOL    HW219866   1.853   4.019   2.446
 6442SOL     OW19867   3.617   4.331   2.093
 6442SOL    HW119868   3.605   4.318   1.994
 6442SOL    HW219869   3.587   4.250   2.142
 6443SOL     OW19870   2.300   4.116   3.361
 6443SOL    HW119871   2.382   4.060   3.370
 6443SOL    HW219872   2.219   4.058   3.365
 6444SOL     OW19873   3.456   3.838   3.342
 6444SOL    HW119874   3.438   3.905   3.270
 6444SOL    HW219875   3.453   3.884   3.431
 6445SOL     OW19876   2.671   3.728   2.364
 6445SOL    HW119877   2.711   3.819   2.355
 6445SOL    HW219878   2.571   3.736   2.370
 6446SOL     OW19879   3.143   4.069   2.806
 6446SOL    HW119880   3.057   4.019   2.793
 6446SOL    HW219881   3.205   4.015   2.862
 6447SOL     OW19882   2.412   3.920   2.747
 6447SOL    HW119883   2.407   3.915   2.847
 6447SOL    HW219884   2.414   4.016   2.718
 6448SOL     OW19885   2.064   4.009   3.360
 6448SOL    HW119886   1.984   4.069   3.347
 6448SOL    HW219887   2.054   3.960   3.446
 6449SOL     OW19888   3.262   3.831   2.288
 6449SOL    HW119889   3.238   3.794   2.198
 6449SOL    HW219890   3.361   3.847   2.292
 6450SOL     OW19891   3.409   3.946   3.591
 6450SOL    HW119892   3.404   3.983   3.683
 6450SOL    HW219893   3.337   3.877   3.579
 6451SOL     OW19894   2.476   3.846   1.979
 6451SOL    HW119895   2.574   3.824   1.986
 6451SOL    HW219896   2.445   3.829   1.886
 6452SOL     OW19897   2.643   3.988   3.611
 6452SOL    HW119898   2.710   3.927   3.654
 6452SOL    HW219899   2.570   4.007   3.676
 6453SOL     OW19900   2.401   3.788   2.374
 6453SOL    HW119901   2.320   3.789   2.432
 6453SOL    HW219902   2.404   3.871   2.319
 6454SOL     OW19903   2.159   3.759   2.033
 6454SOL    HW119904   2.208   3.843   2.012
 6454SOL    HW219905   2.221   3.694   2.078
 6455SOL     OW19906   2.423   3.946   3.009
 6455SOL    HW119907   2.461   3.862   3.046
 6455SOL    HW219908   2.335   3.965   3.053
 6456SOL     OW19909   2.879   3.763   2.615
 6456SOL    HW119910   2.807   3.768   2.546
 6456SOL    HW219911   2.855   3.694   2.684
 6457SOL     OW19912   2.777   3.813   3.264
 6457SOL    HW119913   2.802   3.793   3.169
 6457SOL    HW219914   2.849   3.869   3.306
 6458SOL     OW19915   3.136   4.110   3.124
 6458SOL    HW119916   3.157   4.184   3.188
 6458SOL    HW219917   3.047   4.127   3.081
 6459SOL     OW19918   2.366   3.774   3.602
 6459SOL    HW119919   2.324   3.717   3.532
 6459SOL    HW219920   2.300   3.843   3.634
 6460SOL     OW19921   2.169   3.937   3.093
 6460SOL    HW119922   2.146   3.974   3.183
 6460SOL    HW219923   2.139   3.842   3.087
 6461SOL     OW19924   3.402   3.998   1.987
 6461SOL    HW119925   3.341   3.923   2.010
 6461SOL    HW219926   3.424   4.050   2.070
 6462SOL     OW19927   3.022   3.931   3.339
 6462SOL    HW119928   3.022   3.995   3.416
 6462SOL    HW219929   3.050   3.979   3.256
 6463SOL     OW19930   2.765   3.810   1.995
 6463SOL    HW119931   2.816   3.811   1.909
 6463SOL    HW219932   2.821   3.768   2.066
 6464SOL     OW19933   3.588   3.859   2.385
 6464SOL    HW119934   3.661   3.842   2.318
 6464SOL    HW219935   3.557   3.772   2.423
 6465SOL     OW19936   3.703   3.899   2.825
 6465SOL    HW119937   3.742   3.814   2.789
 6465SOL    HW219938   3.605   3.901   2.806
 6466SOL     OW19939   2.534   3.927   3.351
 6466SOL    HW119940   2.624   3.911   3.311
 6466SOL    HW219941   2.542   3.932   3.450
 6467SOL     OW19942   1.937   4.069   1.895
 6467SOL    HW119943   1.845   4.041   1.866
 6467SOL    HW219944   1.968   4.146   1.839
 6468SOL     OW19945   1.934   3.890   2.180
 6468SOL    HW119946   1.917   3.973   2.126
 6468SOL    HW219947   2.024   3.853   2.158
 6469SOL     OW19948   3.087   4.049   2.311
 6469SOL    HW119949   3.152   3.975   2.300
 6469SOL    HW219950   3.107   4.099   2.395
 6470SOL     OW19951   3.639   4.066   3.504
 6470SOL    HW119952   3.622   4.097   3.410
 6470SOL    HW219953   3.555   4.029   3.542
 6471SOL     OW19954   3.686   3.916   3.089
 6471SOL    HW119955   3.682   3.826   3.133
 6471SOL    HW219956   3.689   3.905   2.990
 6472SOL     OW19957   3.286   3.938   2.974
 6472SOL    HW119958   3.338   3.873   3.029
 6472SOL    HW219959   3.237   4.001   3.035
 6473SOL     OW19960   2.863   3.758   3.016
 6473SOL    HW119961   2.800   3.686   2.985
 6473SOL    HW219962   2.956   3.722   3.016
 6474SOL     OW19963   3.214   3.776   2.030
 6474SOL    HW119964   3.249   3.735   1.946
 6474SOL    HW219965   3.124   3.738   2.050
 6475SOL     OW19966   3.162   4.177   2.553
 6475SOL    HW119967   3.103   4.257   2.557
 6475SOL    HW219968   3.177   4.142   2.646
 6476SOL     OW19969   3.455   3.945   2.744
 6476SOL    HW119970   3.371   3.944   2.798
 6476SOL    HW219971   3.457   4.028   2.688
 6477SOL     OW19972   2.087   3.999   4.720
 6477SOL    HW119973   2.122   3.982   4.812
 6477SOL    HW219974   1.999   3.954   4.708
 6478SOL     OW19975   1.881   4.092   4.371
 6478SOL    HW119976   1.799   4.135   4.410
 6478SOL    HW219977   1.853   4.019   4.308
 6479SOL     OW19978   3.617   4.331   3.955
 6479SOL    HW119979   3.605   4.318   3.856
 6479SOL    HW219980   3.587   4.250   4.004
 6480SOL     OW19981   2.300   4.116   5.223
 6480SOL    HW119982   2.382   4.060   5.232
 6480SOL    HW219983   2.219   4.058   5.227
 6481SOL     OW19984   3.456   3.838   5.204
 6481SOL    HW119985   3.438   3.905   5.132
 6481SOL    HW219986   3.453   3.884   5.293
 6482SOL     OW19987   2.671   3.728   4.226
 6482SOL    HW119988   2.711   3.819   4.217
 6482SOL    HW219989   2.571   3.736   4.232
 6483SOL     OW19990   3.143   4.069   4.668
 6483SOL    HW119991   3.057   4.019   4.655
 6483SOL    HW219992   3.205   4.015   4.724
 6484SOL     OW19993   2.412   3.920   4.609
 6484SOL    HW119994   2.407   3.915   4.709
 6484SOL    HW219995   2.414   4.016   4.580
 6485SOL     OW19996   2.064   4.009   5.222
 6485SOL    HW119997   1.984   4.069   5.209
 6485SOL    HW219998   2.054   3.960   5.308
 6486SOL     OW19999   3.262   3.831   4.150
 6486SOL    HW120000   3.238   3.794   4.060
 6486SOL    HW220001   3.361   3.847   4.154
 6487SOL     OW20002   3.409   3.946   5.453
 6487SOL    HW120003   3.404   3.983   5.545
 6487SOL    HW220004   3.337   3.877   5.441
 6488SOL     OW20005   2.476   3.846   3.841
 6488SOL    HW120006   2.574   3.824   3.848
 6488SOL    HW220007   2.445   3.829   3.748
 6489SOL     OW20008   2.643   3.988   5.473
 6489SOL    HW120009   2.710   3.927   5.516
 6489SOL    HW220010   2.570   4.007   5.538
 6490SOL     OW20011   2.401   3.788   4.236
 6490SOL    HW120012   2.320   3.789   4.294
 6490SOL    HW220013   2.404   3.871   4.181
 6491SOL     OW20014   2.159   3.759   3.895
 6491SOL    HW120015   2.208   3.843   3.874
 6491SOL    HW220016   2.221   3.694   3.940
 6492SOL     OW20017   2.423   3.946   4.871
 6492SOL    HW120018   2.461   3.862   4.908
 6492SOL    HW220019   2.335   3.965   4.915
 6493SOL     OW20020   2.879   3.763   4.477
 6493SOL    HW120021   2.807   3.768   4.408
 6493SOL    HW220022   2.855   3.694   4.546
 6494SOL     OW20023   2.777   3.813   5.126
 6494SOL    HW120024   2.802   3.793   5.031
 6494SOL    HW220025   2.849   3.869   5.168
 6495SOL     OW20026   3.136   4.110   4.986
 6495SOL    HW120027   3.157   4.184   5.050
 6495SOL    HW220028   3.047   4.127   4.943
 6496SOL     OW20029   2.366   3.774   5.464
 6496SOL    HW120030   2.324   3.717   5.394
 6496SOL    HW220031   2.300   3.843   5.496
 6497SOL     OW20032   2.169   3.937   4.955
 6497SOL    HW120033   2.146   3.974   5.045
 6497SOL    HW220034   2.139   3.842   4.949
 6498SOL     OW20035   3.402   3.998   3.849
 6498SOL    HW120036   3.341   3.923   3.872
 6498SOL    HW220037   3.424   4.050   3.932
 6499SOL     OW20038   3.022   3.931   5.201
 6499SOL    HW120039   3.022   3.995   5.278
 6499SOL    HW220040   3.050   3.979   5.118
 6500SOL     OW20041   2.765   3.810   3.857
 6500SOL    HW120042   2.816   3.811   3.771
 6500SOL    HW220043   2.821   3.768   3.928
 6501SOL     OW20044   3.588   3.859   4.247
 6501SOL    HW120045   3.661   3.842   4.180
 6501SOL    HW220046   3.557   3.772   4.285
 6502SOL     OW20047   3.703   3.899   4.687
 6502SOL    HW120048   3.742   3.814   4.651
 6502SOL    HW220049   3.605   3.901   4.668
 6503SOL     OW20050   2.534   3.927   5.213
 6503SOL    HW120051   2.624   3.911   5.173
 6503SOL    HW220052   2.542   3.932   5.312
 6504SOL     OW20053   1.937   4.069   3.757
 6504SOL    HW120054   1.845   4.041   3.728
 6504SOL    HW220055   1.968   4.146   3.701
 6505SOL     OW20056   1.934   3.890   4.042
 6505SOL    HW120057   1.917   3.973   3.988
 6505SOL    HW220058   2.024   3.853   4.020
 6506SOL     OW20059   3.087   4.049   4.173
 6506SOL    HW120060   3.152   3.975   4.162
 6506SOL    HW220061   3.107   4.099   4.257
 6507SOL     OW20062   3.639   4.066   5.366
 6507SOL    HW120063   3.622   4.097   5.272
 6507SOL    HW220064   3.555   4.029   5.404
 6508SOL     OW20065   3.686   3.916   4.951
 6508SOL    HW120066   3.682   3.826   4.995
 6508SOL    HW220067   3.689   3.905   4.852
 6509SOL     OW20068   3.286   3.938   4.836
 6509SOL    HW120069   3.338   3.873   4.891
 6509SOL    HW220070   3.237   4.001   4.897
 6510SOL     OW20071   2.863   3.758   4.878
 6510SOL    HW120072   2.800   3.686   4.847
 6510SOL    HW220073   2.956   3.722   4.878
 6511SOL     OW20074   3.214   3.776   3.892
 6511SOL    HW120075   3.249   3.735   3.808
 6511SOL    HW220076   3.124   3.738   3.912
 6512SOL     OW20077   3.162   4.177   4.415
 6512SOL    HW120078   3.103   4.257   4.419
 6512SOL    HW220079   3.177   4.142   4.508
 6513SOL     OW20080   3.455   3.945   4.606
 6513SOL    HW120081   3.371   3.944   4.660
 6513SOL    HW220082   3.457   4.028   4.550
 6514SOL     OW20083   2.087   3.999   6.582
 6514SOL    HW120084   2.122   3.982   6.674
 6514SOL    HW220085   1.999   3.954   6.570
 6515SOL     OW20086   1.881   4.092   6.233
 6515SOL    HW120087   1.799   4.135   6.272
 6515SOL    HW220088   1.853   4.019   6.170
 6516SOL     OW20089   3.617   4.331   5.817
 6516SOL    HW120090   3.605   4.318   5.718
 6516SOL    HW220091   3.587   4.250   5.866
 6517SOL     OW20092   2.300   4.116   7.085
 6517SOL    HW120093   2.382   4.060   7.094
 6517SOL    HW220094   2.219   4.058   7.089
 6518SOL     OW20095   3.456   3.838   7.066
 6518SOL    HW120096   3.438   3.905   6.994
 6518SOL    HW220097   3.453   3.884   7.155
 6519SOL     OW20098   2.671   3.728   6.088
 6519SOL    HW120099   2.711   3.819   6.079
 6519SOL    HW220100   2.571   3.736   6.094
 6520SOL     OW20101   3.143   4.069   6.530
 6520SOL    HW120102   3.057   4.019   6.517
 6520SOL    HW220103   3.205   4.015   6.586
 6521SOL     OW20104   2.412   3.920   6.471
 6521SOL    HW120105   2.407   3.915   6.571
 6521SOL    HW220106   2.414   4.016   6.442
 6522SOL     OW20107   2.064   4.009   7.084
 6522SOL    HW120108   1.984   4.069   7.071
 6522SOL    HW220109   2.054   3.960   7.170
 6523SOL     OW20110   3.262   3.831   6.012
 6523SOL    HW120111   3.238   3.794   5.922
 6523SOL    HW220112   3.361   3.847   6.016
 6524SOL     OW20113   3.409   3.946   7.315
 6524SOL    HW120114   3.404   3.983   7.407
 6524SOL    HW220115   3.337   3.877   7.303
 6525SOL     OW20116   2.476   3.846   5.703
 6525SOL    HW120117   2.574   3.824   5.710
 6525SOL    HW220118   2.445   3.829   5.610
 6526SOL     OW20119   2.643   3.988   7.335
 6526SOL    HW120120   2.710   3.927   7.378
 6526SOL    HW220121   2.570   4.007   7.400
 6527SOL     OW20122   2.401   3.788   6.098
 6527SOL    HW120123   2.320   3.789   6.156
 6527SOL    HW220124   2.404   3.871   6.043
 6528SOL     OW20125   2.159   3.759   5.757
 6528SOL    HW120126   2.208   3.843   5.736
 6528SOL    HW220127   2.221   3.694   5.802
 6529SOL     OW20128   2.423   3.946   6.733
 6529SOL    HW120129   2.461   3.862   6.770
 6529SOL    HW220130   2.335   3.965   6.777
 6530SOL     OW20131   2.879   3.763   6.339
 6530SOL    HW120132   2.807   3.768   6.270
 6530SOL    HW220133   2.855   3.694   6.408
 6531SOL     OW20134   2.777   3.813   6.988
 6531SOL    HW120135   2.802   3.793   6.893
 6531SOL    HW220136   2.849   3.869   7.030
 6532SOL     OW20137   3.136   4.110   6.848
 6532SOL    HW120138   3.157   4.184   6.912
 6532SOL    HW220139   3.047   4.127   6.805
 6533SOL     OW20140   2.366   3.774   7.326
 6533SOL    HW120141   2.324   3.717   7.256
 6533SOL    HW220142   2.300   3.843   7.358
 6534SOL     OW20143   2.169   3.937   6.817
 6534SOL    HW120144   2.146   3.974   6.907
 6534SOL    HW220145   2.139   3.842   6.811
 6535SOL     OW20146   3.402   3.998   5.711
 6535SOL    HW120147   3.341   3.923   5.734
 6535SOL    HW220148   3.424   4.050   5.794
 6536SOL     OW20149   3.022   3.931   7.063
 6536SOL    HW120150   3.022   3.995   7.140
 6536SOL    HW220151   3.050   3.979   6.980
 6537SOL     OW20152   2.765   3.810   5.719
 6537SOL    HW120153   2.816   3.811   5.633
 6537SOL    HW220154   2.821   3.768   5.790
 6538SOL     OW20155   3.588   3.859   6.109
 6538SOL    HW120156   3.661   3.842   6.042
 6538SOL    HW220157   3.557   3.772   6.147
 6539SOL     OW20158   3.703   3.899   6.549
 6539SOL    HW120159   3.742   3.814   6.513
 6539SOL    HW220160   3.605   3.901   6.530
 6540SOL     OW20161   2.534   3.927   7.075
 6540SOL    HW120162   2.624   3.911   7.035
 6540SOL    HW220163   2.542   3.932   7.174
 6541SOL     OW20164   1.937   4.069   5.619
 6541SOL    HW120165   1.845   4.041   5.590
 6541SOL    HW220166   1.968   4.146   5.563
 6542SOL     OW20167   1.934   3.890   5.904
 6542SOL    HW120168   1.917   3.973   5.850
 6542SOL    HW220169   2.024   3.853   5.882
 6543SOL     OW20170   3.087   4.049   6.035
 6543SOL    HW120171   3.152   3.975   6.024
 6543SOL    HW220172   3.107   4.099   6.119
 6544SOL     OW20173   3.639   4.066   7.228
 6544SOL    HW120174   3.622   4.097   7.134
 6544SOL    HW220175   3.555   4.029   7.266
 6545SOL     OW20176   3.686   3.916   6.813
 6545SOL    HW120177   3.682   3.826   6.857
 6545SOL    HW220178   3.689   3.905   6.714
 6546SOL     OW20179   3.286   3.938   6.698
 6546SOL    HW120180   3.338   3.873   6.753
 6546SOL    HW220181   3.237   4.001   6.759
 6547SOL     OW20182   2.863   3.758   6.740
 6547SOL    HW120183   2.800   3.686   6.709
 6547SOL    HW220184   2.956   3.722   6.740
 6548SOL     OW20185   3.214   3.776   5.754
 6548SOL    HW120186   3.249   3.735   5.670
 6548SOL    HW220187   3.124   3.738   5.774
 6549SOL     OW20188   3.162   4.177   6.277
 6549SOL    HW120189   3.103   4.257   6.281
 6549SOL    HW220190   3.177   4.142   6.370
 6550SOL     OW20191   3.455   3.945   6.468
 6550SOL    HW120192   3.371   3.944   6.522
 6550SOL    HW220193   3.457   4.028   6.412
 6551SOL     OW20194   2.087   3.999   8.444
 6551SOL    HW120195   2.122   3.982   8.536
 6551SOL    HW220196   1.999   3.954   8.432
 6552SOL     OW20197   1.881   4.092   8.095
 6552SOL    HW120198   1.799   4.135   8.134
 6552SOL    HW220199   1.853   4.019   8.032
 6553SOL     OW20200   3.617   4.331   7.679
 6553SOL    HW120201   3.605   4.318   7.580
 6553SOL    HW220202   3.587   4.250   7.728
 6554SOL     OW20203   2.300   4.116   8.947
 6554SOL    HW120204   2.382   4.060   8.956
 6554SOL    HW220205   2.219   4.058   8.951
 6555SOL     OW20206   3.456   3.838   8.928
 6555SOL    HW120207   3.438   3.905   8.856
 6555SOL    HW220208   3.453   3.884   9.017
 6556SOL     OW20209   2.671   3.728   7.950
 6556SOL    HW120210   2.711   3.819   7.941
 6556SOL    HW220211   2.571   3.736   7.956
 6557SOL     OW20212   3.143   4.069   8.392
 6557SOL    HW120213   3.057   4.019   8.379
 6557SOL    HW220214   3.205   4.015   8.448
 6558SOL     OW20215   2.412   3.920   8.333
 6558SOL    HW120216   2.407   3.915   8.433
 6558SOL    HW220217   2.414   4.016   8.304
 6559SOL     OW20218   2.064   4.009   8.946
 6559SOL    HW120219   1.984   4.069   8.933
 6559SOL    HW220220   2.054   3.960   9.032
 6560SOL     OW20221   3.262   3.831   7.874
 6560SOL    HW120222   3.238   3.794   7.784
 6560SOL    HW220223   3.361   3.847   7.878
 6561SOL     OW20224   3.409   3.946   9.177
 6561SOL    HW120225   3.404   3.983   9.269
 6561SOL    HW220226   3.337   3.877   9.165
 6562SOL     OW20227   2.476   3.846   7.565
 6562SOL    HW120228   2.574   3.824   7.572
 6562SOL    HW220229   2.445   3.829   7.472
 6563SOL     OW20230   2.643   3.988   9.197
 6563SOL    HW120231   2.710   3.927   9.240
 6563SOL    HW220232   2.570   4.007   9.262
 6564SOL     OW20233   2.401   3.788   7.960
 6564SOL    HW120234   2.320   3.789   8.018
 6564SOL    HW220235   2.404   3.871   7.905
 6565SOL     OW20236   2.159   3.759   7.619
 6565SOL    HW120237   2.208   3.843   7.598
 6565SOL    HW220238   2.221   3.694   7.664
 6566SOL     OW20239   2.423   3.946   8.595
 6566SOL    HW120240   2.461   3.862   8.632
 6566SOL    HW220241   2.335   3.965   8.639
 6567SOL     OW20242   2.879   3.763   8.201
 6567SOL    HW120243   2.807   3.768   8.132
 6567SOL    HW220244   2.855   3.694   8.270
 6568SOL     OW20245   2.777   3.813   8.850
 6568SOL    HW120246   2.802   3.793   8.755
 6568SOL    HW220247   2.849   3.869   8.892
 6569SOL     OW20248   3.136   4.110   8.710
 6569SOL    HW120249   3.157   4.184   8.774
 6569SOL    HW220250   3.047   4.127   8.667
 6570SOL     OW20251   2.366   3.774   9.188
 6570SOL    HW120252   2.324   3.717   9.118
 6570SOL    HW220253   2.300   3.843   9.220
 6571SOL     OW20254   2.169   3.937   8.679
 6571SOL    HW120255   2.146   3.974   8.769
 6571SOL    HW220256   2.139   3.842   8.673
 6572SOL     OW20257   3.402   3.998   7.573
 6572SOL    HW120258   3.341   3.923   7.596
 6572SOL    HW220259   3.424   4.050   7.656
 6573SOL     OW20260   3.022   3.931   8.925
 6573SOL    HW120261   3.022   3.995   9.002
 6573SOL    HW220262   3.050   3.979   8.842
 6574SOL     OW20263   2.765   3.810   7.581
 6574SOL    HW120264   2.816   3.811   7.495
 6574SOL    HW220265   2.821   3.768   7.652
 6575SOL     OW20266   3.588   3.859   7.971
 6575SOL    HW120267   3.661   3.842   7.904
 6575SOL    HW220268   3.557   3.772   8.009
 6576SOL     OW20269   3.703   3.899   8.411
 6576SOL    HW120270   3.742   3.814   8.375
 6576SOL    HW220271   3.605   3.901   8.392
 6577SOL     OW20272   2.534   3.927   8.937
 6577SOL    HW120273   2.624   3.911   8.897
 6577SOL    HW220274   2.542   3.932   9.036
 6578SOL     OW20275   1.937   4.069   7.481
 6578SOL    HW120276   1.845   4.041   7.452
 6578SOL    HW220277   1.968   4.146   7.425
 6579SOL     OW20278   1.934   3.890   7.766
 6579SOL    HW120279   1.917   3.973   7.712
 6579SOL    HW220280   2.024   3.853   7.744
 6580SOL     OW20281   3.087   4.049   7.897
 6580SOL    HW120282   3.152   3.975   7.886
 6580SOL    HW220283   3.107   4.099   7.981
 6581SOL     OW20284   3.639   4.066   9.090
 6581SOL    HW120285   3.622   4.097   8.996
 6581SOL    HW220286   3.555   4.029   9.128
 6582SOL     OW20287   3.686   3.916   8.675
 6582SOL    HW120288   3.682   3.826   8.719
 6582SOL    HW220289   3.689   3.905   8.576
 6583SOL     OW20290   3.286   3.938   8.560
 6583SOL    HW120291   3.338   3.873   8.615
 6583SOL    HW220292   3.237   4.001   8.621
 6584SOL     OW20293   2.863   3.758   8.602
 6584SOL    HW120294   2.800   3.686   8.571
 6584SOL    HW220295   2.956   3.722   8.602
 6585SOL     OW20296   3.214   3.776   7.616
 6585SOL    HW120297   3.249   3.735   7.532
 6585SOL    HW220298   3.124   3.738   7.636
 6586SOL     OW20299   3.162   4.177   8.139
 6586SOL    HW120300   3.103   4.257   8.143
 6586SOL    HW220301   3.177   4.142   8.232
 6587SOL     OW20302   3.455   3.945   8.330
 6587SOL    HW120303   3.371   3.944   8.384
 6587SOL    HW220304   3.457   4.028   8.274
 6588SOL     OW20305   2.087   3.999  10.306
 6588SOL    HW120306   2.122   3.982  10.398
 6588SOL    HW220307   1.999   3.954  10.294
 6589SOL     OW20308   1.881   4.092   9.957
 6589SOL    HW120309   1.799   4.135   9.996
 6589SOL    HW220310   1.853   4.019   9.894
 6590SOL     OW20311   3.617   4.331   9.541
 6590SOL    HW120312   3.605   4.318   9.442
 6590SOL    HW220313   3.587   4.250   9.590
 6591SOL     OW20314   2.300   4.116  10.809
 6591SOL    HW120315   2.382   4.060  10.818
 6591SOL    HW220316   2.219   4.058  10.813
 6592SOL     OW20317   3.456   3.838  10.790
 6592SOL    HW120318   3.438   3.905  10.718
 6592SOL    HW220319   3.453   3.884  10.879
 6593SOL     OW20320   2.671   3.728   9.812
 6593SOL    HW120321   2.711   3.819   9.803
 6593SOL    HW220322   2.571   3.736   9.818
 6594SOL     OW20323   3.143   4.069  10.254
 6594SOL    HW120324   3.057   4.019  10.241
 6594SOL    HW220325   3.205   4.015  10.310
 6595SOL     OW20326   2.412   3.920  10.195
 6595SOL    HW120327   2.407   3.915  10.295
 6595SOL    HW220328   2.414   4.016  10.166
 6596SOL     OW20329   2.064   4.009  10.808
 6596SOL    HW120330   1.984   4.069  10.795
 6596SOL    HW220331   2.054   3.960  10.894
 6597SOL     OW20332   3.262   3.831   9.736
 6597SOL    HW120333   3.238   3.794   9.646
 6597SOL    HW220334   3.361   3.847   9.740
 6598SOL     OW20335   3.409   3.946  11.039
 6598SOL    HW120336   3.404   3.983  11.131
 6598SOL    HW220337   3.337   3.877  11.027
 6599SOL     OW20338   2.476   3.846   9.427
 6599SOL    HW120339   2.574   3.824   9.434
 6599SOL    HW220340   2.445   3.829   9.334
 6600SOL     OW20341   2.643   3.988  11.059
 6600SOL    HW120342   2.710   3.927  11.102
 6600SOL    HW220343   2.570   4.007  11.124
 6601SOL     OW20344   2.401   3.788   9.822
 6601SOL    HW120345   2.320   3.789   9.880
 6601SOL    HW220346   2.404   3.871   9.767
 6602SOL     OW20347   2.159   3.759   9.481
 6602SOL    HW120348   2.208   3.843   9.460
 6602SOL    HW220349   2.221   3.694   9.526
 6603SOL     OW20350   2.423   3.946  10.457
 6603SOL    HW120351   2.461   3.862  10.494
 6603SOL    HW220352   2.335   3.965  10.501
 6604SOL     OW20353   2.879   3.763  10.063
 6604SOL    HW120354   2.807   3.768   9.994
 6604SOL    HW220355   2.855   3.694  10.132
 6605SOL     OW20356   2.777   3.813  10.712
 6605SOL    HW120357   2.802   3.793  10.617
 6605SOL    HW220358   2.849   3.869  10.754
 6606SOL     OW20359   3.136   4.110  10.572
 6606SOL    HW120360   3.157   4.184  10.636
 6606SOL    HW220361   3.047   4.127  10.529
 6607SOL     OW20362   2.366   3.774  11.050
 6607SOL    HW120363   2.324   3.717  10.980
 6607SOL    HW220364   2.300   3.843  11.082
 6608SOL     OW20365   2.169   3.937  10.541
 6608SOL    HW120366   2.146   3.974  10.631
 6608SOL    HW220367   2.139   3.842  10.535
 6609SOL     OW20368   3.402   3.998   9.435
 6609SOL    HW120369   3.341   3.923   9.458
 6609SOL    HW220370   3.424   4.050   9.518
 6610SOL     OW20371   3.022   3.931  10.787
 6610SOL    HW120372   3.022   3.995  10.864
 6610SOL    HW220373   3.050   3.979  10.704
 6611SOL     OW20374   2.765   3.810   9.443
 6611SOL    HW120375   2.816   3.811   9.357
 6611SOL    HW220376   2.821   3.768   9.514
 6612SOL     OW20377   3.588   3.859   9.833
 6612SOL    HW120378   3.661   3.842   9.766
 6612SOL    HW220379   3.557   3.772   9.871
 6613SOL     OW20380   3.703   3.899  10.273
 6613SOL    HW120381   3.742   3.814  10.237
 6613SOL    HW220382   3.605   3.901  10.254
 6614SOL     OW20383   2.534   3.927  10.799
 6614SOL    HW120384   2.624   3.911  10.759
 6614SOL    HW220385   2.542   3.932  10.898
 6615SOL     OW20386   1.937   4.069   9.343
 6615SOL    HW120387   1.845   4.041   9.314
 6615SOL    HW220388   1.968   4.146   9.287
 6616SOL     OW20389   1.934   3.890   9.628
 6616SOL    HW120390   1.917   3.973   9.574
 6616SOL    HW220391   2.024   3.853   9.606
 6617SOL     OW20392   3.087   4.049   9.759
 6617SOL    HW120393   3.152   3.975   9.748
 6617SOL    HW220394   3.107   4.099   9.843
 6618SOL     OW20395   3.639   4.066  10.952
 6618SOL    HW120396   3.622   4.097  10.858
 6618SOL    HW220397   3.555   4.029  10.990
 6619SOL     OW20398   3.686   3.916  10.537
 6619SOL    HW120399   3.682   3.826  10.581
 6619SOL    HW220400   3.689   3.905  10.438
 6620SOL     OW20401   3.286   3.938  10.422
 6620SOL    HW120402   3.338   3.873  10.477
 6620SOL    HW220403   3.237   4.001  10.483
 6621SOL     OW20404   2.863   3.758  10.464
 6621SOL    HW120405   2.800   3.686  10.433
 6621SOL    HW220406   2.956   3.722  10.464
 6622SOL     OW20407   3.214   3.776   9.478
 6622SOL    HW120408   3.249   3.735   9.394
 6622SOL    HW220409   3.124   3.738   9.498
 6623SOL     OW20410   3.162   4.177  10.001
 6623SOL    HW120411   3.103   4.257  10.005
 6623SOL    HW220412   3.177   4.142  10.094
 6624SOL     OW20413   3.455   3.945  10.192
 6624SOL    HW120414   3.371   3.944  10.246
 6624SOL    HW220415   3.457   4.028  10.136
 6625SOL     OW20416   2.087   3.999  12.168
 6625SOL    HW120417   2.122   3.982  12.260
 6625SOL    HW220418   1.999   3.954  12.156
 6626SOL     OW20419   1.881   4.092  11.819
 6626SOL    HW120420   1.799   4.135  11.858
 6626SOL    HW220421   1.853   4.019  11.756
 6627SOL     OW20422   3.617   4.331  11.403
 6627SOL    HW120423   3.605   4.318  11.304
 6627SOL    HW220424   3.587   4.250  11.452
 6628SOL     OW20425   2.300   4.116  12.671
 6628SOL    HW120426   2.382   4.060  12.680
 6628SOL    HW220427   2.219   4.058  12.675
 6629SOL     OW20428   3.456   3.838  12.652
 6629SOL    HW120429   3.438   3.905  12.580
 6629SOL    HW220430   3.453   3.884  12.741
 6630SOL     OW20431   2.671   3.728  11.674
 6630SOL    HW120432   2.711   3.819  11.665
 6630SOL    HW220433   2.571   3.736  11.680
 6631SOL     OW20434   3.143   4.069  12.116
 6631SOL    HW120435   3.057   4.019  12.103
 6631SOL    HW220436   3.205   4.015  12.172
 6632SOL     OW20437   2.412   3.920  12.057
 6632SOL    HW120438   2.407   3.915  12.157
 6632SOL    HW220439   2.414   4.016  12.028
 6633SOL     OW20440   2.064   4.009  12.670
 6633SOL    HW120441   1.984   4.069  12.657
 6633SOL    HW220442   2.054   3.960  12.756
 6634SOL     OW20443   3.262   3.831  11.598
 6634SOL    HW120444   3.238   3.794  11.508
 6634SOL    HW220445   3.361   3.847  11.602
 6635SOL     OW20446   3.409   3.946  12.901
 6635SOL    HW120447   3.404   3.983  12.993
 6635SOL    HW220448   3.337   3.877  12.889
 6636SOL     OW20449   2.476   3.846  11.289
 6636SOL    HW120450   2.574   3.824  11.296
 6636SOL    HW220451   2.445   3.829  11.196
 6637SOL     OW20452   2.643   3.988  12.921
 6637SOL    HW120453   2.710   3.927  12.964
 6637SOL    HW220454   2.570   4.007  12.986
 6638SOL     OW20455   2.401   3.788  11.684
 6638SOL    HW120456   2.320   3.789  11.742
 6638SOL    HW220457   2.404   3.871  11.629
 6639SOL     OW20458   2.159   3.759  11.343
 6639SOL    HW120459   2.208   3.843  11.322
 6639SOL    HW220460   2.221   3.694  11.388
 6640SOL     OW20461   2.423   3.946  12.319
 6640SOL    HW120462   2.461   3.862  12.356
 6640SOL    HW220463   2.335   3.965  12.363
 6641SOL     OW20464   2.879   3.763  11.925
 6641SOL    HW120465   2.807   3.768  11.856
 6641SOL    HW220466   2.855   3.694  11.994
 6642SOL     OW20467   2.777   3.813  12.574
 6642SOL    HW120468   2.802   3.793  12.479
 6642SOL    HW220469   2.849   3.869  12.616
 6643SOL     OW20470   3.136   4.110  12.434
 6643SOL    HW120471   3.157   4.184  12.498
 6643SOL    HW220472   3.047   4.127  12.391
 6644SOL     OW20473   2.366   3.774  12.912
 6644SOL    HW120474   2.324   3.717  12.842
 6644SOL    HW220475   2.300   3.843  12.944
 6645SOL     OW20476   2.169   3.937  12.403
 6645SOL    HW120477   2.146   3.974  12.493
 6645SOL    HW220478   2.139   3.842  12.397
 6646SOL     OW20479   3.402   3.998  11.297
 6646SOL    HW120480   3.341   3.923  11.320
 6646SOL    HW220481   3.424   4.050  11.380
 6647SOL     OW20482   3.022   3.931  12.649
 6647SOL    HW120483   3.022   3.995  12.726
 6647SOL    HW220484   3.050   3.979  12.566
 6648SOL     OW20485   2.765   3.810  11.305
 6648SOL    HW120486   2.816   3.811  11.219
 6648SOL    HW220487   2.821   3.768  11.376
 6649SOL     OW20488   3.588   3.859  11.695
 6649SOL    HW120489   3.661   3.842  11.628
 6649SOL    HW220490   3.557   3.772  11.733
 6650SOL     OW20491   3.703   3.899  12.135
 6650SOL    HW120492   3.742   3.814  12.099
 6650SOL    HW220493   3.605   3.901  12.116
 6651SOL     OW20494   2.534   3.927  12.661
 6651SOL    HW120495   2.624   3.911  12.621
 6651SOL    HW220496   2.542   3.932  12.760
 6652SOL     OW20497   1.937   4.069  11.205
 6652SOL    HW120498   1.845   4.041  11.176
 6652SOL    HW220499   1.968   4.146  11.149
 6653SOL     OW20500   1.934   3.890  11.490
 6653SOL    HW120501   1.917   3.973  11.436
 6653SOL    HW220502   2.024   3.853  11.468
 6654SOL     OW20503   3.087   4.049  11.621
 6654SOL    HW120504   3.152   3.975  11.610
 6654SOL    HW220505   3.107   4.099  11.705
 6655SOL     OW20506   3.639   4.066  12.814
 6655SOL    HW120507   3.622   4.097  12.720
 6655SOL    HW220508   3.555   4.029  12.852
 6656SOL     OW20509   3.686   3.916  12.399
 6656SOL    HW120510   3.682   3.826  12.443
 6656SOL    HW220511   3.689   3.905  12.300
 6657SOL     OW20512   3.286   3.938  12.284
 6657SOL    HW120513   3.338   3.873  12.339
 6657SOL    HW220514   3.237   4.001  12.345
 6658SOL     OW20515   2.863   3.758  12.326
 6658SOL    HW120516   2.800   3.686  12.295
 6658SOL    HW220517   2.956   3.722  12.326
 6659SOL     OW20518   3.214   3.776  11.340
 6659SOL    HW120519   3.249   3.735  11.256
 6659SOL    HW220520   3.124   3.738  11.360
 6660SOL     OW20521   3.162   4.177  11.863
 6660SOL    HW120522   3.103   4.257  11.867
 6660SOL    HW220523   3.177   4.142  11.956
 6661SOL     OW20524   3.455   3.945  12.054
 6661SOL    HW120525   3.371   3.944  12.108
 6661SOL    HW220526   3.457   4.028  11.998
 6662SOL     OW20527   1.881   4.092  13.681
 6662SOL    HW120528   1.799   4.135  13.720
 6662SOL    HW220529   1.853   4.019  13.618
 6663SOL     OW20530   3.617   4.331  13.265
 6663SOL    HW120531   3.605   4.318  13.166
 6663SOL    HW220532   3.587   4.250  13.314
 6664SOL     OW20533   3.465   4.171  13.771
 6664SOL    HW120534   3.391   4.217  13.721
 6664SOL    HW220535   3.516   4.239  13.824
 6665SOL     OW20536   2.671   3.728  13.536
 6665SOL    HW120537   2.711   3.819  13.527
 6665SOL    HW220538   2.571   3.736  13.542
 6666SOL     OW20539   3.262   3.831  13.460
 6666SOL    HW120540   3.238   3.794  13.370
 6666SOL    HW220541   3.361   3.847  13.464
 6667SOL     OW20542   2.476   3.846  13.151
 6667SOL    HW120543   2.574   3.824  13.158
 6667SOL    HW220544   2.445   3.829  13.058
 6668SOL     OW20545   2.401   3.788  13.546
 6668SOL    HW120546   2.320   3.789  13.604
 6668SOL    HW220547   2.404   3.871  13.491
 6669SOL     OW20548   2.159   3.759  13.205
 6669SOL    HW120549   2.208   3.843  13.184
 6669SOL    HW220550   2.221   3.694  13.250
 6670SOL     OW20551   2.879   3.763  13.787
 6670SOL    HW120552   2.807   3.768  13.718
 6670SOL    HW220553   2.855   3.694  13.856
 6671SOL     OW20554   3.402   3.998  13.159
 6671SOL    HW120555   3.341   3.923  13.182
 6671SOL    HW220556   3.424   4.050  13.242
 6672SOL     OW20557   2.765   3.810  13.167
 6672SOL    HW120558   2.816   3.811  13.081
 6672SOL    HW220559   2.821   3.768  13.238
 6673SOL     OW20560   3.588   3.859  13.557
 6673SOL    HW120561   3.661   3.842  13.490
 6673SOL    HW220562   3.557   3.772  13.595
 6674SOL     OW20563   3.703   3.899  13.997
 6674SOL    HW120564   3.742   3.814  13.961
 6674SOL    HW220565   3.605   3.901  13.978
 6675SOL     OW20566   1.937   4.069  13.067
 6675SOL    HW120567   1.845   4.041  13.038
 6675SOL    HW220568   1.968   4.146  13.011
 6676SOL     OW20569   1.934   3.890  13.352
 6676SOL    HW120570   1.917   3.973  13.298
 6676SOL    HW220571   2.024   3.853  13.330
 6677SOL     OW20572   3.087   4.049  13.483
 6677SOL    HW120573   3.152   3.975  13.472
 6677SOL    HW220574   3.107   4.099  13.567
 6678SOL     OW20575   3.214   3.776  13.202
 6678SOL    HW120576   3.249   3.735  13.118
 6678SOL    HW220577   3.124   3.738  13.222
 6679SOL     OW20578   3.162   4.177  13.725
 6679SOL    HW120579   3.103   4.257  13.729
 6679SOL    HW220580   3.177   4.142  13.818
 6680SOL     OW20581   3.954   0.628   0.113
 6680SOL    HW120582   3.861   0.626   0.150
 6680SOL    HW220583   3.955   0.589   0.021
 6681SOL     OW20584   3.949   0.275   0.996
 6681SOL    HW120585   3.984   0.258   1.088
 6681SOL    HW220586   3.861   0.230   0.984
 6682SOL     OW20587   3.743   0.368   0.647
 6682SOL    HW120588   3.661   0.411   0.686
 6682SOL    HW220589   3.715   0.295   0.584
 6683SOL     OW20590   4.059   1.435   1.061
 6683SOL    HW120591   3.981   1.404   1.008
 6683SOL    HW220592   4.117   1.493   1.004
 6684SOL     OW20593   3.955   1.713   0.483
 6684SOL    HW120594   3.989   1.790   0.537
 6684SOL    HW220595   3.999   1.713   0.393
 6685SOL     OW20596   3.954   1.434   0.538
 6685SOL    HW120597   3.928   1.530   0.538
 6685SOL    HW220598   3.883   1.380   0.583
 6686SOL     OW20599   3.846   0.643   0.563
 6686SOL    HW120600   3.801   0.555   0.580
 6686SOL    HW220601   3.845   0.697   0.647
 6687SOL     OW20602   3.751   1.596   0.117
 6687SOL    HW120603   3.732   1.500   0.138
 6687SOL    HW220604   3.718   1.654   0.192
 6688SOL     OW20605   3.837   0.737   1.597
 6688SOL    HW120606   3.925   0.724   1.642
 6688SOL    HW220607   3.824   0.834   1.575
 6689SOL     OW20608   3.800   0.811   0.789
 6689SOL    HW120609   3.899   0.799   0.798
 6689SOL    HW220610   3.776   0.906   0.810
 6690SOL     OW20611   3.854   1.821   1.571
 6690SOL    HW120612   3.844   1.806   1.670
 6690SOL    HW220613   3.768   1.857   1.535
 6691SOL     OW20614   3.926   0.285   1.498
 6691SOL    HW120615   3.846   0.345   1.485
 6691SOL    HW220616   3.916   0.236   1.584
 6692SOL     OW20617   3.802   0.556   1.386
 6692SOL    HW120618   3.894   0.555   1.345
 6692SOL    HW220619   3.796   0.630   1.453
 6693SOL     OW20620   3.788   1.564   1.331
 6693SOL    HW120621   3.742   1.646   1.297
 6693SOL    HW220622   3.886   1.583   1.340
 6694SOL     OW20623   4.091   1.100   0.501
 6694SOL    HW120624   4.084   1.183   0.445
 6694SOL    HW220625   4.095   1.020   0.441
 6695SOL     OW20626   4.031   0.213   1.231
 6695SOL    HW120627   4.008   0.250   1.321
 6695SOL    HW220628   4.001   0.118   1.225
 6696SOL     OW20629   3.761   1.310   1.282
 6696SOL    HW120630   3.814   1.261   1.350
 6696SOL    HW220631   3.783   1.408   1.287
 6697SOL     OW20632   3.732   1.326   0.200
 6697SOL    HW120633   3.639   1.347   0.169
 6697SOL    HW220634   3.742   1.227   0.213
 6698SOL     OW20635   3.812   1.801   0.927
 6698SOL    HW120636   3.770   1.715   0.900
 6698SOL    HW220637   3.906   1.804   0.893
 6699SOL     OW20638   4.228   1.568   0.910
 6699SOL    HW120639   4.294   1.642   0.919
 6699SOL    HW220640   4.272   1.489   0.868
 6700SOL     OW20641   3.764   0.544   1.114
 6700SOL    HW120642   3.849   0.511   1.073
 6700SOL    HW220643   3.777   0.559   1.212
 6701SOL     OW20644   3.913   0.520   1.722
 6701SOL    HW120645   3.972   0.480   1.652
 6701SOL    HW220646   3.855   0.591   1.681
 6702SOL     OW20647   3.976   1.564   1.744
 6702SOL    HW120648   3.946   1.621   1.820
 6702SOL    HW220649   3.969   1.467   1.770
 6703SOL     OW20650   3.883   1.137   1.466
 6703SOL    HW120651   3.905   1.076   1.542
 6703SOL    HW220652   3.893   1.088   1.380
 6704SOL     OW20653   3.807   1.258   1.022
 6704SOL    HW120654   3.802   1.257   1.122
 6704SOL    HW220655   3.724   1.217   0.984
 6705SOL     OW20656   3.854   1.794   1.851
 6705SOL    HW120657   3.813   1.720   1.904
 6705SOL    HW220658   3.918   1.845   1.909
 6706SOL     OW20659   3.799   0.345   0.033
 6706SOL    HW120660   3.707   0.317   0.004
 6706SOL    HW220661   3.830   0.422  -0.023
 6707SOL     OW20662   3.796   0.166   0.318
 6707SOL    HW120663   3.779   0.249   0.264
 6707SOL    HW220664   3.886   0.129   0.296
 6708SOL     OW20665   3.803   1.240   0.653
 6708SOL    HW120666   3.802   1.193   0.741
 6708SOL    HW220667   3.885   1.212   0.602
 6709SOL     OW20668   3.763   1.077   0.300
 6709SOL    HW120669   3.862   1.066   0.291
 6709SOL    HW220670   3.723   0.991   0.332
 6710SOL     OW20671   3.954   0.628   1.975
 6710SOL    HW120672   3.861   0.626   2.012
 6710SOL    HW220673   3.955   0.589   1.883
 6711SOL     OW20674   3.949   0.275   2.858
 6711SOL    HW120675   3.984   0.258   2.950
 6711SOL    HW220676   3.861   0.230   2.846
 6712SOL     OW20677   3.743   0.368   2.509
 6712SOL    HW120678   3.661   0.411   2.548
 6712SOL    HW220679   3.715   0.295   2.446
 6713SOL     OW20680   4.059   1.435   2.923
 6713SOL    HW120681   3.981   1.404   2.870
 6713SOL    HW220682   4.117   1.493   2.866
 6714SOL     OW20683   3.955   1.713   2.345
 6714SOL    HW120684   3.989   1.790   2.399
 6714SOL    HW220685   3.999   1.713   2.255
 6715SOL     OW20686   3.954   1.434   2.400
 6715SOL    HW120687   3.928   1.530   2.400
 6715SOL    HW220688   3.883   1.380   2.445
 6716SOL     OW20689   3.846   0.643   2.425
 6716SOL    HW120690   3.801   0.555   2.442
 6716SOL    HW220691   3.845   0.697   2.509
 6717SOL     OW20692   3.751   1.596   1.979
 6717SOL    HW120693   3.732   1.500   2.000
 6717SOL    HW220694   3.718   1.654   2.054
 6718SOL     OW20695   3.837   0.737   3.459
 6718SOL    HW120696   3.925   0.724   3.504
 6718SOL    HW220697   3.824   0.834   3.437
 6719SOL     OW20698   3.800   0.811   2.651
 6719SOL    HW120699   3.899   0.799   2.660
 6719SOL    HW220700   3.776   0.906   2.672
 6720SOL     OW20701   3.854   1.821   3.433
 6720SOL    HW120702   3.844   1.806   3.532
 6720SOL    HW220703   3.768   1.857   3.397
 6721SOL     OW20704   3.926   0.285   3.360
 6721SOL    HW120705   3.846   0.345   3.347
 6721SOL    HW220706   3.916   0.236   3.446
 6722SOL     OW20707   3.802   0.556   3.248
 6722SOL    HW120708   3.894   0.555   3.207
 6722SOL    HW220709   3.796   0.630   3.315
 6723SOL     OW20710   4.251   0.256   2.190
 6723SOL    HW120711   4.278   0.197   2.115
 6723SOL    HW220712   4.251   0.351   2.159
 6724SOL     OW20713   3.788   1.564   3.193
 6724SOL    HW120714   3.742   1.646   3.159
 6724SOL    HW220715   3.886   1.583   3.202
 6725SOL     OW20716   4.091   1.100   2.363
 6725SOL    HW120717   4.084   1.183   2.307
 6725SOL    HW220718   4.095   1.020   2.303
 6726SOL     OW20719   4.031   0.213   3.093
 6726SOL    HW120720   4.008   0.250   3.183
 6726SOL    HW220721   4.001   0.118   3.087
 6727SOL     OW20722   3.761   1.310   3.144
 6727SOL    HW120723   3.814   1.261   3.212
 6727SOL    HW220724   3.783   1.408   3.149
 6728SOL     OW20725   3.732   1.326   2.062
 6728SOL    HW120726   3.639   1.347   2.031
 6728SOL    HW220727   3.742   1.227   2.075
 6729SOL     OW20728   3.812   1.801   2.789
 6729SOL    HW120729   3.770   1.715   2.762
 6729SOL    HW220730   3.906   1.804   2.755
 6730SOL     OW20731   4.228   1.568   2.772
 6730SOL    HW120732   4.294   1.642   2.781
 6730SOL    HW220733   4.272   1.489   2.730
 6731SOL     OW20734   3.764   0.544   2.976
 6731SOL    HW120735   3.849   0.511   2.935
 6731SOL    HW220736   3.777   0.559   3.074
 6732SOL     OW20737   3.913   0.520   3.584
 6732SOL    HW120738   3.972   0.480   3.514
 6732SOL    HW220739   3.855   0.591   3.543
 6733SOL     OW20740   3.976   1.564   3.606
 6733SOL    HW120741   3.946   1.621   3.682
 6733SOL    HW220742   3.969   1.467   3.632
 6734SOL     OW20743   3.883   1.137   3.328
 6734SOL    HW120744   3.905   1.076   3.404
 6734SOL    HW220745   3.893   1.088   3.242
 6735SOL     OW20746   3.807   1.258   2.884
 6735SOL    HW120747   3.802   1.257   2.984
 6735SOL    HW220748   3.724   1.217   2.846
 6736SOL     OW20749   3.854   1.794   3.713
 6736SOL    HW120750   3.813   1.720   3.766
 6736SOL    HW220751   3.918   1.845   3.771
 6737SOL     OW20752   3.799   0.345   1.895
 6737SOL    HW120753   3.707   0.317   1.866
 6737SOL    HW220754   3.830   0.422   1.839
 6738SOL     OW20755   3.796   0.166   2.180
 6738SOL    HW120756   3.779   0.249   2.126
 6738SOL    HW220757   3.886   0.129   2.158
 6739SOL     OW20758   3.803   1.240   2.515
 6739SOL    HW120759   3.802   1.193   2.603
 6739SOL    HW220760   3.885   1.212   2.464
 6740SOL     OW20761   3.763   1.077   2.162
 6740SOL    HW120762   3.862   1.066   2.153
 6740SOL    HW220763   3.723   0.991   2.194
 6741SOL     OW20764   3.954   0.628   3.837
 6741SOL    HW120765   3.861   0.626   3.874
 6741SOL    HW220766   3.955   0.589   3.745
 6742SOL     OW20767   3.949   0.275   4.720
 6742SOL    HW120768   3.984   0.258   4.812
 6742SOL    HW220769   3.861   0.230   4.708
 6743SOL     OW20770   3.743   0.368   4.371
 6743SOL    HW120771   3.661   0.411   4.410
 6743SOL    HW220772   3.715   0.295   4.308
 6744SOL     OW20773   4.059   1.435   4.785
 6744SOL    HW120774   3.981   1.404   4.732
 6744SOL    HW220775   4.117   1.493   4.728
 6745SOL     OW20776   3.955   1.713   4.207
 6745SOL    HW120777   3.989   1.790   4.261
 6745SOL    HW220778   3.999   1.713   4.117
 6746SOL     OW20779   3.954   1.434   4.262
 6746SOL    HW120780   3.928   1.530   4.262
 6746SOL    HW220781   3.883   1.380   4.307
 6747SOL     OW20782   3.846   0.643   4.287
 6747SOL    HW120783   3.801   0.555   4.304
 6747SOL    HW220784   3.845   0.697   4.371
 6748SOL     OW20785   3.751   1.596   3.841
 6748SOL    HW120786   3.732   1.500   3.862
 6748SOL    HW220787   3.718   1.654   3.916
 6749SOL     OW20788   3.837   0.737   5.321
 6749SOL    HW120789   3.925   0.724   5.366
 6749SOL    HW220790   3.824   0.834   5.299
 6750SOL     OW20791   3.800   0.811   4.513
 6750SOL    HW120792   3.899   0.799   4.522
 6750SOL    HW220793   3.776   0.906   4.534
 6751SOL     OW20794   3.854   1.821   5.295
 6751SOL    HW120795   3.844   1.806   5.394
 6751SOL    HW220796   3.768   1.857   5.259
 6752SOL     OW20797   3.926   0.285   5.222
 6752SOL    HW120798   3.846   0.345   5.209
 6752SOL    HW220799   3.916   0.236   5.308
 6753SOL     OW20800   3.802   0.556   5.110
 6753SOL    HW120801   3.894   0.555   5.069
 6753SOL    HW220802   3.796   0.630   5.177
 6754SOL     OW20803   4.251   0.256   4.052
 6754SOL    HW120804   4.278   0.197   3.977
 6754SOL    HW220805   4.251   0.351   4.021
 6755SOL     OW20806   3.788   1.564   5.055
 6755SOL    HW120807   3.742   1.646   5.021
 6755SOL    HW220808   3.886   1.583   5.064
 6756SOL     OW20809   4.091   1.100   4.225
 6756SOL    HW120810   4.084   1.183   4.169
 6756SOL    HW220811   4.095   1.020   4.165
 6757SOL     OW20812   4.031   0.213   4.955
 6757SOL    HW120813   4.008   0.250   5.045
 6757SOL    HW220814   4.001   0.118   4.949
 6758SOL     OW20815   3.761   1.310   5.006
 6758SOL    HW120816   3.814   1.261   5.074
 6758SOL    HW220817   3.783   1.408   5.011
 6759SOL     OW20818   3.732   1.326   3.924
 6759SOL    HW120819   3.639   1.347   3.893
 6759SOL    HW220820   3.742   1.227   3.937
 6760SOL     OW20821   3.812   1.801   4.651
 6760SOL    HW120822   3.770   1.715   4.624
 6760SOL    HW220823   3.906   1.804   4.617
 6761SOL     OW20824   4.228   1.568   4.634
 6761SOL    HW120825   4.294   1.642   4.643
 6761SOL    HW220826   4.272   1.489   4.592
 6762SOL     OW20827   3.764   0.544   4.838
 6762SOL    HW120828   3.849   0.511   4.797
 6762SOL    HW220829   3.777   0.559   4.936
 6763SOL     OW20830   3.913   0.520   5.446
 6763SOL    HW120831   3.972   0.480   5.376
 6763SOL    HW220832   3.855   0.591   5.405
 6764SOL     OW20833   3.976   1.564   5.468
 6764SOL    HW120834   3.946   1.621   5.544
 6764SOL    HW220835   3.969   1.467   5.494
 6765SOL     OW20836   3.883   1.137   5.190
 6765SOL    HW120837   3.905   1.076   5.266
 6765SOL    HW220838   3.893   1.088   5.104
 6766SOL     OW20839   3.807   1.258   4.746
 6766SOL    HW120840   3.802   1.257   4.846
 6766SOL    HW220841   3.724   1.217   4.708
 6767SOL     OW20842   3.854   1.794   5.575
 6767SOL    HW120843   3.813   1.720   5.628
 6767SOL    HW220844   3.918   1.845   5.633
 6768SOL     OW20845   3.799   0.345   3.757
 6768SOL    HW120846   3.707   0.317   3.728
 6768SOL    HW220847   3.830   0.422   3.701
 6769SOL     OW20848   3.796   0.166   4.042
 6769SOL    HW120849   3.779   0.249   3.988
 6769SOL    HW220850   3.886   0.129   4.020
 6770SOL     OW20851   3.803   1.240   4.377
 6770SOL    HW120852   3.802   1.193   4.465
 6770SOL    HW220853   3.885   1.212   4.326
 6771SOL     OW20854   3.763   1.077   4.024
 6771SOL    HW120855   3.862   1.066   4.015
 6771SOL    HW220856   3.723   0.991   4.056
 6772SOL     OW20857   3.954   0.628   5.699
 6772SOL    HW120858   3.861   0.626   5.736
 6772SOL    HW220859   3.955   0.589   5.607
 6773SOL     OW20860   3.949   0.275   6.582
 6773SOL    HW120861   3.984   0.258   6.674
 6773SOL    HW220862   3.861   0.230   6.570
 6774SOL     OW20863   3.743   0.368   6.233
 6774SOL    HW120864   3.661   0.411   6.272
 6774SOL    HW220865   3.715   0.295   6.170
 6775SOL     OW20866   4.059   1.435   6.647
 6775SOL    HW120867   3.981   1.404   6.594
 6775SOL    HW220868   4.117   1.493   6.590
 6776SOL     OW20869   3.955   1.713   6.069
 6776SOL    HW120870   3.989   1.790   6.123
 6776SOL    HW220871   3.999   1.713   5.979
 6777SOL     OW20872   3.954   1.434   6.124
 6777SOL    HW120873   3.928   1.530   6.124
 6777SOL    HW220874   3.883   1.380   6.169
 6778SOL     OW20875   3.846   0.643   6.149
 6778SOL    HW120876   3.801   0.555   6.166
 6778SOL    HW220877   3.845   0.697   6.233
 6779SOL     OW20878   3.751   1.596   5.703
 6779SOL    HW120879   3.732   1.500   5.724
 6779SOL    HW220880   3.718   1.654   5.778
 6780SOL     OW20881   3.837   0.737   7.183
 6780SOL    HW120882   3.925   0.724   7.228
 6780SOL    HW220883   3.824   0.834   7.161
 6781SOL     OW20884   3.800   0.811   6.375
 6781SOL    HW120885   3.899   0.799   6.384
 6781SOL    HW220886   3.776   0.906   6.396
 6782SOL     OW20887   3.854   1.821   7.157
 6782SOL    HW120888   3.844   1.806   7.256
 6782SOL    HW220889   3.768   1.857   7.121
 6783SOL     OW20890   3.926   0.285   7.084
 6783SOL    HW120891   3.846   0.345   7.071
 6783SOL    HW220892   3.916   0.236   7.170
 6784SOL     OW20893   3.802   0.556   6.972
 6784SOL    HW120894   3.894   0.555   6.931
 6784SOL    HW220895   3.796   0.630   7.039
 6785SOL     OW20896   4.251   0.256   5.914
 6785SOL    HW120897   4.278   0.197   5.839
 6785SOL    HW220898   4.251   0.351   5.883
 6786SOL     OW20899   3.788   1.564   6.917
 6786SOL    HW120900   3.742   1.646   6.883
 6786SOL    HW220901   3.886   1.583   6.926
 6787SOL     OW20902   4.091   1.100   6.087
 6787SOL    HW120903   4.084   1.183   6.031
 6787SOL    HW220904   4.095   1.020   6.027
 6788SOL     OW20905   4.031   0.213   6.817
 6788SOL    HW120906   4.008   0.250   6.907
 6788SOL    HW220907   4.001   0.118   6.811
 6789SOL     OW20908   3.761   1.310   6.868
 6789SOL    HW120909   3.814   1.261   6.936
 6789SOL    HW220910   3.783   1.408   6.873
 6790SOL     OW20911   3.732   1.326   5.786
 6790SOL    HW120912   3.639   1.347   5.755
 6790SOL    HW220913   3.742   1.227   5.799
 6791SOL     OW20914   3.812   1.801   6.513
 6791SOL    HW120915   3.770   1.715   6.486
 6791SOL    HW220916   3.906   1.804   6.479
 6792SOL     OW20917   4.228   1.568   6.496
 6792SOL    HW120918   4.294   1.642   6.505
 6792SOL    HW220919   4.272   1.489   6.454
 6793SOL     OW20920   3.764   0.544   6.700
 6793SOL    HW120921   3.849   0.511   6.659
 6793SOL    HW220922   3.777   0.559   6.798
 6794SOL     OW20923   3.913   0.520   7.308
 6794SOL    HW120924   3.972   0.480   7.238
 6794SOL    HW220925   3.855   0.591   7.267
 6795SOL     OW20926   3.976   1.564   7.330
 6795SOL    HW120927   3.946   1.621   7.406
 6795SOL    HW220928   3.969   1.467   7.356
 6796SOL     OW20929   3.883   1.137   7.052
 6796SOL    HW120930   3.905   1.076   7.128
 6796SOL    HW220931   3.893   1.088   6.966
 6797SOL     OW20932   3.807   1.258   6.608
 6797SOL    HW120933   3.802   1.257   6.708
 6797SOL    HW220934   3.724   1.217   6.570
 6798SOL     OW20935   3.854   1.794   7.437
 6798SOL    HW120936   3.813   1.720   7.490
 6798SOL    HW220937   3.918   1.845   7.495
 6799SOL     OW20938   3.799   0.345   5.619
 6799SOL    HW120939   3.707   0.317   5.590
 6799SOL    HW220940   3.830   0.422   5.563
 6800SOL     OW20941   3.796   0.166   5.904
 6800SOL    HW120942   3.779   0.249   5.850
 6800SOL    HW220943   3.886   0.129   5.882
 6801SOL     OW20944   3.803   1.240   6.239
 6801SOL    HW120945   3.802   1.193   6.327
 6801SOL    HW220946   3.885   1.212   6.188
 6802SOL     OW20947   3.763   1.077   5.886
 6802SOL    HW120948   3.862   1.066   5.877
 6802SOL    HW220949   3.723   0.991   5.918
 6803SOL     OW20950   3.954   0.628   7.561
 6803SOL    HW120951   3.861   0.626   7.598
 6803SOL    HW220952   3.955   0.589   7.469
 6804SOL     OW20953   3.949   0.275   8.444
 6804SOL    HW120954   3.984   0.258   8.536
 6804SOL    HW220955   3.861   0.230   8.432
 6805SOL     OW20956   3.743   0.368   8.095
 6805SOL    HW120957   3.661   0.411   8.134
 6805SOL    HW220958   3.715   0.295   8.032
 6806SOL     OW20959   4.059   1.435   8.509
 6806SOL    HW120960   3.981   1.404   8.456
 6806SOL    HW220961   4.117   1.493   8.452
 6807SOL     OW20962   3.955   1.713   7.931
 6807SOL    HW120963   3.989   1.790   7.985
 6807SOL    HW220964   3.999   1.713   7.841
 6808SOL     OW20965   3.954   1.434   7.986
 6808SOL    HW120966   3.928   1.530   7.986
 6808SOL    HW220967   3.883   1.380   8.031
 6809SOL     OW20968   3.846   0.643   8.011
 6809SOL    HW120969   3.801   0.555   8.028
 6809SOL    HW220970   3.845   0.697   8.095
 6810SOL     OW20971   3.751   1.596   7.565
 6810SOL    HW120972   3.732   1.500   7.586
 6810SOL    HW220973   3.718   1.654   7.640
 6811SOL     OW20974   3.837   0.737   9.045
 6811SOL    HW120975   3.925   0.724   9.090
 6811SOL    HW220976   3.824   0.834   9.023
 6812SOL     OW20977   3.800   0.811   8.237
 6812SOL    HW120978   3.899   0.799   8.246
 6812SOL    HW220979   3.776   0.906   8.258
 6813SOL     OW20980   3.854   1.821   9.019
 6813SOL    HW120981   3.844   1.806   9.118
 6813SOL    HW220982   3.768   1.857   8.983
 6814SOL     OW20983   3.926   0.285   8.946
 6814SOL    HW120984   3.846   0.345   8.933
 6814SOL    HW220985   3.916   0.236   9.032
 6815SOL     OW20986   3.802   0.556   8.834
 6815SOL    HW120987   3.894   0.555   8.793
 6815SOL    HW220988   3.796   0.630   8.901
 6816SOL     OW20989   4.251   0.256   7.776
 6816SOL    HW120990   4.278   0.197   7.701
 6816SOL    HW220991   4.251   0.351   7.745
 6817SOL     OW20992   3.788   1.564   8.779
 6817SOL    HW120993   3.742   1.646   8.745
 6817SOL    HW220994   3.886   1.583   8.788
 6818SOL     OW20995   4.091   1.100   7.949
 6818SOL    HW120996   4.084   1.183   7.893
 6818SOL    HW220997   4.095   1.020   7.889
 6819SOL     OW20998   4.031   0.213   8.679
 6819SOL    HW120999   4.008   0.250   8.769
 6819SOL    HW221000   4.001   0.118   8.673
 6820SOL     OW21001   3.761   1.310   8.730
 6820SOL    HW121002   3.814   1.261   8.798
 6820SOL    HW221003   3.783   1.408   8.735
 6821SOL     OW21004   3.732   1.326   7.648
 6821SOL    HW121005   3.639   1.347   7.617
 6821SOL    HW221006   3.742   1.227   7.661
 6822SOL     OW21007   3.812   1.801   8.375
 6822SOL    HW121008   3.770   1.715   8.348
 6822SOL    HW221009   3.906   1.804   8.341
 6823SOL     OW21010   4.228   1.568   8.358
 6823SOL    HW121011   4.294   1.642   8.367
 6823SOL    HW221012   4.272   1.489   8.316
 6824SOL     OW21013   3.764   0.544   8.562
 6824SOL    HW121014   3.849   0.511   8.521
 6824SOL    HW221015   3.777   0.559   8.660
 6825SOL     OW21016   3.913   0.520   9.170
 6825SOL    HW121017   3.972   0.480   9.100
 6825SOL    HW221018   3.855   0.591   9.129
 6826SOL     OW21019   3.976   1.564   9.192
 6826SOL    HW121020   3.946   1.621   9.268
 6826SOL    HW221021   3.969   1.467   9.218
 6827SOL     OW21022   3.883   1.137   8.914
 6827SOL    HW121023   3.905   1.076   8.990
 6827SOL    HW221024   3.893   1.088   8.828
 6828SOL     OW21025   3.807   1.258   8.470
 6828SOL    HW121026   3.802   1.257   8.570
 6828SOL    HW221027   3.724   1.217   8.432
 6829SOL     OW21028   3.854   1.794   9.299
 6829SOL    HW121029   3.813   1.720   9.352
 6829SOL    HW221030   3.918   1.845   9.357
 6830SOL     OW21031   3.799   0.345   7.481
 6830SOL    HW121032   3.707   0.317   7.452
 6830SOL    HW221033   3.830   0.422   7.425
 6831SOL     OW21034   3.796   0.166   7.766
 6831SOL    HW121035   3.779   0.249   7.712
 6831SOL    HW221036   3.886   0.129   7.744
 6832SOL     OW21037   3.803   1.240   8.101
 6832SOL    HW121038   3.802   1.193   8.189
 6832SOL    HW221039   3.885   1.212   8.050
 6833SOL     OW21040   3.763   1.077   7.748
 6833SOL    HW121041   3.862   1.066   7.739
 6833SOL    HW221042   3.723   0.991   7.780
 6834SOL     OW21043   3.954   0.628   9.423
 6834SOL    HW121044   3.861   0.626   9.460
 6834SOL    HW221045   3.955   0.589   9.331
 6835SOL     OW21046   3.949   0.275  10.306
 6835SOL    HW121047   3.984   0.258  10.398
 6835SOL    HW221048   3.861   0.230  10.294
 6836SOL     OW21049   3.743   0.368   9.957
 6836SOL    HW121050   3.661   0.411   9.996
 6836SOL    HW221051   3.715   0.295   9.894
 6837SOL     OW21052   4.059   1.435  10.371
 6837SOL    HW121053   3.981   1.404  10.318
 6837SOL    HW221054   4.117   1.493  10.314
 6838SOL     OW21055   3.955   1.713   9.793
 6838SOL    HW121056   3.989   1.790   9.847
 6838SOL    HW221057   3.999   1.713   9.703
 6839SOL     OW21058   3.954   1.434   9.848
 6839SOL    HW121059   3.928   1.530   9.848
 6839SOL    HW221060   3.883   1.380   9.893
 6840SOL     OW21061   3.846   0.643   9.873
 6840SOL    HW121062   3.801   0.555   9.890
 6840SOL    HW221063   3.845   0.697   9.957
 6841SOL     OW21064   3.751   1.596   9.427
 6841SOL    HW121065   3.732   1.500   9.448
 6841SOL    HW221066   3.718   1.654   9.502
 6842SOL     OW21067   3.837   0.737  10.907
 6842SOL    HW121068   3.925   0.724  10.952
 6842SOL    HW221069   3.824   0.834  10.885
 6843SOL     OW21070   3.800   0.811  10.099
 6843SOL    HW121071   3.899   0.799  10.108
 6843SOL    HW221072   3.776   0.906  10.120
 6844SOL     OW21073   3.854   1.821  10.881
 6844SOL    HW121074   3.844   1.806  10.980
 6844SOL    HW221075   3.768   1.857  10.845
 6845SOL     OW21076   3.926   0.285  10.808
 6845SOL    HW121077   3.846   0.345  10.795
 6845SOL    HW221078   3.916   0.236  10.894
 6846SOL     OW21079   3.802   0.556  10.696
 6846SOL    HW121080   3.894   0.555  10.655
 6846SOL    HW221081   3.796   0.630  10.763
 6847SOL     OW21082   4.251   0.256   9.638
 6847SOL    HW121083   4.278   0.197   9.563
 6847SOL    HW221084   4.251   0.351   9.607
 6848SOL     OW21085   3.788   1.564  10.641
 6848SOL    HW121086   3.742   1.646  10.607
 6848SOL    HW221087   3.886   1.583  10.650
 6849SOL     OW21088   4.091   1.100   9.811
 6849SOL    HW121089   4.084   1.183   9.755
 6849SOL    HW221090   4.095   1.020   9.751
 6850SOL     OW21091   4.031   0.213  10.541
 6850SOL    HW121092   4.008   0.250  10.631
 6850SOL    HW221093   4.001   0.118  10.535
 6851SOL     OW21094   3.761   1.310  10.592
 6851SOL    HW121095   3.814   1.261  10.660
 6851SOL    HW221096   3.783   1.408  10.597
 6852SOL     OW21097   3.732   1.326   9.510
 6852SOL    HW121098   3.639   1.347   9.479
 6852SOL    HW221099   3.742   1.227   9.523
 6853SOL     OW21100   3.812   1.801  10.237
 6853SOL    HW121101   3.770   1.715  10.210
 6853SOL    HW221102   3.906   1.804  10.203
 6854SOL     OW21103   4.228   1.568  10.220
 6854SOL    HW121104   4.294   1.642  10.229
 6854SOL    HW221105   4.272   1.489  10.178
 6855SOL     OW21106   3.764   0.544  10.424
 6855SOL    HW121107   3.849   0.511  10.383
 6855SOL    HW221108   3.777   0.559  10.522
 6856SOL     OW21109   3.913   0.520  11.032
 6856SOL    HW121110   3.972   0.480  10.962
 6856SOL    HW221111   3.855   0.591  10.991
 6857SOL     OW21112   3.976   1.564  11.054
 6857SOL    HW121113   3.946   1.621  11.130
 6857SOL    HW221114   3.969   1.467  11.080
 6858SOL     OW21115   3.883   1.137  10.776
 6858SOL    HW121116   3.905   1.076  10.852
 6858SOL    HW221117   3.893   1.088  10.690
 6859SOL     OW21118   3.807   1.258  10.332
 6859SOL    HW121119   3.802   1.257  10.432
 6859SOL    HW221120   3.724   1.217  10.294
 6860SOL     OW21121   3.854   1.794  11.161
 6860SOL    HW121122   3.813   1.720  11.214
 6860SOL    HW221123   3.918   1.845  11.219
 6861SOL     OW21124   3.799   0.345   9.343
 6861SOL    HW121125   3.707   0.317   9.314
 6861SOL    HW221126   3.830   0.422   9.287
 6862SOL     OW21127   3.796   0.166   9.628
 6862SOL    HW121128   3.779   0.249   9.574
 6862SOL    HW221129   3.886   0.129   9.606
 6863SOL     OW21130   3.803   1.240   9.963
 6863SOL    HW121131   3.802   1.193  10.051
 6863SOL    HW221132   3.885   1.212   9.912
 6864SOL     OW21133   3.763   1.077   9.610
 6864SOL    HW121134   3.862   1.066   9.601
 6864SOL    HW221135   3.723   0.991   9.642
 6865SOL     OW21136   3.954   0.628  11.285
 6865SOL    HW121137   3.861   0.626  11.322
 6865SOL    HW221138   3.955   0.589  11.193
 6866SOL     OW21139   3.949   0.275  12.168
 6866SOL    HW121140   3.984   0.258  12.260
 6866SOL    HW221141   3.861   0.230  12.156
 6867SOL     OW21142   3.743   0.368  11.819
 6867SOL    HW121143   3.661   0.411  11.858
 6867SOL    HW221144   3.715   0.295  11.756
 6868SOL     OW21145   4.059   1.435  12.233
 6868SOL    HW121146   3.981   1.404  12.180
 6868SOL    HW221147   4.117   1.493  12.176
 6869SOL     OW21148   3.955   1.713  11.655
 6869SOL    HW121149   3.989   1.790  11.709
 6869SOL    HW221150   3.999   1.713  11.565
 6870SOL     OW21151   3.954   1.434  11.710
 6870SOL    HW121152   3.928   1.530  11.710
 6870SOL    HW221153   3.883   1.380  11.755
 6871SOL     OW21154   3.846   0.643  11.735
 6871SOL    HW121155   3.801   0.555  11.752
 6871SOL    HW221156   3.845   0.697  11.819
 6872SOL     OW21157   3.751   1.596  11.289
 6872SOL    HW121158   3.732   1.500  11.310
 6872SOL    HW221159   3.718   1.654  11.364
 6873SOL     OW21160   3.837   0.737  12.769
 6873SOL    HW121161   3.925   0.724  12.814
 6873SOL    HW221162   3.824   0.834  12.747
 6874SOL     OW21163   3.800   0.811  11.961
 6874SOL    HW121164   3.899   0.799  11.970
 6874SOL    HW221165   3.776   0.906  11.982
 6875SOL     OW21166   3.854   1.821  12.743
 6875SOL    HW121167   3.844   1.806  12.842
 6875SOL    HW221168   3.768   1.857  12.707
 6876SOL     OW21169   3.926   0.285  12.670
 6876SOL    HW121170   3.846   0.345  12.657
 6876SOL    HW221171   3.916   0.236  12.756
 6877SOL     OW21172   3.802   0.556  12.558
 6877SOL    HW121173   3.894   0.555  12.517
 6877SOL    HW221174   3.796   0.630  12.625
 6878SOL     OW21175   4.251   0.256  11.500
 6878SOL    HW121176   4.278   0.197  11.425
 6878SOL    HW221177   4.251   0.351  11.469
 6879SOL     OW21178   3.788   1.564  12.503
 6879SOL    HW121179   3.742   1.646  12.469
 6879SOL    HW221180   3.886   1.583  12.512
 6880SOL     OW21181   4.091   1.100  11.673
 6880SOL    HW121182   4.084   1.183  11.617
 6880SOL    HW221183   4.095   1.020  11.613
 6881SOL     OW21184   4.031   0.213  12.403
 6881SOL    HW121185   4.008   0.250  12.493
 6881SOL    HW221186   4.001   0.118  12.397
 6882SOL     OW21187   3.761   1.310  12.454
 6882SOL    HW121188   3.814   1.261  12.522
 6882SOL    HW221189   3.783   1.408  12.459
 6883SOL     OW21190   3.732   1.326  11.372
 6883SOL    HW121191   3.639   1.347  11.341
 6883SOL    HW221192   3.742   1.227  11.385
 6884SOL     OW21193   3.812   1.801  12.099
 6884SOL    HW121194   3.770   1.715  12.072
 6884SOL    HW221195   3.906   1.804  12.065
 6885SOL     OW21196   4.228   1.568  12.082
 6885SOL    HW121197   4.294   1.642  12.091
 6885SOL    HW221198   4.272   1.489  12.040
 6886SOL     OW21199   3.764   0.544  12.286
 6886SOL    HW121200   3.849   0.511  12.245
 6886SOL    HW221201   3.777   0.559  12.384
 6887SOL     OW21202   3.913   0.520  12.894
 6887SOL    HW121203   3.972   0.480  12.824
 6887SOL    HW221204   3.855   0.591  12.853
 6888SOL     OW21205   3.976   1.564  12.916
 6888SOL    HW121206   3.946   1.621  12.992
 6888SOL    HW221207   3.969   1.467  12.942
 6889SOL     OW21208   3.883   1.137  12.638
 6889SOL    HW121209   3.905   1.076  12.714
 6889SOL    HW221210   3.893   1.088  12.552
 6890SOL     OW21211   3.807   1.258  12.194
 6890SOL    HW121212   3.802   1.257  12.294
 6890SOL    HW221213   3.724   1.217  12.156
 6891SOL     OW21214   3.854   1.794  13.023
 6891SOL    HW121215   3.813   1.720  13.076
 6891SOL    HW221216   3.918   1.845  13.081
 6892SOL     OW21217   3.799   0.345  11.205
 6892SOL    HW121218   3.707   0.317  11.176
 6892SOL    HW221219   3.830   0.422  11.149
 6893SOL     OW21220   3.796   0.166  11.490
 6893SOL    HW121221   3.779   0.249  11.436
 6893SOL    HW221222   3.886   0.129  11.468
 6894SOL     OW21223   3.803   1.240  11.825
 6894SOL    HW121224   3.802   1.193  11.913
 6894SOL    HW221225   3.885   1.212  11.774
 6895SOL     OW21226   3.763   1.077  11.472
 6895SOL    HW121227   3.862   1.066  11.463
 6895SOL    HW221228   3.723   0.991  11.504
 6896SOL     OW21229   3.954   0.628  13.147
 6896SOL    HW121230   3.861   0.626  13.184
 6896SOL    HW221231   3.955   0.589  13.055
 6897SOL     OW21232   3.743   0.368  13.681
 6897SOL    HW121233   3.661   0.411  13.720
 6897SOL    HW221234   3.715   0.295  13.618
 6898SOL     OW21235   3.955   1.713  13.517
 6898SOL    HW121236   3.989   1.790  13.571
 6898SOL    HW221237   3.999   1.713  13.427
 6899SOL     OW21238   3.954   1.434  13.572
 6899SOL    HW121239   3.928   1.530  13.572
 6899SOL    HW221240   3.883   1.380  13.617
 6900SOL     OW21241   3.964   1.091  13.920
 6900SOL    HW121242   3.978   1.007  13.972
 6900SOL    HW221243   3.909   1.155  13.975
 6901SOL     OW21244   3.846   0.643  13.597
 6901SOL    HW121245   3.801   0.555  13.614
 6901SOL    HW221246   3.845   0.697  13.681
 6902SOL     OW21247   3.751   1.596  13.151
 6902SOL    HW121248   3.732   1.500  13.172
 6902SOL    HW221249   3.718   1.654  13.226
 6903SOL     OW21250   3.800   0.811  13.823
 6903SOL    HW121251   3.899   0.799  13.832
 6903SOL    HW221252   3.776   0.906  13.844
 6904SOL     OW21253   4.075   1.801  13.887
 6904SOL    HW121254   4.125   1.715  13.893
 6904SOL    HW221255   4.140   1.878  13.884
 6905SOL     OW21256   4.251   0.256  13.362
 6905SOL    HW121257   4.278   0.197  13.287
 6905SOL    HW221258   4.251   0.351  13.331
 6906SOL     OW21259   4.091   1.100  13.535
 6906SOL    HW121260   4.084   1.183  13.479
 6906SOL    HW221261   4.095   1.020  13.475
 6907SOL     OW21262   3.732   1.326  13.234
 6907SOL    HW121263   3.639   1.347  13.203
 6907SOL    HW221264   3.742   1.227  13.247
 6908SOL     OW21265   4.228   1.568  13.944
 6908SOL    HW121266   4.294   1.642  13.953
 6908SOL    HW221267   4.272   1.489  13.902
 6909SOL     OW21268   3.799   0.345  13.067
 6909SOL    HW121269   3.707   0.317  13.038
 6909SOL    HW221270   3.830   0.422  13.011
 6910SOL     OW21271   3.796   0.166  13.352
 6910SOL    HW121272   3.779   0.249  13.298
 6910SOL    HW221273   3.886   0.129  13.330
 6911SOL     OW21274   3.803   1.240  13.687
 6911SOL    HW121275   3.802   1.193  13.775
 6911SOL    HW221276   3.885   1.212  13.636
 6912SOL     OW21277   3.763   1.077  13.334
 6912SOL    HW121278   3.862   1.066  13.325
 6912SOL    HW221279   3.723   0.991  13.366
 6913SOL     OW21280   3.954   2.490   0.113
 6913SOL    HW121281   3.861   2.488   0.150
 6913SOL    HW221282   3.955   2.451   0.021
 6914SOL     OW21283   3.949   2.137   0.996
 6914SOL    HW121284   3.984   2.120   1.088
 6914SOL    HW221285   3.861   2.092   0.984
 6915SOL     OW21286   3.743   2.230   0.647
 6915SOL    HW121287   3.661   2.273   0.686
 6915SOL    HW221288   3.715   2.157   0.584
 6916SOL     OW21289   4.059   3.297   1.061
 6916SOL    HW121290   3.981   3.266   1.008
 6916SOL    HW221291   4.117   3.355   1.004
 6917SOL     OW21292   3.955   3.575   0.483
 6917SOL    HW121293   3.989   3.652   0.537
 6917SOL    HW221294   3.999   3.575   0.393
 6918SOL     OW21295   3.954   3.296   0.538
 6918SOL    HW121296   3.928   3.392   0.538
 6918SOL    HW221297   3.883   3.242   0.583
 6919SOL     OW21298   3.846   2.505   0.563
 6919SOL    HW121299   3.801   2.417   0.580
 6919SOL    HW221300   3.845   2.559   0.647
 6920SOL     OW21301   3.751   3.458   0.117
 6920SOL    HW121302   3.732   3.362   0.138
 6920SOL    HW221303   3.718   3.516   0.192
 6921SOL     OW21304   3.837   2.599   1.597
 6921SOL    HW121305   3.925   2.586   1.642
 6921SOL    HW221306   3.824   2.696   1.575
 6922SOL     OW21307   3.800   2.673   0.789
 6922SOL    HW121308   3.899   2.661   0.798
 6922SOL    HW221309   3.776   2.768   0.810
 6923SOL     OW21310   3.854   3.683   1.571
 6923SOL    HW121311   3.844   3.668   1.670
 6923SOL    HW221312   3.768   3.719   1.535
 6924SOL     OW21313   3.926   2.147   1.498
 6924SOL    HW121314   3.846   2.207   1.485
 6924SOL    HW221315   3.916   2.098   1.584
 6925SOL     OW21316   3.802   2.418   1.386
 6925SOL    HW121317   3.894   2.417   1.345
 6925SOL    HW221318   3.796   2.492   1.453
 6926SOL     OW21319   3.788   3.426   1.331
 6926SOL    HW121320   3.742   3.508   1.297
 6926SOL    HW221321   3.886   3.445   1.340
 6927SOL     OW21322   4.091   2.962   0.501
 6927SOL    HW121323   4.084   3.045   0.445
 6927SOL    HW221324   4.095   2.882   0.441
 6928SOL     OW21325   4.031   2.075   1.231
 6928SOL    HW121326   4.008   2.112   1.321
 6928SOL    HW221327   4.001   1.980   1.225
 6929SOL     OW21328   3.761   3.172   1.282
 6929SOL    HW121329   3.814   3.123   1.350
 6929SOL    HW221330   3.783   3.270   1.287
 6930SOL     OW21331   4.031   1.925   0.618
 6930SOL    HW121332   4.020   2.019   0.651
 6930SOL    HW221333   4.026   1.862   0.695
 6931SOL     OW21334   3.732   3.188   0.200
 6931SOL    HW121335   3.639   3.209   0.169
 6931SOL    HW221336   3.742   3.089   0.213
 6932SOL     OW21337   3.812   3.663   0.927
 6932SOL    HW121338   3.770   3.577   0.900
 6932SOL    HW221339   3.906   3.666   0.893
 6933SOL     OW21340   4.228   3.430   0.910
 6933SOL    HW121341   4.294   3.504   0.919
 6933SOL    HW221342   4.272   3.351   0.868
 6934SOL     OW21343   3.764   2.406   1.114
 6934SOL    HW121344   3.849   2.373   1.073
 6934SOL    HW221345   3.777   2.421   1.212
 6935SOL     OW21346   3.913   2.382   1.722
 6935SOL    HW121347   3.972   2.342   1.652
 6935SOL    HW221348   3.855   2.453   1.681
 6936SOL     OW21349   3.976   3.426   1.744
 6936SOL    HW121350   3.946   3.483   1.820
 6936SOL    HW221351   3.969   3.329   1.770
 6937SOL     OW21352   3.883   2.999   1.466
 6937SOL    HW121353   3.905   2.938   1.542
 6937SOL    HW221354   3.893   2.950   1.380
 6938SOL     OW21355   3.807   3.120   1.022
 6938SOL    HW121356   3.802   3.119   1.122
 6938SOL    HW221357   3.724   3.079   0.984
 6939SOL     OW21358   3.854   3.656   1.851
 6939SOL    HW121359   3.813   3.582   1.904
 6939SOL    HW221360   3.918   3.707   1.909
 6940SOL     OW21361   3.799   2.207   0.033
 6940SOL    HW121362   3.707   2.179   0.004
 6940SOL    HW221363   3.830   2.284  -0.023
 6941SOL     OW21364   3.796   2.028   0.318
 6941SOL    HW121365   3.779   2.111   0.264
 6941SOL    HW221366   3.886   1.991   0.296
 6942SOL     OW21367   3.803   3.102   0.653
 6942SOL    HW121368   3.802   3.055   0.741
 6942SOL    HW221369   3.885   3.074   0.602
 6943SOL     OW21370   3.763   2.939   0.300
 6943SOL    HW121371   3.862   2.928   0.291
 6943SOL    HW221372   3.723   2.853   0.332
 6944SOL     OW21373   3.954   2.490   1.975
 6944SOL    HW121374   3.861   2.488   2.012
 6944SOL    HW221375   3.955   2.451   1.883
 6945SOL     OW21376   3.949   2.137   2.858
 6945SOL    HW121377   3.984   2.120   2.950
 6945SOL    HW221378   3.861   2.092   2.846
 6946SOL     OW21379   3.743   2.230   2.509
 6946SOL    HW121380   3.661   2.273   2.548
 6946SOL    HW221381   3.715   2.157   2.446
 6947SOL     OW21382   4.059   3.297   2.923
 6947SOL    HW121383   3.981   3.266   2.870
 6947SOL    HW221384   4.117   3.355   2.866
 6948SOL     OW21385   3.955   3.575   2.345
 6948SOL    HW121386   3.989   3.652   2.399
 6948SOL    HW221387   3.999   3.575   2.255
 6949SOL     OW21388   3.954   3.296   2.400
 6949SOL    HW121389   3.928   3.392   2.400
 6949SOL    HW221390   3.883   3.242   2.445
 6950SOL     OW21391   3.846   2.505   2.425
 6950SOL    HW121392   3.801   2.417   2.442
 6950SOL    HW221393   3.845   2.559   2.509
 6951SOL     OW21394   3.751   3.458   1.979
 6951SOL    HW121395   3.732   3.362   2.000
 6951SOL    HW221396   3.718   3.516   2.054
 6952SOL     OW21397   3.837   2.599   3.459
 6952SOL    HW121398   3.925   2.586   3.504
 6952SOL    HW221399   3.824   2.696   3.437
 6953SOL     OW21400   3.800   2.673   2.651
 6953SOL    HW121401   3.899   2.661   2.660
 6953SOL    HW221402   3.776   2.768   2.672
 6954SOL     OW21403   3.854   3.683   3.433
 6954SOL    HW121404   3.844   3.668   3.532
 6954SOL    HW221405   3.768   3.719   3.397
 6955SOL     OW21406   3.926   2.147   3.360
 6955SOL    HW121407   3.846   2.207   3.347
 6955SOL    HW221408   3.916   2.098   3.446
 6956SOL     OW21409   4.021   1.897   2.033
 6956SOL    HW121410   4.070   1.981   2.012
 6956SOL    HW221411   4.083   1.832   2.078
 6957SOL     OW21412   3.802   2.418   3.248
 6957SOL    HW121413   3.894   2.417   3.207
 6957SOL    HW221414   3.796   2.492   3.315
 6958SOL     OW21415   4.251   2.118   2.190
 6958SOL    HW121416   4.278   2.059   2.115
 6958SOL    HW221417   4.251   2.213   2.159
 6959SOL     OW21418   3.788   3.426   3.193
 6959SOL    HW121419   3.742   3.508   3.159
 6959SOL    HW221420   3.886   3.445   3.202
 6960SOL     OW21421   4.091   2.962   2.363
 6960SOL    HW121422   4.084   3.045   2.307
 6960SOL    HW221423   4.095   2.882   2.303
 6961SOL     OW21424   4.031   2.075   3.093
 6961SOL    HW121425   4.008   2.112   3.183
 6961SOL    HW221426   4.001   1.980   3.087
 6962SOL     OW21427   3.761   3.172   3.144
 6962SOL    HW121428   3.814   3.123   3.212
 6962SOL    HW221429   3.783   3.270   3.149
 6963SOL     OW21430   4.031   1.925   2.480
 6963SOL    HW121431   4.020   2.019   2.513
 6963SOL    HW221432   4.026   1.862   2.557
 6964SOL     OW21433   3.732   3.188   2.062
 6964SOL    HW121434   3.639   3.209   2.031
 6964SOL    HW221435   3.742   3.089   2.075
 6965SOL     OW21436   3.812   3.663   2.789
 6965SOL    HW121437   3.770   3.577   2.762
 6965SOL    HW221438   3.906   3.666   2.755
 6966SOL     OW21439   4.228   3.430   2.772
 6966SOL    HW121440   4.294   3.504   2.781
 6966SOL    HW221441   4.272   3.351   2.730
 6967SOL     OW21442   3.764   2.406   2.976
 6967SOL    HW121443   3.849   2.373   2.935
 6967SOL    HW221444   3.777   2.421   3.074
 6968SOL     OW21445   3.913   2.382   3.584
 6968SOL    HW121446   3.972   2.342   3.514
 6968SOL    HW221447   3.855   2.453   3.543
 6969SOL     OW21448   3.976   3.426   3.606
 6969SOL    HW121449   3.946   3.483   3.682
 6969SOL    HW221450   3.969   3.329   3.632
 6970SOL     OW21451   3.883   2.999   3.328
 6970SOL    HW121452   3.905   2.938   3.404
 6970SOL    HW221453   3.893   2.950   3.242
 6971SOL     OW21454   3.807   3.120   2.884
 6971SOL    HW121455   3.802   3.119   2.984
 6971SOL    HW221456   3.724   3.079   2.846
 6972SOL     OW21457   3.854   3.656   3.713
 6972SOL    HW121458   3.813   3.582   3.766
 6972SOL    HW221459   3.918   3.707   3.771
 6973SOL     OW21460   3.799   2.207   1.895
 6973SOL    HW121461   3.707   2.179   1.866
 6973SOL    HW221462   3.830   2.284   1.839
 6974SOL     OW21463   3.796   2.028   2.180
 6974SOL    HW121464   3.779   2.111   2.126
 6974SOL    HW221465   3.886   1.991   2.158
 6975SOL     OW21466   3.803   3.102   2.515
 6975SOL    HW121467   3.802   3.055   2.603
 6975SOL    HW221468   3.885   3.074   2.464
 6976SOL     OW21469   3.763   2.939   2.162
 6976SOL    HW121470   3.862   2.928   2.153
 6976SOL    HW221471   3.723   2.853   2.194
 6977SOL     OW21472   3.954   2.490   3.837
 6977SOL    HW121473   3.861   2.488   3.874
 6977SOL    HW221474   3.955   2.451   3.745
 6978SOL     OW21475   3.949   2.137   4.720
 6978SOL    HW121476   3.984   2.120   4.812
 6978SOL    HW221477   3.861   2.092   4.708
 6979SOL     OW21478   3.743   2.230   4.371
 6979SOL    HW121479   3.661   2.273   4.410
 6979SOL    HW221480   3.715   2.157   4.308
 6980SOL     OW21481   4.059   3.297   4.785
 6980SOL    HW121482   3.981   3.266   4.732
 6980SOL    HW221483   4.117   3.355   4.728
 6981SOL     OW21484   3.955   3.575   4.207
 6981SOL    HW121485   3.989   3.652   4.261
 6981SOL    HW221486   3.999   3.575   4.117
 6982SOL     OW21487   3.954   3.296   4.262
 6982SOL    HW121488   3.928   3.392   4.262
 6982SOL    HW221489   3.883   3.242   4.307
 6983SOL     OW21490   3.846   2.505   4.287
 6983SOL    HW121491   3.801   2.417   4.304
 6983SOL    HW221492   3.845   2.559   4.371
 6984SOL     OW21493   3.751   3.458   3.841
 6984SOL    HW121494   3.732   3.362   3.862
 6984SOL    HW221495   3.718   3.516   3.916
 6985SOL     OW21496   3.837   2.599   5.321
 6985SOL    HW121497   3.925   2.586   5.366
 6985SOL    HW221498   3.824   2.696   5.299
 6986SOL     OW21499   3.800   2.673   4.513
 6986SOL    HW121500   3.899   2.661   4.522
 6986SOL    HW221501   3.776   2.768   4.534
 6987SOL     OW21502   3.854   3.683   5.295
 6987SOL    HW121503   3.844   3.668   5.394
 6987SOL    HW221504   3.768   3.719   5.259
 6988SOL     OW21505   3.926   2.147   5.222
 6988SOL    HW121506   3.846   2.207   5.209
 6988SOL    HW221507   3.916   2.098   5.308
 6989SOL     OW21508   4.021   1.897   3.895
 6989SOL    HW121509   4.070   1.981   3.874
 6989SOL    HW221510   4.083   1.832   3.940
 6990SOL     OW21511   3.802   2.418   5.110
 6990SOL    HW121512   3.894   2.417   5.069
 6990SOL    HW221513   3.796   2.492   5.177
 6991SOL     OW21514   4.251   2.118   4.052
 6991SOL    HW121515   4.278   2.059   3.977
 6991SOL    HW221516   4.251   2.213   4.021
 6992SOL     OW21517   3.788   3.426   5.055
 6992SOL    HW121518   3.742   3.508   5.021
 6992SOL    HW221519   3.886   3.445   5.064
 6993SOL     OW21520   4.091   2.962   4.225
 6993SOL    HW121521   4.084   3.045   4.169
 6993SOL    HW221522   4.095   2.882   4.165
 6994SOL     OW21523   4.031   2.075   4.955
 6994SOL    HW121524   4.008   2.112   5.045
 6994SOL    HW221525   4.001   1.980   4.949
 6995SOL     OW21526   3.761   3.172   5.006
 6995SOL    HW121527   3.814   3.123   5.074
 6995SOL    HW221528   3.783   3.270   5.011
 6996SOL     OW21529   4.031   1.925   4.342
 6996SOL    HW121530   4.020   2.019   4.375
 6996SOL    HW221531   4.026   1.862   4.419
 6997SOL     OW21532   3.732   3.188   3.924
 6997SOL    HW121533   3.639   3.209   3.893
 6997SOL    HW221534   3.742   3.089   3.937
 6998SOL     OW21535   3.812   3.663   4.651
 6998SOL    HW121536   3.770   3.577   4.624
 6998SOL    HW221537   3.906   3.666   4.617
 6999SOL     OW21538   4.228   3.430   4.634
 6999SOL    HW121539   4.294   3.504   4.643
 6999SOL    HW221540   4.272   3.351   4.592
 7000SOL     OW21541   3.764   2.406   4.838
 7000SOL    HW121542   3.849   2.373   4.797
 7000SOL    HW221543   3.777   2.421   4.936
 7001SOL     OW21544   3.913   2.382   5.446
 7001SOL    HW121545   3.972   2.342   5.376
 7001SOL    HW221546   3.855   2.453   5.405
 7002SOL     OW21547   3.976   3.426   5.468
 7002SOL    HW121548   3.946   3.483   5.544
 7002SOL    HW221549   3.969   3.329   5.494
 7003SOL     OW21550   3.883   2.999   5.190
 7003SOL    HW121551   3.905   2.938   5.266
 7003SOL    HW221552   3.893   2.950   5.104
 7004SOL     OW21553   3.807   3.120   4.746
 7004SOL    HW121554   3.802   3.119   4.846
 7004SOL    HW221555   3.724   3.079   4.708
 7005SOL     OW21556   3.854   3.656   5.575
 7005SOL    HW121557   3.813   3.582   5.628
 7005SOL    HW221558   3.918   3.707   5.633
 7006SOL     OW21559   3.799   2.207   3.757
 7006SOL    HW121560   3.707   2.179   3.728
 7006SOL    HW221561   3.830   2.284   3.701
 7007SOL     OW21562   3.796   2.028   4.042
 7007SOL    HW121563   3.779   2.111   3.988
 7007SOL    HW221564   3.886   1.991   4.020
 7008SOL     OW21565   3.803   3.102   4.377
 7008SOL    HW121566   3.802   3.055   4.465
 7008SOL    HW221567   3.885   3.074   4.326
 7009SOL     OW21568   3.763   2.939   4.024
 7009SOL    HW121569   3.862   2.928   4.015
 7009SOL    HW221570   3.723   2.853   4.056
 7010SOL     OW21571   3.954   2.490   5.699
 7010SOL    HW121572   3.861   2.488   5.736
 7010SOL    HW221573   3.955   2.451   5.607
 7011SOL     OW21574   3.949   2.137   6.582
 7011SOL    HW121575   3.984   2.120   6.674
 7011SOL    HW221576   3.861   2.092   6.570
 7012SOL     OW21577   3.743   2.230   6.233
 7012SOL    HW121578   3.661   2.273   6.272
 7012SOL    HW221579   3.715   2.157   6.170
 7013SOL     OW21580   4.059   3.297   6.647
 7013SOL    HW121581   3.981   3.266   6.594
 7013SOL    HW221582   4.117   3.355   6.590
 7014SOL     OW21583   3.955   3.575   6.069
 7014SOL    HW121584   3.989   3.652   6.123
 7014SOL    HW221585   3.999   3.575   5.979
 7015SOL     OW21586   3.954   3.296   6.124
 7015SOL    HW121587   3.928   3.392   6.124
 7015SOL    HW221588   3.883   3.242   6.169
 7016SOL     OW21589   3.846   2.505   6.149
 7016SOL    HW121590   3.801   2.417   6.166
 7016SOL    HW221591   3.845   2.559   6.233
 7017SOL     OW21592   3.751   3.458   5.703
 7017SOL    HW121593   3.732   3.362   5.724
 7017SOL    HW221594   3.718   3.516   5.778
 7018SOL     OW21595   3.837   2.599   7.183
 7018SOL    HW121596   3.925   2.586   7.228
 7018SOL    HW221597   3.824   2.696   7.161
 7019SOL     OW21598   3.800   2.673   6.375
 7019SOL    HW121599   3.899   2.661   6.384
 7019SOL    HW221600   3.776   2.768   6.396
 7020SOL     OW21601   3.854   3.683   7.157
 7020SOL    HW121602   3.844   3.668   7.256
 7020SOL    HW221603   3.768   3.719   7.121
 7021SOL     OW21604   3.926   2.147   7.084
 7021SOL    HW121605   3.846   2.207   7.071
 7021SOL    HW221606   3.916   2.098   7.170
 7022SOL     OW21607   4.021   1.897   5.757
 7022SOL    HW121608   4.070   1.981   5.736
 7022SOL    HW221609   4.083   1.832   5.802
 7023SOL     OW21610   3.802   2.418   6.972
 7023SOL    HW121611   3.894   2.417   6.931
 7023SOL    HW221612   3.796   2.492   7.039
 7024SOL     OW21613   4.251   2.118   5.914
 7024SOL    HW121614   4.278   2.059   5.839
 7024SOL    HW221615   4.251   2.213   5.883
 7025SOL     OW21616   3.788   3.426   6.917
 7025SOL    HW121617   3.742   3.508   6.883
 7025SOL    HW221618   3.886   3.445   6.926
 7026SOL     OW21619   4.091   2.962   6.087
 7026SOL    HW121620   4.084   3.045   6.031
 7026SOL    HW221621   4.095   2.882   6.027
 7027SOL     OW21622   4.031   2.075   6.817
 7027SOL    HW121623   4.008   2.112   6.907
 7027SOL    HW221624   4.001   1.980   6.811
 7028SOL     OW21625   3.761   3.172   6.868
 7028SOL    HW121626   3.814   3.123   6.936
 7028SOL    HW221627   3.783   3.270   6.873
 7029SOL     OW21628   4.031   1.925   6.204
 7029SOL    HW121629   4.020   2.019   6.237
 7029SOL    HW221630   4.026   1.862   6.281
 7030SOL     OW21631   3.732   3.188   5.786
 7030SOL    HW121632   3.639   3.209   5.755
 7030SOL    HW221633   3.742   3.089   5.799
 7031SOL     OW21634   3.812   3.663   6.513
 7031SOL    HW121635   3.770   3.577   6.486
 7031SOL    HW221636   3.906   3.666   6.479
 7032SOL     OW21637   4.228   3.430   6.496
 7032SOL    HW121638   4.294   3.504   6.505
 7032SOL    HW221639   4.272   3.351   6.454
 7033SOL     OW21640   3.764   2.406   6.700
 7033SOL    HW121641   3.849   2.373   6.659
 7033SOL    HW221642   3.777   2.421   6.798
 7034SOL     OW21643   3.913   2.382   7.308
 7034SOL    HW121644   3.972   2.342   7.238
 7034SOL    HW221645   3.855   2.453   7.267
 7035SOL     OW21646   3.976   3.426   7.330
 7035SOL    HW121647   3.946   3.483   7.406
 7035SOL    HW221648   3.969   3.329   7.356
 7036SOL     OW21649   3.883   2.999   7.052
 7036SOL    HW121650   3.905   2.938   7.128
 7036SOL    HW221651   3.893   2.950   6.966
 7037SOL     OW21652   3.807   3.120   6.608
 7037SOL    HW121653   3.802   3.119   6.708
 7037SOL    HW221654   3.724   3.079   6.570
 7038SOL     OW21655   3.854   3.656   7.437
 7038SOL    HW121656   3.813   3.582   7.490
 7038SOL    HW221657   3.918   3.707   7.495
 7039SOL     OW21658   3.799   2.207   5.619
 7039SOL    HW121659   3.707   2.179   5.590
 7039SOL    HW221660   3.830   2.284   5.563
 7040SOL     OW21661   3.796   2.028   5.904
 7040SOL    HW121662   3.779   2.111   5.850
 7040SOL    HW221663   3.886   1.991   5.882
 7041SOL     OW21664   3.803   3.102   6.239
 7041SOL    HW121665   3.802   3.055   6.327
 7041SOL    HW221666   3.885   3.074   6.188
 7042SOL     OW21667   3.763   2.939   5.886
 7042SOL    HW121668   3.862   2.928   5.877
 7042SOL    HW221669   3.723   2.853   5.918
 7043SOL     OW21670   3.954   2.490   7.561
 7043SOL    HW121671   3.861   2.488   7.598
 7043SOL    HW221672   3.955   2.451   7.469
 7044SOL     OW21673   3.949   2.137   8.444
 7044SOL    HW121674   3.984   2.120   8.536
 7044SOL    HW221675   3.861   2.092   8.432
 7045SOL     OW21676   3.743   2.230   8.095
 7045SOL    HW121677   3.661   2.273   8.134
 7045SOL    HW221678   3.715   2.157   8.032
 7046SOL     OW21679   4.059   3.297   8.509
 7046SOL    HW121680   3.981   3.266   8.456
 7046SOL    HW221681   4.117   3.355   8.452
 7047SOL     OW21682   3.955   3.575   7.931
 7047SOL    HW121683   3.989   3.652   7.985
 7047SOL    HW221684   3.999   3.575   7.841
 7048SOL     OW21685   3.954   3.296   7.986
 7048SOL    HW121686   3.928   3.392   7.986
 7048SOL    HW221687   3.883   3.242   8.031
 7049SOL     OW21688   3.846   2.505   8.011
 7049SOL    HW121689   3.801   2.417   8.028
 7049SOL    HW221690   3.845   2.559   8.095
 7050SOL     OW21691   3.751   3.458   7.565
 7050SOL    HW121692   3.732   3.362   7.586
 7050SOL    HW221693   3.718   3.516   7.640
 7051SOL     OW21694   3.837   2.599   9.045
 7051SOL    HW121695   3.925   2.586   9.090
 7051SOL    HW221696   3.824   2.696   9.023
 7052SOL     OW21697   3.800   2.673   8.237
 7052SOL    HW121698   3.899   2.661   8.246
 7052SOL    HW221699   3.776   2.768   8.258
 7053SOL     OW21700   3.854   3.683   9.019
 7053SOL    HW121701   3.844   3.668   9.118
 7053SOL    HW221702   3.768   3.719   8.983
 7054SOL     OW21703   3.926   2.147   8.946
 7054SOL    HW121704   3.846   2.207   8.933
 7054SOL    HW221705   3.916   2.098   9.032
 7055SOL     OW21706   4.021   1.897   7.619
 7055SOL    HW121707   4.070   1.981   7.598
 7055SOL    HW221708   4.083   1.832   7.664
 7056SOL     OW21709   3.802   2.418   8.834
 7056SOL    HW121710   3.894   2.417   8.793
 7056SOL    HW221711   3.796   2.492   8.901
 7057SOL     OW21712   4.251   2.118   7.776
 7057SOL    HW121713   4.278   2.059   7.701
 7057SOL    HW221714   4.251   2.213   7.745
 7058SOL     OW21715   3.788   3.426   8.779
 7058SOL    HW121716   3.742   3.508   8.745
 7058SOL    HW221717   3.886   3.445   8.788
 7059SOL     OW21718   4.091   2.962   7.949
 7059SOL    HW121719   4.084   3.045   7.893
 7059SOL    HW221720   4.095   2.882   7.889
 7060SOL     OW21721   4.031   2.075   8.679
 7060SOL    HW121722   4.008   2.112   8.769
 7060SOL    HW221723   4.001   1.980   8.673
 7061SOL     OW21724   3.761   3.172   8.730
 7061SOL    HW121725   3.814   3.123   8.798
 7061SOL    HW221726   3.783   3.270   8.735
 7062SOL     OW21727   4.031   1.925   8.066
 7062SOL    HW121728   4.020   2.019   8.099
 7062SOL    HW221729   4.026   1.862   8.143
 7063SOL     OW21730   3.732   3.188   7.648
 7063SOL    HW121731   3.639   3.209   7.617
 7063SOL    HW221732   3.742   3.089   7.661
 7064SOL     OW21733   3.812   3.663   8.375
 7064SOL    HW121734   3.770   3.577   8.348
 7064SOL    HW221735   3.906   3.666   8.341
 7065SOL     OW21736   4.228   3.430   8.358
 7065SOL    HW121737   4.294   3.504   8.367
 7065SOL    HW221738   4.272   3.351   8.316
 7066SOL     OW21739   3.764   2.406   8.562
 7066SOL    HW121740   3.849   2.373   8.521
 7066SOL    HW221741   3.777   2.421   8.660
 7067SOL     OW21742   3.913   2.382   9.170
 7067SOL    HW121743   3.972   2.342   9.100
 7067SOL    HW221744   3.855   2.453   9.129
 7068SOL     OW21745   3.976   3.426   9.192
 7068SOL    HW121746   3.946   3.483   9.268
 7068SOL    HW221747   3.969   3.329   9.218
 7069SOL     OW21748   3.883   2.999   8.914
 7069SOL    HW121749   3.905   2.938   8.990
 7069SOL    HW221750   3.893   2.950   8.828
 7070SOL     OW21751   3.807   3.120   8.470
 7070SOL    HW121752   3.802   3.119   8.570
 7070SOL    HW221753   3.724   3.079   8.432
 7071SOL     OW21754   3.854   3.656   9.299
 7071SOL    HW121755   3.813   3.582   9.352
 7071SOL    HW221756   3.918   3.707   9.357
 7072SOL     OW21757   3.799   2.207   7.481
 7072SOL    HW121758   3.707   2.179   7.452
 7072SOL    HW221759   3.830   2.284   7.425
 7073SOL     OW21760   3.796   2.028   7.766
 7073SOL    HW121761   3.779   2.111   7.712
 7073SOL    HW221762   3.886   1.991   7.744
 7074SOL     OW21763   3.803   3.102   8.101
 7074SOL    HW121764   3.802   3.055   8.189
 7074SOL    HW221765   3.885   3.074   8.050
 7075SOL     OW21766   3.763   2.939   7.748
 7075SOL    HW121767   3.862   2.928   7.739
 7075SOL    HW221768   3.723   2.853   7.780
 7076SOL     OW21769   3.954   2.490   9.423
 7076SOL    HW121770   3.861   2.488   9.460
 7076SOL    HW221771   3.955   2.451   9.331
 7077SOL     OW21772   3.949   2.137  10.306
 7077SOL    HW121773   3.984   2.120  10.398
 7077SOL    HW221774   3.861   2.092  10.294
 7078SOL     OW21775   3.743   2.230   9.957
 7078SOL    HW121776   3.661   2.273   9.996
 7078SOL    HW221777   3.715   2.157   9.894
 7079SOL     OW21778   4.059   3.297  10.371
 7079SOL    HW121779   3.981   3.266  10.318
 7079SOL    HW221780   4.117   3.355  10.314
 7080SOL     OW21781   3.955   3.575   9.793
 7080SOL    HW121782   3.989   3.652   9.847
 7080SOL    HW221783   3.999   3.575   9.703
 7081SOL     OW21784   3.954   3.296   9.848
 7081SOL    HW121785   3.928   3.392   9.848
 7081SOL    HW221786   3.883   3.242   9.893
 7082SOL     OW21787   3.846   2.505   9.873
 7082SOL    HW121788   3.801   2.417   9.890
 7082SOL    HW221789   3.845   2.559   9.957
 7083SOL     OW21790   3.751   3.458   9.427
 7083SOL    HW121791   3.732   3.362   9.448
 7083SOL    HW221792   3.718   3.516   9.502
 7084SOL     OW21793   3.837   2.599  10.907
 7084SOL    HW121794   3.925   2.586  10.952
 7084SOL    HW221795   3.824   2.696  10.885
 7085SOL     OW21796   3.800   2.673  10.099
 7085SOL    HW121797   3.899   2.661  10.108
 7085SOL    HW221798   3.776   2.768  10.120
 7086SOL     OW21799   3.854   3.683  10.881
 7086SOL    HW121800   3.844   3.668  10.980
 7086SOL    HW221801   3.768   3.719  10.845
 7087SOL     OW21802   3.926   2.147  10.808
 7087SOL    HW121803   3.846   2.207  10.795
 7087SOL    HW221804   3.916   2.098  10.894
 7088SOL     OW21805   4.021   1.897   9.481
 7088SOL    HW121806   4.070   1.981   9.460
 7088SOL    HW221807   4.083   1.832   9.526
 7089SOL     OW21808   3.802   2.418  10.696
 7089SOL    HW121809   3.894   2.417  10.655
 7089SOL    HW221810   3.796   2.492  10.763
 7090SOL     OW21811   4.251   2.118   9.638
 7090SOL    HW121812   4.278   2.059   9.563
 7090SOL    HW221813   4.251   2.213   9.607
 7091SOL     OW21814   3.788   3.426  10.641
 7091SOL    HW121815   3.742   3.508  10.607
 7091SOL    HW221816   3.886   3.445  10.650
 7092SOL     OW21817   4.091   2.962   9.811
 7092SOL    HW121818   4.084   3.045   9.755
 7092SOL    HW221819   4.095   2.882   9.751
 7093SOL     OW21820   4.031   2.075  10.541
 7093SOL    HW121821   4.008   2.112  10.631
 7093SOL    HW221822   4.001   1.980  10.535
 7094SOL     OW21823   3.761   3.172  10.592
 7094SOL    HW121824   3.814   3.123  10.660
 7094SOL    HW221825   3.783   3.270  10.597
 7095SOL     OW21826   4.031   1.925   9.928
 7095SOL    HW121827   4.020   2.019   9.961
 7095SOL    HW221828   4.026   1.862  10.005
 7096SOL     OW21829   3.732   3.188   9.510
 7096SOL    HW121830   3.639   3.209   9.479
 7096SOL    HW221831   3.742   3.089   9.523
 7097SOL     OW21832   3.812   3.663  10.237
 7097SOL    HW121833   3.770   3.577  10.210
 7097SOL    HW221834   3.906   3.666  10.203
 7098SOL     OW21835   4.228   3.430  10.220
 7098SOL    HW121836   4.294   3.504  10.229
 7098SOL    HW221837   4.272   3.351  10.178
 7099SOL     OW21838   3.764   2.406  10.424
 7099SOL    HW121839   3.849   2.373  10.383
 7099SOL    HW221840   3.777   2.421  10.522
 7100SOL     OW21841   3.913   2.382  11.032
 7100SOL    HW121842   3.972   2.342  10.962
 7100SOL    HW221843   3.855   2.453  10.991
 7101SOL     OW21844   3.976   3.426  11.054
 7101SOL    HW121845   3.946   3.483  11.130
 7101SOL    HW221846   3.969   3.329  11.080
 7102SOL     OW21847   3.883   2.999  10.776
 7102SOL    HW121848   3.905   2.938  10.852
 7102SOL    HW221849   3.893   2.950  10.690
 7103SOL     OW21850   3.807   3.120  10.332
 7103SOL    HW121851   3.802   3.119  10.432
 7103SOL    HW221852   3.724   3.079  10.294
 7104SOL     OW21853   3.854   3.656  11.161
 7104SOL    HW121854   3.813   3.582  11.214
 7104SOL    HW221855   3.918   3.707  11.219
 7105SOL     OW21856   3.799   2.207   9.343
 7105SOL    HW121857   3.707   2.179   9.314
 7105SOL    HW221858   3.830   2.284   9.287
 7106SOL     OW21859   3.796   2.028   9.628
 7106SOL    HW121860   3.779   2.111   9.574
 7106SOL    HW221861   3.886   1.991   9.606
 7107SOL     OW21862   3.803   3.102   9.963
 7107SOL    HW121863   3.802   3.055  10.051
 7107SOL    HW221864   3.885   3.074   9.912
 7108SOL     OW21865   3.763   2.939   9.610
 7108SOL    HW121866   3.862   2.928   9.601
 7108SOL    HW221867   3.723   2.853   9.642
 7109SOL     OW21868   3.954   2.490  11.285
 7109SOL    HW121869   3.861   2.488  11.322
 7109SOL    HW221870   3.955   2.451  11.193
 7110SOL     OW21871   3.949   2.137  12.168
 7110SOL    HW121872   3.984   2.120  12.260
 7110SOL    HW221873   3.861   2.092  12.156
 7111SOL     OW21874   3.743   2.230  11.819
 7111SOL    HW121875   3.661   2.273  11.858
 7111SOL    HW221876   3.715   2.157  11.756
 7112SOL     OW21877   4.059   3.297  12.233
 7112SOL    HW121878   3.981   3.266  12.180
 7112SOL    HW221879   4.117   3.355  12.176
 7113SOL     OW21880   3.955   3.575  11.655
 7113SOL    HW121881   3.989   3.652  11.709
 7113SOL    HW221882   3.999   3.575  11.565
 7114SOL     OW21883   3.954   3.296  11.710
 7114SOL    HW121884   3.928   3.392  11.710
 7114SOL    HW221885   3.883   3.242  11.755
 7115SOL     OW21886   3.846   2.505  11.735
 7115SOL    HW121887   3.801   2.417  11.752
 7115SOL    HW221888   3.845   2.559  11.819
 7116SOL     OW21889   3.751   3.458  11.289
 7116SOL    HW121890   3.732   3.362  11.310
 7116SOL    HW221891   3.718   3.516  11.364
 7117SOL     OW21892   3.837   2.599  12.769
 7117SOL    HW121893   3.925   2.586  12.814
 7117SOL    HW221894   3.824   2.696  12.747
 7118SOL     OW21895   3.800   2.673  11.961
 7118SOL    HW121896   3.899   2.661  11.970
 7118SOL    HW221897   3.776   2.768  11.982
 7119SOL     OW21898   3.854   3.683  12.743
 7119SOL    HW121899   3.844   3.668  12.842
 7119SOL    HW221900   3.768   3.719  12.707
 7120SOL     OW21901   3.926   2.147  12.670
 7120SOL    HW121902   3.846   2.207  12.657
 7120SOL    HW221903   3.916   2.098  12.756
 7121SOL     OW21904   4.021   1.897  11.343
 7121SOL    HW121905   4.070   1.981  11.322
 7121SOL    HW221906   4.083   1.832  11.388
 7122SOL     OW21907   3.802   2.418  12.558
 7122SOL    HW121908   3.894   2.417  12.517
 7122SOL    HW221909   3.796   2.492  12.625
 7123SOL     OW21910   4.251   2.118  11.500
 7123SOL    HW121911   4.278   2.059  11.425
 7123SOL    HW221912   4.251   2.213  11.469
 7124SOL     OW21913   3.788   3.426  12.503
 7124SOL    HW121914   3.742   3.508  12.469
 7124SOL    HW221915   3.886   3.445  12.512
 7125SOL     OW21916   4.091   2.962  11.673
 7125SOL    HW121917   4.084   3.045  11.617
 7125SOL    HW221918   4.095   2.882  11.613
 7126SOL     OW21919   4.031   2.075  12.403
 7126SOL    HW121920   4.008   2.112  12.493
 7126SOL    HW221921   4.001   1.980  12.397
 7127SOL     OW21922   3.761   3.172  12.454
 7127SOL    HW121923   3.814   3.123  12.522
 7127SOL    HW221924   3.783   3.270  12.459
 7128SOL     OW21925   4.031   1.925  11.790
 7128SOL    HW121926   4.020   2.019  11.823
 7128SOL    HW221927   4.026   1.862  11.867
 7129SOL     OW21928   3.732   3.188  11.372
 7129SOL    HW121929   3.639   3.209  11.341
 7129SOL    HW221930   3.742   3.089  11.385
 7130SOL     OW21931   3.812   3.663  12.099
 7130SOL    HW121932   3.770   3.577  12.072
 7130SOL    HW221933   3.906   3.666  12.065
 7131SOL     OW21934   4.228   3.430  12.082
 7131SOL    HW121935   4.294   3.504  12.091
 7131SOL    HW221936   4.272   3.351  12.040
 7132SOL     OW21937   3.764   2.406  12.286
 7132SOL    HW121938   3.849   2.373  12.245
 7132SOL    HW221939   3.777   2.421  12.384
 7133SOL     OW21940   3.913   2.382  12.894
 7133SOL    HW121941   3.972   2.342  12.824
 7133SOL    HW221942   3.855   2.453  12.853
 7134SOL     OW21943   3.976   3.426  12.916
 7134SOL    HW121944   3.946   3.483  12.992
 7134SOL    HW221945   3.969   3.329  12.942
 7135SOL     OW21946   3.883   2.999  12.638
 7135SOL    HW121947   3.905   2.938  12.714
 7135SOL    HW221948   3.893   2.950  12.552
 7136SOL     OW21949   3.807   3.120  12.194
 7136SOL    HW121950   3.802   3.119  12.294
 7136SOL    HW221951   3.724   3.079  12.156
 7137SOL     OW21952   3.854   3.656  13.023
 7137SOL    HW121953   3.813   3.582  13.076
 7137SOL    HW221954   3.918   3.707  13.081
 7138SOL     OW21955   3.799   2.207  11.205
 7138SOL    HW121956   3.707   2.179  11.176
 7138SOL    HW221957   3.830   2.284  11.149
 7139SOL     OW21958   3.796   2.028  11.490
 7139SOL    HW121959   3.779   2.111  11.436
 7139SOL    HW221960   3.886   1.991  11.468
 7140SOL     OW21961   3.803   3.102  11.825
 7140SOL    HW121962   3.802   3.055  11.913
 7140SOL    HW221963   3.885   3.074  11.774
 7141SOL     OW21964   3.763   2.939  11.472
 7141SOL    HW121965   3.862   2.928  11.463
 7141SOL    HW221966   3.723   2.853  11.504
 7142SOL     OW21967   3.954   2.490  13.147
 7142SOL    HW121968   3.861   2.488  13.184
 7142SOL    HW221969   3.955   2.451  13.055
 7143SOL     OW21970   3.743   2.230  13.681
 7143SOL    HW121971   3.661   2.273  13.720
 7143SOL    HW221972   3.715   2.157  13.618
 7144SOL     OW21973   3.955   3.575  13.517
 7144SOL    HW121974   3.989   3.652  13.571
 7144SOL    HW221975   3.999   3.575  13.427
 7145SOL     OW21976   3.954   3.296  13.572
 7145SOL    HW121977   3.928   3.392  13.572
 7145SOL    HW221978   3.883   3.242  13.617
 7146SOL     OW21979   3.964   2.953  13.920
 7146SOL    HW121980   3.978   2.869  13.972
 7146SOL    HW221981   3.909   3.017  13.975
 7147SOL     OW21982   3.846   2.505  13.597
 7147SOL    HW121983   3.801   2.417  13.614
 7147SOL    HW221984   3.845   2.559  13.681
 7148SOL     OW21985   3.751   3.458  13.151
 7148SOL    HW121986   3.732   3.362  13.172
 7148SOL    HW221987   3.718   3.516  13.226
 7149SOL     OW21988   3.800   2.673  13.823
 7149SOL    HW121989   3.899   2.661  13.832
 7149SOL    HW221990   3.776   2.768  13.844
 7150SOL     OW21991   4.075   3.663  13.887
 7150SOL    HW121992   4.125   3.577  13.893
 7150SOL    HW221993   4.140   3.740  13.884
 7151SOL     OW21994   4.021   1.897  13.205
 7151SOL    HW121995   4.070   1.981  13.184
 7151SOL    HW221996   4.083   1.832  13.250
 7152SOL     OW21997   4.251   2.118  13.362
 7152SOL    HW121998   4.278   2.059  13.287
 7152SOL    HW221999   4.251   2.213  13.331
 7153SOL     OW22000   4.091   2.962  13.535
 7153SOL    HW122001   4.084   3.045  13.479
 7153SOL    HW222002   4.095   2.882  13.475
 7154SOL     OW22003   4.031   1.925  13.652
 7154SOL    HW122004   4.020   2.019  13.685
 7154SOL    HW222005   4.026   1.862  13.729
 7155SOL     OW22006   3.732   3.188  13.234
 7155SOL    HW122007   3.639   3.209  13.203
 7155SOL    HW222008   3.742   3.089  13.247
 7156SOL     OW22009   4.228   3.430  13.944
 7156SOL    HW122010   4.294   3.504  13.953
 7156SOL    HW222011   4.272   3.351  13.902
 7157SOL     OW22012   3.799   2.207  13.067
 7157SOL    HW122013   3.707   2.179  13.038
 7157SOL    HW222014   3.830   2.284  13.011
 7158SOL     OW22015   3.796   2.028  13.352
 7158SOL    HW122016   3.779   2.111  13.298
 7158SOL    HW222017   3.886   1.991  13.330
 7159SOL     OW22018   3.803   3.102  13.687
 7159SOL    HW122019   3.802   3.055  13.775
 7159SOL    HW222020   3.885   3.074  13.636
 7160SOL     OW22021   3.763   2.939  13.334
 7160SOL    HW122022   3.862   2.928  13.325
 7160SOL    HW222023   3.723   2.853  13.366
 7161SOL     OW22024   3.949   3.999   0.996
 7161SOL    HW122025   3.984   3.982   1.088
 7161SOL    HW222026   3.861   3.954   0.984
 7162SOL     OW22027   3.743   4.092   0.647
 7162SOL    HW122028   3.661   4.135   0.686
 7162SOL    HW222029   3.715   4.019   0.584
 7163SOL     OW22030   3.926   4.009   1.498
 7163SOL    HW122031   3.846   4.069   1.485
 7163SOL    HW222032   3.916   3.960   1.584
 7164SOL     OW22033   4.021   3.759   0.171
 7164SOL    HW122034   4.070   3.843   0.150
 7164SOL    HW222035   4.083   3.694   0.216
 7165SOL     OW22036   4.031   3.937   1.231
 7165SOL    HW122037   4.008   3.974   1.321
 7165SOL    HW222038   4.001   3.842   1.225
 7166SOL     OW22039   4.031   3.787   0.618
 7166SOL    HW122040   4.020   3.881   0.651
 7166SOL    HW222041   4.026   3.724   0.695
 7167SOL     OW22042   3.796   3.890   0.318
 7167SOL    HW122043   3.779   3.973   0.264
 7167SOL    HW222044   3.886   3.853   0.296
 7168SOL     OW22045   3.949   3.999   2.858
 7168SOL    HW122046   3.984   3.982   2.950
 7168SOL    HW222047   3.861   3.954   2.846
 7169SOL     OW22048   3.743   4.092   2.509
 7169SOL    HW122049   3.661   4.135   2.548
 7169SOL    HW222050   3.715   4.019   2.446
 7170SOL     OW22051   3.926   4.009   3.360
 7170SOL    HW122052   3.846   4.069   3.347
 7170SOL    HW222053   3.916   3.960   3.446
 7171SOL     OW22054   4.021   3.759   2.033
 7171SOL    HW122055   4.070   3.843   2.012
 7171SOL    HW222056   4.083   3.694   2.078
 7172SOL     OW22057   4.031   3.937   3.093
 7172SOL    HW122058   4.008   3.974   3.183
 7172SOL    HW222059   4.001   3.842   3.087
 7173SOL     OW22060   4.031   3.787   2.480
 7173SOL    HW122061   4.020   3.881   2.513
 7173SOL    HW222062   4.026   3.724   2.557
 7174SOL     OW22063   3.799   4.069   1.895
 7174SOL    HW122064   3.707   4.041   1.866
 7174SOL    HW222065   3.830   4.146   1.839
 7175SOL     OW22066   3.796   3.890   2.180
 7175SOL    HW122067   3.779   3.973   2.126
 7175SOL    HW222068   3.886   3.853   2.158
 7176SOL     OW22069   3.949   3.999   4.720
 7176SOL    HW122070   3.984   3.982   4.812
 7176SOL    HW222071   3.861   3.954   4.708
 7177SOL     OW22072   3.743   4.092   4.371
 7177SOL    HW122073   3.661   4.135   4.410
 7177SOL    HW222074   3.715   4.019   4.308
 7178SOL     OW22075   3.926   4.009   5.222
 7178SOL    HW122076   3.846   4.069   5.209
 7178SOL    HW222077   3.916   3.960   5.308
 7179SOL     OW22078   4.021   3.759   3.895
 7179SOL    HW122079   4.070   3.843   3.874
 7179SOL    HW222080   4.083   3.694   3.940
 7180SOL     OW22081   4.031   3.937   4.955
 7180SOL    HW122082   4.008   3.974   5.045
 7180SOL    HW222083   4.001   3.842   4.949
 7181SOL     OW22084   4.031   3.787   4.342
 7181SOL    HW122085   4.020   3.881   4.375
 7181SOL    HW222086   4.026   3.724   4.419
 7182SOL     OW22087   3.799   4.069   3.757
 7182SOL    HW122088   3.707   4.041   3.728
 7182SOL    HW222089   3.830   4.146   3.701
 7183SOL     OW22090   3.796   3.890   4.042
 7183SOL    HW122091   3.779   3.973   3.988
 7183SOL    HW222092   3.886   3.853   4.020
 7184SOL     OW22093   3.949   3.999   6.582
 7184SOL    HW122094   3.984   3.982   6.674
 7184SOL    HW222095   3.861   3.954   6.570
 7185SOL     OW22096   3.743   4.092   6.233
 7185SOL    HW122097   3.661   4.135   6.272
 7185SOL    HW222098   3.715   4.019   6.170
 7186SOL     OW22099   3.926   4.009   7.084
 7186SOL    HW122100   3.846   4.069   7.071
 7186SOL    HW222101   3.916   3.960   7.170
 7187SOL     OW22102   4.021   3.759   5.757
 7187SOL    HW122103   4.070   3.843   5.736
 7187SOL    HW222104   4.083   3.694   5.802
 7188SOL     OW22105   4.031   3.937   6.817
 7188SOL    HW122106   4.008   3.974   6.907
 7188SOL    HW222107   4.001   3.842   6.811
 7189SOL     OW22108   4.031   3.787   6.204
 7189SOL    HW122109   4.020   3.881   6.237
 7189SOL    HW222110   4.026   3.724   6.281
 7190SOL     OW22111   3.799   4.069   5.619
 7190SOL    HW122112   3.707   4.041   5.590
 7190SOL    HW222113   3.830   4.146   5.563
 7191SOL     OW22114   3.796   3.890   5.904
 7191SOL    HW122115   3.779   3.973   5.850
 7191SOL    HW222116   3.886   3.853   5.882
 7192SOL     OW22117   3.949   3.999   8.444
 7192SOL    HW122118   3.984   3.982   8.536
 7192SOL    HW222119   3.861   3.954   8.432
 7193SOL     OW22120   3.743   4.092   8.095
 7193SOL    HW122121   3.661   4.135   8.134
 7193SOL    HW222122   3.715   4.019   8.032
 7194SOL     OW22123   3.926   4.009   8.946
 7194SOL    HW122124   3.846   4.069   8.933
 7194SOL    HW222125   3.916   3.960   9.032
 7195SOL     OW22126   4.021   3.759   7.619
 7195SOL    HW122127   4.070   3.843   7.598
 7195SOL    HW222128   4.083   3.694   7.664
 7196SOL     OW22129   4.031   3.937   8.679
 7196SOL    HW122130   4.008   3.974   8.769
 7196SOL    HW222131   4.001   3.842   8.673
 7197SOL     OW22132   4.031   3.787   8.066
 7197SOL    HW122133   4.020   3.881   8.099
 7197SOL    HW222134   4.026   3.724   8.143
 7198SOL     OW22135   3.799   4.069   7.481
 7198SOL    HW122136   3.707   4.041   7.452
 7198SOL    HW222137   3.830   4.146   7.425
 7199SOL     OW22138   3.796   3.890   7.766
 7199SOL    HW122139   3.779   3.973   7.712
 7199SOL    HW222140   3.886   3.853   7.744
 7200SOL     OW22141   3.949   3.999  10.306
 7200SOL    HW122142   3.984   3.982  10.398
 7200SOL    HW222143   3.861   3.954  10.294
 7201SOL     OW22144   3.743   4.092   9.957
 7201SOL    HW122145   3.661   4.135   9.996
 7201SOL    HW222146   3.715   4.019   9.894
 7202SOL     OW22147   3.926   4.009  10.808
 7202SOL    HW122148   3.846   4.069  10.795
 7202SOL    HW222149   3.916   3.960  10.894
 7203SOL     OW22150   4.021   3.759   9.481
 7203SOL    HW122151   4.070   3.843   9.460
 7203SOL    HW222152   4.083   3.694   9.526
 7204SOL     OW22153   4.031   3.937  10.541
 7204SOL    HW122154   4.008   3.974  10.631
 7204SOL    HW222155   4.001   3.842  10.535
 7205SOL     OW22156   4.031   3.787   9.928
 7205SOL    HW122157   4.020   3.881   9.961
 7205SOL    HW222158   4.026   3.724  10.005
 7206SOL     OW22159   3.799   4.069   9.343
 7206SOL    HW122160   3.707   4.041   9.314
 7206SOL    HW222161   3.830   4.146   9.287
 7207SOL     OW22162   3.796   3.890   9.628
 7207SOL    HW122163   3.779   3.973   9.574
 7207SOL    HW222164   3.886   3.853   9.606
 7208SOL     OW22165   3.949   3.999  12.168
 7208SOL    HW122166   3.984   3.982  12.260
 7208SOL    HW222167   3.861   3.954  12.156
 7209SOL     OW22168   3.743   4.092  11.819
 7209SOL    HW122169   3.661   4.135  11.858
 7209SOL    HW222170   3.715   4.019  11.756
 7210SOL     OW22171   3.926   4.009  12.670
 7210SOL    HW122172   3.846   4.069  12.657
 7210SOL    HW222173   3.916   3.960  12.756
 7211SOL     OW22174   4.021   3.759  11.343
 7211SOL    HW122175   4.070   3.843  11.322
 7211SOL    HW222176   4.083   3.694  11.388
 7212SOL     OW22177   4.031   3.937  12.403
 7212SOL    HW122178   4.008   3.974  12.493
 7212SOL    HW222179   4.001   3.842  12.397
 7213SOL     OW22180   4.031   3.787  11.790
 7213SOL    HW122181   4.020   3.881  11.823
 7213SOL    HW222182   4.026   3.724  11.867
 7214SOL     OW22183   3.799   4.069  11.205
 7214SOL    HW122184   3.707   4.041  11.176
 7214SOL    HW222185   3.830   4.146  11.149
 7215SOL     OW22186   3.796   3.890  11.490
 7215SOL    HW122187   3.779   3.973  11.436
 7215SOL    HW222188   3.886   3.853  11.468
 7216SOL     OW22189   3.743   4.092  13.681
 7216SOL    HW122190   3.661   4.135  13.720
 7216SOL    HW222191   3.715   4.019  13.618
 7217SOL     OW22192   4.021   3.759  13.205
 7217SOL    HW122193   4.070   3.843  13.184
 7217SOL    HW222194   4.083   3.694  13.250
 7218SOL     OW22195   4.031   3.787  13.652
 7218SOL    HW122196   4.020   3.881  13.685
 7218SOL    HW222197   4.026   3.724  13.729
 7219SOL     OW22198   3.799   4.069  13.067
 7219SOL    HW122199   3.707   4.041  13.038
 7219SOL    HW222200   3.830   4.146  13.011
 7220SOL     OW22201   3.796   3.890  13.352
 7220SOL    HW122202   3.779   3.973  13.298
 7220SOL    HW222203   3.886   3.853  13.330
   4.00000   4.00000  13.90000
