2gCDOH_2PEG_l11
22029
    1LIG      O    1   2.404   2.336   0.020
    1LIG      C    2   2.365   2.406   0.144
    1LIG     C1    3   2.428   2.341   0.275
    1LIG     O1    4   2.363   2.391   0.396
    1LIG     C2    5   2.424   2.345   0.522
    1LIG     C3    6   2.349   2.401   0.650
    1LIG     O2    7   2.404   2.345   0.774
    1LIG     C4    8   2.366   2.421   0.894
    1LIG     C5    9   2.437   2.366   1.025
    1LIG     O3   10   2.372   2.414   1.147
    1LIG     C6   11   2.427   2.352   1.268
    1LIG     C7   12   2.364   2.415   1.397
    1LIG     O4   13   2.418   2.357   1.520
    1LIG     C8   14   2.368   2.421   1.641
    1LIG     C9   15   2.427   2.352   1.770
    1LIG     O5   16   2.360   2.403   1.889
    1LIG    C10   17   2.419   2.351   2.012
    1LIG    C11   18   2.339   2.401   2.137
    1LIG     O6   19   2.387   2.336   2.258
    1LIG    C12   20   2.346   2.403   2.381
    1LIG    C13   21   2.419   2.340   2.505
    1LIG     O7   22   2.352   2.375   2.629
    1LIG    C14   23   2.426   2.332   2.747
    1LIG    C15   24   2.370   2.403   2.875
    1LIG     O8   25   2.409   2.331   2.996
    1LIG    C16   26   2.381   2.406   3.118
    1LIG    C17   27   2.435   2.333   3.246
    1LIG     O9   28   2.391   2.403   3.367
    1LIG    C18   29   2.442   2.339   3.488
    1LIG    C19   30   2.380   2.404   3.617
    1LIG    O10   31   2.415   2.328   3.736
    1LIG    C20   32   2.368   2.388   3.859
    1LIG    C21   33   2.427   2.313   3.984
    1LIG    O11   34   2.366   2.361   4.107
    1LIG    C22   35   2.432   2.311   4.228
    1LIG    C23   36   2.367   2.377   4.354
    1LIG    O12   37   2.417   2.320   4.478
    1LIG    C24   38   2.377   2.401   4.592
    1LIG    C25   39   2.443   2.349   4.722
    1LIG    O13   40   2.377   2.405   4.839
    1LIG    C26   41   2.436   2.355   4.962
    1LIG    C27   42   2.363   2.413   5.087
    1LIG    O14   43   2.422   2.361   5.209
    1LIG    C28   44   2.370   2.419   5.332
    1LIG    C29   45   2.427   2.345   5.458
    1LIG    O15   46   2.360   2.392   5.578
    1LIG    C30   47   2.425   2.341   5.698
    1LIG    C31   48   2.358   2.399   5.827
    1LIG    O16   49   2.414   2.340   5.947
    1LIG    C32   50   2.369   2.409   6.066
    1LIG    C33   51   2.430   2.339   6.191
    1LIG    O17   52   2.387   2.404   6.313
    1LIG    C34   53   2.435   2.338   6.431
    1LIG    C35   54   2.376   2.407   6.557
    1LIG    O18   55   2.428   2.342   6.677
    1LIG    C36   56   2.386   2.409   6.798
    1LIG    C37   57   2.440   2.336   6.925
    1LIG    O19   58   2.392   2.404   7.044
    1LIG    C38   59   2.443   2.345   7.167
    1LIG    C39   60   2.377   2.413   7.291
    1LIG    O20   61   2.416   2.343   7.412
    1LIG    C40   62   2.367   2.405   7.534
    1LIG    C41   63   2.426   2.334   7.660
    1LIG    O21   64   2.362   2.385   7.780
    1LIG    C42   65   2.415   2.330   7.903
    1LIG    C43   66   2.345   2.395   8.027
    1LIG    O22   67   2.393   2.333   8.150
    1LIG    C44   68   2.363   2.407   8.271
    1LIG    C45   69   2.427   2.336   8.395
    1LIG    O23   70   2.372   2.390   8.519
    1LIG    C46   71   2.428   2.329   8.638
    1LIG    C47   72   2.379   2.408   8.763
    1LIG    O24   73   2.425   2.349   8.888
    1LIG    C48   74   2.369   2.410   9.008
    1LIG    C49   75   2.428   2.344   9.137
    1LIG    O25   76   2.368   2.401   9.256
    1LIG    C50   77   2.430   2.352   9.379
    1LIG    C51   78   2.353   2.406   9.504
    1LIG    O26   79   2.406   2.347   9.627
    1LIG    C52   80   2.353   2.404   9.751
    1LIG    C53   81   2.424   2.339   9.876
    1LIG    O27   82   2.354   2.370  10.000
    1LIG    C54   83   2.430   2.333  10.120
    1LIG    C55   84   2.371   2.405  10.247
    1LIG    O28   85   2.411   2.338  10.371
    1LIG    C56   86   2.374   2.411  10.493
    1LIG    C57   87   2.432   2.343  10.623
    1LIG    O29   88   2.381   2.407  10.745
    1LIG    C58   89   2.419   2.335  10.867
    1LIG    C59   90   2.382   2.415  10.998
    1LIG      H   91   2.256   2.406   0.153
    1LIG     H1   92   2.396   2.511   0.137
    1LIG     H2   93   2.535   2.365   0.278
    1LIG     H3   94   2.418   2.232   0.271
    1LIG     H4   95   2.529   2.377   0.524
    1LIG     H5   96   2.423   2.235   0.524
    1LIG     H6   97   2.243   2.379   0.643
    1LIG     H7   98   2.357   2.511   0.652
    1LIG     H8   99   2.257   2.416   0.908
    1LIG     H9  100   2.393   2.527   0.881
    1LIG    H10  101   2.542   2.396   1.025
    1LIG    H11  102   2.433   2.256   1.023
    1LIG    H12  103   2.536   2.368   1.270
    1LIG    H13  104   2.408   2.244   1.267
    1LIG    H14  105   2.255   2.406   1.396
    1LIG    H15  106   2.385   2.521   1.398
    1LIG    H16  107   2.259   2.414   1.643
    1LIG    H17  108   2.395   2.527   1.641
    1LIG    H18  109   2.535   2.373   1.775
    1LIG    H19  110   2.412   2.244   1.764
    1LIG    H20  111   2.524   2.383   2.019
    1LIG    H21  112   2.418   2.241   2.009
    1LIG    H22  113   2.233   2.379   2.124
    1LIG    H23  114   2.345   2.509   2.146
    1LIG    H24  115   2.238   2.394   2.393
    1LIG    H25  116   2.370   2.510   2.374
    1LIG    H26  117   2.522   2.378   2.507
    1LIG    H27  118   2.423   2.231   2.495
    1LIG    H28  119   2.532   2.360   2.736
    1LIG    H29  120   2.420   2.223   2.757
    1LIG    H30  121   2.261   2.411   2.870
    1LIG    H31  122   2.409   2.505   2.878
    1LIG    H32  123   2.273   2.421   3.128
    1LIG    H33  124   2.428   2.505   3.112
    1LIG    H34  125   2.545   2.332   3.243
    1LIG    H35  126   2.399   2.230   3.248
    1LIG    H36  127   2.551   2.350   3.491
    1LIG    H37  128   2.418   2.232   3.486
    1LIG    H38  129   2.271   2.407   3.607
    1LIG    H39  130   2.416   2.507   3.627
    1LIG    H40  131   2.259   2.384   3.862
    1LIG    H41  132   2.398   2.493   3.862
    1LIG    H42  133   2.535   2.331   3.987
    1LIG    H43  134   2.412   2.205   3.976
    1LIG    H44  135   2.538   2.335   4.225
    1LIG    H45  136   2.421   2.202   4.233
    1LIG    H46  137   2.258   2.369   4.350
    1LIG    H47  138   2.390   2.484   4.351
    1LIG    H48  139   2.268   2.398   4.602
    1LIG    H49  140   2.408   2.506   4.576
    1LIG    H50  141   2.549   2.376   4.723
    1LIG    H51  142   2.436   2.240   4.724
    1LIG    H52  143   2.542   2.385   4.965
    1LIG    H53  144   2.431   2.246   4.965
    1LIG    H54  145   2.257   2.389   5.084
    1LIG    H55  146   2.371   2.522   5.086
    1LIG    H56  147   2.261   2.413   5.332
    1LIG    H57  148   2.398   2.525   5.337
    1LIG    H58  149   2.535   2.365   5.465
    1LIG    H59  150   2.412   2.237   5.447
    1LIG    H60  151   2.531   2.370   5.697
    1LIG    H61  152   2.420   2.232   5.699
    1LIG    H62  153   2.250   2.381   5.825
    1LIG    H63  154   2.370   2.506   5.832
    1LIG    H64  155   2.260   2.405   6.071
    1LIG    H65  156   2.400   2.514   6.063
    1LIG    H66  157   2.539   2.344   6.185
    1LIG    H67  158   2.402   2.233   6.193
    1LIG    H68  159   2.545   2.345   6.434
    1LIG    H69  160   2.407   2.232   6.429
    1LIG    H70  161   2.267   2.401   6.556
    1LIG    H71  162   2.405   2.512   6.557
    1LIG    H72  163   2.276   2.414   6.802
    1LIG    H73  164   2.425   2.511   6.798
    1LIG    H74  165   2.549   2.337   6.924
    1LIG    H75  166   2.405   2.231   6.926
    1LIG    H76  167   2.552   2.358   7.170
    1LIG    H77  168   2.420   2.238   7.167
    1LIG    H78  169   2.268   2.411   7.282
    1LIG    H79  170   2.409   2.518   7.297
    1LIG    H80  171   2.258   2.398   7.535
    1LIG    H81  172   2.394   2.511   7.534
    1LIG    H82  173   2.534   2.354   7.665
    1LIG    H83  174   2.412   2.226   7.654
    1LIG    H84  175   2.523   2.350   7.909
    1LIG    H85  176   2.402   2.221   7.904
    1LIG    H86  177   2.237   2.383   8.020
    1LIG    H87  178   2.365   2.502   8.028
    1LIG    H88  179   2.254   2.413   8.284
    1LIG    H89  180   2.401   2.509   8.265
    1LIG    H90  181   2.535   2.351   8.393
    1LIG    H91  182   2.408   2.228   8.391
    1LIG    H92  183   2.538   2.332   8.634
    1LIG    H93  184   2.397   2.224   8.644
    1LIG    H94  185   2.270   2.415   8.763
    1LIG    H95  186   2.418   2.510   8.755
    1LIG    H96  187   2.260   2.401   9.007
    1LIG    H97  188   2.393   2.517   9.010
    1LIG    H98  189   2.536   2.360   9.139
    1LIG    H99  190   2.408   2.236   9.135
    1LIG   H100  191   2.535   2.384   9.383
    1LIG   H101  192   2.427   2.242   9.379
    1LIG   H102  193   2.247   2.381   9.495
    1LIG   H103  194   2.358   2.515   9.507
    1LIG   H104  195   2.245   2.386   9.756
    1LIG   H105  196   2.368   2.512   9.752
    1LIG   H106  197   2.526   2.379   9.880
    1LIG   H107  198   2.431   2.230   9.863
    1LIG   H108  199   2.535   2.364  10.108
    1LIG   H109  200   2.428   2.224  10.133
    1LIG   H110  201   2.262   2.409  10.241
    1LIG   H111  202   2.407   2.509  10.248
    1LIG   H112  203   2.265   2.417  10.500
    1LIG   H113  204   2.413   2.513  10.487
    1LIG   H114  205   2.541   2.350  10.622
    1LIG   H115  206   2.405   2.236  10.624
    1LIG   H116  207   2.527   2.316  10.864
    1LIG   H117  208   2.369   2.237  10.867
    1LIG   H118  209   2.277   2.447  10.993
    1LIG   H119  210   2.444   2.506  11.003
    2LIG      O  211   2.107   2.067   0.033
    2LIG      C  212   2.153   2.130   0.158
    2LIG     C1  213   2.079   2.075   0.287
    2LIG     O1  214   2.154   2.103   0.410
    2LIG     C2  215   2.087   2.059   0.533
    2LIG     C3  216   2.139   2.139   0.658
    2LIG     O2  217   2.099   2.077   0.784
    2LIG     C4  218   2.140   2.154   0.902
    2LIG     C5  219   2.082   2.092   1.034
    2LIG     O3  220   2.155   2.134   1.153
    2LIG     C6  221   2.085   2.093   1.274
    2LIG     C7  222   2.155   2.145   1.403
    2LIG     O4  223   2.094   2.091   1.522
    2LIG     C8  224   2.138   2.157   1.643
    2LIG     C9  225   2.079   2.085   1.767
    2LIG     O5  226   2.145   2.128   1.888
    2LIG    C10  227   2.087   2.067   2.006
    2LIG    C11  228   2.142   2.134   2.136
    2LIG     O6  229   2.096   2.065   2.257
    2LIG    C12  230   2.135   2.137   2.378
    2LIG    C13  231   2.076   2.071   2.506
    2LIG     O7  232   2.145   2.121   2.624
    2LIG    C14  233   2.070   2.096   2.746
    2LIG    C15  234   2.142   2.152   2.873
    2LIG     O8  235   2.085   2.099   2.995
    2LIG    C16  236   2.147   2.149   3.116
    2LIG    C17  237   2.082   2.087   3.245
    2LIG     O9  238   2.127   2.156   3.366
    2LIG    C18  239   2.088   2.081   3.485
    2LIG    C19  240   2.149   2.141   3.615
    2LIG    O10  241   2.120   2.055   3.730
    2LIG    C20  242   2.157   2.119   3.856
    2LIG    C21  243   2.085   2.054   3.979
    2LIG    O11  244   2.149   2.095   4.103
    2LIG    C22  245   2.074   2.061   4.223
    2LIG    C23  246   2.132   2.138   4.345
    2LIG    O12  247   2.085   2.081   4.469
    2LIG    C24  248   2.129   2.154   4.586
    2LIG    C25  249   2.076   2.084   4.715
    2LIG    O13  250   2.146   2.130   4.834
    2LIG    C26  251   2.086   2.076   4.954
    2LIG    C27  252   2.139   2.150   5.080
    2LIG    O14  253   2.093   2.085   5.200
    2LIG    C28  254   2.146   2.149   5.319
    2LIG    C29  255   2.091   2.078   5.446
    2LIG    O15  256   2.160   2.128   5.564
    2LIG    C30  257   2.101   2.072   5.683
    2LIG    C31  258   2.153   2.139   5.815
    2LIG    O16  259   2.102   2.075   5.936
    2LIG    C32  260   2.146   2.144   6.057
    2LIG    C33  261   2.082   2.079   6.185
    2LIG    O17  262   2.130   2.141   6.309
    2LIG    C34  263   2.058   2.097   6.429
    2LIG    C35  264   2.122   2.162   6.557
    2LIG    O18  265   2.064   2.110   6.680
    2LIG    C36  266   2.134   2.156   6.800
    2LIG    C37  267   2.075   2.092   6.931
    2LIG    O19  268   2.124   2.161   7.050
    2LIG    C38  269   2.091   2.085   7.170
    2LIG    C39  270   2.152   2.147   7.300
    2LIG    O20  271   2.127   2.060   7.415
    2LIG    C40  272   2.165   2.122   7.542
    2LIG    C41  273   2.093   2.052   7.663
    2LIG    O21  274   2.154   2.094   7.788
    2LIG    C42  275   2.072   2.066   7.905
    2LIG    C43  276   2.133   2.137   8.029
    2LIG    O22  277   2.099   2.070   8.153
    2LIG    C44  278   2.150   2.142   8.268
    2LIG    C45  279   2.078   2.097   8.399
    2LIG    O23  280   2.144   2.147   8.519
    2LIG    C46  281   2.076   2.099   8.639
    2LIG    C47  282   2.150   2.145   8.769
    2LIG    O24  283   2.081   2.099   8.889
    2LIG    C48  284   2.137   2.151   9.012
    2LIG    C49  285   2.082   2.077   9.138
    2LIG    O25  286   2.146   2.126   9.260
    2LIG    C50  287   2.091   2.068   9.381
    2LIG    C51  288   2.148   2.138   9.510
    2LIG    O26  289   2.107   2.066   9.631
    2LIG    C52  290   2.145   2.135   9.755
    2LIG    C53  291   2.096   2.057   9.883
    2LIG    O27  292   2.158   2.109  10.004
    2LIG    C54  293   2.079   2.086  10.126
    2LIG    C55  294   2.149   2.146  10.255
    2LIG    O28  295   2.100   2.087  10.380
    2LIG    C56  296   2.154   2.146  10.502
    2LIG    C57  297   2.088   2.087  10.634
    2LIG    O29  298   2.135   2.152  10.758
    2LIG    C58  299   2.099   2.074  10.878
    2LIG    C59  300   2.155   2.137  11.012
    2LIG      H  301   2.135   2.238   0.153
    2LIG     H1  302   2.261   2.114   0.169
    2LIG     H2  303   2.063   1.967   0.279
    2LIG     H3  304   1.980   2.122   0.294
    2LIG     H4  305   2.107   1.952   0.548
    2LIG     H5  306   1.979   2.073   0.524
    2LIG     H6  307   2.098   2.240   0.654
    2LIG     H7  308   2.248   2.144   0.654
    2LIG     H8  309   2.103   2.257   0.893
    2LIG     H9  310   2.249   2.157   0.908
    2LIG    H10  311   2.083   1.982   1.029
    2LIG    H11  312   1.979   2.127   1.044
    2LIG    H12  313   2.078   1.984   1.279
    2LIG    H13  314   1.984   2.135   1.273
    2LIG    H14  315   2.140   2.253   1.404
    2LIG    H15  316   2.262   2.123   1.401
    2LIG    H16  317   2.105   2.262   1.642
    2LIG    H17  318   2.247   2.154   1.648
    2LIG    H18  319   2.095   1.977   1.754
    2LIG    H19  320   1.971   2.104   1.774
    2LIG    H20  321   2.108   1.959   2.008
    2LIG    H21  322   1.978   2.081   2.003
    2LIG    H22  323   2.102   2.236   2.139
    2LIG    H23  324   2.251   2.136   2.134
    2LIG    H24  325   2.098   2.240   2.372
    2LIG    H25  326   2.244   2.139   2.385
    2LIG    H26  327   2.087   1.962   2.501
    2LIG    H27  328   1.969   2.095   2.512
    2LIG    H28  329   2.056   1.989   2.758
    2LIG    H29  330   1.972   2.145   2.738
    2LIG    H30  331   2.130   2.261   2.873
    2LIG    H31  332   2.249   2.128   2.869
    2LIG    H32  333   2.135   2.258   3.119
    2LIG    H33  334   2.254   2.127   3.115
    2LIG    H34  335   2.108   1.981   3.251
    2LIG    H35  336   1.974   2.097   3.239
    2LIG    H36  337   2.125   1.978   3.476
    2LIG    H37  338   1.979   2.079   3.493
    2LIG    H38  339   2.108   2.242   3.631
    2LIG    H39  340   2.258   2.149   3.604
    2LIG    H40  341   2.129   2.225   3.853
    2LIG    H41  342   2.265   2.112   3.868
    2LIG    H42  343   2.088   1.945   3.971
    2LIG    H43  344   1.979   2.085   3.980
    2LIG    H44  345   2.082   1.954   4.240
    2LIG    H45  346   1.968   2.087   4.210
    2LIG    H46  347   2.102   2.243   4.339
    2LIG    H47  348   2.241   2.132   4.343
    2LIG    H48  349   2.092   2.257   4.583
    2LIG    H49  350   2.239   2.157   4.589
    2LIG    H50  351   2.090   1.975   4.705
    2LIG    H51  352   1.970   2.105   4.726
    2LIG    H52  353   2.111   1.970   4.961
    2LIG    H53  354   1.976   2.086   4.950
    2LIG    H54  355   2.103   2.253   5.081
    2LIG    H55  356   2.248   2.150   5.078
    2LIG    H56  357   2.115   2.254   5.321
    2LIG    H57  358   2.255   2.143   5.318
    2LIG    H58  359   2.105   1.970   5.438
    2LIG    H59  360   1.984   2.099   5.454
    2LIG    H60  361   2.115   1.964   5.686
    2LIG    H61  362   1.994   2.095   5.673
    2LIG    H62  363   2.116   2.242   5.814
    2LIG    H63  364   2.263   2.138   5.817
    2LIG    H64  365   2.115   2.249   6.051
    2LIG    H65  366   2.255   2.139   6.064
    2LIG    H66  367   2.112   1.974   6.186
    2LIG    H67  368   1.973   2.086   6.180
    2LIG    H68  369   2.064   1.989   6.438
    2LIG    H69  370   1.953   2.126   6.422
    2LIG    H70  371   2.106   2.270   6.553
    2LIG    H71  372   2.230   2.143   6.557
    2LIG    H72  373   2.125   2.265   6.806
    2LIG    H73  374   2.241   2.131   6.793
    2LIG    H74  375   2.102   1.986   6.935
    2LIG    H75  376   1.966   2.101   6.930
    2LIG    H76  377   2.131   1.984   7.160
    2LIG    H77  378   1.982   2.079   7.181
    2LIG    H78  379   2.108   2.246   7.317
    2LIG    H79  380   2.260   2.159   7.287
    2LIG    H80  381   2.137   2.228   7.542
    2LIG    H81  382   2.273   2.114   7.553
    2LIG    H82  383   2.100   1.943   7.653
    2LIG    H83  384   1.987   2.079   7.662
    2LIG    H84  385   2.069   1.958   7.922
    2LIG    H85  386   1.969   2.101   7.889
    2LIG    H86  387   2.095   2.240   8.032
    2LIG    H87  388   2.242   2.139   8.020
    2LIG    H88  389   2.133   2.249   8.255
    2LIG    H89  390   2.258   2.123   8.277
    2LIG    H90  391   2.074   1.988   8.403
    2LIG    H91  392   1.976   2.138   8.396
    2LIG    H92  393   2.069   1.990   8.636
    2LIG    H93  394   1.975   2.141   8.639
    2LIG    H94  395   2.150   2.254   8.770
    2LIG    H95  396   2.253   2.109   8.770
    2LIG    H96  397   2.112   2.257   9.019
    2LIG    H97  398   2.246   2.140   9.009
    2LIG    H98  399   2.102   1.970   9.129
    2LIG    H99  400   1.973   2.092   9.145
    2LIG   H100  401   2.115   1.962   9.385
    2LIG   H101  402   1.982   2.080   9.381
    2LIG   H102  403   2.107   2.239   9.515
    2LIG   H103  404   2.257   2.142   9.505
    2LIG   H104  405   2.101   2.235   9.755
    2LIG   H105  406   2.254   2.144   9.758
    2LIG   H106  407   2.121   1.951   9.873
    2LIG   H107  408   1.987   2.066   9.889
    2LIG   H108  409   2.064   1.979  10.138
    2LIG   H109  410   1.981   2.133  10.113
    2LIG   H110  411   2.128   2.254  10.257
    2LIG   H111  412   2.257   2.131  10.248
    2LIG   H112  413   2.136   2.254  10.500
    2LIG   H113  414   2.262   2.129  10.505
    2LIG   H114  415   2.108   1.980  10.639
    2LIG   H115  416   1.979   2.101  10.627
    2LIG   H116  417   2.140   1.973  10.868
    2LIG   H117  418   1.989   2.067  10.884
    2LIG   H118  419   2.264   2.133  11.011
    2LIG   H119  420   2.124   2.242  11.017
    3MOL     C1  421   1.562   2.450   4.959
    3MOL     H1  422   1.457   2.419   4.962
    3MOL     O1  423   1.598   2.510   5.086
    3MOL     C2  424   1.734   2.559   5.097
    3MOL     H2  425   1.805   2.476   5.088
    3MOL     C3  426   1.752   2.623   5.238
    3MOL     H3  427   1.858   2.645   5.255
    3MOL     H4  428   1.721   2.549   5.313
    3MOL     O2  429   1.674   2.743   5.252
    3MOL     H5  430   1.721   2.798   5.319
    3MOL     C4  431   1.581   2.554   4.845
    3MOL     H6  432   1.516   2.640   4.867
    3MOL     O3  433   1.548   2.498   4.717
    3MOL     H7  434   1.556   2.400   4.730
    3MOL     C5  435   1.727   2.604   4.844
    3MOL     H8  436   1.791   2.517   4.825
    3MOL     O4  437   1.749   2.703   4.742
    3MOL     H9  438   1.690   2.679   4.667
    3MOL     C6  439   1.760   2.662   4.983
    3MOL    H10  440   1.695   2.749   4.998
    3MOL     O5  441   1.899   2.701   4.983
    3MOL     C7  442   1.927   2.829   5.042
    3MOL    H11  443   1.836   2.875   5.084
    3MOL     O6  444   2.024   2.811   5.149
    3MOL     C8  445   2.152   2.760   5.107
    3MOL    H12  446   2.139   2.661   5.059
    3MOL     C9  447   2.242   2.741   5.231
    3MOL    H13  448   2.326   2.676   5.206
    3MOL    H14  449   2.183   2.691   5.309
    3MOL     O7  450   2.296   2.864   5.280
    3MOL    H15  451   2.373   2.886   5.224
    3MOL    C10  452   1.984   2.924   4.935
    3MOL    H16  453   2.000   3.022   4.979
    3MOL     O8  454   1.893   2.933   4.827
    3MOL    H17  455   1.848   2.847   4.820
    3MOL    C11  456   2.119   2.875   4.882
    3MOL    H18  457   2.103   2.777   4.836
    3MOL     O9  458   2.172   2.968   4.785
    3MOL    H19  459   2.095   3.017   4.750
    3MOL    C12  460   2.212   2.858   5.003
    3MOL    H20  461   2.222   2.956   5.052
    3MOL    O10  462   2.339   2.810   4.958
    3MOL    C13  463   2.448   2.902   4.979
    3MOL    H21  464   2.410   3.003   5.001
    3MOL    O11  465   2.527   2.855   5.091
    3MOL    C14  466   2.590   2.726   5.070
    3MOL    H22  467   2.513   2.653   5.045
    3MOL    C15  468   2.657   2.678   5.202
    3MOL    H23  469   2.667   2.569   5.199
    3MOL    H24  470   2.589   2.701   5.285
    3MOL    O12  471   2.786   2.736   5.225
    3MOL    H25  472   2.849   2.676   5.179
    3MOL    C16  473   2.533   2.912   4.850
    3MOL    H26  474   2.607   2.993   4.863
    3MOL    O13  475   2.449   2.939   4.738
    3MOL    H27  476   2.361   2.958   4.778
    3MOL    C17  477   2.607   2.780   4.823
    3MOL    H28  478   2.531   2.703   4.803
    3MOL    O14  479   2.693   2.793   4.709
    3MOL    H29  480   2.648   2.859   4.652
    3MOL    C18  481   2.685   2.737   4.949
    3MOL    H30  482   2.764   2.810   4.970
    3MOL    O15  483   2.738   2.607   4.920
    3MOL    C19  484   2.881   2.591   4.929
    3MOL    H31  485   2.933   2.688   4.934
    3MOL    O16  486   2.907   2.513   5.048
    3MOL    C20  487   2.845   2.381   5.049
    3MOL    H32  488   2.737   2.393   5.039
    3MOL    C21  489   2.869   2.309   5.185
    3MOL    H33  490   2.788   2.237   5.202
    3MOL    H34  491   2.864   2.384   5.265
    3MOL    O17  492   2.994   2.240   5.191
    3MOL    H35  493   2.975   2.152   5.151
    3MOL    C22  494   2.929   2.517   4.801
    3MOL    H36  495   3.038   2.504   4.806
    3MOL    O18  496   2.893   2.594   4.686
    3MOL    H37  497   2.816   2.649   4.714
    3MOL    C23  498   2.862   2.377   4.794
    3MOL    H38  499   2.754   2.391   4.792
    3MOL    O19  500   2.903   2.303   4.676
    3MOL    H39  501   2.860   2.343   4.597
    3MOL    C24  502   2.897   2.302   4.925
    3MOL    H40  503   3.007   2.293   4.932
    3MOL    O20  504   2.834   2.173   4.920
    3MOL    C25  505   2.922   2.059   4.935
    3MOL    H41  506   3.027   2.087   4.926
    3MOL    O21  507   2.896   2.000   5.065
    3MOL    C26  508   2.759   1.955   5.085
    3MOL    H42  509   2.691   2.039   5.072
    3MOL    C27  510   2.740   1.904   5.231
    3MOL    H43  511   2.633   1.900   5.253
    3MOL    H44  512   2.784   1.978   5.298
    3MOL    O22  513   2.798   1.775   5.256
    3MOL    H45  514   2.888   1.790   5.294
    3MOL    C28  515   2.890   1.957   4.822
    3MOL    H46  516   2.959   1.873   4.828
    3MOL    O23  517   2.905   2.023   4.696
    3MOL    H47  518   2.879   2.117   4.713
    3MOL    C29  519   2.745   1.905   4.835
    3MOL    H48  520   2.678   1.991   4.824
    3MOL    O24  521   2.715   1.806   4.735
    3MOL    H49  522   2.736   1.848   4.650
    3MOL    C30  523   2.726   1.848   4.977
    3MOL    H50  524   2.792   1.761   4.990
    3MOL    O25  525   2.587   1.812   4.989
    3MOL    C31  526   2.564   1.687   5.056
    3MOL    H51  527   2.656   1.648   5.103
    3MOL    O26  528   2.464   1.709   5.158
    3MOL    C32  529   2.337   1.756   5.109
    3MOL    H52  530   2.351   1.850   5.054
    3MOL    C33  531   2.243   1.786   5.228
    3MOL    H53  532   2.159   1.845   5.191
    3MOL    H54  533   2.297   1.848   5.301
    3MOL    O27  534   2.194   1.668   5.291
    3MOL    H55  535   2.097   1.685   5.302
    3MOL    C34  536   2.515   1.582   4.954
    3MOL    H56  537   2.503   1.486   5.008
    3MOL    O28  538   2.609   1.567   4.850
    3MOL    H57  539   2.640   1.657   4.824
    3MOL    C35  540   2.380   1.623   4.893
    3MOL    H58  541   2.396   1.719   4.841
    3MOL    O29  542   2.332   1.524   4.800
    3MOL    H59  543   2.402   1.514   4.731
    3MOL    C36  544   2.282   1.650   5.010
    3MOL    H60  545   2.265   1.556   5.066
    3MOL    O30  546   2.160   1.699   4.953
    3MOL    C37  547   2.054   1.602   4.946
    3MOL    H61  548   2.094   1.500   4.951
    3MOL    O31  549   1.963   1.627   5.056
    3MOL    C38  550   1.906   1.761   5.056
    3MOL    H62  551   1.986   1.835   5.052
    3MOL    C39  552   1.831   1.786   5.189
    3MOL    H63  553   1.743   1.721   5.193
    3MOL    H64  554   1.796   1.891   5.191
    3MOL    O32  555   1.918   1.761   5.300
    3MOL    H65  556   1.876   1.798   5.381
    3MOL    C40  557   1.982   1.618   4.810
    3MOL    H66  558   1.910   1.536   4.799
    3MOL    O33  559   2.080   1.611   4.705
    3MOL    H67  560   2.163   1.579   4.748
    3MOL    C41  561   1.907   1.754   4.802
    3MOL    H68  562   1.983   1.832   4.803
    3MOL    O34  563   1.828   1.764   4.682
    3MOL    H69  564   1.851   1.687   4.625
    3MOL    C42  565   1.819   1.774   4.929
    3MOL    H70  566   1.741   1.698   4.931
    3MOL    O35  567   1.764   1.907   4.922
    3MOL    C43  568   1.621   1.917   4.935
    3MOL    H71  569   1.575   1.817   4.938
    3MOL    O36  570   1.591   1.988   5.057
    3MOL    C44  571   1.639   2.126   5.065
    3MOL    H72  572   1.749   2.128   5.065
    3MOL    C45  573   1.585   2.186   5.198
    3MOL    H73  574   1.476   2.174   5.200
    3MOL    H74  575   1.607   2.293   5.200
    3MOL    O37  576   1.642   2.126   5.315
    3MOL    H75  577   1.604   2.036   5.322
    3MOL    C46  578   1.563   1.992   4.812
    3MOL    H76  579   1.454   1.995   4.822
    3MOL    O38  580   1.597   1.923   4.691
    3MOL    H77  581   1.675   1.865   4.712
    3MOL    C47  582   1.616   2.138   4.808
    3MOL    H78  583   1.725   2.136   4.794
    3MOL    O39  584   1.553   2.213   4.704
    3MOL    H79  585   1.588   2.182   4.617
    3MOL    C48  586   1.586   2.206   4.943
    3MOL    H80  587   1.477   2.214   4.953
    3MOL    O40  588   1.648   2.336   4.938
    4MOL     C1  589   1.561   2.454   6.105
    4MOL     H1  590   1.454   2.429   6.107
    4MOL     O1  591   1.597   2.514   6.232
    4MOL     C2  592   1.733   2.563   6.245
    4MOL     H2  593   1.801   2.478   6.233
    4MOL     C3  594   1.751   2.619   6.389
    4MOL     H3  595   1.856   2.647   6.404
    4MOL     H4  596   1.727   2.539   6.460
    4MOL     O2  597   1.667   2.733   6.413
    4MOL     H5  598   1.676   2.755   6.508
    4MOL     C4  599   1.588   2.555   5.989
    4MOL     H6  600   1.518   2.639   6.001
    4MOL     O3  601   1.567   2.492   5.863
    4MOL     H7  602   1.555   2.395   5.883
    4MOL     C5  603   1.732   2.610   5.994
    4MOL     H8  604   1.801   2.525   5.980
    4MOL     O4  605   1.754   2.707   5.891
    4MOL     H9  606   1.697   2.680   5.816
    4MOL     C6  607   1.760   2.669   6.134
    4MOL    H10  608   1.693   2.755   6.149
    4MOL     O5  609   1.899   2.709   6.133
    4MOL     C7  610   1.928   2.838   6.191
    4MOL    H11  611   1.837   2.881   6.236
    4MOL     O6  612   2.026   2.816   6.296
    4MOL     C8  613   2.155   2.768   6.251
    4MOL    H12  614   2.142   2.677   6.191
    4MOL     C9  615   2.242   2.731   6.374
    4MOL    H13  616   2.319   2.660   6.342
    4MOL    H14  617   2.178   2.679   6.446
    4MOL     O7  618   2.303   2.844   6.434
    4MOL    H15  619   2.384   2.862   6.381
    4MOL    C10  620   1.982   2.936   6.083
    4MOL    H16  621   1.987   3.037   6.128
    4MOL     O8  622   1.893   2.938   5.971
    4MOL    H17  623   1.876   2.842   5.952
    4MOL    C11  624   2.124   2.896   6.036
    4MOL    H18  625   2.116   2.799   5.985
    4MOL     O9  626   2.181   2.993   5.946
    4MOL    H19  627   2.110   3.029   5.890
    4MOL    C12  628   2.214   2.877   6.159
    4MOL    H20  629   2.220   2.972   6.214
    4MOL    O10  630   2.344   2.838   6.111
    4MOL    C13  631   2.452   2.927   6.144
    4MOL    H21  632   2.415   3.026   6.171
    4MOL    O11  633   2.526   2.867   6.253
    4MOL    C14  634   2.583   2.736   6.224
    4MOL    H22  635   2.503   2.667   6.195
    4MOL    C15  636   2.651   2.680   6.352
    4MOL    H23  637   2.664   2.572   6.342
    4MOL    H24  638   2.583   2.697   6.436
    4MOL    O12  639   2.777   2.741   6.378
    4MOL    H25  640   2.846   2.677   6.349
    4MOL    C16  641   2.545   2.944   6.022
    4MOL    H26  642   2.624   3.015   6.049
    4MOL    O13  643   2.470   2.996   5.913
    4MOL    H27  644   2.377   2.967   5.929
    4MOL    C17  645   2.612   2.812   5.982
    4MOL    H28  646   2.533   2.742   5.952
    4MOL    O14  647   2.707   2.833   5.876
    4MOL    H29  648   2.659   2.880   5.805
    4MOL    C18  649   2.682   2.751   6.105
    4MOL    H30  650   2.764   2.818   6.134
    4MOL    O15  651   2.733   2.621   6.067
    4MOL    C19  652   2.874   2.600   6.085
    4MOL    H31  653   2.928   2.696   6.095
    4MOL    O16  654   2.894   2.519   6.205
    4MOL    C20  655   2.831   2.388   6.197
    4MOL    H32  656   2.726   2.402   6.171
    4MOL    C21  657   2.833   2.317   6.336
    4MOL    H33  658   2.744   2.252   6.343
    4MOL    H34  659   2.823   2.393   6.414
    4MOL    O17  660   2.949   2.237   6.360
    4MOL    H35  661   2.943   2.162   6.297
    4MOL    C22  662   2.930   2.527   5.960
    4MOL    H36  663   3.039   2.520   5.969
    4MOL    O18  664   2.895   2.600   5.843
    4MOL    H37  665   2.815   2.652   5.867
    4MOL    C23  666   2.874   2.384   5.948
    4MOL    H38  667   2.765   2.392   5.932
    4MOL    O19  668   2.934   2.315   5.836
    4MOL    H39  669   2.946   2.384   5.767
    4MOL    C24  670   2.897   2.309   6.082
    4MOL    H40  671   3.005   2.302   6.100
    4MOL    O20  672   2.837   2.179   6.072
    4MOL    C25  673   2.927   2.067   6.082
    4MOL    H41  674   3.032   2.098   6.071
    4MOL    O21  675   2.907   2.003   6.210
    4MOL    C26  676   2.772   1.952   6.234
    4MOL    H42  677   2.700   2.035   6.232
    4MOL    C27  678   2.770   1.890   6.377
    4MOL    H43  679   2.667   1.865   6.403
    4MOL    H44  680   2.805   1.966   6.448
    4MOL    O22  681   2.853   1.774   6.386
    4MOL    H45  682   2.885   1.766   6.478
    4MOL    C28  683   2.896   1.967   5.968
    4MOL    H46  684   2.969   1.885   5.976
    4MOL    O23  685   2.909   2.033   5.842
    4MOL    H47  686   2.931   2.127   5.864
    4MOL    C29  687   2.753   1.910   5.981
    4MOL    H48  688   2.682   1.993   5.969
    4MOL    O24  689   2.729   1.812   5.878
    4MOL    H49  690   2.780   1.842   5.799
    4MOL    C30  691   2.733   1.850   6.122
    4MOL    H50  692   2.796   1.760   6.131
    4MOL    O25  693   2.593   1.816   6.136
    4MOL    C31  694   2.563   1.692   6.204
    4MOL    H51  695   2.653   1.653   6.254
    4MOL    O26  696   2.461   1.717   6.303
    4MOL    C32  697   2.332   1.760   6.251
    4MOL    H52  698   2.344   1.855   6.198
    4MOL    C33  699   2.235   1.781   6.370
    4MOL    H53  700   2.145   1.831   6.333
    4MOL    H54  701   2.281   1.848   6.444
    4MOL    O27  702   2.196   1.658   6.432
    4MOL    H55  703   2.103   1.642   6.404
    4MOL    C34  704   2.514   1.585   6.101
    4MOL    H56  705   2.499   1.491   6.155
    4MOL    O28  706   2.615   1.567   6.003
    4MOL    H57  707   2.604   1.638   5.935
    4MOL    C35  708   2.379   1.627   6.038
    4MOL    H58  709   2.394   1.722   5.983
    4MOL    O29  710   2.327   1.526   5.949
    4MOL    H59  711   2.396   1.503   5.883
    4MOL    C36  712   2.279   1.653   6.153
    4MOL    H60  713   2.266   1.559   6.209
    4MOL    O30  714   2.153   1.697   6.098
    4MOL    C37  715   2.045   1.601   6.105
    4MOL    H61  716   2.084   1.499   6.120
    4MOL    O31  717   1.957   1.636   6.215
    4MOL    C38  718   1.890   1.765   6.205
    4MOL    H62  719   1.965   1.843   6.193
    4MOL    C39  720   1.810   1.796   6.334
    4MOL    H63  721   1.726   1.726   6.342
    4MOL    H64  722   1.769   1.897   6.326
    4MOL    O32  723   1.893   1.787   6.450
    4MOL    H65  724   1.897   1.690   6.468
    4MOL    C40  725   1.968   1.602   5.971
    4MOL    H66  726   1.899   1.516   5.969
    4MOL    O33  727   2.063   1.590   5.865
    4MOL    H67  728   2.150   1.612   5.906
    4MOL    C41  729   1.885   1.731   5.952
    4MOL    H68  730   1.957   1.812   5.938
    4MOL    O34  731   1.801   1.719   5.836
    4MOL    H69  732   1.857   1.731   5.756
    4MOL    C42  733   1.801   1.765   6.079
    4MOL    H70  734   1.721   1.692   6.091
    4MOL    O35  735   1.749   1.900   6.063
    4MOL    C43  736   1.605   1.916   6.065
    4MOL    H71  737   1.556   1.818   6.061
    4MOL    O36  738   1.568   1.985   6.186
    4MOL    C44  739   1.622   2.119   6.204
    4MOL    H72  740   1.732   2.116   6.201
    4MOL    C45  741   1.578   2.173   6.343
    4MOL    H73  742   1.469   2.166   6.348
    4MOL    H74  743   1.605   2.279   6.351
    4MOL    O37  744   1.637   2.099   6.450
    4MOL    H75  745   1.581   2.113   6.530
    4MOL    C46  746   1.557   1.999   5.943
    4MOL    H76  747   1.448   1.999   5.945
    4MOL    O38  748   1.601   1.943   5.819
    4MOL    H77  749   1.700   1.933   5.829
    4MOL    C47  750   1.604   2.146   5.951
    4MOL    H78  751   1.712   2.149   5.945
    4MOL    O39  752   1.547   2.220   5.843
    4MOL    H79  753   1.533   2.153   5.772
    4MOL    C48  754   1.571   2.210   6.087
    4MOL    H80  755   1.463   2.224   6.096
    4MOL    O40  756   1.642   2.336   6.088
    5SOL     OW  757   0.239   0.594   0.110
    5SOL    HW1  758   0.164   0.583   0.169
    5SOL    HW2  759   0.203   0.638   0.033
    6SOL     OW  760   0.191   0.297   0.987
    6SOL    HW1  761   0.220   0.264   1.073
    6SOL    HW2  762   0.130   0.230   0.955
    7SOL     OW  763   4.496   0.396   0.636
    7SOL    HW1  764   4.426   0.435   0.688
    7SOL    HW2  765   4.455   0.323   0.591
    8SOL     OW  766   0.569   1.298   1.184
    8SOL    HW1  767   0.483   1.303   1.143
    8SOL    HW2  768   0.585   1.386   1.218
    9SOL     OW  769   1.569   1.511   0.710
    9SOL    HW1  770   1.526   1.488   0.793
    9SOL    HW2  771   1.498   1.514   0.646
   10SOL     OW  772   1.142   0.696   0.691
   10SOL    HW1  773   1.186   0.781   0.685
   10SOL    HW2  774   1.089   0.702   0.770
   11SOL     OW  775   1.783   0.599   0.206
   11SOL    HW1  776   1.717   0.620   0.140
   11SOL    HW2  777   1.745   0.527   0.256
   12SOL     OW  778   0.744   1.136   1.046
   12SOL    HW1  779   0.678   1.175   1.105
   12SOL    HW2  780   0.784   1.211   1.003
   13SOL     OW  781   0.872   0.762   1.822
   13SOL    HW1  782   0.858   0.831   1.887
   13SOL    HW2  783   0.896   0.808   1.742
   14SOL     OW  784   0.684   0.995   0.646
   14SOL    HW1  785   0.751   0.987   0.714
   14SOL    HW2  786   0.617   1.051   0.686
   15SOL     OW  787   0.714   1.148   1.821
   15SOL    HW1  788   0.761   1.225   1.851
   15SOL    HW2  789   0.635   1.183   1.779
   16SOL     OW  790   0.333   1.417   1.067
   16SOL    HW1  791   0.252   1.395   1.020
   16SOL    HW2  792   0.382   1.472   1.006
   17SOL     OW  793   1.458   1.501   1.361
   17SOL    HW1  794   1.512   1.579   1.370
   17SOL    HW2  795   1.390   1.512   1.428
   18SOL     OW  796   0.444   0.388   1.476
   18SOL    HW1  797   0.533   0.353   1.474
   18SOL    HW2  798   0.394   0.323   1.525
   19SOL     OW  799   1.603   0.440   0.739
   19SOL    HW1  800   1.522   0.454   0.691
   19SOL    HW2  801   1.612   0.518   0.794
   20SOL     OW  802   0.245   1.692   0.478
   20SOL    HW1  803   0.232   1.779   0.517
   20SOL    HW2  804   0.314   1.705   0.413
   21SOL     OW  805   1.137   1.342   1.695
   21SOL    HW1  806   1.179   1.336   1.781
   21SOL    HW2  807   1.085   1.262   1.687
   22SOL     OW  808   0.247   1.427   0.526
   22SOL    HW1  809   0.240   1.522   0.526
   22SOL    HW2  810   0.187   1.399   0.595
   23SOL     OW  811   0.255   1.084   0.886
   23SOL    HW1  812   0.270   0.992   0.908
   23SOL    HW2  813   0.193   1.115   0.952
   24SOL     OW  814   0.605   1.793   1.428
   24SOL    HW1  815   0.522   1.775   1.473
   24SOL    HW2  816   0.627   1.882   1.454
   25SOL     OW  817   0.559   0.997   0.160
   25SOL    HW1  818   0.613   1.028   0.087
   25SOL    HW2  819   0.606   1.027   0.238
   26SOL     OW  820   1.573   0.121   1.461
   26SOL    HW1  821   1.615   0.187   1.406
   26SOL    HW2  822   1.565   0.162   1.547
   27SOL     OW  823   0.134   0.648   0.569
   27SOL    HW1  824   0.088   0.569   0.596
   27SOL    HW2  825   0.112   0.713   0.636
   28SOL     OW  826   1.856   1.786   0.327
   28SOL    HW1  827   1.912   1.752   0.397
   28SOL    HW2  828   1.916   1.818   0.261
   29SOL     OW  829   0.077   1.587   0.153
   29SOL    HW1  830   0.047   1.497   0.168
   29SOL    HW2  831   0.065   1.630   0.237
   30SOL     OW  832   1.690   0.920   0.645
   30SOL    HW1  833   1.772   0.877   0.621
   30SOL    HW2  834   1.667   0.973   0.569
   31SOL     OW  835   1.650   1.101   0.432
   31SOL    HW1  836   1.733   1.108   0.384
   31SOL    HW2  837   1.657   1.166   0.502
   32SOL     OW  838   0.095   0.769   1.560
   32SOL    HW1  839   0.181   0.752   1.522
   32SOL    HW2  840   0.102   0.857   1.595
   33SOL     OW  841   0.617   1.392   0.737
   33SOL    HW1  842   0.572   1.308   0.746
   33SOL    HW2  843   0.599   1.418   0.647
   34SOL     OW  844   1.284   1.235   1.421
   34SOL    HW1  845   1.315   1.167   1.361
   34SOL    HW2  846   1.345   1.230   1.495
   35SOL     OW  847   0.830   0.014   0.560
   35SOL    HW1  848   0.869   0.093   0.521
   35SOL    HW2  849   0.736   0.025   0.548
   36SOL     OW  850   0.176   0.942   1.277
   36SOL    HW1  851   0.267   0.917   1.258
   36SOL    HW2  852   0.132   0.937   1.192
   37SOL     OW  853   1.505   1.012   0.209
   37SOL    HW1  854   1.442   0.951   0.248
   37SOL    HW2  855   1.561   1.039   0.282
   38SOL     OW  856   1.183   1.813   1.626
   38SOL    HW1  857   1.190   1.873   1.552
   38SOL    HW2  858   1.202   1.727   1.588
   39SOL     OW  859   0.318   0.262   1.762
   39SOL    HW1  860   0.385   0.310   1.811
   39SOL    HW2  861   0.239   0.270   1.816
   40SOL     OW  862   1.467   1.418   0.947
   40SOL    HW1  863   1.400   1.435   1.014
   40SOL    HW2  864   1.453   1.327   0.922
   41SOL     OW  865   1.651   1.745   0.583
   41SOL    HW1  866   1.629   1.715   0.494
   41SOL    HW2  867   1.631   1.670   0.639
   42SOL     OW  868   0.592   0.714   0.265
   42SOL    HW1  869   0.593   0.800   0.224
   42SOL    HW2  870   0.529   0.722   0.337
   43SOL     OW  871   1.292   0.376   0.932
   43SOL    HW1  872   1.202   0.345   0.919
   43SOL    HW2  873   1.330   0.312   0.992
   44SOL     OW  874   1.586   1.678   0.316
   44SOL    HW1  875   1.674   1.715   0.303
   44SOL    HW2  876   1.556   1.656   0.228
   45SOL     OW  877   0.799   0.617   1.453
   45SOL    HW1  878   0.769   0.589   1.539
   45SOL    HW2  879   0.762   0.553   1.393
   46SOL     OW  880   1.388   0.483   1.676
   46SOL    HW1  881   1.393   0.528   1.761
   46SOL    HW2  882   1.455   0.415   1.681
   47SOL     OW  883   0.950   0.885   1.586
   47SOL    HW1  884   1.005   0.818   1.548
   47SOL    HW2  885   0.903   0.923   1.512
   48SOL     OW  886   1.000   0.417   1.230
   48SOL    HW1  887   0.909   0.421   1.261
   48SOL    HW2  888   0.996   0.364   1.151
   49SOL     OW  889   1.053   0.704   0.426
   49SOL    HW1  890   1.074   0.694   0.518
   49SOL    HW2  891   0.969   0.659   0.415
   50SOL     OW  892   0.094   0.821   0.785
   50SOL    HW1  893   0.178   0.818   0.831
   50SOL    HW2  894   0.028   0.830   0.853
   51SOL     OW  895   0.116   1.871   1.584
   51SOL    HW1  896   0.113   1.845   1.676
   51SOL    HW2  897   0.047   1.820   1.542
   52SOL     OW  898   0.879   0.361   0.213
   52SOL    HW1  899   0.926   0.416   0.149
   52SOL    HW2  900   0.898   0.271   0.185
   53SOL     OW  901   1.699   0.570   1.830
   53SOL    HW1  902   1.666   0.645   1.781
   53SOL    HW2  903   1.734   0.510   1.764
   54SOL     OW  904   1.382   1.142   0.540
   54SOL    HW1  905   1.460   1.131   0.486
   54SOL    HW2  906   1.328   1.204   0.492
   55SOL     OW  907   0.535   0.212   0.898
   55SOL    HW1  908   0.556   0.228   0.990
   55SOL    HW2  909   0.538   0.299   0.858
   56SOL     OW  910   0.996   1.442   0.472
   56SOL    HW1  911   0.967   1.517   0.421
   56SOL    HW2  912   0.972   1.463   0.562
   57SOL     OW  913   0.359   1.818   0.864
   57SOL    HW1  914   0.400   1.732   0.874
   57SOL    HW2  915   0.429   1.880   0.883
   58SOL     OW  916   1.801   1.050   0.872
   58SOL    HW1  917   1.749   1.032   0.794
   58SOL    HW2  918   1.738   1.058   0.943
   59SOL     OW  919   1.226   1.540   1.514
   59SOL    HW1  920   1.214   1.468   1.575
   59SOL    HW2  921   1.159   1.526   1.447
   60SOL     OW  922   0.304   0.950   0.287
   60SOL    HW1  923   0.385   0.977   0.244
   60SOL    HW2  924   0.314   0.856   0.301
   61SOL     OW  925   1.483   0.747   0.719
   61SOL    HW1  926   1.478   0.709   0.806
   61SOL    HW2  927   1.560   0.804   0.722
   62SOL     OW  928   0.472   1.266   1.735
   62SOL    HW1  929   0.446   1.273   1.643
   62SOL    HW2  930   0.389   1.265   1.784
   63SOL     OW  931   1.109   1.783   0.225
   63SOL    HW1  932   1.046   1.734   0.278
   63SOL    HW2  933   1.151   1.716   0.171
   64SOL     OW  934   0.153   0.266   1.516
   64SOL    HW1  935   0.128   0.351   1.480
   64SOL    HW2  936   0.194   0.286   1.600
   65SOL     OW  937   1.627   1.372   0.094
   65SOL    HW1  938   1.586   1.457   0.081
   65SOL    HW2  939   1.562   1.309   0.061
   66SOL     OW  940   0.468   1.740   0.318
   66SOL    HW1  941   0.510   1.798   0.381
   66SOL    HW2  942   0.539   1.708   0.264
   67SOL     OW  943   1.429   0.150   0.427
   67SOL    HW1  944   1.414   0.109   0.342
   67SOL    HW2  945   1.523   0.140   0.442
   68SOL     OW  946   0.249   1.785   1.224
   68SOL    HW1  947   0.296   1.708   1.256
   68SOL    HW2  948   0.212   1.758   1.140
   69SOL     OW  949   0.939   1.700   0.896
   69SOL    HW1  950   1.018   1.651   0.918
   69SOL    HW2  951   0.899   1.649   0.826
   70SOL     OW  952   0.392   0.690   0.463
   70SOL    HW1  953   0.419   0.600   0.481
   70SOL    HW2  954   0.302   0.694   0.496
   71SOL     OW  955   1.523   0.233   1.723
   71SOL    HW1  956   1.523   0.254   1.816
   71SOL    HW2  957   1.442   0.184   1.709
   72SOL     OW  958   0.604   0.100   0.135
   72SOL    HW1  959   0.697   0.081   0.133
   72SOL    HW2  960   0.571   0.068   0.051
   73SOL     OW  961   0.769   0.273   1.756
   73SOL    HW1  962   0.839   0.208   1.750
   73SOL    HW2  963   0.734   0.262   1.844
   74SOL     OW  964   0.876   1.524   1.195
   74SOL    HW1  965   0.858   1.485   1.109
   74SOL    HW2  966   0.945   1.469   1.231
   75SOL     OW  967   1.339   0.591   1.428
   75SOL    HW1  968   1.367   0.563   1.515
   75SOL    HW2  969   1.374   0.679   1.418
   76SOL     OW  970   0.819   1.388   0.947
   76SOL    HW1  971   0.904   1.377   0.904
   76SOL    HW2  972   0.756   1.396   0.876
   77SOL     OW  973   0.928   0.526   0.896
   77SOL    HW1  974   0.908   0.526   0.802
   77SOL    HW2  975   0.959   0.437   0.914
   78SOL     OW  976   0.570   0.074   0.515
   78SOL    HW1  977   0.484   0.058   0.554
   78SOL    HW2  978   0.555   0.138   0.446
   79SOL     OW  979   1.421   1.199   0.024
   79SOL    HW1  980   1.449   1.129   0.083
   79SOL    HW2  981   1.339   1.230   0.062
   80SOL     OW  982   0.304   0.046   0.189
   80SOL    HW1  983   0.389   0.078   0.160
   80SOL    HW2  984   0.323   4.492   0.265
   81SOL     OW  985   0.962   0.228   0.450
   81SOL    HW1  986   0.914   0.285   0.390
   81SOL    HW2  987   1.051   0.262   0.449
   82SOL     OW  988   1.081   0.686   1.457
   82SOL    HW1  989   1.013   0.619   1.455
   82SOL    HW2  990   1.163   0.638   1.446
   83SOL     OW  991   1.219   1.573   0.795
   83SOL    HW1  992   1.233   1.637   0.726
   83SOL    HW2  993   1.288   1.590   0.859
   84SOL     OW  994   0.473   1.154   0.734
   84SOL    HW1  995   0.406   1.134   0.799
   84SOL    HW2  996   0.428   1.145   0.650
   85SOL     OW  997   1.264   1.792   0.610
   85SOL    HW1  998   1.312   1.854   0.556
   85SOL    HW2  999   1.196   1.845   0.653
   86SOL     OW 1000   1.019   0.522   0.043
   86SOL    HW1 1001   0.981   0.608   0.026
   86SOL    HW2 1002   1.092   0.540   0.103
   87SOL     OW 1003   0.083   0.502   1.406
   87SOL    HW1 1004   0.145   0.512   1.334
   87SOL    HW2 1005   0.052   0.591   1.423
   88SOL     OW 1006   0.555   0.251   1.168
   88SOL    HW1 1007   0.584   0.171   1.211
   88SOL    HW2 1008   0.460   0.252   1.182
   89SOL     OW 1009   0.859   0.514   0.634
   89SOL    HW1 1010   0.830   0.543   0.547
   89SOL    HW2 1011   0.815   0.431   0.648
   90SOL     OW 1012   0.936   0.013   0.812
   90SOL    HW1 1013   0.902   0.017   0.723
   90SOL    HW2 1014   0.969   4.423   0.821
   91SOL     OW 1015   1.439   1.159   0.856
   91SOL    HW1 1016   1.368   1.095   0.857
   91SOL    HW2 1017   1.463   1.168   0.763
   92SOL     OW 1018   1.464   0.610   0.964
   92SOL    HW1 1019   1.406   0.534   0.964
   92SOL    HW2 1020   1.518   0.599   1.042
   93SOL     OW 1021   1.849   0.808   0.376
   93SOL    HW1 1022   1.901   0.759   0.440
   93SOL    HW2 1023   1.822   0.743   0.312
   94SOL     OW 1024   0.497   1.423   0.173
   94SOL    HW1 1025   0.418   1.398   0.220
   94SOL    HW2 1026   0.495   1.372   0.092
   95SOL     OW 1027   1.679   1.264   0.642
   95SOL    HW1 1028   1.773   1.265   0.657
   95SOL    HW2 1029   1.650   1.353   0.665
   96SOL     OW 1030   1.392   0.566   0.080
   96SOL    HW1 1031   1.327   0.554   0.149
   96SOL    HW2 1032   1.444   0.486   0.081
   97SOL     OW 1033   0.518   0.264   0.327
   97SOL    HW1 1034   0.554   0.203   0.262
   97SOL    HW2 1035   0.503   0.345   0.278
   98SOL     OW 1036   1.749   1.242   1.563
   98SOL    HW1 1037   1.837   1.204   1.552
   98SOL    HW2 1038   1.765   1.332   1.592
   99SOL     OW 1039   1.054   1.354   1.332
   99SOL    HW1 1040   0.979   1.322   1.381
   99SOL    HW2 1041   1.129   1.311   1.374
  100SOL     OW 1042   1.611   1.626   1.658
  100SOL    HW1 1043   1.602   1.662   1.570
  100SOL    HW2 1044   1.694   1.578   1.657
  101SOL     OW 1045   1.136   1.211   1.102
  101SOL    HW1 1046   1.075   1.249   1.166
  101SOL    HW2 1047   1.106   1.245   1.018
  102SOL     OW 1048   1.623   1.095   1.075
  102SOL    HW1 1049   1.616   1.159   1.146
  102SOL    HW2 1050   1.547   1.114   1.019
  103SOL     OW 1051   0.895   0.139   1.381
  103SOL    HW1 1052   0.919   0.091   1.302
  103SOL    HW2 1053   0.978   0.161   1.422
  104SOL     OW 1054   0.984   1.115   1.724
  104SOL    HW1 1055   0.893   1.131   1.749
  104SOL    HW2 1056   0.980   1.036   1.670
  105SOL     OW 1057   0.712   1.059   0.377
  105SOL    HW1 1058   0.701   1.039   0.470
  105SOL    HW2 1059   0.786   1.004   0.350
  106SOL     OW 1060   0.431   0.831   1.249
  106SOL    HW1 1061   0.499   0.842   1.316
  106SOL    HW2 1062   0.378   0.758   1.281
  107SOL     OW 1063   1.268   0.373   1.277
  107SOL    HW1 1064   1.300   0.452   1.320
  107SOL    HW2 1065   1.179   0.395   1.251
  108SOL     OW 1066   0.066   1.572   1.351
  108SOL    HW1 1067   0.043   1.663   1.331
  108SOL    HW2 1068   0.162   1.572   1.353
  109SOL     OW 1069   0.332   1.127   0.500
  109SOL    HW1 1070   0.336   1.203   0.442
  109SOL    HW2 1071   0.325   1.052   0.441
  110SOL     OW 1072   0.560   0.513   0.849
  110SOL    HW1 1073   0.570   0.576   0.777
  110SOL    HW2 1074   0.622   0.543   0.915
  111SOL     OW 1075   1.245   1.346   0.401
  111SOL    HW1 1076   1.300   1.419   0.429
  111SOL    HW2 1077   1.157   1.369   0.431
  112SOL     OW 1078   1.289   1.461   1.148
  112SOL    HW1 1079   1.345   1.466   1.226
  112SOL    HW2 1080   1.234   1.384   1.163
  113SOL     OW 1081   1.581   0.626   0.479
  113SOL    HW1 1082   1.529   0.659   0.553
  113SOL    HW2 1083   1.608   0.705   0.432
  114SOL     OW 1084   0.345   1.534   1.309
  114SOL    HW1 1085   0.333   1.486   1.227
  114SOL    HW2 1086   0.440   1.544   1.317
  115SOL     OW 1087   0.501   0.754   1.679
  115SOL    HW1 1088   0.534   0.797   1.599
  115SOL    HW2 1089   0.566   0.685   1.697
  116SOL     OW 1090   1.608   0.781   1.686
  116SOL    HW1 1091   1.523   0.823   1.680
  116SOL    HW2 1092   1.661   0.823   1.618
  117SOL     OW 1093   0.991   0.093   1.709
  117SOL    HW1 1094   1.042   0.166   1.675
  117SOL    HW2 1095   1.014   0.019   1.653
  118SOL     OW 1096   0.495   0.040   1.755
  118SOL    HW1 1097   0.483   4.494   1.672
  118SOL    HW2 1098   0.431   0.111   1.753
  119SOL     OW 1099   0.591   0.877   1.026
  119SOL    HW1 1100   0.627   0.966   1.030
  119SOL    HW2 1101   0.536   0.870   1.104
  120SOL     OW 1102   1.346   0.858   1.020
  120SOL    HW1 1103   1.259   0.842   0.983
  120SOL    HW2 1104   1.392   0.775   1.009
  121SOL     OW 1105   1.192   0.532   0.261
  121SOL    HW1 1106   1.203   0.455   0.317
  121SOL    HW2 1107   1.151   0.598   0.318
  122SOL     OW 1108   0.282   0.211   1.234
  122SOL    HW1 1109   0.239   0.230   1.317
  122SOL    HW2 1110   0.331   0.130   1.250
  123SOL     OW 1111   0.013   1.311   1.289
  123SOL    HW1 1112   0.059   1.262   1.357
  123SOL    HW2 1113   0.027   1.403   1.312
  124SOL     OW 1114   0.719   0.627   1.048
  124SOL    HW1 1115   0.797   0.612   0.995
  124SOL    HW2 1116   0.693   0.717   1.027
  125SOL     OW 1117   1.740   0.958   1.860
  125SOL    HW1 1118   1.696   0.893   1.806
  125SOL    HW2 1119   1.678   0.977   1.930
  126SOL     OW 1120   0.321   0.069   0.623
  126SOL    HW1 1121   0.300   0.158   0.650
  126SOL    HW2 1122   0.311   0.017   0.703
  127SOL     OW 1123   1.631   0.390   0.346
  127SOL    HW1 1124   1.650   0.320   0.409
  127SOL    HW2 1125   1.602   0.463   0.401
  128SOL     OW 1126   1.034   0.766   0.959
  128SOL    HW1 1127   1.024   0.781   1.053
  128SOL    HW2 1128   1.003   0.676   0.945
  129SOL     OW 1129   0.982   1.567   1.722
  129SOL    HW1 1130   0.966   1.610   1.638
  129SOL    HW2 1131   1.025   1.484   1.698
  130SOL     OW 1132   1.853   1.498   1.604
  130SOL    HW1 1133   1.869   1.530   1.515
  130SOL    HW2 1134   1.935   1.516   1.651
  131SOL     OW 1135   0.348   0.936   1.817
  131SOL    HW1 1136   0.417   0.969   1.875
  131SOL    HW2 1137   0.391   0.867   1.766
  132SOL     OW 1138   1.515   0.301   0.103
  132SOL    HW1 1139   1.471   0.220   0.129
  132SOL    HW2 1140   1.563   0.328   0.182
  133SOL     OW 1141   1.284   0.814   0.033
  133SOL    HW1 1142   1.328   0.730   0.041
  133SOL    HW2 1143   1.324   0.855  11.057
  134SOL     OW 1144   1.069   1.339   0.857
  134SOL    HW1 1145   1.074   1.267   0.793
  134SOL    HW2 1146   1.127   1.406   0.821
  135SOL     OW 1147   0.321   0.814   0.941
  135SOL    HW1 1148   0.415   0.832   0.943
  135SOL    HW2 1149   0.314   0.721   0.964
  136SOL     OW 1150   0.327   0.534   0.982
  136SOL    HW1 1151   0.282   0.451   0.966
  136SOL    HW2 1152   0.407   0.528   0.928
  137SOL     OW 1153   1.140   0.368   1.706
  137SOL    HW1 1154   1.086   0.430   1.755
  137SOL    HW2 1155   1.222   0.415   1.691
  138SOL     OW 1156   1.147   0.217   1.475
  138SOL    HW1 1157   1.147   0.281   1.547
  138SOL    HW2 1158   1.195   0.261   1.404
  139SOL     OW 1159   0.002   1.324   0.213
  139SOL    HW1 1160   4.409   1.344   0.202
  139SOL    HW2 1161   0.004   1.231   0.239
  140SOL     OW 1162   0.104   1.765   0.940
  140SOL    HW1 1163   0.063   1.726   0.863
  140SOL    HW2 1164   0.191   1.790   0.911
  141SOL     OW 1165   0.492   1.575   0.907
  141SOL    HW1 1166   0.561   1.638   0.931
  141SOL    HW2 1167   0.536   1.513   0.848
  142SOL     OW 1168   0.974   0.791   1.223
  142SOL    HW1 1169   1.034   0.772   1.296
  142SOL    HW2 1170   0.893   0.746   1.247
  143SOL     OW 1171   0.022   0.561   1.095
  143SOL    HW1 1172   0.109   0.533   1.066
  143SOL    HW2 1173   4.494   0.493   1.156
  144SOL     OW 1174   0.178   0.539   1.717
  144SOL    HW1 1175   0.268   0.525   1.687
  144SOL    HW2 1176   0.147   0.615   1.667
  145SOL     OW 1177   1.381   0.933   1.656
  145SOL    HW1 1178   1.403   1.026   1.652
  145SOL    HW2 1179   1.377   0.906   1.564
  146SOL     OW 1180   0.813   0.580   0.367
  146SOL    HW1 1181   0.822   0.503   0.311
  146SOL    HW2 1182   0.739   0.628   0.330
  147SOL     OW 1183   1.636   0.601   1.179
  147SOL    HW1 1184   1.626   0.543   1.254
  147SOL    HW2 1185   1.725   0.584   1.147
  148SOL     OW 1186   0.272   1.563   1.738
  148SOL    HW1 1187   0.209   1.611   1.791
  148SOL    HW2 1188   0.258   1.471   1.762
  149SOL     OW 1189   0.705   0.460   1.260
  149SOL    HW1 1190   0.654   0.383   1.231
  149SOL    HW2 1191   0.702   0.520   1.185
  150SOL     OW 1192   0.921   1.679   1.472
  150SOL    HW1 1193   0.898   1.638   1.388
  150SOL    HW2 1194   0.915   1.773   1.456
  151SOL     OW 1195   0.475   0.479   0.168
  151SOL    HW1 1196   0.531   0.552   0.193
  151SOL    HW2 1197   0.390   0.519   0.148
  152SOL     OW 1198   0.158   1.142   1.456
  152SOL    HW1 1199   0.142   1.098   1.540
  152SOL    HW2 1200   0.166   1.071   1.393
  153SOL     OW 1201   1.320   1.042   1.219
  153SOL    HW1 1202   1.340   0.979   1.150
  153SOL    HW2 1203   1.254   1.100   1.179
  154SOL     OW 1204   1.309   0.849   0.311
  154SOL    HW1 1205   1.233   0.816   0.360
  154SOL    HW2 1206   1.287   0.833   0.220
  155SOL     OW 1207   1.772   1.737   1.154
  155SOL    HW1 1208   1.836   1.767   1.089
  155SOL    HW2 1209   1.752   1.647   1.129
  156SOL     OW 1210   1.239   1.732   1.104
  156SOL    HW1 1211   1.323   1.757   1.065
  156SOL    HW2 1212   1.249   1.640   1.126
  157SOL     OW 1213   0.073   1.188   1.052
  157SOL    HW1 1214   0.053   1.216   1.141
  157SOL    HW2 1215   0.044   1.260   0.997
  158SOL     OW 1216   0.681   1.671   1.740
  158SOL    HW1 1217   0.620   1.744   1.727
  158SOL    HW2 1218   0.749   1.686   1.674
  159SOL     OW 1219   0.877   0.070   0.128
  159SOL    HW1 1220   0.964   0.096   0.097
  159SOL    HW2 1221   0.894   0.003   0.194
  160SOL     OW 1222   1.720   0.135   0.483
  160SOL    HW1 1223   1.788   0.148   0.417
  160SOL    HW2 1224   1.751   0.061   0.536
  161SOL     OW 1225   1.393   1.568   0.491
  161SOL    HW1 1226   1.451   1.602   0.424
  161SOL    HW2 1227   1.343   1.644   0.520
  162SOL     OW 1228   0.114   1.807   1.852
  162SOL    HW1 1229   0.074   1.737   1.902
  162SOL    HW2 1230   0.180   1.845   1.911
  163SOL     OW 1231   1.280   0.931   0.674
  163SOL    HW1 1232   1.353   0.869   0.681
  163SOL    HW2 1233   1.314   1.002   0.619
  164SOL     OW 1234   0.804   1.278   1.424
  164SOL    HW1 1235   0.777   1.319   1.506
  164SOL    HW2 1236   0.733   1.297   1.363
  165SOL     OW 1237   0.675   1.625   0.171
  165SOL    HW1 1238   0.701   1.627   0.079
  165SOL    HW2 1239   0.617   1.549   0.178
  166SOL     OW 1240   1.614   1.725   1.391
  166SOL    HW1 1241   1.669   1.731   1.312
  166SOL    HW2 1242   1.603   1.816   1.419
  167SOL     OW 1243   1.840   0.150   0.965
  167SOL    HW1 1244   1.869   0.070   0.921
  167SOL    HW2 1245   1.754   0.167   0.928
  168SOL     OW 1246   0.255   0.320   0.713
  168SOL    HW1 1247   0.170   0.355   0.685
  168SOL    HW2 1248   0.246   0.310   0.808
  169SOL     OW 1249   1.224   1.598   0.057
  169SOL    HW1 1250   1.212   1.505   0.076
  169SOL    HW2 1251   1.161   1.616  11.088
  170SOL     OW 1252   0.826   1.008   1.375
  170SOL    HW1 1253   0.868   1.002   1.290
  170SOL    HW2 1254   0.821   1.103   1.392
  171SOL     OW 1255   0.912   0.904   0.278
  171SOL    HW1 1256   0.977   0.946   0.221
  171SOL    HW2 1257   0.964   0.844   0.333
  172SOL     OW 1258   1.498   1.622   0.054
  172SOL    HW1 1259   1.402   1.614   0.053
  172SOL    HW2 1260   1.521   1.638  11.062
  173SOL     OW 1261   0.371   1.311   1.491
  173SOL    HW1 1262   0.355   1.389   1.439
  173SOL    HW2 1263   0.297   1.253   1.472
  174SOL     OW 1264   1.607   1.285   1.277
  174SOL    HW1 1265   1.669   1.271   1.348
  174SOL    HW2 1266   1.547   1.352   1.311
  175SOL     OW 1267   1.061   1.110   0.710
  175SOL    HW1 1268   0.989   1.060   0.748
  175SOL    HW2 1269   1.127   1.045   0.686
  176SOL     OW 1270   1.004   0.247   1.013
  176SOL    HW1 1271   1.008   0.231   0.918
  176SOL    HW2 1272   0.992   0.160   1.051
  177SOL     OW 1273   0.605   1.488   0.482
  177SOL    HW1 1274   0.650   1.438   0.413
  177SOL    HW2 1275   0.529   1.526   0.437
  178SOL     OW 1276   1.726   0.394   1.374
  178SOL    HW1 1277   1.801   0.454   1.375
  178SOL    HW2 1278   1.753   0.323   1.317
  179SOL     OW 1279   0.269   1.323   0.285
  179SOL    HW1 1280   0.181   1.328   0.247
  179SOL    HW2 1281   0.261   1.367   0.370
  180SOL     OW 1282   0.115   1.001   1.693
  180SOL    HW1 1283   0.054   1.052   1.746
  180SOL    HW2 1284   0.195   0.998   1.745
  181SOL     OW 1285   0.660   0.214   1.501
  181SOL    HW1 1286   0.738   0.187   1.453
  181SOL    HW2 1287   0.690   0.230   1.590
  182SOL     OW 1288   0.051   0.340   0.027
  182SOL    HW1 1289   4.462   0.313   0.049
  182SOL    HW2 1290   0.057   0.431   0.056
  183SOL     OW 1291   1.425   0.857   1.396
  183SOL    HW1 1292   1.375   0.918   1.342
  183SOL    HW2 1293   1.513   0.860   1.360
  184SOL     OW 1294   0.081   0.173   0.283
  184SOL    HW1 1295   0.085   0.263   0.251
  184SOL    HW2 1296   0.162   0.133   0.251
  185SOL     OW 1297   1.189   1.334   0.124
  185SOL    HW1 1298   1.094   1.322   0.113
  185SOL    HW2 1299   1.203   1.325   0.218
  186SOL     OW 1300   0.628   0.830   1.438
  186SOL    HW1 1301   0.683   0.906   1.421
  186SOL    HW2 1302   0.689   0.756   1.441
  187SOL     OW 1303   1.483   1.786   0.984
  187SOL    HW1 1304   1.501   1.852   0.917
  187SOL    HW2 1305   1.569   1.764   1.020
  188SOL     OW 1306   0.710   0.564   1.706
  188SOL    HW1 1307   0.763   0.621   1.762
  188SOL    HW2 1308   0.733   0.475   1.735
  189SOL     OW 1309   1.474   1.194   1.628
  189SOL    HW1 1310   1.462   1.210   1.722
  189SOL    HW2 1311   1.566   1.214   1.612
  190SOL     OW 1312   0.372   1.749   1.566
  190SOL    HW1 1313   0.288   1.790   1.547
  190SOL    HW2 1314   0.350   1.670   1.615
  191SOL     OW 1315   1.664   0.880   1.255
  191SOL    HW1 1316   1.658   0.795   1.210
  191SOL    HW2 1317   1.654   0.944   1.184
  192SOL     OW 1318   1.220   0.332   0.446
  192SOL    HW1 1319   1.291   0.270   0.431
  192SOL    HW2 1320   1.247   0.380   0.525
  193SOL     OW 1321   0.578   0.733   0.676
  193SOL    HW1 1322   0.622   0.817   0.664
  193SOL    HW2 1323   0.515   0.728   0.604
  194SOL     OW 1324   1.755   0.373   1.644
  194SOL    HW1 1325   1.741   0.386   1.550
  194SOL    HW2 1326   1.679   0.322   1.673
  195SOL     OW 1327   1.749   0.933   1.511
  195SOL    HW1 1328   1.739   1.027   1.524
  195SOL    HW2 1329   1.731   0.920   1.418
  196SOL     OW 1330   0.916   1.354   0.082
  196SOL    HW1 1331   0.850   1.347   0.152
  196SOL    HW2 1332   0.890   1.432   0.032
  197SOL     OW 1333   0.665   1.784   0.939
  197SOL    HW1 1334   0.646   1.876   0.918
  197SOL    HW2 1335   0.760   1.776   0.931
  198SOL     OW 1336   0.870   0.971   0.853
  198SOL    HW1 1337   0.922   0.899   0.890
  198SOL    HW2 1338   0.831   1.014   0.929
  199SOL     OW 1339   1.076   0.986   0.081
  199SOL    HW1 1340   1.048   1.013  11.093
  199SOL    HW2 1341   1.152   0.930   0.066
  200SOL     OW 1342   1.845   1.546   0.837
  200SOL    HW1 1343   1.763   1.538   0.790
  200SOL    HW2 1344   1.832   1.493   0.916
  201SOL     OW 1345   0.234   1.303   1.862
  201SOL    HW1 1346   0.146   1.268   1.847
  201SOL    HW2 1347   0.240   1.314   1.957
  202SOL     OW 1348   0.120   1.214   0.670
  202SOL    HW1 1349   0.151   1.179   0.754
  202SOL    HW2 1350   0.185   1.184   0.607
  203SOL     OW 1351   0.687   1.408   1.632
  203SOL    HW1 1352   0.607   1.365   1.663
  203SOL    HW2 1353   0.682   1.496   1.669
  204SOL     OW 1354   1.800   0.175   1.237
  204SOL    HW1 1355   1.794   0.081   1.256
  204SOL    HW2 1356   1.820   0.179   1.144
  205SOL     OW 1357   0.440   0.432   0.533
  205SOL    HW1 1358   0.460   0.362   0.471
  205SOL    HW2 1359   0.382   0.392   0.598
  206SOL     OW 1360   1.702   1.482   1.084
  206SOL    HW1 1361   1.619   1.463   1.039
  206SOL    HW2 1362   1.707   1.416   1.153
  207SOL     OW 1363   0.307   0.512   1.250
  207SOL    HW1 1364   0.376   0.456   1.285
  207SOL    HW2 1365   0.328   0.521   1.157
  208SOL     OW 1366   0.831   1.578   0.676
  208SOL    HW1 1367   0.808   1.642   0.608
  208SOL    HW2 1368   0.756   1.518   0.679
  209SOL     OW 1369   1.429   0.219   1.115
  209SOL    HW1 1370   1.465   0.147   1.167
  209SOL    HW2 1371   1.379   0.271   1.177
  210SOL     OW 1372   0.995   4.500   1.157
  210SOL    HW1 1373   0.958   4.412   1.149
  210SOL    HW2 1374   1.089   4.486   1.163
  211SOL     OW 1375   0.774   1.326   0.324
  211SOL    HW1 1376   0.748   1.236   0.340
  211SOL    HW2 1377   0.855   1.337   0.374
  212SOL     OW 1378   0.621   1.556   1.288
  212SOL    HW1 1379   0.621   1.638   1.337
  212SOL    HW2 1380   0.709   1.550   1.251
  213SOL     OW 1381   1.367   0.056   0.172
  213SOL    HW1 1382   1.397   4.478   0.125
  213SOL    HW2 1383   1.275   0.037   0.193
  214SOL     OW 1384   1.316   0.467   0.670
  214SOL    HW1 1385   1.261   0.545   0.672
  214SOL    HW2 1386   1.303   0.426   0.756
  215SOL     OW 1387   1.587   0.197   0.872
  215SOL    HW1 1388   1.528   0.214   0.946
  215SOL    HW2 1389   1.587   0.280   0.823
  216SOL     OW 1390   0.034   1.055   0.289
  216SOL    HW1 1391   0.127   1.031   0.285
  216SOL    HW2 1392   0.008   1.033   0.378
  217SOL     OW 1393   0.890   1.661   0.346
  217SOL    HW1 1394   0.815   1.643   0.290
  217SOL    HW2 1395   0.861   1.733   0.403
  218SOL     OW 1396   0.242   0.630   1.989
  218SOL    HW1 1397   0.168   0.600   2.042
  218SOL    HW2 1398   0.211   0.620   1.899
  219SOL     OW 1399   0.191   0.298   2.849
  219SOL    HW1 1400   0.219   0.264   2.934
  219SOL    HW2 1401   0.131   0.231   2.815
  220SOL     OW 1402   4.497   0.397   2.497
  220SOL    HW1 1403   4.423   0.433   2.545
  220SOL    HW2 1404   4.461   0.324   2.448
  221SOL     OW 1405   0.569   1.298   3.046
  221SOL    HW1 1406   0.483   1.303   3.005
  221SOL    HW2 1407   0.585   1.386   3.080
  222SOL     OW 1408   1.568   1.508   2.573
  222SOL    HW1 1409   1.525   1.486   2.656
  222SOL    HW2 1410   1.496   1.513   2.509
  223SOL     OW 1411   1.142   0.696   2.553
  223SOL    HW1 1412   1.185   0.781   2.545
  223SOL    HW2 1413   1.090   0.703   2.633
  224SOL     OW 1414   1.780   0.599   2.085
  224SOL    HW1 1415   1.752   0.594   1.994
  224SOL    HW2 1416   1.741   0.523   2.127
  225SOL     OW 1417   0.744   1.136   2.908
  225SOL    HW1 1418   0.678   1.175   2.967
  225SOL    HW2 1419   0.784   1.212   2.865
  226SOL     OW 1420   0.872   0.762   3.684
  226SOL    HW1 1421   0.858   0.831   3.748
  226SOL    HW2 1422   0.896   0.808   3.604
  227SOL     OW 1423   0.683   0.996   2.507
  227SOL    HW1 1424   0.751   0.989   2.574
  227SOL    HW2 1425   0.616   1.051   2.547
  228SOL     OW 1426   0.714   1.148   3.683
  228SOL    HW1 1427   0.762   1.226   3.713
  228SOL    HW2 1428   0.635   1.183   3.642
  229SOL     OW 1429   0.333   1.417   2.929
  229SOL    HW1 1430   0.253   1.394   2.882
  229SOL    HW2 1431   0.382   1.472   2.868
  230SOL     OW 1432   1.459   1.502   3.223
  230SOL    HW1 1433   1.514   1.579   3.232
  230SOL    HW2 1434   1.391   1.513   3.290
  231SOL     OW 1435   0.445   0.388   3.339
  231SOL    HW1 1436   0.534   0.353   3.337
  231SOL    HW2 1437   0.393   0.323   3.386
  232SOL     OW 1438   1.605   0.441   2.601
  232SOL    HW1 1439   1.526   0.458   2.550
  232SOL    HW2 1440   1.614   0.517   2.658
  233SOL     OW 1441   0.246   1.691   2.334
  233SOL    HW1 1442   0.228   1.776   2.374
  233SOL    HW2 1443   0.320   1.706   2.276
  234SOL     OW 1444   1.137   1.342   3.557
  234SOL    HW1 1445   1.179   1.335   3.643
  234SOL    HW2 1446   1.085   1.262   3.548
  235SOL     OW 1447   0.260   1.425   2.386
  235SOL    HW1 1448   0.245   1.519   2.389
  235SOL    HW2 1449   0.201   1.389   2.452
  236SOL     OW 1450   0.255   1.084   2.747
  236SOL    HW1 1451   0.270   0.992   2.770
  236SOL    HW2 1452   0.194   1.115   2.813
  237SOL     OW 1453   0.605   1.793   3.290
  237SOL    HW1 1454   0.522   1.775   3.335
  237SOL    HW2 1455   0.627   1.882   3.316
  238SOL     OW 1456   0.568   0.994   2.008
  238SOL    HW1 1457   0.620   1.032   1.937
  238SOL    HW2 1458   0.613   1.023   2.088
  239SOL     OW 1459   1.572   0.121   3.323
  239SOL    HW1 1460   1.616   0.186   3.268
  239SOL    HW2 1461   1.565   0.162   3.409
  240SOL     OW 1462   0.136   0.647   2.433
  240SOL    HW1 1463   0.088   0.568   2.458
  240SOL    HW2 1464   0.110   0.713   2.498
  241SOL     OW 1465   1.844   1.727   2.200
  241SOL    HW1 1466   1.916   1.711   2.260
  241SOL    HW2 1467   1.837   1.822   2.194
  242SOL     OW 1468   0.032   1.606   2.017
  242SOL    HW1 1469   0.015   1.512   2.008
  242SOL    HW2 1470   0.052   1.618   2.110
  243SOL     OW 1471   1.691   0.920   2.507
  243SOL    HW1 1472   1.771   0.876   2.481
  243SOL    HW2 1473   1.667   0.972   2.430
  244SOL     OW 1474   1.650   1.103   2.291
  244SOL    HW1 1475   1.737   1.103   2.250
  244SOL    HW2 1476   1.657   1.167   2.362
  245SOL     OW 1477   0.095   0.769   3.422
  245SOL    HW1 1478   0.181   0.751   3.384
  245SOL    HW2 1479   0.102   0.858   3.458
  246SOL     OW 1480   0.616   1.391   2.599
  246SOL    HW1 1481   0.570   1.307   2.608
  246SOL    HW2 1482   0.600   1.418   2.508
  247SOL     OW 1483   1.285   1.235   3.283
  247SOL    HW1 1484   1.316   1.167   3.223
  247SOL    HW2 1485   1.345   1.230   3.357
  248SOL     OW 1486   0.831   0.021   2.423
  248SOL    HW1 1487   0.867   0.105   2.394
  248SOL    HW2 1488   0.737   0.029   2.408
  249SOL     OW 1489   0.176   0.942   3.139
  249SOL    HW1 1490   0.267   0.917   3.121
  249SOL    HW2 1491   0.132   0.936   3.054
  250SOL     OW 1492   1.531   0.999   2.062
  250SOL    HW1 1493   1.462   0.942   2.095
  250SOL    HW2 1494   1.574   1.033   2.141
  251SOL     OW 1495   1.184   1.813   3.488
  251SOL    HW1 1496   1.190   1.874   3.414
  251SOL    HW2 1497   1.202   1.727   3.450
  252SOL     OW 1498   0.318   0.262   3.624
  252SOL    HW1 1499   0.384   0.310   3.673
  252SOL    HW2 1500   0.239   0.269   3.678
  253SOL     OW 1501   1.466   1.417   2.810
  253SOL    HW1 1502   1.400   1.434   2.877
  253SOL    HW2 1503   1.452   1.326   2.785
  254SOL     OW 1504   1.655   1.738   2.447
  254SOL    HW1 1505   1.637   1.707   2.358
  254SOL    HW2 1506   1.632   1.663   2.502
  255SOL     OW 1507   0.594   0.722   2.131
  255SOL    HW1 1508   0.592   0.806   2.087
  255SOL    HW2 1509   0.527   0.729   2.200
  256SOL     OW 1510   1.294   0.377   2.792
  256SOL    HW1 1511   1.206   0.346   2.773
  256SOL    HW2 1512   1.329   0.312   2.853
  257SOL     OW 1513   1.573   1.668   2.173
  257SOL    HW1 1514   1.667   1.681   2.166
  257SOL    HW2 1515   1.544   1.654   2.083
  258SOL     OW 1516   0.799   0.618   3.315
  258SOL    HW1 1517   0.769   0.589   3.402
  258SOL    HW2 1518   0.763   0.553   3.255
  259SOL     OW 1519   1.388   0.483   3.538
  259SOL    HW1 1520   1.393   0.528   3.623
  259SOL    HW2 1521   1.455   0.415   3.543
  260SOL     OW 1522   0.950   0.885   3.448
  260SOL    HW1 1523   1.005   0.817   3.410
  260SOL    HW2 1524   0.903   0.923   3.374
  261SOL     OW 1525   0.999   0.418   3.093
  261SOL    HW1 1526   0.909   0.422   3.124
  261SOL    HW2 1527   0.995   0.362   3.015
  262SOL     OW 1528   1.053   0.699   2.286
  262SOL    HW1 1529   1.072   0.690   2.379
  262SOL    HW2 1530   0.968   0.655   2.275
  263SOL     OW 1531   0.090   0.827   2.648
  263SOL    HW1 1532   0.176   0.821   2.690
  263SOL    HW2 1533   0.027   0.827   2.721
  264SOL     OW 1534   0.116   1.871   3.446
  264SOL    HW1 1535   0.113   1.845   3.538
  264SOL    HW2 1536   0.046   1.820   3.404
  265SOL     OW 1537   0.856   0.372   2.052
  265SOL    HW1 1538   0.920   0.406   1.989
  265SOL    HW2 1539   0.869   0.278   2.051
  266SOL     OW 1540   1.699   0.569   3.692
  266SOL    HW1 1541   1.666   0.644   3.643
  266SOL    HW2 1542   1.734   0.510   3.626
  267SOL     OW 1543   1.382   1.143   2.401
  267SOL    HW1 1544   1.461   1.132   2.348
  267SOL    HW2 1545   1.328   1.205   2.352
  268SOL     OW 1546   0.536   0.212   2.761
  268SOL    HW1 1547   0.557   0.228   2.853
  268SOL    HW2 1548   0.535   0.299   2.721
  269SOL     OW 1549   0.999   1.443   2.330
  269SOL    HW1 1550   0.969   1.519   2.280
  269SOL    HW2 1551   0.975   1.464   2.420
  270SOL     OW 1552   0.360   1.817   2.724
  270SOL    HW1 1553   0.401   1.732   2.735
  270SOL    HW2 1554   0.429   1.880   2.744
  271SOL     OW 1555   1.801   1.052   2.733
  271SOL    HW1 1556   1.749   1.031   2.656
  271SOL    HW2 1557   1.738   1.058   2.804
  272SOL     OW 1558   1.226   1.540   3.376
  272SOL    HW1 1559   1.215   1.468   3.437
  272SOL    HW2 1560   1.160   1.526   3.308
  273SOL     OW 1561   0.309   0.950   2.125
  273SOL    HW1 1562   0.391   0.976   2.082
  273SOL    HW2 1563   0.299   0.857   2.104
  274SOL     OW 1564   1.483   0.749   2.581
  274SOL    HW1 1565   1.478   0.709   2.668
  274SOL    HW2 1566   1.561   0.805   2.585
  275SOL     OW 1567   0.472   1.266   3.597
  275SOL    HW1 1568   0.446   1.273   3.506
  275SOL    HW2 1569   0.389   1.265   3.646
  276SOL     OW 1570   1.126   1.779   2.090
  276SOL    HW1 1571   1.050   1.740   2.134
  276SOL    HW2 1572   1.150   1.716   2.023
  277SOL     OW 1573   0.154   0.266   3.378
  277SOL    HW1 1574   0.129   0.351   3.342
  277SOL    HW2 1575   0.194   0.286   3.462
  278SOL     OW 1576   1.628   1.381   1.956
  278SOL    HW1 1577   1.588   1.466   1.938
  278SOL    HW2 1578   1.560   1.318   1.933
  279SOL     OW 1579   0.469   1.741   2.175
  279SOL    HW1 1580   0.514   1.795   2.240
  279SOL    HW2 1581   0.539   1.703   2.122
  280SOL     OW 1582   1.431   0.149   2.286
  280SOL    HW1 1583   1.413   0.091   2.212
  280SOL    HW2 1584   1.524   0.136   2.305
  281SOL     OW 1585   0.249   1.785   3.086
  281SOL    HW1 1586   0.296   1.708   3.118
  281SOL    HW2 1587   0.212   1.758   3.002
  282SOL     OW 1588   0.939   1.700   2.758
  282SOL    HW1 1589   1.018   1.651   2.781
  282SOL    HW2 1590   0.899   1.649   2.688
  283SOL     OW 1591   0.397   0.687   2.332
  283SOL    HW1 1592   0.421   0.596   2.349
  283SOL    HW2 1593   0.305   0.693   2.358
  284SOL     OW 1594   1.523   0.233   3.585
  284SOL    HW1 1595   1.523   0.254   3.678
  284SOL    HW2 1596   1.442   0.184   3.571
  285SOL     OW 1597   0.631   0.120   1.981
  285SOL    HW1 1598   0.719   0.085   1.994
  285SOL    HW2 1599   0.600   0.077   1.901
  286SOL     OW 1600   0.770   0.273   3.618
  286SOL    HW1 1601   0.839   0.208   3.612
  286SOL    HW2 1602   0.733   0.261   3.706
  287SOL     OW 1603   0.876   1.524   3.057
  287SOL    HW1 1604   0.858   1.486   2.971
  287SOL    HW2 1605   0.945   1.469   3.093
  288SOL     OW 1606   1.339   0.591   3.289
  288SOL    HW1 1607   1.366   0.563   3.377
  288SOL    HW2 1608   1.374   0.679   3.280
  289SOL     OW 1609   0.819   1.388   2.809
  289SOL    HW1 1610   0.904   1.378   2.766
  289SOL    HW2 1611   0.756   1.396   2.737
  290SOL     OW 1612   0.927   0.527   2.757
  290SOL    HW1 1613   0.909   0.524   2.663
  290SOL    HW2 1614   0.956   0.439   2.779
  291SOL     OW 1615   0.571   0.074   2.369
  291SOL    HW1 1616   0.486   0.059   2.411
  291SOL    HW2 1617   0.552   0.139   2.300
  292SOL     OW 1618   1.428   1.201   1.901
  292SOL    HW1 1619   1.457   1.125   1.953
  292SOL    HW2 1620   1.342   1.223   1.937
  293SOL     OW 1621   0.305   0.067   2.056
  293SOL    HW1 1622   0.388   0.116   2.059
  293SOL    HW2 1623   0.317   4.497   2.120
  294SOL     OW 1624   0.963   0.240   2.323
  294SOL    HW1 1625   0.909   0.309   2.283
  294SOL    HW2 1626   1.052   0.273   2.315
  295SOL     OW 1627   1.081   0.686   3.319
  295SOL    HW1 1628   1.013   0.619   3.317
  295SOL    HW2 1629   1.163   0.638   3.308
  296SOL     OW 1630   1.219   1.573   2.657
  296SOL    HW1 1631   1.233   1.638   2.589
  296SOL    HW2 1632   1.289   1.590   2.721
  297SOL     OW 1633   0.470   1.154   2.592
  297SOL    HW1 1634   0.403   1.134   2.658
  297SOL    HW2 1635   0.426   1.139   2.508
  298SOL     OW 1636   1.262   1.791   2.475
  298SOL    HW1 1637   1.309   1.853   2.419
  298SOL    HW2 1638   1.194   1.844   2.517
  299SOL     OW 1639   1.025   0.538   1.885
  299SOL    HW1 1640   0.979   0.620   1.869
  299SOL    HW2 1641   1.084   0.557   1.958
  300SOL     OW 1642   0.084   0.502   3.268
  300SOL    HW1 1643   0.145   0.512   3.195
  300SOL    HW2 1644   0.050   0.590   3.284
  301SOL     OW 1645   0.554   0.251   3.031
  301SOL    HW1 1646   0.584   0.171   3.074
  301SOL    HW2 1647   0.459   0.252   3.044
  302SOL     OW 1648   0.864   0.505   2.492
  302SOL    HW1 1649   0.830   0.540   2.409
  302SOL    HW2 1650   0.812   0.427   2.508
  303SOL     OW 1651   0.942   0.007   2.674
  303SOL    HW1 1652   0.905   0.014   2.586
  303SOL    HW2 1653   0.963   4.415   2.684
  304SOL     OW 1654   1.439   1.159   2.718
  304SOL    HW1 1655   1.368   1.094   2.720
  304SOL    HW2 1656   1.461   1.167   2.626
  305SOL     OW 1657   1.464   0.610   2.826
  305SOL    HW1 1658   1.407   0.534   2.826
  305SOL    HW2 1659   1.519   0.600   2.904
  306SOL     OW 1660   1.839   0.809   2.249
  306SOL    HW1 1661   1.899   0.761   2.306
  306SOL    HW2 1662   1.816   0.747   2.180
  307SOL     OW 1663   0.493   1.423   2.015
  307SOL    HW1 1664   0.414   1.396   2.062
  307SOL    HW2 1665   0.485   1.382   1.929
  308SOL     OW 1666   1.679   1.264   2.502
  308SOL    HW1 1667   1.773   1.265   2.518
  308SOL    HW2 1668   1.649   1.351   2.526
  309SOL     OW 1669   1.394   0.575   1.931
  309SOL    HW1 1670   1.332   0.557   2.001
  309SOL    HW2 1671   1.480   0.561   1.971
  310SOL     OW 1672   0.515   0.262   2.176
  310SOL    HW1 1673   0.569   0.216   2.113
  310SOL    HW2 1674   0.498   0.347   2.135
  311SOL     OW 1675   1.749   1.241   3.425
  311SOL    HW1 1676   1.837   1.204   3.415
  311SOL    HW2 1677   1.765   1.331   3.454
  312SOL     OW 1678   1.054   1.354   3.194
  312SOL    HW1 1679   0.979   1.322   3.243
  312SOL    HW2 1680   1.129   1.311   3.236
  313SOL     OW 1681   1.612   1.629   3.521
  313SOL    HW1 1682   1.602   1.661   3.432
  313SOL    HW2 1683   1.693   1.577   3.519
  314SOL     OW 1684   1.136   1.211   2.964
  314SOL    HW1 1685   1.075   1.248   3.028
  314SOL    HW2 1686   1.106   1.246   2.880
  315SOL     OW 1687   1.623   1.095   2.937
  315SOL    HW1 1688   1.616   1.158   3.008
  315SOL    HW2 1689   1.547   1.114   2.881
  316SOL     OW 1690   0.895   0.138   3.243
  316SOL    HW1 1691   0.919   0.090   3.164
  316SOL    HW2 1692   0.979   0.160   3.284
  317SOL     OW 1693   0.984   1.115   3.586
  317SOL    HW1 1694   0.893   1.131   3.610
  317SOL    HW2 1695   0.981   1.036   3.531
  318SOL     OW 1696   0.710   1.063   2.235
  318SOL    HW1 1697   0.696   1.042   2.328
  318SOL    HW2 1698   0.785   1.009   2.209
  319SOL     OW 1699   0.431   0.831   3.110
  319SOL    HW1 1700   0.498   0.842   3.178
  319SOL    HW2 1701   0.379   0.756   3.140
  320SOL     OW 1702   1.268   0.373   3.139
  320SOL    HW1 1703   1.300   0.452   3.182
  320SOL    HW2 1704   1.178   0.395   3.113
  321SOL     OW 1705   0.066   1.572   3.213
  321SOL    HW1 1706   0.043   1.663   3.194
  321SOL    HW2 1707   0.162   1.572   3.215
  322SOL     OW 1708   0.332   1.114   2.356
  322SOL    HW1 1709   0.345   1.190   2.299
  322SOL    HW2 1710   0.331   1.039   2.296
  323SOL     OW 1711   0.560   0.513   2.711
  323SOL    HW1 1712   0.570   0.576   2.639
  323SOL    HW2 1713   0.622   0.544   2.778
  324SOL     OW 1714   1.246   1.350   2.253
  324SOL    HW1 1715   1.302   1.421   2.285
  324SOL    HW2 1716   1.159   1.370   2.286
  325SOL     OW 1717   1.289   1.461   3.011
  325SOL    HW1 1718   1.345   1.466   3.088
  325SOL    HW2 1719   1.234   1.384   3.025
  326SOL     OW 1720   1.577   0.623   2.342
  326SOL    HW1 1721   1.528   0.664   2.413
  326SOL    HW2 1722   1.621   0.695   2.298
  327SOL     OW 1723   0.345   1.534   3.171
  327SOL    HW1 1724   0.333   1.486   3.090
  327SOL    HW2 1725   0.440   1.545   3.179
  328SOL     OW 1726   0.502   0.755   3.541
  328SOL    HW1 1727   0.533   0.797   3.461
  328SOL    HW2 1728   0.566   0.685   3.559
  329SOL     OW 1729   1.608   0.781   3.548
  329SOL    HW1 1730   1.522   0.823   3.542
  329SOL    HW2 1731   1.661   0.822   3.480
  330SOL     OW 1732   0.991   0.092   3.572
  330SOL    HW1 1733   1.042   0.166   3.537
  330SOL    HW2 1734   1.014   0.018   3.515
  331SOL     OW 1735   0.495   0.040   3.617
  331SOL    HW1 1736   0.483   4.494   3.534
  331SOL    HW2 1737   0.431   0.111   3.615
  332SOL     OW 1738   0.591   0.877   2.889
  332SOL    HW1 1739   0.626   0.966   2.892
  332SOL    HW2 1740   0.535   0.870   2.966
  333SOL     OW 1741   1.345   0.858   2.882
  333SOL    HW1 1742   1.258   0.842   2.845
  333SOL    HW2 1743   1.392   0.775   2.871
  334SOL     OW 1744   1.196   0.537   2.117
  334SOL    HW1 1745   1.205   0.458   2.170
  334SOL    HW2 1746   1.154   0.601   2.174
  335SOL     OW 1747   0.282   0.211   3.096
  335SOL    HW1 1748   0.238   0.230   3.179
  335SOL    HW2 1749   0.330   0.130   3.112
  336SOL     OW 1750   0.013   1.311   3.152
  336SOL    HW1 1751   0.059   1.262   3.219
  336SOL    HW2 1752   0.027   1.403   3.174
  337SOL     OW 1753   0.718   0.628   2.911
  337SOL    HW1 1754   0.796   0.613   2.857
  337SOL    HW2 1755   0.692   0.718   2.890
  338SOL     OW 1756   1.740   0.958   3.721
  338SOL    HW1 1757   1.695   0.893   3.668
  338SOL    HW2 1758   1.678   0.977   3.793
  339SOL     OW 1759   0.326   0.070   2.486
  339SOL    HW1 1760   0.302   0.159   2.513
  339SOL    HW2 1761   0.313   0.017   2.565
  340SOL     OW 1762   1.624   0.388   2.214
  340SOL    HW1 1763   1.647   0.320   2.278
  340SOL    HW2 1764   1.598   0.463   2.266
  341SOL     OW 1765   1.035   0.766   2.821
  341SOL    HW1 1766   1.024   0.781   2.915
  341SOL    HW2 1767   1.003   0.677   2.807
  342SOL     OW 1768   0.982   1.567   3.584
  342SOL    HW1 1769   0.966   1.610   3.500
  342SOL    HW2 1770   1.025   1.485   3.560
  343SOL     OW 1771   1.852   1.498   3.466
  343SOL    HW1 1772   1.870   1.526   3.377
  343SOL    HW2 1773   1.934   1.513   3.513
  344SOL     OW 1774   0.348   0.936   3.679
  344SOL    HW1 1775   0.417   0.970   3.737
  344SOL    HW2 1776   0.391   0.867   3.628
  345SOL     OW 1777   1.527   0.260   1.989
  345SOL    HW1 1778   1.460   0.202   2.025
  345SOL    HW2 1779   1.560   0.308   2.065
  346SOL     OW 1780   1.286   0.826   1.888
  346SOL    HW1 1781   1.328   0.740   1.892
  346SOL    HW2 1782   1.318   0.865   1.807
  347SOL     OW 1783   1.069   1.339   2.719
  347SOL    HW1 1784   1.075   1.267   2.656
  347SOL    HW2 1785   1.127   1.407   2.683
  348SOL     OW 1786   0.320   0.814   2.802
  348SOL    HW1 1787   0.414   0.832   2.804
  348SOL    HW2 1788   0.313   0.721   2.825
  349SOL     OW 1789   0.327   0.534   2.843
  349SOL    HW1 1790   0.282   0.451   2.828
  349SOL    HW2 1791   0.406   0.528   2.790
  350SOL     OW 1792   1.140   0.368   3.568
  350SOL    HW1 1793   1.086   0.429   3.617
  350SOL    HW2 1794   1.222   0.415   3.553
  351SOL     OW 1795   1.147   0.217   3.337
  351SOL    HW1 1796   1.147   0.280   3.408
  351SOL    HW2 1797   1.195   0.261   3.266
  352SOL     OW 1798   4.491   1.318   2.074
  352SOL    HW1 1799   4.398   1.336   2.055
  352SOL    HW2 1800   4.493   1.225   2.095
  353SOL     OW 1801   0.105   1.765   2.803
  353SOL    HW1 1802   0.064   1.724   2.726
  353SOL    HW2 1803   0.192   1.791   2.773
  354SOL     OW 1804   0.492   1.575   2.769
  354SOL    HW1 1805   0.561   1.637   2.792
  354SOL    HW2 1806   0.536   1.513   2.710
  355SOL     OW 1807   0.974   0.791   3.085
  355SOL    HW1 1808   1.033   0.772   3.158
  355SOL    HW2 1809   0.893   0.746   3.109
  356SOL     OW 1810   0.024   0.562   2.959
  356SOL    HW1 1811   0.109   0.532   2.928
  356SOL    HW2 1812   4.493   0.491   3.016
  357SOL     OW 1813   0.178   0.539   3.579
  357SOL    HW1 1814   0.267   0.524   3.548
  357SOL    HW2 1815   0.147   0.614   3.529
  358SOL     OW 1816   1.381   0.933   3.518
  358SOL    HW1 1817   1.403   1.027   3.514
  358SOL    HW2 1818   1.376   0.906   3.427
  359SOL     OW 1819   0.812   0.577   2.226
  359SOL    HW1 1820   0.817   0.507   2.161
  359SOL    HW2 1821   0.740   0.632   2.195
  360SOL     OW 1822   1.636   0.601   3.041
  360SOL    HW1 1823   1.626   0.543   3.116
  360SOL    HW2 1824   1.725   0.584   3.009
  361SOL     OW 1825   0.273   1.563   3.601
  361SOL    HW1 1826   0.209   1.611   3.653
  361SOL    HW2 1827   0.258   1.471   3.624
  362SOL     OW 1828   0.705   0.460   3.122
  362SOL    HW1 1829   0.655   0.384   3.093
  362SOL    HW2 1830   0.702   0.520   3.047
  363SOL     OW 1831   0.921   1.679   3.334
  363SOL    HW1 1832   0.898   1.638   3.250
  363SOL    HW2 1833   0.915   1.773   3.317
  364SOL     OW 1834   0.471   0.491   2.038
  364SOL    HW1 1835   0.532   0.560   2.063
  364SOL    HW2 1836   0.388   0.537   2.023
  365SOL     OW 1837   0.158   1.143   3.318
  365SOL    HW1 1838   0.143   1.098   3.402
  365SOL    HW2 1839   0.167   1.072   3.255
  366SOL     OW 1840   1.320   1.042   3.081
  366SOL    HW1 1841   1.340   0.979   3.012
  366SOL    HW2 1842   1.254   1.100   3.041
  367SOL     OW 1843   1.318   0.856   2.165
  367SOL    HW1 1844   1.244   0.828   2.218
  367SOL    HW2 1845   1.288   0.844   2.074
  368SOL     OW 1846   1.763   1.733   3.015
  368SOL    HW1 1847   1.832   1.763   2.955
  368SOL    HW2 1848   1.748   1.642   2.990
  369SOL     OW 1849   1.240   1.733   2.966
  369SOL    HW1 1850   1.323   1.757   2.926
  369SOL    HW2 1851   1.250   1.640   2.987
  370SOL     OW 1852   0.073   1.188   2.913
  370SOL    HW1 1853   0.054   1.216   3.003
  370SOL    HW2 1854   0.043   1.261   2.859
  371SOL     OW 1855   0.681   1.672   3.602
  371SOL    HW1 1856   0.619   1.744   3.590
  371SOL    HW2 1857   0.749   1.687   3.536
  372SOL     OW 1858   1.721   0.128   2.343
  372SOL    HW1 1859   1.787   0.144   2.276
  372SOL    HW2 1860   1.758   0.058   2.397
  373SOL     OW 1861   1.390   1.567   2.355
  373SOL    HW1 1862   1.448   1.600   2.286
  373SOL    HW2 1863   1.340   1.643   2.384
  374SOL     OW 1864   0.114   1.808   3.714
  374SOL    HW1 1865   0.074   1.737   3.764
  374SOL    HW2 1866   0.180   1.845   3.773
  375SOL     OW 1867   1.280   0.931   2.534
  375SOL    HW1 1868   1.353   0.870   2.543
  375SOL    HW2 1869   1.314   1.002   2.480
  376SOL     OW 1870   0.804   1.278   3.286
  376SOL    HW1 1871   0.777   1.319   3.368
  376SOL    HW2 1872   0.733   1.297   3.225
  377SOL     OW 1873   0.672   1.627   2.017
  377SOL    HW1 1874   0.684   1.640   1.923
  377SOL    HW2 1875   0.617   1.549   2.023
  378SOL     OW 1876   1.619   1.725   3.254
  378SOL    HW1 1877   1.668   1.730   3.172
  378SOL    HW2 1878   1.604   1.816   3.280
  379SOL     OW 1879   1.840   0.150   2.826
  379SOL    HW1 1880   1.870   0.071   2.781
  379SOL    HW2 1881   1.753   0.167   2.790
  380SOL     OW 1882   0.255   0.321   2.575
  380SOL    HW1 1883   0.170   0.355   2.545
  380SOL    HW2 1884   0.245   0.311   2.670
  381SOL     OW 1885   1.208   1.601   1.895
  381SOL    HW1 1886   1.197   1.510   1.922
  381SOL    HW2 1887   1.142   1.615   1.827
  382SOL     OW 1888   0.826   1.008   3.237
  382SOL    HW1 1889   0.868   1.001   3.152
  382SOL    HW2 1890   0.821   1.102   3.254
  383SOL     OW 1891   0.915   0.910   2.153
  383SOL    HW1 1892   0.976   0.943   2.086
  383SOL    HW2 1893   0.965   0.843   2.199
  384SOL     OW 1894   1.488   1.630   1.906
  384SOL    HW1 1895   1.395   1.619   1.890
  384SOL    HW2 1896   1.527   1.634   1.819
  385SOL     OW 1897   0.372   1.311   3.353
  385SOL    HW1 1898   0.355   1.389   3.301
  385SOL    HW2 1899   0.298   1.253   3.334
  386SOL     OW 1900   1.606   1.284   3.139
  386SOL    HW1 1901   1.670   1.270   3.209
  386SOL    HW2 1902   1.547   1.352   3.173
  387SOL     OW 1903   1.062   1.111   2.572
  387SOL    HW1 1904   0.989   1.061   2.609
  387SOL    HW2 1905   1.126   1.045   2.547
  388SOL     OW 1906   0.997   0.247   2.878
  388SOL    HW1 1907   1.007   0.234   2.783
  388SOL    HW2 1908   0.987   0.159   2.914
  389SOL     OW 1909   0.607   1.488   2.344
  389SOL    HW1 1910   0.655   1.439   2.277
  389SOL    HW2 1911   0.528   1.517   2.299
  390SOL     OW 1912   1.726   0.394   3.237
  390SOL    HW1 1913   1.801   0.455   3.237
  390SOL    HW2 1914   1.753   0.323   3.179
  391SOL     OW 1915   0.253   1.343   2.134
  391SOL    HW1 1916   0.159   1.337   2.123
  391SOL    HW2 1917   0.265   1.376   2.224
  392SOL     OW 1918   0.115   1.001   3.555
  392SOL    HW1 1919   0.054   1.052   3.608
  392SOL    HW2 1920   0.195   0.998   3.607
  393SOL     OW 1921   0.660   0.214   3.363
  393SOL    HW1 1922   0.738   0.186   3.315
  393SOL    HW2 1923   0.690   0.230   3.452
  394SOL     OW 1924   0.076   0.322   1.884
  394SOL    HW1 1925   4.483   0.325   1.908
  394SOL    HW2 1926   0.096   0.410   1.854
  395SOL     OW 1927   1.425   0.857   3.258
  395SOL    HW1 1928   1.375   0.918   3.204
  395SOL    HW2 1929   1.513   0.860   3.223
  396SOL     OW 1930   0.087   0.187   2.163
  396SOL    HW1 1931   0.075   0.266   2.110
  396SOL    HW2 1932   0.167   0.147   2.130
  397SOL     OW 1933   1.178   1.334   1.980
  397SOL    HW1 1934   1.087   1.305   1.981
  397SOL    HW2 1935   1.204   1.335   2.072
  398SOL     OW 1936   0.628   0.829   3.300
  398SOL    HW1 1937   0.683   0.906   3.283
  398SOL    HW2 1938   0.689   0.756   3.302
  399SOL     OW 1939   1.485   1.786   2.847
  399SOL    HW1 1940   1.503   1.854   2.782
  399SOL    HW2 1941   1.570   1.766   2.886
  400SOL     OW 1942   0.710   0.563   3.568
  400SOL    HW1 1943   0.763   0.621   3.624
  400SOL    HW2 1944   0.733   0.475   3.597
  401SOL     OW 1945   1.474   1.194   3.490
  401SOL    HW1 1946   1.463   1.210   3.584
  401SOL    HW2 1947   1.567   1.213   3.474
  402SOL     OW 1948   0.372   1.749   3.428
  402SOL    HW1 1949   0.288   1.790   3.409
  402SOL    HW2 1950   0.350   1.670   3.477
  403SOL     OW 1951   1.664   0.880   3.116
  403SOL    HW1 1952   1.658   0.795   3.072
  403SOL    HW2 1953   1.654   0.944   3.046
  404SOL     OW 1954   1.224   0.335   2.305
  404SOL    HW1 1955   1.293   0.271   2.291
  404SOL    HW2 1956   1.251   0.384   2.383
  405SOL     OW 1957   0.582   0.732   2.538
  405SOL    HW1 1958   0.624   0.817   2.524
  405SOL    HW2 1959   0.519   0.725   2.467
  406SOL     OW 1960   1.755   0.373   3.506
  406SOL    HW1 1961   1.741   0.386   3.413
  406SOL    HW2 1962   1.679   0.322   3.534
  407SOL     OW 1963   1.748   0.933   3.373
  407SOL    HW1 1964   1.739   1.027   3.386
  407SOL    HW2 1965   1.730   0.920   3.280
  408SOL     OW 1966   0.865   1.364   1.906
  408SOL    HW1 1967   0.827   1.392   1.989
  408SOL    HW2 1968   0.879   1.446   1.858
  409SOL     OW 1969   0.664   1.784   2.801
  409SOL    HW1 1970   0.646   1.876   2.780
  409SOL    HW2 1971   0.759   1.776   2.794
  410SOL     OW 1972   0.870   0.972   2.714
  410SOL    HW1 1973   0.922   0.900   2.751
  410SOL    HW2 1974   0.831   1.015   2.790
  411SOL     OW 1975   1.077   0.988   1.952
  411SOL    HW1 1976   1.055   1.040   1.874
  411SOL    HW2 1977   1.151   0.934   1.924
  412SOL     OW 1978   1.843   1.541   2.698
  412SOL    HW1 1979   1.760   1.534   2.651
  412SOL    HW2 1980   1.829   1.489   2.778
  413SOL     OW 1981   0.234   1.303   3.724
  413SOL    HW1 1982   0.146   1.268   3.708
  413SOL    HW2 1983   0.239   1.314   3.819
  414SOL     OW 1984   0.127   1.224   2.530
  414SOL    HW1 1985   0.149   1.186   2.614
  414SOL    HW2 1986   0.183   1.178   2.467
  415SOL     OW 1987   0.687   1.408   3.495
  415SOL    HW1 1988   0.607   1.365   3.525
  415SOL    HW2 1989   0.682   1.496   3.531
  416SOL     OW 1990   1.800   0.175   3.099
  416SOL    HW1 1991   1.795   0.081   3.118
  416SOL    HW2 1992   1.820   0.179   3.005
  417SOL     OW 1993   0.446   0.426   2.398
  417SOL    HW1 1994   0.456   0.358   2.331
  417SOL    HW2 1995   0.382   0.390   2.459
  418SOL     OW 1996   1.703   1.477   2.943
  418SOL    HW1 1997   1.619   1.460   2.900
  418SOL    HW2 1998   1.707   1.412   3.013
  419SOL     OW 1999   0.309   0.513   3.112
  419SOL    HW1 2000   0.377   0.456   3.147
  419SOL    HW2 2001   0.328   0.521   3.019
  420SOL     OW 2002   0.832   1.579   2.537
  420SOL    HW1 2003   0.810   1.643   2.470
  420SOL    HW2 2004   0.757   1.519   2.538
  421SOL     OW 2005   1.429   0.219   2.977
  421SOL    HW1 2006   1.465   0.147   3.029
  421SOL    HW2 2007   1.379   0.271   3.039
  422SOL     OW 2008   0.994   4.498   3.019
  422SOL    HW1 2009   0.959   4.409   3.013
  422SOL    HW2 2010   1.089   4.486   3.024
  423SOL     OW 2011   0.775   1.334   2.183
  423SOL    HW1 2012   0.748   1.242   2.191
  423SOL    HW2 2013   0.856   1.340   2.233
  424SOL     OW 2014   0.621   1.556   3.150
  424SOL    HW1 2015   0.621   1.638   3.199
  424SOL    HW2 2016   0.709   1.550   3.113
  425SOL     OW 2017   1.338   0.050   2.028
  425SOL    HW1 2018   1.375   4.475   1.982
  425SOL    HW2 2019   1.260   0.016   2.071
  426SOL     OW 2020   1.316   0.468   2.531
  426SOL    HW1 2021   1.261   0.546   2.532
  426SOL    HW2 2022   1.305   0.429   2.617
  427SOL     OW 2023   1.586   0.198   2.734
  427SOL    HW1 2024   1.528   0.214   2.808
  427SOL    HW2 2025   1.587   0.281   2.686
  428SOL     OW 2026   0.038   1.049   2.157
  428SOL    HW1 2027   0.129   1.024   2.143
  428SOL    HW2 2028   0.020   1.027   2.249
  429SOL     OW 2029   0.891   1.661   2.199
  429SOL    HW1 2030   0.816   1.645   2.142
  429SOL    HW2 2031   0.863   1.732   2.256
  430SOL     OW 2032   0.242   0.630   3.851
  430SOL    HW1 2033   0.168   0.600   3.904
  430SOL    HW2 2034   0.211   0.620   3.761
  431SOL     OW 2035   0.190   0.298   4.712
  431SOL    HW1 2036   0.218   0.264   4.796
  431SOL    HW2 2037   0.131   0.231   4.677
  432SOL     OW 2038   4.497   0.397   4.358
  432SOL    HW1 2039   4.423   0.433   4.406
  432SOL    HW2 2040   4.461   0.324   4.310
  433SOL     OW 2041   0.570   1.298   4.909
  433SOL    HW1 2042   0.484   1.302   4.868
  433SOL    HW2 2043   0.585   1.386   4.942
  434SOL     OW 2044   1.569   1.502   4.430
  434SOL    HW1 2045   1.520   1.483   4.510
  434SOL    HW2 2046   1.502   1.514   4.363
  435SOL     OW 2047   1.142   0.696   4.415
  435SOL    HW1 2048   1.185   0.782   4.408
  435SOL    HW2 2049   1.090   0.703   4.495
  436SOL     OW 2050   1.780   0.600   3.947
  436SOL    HW1 2051   1.752   0.594   3.856
  436SOL    HW2 2052   1.741   0.522   3.989
  437SOL     OW 2053   0.746   1.137   4.772
  437SOL    HW1 2054   0.680   1.175   4.831
  437SOL    HW2 2055   0.784   1.213   4.727
  438SOL     OW 2056   0.872   0.761   5.546
  438SOL    HW1 2057   0.858   0.830   5.611
  438SOL    HW2 2058   0.896   0.808   5.466
  439SOL     OW 2059   0.684   0.997   4.369
  439SOL    HW1 2060   0.751   0.989   4.437
  439SOL    HW2 2061   0.616   1.051   4.409
  440SOL     OW 2062   0.714   1.148   5.544
  440SOL    HW1 2063   0.761   1.226   5.575
  440SOL    HW2 2064   0.635   1.183   5.503
  441SOL     OW 2065   0.333   1.417   4.791
  441SOL    HW1 2066   0.253   1.394   4.745
  441SOL    HW2 2067   0.382   1.472   4.729
  442SOL     OW 2068   1.466   1.505   5.109
  442SOL    HW1 2069   1.451   1.592   5.070
  442SOL    HW2 2070   1.391   1.491   5.165
  443SOL     OW 2071   0.445   0.388   5.201
  443SOL    HW1 2072   0.534   0.352   5.199
  443SOL    HW2 2073   0.393   0.323   5.248
  444SOL     OW 2074   1.605   0.440   4.462
  444SOL    HW1 2075   1.525   0.457   4.412
  444SOL    HW2 2076   1.615   0.518   4.517
  445SOL     OW 2077   0.245   1.691   4.196
  445SOL    HW1 2078   0.227   1.776   4.236
  445SOL    HW2 2079   0.319   1.706   4.138
  446SOL     OW 2080   1.138   1.342   5.417
  446SOL    HW1 2081   1.179   1.338   5.504
  446SOL    HW2 2082   1.085   1.263   5.411
  447SOL     OW 2083   0.261   1.425   4.248
  447SOL    HW1 2084   0.246   1.519   4.252
  447SOL    HW2 2085   0.202   1.388   4.314
  448SOL     OW 2086   0.256   1.084   4.610
  448SOL    HW1 2087   0.270   0.992   4.632
  448SOL    HW2 2088   0.194   1.115   4.676
  449SOL     OW 2089   0.607   1.792   5.154
  449SOL    HW1 2090   0.523   1.774   5.198
  449SOL    HW2 2091   0.628   1.881   5.179
  450SOL     OW 2092   0.568   0.994   3.870
  450SOL    HW1 2093   0.620   1.031   3.799
  450SOL    HW2 2094   0.613   1.023   3.950
  451SOL     OW 2095   1.572   0.120   5.185
  451SOL    HW1 2096   1.616   0.185   5.130
  451SOL    HW2 2097   1.565   0.163   5.271
  452SOL     OW 2098   0.137   0.648   4.296
  452SOL    HW1 2099   0.088   0.569   4.320
  452SOL    HW2 2100   0.109   0.713   4.361
  453SOL     OW 2101   1.849   1.766   4.064
  453SOL    HW1 2102   1.910   1.735   4.131
  453SOL    HW2 2103   1.894   1.837   4.020
  454SOL     OW 2104   0.032   1.605   3.879
  454SOL    HW1 2105   0.015   1.512   3.870
  454SOL    HW2 2106   0.050   1.618   3.972
  455SOL     OW 2107   1.689   0.918   4.367
  455SOL    HW1 2108   1.772   0.875   4.345
  455SOL    HW2 2109   1.667   0.970   4.290
  456SOL     OW 2110   1.650   1.103   4.152
  456SOL    HW1 2111   1.737   1.104   4.111
  456SOL    HW2 2112   1.658   1.165   4.225
  457SOL     OW 2113   0.095   0.769   5.285
  457SOL    HW1 2114   0.181   0.752   5.247
  457SOL    HW2 2115   0.102   0.858   5.320
  458SOL     OW 2116   0.616   1.390   4.461
  458SOL    HW1 2117   0.570   1.307   4.470
  458SOL    HW2 2118   0.599   1.418   4.371
  459SOL     OW 2119   1.294   1.244   5.139
  459SOL    HW1 2120   1.318   1.171   5.082
  459SOL    HW2 2121   1.347   1.232   5.218
  460SOL     OW 2122   0.831   0.021   4.286
  460SOL    HW1 2123   0.867   0.105   4.256
  460SOL    HW2 2124   0.737   0.029   4.270
  461SOL     OW 2125   0.176   0.942   5.001
  461SOL    HW1 2126   0.267   0.916   4.983
  461SOL    HW2 2127   0.132   0.936   4.917
  462SOL     OW 2128   1.531   0.999   3.924
  462SOL    HW1 2129   1.462   0.942   3.958
  462SOL    HW2 2130   1.574   1.033   4.003
  463SOL     OW 2131   1.174   1.811   5.348
  463SOL    HW1 2132   1.186   1.876   5.278
  463SOL    HW2 2133   1.195   1.727   5.306
  464SOL     OW 2134   0.317   0.262   5.486
  464SOL    HW1 2135   0.384   0.310   5.535
  464SOL    HW2 2136   0.239   0.269   5.540
  465SOL     OW 2137   1.438   1.425   4.656
  465SOL    HW1 2138   1.382   1.434   4.734
  465SOL    HW2 2139   1.435   1.331   4.635
  466SOL     OW 2140   1.647   1.745   4.309
  466SOL    HW1 2141   1.628   1.710   4.221
  466SOL    HW2 2142   1.642   1.668   4.366
  467SOL     OW 2143   0.594   0.722   3.994
  467SOL    HW1 2144   0.591   0.806   3.949
  467SOL    HW2 2145   0.527   0.729   4.062
  468SOL     OW 2146   1.294   0.377   4.654
  468SOL    HW1 2147   1.206   0.346   4.634
  468SOL    HW2 2148   1.329   0.313   4.715
  469SOL     OW 2149   1.579   1.671   4.037
  469SOL    HW1 2150   1.668   1.706   4.029
  469SOL    HW2 2151   1.552   1.655   3.947
  470SOL     OW 2152   0.799   0.618   5.177
  470SOL    HW1 2153   0.770   0.589   5.264
  470SOL    HW2 2154   0.763   0.553   5.117
  471SOL     OW 2155   1.388   0.484   5.400
  471SOL    HW1 2156   1.393   0.528   5.485
  471SOL    HW2 2157   1.455   0.415   5.405
  472SOL     OW 2158   0.951   0.886   5.311
  472SOL    HW1 2159   1.005   0.817   5.272
  472SOL    HW2 2160   0.903   0.923   5.237
  473SOL     OW 2161   0.999   0.418   4.955
  473SOL    HW1 2162   0.909   0.422   4.986
  473SOL    HW2 2163   0.996   0.363   4.877
  474SOL     OW 2164   1.053   0.699   4.148
  474SOL    HW1 2165   1.072   0.690   4.241
  474SOL    HW2 2166   0.968   0.655   4.137
  475SOL     OW 2167   0.089   0.829   4.511
  475SOL    HW1 2168   0.175   0.822   4.553
  475SOL    HW2 2169   0.027   0.827   4.584
  476SOL     OW 2170   0.116   1.871   5.308
  476SOL    HW1 2171   0.113   1.845   5.400
  476SOL    HW2 2172   0.046   1.820   5.266
  477SOL     OW 2173   0.856   0.373   3.915
  477SOL    HW1 2174   0.920   0.406   3.852
  477SOL    HW2 2175   0.869   0.278   3.913
  478SOL     OW 2176   1.699   0.569   5.554
  478SOL    HW1 2177   1.666   0.644   5.504
  478SOL    HW2 2178   1.734   0.509   5.488
  479SOL     OW 2179   1.382   1.143   4.262
  479SOL    HW1 2180   1.461   1.132   4.209
  479SOL    HW2 2181   1.328   1.204   4.212
  480SOL     OW 2182   0.536   0.211   4.623
  480SOL    HW1 2183   0.557   0.227   4.715
  480SOL    HW2 2184   0.535   0.298   4.583
  481SOL     OW 2185   1.000   1.445   4.193
  481SOL    HW1 2186   0.970   1.520   4.141
  481SOL    HW2 2187   0.972   1.466   4.283
  482SOL     OW 2188   0.359   1.817   4.586
  482SOL    HW1 2189   0.400   1.732   4.597
  482SOL    HW2 2190   0.429   1.880   4.606
  483SOL     OW 2191   1.797   1.041   4.599
  483SOL    HW1 2192   1.748   1.027   4.518
  483SOL    HW2 2193   1.731   1.051   4.667
  484SOL     OW 2194   1.223   1.538   5.234
  484SOL    HW1 2195   1.209   1.469   5.299
  484SOL    HW2 2196   1.148   1.530   5.175
  485SOL     OW 2197   0.309   0.950   3.987
  485SOL    HW1 2198   0.391   0.976   3.944
  485SOL    HW2 2199   0.299   0.857   3.965
  486SOL     OW 2200   1.482   0.750   4.444
  486SOL    HW1 2201   1.478   0.709   4.531
  486SOL    HW2 2202   1.561   0.804   4.446
  487SOL     OW 2203   0.472   1.266   5.459
  487SOL    HW1 2204   0.446   1.273   5.367
  487SOL    HW2 2205   0.390   1.265   5.508
  488SOL     OW 2206   1.125   1.778   3.953
  488SOL    HW1 2207   1.048   1.739   3.995
  488SOL    HW2 2208   1.149   1.715   3.885
  489SOL     OW 2209   0.155   0.266   5.240
  489SOL    HW1 2210   0.130   0.351   5.204
  489SOL    HW2 2211   0.194   0.286   5.324
  490SOL     OW 2212   1.627   1.384   3.816
  490SOL    HW1 2213   1.585   1.468   3.799
  490SOL    HW2 2214   1.560   1.319   3.794
  491SOL     OW 2215   0.469   1.741   4.037
  491SOL    HW1 2216   0.514   1.795   4.102
  491SOL    HW2 2217   0.539   1.703   3.984
  492SOL     OW 2218   1.431   0.149   4.148
  492SOL    HW1 2219   1.413   0.091   4.074
  492SOL    HW2 2220   1.523   0.136   4.168
  493SOL     OW 2221   0.249   1.785   4.948
  493SOL    HW1 2222   0.295   1.708   4.979
  493SOL    HW2 2223   0.211   1.758   4.864
  494SOL     OW 2224   0.942   1.697   4.618
  494SOL    HW1 2225   1.024   1.649   4.631
  494SOL    HW2 2226   0.897   1.649   4.549
  495SOL     OW 2227   0.398   0.687   4.195
  495SOL    HW1 2228   0.421   0.596   4.211
  495SOL    HW2 2229   0.306   0.693   4.220
  496SOL     OW 2230   1.523   0.234   5.447
  496SOL    HW1 2231   1.523   0.254   5.540
  496SOL    HW2 2232   1.442   0.184   5.433
  497SOL     OW 2233   0.632   0.120   3.843
  497SOL    HW1 2234   0.720   0.085   3.856
  497SOL    HW2 2235   0.600   0.077   3.763
  498SOL     OW 2236   0.770   0.273   5.480
  498SOL    HW1 2237   0.839   0.208   5.474
  498SOL    HW2 2238   0.733   0.261   5.568
  499SOL     OW 2239   0.877   1.526   4.918
  499SOL    HW1 2240   0.858   1.487   4.833
  499SOL    HW2 2241   0.943   1.469   4.956
  500SOL     OW 2242   1.339   0.591   5.152
  500SOL    HW1 2243   1.366   0.563   5.239
  500SOL    HW2 2244   1.374   0.679   5.143
  501SOL     OW 2245   0.818   1.389   4.671
  501SOL    HW1 2246   0.902   1.377   4.627
  501SOL    HW2 2247   0.754   1.396   4.600
  502SOL     OW 2248   0.927   0.528   4.619
  502SOL    HW1 2249   0.909   0.524   4.525
  502SOL    HW2 2250   0.956   0.439   4.641
  503SOL     OW 2251   0.571   0.075   4.231
  503SOL    HW1 2252   0.487   0.060   4.273
  503SOL    HW2 2253   0.552   0.139   4.162
  504SOL     OW 2254   1.428   1.201   3.763
  504SOL    HW1 2255   1.457   1.126   3.814
  504SOL    HW2 2256   1.342   1.223   3.799
  505SOL     OW 2257   0.305   0.067   3.918
  505SOL    HW1 2258   0.388   0.116   3.921
  505SOL    HW2 2259   0.317   4.497   3.982
  506SOL     OW 2260   0.963   0.241   4.185
  506SOL    HW1 2261   0.909   0.308   4.144
  506SOL    HW2 2262   1.052   0.273   4.177
  507SOL     OW 2263   1.081   0.686   5.180
  507SOL    HW1 2264   1.012   0.620   5.179
  507SOL    HW2 2265   1.162   0.637   5.170
  508SOL     OW 2266   1.211   1.577   4.524
  508SOL    HW1 2267   1.229   1.641   4.455
  508SOL    HW2 2268   1.297   1.554   4.559
  509SOL     OW 2269   0.470   1.154   4.454
  509SOL    HW1 2270   0.403   1.134   4.520
  509SOL    HW2 2271   0.426   1.140   4.370
  510SOL     OW 2272   1.263   1.791   4.338
  510SOL    HW1 2273   1.314   1.852   4.284
  510SOL    HW2 2274   1.194   1.845   4.376
  511SOL     OW 2275   1.025   0.538   3.747
  511SOL    HW1 2276   0.979   0.620   3.730
  511SOL    HW2 2277   1.084   0.557   3.819
  512SOL     OW 2278   0.085   0.502   5.131
  512SOL    HW1 2279   0.144   0.513   5.056
  512SOL    HW2 2280   0.049   0.590   5.145
  513SOL     OW 2281   0.554   0.252   4.893
  513SOL    HW1 2282   0.584   0.171   4.936
  513SOL    HW2 2283   0.460   0.253   4.907
  514SOL     OW 2284   0.864   0.506   4.354
  514SOL    HW1 2285   0.830   0.540   4.271
  514SOL    HW2 2286   0.812   0.427   4.370
  515SOL     OW 2287   0.941   0.007   4.536
  515SOL    HW1 2288   0.905   0.014   4.448
  515SOL    HW2 2289   0.963   4.415   4.546
  516SOL     OW 2290   1.439   1.161   4.580
  516SOL    HW1 2291   1.370   1.095   4.577
  516SOL    HW2 2292   1.470   1.167   4.490
  517SOL     OW 2293   1.464   0.611   4.689
  517SOL    HW1 2294   1.407   0.534   4.688
  517SOL    HW2 2295   1.519   0.600   4.767
  518SOL     OW 2296   1.839   0.811   4.109
  518SOL    HW1 2297   1.899   0.763   4.167
  518SOL    HW2 2298   1.816   0.748   4.041
  519SOL     OW 2299   0.493   1.423   3.877
  519SOL    HW1 2300   0.414   1.396   3.924
  519SOL    HW2 2301   0.485   1.383   3.791
  520SOL     OW 2302   1.679   1.257   4.369
  520SOL    HW1 2303   1.774   1.257   4.382
  520SOL    HW2 2304   1.652   1.347   4.385
  521SOL     OW 2305   1.394   0.575   3.793
  521SOL    HW1 2306   1.332   0.557   3.863
  521SOL    HW2 2307   1.480   0.561   3.833
  522SOL     OW 2308   0.515   0.262   4.038
  522SOL    HW1 2309   0.570   0.216   3.975
  522SOL    HW2 2310   0.498   0.347   3.997
  523SOL     OW 2311   1.746   1.234   5.283
  523SOL    HW1 2312   1.830   1.188   5.294
  523SOL    HW2 2313   1.765   1.325   5.304
  524SOL     OW 2314   1.051   1.355   5.058
  524SOL    HW1 2315   0.976   1.322   5.108
  524SOL    HW2 2316   1.127   1.314   5.100
  525SOL     OW 2317   1.606   1.622   5.381
  525SOL    HW1 2318   1.570   1.610   5.293
  525SOL    HW2 2319   1.684   1.567   5.383
  526SOL     OW 2320   1.138   1.218   4.826
  526SOL    HW1 2321   1.070   1.244   4.887
  526SOL    HW2 2322   1.105   1.245   4.740
  527SOL     OW 2323   1.621   1.096   4.801
  527SOL    HW1 2324   1.612   1.157   4.874
  527SOL    HW2 2325   1.545   1.115   4.745
  528SOL     OW 2326   0.895   0.138   5.105
  528SOL    HW1 2327   0.920   0.090   5.026
  528SOL    HW2 2328   0.979   0.160   5.146
  529SOL     OW 2329   0.984   1.117   5.446
  529SOL    HW1 2330   0.894   1.132   5.472
  529SOL    HW2 2331   0.980   1.037   5.393
  530SOL     OW 2332   0.710   1.064   4.097
  530SOL    HW1 2333   0.696   1.042   4.189
  530SOL    HW2 2334   0.785   1.010   4.071
  531SOL     OW 2335   0.431   0.830   4.972
  531SOL    HW1 2336   0.497   0.840   5.040
  531SOL    HW2 2337   0.379   0.754   5.000
  532SOL     OW 2338   1.268   0.373   5.001
  532SOL    HW1 2339   1.300   0.452   5.044
  532SOL    HW2 2340   1.178   0.395   4.975
  533SOL     OW 2341   0.066   1.572   5.075
  533SOL    HW1 2342   0.042   1.663   5.056
  533SOL    HW2 2343   0.161   1.573   5.077
  534SOL     OW 2344   0.333   1.114   4.218
  534SOL    HW1 2345   0.345   1.190   4.161
  534SOL    HW2 2346   0.331   1.039   4.158
  535SOL     OW 2347   0.561   0.514   4.574
  535SOL    HW1 2348   0.570   0.576   4.502
  535SOL    HW2 2349   0.622   0.544   4.640
  536SOL     OW 2350   1.247   1.350   4.115
  536SOL    HW1 2351   1.302   1.421   4.147
  536SOL    HW2 2352   1.159   1.372   4.148
  537SOL     OW 2353   1.289   1.452   4.881
  537SOL    HW1 2354   1.334   1.437   4.964
  537SOL    HW2 2355   1.227   1.379   4.874
  538SOL     OW 2356   1.577   0.622   4.204
  538SOL    HW1 2357   1.528   0.665   4.274
  538SOL    HW2 2358   1.624   0.694   4.160
  539SOL     OW 2359   0.345   1.535   5.033
  539SOL    HW1 2360   0.333   1.486   4.951
  539SOL    HW2 2361   0.440   1.545   5.041
  540SOL     OW 2362   0.503   0.756   5.404
  540SOL    HW1 2363   0.533   0.797   5.323
  540SOL    HW2 2364   0.565   0.686   5.421
  541SOL     OW 2365   1.609   0.780   5.409
  541SOL    HW1 2366   1.523   0.822   5.404
  541SOL    HW2 2367   1.661   0.822   5.341
  542SOL     OW 2368   0.991   0.092   5.434
  542SOL    HW1 2369   1.042   0.165   5.398
  542SOL    HW2 2370   1.014   0.018   5.377
  543SOL     OW 2371   0.495   0.040   5.479
  543SOL    HW1 2372   0.483   4.494   5.396
  543SOL    HW2 2373   0.431   0.111   5.477
  544SOL     OW 2374   0.591   0.876   4.751
  544SOL    HW1 2375   0.624   0.966   4.755
  544SOL    HW2 2376   0.535   0.869   4.828
  545SOL     OW 2377   1.345   0.858   4.746
  545SOL    HW1 2378   1.259   0.842   4.707
  545SOL    HW2 2379   1.392   0.776   4.735
  546SOL     OW 2380   1.196   0.537   3.979
  546SOL    HW1 2381   1.205   0.458   4.032
  546SOL    HW2 2382   1.154   0.601   4.036
  547SOL     OW 2383   0.282   0.211   4.958
  547SOL    HW1 2384   0.238   0.230   5.041
  547SOL    HW2 2385   0.330   0.130   4.974
  548SOL     OW 2386   0.014   1.311   5.013
  548SOL    HW1 2387   0.060   1.262   5.081
  548SOL    HW2 2388   0.028   1.403   5.037
  549SOL     OW 2389   0.719   0.628   4.773
  549SOL    HW1 2390   0.796   0.613   4.719
  549SOL    HW2 2391   0.692   0.717   4.752
  550SOL     OW 2392   1.740   0.961   5.579
  550SOL    HW1 2393   1.695   0.892   5.530
  550SOL    HW2 2394   1.681   0.979   5.653
  551SOL     OW 2395   0.326   0.070   4.349
  551SOL    HW1 2396   0.302   0.159   4.375
  551SOL    HW2 2397   0.313   0.017   4.427
  552SOL     OW 2398   1.624   0.387   4.076
  552SOL    HW1 2399   1.647   0.320   4.140
  552SOL    HW2 2400   1.598   0.463   4.128
  553SOL     OW 2401   1.035   0.767   4.683
  553SOL    HW1 2402   1.024   0.781   4.777
  553SOL    HW2 2403   1.003   0.678   4.669
  554SOL     OW 2404   0.979   1.566   5.444
  554SOL    HW1 2405   0.965   1.609   5.360
  554SOL    HW2 2406   1.021   1.483   5.421
  555SOL     OW 2407   1.854   1.486   5.321
  555SOL    HW1 2408   1.881   1.560   5.267
  555SOL    HW2 2409   1.910   1.491   5.399
  556SOL     OW 2410   0.348   0.937   5.541
  556SOL    HW1 2411   0.416   0.970   5.600
  556SOL    HW2 2412   0.391   0.868   5.491
  557SOL     OW 2413   1.527   0.260   3.851
  557SOL    HW1 2414   1.460   0.201   3.887
  557SOL    HW2 2415   1.560   0.308   3.927
  558SOL     OW 2416   1.286   0.826   3.751
  558SOL    HW1 2417   1.328   0.740   3.754
  558SOL    HW2 2418   1.318   0.865   3.670
  559SOL     OW 2419   1.068   1.337   4.581
  559SOL    HW1 2420   1.072   1.265   4.518
  559SOL    HW2 2421   1.120   1.407   4.542
  560SOL     OW 2422   0.320   0.813   4.664
  560SOL    HW1 2423   0.414   0.830   4.665
  560SOL    HW2 2424   0.312   0.720   4.687
  561SOL     OW 2425   0.327   0.533   4.705
  561SOL    HW1 2426   0.282   0.451   4.690
  561SOL    HW2 2427   0.406   0.527   4.651
  562SOL     OW 2428   1.140   0.368   5.429
  562SOL    HW1 2429   1.086   0.430   5.479
  562SOL    HW2 2430   1.222   0.415   5.415
  563SOL     OW 2431   1.147   0.217   5.199
  563SOL    HW1 2432   1.147   0.280   5.271
  563SOL    HW2 2433   1.195   0.260   5.128
  564SOL     OW 2434   4.491   1.318   3.936
  564SOL    HW1 2435   4.398   1.336   3.917
  564SOL    HW2 2436   4.493   1.225   3.957
  565SOL     OW 2437   0.105   1.765   4.666
  565SOL    HW1 2438   0.063   1.724   4.590
  565SOL    HW2 2439   0.192   1.790   4.635
  566SOL     OW 2440   0.492   1.575   4.631
  566SOL    HW1 2441   0.561   1.638   4.654
  566SOL    HW2 2442   0.535   1.513   4.572
  567SOL     OW 2443   0.974   0.792   4.947
  567SOL    HW1 2444   1.032   0.771   5.020
  567SOL    HW2 2445   0.892   0.746   4.968
  568SOL     OW 2446   0.025   0.562   4.824
  568SOL    HW1 2447   0.109   0.531   4.790
  568SOL    HW2 2448   4.492   0.490   4.877
  569SOL     OW 2449   0.178   0.539   5.441
  569SOL    HW1 2450   0.267   0.524   5.410
  569SOL    HW2 2451   0.147   0.614   5.391
  570SOL     OW 2452   1.382   0.933   5.381
  570SOL    HW1 2453   1.402   1.026   5.377
  570SOL    HW2 2454   1.377   0.906   5.289
  571SOL     OW 2455   0.812   0.578   4.088
  571SOL    HW1 2456   0.817   0.507   4.024
  571SOL    HW2 2457   0.739   0.632   4.058
  572SOL     OW 2458   1.637   0.602   4.904
  572SOL    HW1 2459   1.627   0.543   4.979
  572SOL    HW2 2460   1.725   0.584   4.871
  573SOL     OW 2461   0.273   1.563   5.462
  573SOL    HW1 2462   0.209   1.612   5.515
  573SOL    HW2 2463   0.259   1.471   5.486
  574SOL     OW 2464   0.706   0.459   4.984
  574SOL    HW1 2465   0.655   0.383   4.956
  574SOL    HW2 2466   0.703   0.519   4.909
  575SOL     OW 2467   0.928   1.675   5.190
  575SOL    HW1 2468   0.897   1.638   5.107
  575SOL    HW2 2469   0.919   1.770   5.179
  576SOL     OW 2470   0.471   0.491   3.900
  576SOL    HW1 2471   0.532   0.560   3.925
  576SOL    HW2 2472   0.388   0.537   3.885
  577SOL     OW 2473   0.159   1.143   5.181
  577SOL    HW1 2474   0.143   1.099   5.264
  577SOL    HW2 2475   0.167   1.072   5.117
  578SOL     OW 2476   1.320   1.045   4.942
  578SOL    HW1 2477   1.339   0.980   4.875
  578SOL    HW2 2478   1.255   1.103   4.902
  579SOL     OW 2479   1.317   0.856   4.027
  579SOL    HW1 2480   1.243   0.827   4.080
  579SOL    HW2 2481   1.288   0.844   3.936
  580SOL     OW 2482   1.241   1.727   4.850
  580SOL    HW1 2483   1.309   1.745   4.785
  580SOL    HW2 2484   1.244   1.632   4.862
  581SOL     OW 2485   0.074   1.188   4.775
  581SOL    HW1 2486   0.054   1.216   4.865
  581SOL    HW2 2487   0.043   1.261   4.721
  582SOL     OW 2488   0.679   1.672   5.465
  582SOL    HW1 2489   0.617   1.744   5.453
  582SOL    HW2 2490   0.747   1.688   5.400
  583SOL     OW 2491   1.722   0.128   4.206
  583SOL    HW1 2492   1.787   0.144   4.138
  583SOL    HW2 2493   1.759   0.058   4.259
  584SOL     OW 2494   1.393   1.567   4.218
  584SOL    HW1 2495   1.451   1.599   4.148
  584SOL    HW2 2496   1.342   1.644   4.245
  585SOL     OW 2497   0.115   1.807   5.576
  585SOL    HW1 2498   0.074   1.736   5.626
  585SOL    HW2 2499   0.180   1.845   5.635
  586SOL     OW 2500   1.280   0.932   4.398
  586SOL    HW1 2501   1.353   0.870   4.406
  586SOL    HW2 2502   1.315   1.002   4.343
  587SOL     OW 2503   0.802   1.277   5.147
  587SOL    HW1 2504   0.776   1.319   5.229
  587SOL    HW2 2505   0.730   1.295   5.087
  588SOL     OW 2506   0.672   1.626   3.879
  588SOL    HW1 2507   0.684   1.640   3.785
  588SOL    HW2 2508   0.616   1.549   3.885
  589SOL     OW 2509   1.840   0.150   4.688
  589SOL    HW1 2510   1.871   0.071   4.643
  589SOL    HW2 2511   1.754   0.167   4.652
  590SOL     OW 2512   0.255   0.321   4.437
  590SOL    HW1 2513   0.170   0.355   4.407
  590SOL    HW2 2514   0.244   0.311   4.532
  591SOL     OW 2515   1.209   1.601   3.757
  591SOL    HW1 2516   1.197   1.510   3.783
  591SOL    HW2 2517   1.143   1.615   3.689
  592SOL     OW 2518   0.825   1.008   5.100
  592SOL    HW1 2519   0.866   1.001   5.014
  592SOL    HW2 2520   0.820   1.102   5.117
  593SOL     OW 2521   0.916   0.911   4.016
  593SOL    HW1 2522   0.976   0.944   3.949
  593SOL    HW2 2523   0.966   0.843   4.061
  594SOL     OW 2524   1.489   1.631   3.769
  594SOL    HW1 2525   1.396   1.620   3.753
  594SOL    HW2 2526   1.528   1.636   3.681
  595SOL     OW 2527   0.372   1.311   5.214
  595SOL    HW1 2528   0.354   1.390   5.163
  595SOL    HW2 2529   0.298   1.253   5.196
  596SOL     OW 2530   1.607   1.282   5.013
  596SOL    HW1 2531   1.665   1.257   5.084
  596SOL    HW2 2532   1.552   1.351   5.050
  597SOL     OW 2533   1.062   1.111   4.435
  597SOL    HW1 2534   0.988   1.060   4.470
  597SOL    HW2 2535   1.126   1.045   4.409
  598SOL     OW 2536   0.997   0.248   4.740
  598SOL    HW1 2537   1.007   0.234   4.645
  598SOL    HW2 2538   0.987   0.159   4.776
  599SOL     OW 2539   0.607   1.488   4.206
  599SOL    HW1 2540   0.655   1.439   4.139
  599SOL    HW2 2541   0.527   1.517   4.162
  600SOL     OW 2542   1.726   0.395   5.098
  600SOL    HW1 2543   1.801   0.454   5.099
  600SOL    HW2 2544   1.753   0.323   5.041
  601SOL     OW 2545   0.253   1.343   3.997
  601SOL    HW1 2546   0.159   1.337   3.985
  601SOL    HW2 2547   0.265   1.376   4.086
  602SOL     OW 2548   0.115   1.002   5.417
  602SOL    HW1 2549   0.054   1.052   5.470
  602SOL    HW2 2550   0.195   0.998   5.470
  603SOL     OW 2551   0.660   0.214   5.225
  603SOL    HW1 2552   0.738   0.186   5.178
  603SOL    HW2 2553   0.691   0.230   5.314
  604SOL     OW 2554   0.076   0.322   3.746
  604SOL    HW1 2555   4.483   0.325   3.769
  604SOL    HW2 2556   0.097   0.410   3.716
  605SOL     OW 2557   1.425   0.859   5.120
  605SOL    HW1 2558   1.375   0.919   5.065
  605SOL    HW2 2559   1.513   0.859   5.083
  606SOL     OW 2560   0.087   0.188   4.026
  606SOL    HW1 2561   0.075   0.266   3.971
  606SOL    HW2 2562   0.167   0.147   3.992
  607SOL     OW 2563   1.178   1.334   3.842
  607SOL    HW1 2564   1.087   1.305   3.842
  607SOL    HW2 2565   1.203   1.335   3.934
  608SOL     OW 2566   0.627   0.829   5.161
  608SOL    HW1 2567   0.682   0.905   5.146
  608SOL    HW2 2568   0.688   0.755   5.164
  609SOL     OW 2569   0.710   0.563   5.430
  609SOL    HW1 2570   0.763   0.620   5.486
  609SOL    HW2 2571   0.733   0.474   5.459
  610SOL     OW 2572   1.472   1.196   5.353
  610SOL    HW1 2573   1.460   1.210   5.447
  610SOL    HW2 2574   1.565   1.211   5.339
  611SOL     OW 2575   0.373   1.748   5.290
  611SOL    HW1 2576   0.289   1.790   5.271
  611SOL    HW2 2577   0.350   1.670   5.339
  612SOL     OW 2578   1.663   0.878   4.979
  612SOL    HW1 2579   1.659   0.792   4.937
  612SOL    HW2 2580   1.654   0.941   4.907
  613SOL     OW 2581   1.224   0.336   4.167
  613SOL    HW1 2582   1.293   0.271   4.153
  613SOL    HW2 2583   1.251   0.384   4.245
  614SOL     OW 2584   0.582   0.733   4.400
  614SOL    HW1 2585   0.624   0.818   4.386
  614SOL    HW2 2586   0.519   0.725   4.329
  615SOL     OW 2587   1.754   0.374   5.368
  615SOL    HW1 2588   1.741   0.386   5.274
  615SOL    HW2 2589   1.679   0.322   5.396
  616SOL     OW 2590   1.751   0.933   5.233
  616SOL    HW1 2591   1.733   1.026   5.245
  616SOL    HW2 2592   1.732   0.916   5.141
  617SOL     OW 2593   0.866   1.365   3.768
  617SOL    HW1 2594   0.826   1.393   3.851
  617SOL    HW2 2595   0.879   1.446   3.719
  618SOL     OW 2596   0.665   1.784   4.662
  618SOL    HW1 2597   0.645   1.876   4.642
  618SOL    HW2 2598   0.760   1.778   4.656
  619SOL     OW 2599   0.870   0.972   4.577
  619SOL    HW1 2600   0.921   0.900   4.613
  619SOL    HW2 2601   0.830   1.014   4.653
  620SOL     OW 2602   1.077   0.989   3.814
  620SOL    HW1 2603   1.055   1.040   3.736
  620SOL    HW2 2604   1.151   0.934   3.786
  621SOL     OW 2605   1.836   1.543   4.524
  621SOL    HW1 2606   1.747   1.516   4.502
  621SOL    HW2 2607   1.874   1.467   4.569
  622SOL     OW 2608   0.234   1.303   5.585
  622SOL    HW1 2609   0.146   1.269   5.570
  622SOL    HW2 2610   0.239   1.313   5.680
  623SOL     OW 2611   0.127   1.226   4.391
  623SOL    HW1 2612   0.147   1.187   4.477
  623SOL    HW2 2613   0.182   1.178   4.330
  624SOL     OW 2614   0.687   1.409   5.356
  624SOL    HW1 2615   0.608   1.365   5.387
  624SOL    HW2 2616   0.682   1.496   5.394
  625SOL     OW 2617   1.799   0.174   4.961
  625SOL    HW1 2618   1.795   0.081   4.980
  625SOL    HW2 2619   1.819   0.179   4.867
  626SOL     OW 2620   0.446   0.426   4.260
  626SOL    HW1 2621   0.456   0.358   4.193
  626SOL    HW2 2622   0.382   0.390   4.321
  627SOL     OW 2623   1.662   1.482   4.824
  627SOL    HW1 2624   1.593   1.462   4.760
  627SOL    HW2 2625   1.662   1.407   4.883
  628SOL     OW 2626   0.310   0.515   4.974
  628SOL    HW1 2627   0.378   0.457   5.008
  628SOL    HW2 2628   0.329   0.522   4.881
  629SOL     OW 2629   0.832   1.579   4.398
  629SOL    HW1 2630   0.810   1.644   4.332
  629SOL    HW2 2631   0.756   1.520   4.399
  630SOL     OW 2632   1.429   0.219   4.838
  630SOL    HW1 2633   1.465   0.147   4.890
  630SOL    HW2 2634   1.378   0.271   4.901
  631SOL     OW 2635   0.994   4.498   4.881
  631SOL    HW1 2636   0.958   4.410   4.874
  631SOL    HW2 2637   1.089   4.486   4.885
  632SOL     OW 2638   0.774   1.334   4.046
  632SOL    HW1 2639   0.747   1.243   4.053
  632SOL    HW2 2640   0.856   1.339   4.095
  633SOL     OW 2641   0.621   1.556   5.012
  633SOL    HW1 2642   0.621   1.637   5.062
  633SOL    HW2 2643   0.708   1.551   4.974
  634SOL     OW 2644   1.338   0.050   3.890
  634SOL    HW1 2645   1.376   4.475   3.844
  634SOL    HW2 2646   1.260   0.015   3.933
  635SOL     OW 2647   1.316   0.469   4.392
  635SOL    HW1 2648   1.261   0.546   4.394
  635SOL    HW2 2649   1.305   0.429   4.479
  636SOL     OW 2650   1.586   0.198   4.596
  636SOL    HW1 2651   1.528   0.214   4.670
  636SOL    HW2 2652   1.587   0.280   4.548
  637SOL     OW 2653   0.037   1.049   4.019
  637SOL    HW1 2654   0.129   1.023   4.006
  637SOL    HW2 2655   0.020   1.027   4.111
  638SOL     OW 2656   0.890   1.660   4.061
  638SOL    HW1 2657   0.815   1.644   4.004
  638SOL    HW2 2658   0.862   1.732   4.118
  639SOL     OW 2659   0.242   0.630   5.713
  639SOL    HW1 2660   0.168   0.600   5.766
  639SOL    HW2 2661   0.212   0.620   5.622
  640SOL     OW 2662   0.191   0.298   6.573
  640SOL    HW1 2663   0.219   0.264   6.658
  640SOL    HW2 2664   0.131   0.231   6.539
  641SOL     OW 2665   4.497   0.397   6.220
  641SOL    HW1 2666   4.423   0.433   6.268
  641SOL    HW2 2667   4.461   0.324   6.171
  642SOL     OW 2668   0.570   1.298   6.770
  642SOL    HW1 2669   0.483   1.303   6.729
  642SOL    HW2 2670   0.585   1.386   6.804
  643SOL     OW 2671   1.578   1.510   6.291
  643SOL    HW1 2672   1.531   1.491   6.373
  643SOL    HW2 2673   1.509   1.523   6.226
  644SOL     OW 2674   1.142   0.696   6.277
  644SOL    HW1 2675   1.185   0.781   6.270
  644SOL    HW2 2676   1.090   0.703   6.357
  645SOL     OW 2677   1.781   0.598   5.809
  645SOL    HW1 2678   1.753   0.593   5.718
  645SOL    HW2 2679   1.741   0.522   5.851
  646SOL     OW 2680   0.744   1.137   6.632
  646SOL    HW1 2681   0.679   1.175   6.691
  646SOL    HW2 2682   0.784   1.212   6.589
  647SOL     OW 2683   0.872   0.762   7.408
  647SOL    HW1 2684   0.858   0.831   7.473
  647SOL    HW2 2685   0.896   0.808   7.328
  648SOL     OW 2686   0.683   0.997   6.231
  648SOL    HW1 2687   0.751   0.989   6.298
  648SOL    HW2 2688   0.616   1.051   6.271
  649SOL     OW 2689   0.714   1.148   7.406
  649SOL    HW1 2690   0.761   1.226   7.437
  649SOL    HW2 2691   0.635   1.183   7.365
  650SOL     OW 2692   0.333   1.417   6.653
  650SOL    HW1 2693   0.253   1.394   6.606
  650SOL    HW2 2694   0.382   1.472   6.592
  651SOL     OW 2695   1.458   1.499   6.950
  651SOL    HW1 2696   1.512   1.577   6.957
  651SOL    HW2 2697   1.389   1.512   7.015
  652SOL     OW 2698   0.445   0.388   7.063
  652SOL    HW1 2699   0.534   0.352   7.061
  652SOL    HW2 2700   0.394   0.323   7.110
  653SOL     OW 2701   1.605   0.441   6.325
  653SOL    HW1 2702   1.525   0.458   6.274
  653SOL    HW2 2703   1.614   0.517   6.381
  654SOL     OW 2704   0.245   1.691   6.058
  654SOL    HW1 2705   0.227   1.776   6.098
  654SOL    HW2 2706   0.319   1.707   5.999
  655SOL     OW 2707   1.137   1.342   7.281
  655SOL    HW1 2708   1.178   1.336   7.367
  655SOL    HW2 2709   1.085   1.263   7.272
  656SOL     OW 2710   0.261   1.425   6.110
  656SOL    HW1 2711   0.245   1.519   6.114
  656SOL    HW2 2712   0.202   1.388   6.176
  657SOL     OW 2713   0.256   1.084   6.472
  657SOL    HW1 2714   0.270   0.992   6.494
  657SOL    HW2 2715   0.194   1.115   6.537
  658SOL     OW 2716   0.605   1.793   7.015
  658SOL    HW1 2717   0.522   1.775   7.059
  658SOL    HW2 2718   0.627   1.882   7.040
  659SOL     OW 2719   0.568   0.994   5.732
  659SOL    HW1 2720   0.620   1.031   5.661
  659SOL    HW2 2721   0.613   1.023   5.812
  660SOL     OW 2722   1.573   0.121   7.047
  660SOL    HW1 2723   1.616   0.187   6.992
  660SOL    HW2 2724   1.565   0.162   7.133
  661SOL     OW 2725   0.136   0.647   6.158
  661SOL    HW1 2726   0.088   0.569   6.182
  661SOL    HW2 2727   0.109   0.713   6.223
  662SOL     OW 2728   0.032   1.605   5.740
  662SOL    HW1 2729   0.015   1.512   5.732
  662SOL    HW2 2730   0.050   1.618   5.834
  663SOL     OW 2731   1.690   0.920   6.231
  663SOL    HW1 2732   1.772   0.877   6.205
  663SOL    HW2 2733   1.667   0.973   6.155
  664SOL     OW 2734   1.649   1.104   6.015
  664SOL    HW1 2735   1.736   1.103   5.975
  664SOL    HW2 2736   1.657   1.168   6.087
  665SOL     OW 2737   0.095   0.769   7.147
  665SOL    HW1 2738   0.181   0.751   7.109
  665SOL    HW2 2739   0.102   0.858   7.182
  666SOL     OW 2740   0.617   1.391   6.323
  666SOL    HW1 2741   0.571   1.307   6.332
  666SOL    HW2 2742   0.600   1.418   6.232
  667SOL     OW 2743   1.284   1.235   7.007
  667SOL    HW1 2744   1.315   1.167   6.947
  667SOL    HW2 2745   1.344   1.230   7.081
  668SOL     OW 2746   0.831   0.021   6.147
  668SOL    HW1 2747   0.867   0.105   6.118
  668SOL    HW2 2748   0.737   0.029   6.132
  669SOL     OW 2749   0.176   0.942   6.863
  669SOL    HW1 2750   0.267   0.917   6.845
  669SOL    HW2 2751   0.132   0.935   6.778
  670SOL     OW 2752   1.532   0.999   5.787
  670SOL    HW1 2753   1.463   0.942   5.820
  670SOL    HW2 2754   1.575   1.033   5.865
  671SOL     OW 2755   1.186   1.814   7.212
  671SOL    HW1 2756   1.189   1.873   7.137
  671SOL    HW2 2757   1.202   1.727   7.175
  672SOL     OW 2758   0.318   0.262   7.348
  672SOL    HW1 2759   0.384   0.310   7.397
  672SOL    HW2 2760   0.239   0.269   7.402
  673SOL     OW 2761   1.462   1.424   6.528
  673SOL    HW1 2762   1.398   1.437   6.599
  673SOL    HW2 2763   1.452   1.332   6.504
  674SOL     OW 2764   0.594   0.722   5.856
  674SOL    HW1 2765   0.591   0.806   5.811
  674SOL    HW2 2766   0.527   0.729   5.924
  675SOL     OW 2767   1.294   0.377   6.516
  675SOL    HW1 2768   1.205   0.346   6.497
  675SOL    HW2 2769   1.329   0.312   6.577
  676SOL     OW 2770   1.542   1.642   5.885
  676SOL    HW1 2771   1.633   1.672   5.875
  676SOL    HW2 2772   1.511   1.630   5.795
  677SOL     OW 2773   0.799   0.618   7.039
  677SOL    HW1 2774   0.769   0.589   7.126
  677SOL    HW2 2775   0.763   0.553   6.979
  678SOL     OW 2776   1.388   0.483   7.262
  678SOL    HW1 2777   1.393   0.528   7.347
  678SOL    HW2 2778   1.455   0.415   7.267
  679SOL     OW 2779   0.950   0.885   7.173
  679SOL    HW1 2780   1.005   0.817   7.134
  679SOL    HW2 2781   0.903   0.923   7.098
  680SOL     OW 2782   0.999   0.418   6.817
  680SOL    HW1 2783   0.909   0.422   6.848
  680SOL    HW2 2784   0.995   0.362   6.739
  681SOL     OW 2785   1.053   0.699   6.010
  681SOL    HW1 2786   1.072   0.690   6.103
  681SOL    HW2 2787   0.968   0.655   5.999
  682SOL     OW 2788   0.089   0.828   6.373
  682SOL    HW1 2789   0.175   0.822   6.414
  682SOL    HW2 2790   0.027   0.827   6.446
  683SOL     OW 2791   0.116   1.871   7.170
  683SOL    HW1 2792   0.113   1.844   7.262
  683SOL    HW2 2793   0.046   1.820   7.128
  684SOL     OW 2794   0.856   0.372   5.776
  684SOL    HW1 2795   0.920   0.406   5.714
  684SOL    HW2 2796   0.868   0.278   5.776
  685SOL     OW 2797   1.699   0.570   7.416
  685SOL    HW1 2798   1.666   0.645   7.367
  685SOL    HW2 2799   1.734   0.510   7.350
  686SOL     OW 2800   1.381   1.141   6.123
  686SOL    HW1 2801   1.462   1.133   6.073
  686SOL    HW2 2802   1.328   1.204   6.074
  687SOL     OW 2803   0.536   0.212   6.485
  687SOL    HW1 2804   0.557   0.227   6.577
  687SOL    HW2 2805   0.535   0.299   6.445
  688SOL     OW 2806   0.999   1.443   6.055
  688SOL    HW1 2807   0.967   1.518   6.005
  688SOL    HW2 2808   0.975   1.462   6.145
  689SOL     OW 2809   0.360   1.817   6.448
  689SOL    HW1 2810   0.400   1.731   6.459
  689SOL    HW2 2811   0.429   1.880   6.468
  690SOL     OW 2812   1.800   1.048   6.462
  690SOL    HW1 2813   1.751   1.032   6.382
  690SOL    HW2 2814   1.734   1.055   6.531
  691SOL     OW 2815   1.226   1.540   7.100
  691SOL    HW1 2816   1.214   1.468   7.162
  691SOL    HW2 2817   1.160   1.526   7.033
  692SOL     OW 2818   0.309   0.950   5.849
  692SOL    HW1 2819   0.391   0.975   5.806
  692SOL    HW2 2820   0.299   0.857   5.828
  693SOL     OW 2821   1.483   0.749   6.305
  693SOL    HW1 2822   1.478   0.710   6.392
  693SOL    HW2 2823   1.561   0.805   6.309
  694SOL     OW 2824   0.472   1.267   7.321
  694SOL    HW1 2825   0.446   1.273   7.229
  694SOL    HW2 2826   0.389   1.265   7.370
  695SOL     OW 2827   1.126   1.766   5.827
  695SOL    HW1 2828   1.046   1.727   5.863
  695SOL    HW2 2829   1.151   1.708   5.756
  696SOL     OW 2830   0.154   0.266   7.102
  696SOL    HW1 2831   0.129   0.351   7.066
  696SOL    HW2 2832   0.194   0.286   7.186
  697SOL     OW 2833   1.641   1.380   5.668
  697SOL    HW1 2834   1.595   1.464   5.663
  697SOL    HW2 2835   1.573   1.314   5.654
  698SOL     OW 2836   0.468   1.741   5.899
  698SOL    HW1 2837   0.514   1.795   5.964
  698SOL    HW2 2838   0.538   1.703   5.846
  699SOL     OW 2839   1.431   0.149   6.009
  699SOL    HW1 2840   1.414   0.091   5.935
  699SOL    HW2 2841   1.524   0.136   6.029
  700SOL     OW 2842   0.249   1.785   6.810
  700SOL    HW1 2843   0.296   1.708   6.842
  700SOL    HW2 2844   0.211   1.758   6.726
  701SOL     OW 2845   0.940   1.701   6.481
  701SOL    HW1 2846   1.020   1.652   6.503
  701SOL    HW2 2847   0.899   1.650   6.412
  702SOL     OW 2848   0.397   0.687   6.056
  702SOL    HW1 2849   0.421   0.596   6.073
  702SOL    HW2 2850   0.305   0.693   6.082
  703SOL     OW 2851   1.523   0.233   7.309
  703SOL    HW1 2852   1.523   0.254   7.402
  703SOL    HW2 2853   1.442   0.184   7.295
  704SOL     OW 2854   0.632   0.120   5.704
  704SOL    HW1 2855   0.720   0.085   5.718
  704SOL    HW2 2856   0.600   0.077   5.625
  705SOL     OW 2857   0.769   0.273   7.342
  705SOL    HW1 2858   0.839   0.208   7.336
  705SOL    HW2 2859   0.733   0.261   7.430
  706SOL     OW 2860   0.876   1.524   6.781
  706SOL    HW1 2861   0.858   1.486   6.695
  706SOL    HW2 2862   0.945   1.470   6.818
  707SOL     OW 2863   1.339   0.590   7.013
  707SOL    HW1 2864   1.367   0.563   7.101
  707SOL    HW2 2865   1.374   0.679   7.004
  708SOL     OW 2866   0.818   1.389   6.534
  708SOL    HW1 2867   0.903   1.377   6.491
  708SOL    HW2 2868   0.755   1.396   6.462
  709SOL     OW 2869   0.927   0.527   6.481
  709SOL    HW1 2870   0.909   0.524   6.387
  709SOL    HW2 2871   0.956   0.439   6.503
  710SOL     OW 2872   0.571   0.075   6.093
  710SOL    HW1 2873   0.486   0.059   6.135
  710SOL    HW2 2874   0.552   0.139   6.024
  711SOL     OW 2875   1.431   1.201   5.625
  711SOL    HW1 2876   1.460   1.126   5.678
  711SOL    HW2 2877   1.347   1.227   5.663
  712SOL     OW 2878   0.305   0.067   5.780
  712SOL    HW1 2879   0.387   0.116   5.783
  712SOL    HW2 2880   0.317   4.497   5.844
  713SOL     OW 2881   0.963   0.240   6.047
  713SOL    HW1 2882   0.909   0.309   6.007
  713SOL    HW2 2883   1.052   0.273   6.039
  714SOL     OW 2884   1.081   0.686   7.043
  714SOL    HW1 2885   1.012   0.619   7.041
  714SOL    HW2 2886   1.163   0.637   7.032
  715SOL     OW 2887   1.214   1.571   6.387
  715SOL    HW1 2888   1.233   1.633   6.316
  715SOL    HW2 2889   1.291   1.574   6.443
  716SOL     OW 2890   0.470   1.154   6.316
  716SOL    HW1 2891   0.403   1.135   6.382
  716SOL    HW2 2892   0.426   1.140   6.232
  717SOL     OW 2893   1.256   1.788   6.202
  717SOL    HW1 2894   1.286   1.850   6.136
  717SOL    HW2 2895   1.186   1.834   6.249
  718SOL     OW 2896   1.025   0.538   5.609
  718SOL    HW1 2897   0.979   0.620   5.593
  718SOL    HW2 2898   1.084   0.557   5.682
  719SOL     OW 2899   0.084   0.502   6.993
  719SOL    HW1 2900   0.145   0.513   6.919
  719SOL    HW2 2901   0.050   0.590   7.008
  720SOL     OW 2902   0.554   0.251   6.755
  720SOL    HW1 2903   0.584   0.171   6.798
  720SOL    HW2 2904   0.459   0.252   6.768
  721SOL     OW 2905   0.864   0.505   6.216
  721SOL    HW1 2906   0.830   0.540   6.133
  721SOL    HW2 2907   0.812   0.427   6.232
  722SOL     OW 2908   0.942   0.007   6.398
  722SOL    HW1 2909   0.905   0.014   6.309
  722SOL    HW2 2910   0.963   4.415   6.408
  723SOL     OW 2911   1.441   1.161   6.443
  723SOL    HW1 2912   1.370   1.097   6.441
  723SOL    HW2 2913   1.468   1.171   6.352
  724SOL     OW 2914   1.464   0.610   6.550
  724SOL    HW1 2915   1.407   0.534   6.550
  724SOL    HW2 2916   1.519   0.600   6.628
  725SOL     OW 2917   1.838   0.807   5.973
  725SOL    HW1 2918   1.899   0.760   6.030
  725SOL    HW2 2919   1.816   0.745   5.904
  726SOL     OW 2920   0.493   1.423   5.739
  726SOL    HW1 2921   0.414   1.396   5.786
  726SOL    HW2 2922   0.484   1.383   5.653
  727SOL     OW 2923   1.679   1.264   6.228
  727SOL    HW1 2924   1.774   1.264   6.239
  727SOL    HW2 2925   1.652   1.353   6.248
  728SOL     OW 2926   1.394   0.575   5.655
  728SOL    HW1 2927   1.331   0.557   5.725
  728SOL    HW2 2928   1.480   0.561   5.696
  729SOL     OW 2929   0.515   0.262   5.900
  729SOL    HW1 2930   0.570   0.216   5.837
  729SOL    HW2 2931   0.498   0.347   5.859
  730SOL     OW 2932   1.749   1.241   7.148
  730SOL    HW1 2933   1.836   1.203   7.138
  730SOL    HW2 2934   1.765   1.331   7.178
  731SOL     OW 2935   1.054   1.355   6.919
  731SOL    HW1 2936   0.978   1.323   6.968
  731SOL    HW2 2937   1.129   1.312   6.960
  732SOL     OW 2938   1.613   1.629   7.247
  732SOL    HW1 2939   1.601   1.660   7.157
  732SOL    HW2 2940   1.693   1.577   7.244
  733SOL     OW 2941   1.136   1.212   6.689
  733SOL    HW1 2942   1.074   1.249   6.752
  733SOL    HW2 2943   1.106   1.245   6.604
  734SOL     OW 2944   1.621   1.094   6.662
  734SOL    HW1 2945   1.613   1.156   6.735
  734SOL    HW2 2946   1.546   1.115   6.606
  735SOL     OW 2947   0.895   0.138   6.967
  735SOL    HW1 2948   0.920   0.090   6.888
  735SOL    HW2 2949   0.979   0.160   7.008
  736SOL     OW 2950   0.984   1.115   7.310
  736SOL    HW1 2951   0.893   1.131   7.335
  736SOL    HW2 2952   0.981   1.036   7.255
  737SOL     OW 2953   0.710   1.064   5.959
  737SOL    HW1 2954   0.696   1.043   6.051
  737SOL    HW2 2955   0.785   1.010   5.933
  738SOL     OW 2956   0.431   0.830   6.834
  738SOL    HW1 2957   0.498   0.841   6.902
  738SOL    HW2 2958   0.379   0.756   6.864
  739SOL     OW 2959   1.268   0.373   6.863
  739SOL    HW1 2960   1.300   0.452   6.906
  739SOL    HW2 2961   1.178   0.395   6.837
  740SOL     OW 2962   0.066   1.572   6.936
  740SOL    HW1 2963   0.042   1.663   6.918
  740SOL    HW2 2964   0.161   1.572   6.939
  741SOL     OW 2965   0.332   1.114   6.080
  741SOL    HW1 2966   0.345   1.189   6.022
  741SOL    HW2 2967   0.331   1.039   6.020
  742SOL     OW 2968   0.561   0.513   6.435
  742SOL    HW1 2969   0.570   0.576   6.363
  742SOL    HW2 2970   0.622   0.544   6.502
  743SOL     OW 2971   1.246   1.349   5.975
  743SOL    HW1 2972   1.303   1.417   6.011
  743SOL    HW2 2973   1.159   1.370   6.009
  744SOL     OW 2974   1.290   1.461   6.735
  744SOL    HW1 2975   1.345   1.464   6.813
  744SOL    HW2 2976   1.235   1.383   6.748
  745SOL     OW 2977   1.577   0.623   6.066
  745SOL    HW1 2978   1.528   0.664   6.137
  745SOL    HW2 2979   1.623   0.695   6.023
  746SOL     OW 2980   0.345   1.535   6.895
  746SOL    HW1 2981   0.333   1.486   6.814
  746SOL    HW2 2982   0.440   1.545   6.903
  747SOL     OW 2983   0.502   0.755   7.265
  747SOL    HW1 2984   0.534   0.797   7.185
  747SOL    HW2 2985   0.566   0.686   7.283
  748SOL     OW 2986   1.609   0.781   7.272
  748SOL    HW1 2987   1.523   0.823   7.266
  748SOL    HW2 2988   1.661   0.822   7.204
  749SOL     OW 2989   0.991   0.093   7.295
  749SOL    HW1 2990   1.042   0.166   7.261
  749SOL    HW2 2991   1.014   0.019   7.239
  750SOL     OW 2992   0.495   0.040   7.341
  750SOL    HW1 2993   0.483   4.494   7.258
  750SOL    HW2 2994   0.431   0.111   7.339
  751SOL     OW 2995   0.590   0.877   6.613
  751SOL    HW1 2996   0.626   0.966   6.616
  751SOL    HW2 2997   0.535   0.870   6.690
  752SOL     OW 2998   1.346   0.857   6.607
  752SOL    HW1 2999   1.259   0.842   6.569
  752SOL    HW2 3000   1.392   0.774   6.595
  753SOL     OW 3001   1.196   0.537   5.841
  753SOL    HW1 3002   1.205   0.458   5.894
  753SOL    HW2 3003   1.154   0.601   5.898
  754SOL     OW 3004   0.282   0.211   6.820
  754SOL    HW1 3005   0.238   0.230   6.903
  754SOL    HW2 3006   0.330   0.130   6.836
  755SOL     OW 3007   0.013   1.311   6.875
  755SOL    HW1 3008   0.060   1.262   6.943
  755SOL    HW2 3009   0.027   1.403   6.898
  756SOL     OW 3010   0.718   0.628   6.635
  756SOL    HW1 3011   0.796   0.613   6.581
  756SOL    HW2 3012   0.692   0.718   6.614
  757SOL     OW 3013   1.740   0.959   7.445
  757SOL    HW1 3014   1.696   0.893   7.392
  757SOL    HW2 3015   1.678   0.976   7.517
  758SOL     OW 3016   0.326   0.070   6.211
  758SOL    HW1 3017   0.302   0.159   6.237
  758SOL    HW2 3018   0.313   0.018   6.289
  759SOL     OW 3019   1.624   0.388   5.937
  759SOL    HW1 3020   1.646   0.321   6.002
  759SOL    HW2 3021   1.598   0.464   5.990
  760SOL     OW 3022   1.035   0.766   6.545
  760SOL    HW1 3023   1.024   0.782   6.639
  760SOL    HW2 3024   1.003   0.677   6.531
  761SOL     OW 3025   0.983   1.568   7.308
  761SOL    HW1 3026   0.966   1.611   7.224
  761SOL    HW2 3027   1.025   1.485   7.285
  762SOL     OW 3028   1.852   1.498   7.192
  762SOL    HW1 3029   1.871   1.524   7.102
  762SOL    HW2 3030   1.934   1.512   7.239
  763SOL     OW 3031   0.348   0.936   7.403
  763SOL    HW1 3032   0.416   0.970   7.461
  763SOL    HW2 3033   0.391   0.868   7.352
  764SOL     OW 3034   1.527   0.260   5.713
  764SOL    HW1 3035   1.460   0.202   5.749
  764SOL    HW2 3036   1.560   0.308   5.789
  765SOL     OW 3037   1.285   0.825   5.612
  765SOL    HW1 3038   1.327   0.739   5.617
  765SOL    HW2 3039   1.318   0.864   5.532
  766SOL     OW 3040   1.067   1.337   6.444
  766SOL    HW1 3041   1.073   1.266   6.380
  766SOL    HW2 3042   1.124   1.406   6.409
  767SOL     OW 3043   0.320   0.813   6.526
  767SOL    HW1 3044   0.414   0.831   6.528
  767SOL    HW2 3045   0.313   0.721   6.549
  768SOL     OW 3046   0.327   0.534   6.567
  768SOL    HW1 3047   0.282   0.451   6.552
  768SOL    HW2 3048   0.406   0.528   6.514
  769SOL     OW 3049   1.140   0.368   7.291
  769SOL    HW1 3050   1.086   0.430   7.341
  769SOL    HW2 3051   1.222   0.415   7.277
  770SOL     OW 3052   1.147   0.217   7.061
  770SOL    HW1 3053   1.147   0.281   7.132
  770SOL    HW2 3054   1.195   0.261   6.990
  771SOL     OW 3055   4.491   1.318   5.798
  771SOL    HW1 3056   4.398   1.336   5.779
  771SOL    HW2 3057   4.494   1.225   5.819
  772SOL     OW 3058   0.105   1.765   6.527
  772SOL    HW1 3059   0.064   1.724   6.451
  772SOL    HW2 3060   0.192   1.790   6.497
  773SOL     OW 3061   0.492   1.575   6.493
  773SOL    HW1 3062   0.561   1.637   6.517
  773SOL    HW2 3063   0.535   1.513   6.434
  774SOL     OW 3064   0.974   0.791   6.809
  774SOL    HW1 3065   1.033   0.772   6.882
  774SOL    HW2 3066   0.893   0.746   6.832
  775SOL     OW 3067   0.024   0.562   6.684
  775SOL    HW1 3068   0.109   0.532   6.652
  775SOL    HW2 3069   4.493   0.491   6.740
  776SOL     OW 3070   0.178   0.539   7.304
  776SOL    HW1 3071   0.267   0.524   7.272
  776SOL    HW2 3072   0.147   0.614   7.253
  777SOL     OW 3073   1.382   0.933   7.242
  777SOL    HW1 3074   1.402   1.027   7.238
  777SOL    HW2 3075   1.376   0.906   7.150
  778SOL     OW 3076   0.812   0.577   5.950
  778SOL    HW1 3077   0.817   0.507   5.885
  778SOL    HW2 3078   0.739   0.632   5.919
  779SOL     OW 3079   1.636   0.601   6.765
  779SOL    HW1 3080   1.626   0.543   6.841
  779SOL    HW2 3081   1.725   0.584   6.733
  780SOL     OW 3082   0.273   1.563   7.324
  780SOL    HW1 3083   0.209   1.611   7.377
  780SOL    HW2 3084   0.258   1.471   7.348
  781SOL     OW 3085   0.705   0.460   6.846
  781SOL    HW1 3086   0.655   0.383   6.817
  781SOL    HW2 3087   0.703   0.520   6.771
  782SOL     OW 3088   0.922   1.679   7.058
  782SOL    HW1 3089   0.898   1.638   6.974
  782SOL    HW2 3090   0.914   1.773   7.041
  783SOL     OW 3091   0.471   0.491   5.762
  783SOL    HW1 3092   0.532   0.560   5.787
  783SOL    HW2 3093   0.388   0.537   5.747
  784SOL     OW 3094   0.158   1.143   7.042
  784SOL    HW1 3095   0.143   1.099   7.126
  784SOL    HW2 3096   0.167   1.072   6.979
  785SOL     OW 3097   1.320   1.043   6.805
  785SOL    HW1 3098   1.340   0.979   6.736
  785SOL    HW2 3099   1.254   1.100   6.765
  786SOL     OW 3100   1.318   0.856   5.888
  786SOL    HW1 3101   1.244   0.828   5.943
  786SOL    HW2 3102   1.287   0.844   5.798
  787SOL     OW 3103   1.764   1.744   6.742
  787SOL    HW1 3104   1.844   1.759   6.692
  787SOL    HW2 3105   1.741   1.652   6.724
  788SOL     OW 3106   1.240   1.733   6.694
  788SOL    HW1 3107   1.324   1.758   6.655
  788SOL    HW2 3108   1.248   1.640   6.713
  789SOL     OW 3109   0.073   1.188   6.637
  789SOL    HW1 3110   0.054   1.216   6.727
  789SOL    HW2 3111   0.043   1.261   6.583
  790SOL     OW 3112   0.680   1.672   7.326
  790SOL    HW1 3113   0.619   1.744   7.314
  790SOL    HW2 3114   0.748   1.687   7.260
  791SOL     OW 3115   1.721   0.128   6.067
  791SOL    HW1 3116   1.787   0.144   6.000
  791SOL    HW2 3117   1.758   0.058   6.121
  792SOL     OW 3118   1.390   1.560   6.090
  792SOL    HW1 3119   1.444   1.586   6.016
  792SOL    HW2 3120   1.338   1.637   6.110
  793SOL     OW 3121   0.115   1.807   7.438
  793SOL    HW1 3122   0.074   1.737   7.488
  793SOL    HW2 3123   0.180   1.845   7.497
  794SOL     OW 3124   1.280   0.931   6.259
  794SOL    HW1 3125   1.353   0.870   6.267
  794SOL    HW2 3126   1.314   1.002   6.204
  795SOL     OW 3127   0.804   1.278   7.009
  795SOL    HW1 3128   0.777   1.319   7.091
  795SOL    HW2 3129   0.732   1.296   6.949
  796SOL     OW 3130   0.671   1.626   5.742
  796SOL    HW1 3131   0.683   1.640   5.648
  796SOL    HW2 3132   0.616   1.548   5.748
  797SOL     OW 3133   1.617   1.726   6.982
  797SOL    HW1 3134   1.668   1.728   6.901
  797SOL    HW2 3135   1.605   1.818   7.005
  798SOL     OW 3136   1.840   0.150   6.550
  798SOL    HW1 3137   1.870   0.071   6.505
  798SOL    HW2 3138   1.753   0.167   6.514
  799SOL     OW 3139   0.255   0.321   6.299
  799SOL    HW1 3140   0.170   0.355   6.269
  799SOL    HW2 3141   0.244   0.311   6.394
  800SOL     OW 3142   1.199   1.602   5.620
  800SOL    HW1 3143   1.191   1.510   5.645
  800SOL    HW2 3144   1.132   1.614   5.553
  801SOL     OW 3145   0.826   1.008   6.962
  801SOL    HW1 3146   0.868   1.001   6.876
  801SOL    HW2 3147   0.821   1.102   6.978
  802SOL     OW 3148   0.915   0.911   5.877
  802SOL    HW1 3149   0.976   0.943   5.810
  802SOL    HW2 3150   0.965   0.843   5.923
  803SOL     OW 3151   1.478   1.607   5.624
  803SOL    HW1 3152   1.383   1.616   5.610
  803SOL    HW2 3153   1.516   1.626   5.539
  804SOL     OW 3154   0.372   1.311   7.077
  804SOL    HW1 3155   0.355   1.389   7.025
  804SOL    HW2 3156   0.298   1.253   7.058
  805SOL     OW 3157   1.603   1.279   6.870
  805SOL    HW1 3158   1.666   1.265   6.941
  805SOL    HW2 3159   1.544   1.346   6.903
  806SOL     OW 3160   1.062   1.110   6.295
  806SOL    HW1 3161   0.989   1.060   6.333
  806SOL    HW2 3162   1.126   1.044   6.271
  807SOL     OW 3163   0.997   0.247   6.602
  807SOL    HW1 3164   1.007   0.234   6.507
  807SOL    HW2 3165   0.987   0.159   6.638
  808SOL     OW 3166   0.607   1.488   6.067
  808SOL    HW1 3167   0.655   1.439   6.000
  808SOL    HW2 3168   0.526   1.516   6.023
  809SOL     OW 3169   1.726   0.394   6.961
  809SOL    HW1 3170   1.801   0.454   6.961
  809SOL    HW2 3171   1.753   0.323   6.903
  810SOL     OW 3172   0.253   1.343   5.859
  810SOL    HW1 3173   0.159   1.337   5.847
  810SOL    HW2 3174   0.265   1.376   5.948
  811SOL     OW 3175   0.115   1.002   7.279
  811SOL    HW1 3176   0.054   1.052   7.332
  811SOL    HW2 3177   0.195   0.998   7.331
  812SOL     OW 3178   0.660   0.214   7.087
  812SOL    HW1 3179   0.738   0.186   7.040
  812SOL    HW2 3180   0.690   0.230   7.176
  813SOL     OW 3181   0.076   0.322   5.608
  813SOL    HW1 3182   4.483   0.325   5.631
  813SOL    HW2 3183   0.096   0.410   5.579
  814SOL     OW 3184   1.425   0.857   6.982
  814SOL    HW1 3185   1.375   0.918   6.928
  814SOL    HW2 3186   1.513   0.860   6.946
  815SOL     OW 3187   0.087   0.188   5.888
  815SOL    HW1 3188   0.075   0.266   5.833
  815SOL    HW2 3189   0.167   0.147   5.854
  816SOL     OW 3190   1.178   1.334   5.702
  816SOL    HW1 3191   1.087   1.303   5.705
  816SOL    HW2 3192   1.205   1.336   5.794
  817SOL     OW 3193   0.628   0.829   7.024
  817SOL    HW1 3194   0.682   0.906   7.007
  817SOL    HW2 3195   0.689   0.756   7.026
  818SOL     OW 3196   1.487   1.788   6.580
  818SOL    HW1 3197   1.511   1.827   6.496
  818SOL    HW2 3198   1.570   1.758   6.618
  819SOL     OW 3199   0.710   0.563   7.292
  819SOL    HW1 3200   0.763   0.621   7.348
  819SOL    HW2 3201   0.733   0.475   7.321
  820SOL     OW 3202   1.474   1.194   7.215
  820SOL    HW1 3203   1.463   1.210   7.309
  820SOL    HW2 3204   1.566   1.213   7.198
  821SOL     OW 3205   0.373   1.748   7.152
  821SOL    HW1 3206   0.289   1.790   7.133
  821SOL    HW2 3207   0.350   1.670   7.201
  822SOL     OW 3208   1.664   0.879   6.841
  822SOL    HW1 3209   1.658   0.794   6.797
  822SOL    HW2 3210   1.653   0.943   6.771
  823SOL     OW 3211   1.224   0.335   6.029
  823SOL    HW1 3212   1.293   0.271   6.015
  823SOL    HW2 3213   1.251   0.384   6.107
  824SOL     OW 3214   0.582   0.732   6.262
  824SOL    HW1 3215   0.624   0.817   6.248
  824SOL    HW2 3216   0.519   0.725   6.191
  825SOL     OW 3217   1.755   0.374   7.230
  825SOL    HW1 3218   1.741   0.386   7.137
  825SOL    HW2 3219   1.679   0.322   7.259
  826SOL     OW 3220   1.750   0.933   7.096
  826SOL    HW1 3221   1.738   1.027   7.110
  826SOL    HW2 3222   1.731   0.919   7.004
  827SOL     OW 3223   0.865   1.364   5.630
  827SOL    HW1 3224   0.827   1.390   5.714
  827SOL    HW2 3225   0.877   1.447   5.583
  828SOL     OW 3226   0.664   1.784   6.525
  828SOL    HW1 3227   0.646   1.876   6.504
  828SOL    HW2 3228   0.760   1.777   6.518
  829SOL     OW 3229   0.870   0.972   6.438
  829SOL    HW1 3230   0.922   0.900   6.475
  829SOL    HW2 3231   0.831   1.015   6.514
  830SOL     OW 3232   1.076   0.989   5.675
  830SOL    HW1 3233   1.056   1.041   5.597
  830SOL    HW2 3234   1.150   0.934   5.648
  831SOL     OW 3235   1.892   1.524   6.479
  831SOL    HW1 3236   1.843   1.498   6.401
  831SOL    HW2 3237   1.891   1.447   6.535
  832SOL     OW 3238   0.234   1.303   7.448
  832SOL    HW1 3239   0.146   1.268   7.432
  832SOL    HW2 3240   0.239   1.314   7.543
  833SOL     OW 3241   0.127   1.226   6.253
  833SOL    HW1 3242   0.148   1.187   6.339
  833SOL    HW2 3243   0.183   1.178   6.192
  834SOL     OW 3244   0.687   1.408   7.219
  834SOL    HW1 3245   0.607   1.365   7.249
  834SOL    HW2 3246   0.682   1.496   7.256
  835SOL     OW 3247   1.800   0.175   6.823
  835SOL    HW1 3248   1.795   0.081   6.842
  835SOL    HW2 3249   1.820   0.179   6.729
  836SOL     OW 3250   0.446   0.426   6.122
  836SOL    HW1 3251   0.456   0.358   6.055
  836SOL    HW2 3252   0.382   0.390   6.183
  837SOL     OW 3253   1.681   1.491   6.695
  837SOL    HW1 3254   1.611   1.469   6.633
  837SOL    HW2 3255   1.684   1.416   6.754
  838SOL     OW 3256   0.309   0.514   6.836
  838SOL    HW1 3257   0.377   0.456   6.871
  838SOL    HW2 3258   0.328   0.521   6.743
  839SOL     OW 3259   0.832   1.579   6.261
  839SOL    HW1 3260   0.808   1.642   6.193
  839SOL    HW2 3261   0.757   1.518   6.265
  840SOL     OW 3262   1.429   0.219   6.701
  840SOL    HW1 3263   1.465   0.147   6.753
  840SOL    HW2 3264   1.378   0.271   6.763
  841SOL     OW 3265   0.994   4.498   6.743
  841SOL    HW1 3266   0.959   4.409   6.737
  841SOL    HW2 3267   1.089   4.486   6.748
  842SOL     OW 3268   0.775   1.334   5.906
  842SOL    HW1 3269   0.748   1.242   5.915
  842SOL    HW2 3270   0.856   1.340   5.957
  843SOL     OW 3271   0.621   1.556   6.874
  843SOL    HW1 3272   0.621   1.638   6.923
  843SOL    HW2 3273   0.709   1.550   6.837
  844SOL     OW 3274   1.338   0.050   5.752
  844SOL    HW1 3275   1.375   4.475   5.706
  844SOL    HW2 3276   1.260   0.016   5.795
  845SOL     OW 3277   1.316   0.468   6.254
  845SOL    HW1 3278   1.261   0.546   6.256
  845SOL    HW2 3279   1.305   0.429   6.341
  846SOL     OW 3280   1.586   0.198   6.458
  846SOL    HW1 3281   1.528   0.214   6.532
  846SOL    HW2 3282   1.587   0.281   6.410
  847SOL     OW 3283   0.038   1.049   5.881
  847SOL    HW1 3284   0.129   1.023   5.868
  847SOL    HW2 3285   0.020   1.027   5.973
  848SOL     OW 3286   0.886   1.658   5.925
  848SOL    HW1 3287   0.812   1.643   5.867
  848SOL    HW2 3288   0.859   1.731   5.981
  849SOL     OW 3289   0.242   0.630   7.575
  849SOL    HW1 3290   0.168   0.600   7.628
  849SOL    HW2 3291   0.212   0.620   7.484
  850SOL     OW 3292   0.191   0.298   8.435
  850SOL    HW1 3293   0.219   0.264   8.520
  850SOL    HW2 3294   0.131   0.231   8.401
  851SOL     OW 3295   4.497   0.397   8.083
  851SOL    HW1 3296   4.423   0.433   8.131
  851SOL    HW2 3297   4.461   0.324   8.034
  852SOL     OW 3298   0.570   1.298   8.632
  852SOL    HW1 3299   0.483   1.303   8.591
  852SOL    HW2 3300   0.585   1.386   8.666
  853SOL     OW 3301   1.569   1.511   8.159
  853SOL    HW1 3302   1.526   1.488   8.242
  853SOL    HW2 3303   1.497   1.514   8.096
  854SOL     OW 3304   1.142   0.696   8.139
  854SOL    HW1 3305   1.185   0.781   8.132
  854SOL    HW2 3306   1.090   0.702   8.219
  855SOL     OW 3307   1.780   0.600   7.672
  855SOL    HW1 3308   1.752   0.594   7.580
  855SOL    HW2 3309   1.741   0.523   7.713
  856SOL     OW 3310   0.744   1.137   8.494
  856SOL    HW1 3311   0.678   1.175   8.553
  856SOL    HW2 3312   0.784   1.212   8.451
  857SOL     OW 3313   0.872   0.762   9.270
  857SOL    HW1 3314   0.858   0.831   9.335
  857SOL    HW2 3315   0.896   0.808   9.190
  858SOL     OW 3316   0.683   0.997   8.093
  858SOL    HW1 3317   0.751   0.989   8.160
  858SOL    HW2 3318   0.616   1.051   8.133
  859SOL     OW 3319   0.714   1.148   9.269
  859SOL    HW1 3320   0.761   1.225   9.299
  859SOL    HW2 3321   0.635   1.183   9.227
  860SOL     OW 3322   0.333   1.417   8.515
  860SOL    HW1 3323   0.253   1.394   8.468
  860SOL    HW2 3324   0.382   1.472   8.454
  861SOL     OW 3325   1.458   1.501   8.809
  861SOL    HW1 3326   1.513   1.578   8.818
  861SOL    HW2 3327   1.390   1.511   8.876
  862SOL     OW 3328   0.445   0.388   8.924
  862SOL    HW1 3329   0.534   0.353   8.923
  862SOL    HW2 3330   0.394   0.323   8.973
  863SOL     OW 3331   1.605   0.441   8.187
  863SOL    HW1 3332   1.525   0.457   8.136
  863SOL    HW2 3333   1.613   0.517   8.244
  864SOL     OW 3334   0.246   1.690   7.920
  864SOL    HW1 3335   0.228   1.776   7.960
  864SOL    HW2 3336   0.320   1.706   7.861
  865SOL     OW 3337   1.137   1.342   9.143
  865SOL    HW1 3338   1.178   1.336   9.229
  865SOL    HW2 3339   1.085   1.262   9.135
  866SOL     OW 3340   0.260   1.425   7.972
  866SOL    HW1 3341   0.245   1.519   7.976
  866SOL    HW2 3342   0.202   1.389   8.038
  867SOL     OW 3343   0.255   1.084   8.333
  867SOL    HW1 3344   0.270   0.992   8.356
  867SOL    HW2 3345   0.194   1.115   8.399
  868SOL     OW 3346   0.604   1.793   8.876
  868SOL    HW1 3347   0.522   1.775   8.921
  868SOL    HW2 3348   0.627   1.882   8.902
  869SOL     OW 3349   0.568   0.994   7.594
  869SOL    HW1 3350   0.620   1.031   7.523
  869SOL    HW2 3351   0.613   1.023   7.674
  870SOL     OW 3352   1.573   0.121   8.909
  870SOL    HW1 3353   1.615   0.187   8.855
  870SOL    HW2 3354   1.565   0.162   8.995
  871SOL     OW 3355   0.136   0.647   8.020
  871SOL    HW1 3356   0.088   0.568   8.044
  871SOL    HW2 3357   0.110   0.713   8.084
  872SOL     OW 3358   1.845   1.784   7.790
  872SOL    HW1 3359   1.903   1.746   7.856
  872SOL    HW2 3360   1.903   1.836   7.734
  873SOL     OW 3361   0.032   1.606   7.603
  873SOL    HW1 3362   0.015   1.512   7.594
  873SOL    HW2 3363   0.051   1.618   7.696
  874SOL     OW 3364   1.691   0.921   8.093
  874SOL    HW1 3365   1.772   0.876   8.068
  874SOL    HW2 3366   1.667   0.972   8.016
  875SOL     OW 3367   1.650   1.104   7.876
  875SOL    HW1 3368   1.737   1.104   7.836
  875SOL    HW2 3369   1.657   1.167   7.948
  876SOL     OW 3370   0.095   0.769   9.009
  876SOL    HW1 3371   0.181   0.751   8.971
  876SOL    HW2 3372   0.102   0.858   9.044
  877SOL     OW 3373   0.617   1.391   8.185
  877SOL    HW1 3374   0.571   1.307   8.194
  877SOL    HW2 3375   0.600   1.418   8.094
  878SOL     OW 3376   1.285   1.235   8.869
  878SOL    HW1 3377   1.316   1.167   8.809
  878SOL    HW2 3378   1.345   1.230   8.943
  879SOL     OW 3379   0.831   0.021   8.009
  879SOL    HW1 3380   0.867   0.105   7.980
  879SOL    HW2 3381   0.737   0.029   7.994
  880SOL     OW 3382   0.176   0.942   8.725
  880SOL    HW1 3383   0.267   0.917   8.707
  880SOL    HW2 3384   0.133   0.935   8.640
  881SOL     OW 3385   1.532   0.999   7.648
  881SOL    HW1 3386   1.462   0.942   7.681
  881SOL    HW2 3387   1.574   1.032   7.727
  882SOL     OW 3388   1.182   1.813   9.074
  882SOL    HW1 3389   1.191   1.874   9.000
  882SOL    HW2 3390   1.202   1.727   9.036
  883SOL     OW 3391   0.318   0.262   9.210
  883SOL    HW1 3392   0.385   0.310   9.259
  883SOL    HW2 3393   0.239   0.269   9.264
  884SOL     OW 3394   1.466   1.417   8.395
  884SOL    HW1 3395   1.400   1.434   8.462
  884SOL    HW2 3396   1.452   1.326   8.370
  885SOL     OW 3397   1.648   1.744   8.031
  885SOL    HW1 3398   1.627   1.713   7.943
  885SOL    HW2 3399   1.630   1.669   8.088
  886SOL     OW 3400   0.594   0.722   7.717
  886SOL    HW1 3401   0.592   0.806   7.673
  886SOL    HW2 3402   0.527   0.729   7.786
  887SOL     OW 3403   1.294   0.377   8.378
  887SOL    HW1 3404   1.205   0.346   8.359
  887SOL    HW2 3405   1.329   0.312   8.439
  888SOL     OW 3406   1.579   1.677   7.761
  888SOL    HW1 3407   1.667   1.714   7.750
  888SOL    HW2 3408   1.550   1.658   7.671
  889SOL     OW 3409   0.799   0.618   8.901
  889SOL    HW1 3410   0.769   0.589   8.988
  889SOL    HW2 3411   0.763   0.553   8.841
  890SOL     OW 3412   1.388   0.483   9.124
  890SOL    HW1 3413   1.393   0.528   9.209
  890SOL    HW2 3414   1.455   0.415   9.129
  891SOL     OW 3415   0.950   0.885   9.035
  891SOL    HW1 3416   1.005   0.817   8.996
  891SOL    HW2 3417   0.903   0.923   8.960
  892SOL     OW 3418   0.999   0.418   8.679
  892SOL    HW1 3419   0.909   0.422   8.710
  892SOL    HW2 3420   0.995   0.362   8.601
  893SOL     OW 3421   1.053   0.699   7.872
  893SOL    HW1 3422   1.072   0.690   7.965
  893SOL    HW2 3423   0.968   0.655   7.861
  894SOL     OW 3424   0.090   0.828   8.234
  894SOL    HW1 3425   0.175   0.822   8.276
  894SOL    HW2 3426   0.027   0.827   8.307
  895SOL     OW 3427   0.116   1.871   9.032
  895SOL    HW1 3428   0.113   1.844   9.124
  895SOL    HW2 3429   0.046   1.820   8.990
  896SOL     OW 3430   0.856   0.372   7.638
  896SOL    HW1 3431   0.920   0.406   7.576
  896SOL    HW2 3432   0.868   0.278   7.637
  897SOL     OW 3433   1.699   0.570   9.278
  897SOL    HW1 3434   1.666   0.645   9.229
  897SOL    HW2 3435   1.734   0.510   9.212
  898SOL     OW 3436   1.382   1.143   7.988
  898SOL    HW1 3437   1.461   1.132   7.934
  898SOL    HW2 3438   1.328   1.205   7.938
  899SOL     OW 3439   0.536   0.212   8.347
  899SOL    HW1 3440   0.557   0.228   8.439
  899SOL    HW2 3441   0.535   0.299   8.308
  900SOL     OW 3442   0.999   1.444   7.916
  900SOL    HW1 3443   0.969   1.520   7.866
  900SOL    HW2 3444   0.975   1.464   8.006
  901SOL     OW 3445   0.360   1.817   8.310
  901SOL    HW1 3446   0.401   1.732   8.321
  901SOL    HW2 3447   0.429   1.880   8.330
  902SOL     OW 3448   1.801   1.052   8.319
  902SOL    HW1 3449   1.749   1.031   8.242
  902SOL    HW2 3450   1.738   1.059   8.390
  903SOL     OW 3451   1.226   1.540   8.962
  903SOL    HW1 3452   1.214   1.468   9.023
  903SOL    HW2 3453   1.159   1.526   8.895
  904SOL     OW 3454   0.309   0.950   7.711
  904SOL    HW1 3455   0.391   0.975   7.668
  904SOL    HW2 3456   0.299   0.857   7.690
  905SOL     OW 3457   1.483   0.749   8.167
  905SOL    HW1 3458   1.477   0.709   8.254
  905SOL    HW2 3459   1.561   0.805   8.172
  906SOL     OW 3460   0.472   1.267   9.183
  906SOL    HW1 3461   0.446   1.273   9.092
  906SOL    HW2 3462   0.389   1.265   9.232
  907SOL     OW 3463   1.125   1.778   7.676
  907SOL    HW1 3464   1.049   1.740   7.720
  907SOL    HW2 3465   1.149   1.714   7.609
  908SOL     OW 3466   0.154   0.266   8.964
  908SOL    HW1 3467   0.129   0.351   8.928
  908SOL    HW2 3468   0.194   0.286   9.048
  909SOL     OW 3469   1.628   1.385   7.540
  909SOL    HW1 3470   1.585   1.468   7.523
  909SOL    HW2 3471   1.562   1.319   7.519
  910SOL     OW 3472   0.469   1.741   7.761
  910SOL    HW1 3473   0.514   1.795   7.826
  910SOL    HW2 3474   0.539   1.703   7.708
  911SOL     OW 3475   1.431   0.149   7.872
  911SOL    HW1 3476   1.413   0.091   7.798
  911SOL    HW2 3477   1.524   0.136   7.892
  912SOL     OW 3478   0.249   1.785   8.672
  912SOL    HW1 3479   0.296   1.708   8.704
  912SOL    HW2 3480   0.211   1.757   8.589
  913SOL     OW 3481   0.939   1.701   8.344
  913SOL    HW1 3482   1.017   1.651   8.368
  913SOL    HW2 3483   0.899   1.649   8.274
  914SOL     OW 3484   0.397   0.687   7.918
  914SOL    HW1 3485   0.421   0.596   7.935
  914SOL    HW2 3486   0.305   0.693   7.944
  915SOL     OW 3487   1.523   0.233   9.171
  915SOL    HW1 3488   1.523   0.254   9.264
  915SOL    HW2 3489   1.442   0.184   9.157
  916SOL     OW 3490   0.632   0.120   7.567
  916SOL    HW1 3491   0.720   0.085   7.580
  916SOL    HW2 3492   0.600   0.077   7.487
  917SOL     OW 3493   0.769   0.273   9.204
  917SOL    HW1 3494   0.839   0.208   9.198
  917SOL    HW2 3495   0.734   0.262   9.292
  918SOL     OW 3496   0.876   1.524   8.642
  918SOL    HW1 3497   0.858   1.485   8.557
  918SOL    HW2 3498   0.945   1.469   8.679
  919SOL     OW 3499   1.339   0.590   8.876
  919SOL    HW1 3500   1.367   0.563   8.963
  919SOL    HW2 3501   1.374   0.679   8.866
  920SOL     OW 3502   0.819   1.389   8.395
  920SOL    HW1 3503   0.904   1.377   8.352
  920SOL    HW2 3504   0.756   1.396   8.323
  921SOL     OW 3505   0.927   0.527   8.343
  921SOL    HW1 3506   0.909   0.524   8.249
  921SOL    HW2 3507   0.956   0.439   8.365
  922SOL     OW 3508   0.571   0.075   7.955
  922SOL    HW1 3509   0.486   0.059   7.997
  922SOL    HW2 3510   0.552   0.139   7.886
  923SOL     OW 3511   1.429   1.202   7.488
  923SOL    HW1 3512   1.458   1.126   7.539
  923SOL    HW2 3513   1.343   1.223   7.523
  924SOL     OW 3514   0.305   0.067   7.642
  924SOL    HW1 3515   0.388   0.116   7.645
  924SOL    HW2 3516   0.317   4.497   7.706
  925SOL     OW 3517   0.963   0.240   7.909
  925SOL    HW1 3518   0.909   0.309   7.869
  925SOL    HW2 3519   1.052   0.273   7.901
  926SOL     OW 3520   1.081   0.686   8.904
  926SOL    HW1 3521   1.013   0.620   8.903
  926SOL    HW2 3522   1.163   0.637   8.894
  927SOL     OW 3523   1.220   1.572   8.243
  927SOL    HW1 3524   1.234   1.638   8.175
  927SOL    HW2 3525   1.288   1.589   8.308
  928SOL     OW 3526   0.470   1.154   8.178
  928SOL    HW1 3527   0.403   1.135   8.244
  928SOL    HW2 3528   0.426   1.140   8.094
  929SOL     OW 3529   1.263   1.791   8.061
  929SOL    HW1 3530   1.311   1.854   8.006
  929SOL    HW2 3531   1.194   1.843   8.102
  930SOL     OW 3532   1.025   0.538   7.471
  930SOL    HW1 3533   0.979   0.620   7.455
  930SOL    HW2 3534   1.084   0.557   7.544
  931SOL     OW 3535   0.084   0.502   8.855
  931SOL    HW1 3536   0.145   0.512   8.782
  931SOL    HW2 3537   0.050   0.590   8.870
  932SOL     OW 3538   0.554   0.251   8.617
  932SOL    HW1 3539   0.584   0.171   8.660
  932SOL    HW2 3540   0.459   0.252   8.630
  933SOL     OW 3541   0.864   0.505   8.078
  933SOL    HW1 3542   0.830   0.540   7.995
  933SOL    HW2 3543   0.812   0.427   8.094
  934SOL     OW 3544   0.942   0.008   8.259
  934SOL    HW1 3545   0.905   0.014   8.171
  934SOL    HW2 3546   0.963   4.415   8.270
  935SOL     OW 3547   1.438   1.159   8.304
  935SOL    HW1 3548   1.368   1.094   8.307
  935SOL    HW2 3549   1.460   1.167   8.211
  936SOL     OW 3550   1.464   0.610   8.411
  936SOL    HW1 3551   1.407   0.534   8.412
  936SOL    HW2 3552   1.519   0.600   8.490
  937SOL     OW 3553   1.840   0.811   7.834
  937SOL    HW1 3554   1.899   0.763   7.891
  937SOL    HW2 3555   1.816   0.749   7.765
  938SOL     OW 3556   0.493   1.423   7.601
  938SOL    HW1 3557   0.414   1.396   7.648
  938SOL    HW2 3558   0.485   1.383   7.515
  939SOL     OW 3559   1.679   1.265   8.086
  939SOL    HW1 3560   1.773   1.265   8.104
  939SOL    HW2 3561   1.650   1.353   8.112
  940SOL     OW 3562   1.394   0.575   7.517
  940SOL    HW1 3563   1.332   0.557   7.587
  940SOL    HW2 3564   1.480   0.560   7.557
  941SOL     OW 3565   0.515   0.262   7.762
  941SOL    HW1 3566   0.569   0.216   7.699
  941SOL    HW2 3567   0.498   0.347   7.721
  942SOL     OW 3568   1.749   1.241   9.011
  942SOL    HW1 3569   1.837   1.204   9.000
  942SOL    HW2 3570   1.765   1.331   9.040
  943SOL     OW 3571   1.054   1.354   8.780
  943SOL    HW1 3572   0.979   1.322   8.829
  943SOL    HW2 3573   1.129   1.311   8.822
  944SOL     OW 3574   1.612   1.626   9.107
  944SOL    HW1 3575   1.602   1.661   9.019
  944SOL    HW2 3576   1.694   1.577   9.105
  945SOL     OW 3577   1.136   1.211   8.550
  945SOL    HW1 3578   1.075   1.248   8.614
  945SOL    HW2 3579   1.106   1.245   8.466
  946SOL     OW 3580   1.623   1.095   8.523
  946SOL    HW1 3581   1.617   1.158   8.594
  946SOL    HW2 3582   1.547   1.114   8.468
  947SOL     OW 3583   0.895   0.138   8.829
  947SOL    HW1 3584   0.920   0.090   8.750
  947SOL    HW2 3585   0.979   0.160   8.870
  948SOL     OW 3586   0.984   1.115   9.172
  948SOL    HW1 3587   0.893   1.131   9.197
  948SOL    HW2 3588   0.980   1.036   9.118
  949SOL     OW 3589   0.710   1.064   7.821
  949SOL    HW1 3590   0.696   1.043   7.913
  949SOL    HW2 3591   0.785   1.010   7.795
  950SOL     OW 3592   0.431   0.831   8.696
  950SOL    HW1 3593   0.498   0.842   8.764
  950SOL    HW2 3594   0.379   0.756   8.727
  951SOL     OW 3595   1.268   0.373   8.725
  951SOL    HW1 3596   1.300   0.452   8.768
  951SOL    HW2 3597   1.178   0.395   8.699
  952SOL     OW 3598   0.066   1.572   8.798
  952SOL    HW1 3599   0.042   1.663   8.780
  952SOL    HW2 3600   0.161   1.572   8.801
  953SOL     OW 3601   0.332   1.114   7.942
  953SOL    HW1 3602   0.345   1.190   7.885
  953SOL    HW2 3603   0.331   1.039   7.882
  954SOL     OW 3604   0.560   0.513   8.297
  954SOL    HW1 3605   0.570   0.576   8.225
  954SOL    HW2 3606   0.622   0.544   8.364
  955SOL     OW 3607   1.247   1.350   7.839
  955SOL    HW1 3608   1.302   1.421   7.871
  955SOL    HW2 3609   1.159   1.370   7.872
  956SOL     OW 3610   1.289   1.461   8.596
  956SOL    HW1 3611   1.345   1.466   8.674
  956SOL    HW2 3612   1.234   1.384   8.611
  957SOL     OW 3613   1.577   0.622   7.928
  957SOL    HW1 3614   1.528   0.664   7.999
  957SOL    HW2 3615   1.621   0.695   7.884
  958SOL     OW 3616   0.345   1.534   8.757
  958SOL    HW1 3617   0.333   1.486   8.676
  958SOL    HW2 3618   0.440   1.545   8.765
  959SOL     OW 3619   0.502   0.754   9.127
  959SOL    HW1 3620   0.534   0.797   9.047
  959SOL    HW2 3621   0.566   0.685   9.145
  960SOL     OW 3622   1.608   0.781   9.134
  960SOL    HW1 3623   1.523   0.823   9.128
  960SOL    HW2 3624   1.661   0.823   9.066
  961SOL     OW 3625   0.991   0.093   9.157
  961SOL    HW1 3626   1.042   0.166   9.123
  961SOL    HW2 3627   1.014   0.019   9.101
  962SOL     OW 3628   0.495   0.040   9.203
  962SOL    HW1 3629   0.483   4.494   9.120
  962SOL    HW2 3630   0.431   0.111   9.201
  963SOL     OW 3631   0.591   0.877   8.475
  963SOL    HW1 3632   0.626   0.966   8.478
  963SOL    HW2 3633   0.535   0.870   8.552
  964SOL     OW 3634   1.345   0.858   8.467
  964SOL    HW1 3635   1.258   0.842   8.432
  964SOL    HW2 3636   1.392   0.775   8.457
  965SOL     OW 3637   1.196   0.537   7.703
  965SOL    HW1 3638   1.205   0.458   7.756
  965SOL    HW2 3639   1.154   0.601   7.760
  966SOL     OW 3640   0.282   0.210   8.682
  966SOL    HW1 3641   0.238   0.229   8.765
  966SOL    HW2 3642   0.330   0.130   8.698
  967SOL     OW 3643   0.013   1.311   8.737
  967SOL    HW1 3644   0.059   1.262   8.805
  967SOL    HW2 3645   0.027   1.403   8.760
  968SOL     OW 3646   0.718   0.628   8.497
  968SOL    HW1 3647   0.796   0.613   8.443
  968SOL    HW2 3648   0.692   0.718   8.476
  969SOL     OW 3649   1.740   0.958   9.308
  969SOL    HW1 3650   1.695   0.892   9.254
  969SOL    HW2 3651   1.678   0.977   9.379
  970SOL     OW 3652   0.326   0.070   8.072
  970SOL    HW1 3653   0.302   0.159   8.099
  970SOL    HW2 3654   0.313   0.017   8.151
  971SOL     OW 3655   1.625   0.388   7.800
  971SOL    HW1 3656   1.647   0.320   7.864
  971SOL    HW2 3657   1.598   0.463   7.852
  972SOL     OW 3658   1.035   0.766   8.407
  972SOL    HW1 3659   1.024   0.781   8.501
  972SOL    HW2 3660   1.003   0.677   8.393
  973SOL     OW 3661   0.982   1.567   9.170
  973SOL    HW1 3662   0.966   1.610   9.086
  973SOL    HW2 3663   1.025   1.484   9.146
  974SOL     OW 3664   1.853   1.497   9.054
  974SOL    HW1 3665   1.868   1.527   8.964
  974SOL    HW2 3666   1.936   1.513   9.099
  975SOL     OW 3667   0.348   0.936   9.265
  975SOL    HW1 3668   0.417   0.970   9.323
  975SOL    HW2 3669   0.391   0.867   9.214
  976SOL     OW 3670   1.527   0.260   7.575
  976SOL    HW1 3671   1.460   0.202   7.611
  976SOL    HW2 3672   1.560   0.308   7.651
  977SOL     OW 3673   1.286   0.826   7.474
  977SOL    HW1 3674   1.328   0.740   7.478
  977SOL    HW2 3675   1.318   0.865   7.393
  978SOL     OW 3676   1.069   1.339   8.305
  978SOL    HW1 3677   1.074   1.267   8.242
  978SOL    HW2 3678   1.127   1.406   8.269
  979SOL     OW 3679   0.320   0.813   8.388
  979SOL    HW1 3680   0.414   0.831   8.390
  979SOL    HW2 3681   0.313   0.721   8.411
  980SOL     OW 3682   0.327   0.534   8.429
  980SOL    HW1 3683   0.282   0.451   8.414
  980SOL    HW2 3684   0.406   0.528   8.376
  981SOL     OW 3685   1.140   0.368   9.153
  981SOL    HW1 3686   1.086   0.430   9.203
  981SOL    HW2 3687   1.222   0.415   9.139
  982SOL     OW 3688   1.147   0.217   8.923
  982SOL    HW1 3689   1.147   0.281   8.994
  982SOL    HW2 3690   1.195   0.261   8.852
  983SOL     OW 3691   4.491   1.318   7.660
  983SOL    HW1 3692   4.398   1.336   7.641
  983SOL    HW2 3693   4.494   1.225   7.681
  984SOL     OW 3694   0.104   1.765   8.389
  984SOL    HW1 3695   0.064   1.724   8.312
  984SOL    HW2 3696   0.192   1.790   8.359
  985SOL     OW 3697   0.492   1.575   8.355
  985SOL    HW1 3698   0.561   1.637   8.378
  985SOL    HW2 3699   0.536   1.513   8.296
  986SOL     OW 3700   0.974   0.791   8.671
  986SOL    HW1 3701   1.033   0.772   8.744
  986SOL    HW2 3702   0.892   0.746   8.695
  987SOL     OW 3703   0.024   0.562   8.545
  987SOL    HW1 3704   0.109   0.532   8.514
  987SOL    HW2 3705   4.493   0.492   8.602
  988SOL     OW 3706   0.178   0.539   9.166
  988SOL    HW1 3707   0.267   0.524   9.135
  988SOL    HW2 3708   0.147   0.614   9.115
  989SOL     OW 3709   1.381   0.933   9.104
  989SOL    HW1 3710   1.403   1.026   9.100
  989SOL    HW2 3711   1.377   0.906   9.012
  990SOL     OW 3712   0.812   0.577   7.812
  990SOL    HW1 3713   0.817   0.507   7.747
  990SOL    HW2 3714   0.739   0.632   7.781
  991SOL     OW 3715   1.636   0.601   8.627
  991SOL    HW1 3716   1.626   0.543   8.702
  991SOL    HW2 3717   1.725   0.584   8.595
  992SOL     OW 3718   0.273   1.563   9.186
  992SOL    HW1 3719   0.209   1.611   9.239
  992SOL    HW2 3720   0.258   1.471   9.210
  993SOL     OW 3721   0.705   0.460   8.708
  993SOL    HW1 3722   0.655   0.384   8.679
  993SOL    HW2 3723   0.702   0.520   8.633
  994SOL     OW 3724   0.921   1.679   8.920
  994SOL    HW1 3725   0.897   1.639   8.836
  994SOL    HW2 3726   0.915   1.773   8.904
  995SOL     OW 3727   0.470   0.491   7.624
  995SOL    HW1 3728   0.532   0.560   7.649
  995SOL    HW2 3729   0.388   0.537   7.609
  996SOL     OW 3730   0.158   1.143   8.904
  996SOL    HW1 3731   0.143   1.099   8.988
  996SOL    HW2 3732   0.167   1.072   8.841
  997SOL     OW 3733   1.320   1.042   8.666
  997SOL    HW1 3734   1.340   0.979   8.597
  997SOL    HW2 3735   1.254   1.100   8.627
  998SOL     OW 3736   1.318   0.856   7.751
  998SOL    HW1 3737   1.244   0.828   7.805
  998SOL    HW2 3738   1.288   0.844   7.661
  999SOL     OW 3739   1.768   1.729   8.606
  999SOL    HW1 3740   1.831   1.763   8.542
  999SOL    HW2 3741   1.750   1.640   8.577
 1000SOL     OW 3742   1.239   1.732   8.551
 1000SOL    HW1 3743   1.323   1.757   8.513
 1000SOL    HW2 3744   1.249   1.639   8.573
 1001SOL     OW 3745   0.073   1.188   8.499
 1001SOL    HW1 3746   0.054   1.216   8.589
 1001SOL    HW2 3747   0.043   1.261   8.445
 1002SOL     OW 3748   0.681   1.671   9.188
 1002SOL    HW1 3749   0.620   1.744   9.176
 1002SOL    HW2 3750   0.749   1.687   9.122
 1003SOL     OW 3751   1.721   0.128   7.930
 1003SOL    HW1 3752   1.787   0.144   7.862
 1003SOL    HW2 3753   1.758   0.058   7.983
 1004SOL     OW 3754   1.392   1.567   7.939
 1004SOL    HW1 3755   1.449   1.602   7.871
 1004SOL    HW2 3756   1.341   1.643   7.969
 1005SOL     OW 3757   0.114   1.807   9.300
 1005SOL    HW1 3758   0.074   1.737   9.350
 1005SOL    HW2 3759   0.180   1.845   9.359
 1006SOL     OW 3760   1.280   0.931   8.120
 1006SOL    HW1 3761   1.353   0.870   8.129
 1006SOL    HW2 3762   1.314   1.002   8.066
 1007SOL     OW 3763   0.804   1.278   8.871
 1007SOL    HW1 3764   0.777   1.319   8.954
 1007SOL    HW2 3765   0.733   1.296   8.811
 1008SOL     OW 3766   0.672   1.627   7.603
 1008SOL    HW1 3767   0.684   1.640   7.509
 1008SOL    HW2 3768   0.617   1.549   7.609
 1009SOL     OW 3769   1.615   1.723   8.840
 1009SOL    HW1 3770   1.667   1.731   8.760
 1009SOL    HW2 3771   1.600   1.813   8.867
 1010SOL     OW 3772   1.840   0.150   8.412
 1010SOL    HW1 3773   1.870   0.070   8.367
 1010SOL    HW2 3774   1.753   0.167   8.376
 1011SOL     OW 3775   0.255   0.321   8.161
 1011SOL    HW1 3776   0.170   0.355   8.132
 1011SOL    HW2 3777   0.245   0.311   8.256
 1012SOL     OW 3778   1.209   1.601   7.481
 1012SOL    HW1 3779   1.198   1.510   7.508
 1012SOL    HW2 3780   1.143   1.614   7.414
 1013SOL     OW 3781   0.826   1.008   8.823
 1013SOL    HW1 3782   0.868   1.001   8.738
 1013SOL    HW2 3783   0.821   1.102   8.841
 1014SOL     OW 3784   0.916   0.911   7.739
 1014SOL    HW1 3785   0.976   0.944   7.672
 1014SOL    HW2 3786   0.965   0.843   7.785
 1015SOL     OW 3787   1.489   1.632   7.494
 1015SOL    HW1 3788   1.396   1.620   7.479
 1015SOL    HW2 3789   1.528   1.636   7.407
 1016SOL     OW 3790   0.372   1.311   8.939
 1016SOL    HW1 3791   0.355   1.389   8.887
 1016SOL    HW2 3792   0.298   1.253   8.920
 1017SOL     OW 3793   1.607   1.285   8.725
 1017SOL    HW1 3794   1.669   1.270   8.796
 1017SOL    HW2 3795   1.547   1.352   8.759
 1018SOL     OW 3796   1.062   1.111   8.158
 1018SOL    HW1 3797   0.989   1.061   8.195
 1018SOL    HW2 3798   1.126   1.044   8.134
 1019SOL     OW 3799   0.997   0.247   8.464
 1019SOL    HW1 3800   1.007   0.233   8.369
 1019SOL    HW2 3801   0.987   0.159   8.500
 1020SOL     OW 3802   0.607   1.488   7.929
 1020SOL    HW1 3803   0.655   1.439   7.862
 1020SOL    HW2 3804   0.527   1.517   7.885
 1021SOL     OW 3805   1.726   0.394   8.822
 1021SOL    HW1 3806   1.801   0.454   8.823
 1021SOL    HW2 3807   1.753   0.323   8.765
 1022SOL     OW 3808   0.253   1.343   7.720
 1022SOL    HW1 3809   0.159   1.337   7.709
 1022SOL    HW2 3810   0.265   1.376   7.810
 1023SOL     OW 3811   0.115   1.002   9.141
 1023SOL    HW1 3812   0.054   1.052   9.194
 1023SOL    HW2 3813   0.195   0.998   9.193
 1024SOL     OW 3814   0.660   0.214   8.949
 1024SOL    HW1 3815   0.738   0.187   8.901
 1024SOL    HW2 3816   0.690   0.230   9.038
 1025SOL     OW 3817   0.076   0.321   7.470
 1025SOL    HW1 3818   4.483   0.325   7.494
 1025SOL    HW2 3819   0.096   0.410   7.440
 1026SOL     OW 3820   1.425   0.857   8.844
 1026SOL    HW1 3821   1.375   0.918   8.790
 1026SOL    HW2 3822   1.513   0.860   8.808
 1027SOL     OW 3823   0.087   0.187   7.749
 1027SOL    HW1 3824   0.075   0.266   7.696
 1027SOL    HW2 3825   0.167   0.147   7.716
 1028SOL     OW 3826   1.178   1.334   7.566
 1028SOL    HW1 3827   1.087   1.305   7.567
 1028SOL    HW2 3828   1.204   1.335   7.658
 1029SOL     OW 3829   0.628   0.829   8.886
 1029SOL    HW1 3830   0.683   0.906   8.869
 1029SOL    HW2 3831   0.689   0.756   8.889
 1030SOL     OW 3832   1.485   1.785   8.434
 1030SOL    HW1 3833   1.504   1.851   8.366
 1030SOL    HW2 3834   1.570   1.766   8.473
 1031SOL     OW 3835   0.710   0.563   9.154
 1031SOL    HW1 3836   0.763   0.621   9.210
 1031SOL    HW2 3837   0.733   0.475   9.183
 1032SOL     OW 3838   1.474   1.194   9.076
 1032SOL    HW1 3839   1.463   1.210   9.170
 1032SOL    HW2 3840   1.566   1.214   9.060
 1033SOL     OW 3841   0.373   1.749   9.014
 1033SOL    HW1 3842   0.288   1.790   8.995
 1033SOL    HW2 3843   0.350   1.670   9.063
 1034SOL     OW 3844   1.664   0.880   8.703
 1034SOL    HW1 3845   1.658   0.795   8.659
 1034SOL    HW2 3846   1.654   0.944   8.632
 1035SOL     OW 3847   1.224   0.336   7.891
 1035SOL    HW1 3848   1.293   0.271   7.877
 1035SOL    HW2 3849   1.251   0.384   7.969
 1036SOL     OW 3850   0.582   0.732   8.124
 1036SOL    HW1 3851   0.624   0.817   8.110
 1036SOL    HW2 3852   0.519   0.725   8.053
 1037SOL     OW 3853   1.755   0.373   9.092
 1037SOL    HW1 3854   1.741   0.386   8.998
 1037SOL    HW2 3855   1.679   0.322   9.121
 1038SOL     OW 3856   1.749   0.933   8.959
 1038SOL    HW1 3857   1.739   1.027   8.972
 1038SOL    HW2 3858   1.731   0.920   8.866
 1039SOL     OW 3859   0.866   1.364   7.492
 1039SOL    HW1 3860   0.827   1.391   7.576
 1039SOL    HW2 3861   0.879   1.447   7.445
 1040SOL     OW 3862   0.664   1.784   8.386
 1040SOL    HW1 3863   0.646   1.876   8.366
 1040SOL    HW2 3864   0.759   1.776   8.380
 1041SOL     OW 3865   0.870   0.972   8.300
 1041SOL    HW1 3866   0.922   0.900   8.337
 1041SOL    HW2 3867   0.831   1.015   8.376
 1042SOL     OW 3868   1.078   0.989   7.538
 1042SOL    HW1 3869   1.055   1.041   7.460
 1042SOL    HW2 3870   1.151   0.934   7.510
 1043SOL     OW 3871   1.842   1.541   8.283
 1043SOL    HW1 3872   1.758   1.534   8.237
 1043SOL    HW2 3873   1.830   1.490   8.363
 1044SOL     OW 3874   0.234   1.303   9.310
 1044SOL    HW1 3875   0.146   1.268   9.295
 1044SOL    HW2 3876   0.240   1.314   9.405
 1045SOL     OW 3877   0.127   1.225   8.116
 1045SOL    HW1 3878   0.148   1.186   8.201
 1045SOL    HW2 3879   0.183   1.178   8.053
 1046SOL     OW 3880   0.687   1.408   9.080
 1046SOL    HW1 3881   0.607   1.365   9.111
 1046SOL    HW2 3882   0.682   1.496   9.117
 1047SOL     OW 3883   1.800   0.175   8.685
 1047SOL    HW1 3884   1.795   0.081   8.704
 1047SOL    HW2 3885   1.820   0.179   8.591
 1048SOL     OW 3886   0.446   0.426   7.984
 1048SOL    HW1 3887   0.456   0.358   7.917
 1048SOL    HW2 3888   0.382   0.390   8.045
 1049SOL     OW 3889   1.703   1.476   8.529
 1049SOL    HW1 3890   1.619   1.459   8.485
 1049SOL    HW2 3891   1.708   1.412   8.599
 1050SOL     OW 3892   0.308   0.513   8.698
 1050SOL    HW1 3893   0.377   0.456   8.733
 1050SOL    HW2 3894   0.328   0.521   8.605
 1051SOL     OW 3895   0.832   1.578   8.123
 1051SOL    HW1 3896   0.809   1.643   8.056
 1051SOL    HW2 3897   0.757   1.519   8.125
 1052SOL     OW 3898   1.429   0.219   8.563
 1052SOL    HW1 3899   1.465   0.147   8.615
 1052SOL    HW2 3900   1.379   0.271   8.625
 1053SOL     OW 3901   0.994   4.498   8.605
 1053SOL    HW1 3902   0.959   4.409   8.599
 1053SOL    HW2 3903   1.089   4.486   8.610
 1054SOL     OW 3904   0.775   1.334   7.769
 1054SOL    HW1 3905   0.748   1.242   7.777
 1054SOL    HW2 3906   0.856   1.340   7.819
 1055SOL     OW 3907   0.621   1.556   8.736
 1055SOL    HW1 3908   0.621   1.638   8.785
 1055SOL    HW2 3909   0.709   1.550   8.699
 1056SOL     OW 3910   1.338   0.050   7.614
 1056SOL    HW1 3911   1.375   4.475   7.568
 1056SOL    HW2 3912   1.260   0.016   7.657
 1057SOL     OW 3913   1.316   0.468   8.117
 1057SOL    HW1 3914   1.260   0.546   8.119
 1057SOL    HW2 3915   1.305   0.429   8.203
 1058SOL     OW 3916   1.586   0.198   8.320
 1058SOL    HW1 3917   1.528   0.214   8.394
 1058SOL    HW2 3918   1.587   0.280   8.272
 1059SOL     OW 3919   0.038   1.049   7.743
 1059SOL    HW1 3920   0.129   1.023   7.729
 1059SOL    HW2 3921   0.020   1.027   7.835
 1060SOL     OW 3922   0.891   1.661   7.785
 1060SOL    HW1 3923   0.815   1.645   7.728
 1060SOL    HW2 3924   0.862   1.732   7.842
 1061SOL     OW 3925   0.241   0.631   9.437
 1061SOL    HW1 3926   0.168   0.600   9.490
 1061SOL    HW2 3927   0.212   0.620   9.346
 1062SOL     OW 3928   0.195   0.295  10.299
 1062SOL    HW1 3929   0.221   0.263  10.385
 1062SOL    HW2 3930   0.134   0.230  10.266
 1063SOL     OW 3931   4.498   0.398   9.945
 1063SOL    HW1 3932   4.423   0.434   9.993
 1063SOL    HW2 3933   4.461   0.324   9.896
 1064SOL     OW 3934   0.569   1.297  10.496
 1064SOL    HW1 3935   0.484   1.302  10.452
 1064SOL    HW2 3936   0.584   1.386  10.528
 1065SOL     OW 3937   1.571   1.514  10.020
 1065SOL    HW1 3938   1.529   1.490  10.102
 1065SOL    HW2 3939   1.500   1.517   9.956
 1066SOL     OW 3940   1.142   0.696  10.001
 1066SOL    HW1 3941   1.185   0.781   9.994
 1066SOL    HW2 3942   1.089   0.702  10.081
 1067SOL     OW 3943   1.780   0.599   9.533
 1067SOL    HW1 3944   1.752   0.594   9.442
 1067SOL    HW2 3945   1.741   0.523   9.575
 1068SOL     OW 3946   0.744   1.137  10.357
 1068SOL    HW1 3947   0.679   1.176  10.416
 1068SOL    HW2 3948   0.784   1.213  10.313
 1069SOL     OW 3949   0.866   0.760   0.026
 1069SOL    HW1 3950   0.870   0.814   0.105
 1069SOL    HW2 3951   0.897   0.818  11.056
 1070SOL     OW 3952   0.683   0.997   9.955
 1070SOL    HW1 3953   0.751   0.989  10.023
 1070SOL    HW2 3954   0.616   1.051   9.995
 1071SOL     OW 3955   0.334   1.416  10.375
 1071SOL    HW1 3956   0.253   1.393  10.329
 1071SOL    HW2 3957   0.382   1.471  10.314
 1072SOL     OW 3958   1.461   1.499  10.667
 1072SOL    HW1 3959   1.521   1.573  10.672
 1072SOL    HW2 3960   1.393   1.518  10.732
 1073SOL     OW 3961   0.440   0.383  10.781
 1073SOL    HW1 3962   0.521   0.332  10.773
 1073SOL    HW2 3963   0.408   0.362  10.869
 1074SOL     OW 3964   1.605   0.441  10.049
 1074SOL    HW1 3965   1.525   0.457   9.998
 1074SOL    HW2 3966   1.614   0.517  10.106
 1075SOL     OW 3967   0.246   1.691   9.782
 1075SOL    HW1 3968   0.228   1.776   9.822
 1075SOL    HW2 3969   0.320   1.706   9.723
 1076SOL     OW 3970   0.260   1.425   9.834
 1076SOL    HW1 3971   0.245   1.519   9.838
 1076SOL    HW2 3972   0.202   1.389   9.900
 1077SOL     OW 3973   0.256   1.084  10.196
 1077SOL    HW1 3974   0.270   0.992  10.218
 1077SOL    HW2 3975   0.194   1.115  10.262
 1078SOL     OW 3976   0.604   1.792  10.735
 1078SOL    HW1 3977   0.525   1.774  10.785
 1078SOL    HW2 3978   0.629   1.881  10.759
 1079SOL     OW 3979   0.568   0.994   9.456
 1079SOL    HW1 3980   0.620   1.031   9.385
 1079SOL    HW2 3981   0.613   1.023   9.536
 1080SOL     OW 3982   1.550   0.139  10.795
 1080SOL    HW1 3983   1.584   0.198  10.728
 1080SOL    HW2 3984   1.624   0.125  10.855
 1081SOL     OW 3985   0.136   0.648   9.881
 1081SOL    HW1 3986   0.088   0.568   9.907
 1081SOL    HW2 3987   0.109   0.713   9.946
 1082SOL     OW 3988   1.843   1.734   9.645
 1082SOL    HW1 3989   1.917   1.720   9.705
 1082SOL    HW2 3990   1.843   1.829   9.629
 1083SOL     OW 3991   0.032   1.606   9.465
 1083SOL    HW1 3992   0.015   1.512   9.456
 1083SOL    HW2 3993   0.051   1.618   9.558
 1084SOL     OW 3994   1.691   0.920   9.955
 1084SOL    HW1 3995   1.772   0.876   9.930
 1084SOL    HW2 3996   1.667   0.972   9.878
 1085SOL     OW 3997   1.650   1.103   9.739
 1085SOL    HW1 3998   1.737   1.104   9.698
 1085SOL    HW2 3999   1.657   1.167   9.810
 1086SOL     OW 4000   0.084   0.772  10.902
 1086SOL    HW1 4001   0.167   0.743  10.864
 1086SOL    HW2 4002   0.096   0.865  10.916
 1087SOL     OW 4003   0.616   1.391  10.047
 1087SOL    HW1 4004   0.570   1.307  10.056
 1087SOL    HW2 4005   0.600   1.418   9.957
 1088SOL     OW 4006   1.285   1.235  10.755
 1088SOL    HW1 4007   1.311   1.174  10.685
 1088SOL    HW2 4008   1.344   1.215  10.827
 1089SOL     OW 4009   0.830   0.021   9.871
 1089SOL    HW1 4010   0.867   0.104   9.842
 1089SOL    HW2 4011   0.736   0.029   9.856
 1090SOL     OW 4012   0.172   0.939  10.589
 1090SOL    HW1 4013   0.262   0.912  10.573
 1090SOL    HW2 4014   0.131   0.935  10.502
 1091SOL     OW 4015   1.531   0.999   9.510
 1091SOL    HW1 4016   1.462   0.942   9.543
 1091SOL    HW2 4017   1.574   1.033   9.589
 1092SOL     OW 4018   1.196   1.808  10.932
 1092SOL    HW1 4019   1.192   1.874  10.863
 1092SOL    HW2 4020   1.209   1.725  10.885
 1093SOL     OW 4021   0.323   0.309  11.040
 1093SOL    HW1 4022   0.385   0.343   0.004
 1093SOL    HW2 4023   0.240   0.303  11.088
 1094SOL     OW 4024   1.468   1.418  10.256
 1094SOL    HW1 4025   1.401   1.436  10.322
 1094SOL    HW2 4026   1.454   1.327  10.231
 1095SOL     OW 4027   1.649   1.751   9.889
 1095SOL    HW1 4028   1.633   1.716   9.801
 1095SOL    HW2 4029   1.632   1.678   9.948
 1096SOL     OW 4030   0.594   0.722   9.579
 1096SOL    HW1 4031   0.592   0.806   9.535
 1096SOL    HW2 4032   0.527   0.729   9.648
 1097SOL     OW 4033   1.294   0.377  10.239
 1097SOL    HW1 4034   1.205   0.346  10.221
 1097SOL    HW2 4035   1.329   0.313  10.302
 1098SOL     OW 4036   1.574   1.671   9.621
 1098SOL    HW1 4037   1.668   1.685   9.613
 1098SOL    HW2 4038   1.545   1.656   9.531
 1099SOL     OW 4039   0.801   0.617  10.760
 1099SOL    HW1 4040   0.771   0.589  10.847
 1099SOL    HW2 4041   0.767   0.551  10.700
 1100SOL     OW 4042   0.965   0.902  10.911
 1100SOL    HW1 4043   1.015   0.832  10.868
 1100SOL    HW2 4044   0.915   0.942  10.840
 1101SOL     OW 4045   1.001   0.421  10.537
 1101SOL    HW1 4046   0.911   0.424  10.569
 1101SOL    HW2 4047   0.998   0.364  10.461
 1102SOL     OW 4048   1.052   0.699   9.734
 1102SOL    HW1 4049   1.072   0.690   9.827
 1102SOL    HW2 4050   0.968   0.655   9.723
 1103SOL     OW 4051   0.089   0.829  10.096
 1103SOL    HW1 4052   0.175   0.821  10.138
 1103SOL    HW2 4053   0.027   0.825  10.169
 1104SOL     OW 4054   0.115   1.850  10.901
 1104SOL    HW1 4055   0.110   1.788  10.974
 1104SOL    HW2 4056   0.047   1.820  10.840
 1105SOL     OW 4057   0.856   0.372   9.500
 1105SOL    HW1 4058   0.920   0.406   9.437
 1105SOL    HW2 4059   0.868   0.278   9.499
 1106SOL     OW 4060   1.382   1.143   9.849
 1106SOL    HW1 4061   1.461   1.132   9.796
 1106SOL    HW2 4062   1.328   1.205   9.799
 1107SOL     OW 4063   0.537   0.214  10.209
 1107SOL    HW1 4064   0.555   0.228  10.302
 1107SOL    HW2 4065   0.536   0.302  10.171
 1108SOL     OW 4066   0.999   1.444   9.778
 1108SOL    HW1 4067   0.969   1.519   9.728
 1108SOL    HW2 4068   0.975   1.464   9.868
 1109SOL     OW 4069   0.359   1.817  10.172
 1109SOL    HW1 4070   0.401   1.732  10.183
 1109SOL    HW2 4071   0.428   1.880  10.193
 1110SOL     OW 4072   1.802   1.051  10.181
 1110SOL    HW1 4073   1.749   1.030  10.104
 1110SOL    HW2 4074   1.738   1.058  10.252
 1111SOL     OW 4075   1.230   1.533  10.819
 1111SOL    HW1 4076   1.242   1.442  10.845
 1111SOL    HW2 4077   1.158   1.531  10.756
 1112SOL     OW 4078   0.309   0.950   9.573
 1112SOL    HW1 4079   0.391   0.976   9.530
 1112SOL    HW2 4080   0.299   0.857   9.552
 1113SOL     OW 4081   1.483   0.749  10.030
 1113SOL    HW1 4082   1.477   0.709  10.117
 1113SOL    HW2 4083   1.561   0.805  10.034
 1114SOL     OW 4084   0.459   1.265  11.051
 1114SOL    HW1 4085   0.426   1.286  10.963
 1114SOL    HW2 4086   0.398   1.199  11.084
 1115SOL     OW 4087   1.125   1.778   9.539
 1115SOL    HW1 4088   1.049   1.739   9.582
 1115SOL    HW2 4089   1.149   1.715   9.471
 1116SOL     OW 4090   0.153   0.256  10.821
 1116SOL    HW1 4091   0.125   0.342  10.790
 1116SOL    HW2 4092   0.212   0.275  10.894
 1117SOL     OW 4093   1.628   1.382   9.403
 1117SOL    HW1 4094   1.588   1.467   9.386
 1117SOL    HW2 4095   1.560   1.318   9.381
 1118SOL     OW 4096   0.469   1.741   9.623
 1118SOL    HW1 4097   0.514   1.795   9.688
 1118SOL    HW2 4098   0.539   1.703   9.570
 1119SOL     OW 4099   1.431   0.149   9.733
 1119SOL    HW1 4100   1.414   0.091   9.660
 1119SOL    HW2 4101   1.524   0.136   9.754
 1120SOL     OW 4102   0.248   1.786  10.536
 1120SOL    HW1 4103   0.295   1.710  10.570
 1120SOL    HW2 4104   0.214   1.757  10.451
 1121SOL     OW 4105   0.940   1.700  10.206
 1121SOL    HW1 4106   1.021   1.652  10.226
 1121SOL    HW2 4107   0.899   1.649  10.136
 1122SOL     OW 4108   0.397   0.687   9.780
 1122SOL    HW1 4109   0.421   0.596   9.797
 1122SOL    HW2 4110   0.305   0.693   9.806
 1123SOL     OW 4111   0.631   0.120   9.429
 1123SOL    HW1 4112   0.720   0.085   9.442
 1123SOL    HW2 4113   0.600   0.077   9.349
 1124SOL     OW 4114   0.757   0.280  11.047
 1124SOL    HW1 4115   0.823   0.212  11.061
 1124SOL    HW2 4116   0.704   0.278   0.026
 1125SOL     OW 4117   0.876   1.523  10.505
 1125SOL    HW1 4118   0.858   1.487  10.418
 1125SOL    HW2 4119   0.948   1.470  10.539
 1126SOL     OW 4120   1.344   0.593  10.755
 1126SOL    HW1 4121   1.397   0.574  10.832
 1126SOL    HW2 4122   1.369   0.682  10.730
 1127SOL     OW 4123   0.819   1.389  10.257
 1127SOL    HW1 4124   0.904   1.378  10.214
 1127SOL    HW2 4125   0.756   1.396  10.185
 1128SOL     OW 4126   0.927   0.528  10.205
 1128SOL    HW1 4127   0.909   0.524  10.111
 1128SOL    HW2 4128   0.955   0.439  10.228
 1129SOL     OW 4129   0.570   0.074   9.816
 1129SOL    HW1 4130   0.486   0.059   9.859
 1129SOL    HW2 4131   0.552   0.138   9.748
 1130SOL     OW 4132   1.428   1.201   9.349
 1130SOL    HW1 4133   1.457   1.125   9.400
 1130SOL    HW2 4134   1.342   1.223   9.385
 1131SOL     OW 4135   0.305   0.067   9.504
 1131SOL    HW1 4136   0.388   0.116   9.507
 1131SOL    HW2 4137   0.317   4.497   9.568
 1132SOL     OW 4138   0.963   0.240   9.771
 1132SOL    HW1 4139   0.909   0.309   9.732
 1132SOL    HW2 4140   1.052   0.273   9.763
 1133SOL     OW 4141   1.080   0.694  10.771
 1133SOL    HW1 4142   1.009   0.630  10.772
 1133SOL    HW2 4143   1.160   0.641  10.770
 1134SOL     OW 4144   1.218   1.574  10.106
 1134SOL    HW1 4145   1.233   1.638  10.037
 1134SOL    HW2 4146   1.288   1.590  10.169
 1135SOL     OW 4147   0.470   1.154  10.040
 1135SOL    HW1 4148   0.403   1.134  10.106
 1135SOL    HW2 4149   0.426   1.140   9.956
 1136SOL     OW 4150   1.262   1.792   9.922
 1136SOL    HW1 4151   1.310   1.854   9.868
 1136SOL    HW2 4152   1.194   1.844   9.964
 1137SOL     OW 4153   1.025   0.538   9.333
 1137SOL    HW1 4154   0.979   0.620   9.317
 1137SOL    HW2 4155   1.084   0.557   9.406
 1138SOL     OW 4156   0.079   0.499  10.718
 1138SOL    HW1 4157   0.147   0.510  10.652
 1138SOL    HW2 4158   0.060   0.588  10.747
 1139SOL     OW 4159   0.553   0.249  10.480
 1139SOL    HW1 4160   0.580   0.165  10.517
 1139SOL    HW2 4161   0.459   0.254  10.498
 1140SOL     OW 4162   0.864   0.505   9.940
 1140SOL    HW1 4163   0.829   0.540   9.857
 1140SOL    HW2 4164   0.813   0.426   9.956
 1141SOL     OW 4165   0.943   0.008  10.121
 1141SOL    HW1 4166   0.906   0.014  10.033
 1141SOL    HW2 4167   0.964   4.415  10.131
 1142SOL     OW 4168   1.438   1.160  10.166
 1142SOL    HW1 4169   1.369   1.094  10.168
 1142SOL    HW2 4170   1.461   1.168  10.074
 1143SOL     OW 4171   1.464   0.612  10.274
 1143SOL    HW1 4172   1.406   0.535  10.275
 1143SOL    HW2 4173   1.519   0.601  10.352
 1144SOL     OW 4174   1.840   0.810   9.696
 1144SOL    HW1 4175   1.899   0.761   9.754
 1144SOL    HW2 4176   1.816   0.747   9.628
 1145SOL     OW 4177   0.493   1.423   9.463
 1145SOL    HW1 4178   0.414   1.396   9.510
 1145SOL    HW2 4179   0.485   1.382   9.377
 1146SOL     OW 4180   1.678   1.266   9.949
 1146SOL    HW1 4181   1.773   1.265   9.966
 1146SOL    HW2 4182   1.650   1.354   9.974
 1147SOL     OW 4183   1.394   0.575   9.379
 1147SOL    HW1 4184   1.332   0.557   9.449
 1147SOL    HW2 4185   1.480   0.560   9.419
 1148SOL     OW 4186   0.514   0.262   9.624
 1148SOL    HW1 4187   0.569   0.216   9.561
 1148SOL    HW2 4188   0.498   0.347   9.583
 1149SOL     OW 4189   1.757   1.228  10.849
 1149SOL    HW1 4190   1.849   1.203  10.841
 1149SOL    HW2 4191   1.760   1.313  10.893
 1150SOL     OW 4192   1.057   1.353  10.647
 1150SOL    HW1 4193   0.978   1.321  10.690
 1150SOL    HW2 4194   1.129   1.305  10.688
 1151SOL     OW 4195   1.138   1.216  10.411
 1151SOL    HW1 4196   1.070   1.247  10.471
 1151SOL    HW2 4197   1.110   1.246  10.325
 1152SOL     OW 4198   1.625   1.096  10.386
 1152SOL    HW1 4199   1.620   1.158  10.458
 1152SOL    HW2 4200   1.548   1.115  10.332
 1153SOL     OW 4201   0.891   0.133  10.691
 1153SOL    HW1 4202   0.919   0.087  10.611
 1153SOL    HW2 4203   0.973   0.164  10.730
 1154SOL     OW 4204   0.710   1.063   9.683
 1154SOL    HW1 4205   0.696   1.042   9.775
 1154SOL    HW2 4206   0.785   1.010   9.657
 1155SOL     OW 4207   0.427   0.827  10.560
 1155SOL    HW1 4208   0.495   0.836  10.626
 1155SOL    HW2 4209   0.375   0.752  10.588
 1156SOL     OW 4210   1.271   0.383  10.587
 1156SOL    HW1 4211   1.301   0.459  10.637
 1156SOL    HW2 4212   1.182   0.406  10.561
 1157SOL     OW 4213   0.066   1.578  10.668
 1157SOL    HW1 4214   0.044   1.665  10.635
 1157SOL    HW2 4215   0.161   1.574  10.666
 1158SOL     OW 4216   0.332   1.114   9.804
 1158SOL    HW1 4217   0.345   1.190   9.747
 1158SOL    HW2 4218   0.331   1.039   9.745
 1159SOL     OW 4219   0.560   0.513  10.160
 1159SOL    HW1 4220   0.569   0.576  10.088
 1159SOL    HW2 4221   0.621   0.544  10.226
 1160SOL     OW 4222   1.247   1.350   9.701
 1160SOL    HW1 4223   1.302   1.420   9.733
 1160SOL    HW2 4224   1.159   1.371   9.734
 1161SOL     OW 4225   1.289   1.463  10.456
 1161SOL    HW1 4226   1.346   1.466  10.532
 1161SOL    HW2 4227   1.236   1.384  10.469
 1162SOL     OW 4228   1.577   0.623   9.790
 1162SOL    HW1 4229   1.528   0.664   9.861
 1162SOL    HW2 4230   1.621   0.695   9.746
 1163SOL     OW 4231   0.344   1.532  10.618
 1163SOL    HW1 4232   0.332   1.485  10.535
 1163SOL    HW2 4233   0.439   1.545  10.625
 1164SOL     OW 4234   0.506   0.745  10.974
 1164SOL    HW1 4235   0.549   0.786  10.899
 1164SOL    HW2 4236   0.565   0.674  10.999
 1165SOL     OW 4237   1.603   0.751  10.964
 1165SOL    HW1 4238   1.524   0.804  10.953
 1165SOL    HW2 4239   1.673   0.802  10.923
 1166SOL     OW 4240   0.589   0.877  10.338
 1166SOL    HW1 4241   0.624   0.966  10.342
 1166SOL    HW2 4242   0.533   0.870  10.415
 1167SOL     OW 4243   1.346   0.862  10.337
 1167SOL    HW1 4244   1.260   0.846  10.299
 1167SOL    HW2 4245   1.393   0.779  10.325
 1168SOL     OW 4246   1.196   0.537   9.565
 1168SOL    HW1 4247   1.205   0.458   9.618
 1168SOL    HW2 4248   1.154   0.601   9.622
 1169SOL     OW 4249   0.282   0.208  10.548
 1169SOL    HW1 4250   0.248   0.226  10.635
 1169SOL    HW2 4251   0.328   0.124  10.557
 1170SOL     OW 4252   0.014   1.316  10.598
 1170SOL    HW1 4253   0.059   1.265  10.665
 1170SOL    HW2 4254   0.025   1.407  10.626
 1171SOL     OW 4255   0.719   0.628  10.359
 1171SOL    HW1 4256   0.796   0.613  10.305
 1171SOL    HW2 4257   0.691   0.717  10.338
 1172SOL     OW 4258   0.326   0.070   9.935
 1172SOL    HW1 4259   0.302   0.159   9.961
 1172SOL    HW2 4260   0.314   0.018  10.014
 1173SOL     OW 4261   1.625   0.388   9.661
 1173SOL    HW1 4262   1.647   0.320   9.726
 1173SOL    HW2 4263   1.598   0.463   9.714
 1174SOL     OW 4264   1.034   0.767  10.270
 1174SOL    HW1 4265   1.023   0.782  10.364
 1174SOL    HW2 4266   1.003   0.678  10.256
 1175SOL     OW 4267   0.972   1.573  11.003
 1175SOL    HW1 4268   0.957   1.623  10.923
 1175SOL    HW2 4269   0.994   1.485  10.973
 1176SOL     OW 4270   1.852   1.483  10.915
 1176SOL    HW1 4271   1.873   1.519  10.829
 1176SOL    HW2 4272   1.908   1.532  10.975
 1177SOL     OW 4273   0.350   0.937  11.087
 1177SOL    HW1 4274   0.417   0.963   0.050
 1177SOL    HW2 4275   0.389   0.864  11.039
 1178SOL     OW 4276   1.527   0.260   9.437
 1178SOL    HW1 4277   1.460   0.202   9.473
 1178SOL    HW2 4278   1.560   0.308   9.513
 1179SOL     OW 4279   1.286   0.826   9.337
 1179SOL    HW1 4280   1.328   0.740   9.340
 1179SOL    HW2 4281   1.318   0.865   9.255
 1180SOL     OW 4282   1.070   1.339  10.167
 1180SOL    HW1 4283   1.074   1.267  10.103
 1180SOL    HW2 4284   1.127   1.406  10.131
 1181SOL     OW 4285   0.319   0.813  10.249
 1181SOL    HW1 4286   0.413   0.831  10.251
 1181SOL    HW2 4287   0.312   0.720  10.274
 1182SOL     OW 4288   0.328   0.533  10.295
 1182SOL    HW1 4289   0.283   0.450  10.281
 1182SOL    HW2 4290   0.406   0.527  10.240
 1183SOL     OW 4291   1.142   0.216  10.771
 1183SOL    HW1 4292   1.195   0.222  10.850
 1183SOL    HW2 4293   1.186   0.271  10.707
 1184SOL     OW 4294   4.491   1.318   9.522
 1184SOL    HW1 4295   4.398   1.336   9.503
 1184SOL    HW2 4296   4.494   1.225   9.543
 1185SOL     OW 4297   0.104   1.763  10.250
 1185SOL    HW1 4298   0.064   1.723  10.172
 1185SOL    HW2 4299   0.191   1.790  10.220
 1186SOL     OW 4300   0.493   1.575  10.217
 1186SOL    HW1 4301   0.561   1.638  10.239
 1186SOL    HW2 4302   0.536   1.513  10.158
 1187SOL     OW 4303   0.973   0.794  10.535
 1187SOL    HW1 4304   1.032   0.775  10.608
 1187SOL    HW2 4305   0.894   0.743  10.555
 1188SOL     OW 4306   0.020   0.560  10.398
 1188SOL    HW1 4307   0.110   0.537  10.376
 1188SOL    HW2 4308   4.499   0.506  10.474
 1189SOL     OW 4309   0.812   0.577   9.673
 1189SOL    HW1 4310   0.817   0.507   9.609
 1189SOL    HW2 4311   0.739   0.632   9.643
 1190SOL     OW 4312   1.636   0.601  10.489
 1190SOL    HW1 4313   1.627   0.546  10.567
 1190SOL    HW2 4314   1.725   0.584  10.458
 1191SOL     OW 4315   0.259   1.577  11.048
 1191SOL    HW1 4316   0.202   1.592   0.024
 1191SOL    HW2 4317   0.245   1.485  11.026
 1192SOL     OW 4318   0.711   0.455  10.568
 1192SOL    HW1 4319   0.658   0.381  10.541
 1192SOL    HW2 4320   0.706   0.516  10.494
 1193SOL     OW 4321   0.938   1.680  10.752
 1193SOL    HW1 4322   0.906   1.643  10.670
 1193SOL    HW2 4323   0.920   1.774  10.744
 1194SOL     OW 4324   0.470   0.491   9.486
 1194SOL    HW1 4325   0.532   0.559   9.511
 1194SOL    HW2 4326   0.388   0.537   9.471
 1195SOL     OW 4327   0.161   1.148  10.760
 1195SOL    HW1 4328   0.135   1.111  10.844
 1195SOL    HW2 4329   0.166   1.072  10.701
 1196SOL     OW 4330   1.318   1.050  10.537
 1196SOL    HW1 4331   1.342   0.984  10.472
 1196SOL    HW2 4332   1.254   1.106  10.493
 1197SOL     OW 4333   1.317   0.856   9.613
 1197SOL    HW1 4334   1.244   0.827   9.666
 1197SOL    HW2 4335   1.288   0.844   9.523
 1198SOL     OW 4336   1.765   1.742  10.458
 1198SOL    HW1 4337   1.836   1.767  10.399
 1198SOL    HW2 4338   1.749   1.650  10.438
 1199SOL     OW 4339   1.240   1.734  10.413
 1199SOL    HW1 4340   1.323   1.759  10.374
 1199SOL    HW2 4341   1.250   1.641  10.434
 1200SOL     OW 4342   0.073   1.189  10.362
 1200SOL    HW1 4343   0.054   1.217  10.451
 1200SOL    HW2 4344   0.043   1.261  10.307
 1201SOL     OW 4345   1.721   0.128   9.791
 1201SOL    HW1 4346   1.787   0.144   9.724
 1201SOL    HW2 4347   1.758   0.058   9.845
 1202SOL     OW 4348   1.391   1.567   9.803
 1202SOL    HW1 4349   1.448   1.601   9.734
 1202SOL    HW2 4350   1.340   1.643   9.831
 1203SOL     OW 4351   1.280   0.931   9.983
 1203SOL    HW1 4352   1.353   0.870   9.992
 1203SOL    HW2 4353   1.314   1.002   9.929
 1204SOL     OW 4354   0.808   1.278  10.732
 1204SOL    HW1 4355   0.778   1.313  10.816
 1204SOL    HW2 4356   0.737   1.298  10.671
 1205SOL     OW 4357   0.672   1.627   9.465
 1205SOL    HW1 4358   0.684   1.640   9.371
 1205SOL    HW2 4359   0.617   1.549   9.471
 1206SOL     OW 4360   1.612   1.720  10.689
 1206SOL    HW1 4361   1.668   1.736  10.613
 1206SOL    HW2 4362   1.598   1.807  10.727
 1207SOL     OW 4363   1.839   0.151  10.275
 1207SOL    HW1 4364   1.869   0.071  10.232
 1207SOL    HW2 4365   1.753   0.167  10.238
 1208SOL     OW 4366   0.255   0.321  10.024
 1208SOL    HW1 4367   0.170   0.355   9.995
 1208SOL    HW2 4368   0.246   0.311  10.118
 1209SOL     OW 4369   1.208   1.601   9.343
 1209SOL    HW1 4370   1.197   1.510   9.370
 1209SOL    HW2 4371   1.142   1.615   9.275
 1210SOL     OW 4372   0.828   1.007  10.693
 1210SOL    HW1 4373   0.872   0.993  10.609
 1210SOL    HW2 4374   0.825   1.102  10.703
 1211SOL     OW 4375   0.915   0.911   9.601
 1211SOL    HW1 4376   0.976   0.944   9.534
 1211SOL    HW2 4377   0.965   0.843   9.647
 1212SOL     OW 4378   1.488   1.630   9.354
 1212SOL    HW1 4379   1.395   1.619   9.338
 1212SOL    HW2 4380   1.527   1.634   9.267
 1213SOL     OW 4381   0.360   1.325  10.811
 1213SOL    HW1 4382   0.349   1.397  10.749
 1213SOL    HW2 4383   0.293   1.261  10.785
 1214SOL     OW 4384   1.611   1.281  10.592
 1214SOL    HW1 4385   1.667   1.261  10.667
 1214SOL    HW2 4386   1.554   1.352  10.623
 1215SOL     OW 4387   1.062   1.111  10.020
 1215SOL    HW1 4388   0.989   1.061  10.057
 1215SOL    HW2 4389   1.126   1.045   9.996
 1216SOL     OW 4390   0.998   0.248  10.324
 1216SOL    HW1 4391   1.007   0.234  10.230
 1216SOL    HW2 4392   0.987   0.160  10.361
 1217SOL     OW 4393   0.607   1.488   9.792
 1217SOL    HW1 4394   0.655   1.439   9.725
 1217SOL    HW2 4395   0.527   1.517   9.748
 1218SOL     OW 4396   1.721   0.392  10.694
 1218SOL    HW1 4397   1.796   0.452  10.697
 1218SOL    HW2 4398   1.749   0.323  10.634
 1219SOL     OW 4399   0.253   1.343   9.582
 1219SOL    HW1 4400   0.159   1.337   9.571
 1219SOL    HW2 4401   0.265   1.376   9.672
 1220SOL     OW 4402   0.113   1.024  10.998
 1220SOL    HW1 4403   0.062   1.047  11.076
 1220SOL    HW2 4404   0.200   1.003  11.032
 1221SOL     OW 4405   0.651   0.199  10.803
 1221SOL    HW1 4406   0.729   0.173  10.755
 1221SOL    HW2 4407   0.684   0.230  10.887
 1222SOL     OW 4408   0.076   0.321   9.332
 1222SOL    HW1 4409   4.483   0.325   9.356
 1222SOL    HW2 4410   0.096   0.410   9.302
 1223SOL     OW 4411   1.426   0.852  10.710
 1223SOL    HW1 4412   1.376   0.919  10.665
 1223SOL    HW2 4413   1.515   0.860  10.675
 1224SOL     OW 4414   0.086   0.187   9.611
 1224SOL    HW1 4415   0.075   0.266   9.558
 1224SOL    HW2 4416   0.167   0.147   9.578
 1225SOL     OW 4417   1.178   1.334   9.428
 1225SOL    HW1 4418   1.087   1.305   9.429
 1225SOL    HW2 4419   1.204   1.335   9.520
 1226SOL     OW 4420   0.630   0.827  10.744
 1226SOL    HW1 4421   0.686   0.904  10.730
 1226SOL    HW2 4422   0.690   0.753  10.745
 1227SOL     OW 4423   1.486   1.786  10.296
 1227SOL    HW1 4424   1.507   1.852  10.230
 1227SOL    HW2 4425   1.570   1.763  10.335
 1228SOL     OW 4426   0.711   0.565  11.012
 1228SOL    HW1 4427   0.763   0.624  11.066
 1228SOL    HW2 4428   0.742   0.477  11.036
 1229SOL     OW 4429   0.381   1.749  10.879
 1229SOL    HW1 4430   0.304   1.804  10.867
 1229SOL    HW2 4431   0.352   1.681  10.939
 1230SOL     OW 4432   1.664   0.881  10.567
 1230SOL    HW1 4433   1.659   0.796  10.523
 1230SOL    HW2 4434   1.656   0.945  10.497
 1231SOL     OW 4435   1.224   0.336   9.753
 1231SOL    HW1 4436   1.293   0.271   9.739
 1231SOL    HW2 4437   1.251   0.384   9.831
 1232SOL     OW 4438   0.582   0.732   9.986
 1232SOL    HW1 4439   0.624   0.817   9.972
 1232SOL    HW2 4440   0.518   0.725   9.915
 1233SOL     OW 4441   1.742   0.315  10.962
 1233SOL    HW1 4442   1.726   0.352  10.876
 1233SOL    HW2 4443   1.664   0.337  11.013
 1234SOL     OW 4444   1.750   0.936  10.825
 1234SOL    HW1 4445   1.740   1.030  10.839
 1234SOL    HW2 4446   1.731   0.923  10.732
 1235SOL     OW 4447   0.865   1.364   9.354
 1235SOL    HW1 4448   0.827   1.392   9.437
 1235SOL    HW2 4449   0.879   1.446   9.306
 1236SOL     OW 4450   0.665   1.784  10.249
 1236SOL    HW1 4451   0.645   1.876  10.229
 1236SOL    HW2 4452   0.760   1.777  10.241
 1237SOL     OW 4453   0.870   0.972  10.163
 1237SOL    HW1 4454   0.921   0.900  10.199
 1237SOL    HW2 4455   0.831   1.014  10.239
 1238SOL     OW 4456   1.077   0.989   9.400
 1238SOL    HW1 4457   1.055   1.041   9.322
 1238SOL    HW2 4458   1.151   0.934   9.372
 1239SOL     OW 4459   1.844   1.550  10.149
 1239SOL    HW1 4460   1.762   1.539  10.101
 1239SOL    HW2 4461   1.834   1.496  10.227
 1240SOL     OW 4462   0.127   1.225   9.978
 1240SOL    HW1 4463   0.148   1.186  10.063
 1240SOL    HW2 4464   0.183   1.178   9.916
 1241SOL     OW 4465   0.682   1.399  10.944
 1241SOL    HW1 4466   0.614   1.346  10.987
 1241SOL    HW2 4467   0.635   1.477  10.915
 1242SOL     OW 4468   1.791   0.175  10.547
 1242SOL    HW1 4469   1.815   0.085  10.570
 1242SOL    HW2 4470   1.811   0.182  10.454
 1243SOL     OW 4471   0.445   0.426   9.846
 1243SOL    HW1 4472   0.456   0.358   9.779
 1243SOL    HW2 4473   0.382   0.390   9.908
 1244SOL     OW 4474   1.704   1.482  10.396
 1244SOL    HW1 4475   1.621   1.462  10.352
 1244SOL    HW2 4476   1.711   1.416  10.465
 1245SOL     OW 4477   0.303   0.512  10.566
 1245SOL    HW1 4478   0.368   0.455  10.606
 1245SOL    HW2 4479   0.329   0.517  10.474
 1246SOL     OW 4480   0.832   1.579   9.985
 1246SOL    HW1 4481   0.810   1.644   9.918
 1246SOL    HW2 4482   0.757   1.520   9.986
 1247SOL     OW 4483   1.428   0.221  10.425
 1247SOL    HW1 4484   1.469   0.153  10.479
 1247SOL    HW2 4485   1.379   0.275  10.488
 1248SOL     OW 4486   0.994   4.499  10.465
 1248SOL    HW1 4487   0.959   4.410  10.458
 1248SOL    HW2 4488   1.089   4.487  10.467
 1249SOL     OW 4489   0.775   1.334   9.631
 1249SOL    HW1 4490   0.748   1.242   9.639
 1249SOL    HW2 4491   0.856   1.340   9.681
 1250SOL     OW 4492   0.621   1.553  10.602
 1250SOL    HW1 4493   0.619   1.638  10.646
 1250SOL    HW2 4494   0.708   1.549  10.563
 1251SOL     OW 4495   1.338   0.050   9.476
 1251SOL    HW1 4496   1.375   4.475   9.430
 1251SOL    HW2 4497   1.260   0.016   9.519
 1252SOL     OW 4498   1.316   0.468   9.979
 1252SOL    HW1 4499   1.261   0.546   9.981
 1252SOL    HW2 4500   1.305   0.428  10.065
 1253SOL     OW 4501   1.585   0.198  10.182
 1253SOL    HW1 4502   1.527   0.214  10.256
 1253SOL    HW2 4503   1.587   0.280  10.134
 1254SOL     OW 4504   0.038   1.049   9.605
 1254SOL    HW1 4505   0.129   1.023   9.592
 1254SOL    HW2 4506   0.020   1.027   9.697
 1255SOL     OW 4507   0.890   1.661   9.647
 1255SOL    HW1 4508   0.815   1.645   9.590
 1255SOL    HW2 4509   0.862   1.732   9.704
 1256SOL     OW 4510   0.236   2.451   0.105
 1256SOL    HW1 4511   0.164   2.442   0.166
 1256SOL    HW2 4512   0.200   2.502   0.032
 1257SOL     OW 4513   0.212   2.135   0.990
 1257SOL    HW1 4514   0.248   2.108   1.074
 1257SOL    HW2 4515   0.137   2.076   0.976
 1258SOL     OW 4516   0.006   2.264   0.638
 1258SOL    HW1 4517   4.425   2.298   0.676
 1258SOL    HW2 4518   4.479   2.182   0.596
 1259SOL     OW 4519   0.569   3.160   1.184
 1259SOL    HW1 4520   0.483   3.165   1.143
 1259SOL    HW2 4521   0.585   3.248   1.218
 1260SOL     OW 4522   1.571   3.377   0.709
 1260SOL    HW1 4523   1.527   3.353   0.790
 1260SOL    HW2 4524   1.501   3.379   0.644
 1261SOL     OW 4525   1.133   2.561   0.695
 1261SOL    HW1 4526   1.181   2.643   0.684
 1261SOL    HW2 4527   1.086   2.573   0.777
 1262SOL     OW 4528   1.761   2.473   0.229
 1262SOL    HW1 4529   1.754   2.445   0.138
 1262SOL    HW2 4530   1.738   2.395   0.280
 1263SOL     OW 4531   0.744   2.999   1.046
 1263SOL    HW1 4532   0.679   3.037   1.105
 1263SOL    HW2 4533   0.785   3.074   1.003
 1264SOL     OW 4534   0.874   2.622   1.822
 1264SOL    HW1 4535   0.859   2.691   1.887
 1264SOL    HW2 4536   0.897   2.669   1.742
 1265SOL     OW 4537   0.684   2.858   0.646
 1265SOL    HW1 4538   0.751   2.851   0.714
 1265SOL    HW2 4539   0.617   2.914   0.686
 1266SOL     OW 4540   0.714   3.010   1.820
 1266SOL    HW1 4541   0.762   3.088   1.851
 1266SOL    HW2 4542   0.635   3.045   1.780
 1267SOL     OW 4543   0.333   3.279   1.067
 1267SOL    HW1 4544   0.252   3.257   1.021
 1267SOL    HW2 4545   0.382   3.334   1.006
 1268SOL     OW 4546   1.459   3.364   1.361
 1268SOL    HW1 4547   1.513   3.442   1.371
 1268SOL    HW2 4548   1.390   3.374   1.427
 1269SOL     OW 4549   0.452   2.261   1.478
 1269SOL    HW1 4550   0.530   2.206   1.487
 1269SOL    HW2 4551   0.379   2.201   1.493
 1270SOL     OW 4552   1.585   2.307   0.748
 1270SOL    HW1 4553   1.510   2.325   0.691
 1270SOL    HW2 4554   1.590   2.383   0.805
 1271SOL     OW 4555   0.244   3.555   0.477
 1271SOL    HW1 4556   0.233   3.641   0.517
 1271SOL    HW2 4557   0.313   3.567   0.411
 1272SOL     OW 4558   1.137   3.204   1.695
 1272SOL    HW1 4559   1.178   3.198   1.781
 1272SOL    HW2 4560   1.085   3.124   1.686
 1273SOL     OW 4561   0.250   3.289   0.526
 1273SOL    HW1 4562   0.240   3.385   0.526
 1273SOL    HW2 4563   0.190   3.259   0.594
 1274SOL     OW 4564   0.257   2.945   0.887
 1274SOL    HW1 4565   0.269   2.853   0.909
 1274SOL    HW2 4566   0.195   2.977   0.952
 1275SOL     OW 4567   0.606   3.654   1.429
 1275SOL    HW1 4568   0.523   3.636   1.473
 1275SOL    HW2 4569   0.628   3.744   1.454
 1276SOL     OW 4570   0.559   2.859   0.160
 1276SOL    HW1 4571   0.613   2.890   0.087
 1276SOL    HW2 4572   0.606   2.888   0.238
 1277SOL     OW 4573   1.594   1.984   1.472
 1277SOL    HW1 4574   1.618   2.059   1.417
 1277SOL    HW2 4575   1.576   2.022   1.558
 1278SOL     OW 4576   0.135   2.515   0.569
 1278SOL    HW1 4577   0.093   2.433   0.595
 1278SOL    HW2 4578   0.108   2.578   0.636
 1279SOL     OW 4579   1.845   3.617   0.327
 1279SOL    HW1 4580   1.914   3.590   0.388
 1279SOL    HW2 4581   1.863   3.709   0.309
 1280SOL     OW 4582   0.079   3.447   0.152
 1280SOL    HW1 4583   0.048   3.358   0.167
 1280SOL    HW2 4584   0.059   3.494   0.233
 1281SOL     OW 4585   1.690   2.780   0.645
 1281SOL    HW1 4586   1.769   2.733   0.618
 1281SOL    HW2 4587   1.666   2.833   0.569
 1282SOL     OW 4588   1.649   2.963   0.432
 1282SOL    HW1 4589   1.732   2.969   0.385
 1282SOL    HW2 4590   1.656   3.028   0.502
 1283SOL     OW 4591   0.106   2.629   1.565
 1283SOL    HW1 4592   0.192   2.615   1.525
 1283SOL    HW2 4593   0.109   2.719   1.597
 1284SOL     OW 4594   0.617   3.254   0.737
 1284SOL    HW1 4595   0.572   3.170   0.747
 1284SOL    HW2 4596   0.600   3.280   0.646
 1285SOL     OW 4597   1.285   3.098   1.421
 1285SOL    HW1 4598   1.315   3.029   1.361
 1285SOL    HW2 4599   1.344   3.092   1.495
 1286SOL     OW 4600   0.824   1.867   0.517
 1286SOL    HW1 4601   0.862   1.952   0.495
 1286SOL    HW2 4602   0.730   1.883   0.521
 1287SOL     OW 4603   0.175   2.801   1.277
 1287SOL    HW1 4604   0.266   2.779   1.258
 1287SOL    HW2 4605   0.132   2.802   1.192
 1288SOL     OW 4606   1.504   2.876   0.208
 1288SOL    HW1 4607   1.442   2.813   0.247
 1288SOL    HW2 4608   1.561   2.901   0.281
 1289SOL     OW 4609   1.185   3.676   1.626
 1289SOL    HW1 4610   1.189   3.736   1.552
 1289SOL    HW2 4611   1.202   3.590   1.588
 1290SOL     OW 4612   0.337   2.120   1.811
 1290SOL    HW1 4613   0.379   2.195   1.853
 1290SOL    HW2 4614   0.245   2.125   1.840
 1291SOL     OW 4615   1.468   3.281   0.946
 1291SOL    HW1 4616   1.401   3.297   1.013
 1291SOL    HW2 4617   1.454   3.190   0.920
 1292SOL     OW 4618   1.654   3.616   0.578
 1292SOL    HW1 4619   1.635   3.584   0.490
 1292SOL    HW2 4620   1.635   3.542   0.635
 1293SOL     OW 4621   0.595   2.573   0.269
 1293SOL    HW1 4622   0.597   2.659   0.226
 1293SOL    HW2 4623   0.531   2.583   0.339
 1294SOL     OW 4624   1.275   2.231   0.936
 1294SOL    HW1 4625   1.187   2.194   0.944
 1294SOL    HW2 4626   1.330   2.176   0.992
 1295SOL     OW 4627   1.582   3.535   0.315
 1295SOL    HW1 4628   1.674   3.559   0.306
 1295SOL    HW2 4629   1.553   3.517   0.225
 1296SOL     OW 4630   0.793   2.477   1.448
 1296SOL    HW1 4631   0.765   2.450   1.536
 1296SOL    HW2 4632   0.757   2.409   1.391
 1297SOL     OW 4633   1.393   2.336   1.677
 1297SOL    HW1 4634   1.397   2.380   1.762
 1297SOL    HW2 4635   1.451   2.261   1.686
 1298SOL     OW 4636   0.950   2.747   1.586
 1298SOL    HW1 4637   1.005   2.679   1.547
 1298SOL    HW2 4638   0.904   2.785   1.512
 1299SOL     OW 4639   0.993   2.273   1.233
 1299SOL    HW1 4640   0.904   2.289   1.264
 1299SOL    HW2 4641   0.983   2.229   1.149
 1300SOL     OW 4642   1.054   2.565   0.426
 1300SOL    HW1 4643   1.074   2.558   0.519
 1300SOL    HW2 4644   0.971   2.520   0.415
 1301SOL     OW 4645   0.090   2.690   0.786
 1301SOL    HW1 4646   0.175   2.682   0.831
 1301SOL    HW2 4647   0.026   2.690   0.857
 1302SOL     OW 4648   0.120   3.725   1.582
 1302SOL    HW1 4649   0.114   3.701   1.675
 1302SOL    HW2 4650   0.045   3.683   1.541
 1303SOL     OW 4651   0.893   2.214   0.214
 1303SOL    HW1 4652   0.934   2.275   0.153
 1303SOL    HW2 4653   0.904   2.128   0.174
 1304SOL     OW 4654   1.704   2.436   1.834
 1304SOL    HW1 4655   1.668   2.507   1.782
 1304SOL    HW2 4656   1.732   2.371   1.770
 1305SOL     OW 4657   1.381   3.003   0.541
 1305SOL    HW1 4658   1.459   2.991   0.486
 1305SOL    HW2 4659   1.328   3.066   0.492
 1306SOL     OW 4660   0.555   2.039   0.896
 1306SOL    HW1 4661   0.556   2.072   0.986
 1306SOL    HW2 4662   0.554   2.117   0.842
 1307SOL     OW 4663   0.996   3.304   0.472
 1307SOL    HW1 4664   0.967   3.379   0.421
 1307SOL    HW2 4665   0.972   3.325   0.562
 1308SOL     OW 4666   0.359   3.678   0.863
 1308SOL    HW1 4667   0.401   3.592   0.874
 1308SOL    HW2 4668   0.429   3.741   0.882
 1309SOL     OW 4669   1.801   2.911   0.872
 1309SOL    HW1 4670   1.749   2.893   0.794
 1309SOL    HW2 4671   1.736   2.919   0.942
 1310SOL     OW 4672   1.227   3.402   1.513
 1310SOL    HW1 4673   1.215   3.330   1.575
 1310SOL    HW2 4674   1.158   3.389   1.447
 1311SOL     OW 4675   0.304   2.812   0.287
 1311SOL    HW1 4676   0.385   2.838   0.244
 1311SOL    HW2 4677   0.315   2.718   0.305
 1312SOL     OW 4678   1.481   2.613   0.723
 1312SOL    HW1 4679   1.478   2.575   0.811
 1312SOL    HW2 4680   1.560   2.667   0.722
 1313SOL     OW 4681   0.472   3.128   1.735
 1313SOL    HW1 4682   0.446   3.135   1.643
 1313SOL    HW2 4683   0.390   3.127   1.783
 1314SOL     OW 4684   1.108   3.645   0.225
 1314SOL    HW1 4685   1.046   3.596   0.278
 1314SOL    HW2 4686   1.151   3.578   0.171
 1315SOL     OW 4687   0.204   2.136   1.485
 1315SOL    HW1 4688   0.145   2.212   1.492
 1315SOL    HW2 4689   0.179   2.079   1.558
 1316SOL     OW 4690   1.627   3.234   0.090
 1316SOL    HW1 4691   1.585   3.320   0.080
 1316SOL    HW2 4692   1.562   3.171   0.059
 1317SOL     OW 4693   0.467   3.604   0.316
 1317SOL    HW1 4694   0.510   3.661   0.380
 1317SOL    HW2 4695   0.539   3.569   0.264
 1318SOL     OW 4696   1.398   1.969   0.436
 1318SOL    HW1 4697   1.390   1.948   0.343
 1318SOL    HW2 4698   1.492   1.979   0.450
 1319SOL     OW 4699   0.255   3.654   1.221
 1319SOL    HW1 4700   0.299   3.575   1.255
 1319SOL    HW2 4701   0.214   3.625   1.140
 1320SOL     OW 4702   0.940   3.562   0.896
 1320SOL    HW1 4703   1.019   3.513   0.917
 1320SOL    HW2 4704   0.898   3.511   0.826
 1321SOL     OW 4705   0.390   2.557   0.463
 1321SOL    HW1 4706   0.415   2.466   0.478
 1321SOL    HW2 4707   0.301   2.563   0.496
 1322SOL     OW 4708   1.531   2.090   1.727
 1322SOL    HW1 4709   1.542   2.111   1.820
 1322SOL    HW2 4710   1.466   2.020   1.726
 1323SOL     OW 4711   0.620   1.968   0.124
 1323SOL    HW1 4712   0.707   1.928   0.120
 1323SOL    HW2 4713   0.578   1.942   0.042
 1324SOL     OW 4714   0.764   2.143   1.756
 1324SOL    HW1 4715   0.844   2.092   1.751
 1324SOL    HW2 4716   0.717   2.109   1.832
 1325SOL     OW 4717   0.876   3.386   1.195
 1325SOL    HW1 4718   0.858   3.348   1.109
 1325SOL    HW2 4719   0.945   3.331   1.231
 1326SOL     OW 4720   1.338   2.451   1.432
 1326SOL    HW1 4721   1.369   2.419   1.517
 1326SOL    HW2 4722   1.376   2.539   1.424
 1327SOL     OW 4723   0.819   3.250   0.947
 1327SOL    HW1 4724   0.904   3.240   0.904
 1327SOL    HW2 4725   0.756   3.258   0.876
 1328SOL     OW 4726   0.929   2.371   0.900
 1328SOL    HW1 4727   0.904   2.363   0.808
 1328SOL    HW2 4728   0.959   2.284   0.926
 1329SOL     OW 4729   0.560   1.923   0.500
 1329SOL    HW1 4730   0.478   1.920   0.550
 1329SOL    HW2 4731   0.551   2.002   0.446
 1330SOL     OW 4732   1.420   3.061   0.023
 1330SOL    HW1 4733   1.448   2.992   0.083
 1330SOL    HW2 4734   1.338   3.093   0.061
 1331SOL     OW 4735   0.283   1.910   0.189
 1331SOL    HW1 4736   0.329   1.962   0.123
 1331SOL    HW2 4737   0.349   1.848   0.220
 1332SOL     OW 4738   0.944   2.111   0.463
 1332SOL    HW1 4739   0.917   2.152   0.381
 1332SOL    HW2 4740   1.038   2.127   0.468
 1333SOL     OW 4741   1.080   2.547   1.456
 1333SOL    HW1 4742   1.015   2.477   1.460
 1333SOL    HW2 4743   1.164   2.501   1.450
 1334SOL     OW 4744   1.218   3.436   0.796
 1334SOL    HW1 4745   1.232   3.499   0.726
 1334SOL    HW2 4746   1.289   3.452   0.858
 1335SOL     OW 4747   0.473   3.017   0.734
 1335SOL    HW1 4748   0.406   2.996   0.799
 1335SOL    HW2 4749   0.428   3.008   0.650
 1336SOL     OW 4750   1.264   3.654   0.611
 1336SOL    HW1 4751   1.313   3.716   0.556
 1336SOL    HW2 4752   1.196   3.708   0.652
 1337SOL     OW 4753   1.009   2.394   0.047
 1337SOL    HW1 4754   0.974   2.482   0.035
 1337SOL    HW2 4755   1.090   2.407   0.097
 1338SOL     OW 4756   0.072   2.373   1.409
 1338SOL    HW1 4757   0.141   2.369   1.342
 1338SOL    HW2 4758   0.063   2.467   1.428
 1339SOL     OW 4759   0.559   2.090   1.170
 1339SOL    HW1 4760   0.604   2.016   1.210
 1339SOL    HW2 4761   0.467   2.078   1.195
 1340SOL     OW 4762   0.867   2.321   0.639
 1340SOL    HW1 4763   0.825   2.376   0.573
 1340SOL    HW2 4764   0.889   2.241   0.593
 1341SOL     OW 4765   1.017   1.917   0.747
 1341SOL    HW1 4766   0.958   1.911   0.672
 1341SOL    HW2 4767   0.994   1.842   0.802
 1342SOL     OW 4768   1.440   3.022   0.856
 1342SOL    HW1 4769   1.368   2.959   0.855
 1342SOL    HW2 4770   1.465   3.031   0.764
 1343SOL     OW 4771   1.463   2.473   0.969
 1343SOL    HW1 4772   1.406   2.396   0.972
 1343SOL    HW2 4773   1.519   2.464   1.046
 1344SOL     OW 4774   1.854   2.676   0.383
 1344SOL    HW1 4775   1.903   2.622   0.444
 1344SOL    HW2 4776   1.814   2.614   0.321
 1345SOL     OW 4777   0.497   3.285   0.173
 1345SOL    HW1 4778   0.418   3.260   0.220
 1345SOL    HW2 4779   0.495   3.234   0.092
 1346SOL     OW 4780   1.676   3.126   0.644
 1346SOL    HW1 4781   1.771   3.126   0.657
 1346SOL    HW2 4782   1.649   3.216   0.663
 1347SOL     OW 4783   1.385   2.430   0.077
 1347SOL    HW1 4784   1.326   2.411   0.149
 1347SOL    HW2 4785   1.451   2.361   0.081
 1348SOL     OW 4786   0.529   2.127   0.325
 1348SOL    HW1 4787   0.559   2.066   0.257
 1348SOL    HW2 4788   0.507   2.207   0.277
 1349SOL     OW 4789   1.748   3.105   1.561
 1349SOL    HW1 4790   1.835   3.067   1.551
 1349SOL    HW2 4791   1.763   3.194   1.592
 1350SOL     OW 4792   1.054   3.216   1.332
 1350SOL    HW1 4793   0.978   3.185   1.381
 1350SOL    HW2 4794   1.129   3.174   1.374
 1351SOL     OW 4795   1.610   3.490   1.659
 1351SOL    HW1 4796   1.601   3.524   1.570
 1351SOL    HW2 4797   1.692   3.440   1.657
 1352SOL     OW 4798   1.136   3.074   1.102
 1352SOL    HW1 4799   1.074   3.111   1.165
 1352SOL    HW2 4800   1.107   3.108   1.018
 1353SOL     OW 4801   1.623   2.958   1.075
 1353SOL    HW1 4802   1.616   3.021   1.147
 1353SOL    HW2 4803   1.548   2.976   1.019
 1354SOL     OW 4804   0.917   1.956   1.391
 1354SOL    HW1 4805   0.940   1.936   1.300
 1354SOL    HW2 4806   0.997   1.995   1.428
 1355SOL     OW 4807   0.984   2.977   1.724
 1355SOL    HW1 4808   0.893   2.993   1.748
 1355SOL    HW2 4809   0.980   2.898   1.669
 1356SOL     OW 4810   0.712   2.921   0.377
 1356SOL    HW1 4811   0.700   2.901   0.470
 1356SOL    HW2 4812   0.787   2.867   0.350
 1357SOL     OW 4813   0.432   2.693   1.250
 1357SOL    HW1 4814   0.503   2.708   1.314
 1357SOL    HW2 4815   0.379   2.624   1.289
 1358SOL     OW 4816   1.264   2.236   1.280
 1358SOL    HW1 4817   1.296   2.314   1.325
 1358SOL    HW2 4818   1.173   2.257   1.258
 1359SOL     OW 4819   0.065   3.434   1.348
 1359SOL    HW1 4820   0.040   3.526   1.336
 1359SOL    HW2 4821   0.161   3.436   1.351
 1360SOL     OW 4822   0.333   2.989   0.500
 1360SOL    HW1 4823   0.336   3.065   0.442
 1360SOL    HW2 4824   0.325   2.914   0.441
 1361SOL     OW 4825   0.556   2.388   0.853
 1361SOL    HW1 4826   0.569   2.447   0.780
 1361SOL    HW2 4827   0.619   2.415   0.919
 1362SOL     OW 4828   1.245   3.208   0.401
 1362SOL    HW1 4829   1.301   3.281   0.429
 1362SOL    HW2 4830   1.157   3.232   0.431
 1363SOL     OW 4831   1.290   3.323   1.148
 1363SOL    HW1 4832   1.344   3.327   1.226
 1363SOL    HW2 4833   1.234   3.246   1.161
 1364SOL     OW 4834   1.574   2.477   0.484
 1364SOL    HW1 4835   1.528   2.527   0.550
 1364SOL    HW2 4836   1.604   2.543   0.420
 1365SOL     OW 4837   0.345   3.399   1.308
 1365SOL    HW1 4838   0.332   3.350   1.227
 1365SOL    HW2 4839   0.439   3.408   1.316
 1366SOL     OW 4840   0.497   2.614   1.675
 1366SOL    HW1 4841   0.530   2.657   1.596
 1366SOL    HW2 4842   0.560   2.545   1.693
 1367SOL     OW 4843   1.610   2.644   1.687
 1367SOL    HW1 4844   1.524   2.685   1.680
 1367SOL    HW2 4845   1.661   2.684   1.616
 1368SOL     OW 4846   0.996   1.996   1.753
 1368SOL    HW1 4847   1.055   2.068   1.731
 1368SOL    HW2 4848   1.043   1.917   1.728
 1369SOL     OW 4849   0.496   1.903   1.750
 1369SOL    HW1 4850   0.451   1.848   1.686
 1369SOL    HW2 4851   0.439   1.980   1.760
 1370SOL     OW 4852   0.591   2.737   1.027
 1370SOL    HW1 4853   0.625   2.827   1.030
 1370SOL    HW2 4854   0.535   2.731   1.105
 1371SOL     OW 4855   1.346   2.721   1.022
 1371SOL    HW1 4856   1.261   2.706   0.982
 1371SOL    HW2 4857   1.392   2.637   1.012
 1372SOL     OW 4858   1.196   2.385   0.269
 1372SOL    HW1 4859   1.206   2.308   0.325
 1372SOL    HW2 4860   1.154   2.450   0.324
 1373SOL     OW 4861   0.299   2.049   1.241
 1373SOL    HW1 4862   0.263   2.079   1.324
 1373SOL    HW2 4863   0.283   1.954   1.240
 1374SOL     OW 4864   0.013   3.173   1.289
 1374SOL    HW1 4865   0.060   3.125   1.357
 1374SOL    HW2 4866   0.028   3.265   1.311
 1375SOL     OW 4867   0.721   2.490   1.052
 1375SOL    HW1 4868   0.798   2.476   0.997
 1375SOL    HW2 4869   0.694   2.580   1.032
 1376SOL     OW 4870   1.741   2.820   1.859
 1376SOL    HW1 4871   1.697   2.753   1.807
 1376SOL    HW2 4872   1.679   2.839   1.930
 1377SOL     OW 4873   0.319   1.931   0.620
 1377SOL    HW1 4874   0.289   2.019   0.643
 1377SOL    HW2 4875   0.319   1.883   0.703
 1378SOL     OW 4876   1.621   2.234   0.365
 1378SOL    HW1 4877   1.654   2.172   0.430
 1378SOL    HW2 4878   1.596   2.311   0.415
 1379SOL     OW 4879   1.029   2.620   0.957
 1379SOL    HW1 4880   1.020   2.637   1.051
 1379SOL    HW2 4881   1.003   2.529   0.947
 1380SOL     OW 4882   0.983   3.429   1.721
 1380SOL    HW1 4883   0.966   3.472   1.638
 1380SOL    HW2 4884   1.025   3.347   1.698
 1381SOL     OW 4885   1.851   3.362   1.604
 1381SOL    HW1 4886   1.873   3.390   1.515
 1381SOL    HW2 4887   1.932   3.377   1.654
 1382SOL     OW 4888   0.348   2.797   1.816
 1382SOL    HW1 4889   0.417   2.829   1.874
 1382SOL    HW2 4890   0.391   2.728   1.765
 1383SOL     OW 4891   1.531   2.168   0.112
 1383SOL    HW1 4892   1.474   2.092   0.126
 1383SOL    HW2 4893   1.565   2.187   0.199
 1384SOL     OW 4894   1.283   2.678   0.033
 1384SOL    HW1 4895   1.324   2.592   0.043
 1384SOL    HW2 4896   1.323   2.716  11.055
 1385SOL     OW 4897   1.070   3.201   0.857
 1385SOL    HW1 4898   1.074   3.129   0.793
 1385SOL    HW2 4899   1.127   3.269   0.821
 1386SOL     OW 4900   0.319   2.672   0.941
 1386SOL    HW1 4901   0.413   2.690   0.943
 1386SOL    HW2 4902   0.312   2.580   0.964
 1387SOL     OW 4903   0.322   2.388   0.984
 1387SOL    HW1 4904   0.284   2.302   0.969
 1387SOL    HW2 4905   0.402   2.389   0.932
 1388SOL     OW 4906   1.134   2.235   1.685
 1388SOL    HW1 4907   1.087   2.289   1.749
 1388SOL    HW2 4908   1.221   2.275   1.681
 1389SOL     OW 4909   1.160   2.060   1.471
 1389SOL    HW1 4910   1.149   2.123   1.543
 1389SOL    HW2 4911   1.203   2.109   1.402
 1390SOL     OW 4912   0.002   3.185   0.213
 1390SOL    HW1 4913   4.409   3.205   0.202
 1390SOL    HW2 4914   0.004   3.093   0.239
 1391SOL     OW 4915   0.104   3.629   0.941
 1391SOL    HW1 4916   0.062   3.589   0.865
 1391SOL    HW2 4917   0.191   3.653   0.911
 1392SOL     OW 4918   0.493   3.436   0.908
 1392SOL    HW1 4919   0.561   3.499   0.931
 1392SOL    HW2 4920   0.536   3.375   0.848
 1393SOL     OW 4921   0.974   2.649   1.222
 1393SOL    HW1 4922   1.033   2.630   1.295
 1393SOL    HW2 4923   0.890   2.610   1.248
 1394SOL     OW 4924   0.022   2.420   1.083
 1394SOL    HW1 4925   0.115   2.404   1.067
 1394SOL    HW2 4926   0.003   2.375   1.165
 1395SOL     OW 4927   0.179   2.393   1.718
 1395SOL    HW1 4928   0.262   2.363   1.681
 1395SOL    HW2 4929   0.157   2.471   1.668
 1396SOL     OW 4930   1.381   2.795   1.657
 1396SOL    HW1 4931   1.402   2.888   1.653
 1396SOL    HW2 4932   1.376   2.767   1.565
 1397SOL     OW 4933   0.818   2.436   0.373
 1397SOL    HW1 4934   0.827   2.360   0.316
 1397SOL    HW2 4935   0.743   2.484   0.338
 1398SOL     OW 4936   1.638   2.466   1.182
 1398SOL    HW1 4937   1.631   2.405   1.255
 1398SOL    HW2 4938   1.726   2.451   1.147
 1399SOL     OW 4939   0.275   3.424   1.740
 1399SOL    HW1 4940   0.210   3.474   1.790
 1399SOL    HW2 4941   0.259   3.333   1.764
 1400SOL     OW 4942   0.710   2.309   1.254
 1400SOL    HW1 4943   0.654   2.236   1.228
 1400SOL    HW2 4944   0.702   2.372   1.182
 1401SOL     OW 4945   0.923   3.541   1.470
 1401SOL    HW1 4946   0.898   3.500   1.387
 1401SOL    HW2 4947   0.915   3.635   1.455
 1402SOL     OW 4948   0.474   2.342   0.168
 1402SOL    HW1 4949   0.530   2.414   0.196
 1402SOL    HW2 4950   0.390   2.384   0.148
 1403SOL     OW 4951   0.159   3.005   1.455
 1403SOL    HW1 4952   0.143   2.962   1.539
 1403SOL    HW2 4953   0.167   2.933   1.392
 1404SOL     OW 4954   1.320   2.906   1.219
 1404SOL    HW1 4955   1.341   2.842   1.151
 1404SOL    HW2 4956   1.255   2.963   1.180
 1405SOL     OW 4957   1.307   2.712   0.311
 1405SOL    HW1 4958   1.233   2.675   0.359
 1405SOL    HW2 4959   1.287   2.695   0.219
 1406SOL     OW 4960   1.781   3.597   1.159
 1406SOL    HW1 4961   1.840   3.624   1.088
 1406SOL    HW2 4962   1.752   3.509   1.134
 1407SOL     OW 4963   1.240   3.595   1.106
 1407SOL    HW1 4964   1.322   3.619   1.064
 1407SOL    HW2 4965   1.249   3.502   1.126
 1408SOL     OW 4966   0.073   3.050   1.051
 1408SOL    HW1 4967   0.053   3.078   1.141
 1408SOL    HW2 4968   0.044   3.122   0.996
 1409SOL     OW 4969   0.680   3.534   1.740
 1409SOL    HW1 4970   0.618   3.606   1.728
 1409SOL    HW2 4971   0.748   3.549   1.674
 1410SOL     OW 4972   0.923   1.955   0.095
 1410SOL    HW1 4973   0.967   1.916   0.019
 1410SOL    HW2 4974   0.966   1.914   0.170
 1411SOL     OW 4975   1.719   2.002   0.507
 1411SOL    HW1 4976   1.766   1.956   0.437
 1411SOL    HW2 4977   1.690   1.933   0.567
 1412SOL     OW 4978   1.393   3.430   0.492
 1412SOL    HW1 4979   1.452   3.463   0.425
 1412SOL    HW2 4980   1.343   3.507   0.520
 1413SOL     OW 4981   0.115   3.668   1.851
 1413SOL    HW1 4982   0.074   3.597   1.901
 1413SOL    HW2 4983   0.179   3.705   1.911
 1414SOL     OW 4984   1.278   2.791   0.672
 1414SOL    HW1 4985   1.351   2.731   0.682
 1414SOL    HW2 4986   1.311   2.862   0.618
 1415SOL     OW 4987   0.804   3.140   1.424
 1415SOL    HW1 4988   0.777   3.181   1.506
 1415SOL    HW2 4989   0.732   3.159   1.363
 1416SOL     OW 4990   0.675   3.487   0.170
 1416SOL    HW1 4991   0.700   3.489   0.078
 1416SOL    HW2 4992   0.617   3.411   0.178
 1417SOL     OW 4993   1.619   3.589   1.392
 1417SOL    HW1 4994   1.673   3.594   1.313
 1417SOL    HW2 4995   1.605   3.681   1.417
 1418SOL     OW 4996   1.791   2.001   0.965
 1418SOL    HW1 4997   1.845   1.933   0.926
 1418SOL    HW2 4998   1.717   2.011   0.905
 1419SOL     OW 4999   0.259   2.181   0.717
 1419SOL    HW1 5000   0.176   2.220   0.691
 1419SOL    HW2 5001   0.251   2.166   0.811
 1420SOL     OW 5002   1.223   3.459   0.057
 1420SOL    HW1 5003   1.212   3.366   0.077
 1420SOL    HW2 5004   1.158   3.477  11.089
 1421SOL     OW 5005   0.827   2.871   1.375
 1421SOL    HW1 5006   0.869   2.866   1.289
 1421SOL    HW2 5007   0.822   2.965   1.393
 1422SOL     OW 5008   0.914   2.767   0.279
 1422SOL    HW1 5009   0.978   2.810   0.222
 1422SOL    HW2 5010   0.966   2.707   0.332
 1423SOL     OW 5011   1.496   3.484   0.052
 1423SOL    HW1 5012   1.401   3.476   0.052
 1423SOL    HW2 5013   1.519   3.498  11.060
 1424SOL     OW 5014   0.372   3.174   1.490
 1424SOL    HW1 5015   0.354   3.252   1.439
 1424SOL    HW2 5016   0.298   3.116   1.471
 1425SOL     OW 5017   1.608   3.147   1.280
 1425SOL    HW1 5018   1.665   3.130   1.354
 1425SOL    HW2 5019   1.547   3.214   1.311
 1426SOL     OW 5020   1.061   2.972   0.711
 1426SOL    HW1 5021   0.989   2.922   0.748
 1426SOL    HW2 5022   1.126   2.907   0.685
 1427SOL     OW 5023   1.023   2.104   0.966
 1427SOL    HW1 5024   1.020   2.057   0.883
 1427SOL    HW2 5025   1.019   2.035   1.032
 1428SOL     OW 5026   0.605   3.350   0.481
 1428SOL    HW1 5027   0.649   3.300   0.413
 1428SOL    HW2 5028   0.527   3.385   0.439
 1429SOL     OW 5029   1.726   2.255   1.378
 1429SOL    HW1 5030   1.805   2.309   1.375
 1429SOL    HW2 5031   1.745   2.182   1.319
 1430SOL     OW 5032   0.269   3.185   0.285
 1430SOL    HW1 5033   0.182   3.190   0.247
 1430SOL    HW2 5034   0.262   3.229   0.369
 1431SOL     OW 5035   0.117   2.866   1.691
 1431SOL    HW1 5036   0.053   2.913   1.745
 1431SOL    HW2 5037   0.196   2.861   1.745
 1432SOL     OW 5038   0.677   2.060   1.499
 1432SOL    HW1 5039   0.761   2.036   1.459
 1432SOL    HW2 5040   0.700   2.090   1.587
 1433SOL     OW 5041   0.060   2.204   0.002
 1433SOL    HW1 5042   4.480   2.169   0.041
 1433SOL    HW2 5043   0.069   2.291   0.040
 1434SOL     OW 5044   1.426   2.720   1.397
 1434SOL    HW1 5045   1.375   2.780   1.343
 1434SOL    HW2 5046   1.514   2.722   1.360
 1435SOL     OW 5047   0.078   2.026   0.312
 1435SOL    HW1 5048   0.085   2.116   0.279
 1435SOL    HW2 5049   0.153   1.981   0.274
 1436SOL     OW 5050   1.189   3.196   0.124
 1436SOL    HW1 5051   1.094   3.183   0.114
 1436SOL    HW2 5052   1.204   3.187   0.218
 1437SOL     OW 5053   0.629   2.694   1.438
 1437SOL    HW1 5054   0.687   2.769   1.423
 1437SOL    HW2 5055   0.688   2.619   1.440
 1438SOL     OW 5056   1.482   3.648   0.983
 1438SOL    HW1 5057   1.504   3.714   0.917
 1438SOL    HW2 5058   1.567   3.619   1.017
 1439SOL     OW 5059   0.710   2.425   1.704
 1439SOL    HW1 5060   0.764   2.481   1.761
 1439SOL    HW2 5061   0.729   2.336   1.733
 1440SOL     OW 5062   1.474   3.056   1.628
 1440SOL    HW1 5063   1.462   3.071   1.722
 1440SOL    HW2 5064   1.566   3.076   1.612
 1441SOL     OW 5065   0.374   3.609   1.566
 1441SOL    HW1 5066   0.290   3.650   1.548
 1441SOL    HW2 5067   0.352   3.530   1.616
 1442SOL     OW 5068   1.665   2.742   1.255
 1442SOL    HW1 5069   1.658   2.657   1.212
 1442SOL    HW2 5070   1.654   2.806   1.184
 1443SOL     OW 5071   1.215   2.179   0.461
 1443SOL    HW1 5072   1.277   2.107   0.452
 1443SOL    HW2 5073   1.246   2.229   0.536
 1444SOL     OW 5074   0.586   2.595   0.670
 1444SOL    HW1 5075   0.624   2.682   0.659
 1444SOL    HW2 5076   0.519   2.589   0.602
 1445SOL     OW 5077   1.757   2.239   1.654
 1445SOL    HW1 5078   1.745   2.246   1.559
 1445SOL    HW2 5079   1.691   2.176   1.682
 1446SOL     OW 5080   1.757   2.790   1.509
 1446SOL    HW1 5081   1.743   2.883   1.525
 1446SOL    HW2 5082   1.734   2.778   1.417
 1447SOL     OW 5083   0.915   3.216   0.082
 1447SOL    HW1 5084   0.851   3.208   0.152
 1447SOL    HW2 5085   0.888   3.295   0.034
 1448SOL     OW 5086   0.665   3.645   0.940
 1448SOL    HW1 5087   0.646   3.736   0.919
 1448SOL    HW2 5088   0.760   3.638   0.931
 1449SOL     OW 5089   0.870   2.833   0.853
 1449SOL    HW1 5090   0.919   2.760   0.890
 1449SOL    HW2 5091   0.831   2.877   0.929
 1450SOL     OW 5092   1.075   2.850   0.080
 1450SOL    HW1 5093   1.048   2.875  11.091
 1450SOL    HW2 5094   1.152   2.795   0.067
 1451SOL     OW 5095   1.846   3.415   0.842
 1451SOL    HW1 5096   1.768   3.404   0.788
 1451SOL    HW2 5097   1.837   3.351   0.912
 1452SOL     OW 5098   0.234   3.165   1.861
 1452SOL    HW1 5099   0.147   3.129   1.846
 1452SOL    HW2 5100   0.239   3.175   1.957
 1453SOL     OW 5101   0.122   3.081   0.670
 1453SOL    HW1 5102   0.149   3.044   0.754
 1453SOL    HW2 5103   0.185   3.046   0.607
 1454SOL     OW 5104   0.688   3.270   1.633
 1454SOL    HW1 5105   0.608   3.227   1.663
 1454SOL    HW2 5106   0.682   3.358   1.670
 1455SOL     OW 5107   1.764   2.032   1.229
 1455SOL    HW1 5108   1.780   1.940   1.251
 1455SOL    HW2 5109   1.770   2.036   1.133
 1456SOL     OW 5110   0.432   2.299   0.525
 1456SOL    HW1 5111   0.465   2.227   0.472
 1456SOL    HW2 5112   0.383   2.256   0.596
 1457SOL     OW 5113   1.696   3.348   1.092
 1457SOL    HW1 5114   1.617   3.329   1.041
 1457SOL    HW2 5115   1.700   3.278   1.157
 1458SOL     OW 5116   0.294   2.356   1.251
 1458SOL    HW1 5117   0.365   2.303   1.287
 1458SOL    HW2 5118   0.318   2.370   1.160
 1459SOL     OW 5119   0.831   3.440   0.676
 1459SOL    HW1 5120   0.808   3.502   0.608
 1459SOL    HW2 5121   0.756   3.380   0.680
 1460SOL     OW 5122   1.431   2.093   1.113
 1460SOL    HW1 5123   1.461   2.013   1.157
 1460SOL    HW2 5124   1.380   2.139   1.179
 1461SOL     OW 5125   1.009   1.878   1.136
 1461SOL    HW1 5126   0.954   1.812   1.093
 1461SOL    HW2 5127   1.096   1.840   1.137
 1462SOL     OW 5128   0.775   3.188   0.323
 1462SOL    HW1 5129   0.748   3.098   0.340
 1462SOL    HW2 5130   0.855   3.199   0.374
 1463SOL     OW 5131   0.621   3.417   1.288
 1463SOL    HW1 5132   0.621   3.499   1.338
 1463SOL    HW2 5133   0.709   3.412   1.250
 1464SOL     OW 5134   1.350   1.920   0.166
 1464SOL    HW1 5135   1.371   1.870   0.088
 1464SOL    HW2 5136   1.263   1.890   0.191
 1465SOL     OW 5137   1.296   2.327   0.679
 1465SOL    HW1 5138   1.243   2.406   0.682
 1465SOL    HW2 5139   1.289   2.290   0.767
 1466SOL     OW 5140   1.548   2.052   0.858
 1466SOL    HW1 5141   1.508   2.076   0.942
 1466SOL    HW2 5142   1.558   2.134   0.811
 1467SOL     OW 5143   0.034   2.917   0.290
 1467SOL    HW1 5144   0.126   2.893   0.286
 1467SOL    HW2 5145   0.007   2.894   0.379
 1468SOL     OW 5146   0.890   3.523   0.347
 1468SOL    HW1 5147   0.814   3.505   0.291
 1468SOL    HW2 5148   0.861   3.596   0.403
 1469SOL     OW 5149   0.242   2.494   1.986
 1469SOL    HW1 5150   0.169   2.465   2.040
 1469SOL    HW2 5151   0.215   2.477   1.896
 1470SOL     OW 5152   0.212   2.135   2.852
 1470SOL    HW1 5153   0.249   2.108   2.936
 1470SOL    HW2 5154   0.137   2.077   2.838
 1471SOL     OW 5155   0.005   2.265   2.502
 1471SOL    HW1 5156   4.424   2.299   2.539
 1471SOL    HW2 5157   4.478   2.186   2.455
 1472SOL     OW 5158   0.570   3.160   3.046
 1472SOL    HW1 5159   0.483   3.165   3.005
 1472SOL    HW2 5160   0.585   3.248   3.080
 1473SOL     OW 5161   1.571   3.376   2.571
 1473SOL    HW1 5162   1.527   3.353   2.653
 1473SOL    HW2 5163   1.500   3.380   2.506
 1474SOL     OW 5164   1.132   2.561   2.557
 1474SOL    HW1 5165   1.180   2.643   2.545
 1474SOL    HW2 5166   1.085   2.572   2.639
 1475SOL     OW 5167   1.794   2.450   2.085
 1475SOL    HW1 5168   1.759   2.450   1.996
 1475SOL    HW2 5169   1.741   2.385   2.132
 1476SOL     OW 5170   0.744   2.999   2.909
 1476SOL    HW1 5171   0.679   3.037   2.967
 1476SOL    HW2 5172   0.784   3.074   2.865
 1477SOL     OW 5173   0.875   2.622   3.684
 1477SOL    HW1 5174   0.860   2.692   3.749
 1477SOL    HW2 5175   0.897   2.669   3.604
 1478SOL     OW 5176   0.684   2.860   2.507
 1478SOL    HW1 5177   0.751   2.852   2.575
 1478SOL    HW2 5178   0.616   2.914   2.546
 1479SOL     OW 5179   0.714   3.010   3.682
 1479SOL    HW1 5180   0.762   3.088   3.713
 1479SOL    HW2 5181   0.635   3.045   3.642
 1480SOL     OW 5182   0.333   3.279   2.929
 1480SOL    HW1 5183   0.252   3.257   2.883
 1480SOL    HW2 5184   0.382   3.334   2.868
 1481SOL     OW 5185   1.459   3.364   3.223
 1481SOL    HW1 5186   1.513   3.442   3.233
 1481SOL    HW2 5187   1.390   3.374   3.289
 1482SOL     OW 5188   0.452   2.261   3.340
 1482SOL    HW1 5189   0.530   2.206   3.349
 1482SOL    HW2 5190   0.379   2.201   3.355
 1483SOL     OW 5191   1.584   2.295   2.606
 1483SOL    HW1 5192   1.504   2.315   2.558
 1483SOL    HW2 5193   1.621   2.380   2.630
 1484SOL     OW 5194   0.246   3.552   2.334
 1484SOL    HW1 5195   0.229   3.637   2.374
 1484SOL    HW2 5196   0.319   3.568   2.274
 1485SOL     OW 5197   1.137   3.204   3.556
 1485SOL    HW1 5198   1.178   3.198   3.643
 1485SOL    HW2 5199   1.085   3.124   3.548
 1486SOL     OW 5200   0.261   3.287   2.386
 1486SOL    HW1 5201   0.246   3.381   2.390
 1486SOL    HW2 5202   0.203   3.250   2.452
 1487SOL     OW 5203   0.257   2.946   2.748
 1487SOL    HW1 5204   0.269   2.853   2.770
 1487SOL    HW2 5205   0.195   2.977   2.814
 1488SOL     OW 5206   0.606   3.654   3.291
 1488SOL    HW1 5207   0.523   3.636   3.335
 1488SOL    HW2 5208   0.628   3.744   3.316
 1489SOL     OW 5209   0.569   2.855   2.007
 1489SOL    HW1 5210   0.621   2.893   1.937
 1489SOL    HW2 5211   0.613   2.884   2.087
 1490SOL     OW 5212   1.593   1.982   3.333
 1490SOL    HW1 5213   1.620   2.055   3.277
 1490SOL    HW2 5214   1.572   2.023   3.417
 1491SOL     OW 5215   0.137   2.514   2.434
 1491SOL    HW1 5216   0.093   2.433   2.458
 1491SOL    HW2 5217   0.108   2.578   2.499
 1492SOL     OW 5218   1.844   3.615   2.192
 1492SOL    HW1 5219   1.913   3.590   2.254
 1492SOL    HW2 5220   1.862   3.707   2.173
 1493SOL     OW 5221   0.032   3.467   2.016
 1493SOL    HW1 5222   0.016   3.373   2.008
 1493SOL    HW2 5223   0.049   3.480   2.109
 1494SOL     OW 5224   1.690   2.782   2.505
 1494SOL    HW1 5225   1.769   2.737   2.476
 1494SOL    HW2 5226   1.664   2.835   2.430
 1495SOL     OW 5227   1.649   2.965   2.292
 1495SOL    HW1 5228   1.735   2.966   2.251
 1495SOL    HW2 5229   1.655   3.030   2.362
 1496SOL     OW 5230   0.106   2.629   3.427
 1496SOL    HW1 5231   0.192   2.615   3.387
 1496SOL    HW2 5232   0.109   2.719   3.459
 1497SOL     OW 5233   0.617   3.253   2.599
 1497SOL    HW1 5234   0.571   3.169   2.608
 1497SOL    HW2 5235   0.600   3.280   2.509
 1498SOL     OW 5236   1.285   3.098   3.282
 1498SOL    HW1 5237   1.316   3.029   3.223
 1498SOL    HW2 5238   1.344   3.093   3.357
 1499SOL     OW 5239   0.824   1.866   2.376
 1499SOL    HW1 5240   0.864   1.950   2.352
 1499SOL    HW2 5241   0.730   1.884   2.381
 1500SOL     OW 5242   0.176   2.801   3.139
 1500SOL    HW1 5243   0.267   2.779   3.120
 1500SOL    HW2 5244   0.133   2.802   3.054
 1501SOL     OW 5245   1.532   2.861   2.062
 1501SOL    HW1 5246   1.462   2.804   2.094
 1501SOL    HW2 5247   1.573   2.895   2.141
 1502SOL     OW 5248   1.184   3.676   3.488
 1502SOL    HW1 5249   1.189   3.736   3.414
 1502SOL    HW2 5250   1.202   3.590   3.450
 1503SOL     OW 5251   0.337   2.120   3.674
 1503SOL    HW1 5252   0.379   2.195   3.715
 1503SOL    HW2 5253   0.245   2.125   3.702
 1504SOL     OW 5254   1.469   3.280   2.809
 1504SOL    HW1 5255   1.401   3.297   2.875
 1504SOL    HW2 5256   1.454   3.190   2.782
 1505SOL     OW 5257   1.654   3.615   2.438
 1505SOL    HW1 5258   1.635   3.582   2.351
 1505SOL    HW2 5259   1.634   3.541   2.497
 1506SOL     OW 5260   0.598   2.578   2.133
 1506SOL    HW1 5261   0.597   2.662   2.088
 1506SOL    HW2 5262   0.531   2.587   2.202
 1507SOL     OW 5263   1.276   2.229   2.795
 1507SOL    HW1 5264   1.188   2.193   2.805
 1507SOL    HW2 5265   1.330   2.176   2.853
 1508SOL     OW 5266   1.578   3.536   2.173
 1508SOL    HW1 5267   1.670   3.561   2.164
 1508SOL    HW2 5268   1.550   3.519   2.083
 1509SOL     OW 5269   0.793   2.477   3.310
 1509SOL    HW1 5270   0.765   2.450   3.398
 1509SOL    HW2 5271   0.757   2.409   3.253
 1510SOL     OW 5272   1.391   2.337   3.540
 1510SOL    HW1 5273   1.396   2.381   3.625
 1510SOL    HW2 5274   1.447   2.260   3.550
 1511SOL     OW 5275   0.950   2.747   3.448
 1511SOL    HW1 5276   1.005   2.679   3.409
 1511SOL    HW2 5277   0.903   2.785   3.374
 1512SOL     OW 5278   0.993   2.273   3.095
 1512SOL    HW1 5279   0.904   2.289   3.125
 1512SOL    HW2 5280   0.983   2.229   3.011
 1513SOL     OW 5281   1.055   2.561   2.286
 1513SOL    HW1 5282   1.072   2.554   2.380
 1513SOL    HW2 5283   0.971   2.515   2.274
 1514SOL     OW 5284   0.087   2.693   2.650
 1514SOL    HW1 5285   0.173   2.684   2.691
 1514SOL    HW2 5286   0.025   2.689   2.723
 1515SOL     OW 5287   0.121   3.724   3.444
 1515SOL    HW1 5288   0.114   3.700   3.537
 1515SOL    HW2 5289   0.044   3.683   3.403
 1516SOL     OW 5290   0.899   2.213   2.058
 1516SOL    HW1 5291   0.939   2.275   1.997
 1516SOL    HW2 5292   0.907   2.128   2.013
 1517SOL     OW 5293   1.688   2.445   3.693
 1517SOL    HW1 5294   1.656   2.521   3.643
 1517SOL    HW2 5295   1.710   2.380   3.626
 1518SOL     OW 5296   1.381   3.004   2.403
 1518SOL    HW1 5297   1.459   2.993   2.349
 1518SOL    HW2 5298   1.327   3.066   2.354
 1519SOL     OW 5299   0.555   2.039   2.758
 1519SOL    HW1 5300   0.556   2.072   2.848
 1519SOL    HW2 5301   0.554   2.118   2.704
 1520SOL     OW 5302   0.999   3.306   2.330
 1520SOL    HW1 5303   0.969   3.382   2.280
 1520SOL    HW2 5304   0.975   3.326   2.420
 1521SOL     OW 5305   0.360   3.678   2.723
 1521SOL    HW1 5306   0.401   3.592   2.735
 1521SOL    HW2 5307   0.429   3.741   2.744
 1522SOL     OW 5308   1.801   2.910   2.733
 1522SOL    HW1 5309   1.748   2.892   2.655
 1522SOL    HW2 5310   1.737   2.919   2.804
 1523SOL     OW 5311   1.227   3.402   3.375
 1523SOL    HW1 5312   1.215   3.330   3.437
 1523SOL    HW2 5313   1.158   3.389   3.309
 1524SOL     OW 5314   0.309   2.812   2.124
 1524SOL    HW1 5315   0.391   2.837   2.081
 1524SOL    HW2 5316   0.299   2.719   2.104
 1525SOL     OW 5317   1.484   2.607   2.583
 1525SOL    HW1 5318   1.476   2.569   2.671
 1525SOL    HW2 5319   1.560   2.665   2.588
 1526SOL     OW 5320   0.472   3.128   3.597
 1526SOL    HW1 5321   0.446   3.135   3.505
 1526SOL    HW2 5322   0.390   3.127   3.645
 1527SOL     OW 5323   1.125   3.640   2.090
 1527SOL    HW1 5324   1.049   3.602   2.134
 1527SOL    HW2 5325   1.149   3.577   2.023
 1528SOL     OW 5326   0.204   2.136   3.347
 1528SOL    HW1 5327   0.145   2.212   3.354
 1528SOL    HW2 5328   0.179   2.080   3.420
 1529SOL     OW 5329   1.629   3.244   1.953
 1529SOL    HW1 5330   1.587   3.329   1.938
 1529SOL    HW2 5331   1.561   3.180   1.932
 1530SOL     OW 5332   0.469   3.604   2.174
 1530SOL    HW1 5333   0.514   3.658   2.239
 1530SOL    HW2 5334   0.539   3.565   2.122
 1531SOL     OW 5335   1.391   1.970   2.304
 1531SOL    HW1 5336   1.394   1.942   2.212
 1531SOL    HW2 5337   1.483   1.979   2.328
 1532SOL     OW 5338   0.255   3.654   3.083
 1532SOL    HW1 5339   0.299   3.575   3.117
 1532SOL    HW2 5340   0.213   3.625   3.002
 1533SOL     OW 5341   0.939   3.562   2.758
 1533SOL    HW1 5342   1.017   3.512   2.781
 1533SOL    HW2 5343   0.898   3.511   2.687
 1534SOL     OW 5344   0.397   2.554   2.332
 1534SOL    HW1 5345   0.418   2.461   2.345
 1534SOL    HW2 5346   0.306   2.563   2.357
 1535SOL     OW 5347   1.523   2.088   3.586
 1535SOL    HW1 5348   1.535   2.105   3.679
 1535SOL    HW2 5349   1.458   2.018   3.582
 1536SOL     OW 5350   0.646   1.980   1.961
 1536SOL    HW1 5351   0.703   1.906   1.982
 1536SOL    HW2 5352   0.592   1.949   1.888
 1537SOL     OW 5353   0.764   2.143   3.617
 1537SOL    HW1 5354   0.844   2.091   3.614
 1537SOL    HW2 5355   0.717   2.109   3.694
 1538SOL     OW 5356   0.876   3.386   3.056
 1538SOL    HW1 5357   0.858   3.348   2.971
 1538SOL    HW2 5358   0.945   3.331   3.093
 1539SOL     OW 5359   1.338   2.452   3.295
 1539SOL    HW1 5360   1.369   2.420   3.380
 1539SOL    HW2 5361   1.376   2.539   3.286
 1540SOL     OW 5362   0.819   3.251   2.809
 1540SOL    HW1 5363   0.904   3.240   2.766
 1540SOL    HW2 5364   0.756   3.258   2.738
 1541SOL     OW 5365   0.929   2.371   2.762
 1541SOL    HW1 5366   0.904   2.362   2.670
 1541SOL    HW2 5367   0.959   2.284   2.787
 1542SOL     OW 5368   0.559   1.925   2.356
 1542SOL    HW1 5369   0.479   1.923   2.408
 1542SOL    HW2 5370   0.549   2.002   2.299
 1543SOL     OW 5371   1.428   3.063   1.901
 1543SOL    HW1 5372   1.457   2.988   1.952
 1543SOL    HW2 5373   1.342   3.086   1.937
 1544SOL     OW 5374   0.296   1.906   2.038
 1544SOL    HW1 5375   0.359   1.971   2.009
 1544SOL    HW2 5376   0.348   1.840   2.084
 1545SOL     OW 5377   0.943   2.112   2.317
 1545SOL    HW1 5378   0.918   2.150   2.233
 1545SOL    HW2 5379   1.037   2.127   2.324
 1546SOL     OW 5380   1.080   2.547   3.318
 1546SOL    HW1 5381   1.016   2.476   3.322
 1546SOL    HW2 5382   1.165   2.502   3.312
 1547SOL     OW 5383   1.220   3.434   2.657
 1547SOL    HW1 5384   1.233   3.499   2.588
 1547SOL    HW2 5385   1.289   3.453   2.721
 1548SOL     OW 5386   0.470   3.016   2.592
 1548SOL    HW1 5387   0.403   2.997   2.658
 1548SOL    HW2 5388   0.426   3.002   2.508
 1549SOL     OW 5389   1.264   3.653   2.475
 1549SOL    HW1 5390   1.312   3.715   2.420
 1549SOL    HW2 5391   1.195   3.706   2.515
 1550SOL     OW 5392   1.024   2.396   1.888
 1550SOL    HW1 5393   0.980   2.479   1.869
 1550SOL    HW2 5394   1.088   2.418   1.955
 1551SOL     OW 5395   0.072   2.373   3.271
 1551SOL    HW1 5396   0.141   2.369   3.204
 1551SOL    HW2 5397   0.063   2.466   3.290
 1552SOL     OW 5398   0.559   2.090   3.032
 1552SOL    HW1 5399   0.604   2.016   3.072
 1552SOL    HW2 5400   0.467   2.078   3.057
 1553SOL     OW 5401   0.867   2.320   2.500
 1553SOL    HW1 5402   0.823   2.376   2.436
 1553SOL    HW2 5403   0.890   2.241   2.452
 1554SOL     OW 5404   1.016   1.917   2.610
 1554SOL    HW1 5405   0.958   1.910   2.534
 1554SOL    HW2 5406   0.994   1.842   2.665
 1555SOL     OW 5407   1.439   3.022   2.718
 1555SOL    HW1 5408   1.367   2.958   2.722
 1555SOL    HW2 5409   1.459   3.030   2.625
 1556SOL     OW 5410   1.459   2.477   2.834
 1556SOL    HW1 5411   1.409   2.396   2.830
 1556SOL    HW2 5412   1.519   2.464   2.908
 1557SOL     OW 5413   1.840   2.671   2.244
 1557SOL    HW1 5414   1.900   2.624   2.303
 1557SOL    HW2 5415   1.821   2.608   2.175
 1558SOL     OW 5416   0.493   3.285   2.015
 1558SOL    HW1 5417   0.414   3.258   2.062
 1558SOL    HW2 5418   0.484   3.246   1.928
 1559SOL     OW 5419   1.677   3.127   2.502
 1559SOL    HW1 5420   1.771   3.127   2.518
 1559SOL    HW2 5421   1.648   3.216   2.525
 1560SOL     OW 5422   1.393   2.434   1.932
 1560SOL    HW1 5423   1.331   2.413   2.003
 1560SOL    HW2 5424   1.476   2.397   1.962
 1561SOL     OW 5425   0.525   2.121   2.170
 1561SOL    HW1 5426   0.577   2.078   2.102
 1561SOL    HW2 5427   0.502   2.206   2.132
 1562SOL     OW 5428   1.747   3.106   3.422
 1562SOL    HW1 5429   1.834   3.067   3.417
 1562SOL    HW2 5430   1.762   3.195   3.453
 1563SOL     OW 5431   1.054   3.216   3.194
 1563SOL    HW1 5432   0.978   3.185   3.243
 1563SOL    HW2 5433   1.129   3.174   3.236
 1564SOL     OW 5434   1.610   3.490   3.521
 1564SOL    HW1 5435   1.601   3.524   3.432
 1564SOL    HW2 5436   1.691   3.440   3.520
 1565SOL     OW 5437   1.136   3.074   2.964
 1565SOL    HW1 5438   1.075   3.110   3.028
 1565SOL    HW2 5439   1.106   3.108   2.880
 1566SOL     OW 5440   1.624   2.959   2.937
 1566SOL    HW1 5441   1.617   3.022   3.009
 1566SOL    HW2 5442   1.548   2.977   2.882
 1567SOL     OW 5443   0.918   1.956   3.253
 1567SOL    HW1 5444   0.940   1.936   3.162
 1567SOL    HW2 5445   0.997   1.995   3.290
 1568SOL     OW 5446   0.984   2.977   3.585
 1568SOL    HW1 5447   0.893   2.993   3.610
 1568SOL    HW2 5448   0.980   2.898   3.531
 1569SOL     OW 5449   0.710   2.926   2.234
 1569SOL    HW1 5450   0.696   2.905   2.327
 1569SOL    HW2 5451   0.785   2.872   2.209
 1570SOL     OW 5452   0.432   2.694   3.112
 1570SOL    HW1 5453   0.503   2.708   3.176
 1570SOL    HW2 5454   0.379   2.624   3.151
 1571SOL     OW 5455   1.263   2.236   3.144
 1571SOL    HW1 5456   1.296   2.314   3.188
 1571SOL    HW2 5457   1.173   2.257   3.121
 1572SOL     OW 5458   0.065   3.434   3.209
 1572SOL    HW1 5459   0.039   3.526   3.200
 1572SOL    HW2 5460   0.160   3.437   3.213
 1573SOL     OW 5461   0.333   2.976   2.356
 1573SOL    HW1 5462   0.344   3.051   2.298
 1573SOL    HW2 5463   0.331   2.900   2.296
 1574SOL     OW 5464   0.556   2.387   2.715
 1574SOL    HW1 5465   0.569   2.448   2.642
 1574SOL    HW2 5466   0.619   2.415   2.781
 1575SOL     OW 5467   1.247   3.212   2.253
 1575SOL    HW1 5468   1.303   3.283   2.285
 1575SOL    HW2 5469   1.160   3.233   2.286
 1576SOL     OW 5470   1.290   3.323   3.010
 1576SOL    HW1 5471   1.344   3.327   3.088
 1576SOL    HW2 5472   1.234   3.246   3.023
 1577SOL     OW 5473   1.583   2.487   2.342
 1577SOL    HW1 5474   1.529   2.524   2.411
 1577SOL    HW2 5475   1.619   2.563   2.296
 1578SOL     OW 5476   0.345   3.399   3.171
 1578SOL    HW1 5477   0.332   3.350   3.089
 1578SOL    HW2 5478   0.439   3.408   3.179
 1579SOL     OW 5479   0.497   2.614   3.537
 1579SOL    HW1 5480   0.530   2.657   3.458
 1579SOL    HW2 5481   0.560   2.545   3.555
 1580SOL     OW 5482   1.605   2.652   3.546
 1580SOL    HW1 5483   1.518   2.694   3.538
 1580SOL    HW2 5484   1.657   2.693   3.476
 1581SOL     OW 5485   0.996   1.996   3.615
 1581SOL    HW1 5486   1.055   2.068   3.593
 1581SOL    HW2 5487   1.044   1.917   3.590
 1582SOL     OW 5488   0.496   1.903   3.612
 1582SOL    HW1 5489   0.451   1.848   3.548
 1582SOL    HW2 5490   0.439   1.980   3.622
 1583SOL     OW 5491   0.591   2.737   2.890
 1583SOL    HW1 5492   0.625   2.827   2.892
 1583SOL    HW2 5493   0.535   2.730   2.967
 1584SOL     OW 5494   1.345   2.723   2.882
 1584SOL    HW1 5495   1.258   2.707   2.845
 1584SOL    HW2 5496   1.391   2.639   2.873
 1585SOL     OW 5497   1.200   2.389   2.124
 1585SOL    HW1 5498   1.207   2.311   2.178
 1585SOL    HW2 5499   1.157   2.454   2.181
 1586SOL     OW 5500   0.299   2.049   3.103
 1586SOL    HW1 5501   0.263   2.079   3.186
 1586SOL    HW2 5502   0.283   1.954   3.102
 1587SOL     OW 5503   0.013   3.173   3.151
 1587SOL    HW1 5504   0.059   3.125   3.219
 1587SOL    HW2 5505   0.027   3.265   3.172
 1588SOL     OW 5506   0.721   2.490   2.914
 1588SOL    HW1 5507   0.798   2.476   2.859
 1588SOL    HW2 5508   0.693   2.579   2.894
 1589SOL     OW 5509   1.738   2.823   3.721
 1589SOL    HW1 5510   1.694   2.758   3.666
 1589SOL    HW2 5511   1.677   2.840   3.792
 1590SOL     OW 5512   0.320   1.931   2.479
 1590SOL    HW1 5513   0.289   2.018   2.503
 1590SOL    HW2 5514   0.320   1.882   2.562
 1591SOL     OW 5515   1.635   2.241   2.232
 1591SOL    HW1 5516   1.632   2.173   2.299
 1591SOL    HW2 5517   1.607   2.320   2.277
 1592SOL     OW 5518   1.029   2.620   2.820
 1592SOL    HW1 5519   1.020   2.637   2.913
 1592SOL    HW2 5520   1.003   2.529   2.809
 1593SOL     OW 5521   0.983   3.429   3.583
 1593SOL    HW1 5522   0.966   3.472   3.500
 1593SOL    HW2 5523   1.025   3.347   3.560
 1594SOL     OW 5524   1.851   3.363   3.466
 1594SOL    HW1 5525   1.873   3.391   3.377
 1594SOL    HW2 5526   1.931   3.376   3.516
 1595SOL     OW 5527   0.348   2.797   3.678
 1595SOL    HW1 5528   0.417   2.829   3.736
 1595SOL    HW2 5529   0.391   2.728   3.627
 1596SOL     OW 5530   1.525   2.138   1.994
 1596SOL    HW1 5531   1.463   2.070   2.019
 1596SOL    HW2 5532   1.559   2.171   2.077
 1597SOL     OW 5533   1.287   2.686   1.890
 1597SOL    HW1 5534   1.330   2.600   1.895
 1597SOL    HW2 5535   1.320   2.724   1.809
 1598SOL     OW 5536   1.070   3.201   2.719
 1598SOL    HW1 5537   1.075   3.129   2.656
 1598SOL    HW2 5538   1.127   3.269   2.683
 1599SOL     OW 5539   0.319   2.672   2.802
 1599SOL    HW1 5540   0.413   2.690   2.803
 1599SOL    HW2 5541   0.311   2.580   2.825
 1600SOL     OW 5542   0.322   2.389   2.846
 1600SOL    HW1 5543   0.284   2.302   2.831
 1600SOL    HW2 5544   0.402   2.389   2.794
 1601SOL     OW 5545   1.134   2.235   3.548
 1601SOL    HW1 5546   1.086   2.289   3.611
 1601SOL    HW2 5547   1.221   2.275   3.543
 1602SOL     OW 5548   1.160   2.060   3.334
 1602SOL    HW1 5549   1.149   2.123   3.405
 1602SOL    HW2 5550   1.203   2.109   3.265
 1603SOL     OW 5551   4.491   3.180   2.074
 1603SOL    HW1 5552   4.399   3.198   2.056
 1603SOL    HW2 5553   4.494   3.087   2.095
 1604SOL     OW 5554   0.105   3.629   2.803
 1604SOL    HW1 5555   0.064   3.587   2.727
 1604SOL    HW2 5556   0.192   3.653   2.773
 1605SOL     OW 5557   0.492   3.436   2.769
 1605SOL    HW1 5558   0.561   3.499   2.793
 1605SOL    HW2 5559   0.536   3.375   2.710
 1606SOL     OW 5560   0.974   2.649   3.085
 1606SOL    HW1 5561   1.033   2.630   3.157
 1606SOL    HW2 5562   0.890   2.610   3.110
 1607SOL     OW 5563   0.022   2.420   2.945
 1607SOL    HW1 5564   0.115   2.404   2.929
 1607SOL    HW2 5565   0.003   2.375   3.027
 1608SOL     OW 5566   0.179   2.393   3.580
 1608SOL    HW1 5567   0.262   2.363   3.543
 1608SOL    HW2 5568   0.157   2.471   3.530
 1609SOL     OW 5569   1.375   2.798   3.517
 1609SOL    HW1 5570   1.397   2.891   3.513
 1609SOL    HW2 5571   1.371   2.770   3.426
 1610SOL     OW 5572   0.819   2.432   2.229
 1610SOL    HW1 5573   0.824   2.358   2.169
 1610SOL    HW2 5574   0.745   2.483   2.197
 1611SOL     OW 5575   1.643   2.468   3.042
 1611SOL    HW1 5576   1.634   2.407   3.115
 1611SOL    HW2 5577   1.732   2.453   3.009
 1612SOL     OW 5578   0.275   3.424   3.602
 1612SOL    HW1 5579   0.210   3.474   3.652
 1612SOL    HW2 5580   0.259   3.333   3.626
 1613SOL     OW 5581   0.709   2.309   3.116
 1613SOL    HW1 5582   0.654   2.236   3.090
 1613SOL    HW2 5583   0.702   2.372   3.044
 1614SOL     OW 5584   0.923   3.540   3.332
 1614SOL    HW1 5585   0.898   3.500   3.249
 1614SOL    HW2 5586   0.915   3.635   3.317
 1615SOL     OW 5587   0.469   2.351   2.037
 1615SOL    HW1 5588   0.531   2.418   2.064
 1615SOL    HW2 5589   0.386   2.398   2.024
 1616SOL     OW 5590   0.159   3.005   3.317
 1616SOL    HW1 5591   0.143   2.962   3.401
 1616SOL    HW2 5592   0.167   2.933   3.254
 1617SOL     OW 5593   1.321   2.906   3.080
 1617SOL    HW1 5594   1.341   2.842   3.012
 1617SOL    HW2 5595   1.255   2.963   3.042
 1618SOL     OW 5596   1.317   2.719   2.166
 1618SOL    HW1 5597   1.243   2.688   2.218
 1618SOL    HW2 5598   1.290   2.705   2.075
 1619SOL     OW 5599   1.780   3.598   3.020
 1619SOL    HW1 5600   1.839   3.624   2.949
 1619SOL    HW2 5601   1.752   3.509   2.995
 1620SOL     OW 5602   1.240   3.595   2.967
 1620SOL    HW1 5603   1.322   3.619   2.926
 1620SOL    HW2 5604   1.249   3.502   2.988
 1621SOL     OW 5605   0.073   3.050   2.913
 1621SOL    HW1 5606   0.054   3.078   3.003
 1621SOL    HW2 5607   0.043   3.122   2.858
 1622SOL     OW 5608   0.680   3.534   3.602
 1622SOL    HW1 5609   0.618   3.605   3.590
 1622SOL    HW2 5610   0.748   3.549   3.536
 1623SOL     OW 5611   1.653   1.999   2.378
 1623SOL    HW1 5612   1.728   1.991   2.320
 1623SOL    HW2 5613   1.653   1.918   2.429
 1624SOL     OW 5614   1.393   3.430   2.353
 1624SOL    HW1 5615   1.451   3.464   2.285
 1624SOL    HW2 5616   1.342   3.505   2.381
 1625SOL     OW 5617   0.115   3.668   3.713
 1625SOL    HW1 5618   0.074   3.598   3.763
 1625SOL    HW2 5619   0.179   3.706   3.773
 1626SOL     OW 5620   1.279   2.789   2.533
 1626SOL    HW1 5621   1.353   2.729   2.542
 1626SOL    HW2 5622   1.313   2.861   2.480
 1627SOL     OW 5623   0.804   3.140   3.285
 1627SOL    HW1 5624   0.777   3.181   3.368
 1627SOL    HW2 5625   0.732   3.158   3.225
 1628SOL     OW 5626   0.672   3.488   2.017
 1628SOL    HW1 5627   0.684   3.502   1.923
 1628SOL    HW2 5628   0.617   3.411   2.024
 1629SOL     OW 5629   1.619   3.590   3.254
 1629SOL    HW1 5630   1.673   3.594   3.175
 1629SOL    HW2 5631   1.605   3.681   3.279
 1630SOL     OW 5632   1.797   2.003   2.842
 1630SOL    HW1 5633   1.843   1.926   2.809
 1630SOL    HW2 5634   1.720   2.011   2.786
 1631SOL     OW 5635   0.259   2.179   2.577
 1631SOL    HW1 5636   0.176   2.220   2.552
 1631SOL    HW2 5637   0.251   2.165   2.672
 1632SOL     OW 5638   1.208   3.463   1.895
 1632SOL    HW1 5639   1.197   3.372   1.922
 1632SOL    HW2 5640   1.142   3.477   1.828
 1633SOL     OW 5641   0.827   2.871   3.237
 1633SOL    HW1 5642   0.869   2.865   3.151
 1633SOL    HW2 5643   0.822   2.965   3.255
 1634SOL     OW 5644   0.916   2.773   2.153
 1634SOL    HW1 5645   0.977   2.806   2.086
 1634SOL    HW2 5646   0.966   2.705   2.199
 1635SOL     OW 5647   1.489   3.491   1.907
 1635SOL    HW1 5648   1.395   3.481   1.892
 1635SOL    HW2 5649   1.527   3.497   1.820
 1636SOL     OW 5650   0.372   3.173   3.352
 1636SOL    HW1 5651   0.354   3.252   3.301
 1636SOL    HW2 5652   0.298   3.116   3.333
 1637SOL     OW 5653   1.609   3.147   3.142
 1637SOL    HW1 5654   1.665   3.130   3.218
 1637SOL    HW2 5655   1.548   3.214   3.173
 1638SOL     OW 5656   1.063   2.972   2.573
 1638SOL    HW1 5657   0.989   2.923   2.610
 1638SOL    HW2 5658   1.125   2.906   2.546
 1639SOL     OW 5659   1.023   2.104   2.829
 1639SOL    HW1 5660   1.020   2.058   2.745
 1639SOL    HW2 5661   1.019   2.035   2.895
 1640SOL     OW 5662   0.607   3.350   2.344
 1640SOL    HW1 5663   0.655   3.302   2.277
 1640SOL    HW2 5664   0.526   3.378   2.300
 1641SOL     OW 5665   1.728   2.264   3.241
 1641SOL    HW1 5666   1.809   2.315   3.241
 1641SOL    HW2 5667   1.747   2.188   3.187
 1642SOL     OW 5668   0.254   3.205   2.135
 1642SOL    HW1 5669   0.159   3.199   2.123
 1642SOL    HW2 5670   0.265   3.238   2.224
 1643SOL     OW 5671   0.117   2.866   3.553
 1643SOL    HW1 5672   0.053   2.913   3.607
 1643SOL    HW2 5673   0.196   2.861   3.607
 1644SOL     OW 5674   0.677   2.060   3.361
 1644SOL    HW1 5675   0.761   2.036   3.321
 1644SOL    HW2 5676   0.700   2.090   3.449
 1645SOL     OW 5677   0.074   2.190   1.889
 1645SOL    HW1 5678   4.483   2.206   1.913
 1645SOL    HW2 5679   0.102   2.270   1.845
 1646SOL     OW 5680   1.426   2.721   3.259
 1646SOL    HW1 5681   1.376   2.781   3.204
 1646SOL    HW2 5682   1.514   2.723   3.223
 1647SOL     OW 5683   0.087   2.033   2.163
 1647SOL    HW1 5684   0.082   2.111   2.108
 1647SOL    HW2 5685   0.162   1.985   2.128
 1648SOL     OW 5686   1.178   3.196   1.980
 1648SOL    HW1 5687   1.086   3.167   1.980
 1648SOL    HW2 5688   1.203   3.197   2.072
 1649SOL     OW 5689   0.629   2.694   3.300
 1649SOL    HW1 5690   0.686   2.769   3.285
 1649SOL    HW2 5691   0.688   2.619   3.302
 1650SOL     OW 5692   1.483   3.647   2.845
 1650SOL    HW1 5693   1.504   3.714   2.780
 1650SOL    HW2 5694   1.567   3.621   2.880
 1651SOL     OW 5695   0.710   2.426   3.567
 1651SOL    HW1 5696   0.764   2.481   3.623
 1651SOL    HW2 5697   0.730   2.336   3.595
 1652SOL     OW 5698   1.473   3.056   3.490
 1652SOL    HW1 5699   1.461   3.072   3.584
 1652SOL    HW2 5700   1.566   3.076   3.474
 1653SOL     OW 5701   0.375   3.609   3.428
 1653SOL    HW1 5702   0.290   3.650   3.410
 1653SOL    HW2 5703   0.353   3.530   3.478
 1654SOL     OW 5704   1.665   2.743   3.115
 1654SOL    HW1 5705   1.658   2.657   3.074
 1654SOL    HW2 5706   1.653   2.805   3.044
 1655SOL     OW 5707   1.215   2.183   2.318
 1655SOL    HW1 5708   1.274   2.108   2.313
 1655SOL    HW2 5709   1.245   2.232   2.395
 1656SOL     OW 5710   0.588   2.595   2.534
 1656SOL    HW1 5711   0.626   2.682   2.520
 1656SOL    HW2 5712   0.522   2.587   2.465
 1657SOL     OW 5713   1.743   2.244   3.516
 1657SOL    HW1 5714   1.737   2.254   3.421
 1657SOL    HW2 5715   1.675   2.179   3.537
 1658SOL     OW 5716   1.749   2.799   3.370
 1658SOL    HW1 5717   1.737   2.893   3.382
 1658SOL    HW2 5718   1.732   2.784   3.277
 1659SOL     OW 5719   0.867   3.226   1.907
 1659SOL    HW1 5720   0.827   3.253   1.989
 1659SOL    HW2 5721   0.879   3.308   1.859
 1660SOL     OW 5722   0.665   3.645   2.801
 1660SOL    HW1 5723   0.646   3.737   2.780
 1660SOL    HW2 5724   0.760   3.638   2.793
 1661SOL     OW 5725   0.870   2.834   2.715
 1661SOL    HW1 5726   0.919   2.760   2.752
 1661SOL    HW2 5727   0.831   2.877   2.791
 1662SOL     OW 5728   1.078   2.851   1.952
 1662SOL    HW1 5729   1.056   2.902   1.874
 1662SOL    HW2 5730   1.152   2.796   1.924
 1663SOL     OW 5731   1.846   3.414   2.704
 1663SOL    HW1 5732   1.767   3.404   2.651
 1663SOL    HW2 5733   1.834   3.353   2.777
 1664SOL     OW 5734   0.234   3.164   3.724
 1664SOL    HW1 5735   0.147   3.129   3.708
 1664SOL    HW2 5736   0.239   3.175   3.819
 1665SOL     OW 5737   0.127   3.088   2.530
 1665SOL    HW1 5738   0.147   3.049   2.615
 1665SOL    HW2 5739   0.182   3.040   2.467
 1666SOL     OW 5740   0.688   3.270   3.495
 1666SOL    HW1 5741   0.608   3.227   3.525
 1666SOL    HW2 5742   0.682   3.358   3.532
 1667SOL     OW 5743   1.777   2.040   3.104
 1667SOL    HW1 5744   1.814   1.956   3.131
 1667SOL    HW2 5745   1.785   2.040   3.009
 1668SOL     OW 5746   0.434   2.293   2.386
 1668SOL    HW1 5747   0.461   2.220   2.331
 1668SOL    HW2 5748   0.383   2.253   2.456
 1669SOL     OW 5749   1.698   3.347   2.952
 1669SOL    HW1 5750   1.618   3.328   2.903
 1669SOL    HW2 5751   1.701   3.279   3.019
 1670SOL     OW 5752   0.294   2.356   3.113
 1670SOL    HW1 5753   0.365   2.303   3.149
 1670SOL    HW2 5754   0.318   2.370   3.022
 1671SOL     OW 5755   0.832   3.440   2.537
 1671SOL    HW1 5756   0.809   3.504   2.469
 1671SOL    HW2 5757   0.757   3.381   2.539
 1672SOL     OW 5758   1.429   2.094   2.976
 1672SOL    HW1 5759   1.459   2.014   3.018
 1672SOL    HW2 5760   1.378   2.140   3.043
 1673SOL     OW 5761   1.009   1.878   2.998
 1673SOL    HW1 5762   0.954   1.812   2.955
 1673SOL    HW2 5763   1.096   1.839   2.999
 1674SOL     OW 5764   0.775   3.196   2.183
 1674SOL    HW1 5765   0.748   3.105   2.191
 1674SOL    HW2 5766   0.856   3.202   2.233
 1675SOL     OW 5767   0.621   3.417   3.150
 1675SOL    HW1 5768   0.621   3.500   3.199
 1675SOL    HW2 5769   0.709   3.412   3.112
 1676SOL     OW 5770   1.360   1.914   2.032
 1676SOL    HW1 5771   1.392   1.843   1.976
 1676SOL    HW2 5772   1.270   1.888   2.055
 1677SOL     OW 5773   1.297   2.328   2.540
 1677SOL    HW1 5774   1.242   2.406   2.543
 1677SOL    HW2 5775   1.289   2.290   2.627
 1678SOL     OW 5776   1.558   2.046   2.728
 1678SOL    HW1 5777   1.513   2.077   2.806
 1678SOL    HW2 5778   1.568   2.124   2.673
 1679SOL     OW 5779   0.038   2.911   2.157
 1679SOL    HW1 5780   0.129   2.885   2.143
 1679SOL    HW2 5781   0.020   2.889   2.249
 1680SOL     OW 5782   0.890   3.523   2.199
 1680SOL    HW1 5783   0.815   3.507   2.142
 1680SOL    HW2 5784   0.862   3.595   2.256
 1681SOL     OW 5785   0.242   2.494   3.848
 1681SOL    HW1 5786   0.169   2.465   3.902
 1681SOL    HW2 5787   0.215   2.477   3.758
 1682SOL     OW 5788   0.212   2.135   4.714
 1682SOL    HW1 5789   0.248   2.108   4.798
 1682SOL    HW2 5790   0.137   2.078   4.700
 1683SOL     OW 5791   0.004   2.265   4.364
 1683SOL    HW1 5792   4.423   2.299   4.401
 1683SOL    HW2 5793   4.477   2.186   4.316
 1684SOL     OW 5794   0.570   3.159   4.908
 1684SOL    HW1 5795   0.483   3.164   4.867
 1684SOL    HW2 5796   0.585   3.248   4.942
 1685SOL     OW 5797   1.568   3.379   4.433
 1685SOL    HW1 5798   1.525   3.354   4.516
 1685SOL    HW2 5799   1.497   3.384   4.370
 1686SOL     OW 5800   1.133   2.559   4.417
 1686SOL    HW1 5801   1.177   2.643   4.404
 1686SOL    HW2 5802   1.085   2.570   4.499
 1687SOL     OW 5803   1.777   2.470   3.948
 1687SOL    HW1 5804   1.747   2.465   3.857
 1687SOL    HW2 5805   1.752   2.387   3.987
 1688SOL     OW 5806   0.745   2.999   4.770
 1688SOL    HW1 5807   0.679   3.037   4.829
 1688SOL    HW2 5808   0.785   3.075   4.727
 1689SOL     OW 5809   0.874   2.622   5.547
 1689SOL    HW1 5810   0.856   2.691   5.611
 1689SOL    HW2 5811   0.895   2.670   5.466
 1690SOL     OW 5812   0.684   2.860   4.369
 1690SOL    HW1 5813   0.751   2.852   4.437
 1690SOL    HW2 5814   0.616   2.914   4.408
 1691SOL     OW 5815   0.714   3.011   5.545
 1691SOL    HW1 5816   0.761   3.089   5.575
 1691SOL    HW2 5817   0.635   3.045   5.504
 1692SOL     OW 5818   0.333   3.278   4.791
 1692SOL    HW1 5819   0.252   3.257   4.745
 1692SOL    HW2 5820   0.382   3.334   4.730
 1693SOL     OW 5821   1.458   3.364   5.087
 1693SOL    HW1 5822   1.512   3.442   5.095
 1693SOL    HW2 5823   1.388   3.376   5.152
 1694SOL     OW 5824   0.453   2.261   5.202
 1694SOL    HW1 5825   0.530   2.206   5.211
 1694SOL    HW2 5826   0.379   2.202   5.217
 1695SOL     OW 5827   1.587   2.315   4.441
 1695SOL    HW1 5828   1.500   2.315   4.401
 1695SOL    HW2 5829   1.590   2.396   4.491
 1696SOL     OW 5830   0.246   3.552   4.196
 1696SOL    HW1 5831   0.229   3.637   4.236
 1696SOL    HW2 5832   0.319   3.568   4.136
 1697SOL     OW 5833   1.138   3.204   5.418
 1697SOL    HW1 5834   1.176   3.199   5.506
 1697SOL    HW2 5835   1.085   3.125   5.410
 1698SOL     OW 5836   0.262   3.287   4.248
 1698SOL    HW1 5837   0.246   3.381   4.252
 1698SOL    HW2 5838   0.203   3.250   4.314
 1699SOL     OW 5839   0.257   2.946   4.611
 1699SOL    HW1 5840   0.269   2.853   4.632
 1699SOL    HW2 5841   0.195   2.978   4.676
 1700SOL     OW 5842   0.607   3.654   5.154
 1700SOL    HW1 5843   0.523   3.636   5.198
 1700SOL    HW2 5844   0.628   3.744   5.179
 1701SOL     OW 5845   0.569   2.855   3.869
 1701SOL    HW1 5846   0.621   2.893   3.798
 1701SOL    HW2 5847   0.613   2.884   3.949
 1702SOL     OW 5848   0.137   2.514   4.297
 1702SOL    HW1 5849   0.092   2.433   4.320
 1702SOL    HW2 5850   0.107   2.578   4.362
 1703SOL     OW 5851   1.843   3.615   4.054
 1703SOL    HW1 5852   1.912   3.590   4.115
 1703SOL    HW2 5853   1.861   3.707   4.034
 1704SOL     OW 5854   0.032   3.467   3.878
 1704SOL    HW1 5855   0.016   3.373   3.870
 1704SOL    HW2 5856   0.049   3.480   3.971
 1705SOL     OW 5857   1.687   2.776   4.364
 1705SOL    HW1 5858   1.767   2.732   4.338
 1705SOL    HW2 5859   1.663   2.830   4.289
 1706SOL     OW 5860   1.649   2.961   4.154
 1706SOL    HW1 5861   1.735   2.962   4.111
 1706SOL    HW2 5862   1.655   3.030   4.219
 1707SOL     OW 5863   0.106   2.629   5.288
 1707SOL    HW1 5864   0.192   2.615   5.249
 1707SOL    HW2 5865   0.109   2.719   5.321
 1708SOL     OW 5866   0.617   3.253   4.461
 1708SOL    HW1 5867   0.570   3.169   4.470
 1708SOL    HW2 5868   0.600   3.280   4.371
 1709SOL     OW 5869   1.284   3.096   5.143
 1709SOL    HW1 5870   1.320   3.032   5.082
 1709SOL    HW2 5871   1.344   3.093   5.218
 1710SOL     OW 5872   0.824   1.866   4.239
 1710SOL    HW1 5873   0.864   1.949   4.214
 1710SOL    HW2 5874   0.731   1.884   4.243
 1711SOL     OW 5875   0.175   2.801   5.001
 1711SOL    HW1 5876   0.266   2.778   4.982
 1711SOL    HW2 5877   0.132   2.802   4.916
 1712SOL     OW 5878   1.531   2.861   3.924
 1712SOL    HW1 5879   1.461   2.804   3.956
 1712SOL    HW2 5880   1.573   2.893   4.003
 1713SOL     OW 5881   1.186   3.676   5.350
 1713SOL    HW1 5882   1.189   3.737   5.276
 1713SOL    HW2 5883   1.202   3.590   5.312
 1714SOL     OW 5884   0.337   2.119   5.537
 1714SOL    HW1 5885   0.379   2.195   5.577
 1714SOL    HW2 5886   0.245   2.125   5.564
 1715SOL     OW 5887   1.465   3.281   4.669
 1715SOL    HW1 5888   1.400   3.298   4.737
 1715SOL    HW2 5889   1.447   3.192   4.639
 1716SOL     OW 5890   1.653   3.616   4.300
 1716SOL    HW1 5891   1.634   3.582   4.213
 1716SOL    HW2 5892   1.636   3.542   4.359
 1717SOL     OW 5893   0.598   2.578   3.995
 1717SOL    HW1 5894   0.597   2.662   3.950
 1717SOL    HW2 5895   0.532   2.587   4.064
 1718SOL     OW 5896   1.259   2.222   4.647
 1718SOL    HW1 5897   1.180   2.178   4.677
 1718SOL    HW2 5898   1.326   2.197   4.711
 1719SOL     OW 5899   1.578   3.535   4.035
 1719SOL    HW1 5900   1.670   3.561   4.027
 1719SOL    HW2 5901   1.550   3.519   3.945
 1720SOL     OW 5902   0.788   2.475   5.174
 1720SOL    HW1 5903   0.760   2.448   5.261
 1720SOL    HW2 5904   0.752   2.408   5.115
 1721SOL     OW 5905   1.397   2.337   5.406
 1721SOL    HW1 5906   1.392   2.376   5.494
 1721SOL    HW2 5907   1.465   2.270   5.413
 1722SOL     OW 5908   0.945   2.751   5.312
 1722SOL    HW1 5909   0.998   2.681   5.273
 1722SOL    HW2 5910   0.899   2.790   5.238
 1723SOL     OW 5911   0.978   2.275   4.952
 1723SOL    HW1 5912   0.888   2.290   4.980
 1723SOL    HW2 5913   0.970   2.228   4.869
 1724SOL     OW 5914   1.054   2.560   4.147
 1724SOL    HW1 5915   1.073   2.553   4.241
 1724SOL    HW2 5916   0.971   2.515   4.136
 1725SOL     OW 5917   0.087   2.694   4.512
 1725SOL    HW1 5918   0.173   2.685   4.553
 1725SOL    HW2 5919   0.025   2.689   4.585
 1726SOL     OW 5920   0.121   3.724   5.306
 1726SOL    HW1 5921   0.114   3.700   5.399
 1726SOL    HW2 5922   0.044   3.682   5.265
 1727SOL     OW 5923   0.899   2.212   3.920
 1727SOL    HW1 5924   0.939   2.275   3.860
 1727SOL    HW2 5925   0.907   2.128   3.875
 1728SOL     OW 5926   1.706   2.443   5.548
 1728SOL    HW1 5927   1.682   2.532   5.524
 1728SOL    HW2 5928   1.701   2.394   5.466
 1729SOL     OW 5929   1.382   3.006   4.267
 1729SOL    HW1 5930   1.459   2.993   4.213
 1729SOL    HW2 5931   1.327   3.067   4.217
 1730SOL     OW 5932   0.555   2.038   4.620
 1730SOL    HW1 5933   0.556   2.071   4.710
 1730SOL    HW2 5934   0.554   2.117   4.565
 1731SOL     OW 5935   0.999   3.306   4.192
 1731SOL    HW1 5936   0.969   3.382   4.142
 1731SOL    HW2 5937   0.975   3.326   4.283
 1732SOL     OW 5938   0.360   3.678   4.585
 1732SOL    HW1 5939   0.401   3.593   4.597
 1732SOL    HW2 5940   0.429   3.741   4.606
 1733SOL     OW 5941   1.801   2.946   4.558
 1733SOL    HW1 5942   1.739   2.908   4.496
 1733SOL    HW2 5943   1.751   2.951   4.640
 1734SOL     OW 5944   1.226   3.402   5.237
 1734SOL    HW1 5945   1.214   3.330   5.299
 1734SOL    HW2 5946   1.158   3.389   5.171
 1735SOL     OW 5947   0.309   2.812   3.986
 1735SOL    HW1 5948   0.391   2.837   3.943
 1735SOL    HW2 5949   0.298   2.719   3.966
 1736SOL     OW 5950   1.481   2.619   4.446
 1736SOL    HW1 5951   1.494   2.585   4.535
 1736SOL    HW2 5952   1.558   2.673   4.430
 1737SOL     OW 5953   0.472   3.128   5.459
 1737SOL    HW1 5954   0.446   3.135   5.367
 1737SOL    HW2 5955   0.390   3.126   5.507
 1738SOL     OW 5956   1.125   3.640   3.952
 1738SOL    HW1 5957   1.049   3.602   3.996
 1738SOL    HW2 5958   1.149   3.577   3.885
 1739SOL     OW 5959   0.205   2.136   5.209
 1739SOL    HW1 5960   0.146   2.211   5.216
 1739SOL    HW2 5961   0.179   2.079   5.282
 1740SOL     OW 5962   1.629   3.244   3.815
 1740SOL    HW1 5963   1.588   3.329   3.800
 1740SOL    HW2 5964   1.561   3.180   3.794
 1741SOL     OW 5965   0.469   3.604   4.036
 1741SOL    HW1 5966   0.514   3.658   4.101
 1741SOL    HW2 5967   0.539   3.565   3.984
 1742SOL     OW 5968   1.400   1.969   4.166
 1742SOL    HW1 5969   1.394   1.943   4.073
 1742SOL    HW2 5970   1.493   1.982   4.181
 1743SOL     OW 5971   0.255   3.654   4.945
 1743SOL    HW1 5972   0.298   3.575   4.979
 1743SOL    HW2 5973   0.213   3.625   4.864
 1744SOL     OW 5974   0.940   3.562   4.619
 1744SOL    HW1 5975   1.019   3.513   4.642
 1744SOL    HW2 5976   0.899   3.511   4.549
 1745SOL     OW 5977   0.398   2.554   4.194
 1745SOL    HW1 5978   0.418   2.461   4.207
 1745SOL    HW2 5979   0.306   2.562   4.220
 1746SOL     OW 5980   0.646   1.980   3.823
 1746SOL    HW1 5981   0.703   1.906   3.844
 1746SOL    HW2 5982   0.592   1.950   3.750
 1747SOL     OW 5983   0.764   2.143   5.479
 1747SOL    HW1 5984   0.844   2.092   5.475
 1747SOL    HW2 5985   0.717   2.109   5.556
 1748SOL     OW 5986   0.876   3.387   4.919
 1748SOL    HW1 5987   0.858   3.348   4.833
 1748SOL    HW2 5988   0.945   3.332   4.956
 1749SOL     OW 5989   1.317   2.452   5.170
 1749SOL    HW1 5990   1.354   2.419   5.252
 1749SOL    HW2 5991   1.358   2.538   5.159
 1750SOL     OW 5992   0.819   3.251   4.671
 1750SOL    HW1 5993   0.904   3.240   4.628
 1750SOL    HW2 5994   0.756   3.258   4.600
 1751SOL     OW 5995   0.930   2.375   4.623
 1751SOL    HW1 5996   0.905   2.365   4.531
 1751SOL    HW2 5997   0.961   2.289   4.649
 1752SOL     OW 5998   0.560   1.925   4.218
 1752SOL    HW1 5999   0.480   1.923   4.270
 1752SOL    HW2 6000   0.550   2.002   4.161
 1753SOL     OW 6001   1.428   3.063   3.763
 1753SOL    HW1 6002   1.457   2.988   3.814
 1753SOL    HW2 6003   1.342   3.085   3.799
 1754SOL     OW 6004   0.296   1.906   3.900
 1754SOL    HW1 6005   0.359   1.971   3.870
 1754SOL    HW2 6006   0.348   1.840   3.946
 1755SOL     OW 6007   0.944   2.112   4.180
 1755SOL    HW1 6008   0.920   2.150   4.095
 1755SOL    HW2 6009   1.038   2.127   4.187
 1756SOL     OW 6010   1.067   2.550   5.182
 1756SOL    HW1 6011   1.001   2.480   5.184
 1756SOL    HW2 6012   1.151   2.504   5.181
 1757SOL     OW 6013   1.219   3.435   4.519
 1757SOL    HW1 6014   1.233   3.500   4.450
 1757SOL    HW2 6015   1.289   3.452   4.582
 1758SOL     OW 6016   0.470   3.016   4.454
 1758SOL    HW1 6017   0.404   2.997   4.520
 1758SOL    HW2 6018   0.427   3.002   4.370
 1759SOL     OW 6019   1.264   3.654   4.337
 1759SOL    HW1 6020   1.312   3.715   4.282
 1759SOL    HW2 6021   1.195   3.707   4.377
 1760SOL     OW 6022   1.024   2.396   3.751
 1760SOL    HW1 6023   0.981   2.479   3.731
 1760SOL    HW2 6024   1.089   2.417   3.817
 1761SOL     OW 6025   0.073   2.373   5.134
 1761SOL    HW1 6026   0.140   2.370   5.066
 1761SOL    HW2 6027   0.061   2.466   5.151
 1762SOL     OW 6028   0.558   2.089   4.893
 1762SOL    HW1 6029   0.603   2.015   4.934
 1762SOL    HW2 6030   0.466   2.078   4.918
 1763SOL     OW 6031   0.867   2.320   4.362
 1763SOL    HW1 6032   0.823   2.376   4.297
 1763SOL    HW2 6033   0.890   2.241   4.314
 1764SOL     OW 6034   1.016   1.917   4.473
 1764SOL    HW1 6035   0.959   1.912   4.397
 1764SOL    HW2 6036   0.992   1.841   4.526
 1765SOL     OW 6037   1.418   3.027   4.569
 1765SOL    HW1 6038   1.355   2.956   4.581
 1765SOL    HW2 6039   1.430   3.034   4.474
 1766SOL     OW 6040   1.841   2.672   4.118
 1766SOL    HW1 6041   1.901   2.621   4.171
 1766SOL    HW2 6042   1.815   2.614   4.047
 1767SOL     OW 6043   0.493   3.285   3.877
 1767SOL    HW1 6044   0.414   3.258   3.924
 1767SOL    HW2 6045   0.484   3.246   3.790
 1768SOL     OW 6046   1.676   3.139   4.349
 1768SOL    HW1 6047   1.769   3.145   4.369
 1768SOL    HW2 6048   1.640   3.223   4.378
 1769SOL     OW 6049   1.393   2.436   3.794
 1769SOL    HW1 6050   1.333   2.413   3.866
 1769SOL    HW2 6051   1.479   2.412   3.827
 1770SOL     OW 6052   0.526   2.121   4.032
 1770SOL    HW1 6053   0.577   2.078   3.964
 1770SOL    HW2 6054   0.502   2.206   3.994
 1771SOL     OW 6055   1.772   3.096   5.305
 1771SOL    HW1 6056   1.829   3.046   5.364
 1771SOL    HW2 6057   1.791   3.187   5.326
 1772SOL     OW 6058   1.053   3.218   5.058
 1772SOL    HW1 6059   0.977   3.186   5.107
 1772SOL    HW2 6060   1.128   3.174   5.098
 1773SOL     OW 6061   1.612   3.487   5.383
 1773SOL    HW1 6062   1.603   3.522   5.295
 1773SOL    HW2 6063   1.693   3.436   5.380
 1774SOL     OW 6064   1.136   3.076   4.828
 1774SOL    HW1 6065   1.074   3.112   4.891
 1774SOL    HW2 6066   1.107   3.109   4.743
 1775SOL     OW 6067   1.609   2.980   4.770
 1775SOL    HW1 6068   1.593   3.026   4.852
 1775SOL    HW2 6069   1.531   2.998   4.717
 1776SOL     OW 6070   0.916   1.955   5.117
 1776SOL    HW1 6071   0.939   1.936   5.026
 1776SOL    HW2 6072   0.997   1.992   5.154
 1777SOL     OW 6073   0.984   2.978   5.449
 1777SOL    HW1 6074   0.893   2.995   5.474
 1777SOL    HW2 6075   0.979   2.900   5.395
 1778SOL     OW 6076   0.710   2.926   4.096
 1778SOL    HW1 6077   0.696   2.905   4.189
 1778SOL    HW2 6078   0.785   2.872   4.071
 1779SOL     OW 6079   0.432   2.693   4.974
 1779SOL    HW1 6080   0.502   2.708   5.038
 1779SOL    HW2 6081   0.379   2.624   5.013
 1780SOL     OW 6082   1.240   2.244   5.011
 1780SOL    HW1 6083   1.267   2.321   5.060
 1780SOL    HW2 6084   1.150   2.262   4.985
 1781SOL     OW 6085   0.065   3.434   5.071
 1781SOL    HW1 6086   0.039   3.526   5.061
 1781SOL    HW2 6087   0.161   3.437   5.075
 1782SOL     OW 6088   0.333   2.976   4.217
 1782SOL    HW1 6089   0.344   3.051   4.160
 1782SOL    HW2 6090   0.331   2.900   4.158
 1783SOL     OW 6091   0.556   2.387   4.577
 1783SOL    HW1 6092   0.569   2.447   4.504
 1783SOL    HW2 6093   0.620   2.415   4.643
 1784SOL     OW 6094   1.247   3.211   4.116
 1784SOL    HW1 6095   1.303   3.283   4.147
 1784SOL    HW2 6096   1.160   3.233   4.148
 1785SOL     OW 6097   1.289   3.323   4.872
 1785SOL    HW1 6098   1.344   3.327   4.951
 1785SOL    HW2 6099   1.235   3.246   4.884
 1786SOL     OW 6100   1.573   2.487   4.191
 1786SOL    HW1 6101   1.521   2.535   4.257
 1786SOL    HW2 6102   1.618   2.556   4.142
 1787SOL     OW 6103   0.344   3.399   5.032
 1787SOL    HW1 6104   0.332   3.350   4.951
 1787SOL    HW2 6105   0.439   3.408   5.041
 1788SOL     OW 6106   0.497   2.616   5.400
 1788SOL    HW1 6107   0.530   2.657   5.319
 1788SOL    HW2 6108   0.560   2.545   5.417
 1789SOL     OW 6109   0.994   1.995   5.477
 1789SOL    HW1 6110   1.056   2.066   5.460
 1789SOL    HW2 6111   1.042   1.916   5.454
 1790SOL     OW 6112   0.496   1.903   5.474
 1790SOL    HW1 6113   0.450   1.848   5.410
 1790SOL    HW2 6114   0.439   1.980   5.484
 1791SOL     OW 6115   0.592   2.736   4.752
 1791SOL    HW1 6116   0.624   2.827   4.754
 1791SOL    HW2 6117   0.535   2.730   4.829
 1792SOL     OW 6118   1.318   2.729   4.723
 1792SOL    HW1 6119   1.228   2.716   4.695
 1792SOL    HW2 6120   1.358   2.642   4.716
 1793SOL     OW 6121   1.200   2.388   3.986
 1793SOL    HW1 6122   1.209   2.310   4.041
 1793SOL    HW2 6123   1.157   2.453   4.043
 1794SOL     OW 6124   0.299   2.049   4.965
 1794SOL    HW1 6125   0.263   2.079   5.048
 1794SOL    HW2 6126   0.282   1.954   4.964
 1795SOL     OW 6127   0.013   3.173   5.013
 1795SOL    HW1 6128   0.060   3.125   5.081
 1795SOL    HW2 6129   0.028   3.265   5.034
 1796SOL     OW 6130   0.721   2.490   4.776
 1796SOL    HW1 6131   0.798   2.476   4.721
 1796SOL    HW2 6132   0.693   2.579   4.756
 1797SOL     OW 6133   1.679   2.794   5.551
 1797SOL    HW1 6134   1.600   2.791   5.498
 1797SOL    HW2 6135   1.650   2.826   5.637
 1798SOL     OW 6136   0.321   1.931   4.341
 1798SOL    HW1 6137   0.289   2.018   4.364
 1798SOL    HW2 6138   0.320   1.883   4.424
 1799SOL     OW 6139   1.621   2.239   4.085
 1799SOL    HW1 6140   1.642   2.174   4.152
 1799SOL    HW2 6141   1.598   2.318   4.134
 1800SOL     OW 6142   1.037   2.621   4.683
 1800SOL    HW1 6143   1.023   2.638   4.776
 1800SOL    HW2 6144   1.007   2.531   4.670
 1801SOL     OW 6145   0.983   3.430   5.445
 1801SOL    HW1 6146   0.966   3.473   5.362
 1801SOL    HW2 6147   1.025   3.347   5.421
 1802SOL     OW 6148   1.857   3.358   5.323
 1802SOL    HW1 6149   1.874   3.403   5.240
 1802SOL    HW2 6150   1.935   3.375   5.376
 1803SOL     OW 6151   0.348   2.798   5.541
 1803SOL    HW1 6152   0.417   2.830   5.599
 1803SOL    HW2 6153   0.390   2.729   5.489
 1804SOL     OW 6154   1.533   2.130   3.850
 1804SOL    HW1 6155   1.466   2.067   3.878
 1804SOL    HW2 6156   1.564   2.170   3.932
 1805SOL     OW 6157   1.287   2.687   3.753
 1805SOL    HW1 6158   1.329   2.601   3.756
 1805SOL    HW2 6159   1.318   2.725   3.670
 1806SOL     OW 6160   1.070   3.201   4.582
 1806SOL    HW1 6161   1.075   3.130   4.519
 1806SOL    HW2 6162   1.127   3.269   4.546
 1807SOL     OW 6163   0.319   2.672   4.664
 1807SOL    HW1 6164   0.413   2.690   4.665
 1807SOL    HW2 6165   0.311   2.580   4.687
 1808SOL     OW 6166   0.322   2.388   4.708
 1808SOL    HW1 6167   0.284   2.302   4.692
 1808SOL    HW2 6168   0.402   2.389   4.655
 1809SOL     OW 6169   1.134   2.235   5.406
 1809SOL    HW1 6170   1.086   2.289   5.470
 1809SOL    HW2 6171   1.222   2.272   5.405
 1810SOL     OW 6172   1.162   2.055   5.195
 1810SOL    HW1 6173   1.149   2.117   5.267
 1810SOL    HW2 6174   1.198   2.108   5.124
 1811SOL     OW 6175   4.491   3.180   3.936
 1811SOL    HW1 6176   4.399   3.198   3.918
 1811SOL    HW2 6177   4.494   3.087   3.957
 1812SOL     OW 6178   0.105   3.628   4.666
 1812SOL    HW1 6179   0.063   3.587   4.590
 1812SOL    HW2 6180   0.192   3.653   4.635
 1813SOL     OW 6181   0.493   3.436   4.631
 1813SOL    HW1 6182   0.561   3.499   4.655
 1813SOL    HW2 6183   0.536   3.375   4.572
 1814SOL     OW 6184   0.972   2.651   4.944
 1814SOL    HW1 6185   1.028   2.633   5.020
 1814SOL    HW2 6186   0.888   2.610   4.967
 1815SOL     OW 6187   0.022   2.421   4.807
 1815SOL    HW1 6188   0.115   2.404   4.792
 1815SOL    HW2 6189   0.002   2.373   4.888
 1816SOL     OW 6190   0.179   2.393   5.442
 1816SOL    HW1 6191   0.262   2.363   5.404
 1816SOL    HW2 6192   0.157   2.471   5.392
 1817SOL     OW 6193   1.401   2.800   5.402
 1817SOL    HW1 6194   1.413   2.894   5.383
 1817SOL    HW2 6195   1.384   2.761   5.316
 1818SOL     OW 6196   0.819   2.432   4.091
 1818SOL    HW1 6197   0.824   2.357   4.031
 1818SOL    HW2 6198   0.745   2.483   4.059
 1819SOL     OW 6199   0.275   3.424   5.464
 1819SOL    HW1 6200   0.211   3.474   5.514
 1819SOL    HW2 6201   0.259   3.333   5.488
 1820SOL     OW 6202   0.703   2.310   4.978
 1820SOL    HW1 6203   0.649   2.236   4.950
 1820SOL    HW2 6204   0.697   2.372   4.906
 1821SOL     OW 6205   0.923   3.541   5.195
 1821SOL    HW1 6206   0.898   3.500   5.112
 1821SOL    HW2 6207   0.915   3.635   5.179
 1822SOL     OW 6208   0.469   2.351   3.899
 1822SOL    HW1 6209   0.531   2.419   3.926
 1822SOL    HW2 6210   0.386   2.398   3.886
 1823SOL     OW 6211   0.160   3.005   5.179
 1823SOL    HW1 6212   0.143   2.962   5.263
 1823SOL    HW2 6213   0.167   2.933   5.117
 1824SOL     OW 6214   1.324   2.904   4.937
 1824SOL    HW1 6215   1.338   2.844   4.863
 1824SOL    HW2 6216   1.257   2.965   4.905
 1825SOL     OW 6217   1.316   2.719   4.028
 1825SOL    HW1 6218   1.242   2.687   4.080
 1825SOL    HW2 6219   1.289   2.705   3.937
 1826SOL     OW 6220   1.785   3.605   4.885
 1826SOL    HW1 6221   1.842   3.628   4.812
 1826SOL    HW2 6222   1.750   3.519   4.862
 1827SOL     OW 6223   1.239   3.595   4.831
 1827SOL    HW1 6224   1.322   3.620   4.788
 1827SOL    HW2 6225   1.249   3.502   4.850
 1828SOL     OW 6226   0.074   3.050   4.775
 1828SOL    HW1 6227   0.054   3.078   4.865
 1828SOL    HW2 6228   0.043   3.122   4.720
 1829SOL     OW 6229   0.680   3.534   5.463
 1829SOL    HW1 6230   0.617   3.605   5.452
 1829SOL    HW2 6231   0.747   3.550   5.397
 1830SOL     OW 6232   1.678   1.998   4.221
 1830SOL    HW1 6233   1.764   1.983   4.182
 1830SOL    HW2 6234   1.663   1.923   4.278
 1831SOL     OW 6235   1.392   3.430   4.215
 1831SOL    HW1 6236   1.451   3.464   4.147
 1831SOL    HW2 6237   1.341   3.506   4.243
 1832SOL     OW 6238   0.115   3.668   5.575
 1832SOL    HW1 6239   0.074   3.597   5.625
 1832SOL    HW2 6240   0.180   3.705   5.635
 1833SOL     OW 6241   1.272   2.791   4.390
 1833SOL    HW1 6242   1.346   2.732   4.404
 1833SOL    HW2 6243   1.308   2.862   4.338
 1834SOL     OW 6244   0.803   3.140   5.148
 1834SOL    HW1 6245   0.776   3.181   5.230
 1834SOL    HW2 6246   0.732   3.159   5.087
 1835SOL     OW 6247   0.672   3.488   3.879
 1835SOL    HW1 6248   0.683   3.502   3.785
 1835SOL    HW2 6249   0.617   3.410   3.886
 1836SOL     OW 6250   1.620   3.589   5.118
 1836SOL    HW1 6251   1.673   3.594   5.039
 1836SOL    HW2 6252   1.605   3.680   5.143
 1837SOL     OW 6253   1.802   2.038   4.540
 1837SOL    HW1 6254   1.867   1.968   4.547
 1837SOL    HW2 6255   1.721   1.998   4.572
 1838SOL     OW 6256   0.259   2.180   4.439
 1838SOL    HW1 6257   0.176   2.220   4.414
 1838SOL    HW2 6258   0.251   2.166   4.534
 1839SOL     OW 6259   1.208   3.463   3.757
 1839SOL    HW1 6260   1.197   3.372   3.784
 1839SOL    HW2 6261   1.142   3.477   3.690
 1840SOL     OW 6262   0.826   2.872   5.098
 1840SOL    HW1 6263   0.868   2.866   5.012
 1840SOL    HW2 6264   0.821   2.966   5.116
 1841SOL     OW 6265   0.917   2.773   4.015
 1841SOL    HW1 6266   0.976   2.806   3.948
 1841SOL    HW2 6267   0.966   2.705   4.061
 1842SOL     OW 6268   1.488   3.491   3.769
 1842SOL    HW1 6269   1.395   3.481   3.754
 1842SOL    HW2 6270   1.527   3.497   3.682
 1843SOL     OW 6271   0.373   3.174   5.214
 1843SOL    HW1 6272   0.354   3.253   5.163
 1843SOL    HW2 6273   0.299   3.116   5.196
 1844SOL     OW 6274   1.584   3.134   5.001
 1844SOL    HW1 6275   1.663   3.135   5.054
 1844SOL    HW2 6276   1.531   3.207   5.035
 1845SOL     OW 6277   1.061   2.973   4.435
 1845SOL    HW1 6278   0.987   2.924   4.472
 1845SOL    HW2 6279   1.123   2.907   4.407
 1846SOL     OW 6280   1.014   2.100   4.698
 1846SOL    HW1 6281   1.013   2.057   4.613
 1846SOL    HW2 6282   1.009   2.029   4.761
 1847SOL     OW 6283   0.607   3.350   4.206
 1847SOL    HW1 6284   0.655   3.302   4.139
 1847SOL    HW2 6285   0.526   3.378   4.162
 1848SOL     OW 6286   0.254   3.205   3.997
 1848SOL    HW1 6287   0.159   3.199   3.985
 1848SOL    HW2 6288   0.265   3.238   4.086
 1849SOL     OW 6289   0.116   2.865   5.415
 1849SOL    HW1 6290   0.053   2.913   5.469
 1849SOL    HW2 6291   0.195   2.861   5.469
 1850SOL     OW 6292   0.677   2.060   5.223
 1850SOL    HW1 6293   0.761   2.036   5.184
 1850SOL    HW2 6294   0.699   2.090   5.311
 1851SOL     OW 6295   0.074   2.190   3.751
 1851SOL    HW1 6296   4.483   2.206   3.775
 1851SOL    HW2 6297   0.102   2.270   3.707
 1852SOL     OW 6298   1.403   2.723   5.137
 1852SOL    HW1 6299   1.376   2.787   5.072
 1852SOL    HW2 6300   1.497   2.738   5.149
 1853SOL     OW 6301   0.088   2.033   4.025
 1853SOL    HW1 6302   0.081   2.111   3.970
 1853SOL    HW2 6303   0.163   1.985   3.990
 1854SOL     OW 6304   1.178   3.196   3.842
 1854SOL    HW1 6305   1.086   3.167   3.842
 1854SOL    HW2 6306   1.203   3.197   3.934
 1855SOL     OW 6307   0.628   2.695   5.162
 1855SOL    HW1 6308   0.686   2.770   5.146
 1855SOL    HW2 6309   0.687   2.619   5.164
 1856SOL     OW 6310   1.480   3.647   4.706
 1856SOL    HW1 6311   1.504   3.714   4.642
 1856SOL    HW2 6312   1.564   3.612   4.736
 1857SOL     OW 6313   0.708   2.424   5.430
 1857SOL    HW1 6314   0.763   2.480   5.486
 1857SOL    HW2 6315   0.728   2.335   5.457
 1858SOL     OW 6316   1.476   3.061   5.350
 1858SOL    HW1 6317   1.462   3.081   5.442
 1858SOL    HW2 6318   1.568   3.082   5.334
 1859SOL     OW 6319   0.374   3.609   5.290
 1859SOL    HW1 6320   0.290   3.650   5.272
 1859SOL    HW2 6321   0.352   3.530   5.340
 1860SOL     OW 6322   1.217   2.182   4.183
 1860SOL    HW1 6323   1.278   2.108   4.176
 1860SOL    HW2 6324   1.248   2.232   4.258
 1861SOL     OW 6325   0.588   2.596   4.396
 1861SOL    HW1 6326   0.626   2.682   4.382
 1861SOL    HW2 6327   0.522   2.587   4.327
 1862SOL     OW 6328   0.866   3.226   3.768
 1862SOL    HW1 6329   0.827   3.253   3.851
 1862SOL    HW2 6330   0.879   3.308   3.720
 1863SOL     OW 6331   0.665   3.645   4.663
 1863SOL    HW1 6332   0.646   3.737   4.643
 1863SOL    HW2 6333   0.760   3.638   4.655
 1864SOL     OW 6334   0.870   2.833   4.578
 1864SOL    HW1 6335   0.919   2.760   4.616
 1864SOL    HW2 6336   0.830   2.877   4.653
 1865SOL     OW 6337   1.077   2.851   3.813
 1865SOL    HW1 6338   1.056   2.902   3.735
 1865SOL    HW2 6339   1.151   2.797   3.787
 1866SOL     OW 6340   1.854   3.417   4.563
 1866SOL    HW1 6341   1.768   3.399   4.523
 1866SOL    HW2 6342   1.874   3.338   4.614
 1867SOL     OW 6343   0.234   3.164   5.586
 1867SOL    HW1 6344   0.147   3.130   5.569
 1867SOL    HW2 6345   0.239   3.175   5.681
 1868SOL     OW 6346   0.127   3.088   4.391
 1868SOL    HW1 6347   0.147   3.049   4.477
 1868SOL    HW2 6348   0.182   3.039   4.330
 1869SOL     OW 6349   0.688   3.270   5.359
 1869SOL    HW1 6350   0.608   3.227   5.387
 1869SOL    HW2 6351   0.682   3.358   5.394
 1870SOL     OW 6352   0.435   2.293   4.249
 1870SOL    HW1 6353   0.461   2.220   4.193
 1870SOL    HW2 6354   0.383   2.253   4.318
 1871SOL     OW 6355   1.683   3.361   4.826
 1871SOL    HW1 6356   1.611   3.333   4.770
 1871SOL    HW2 6357   1.700   3.287   4.884
 1872SOL     OW 6358   0.294   2.356   4.975
 1872SOL    HW1 6359   0.365   2.304   5.011
 1872SOL    HW2 6360   0.318   2.370   4.883
 1873SOL     OW 6361   0.832   3.440   4.399
 1873SOL    HW1 6362   0.810   3.505   4.332
 1873SOL    HW2 6363   0.757   3.381   4.401
 1874SOL     OW 6364   1.006   1.874   4.862
 1874SOL    HW1 6365   0.954   1.806   4.817
 1874SOL    HW2 6366   1.092   1.834   4.871
 1875SOL     OW 6367   0.775   3.196   4.045
 1875SOL    HW1 6368   0.748   3.105   4.053
 1875SOL    HW2 6369   0.856   3.202   4.095
 1876SOL     OW 6370   0.621   3.417   5.012
 1876SOL    HW1 6371   0.621   3.499   5.062
 1876SOL    HW2 6372   0.708   3.412   4.974
 1877SOL     OW 6373   1.357   1.913   3.895
 1877SOL    HW1 6374   1.390   1.843   3.839
 1877SOL    HW2 6375   1.268   1.887   3.918
 1878SOL     OW 6376   1.301   2.329   4.402
 1878SOL    HW1 6377   1.245   2.407   4.404
 1878SOL    HW2 6378   1.287   2.287   4.487
 1879SOL     OW 6379   0.038   2.911   4.019
 1879SOL    HW1 6380   0.129   2.885   4.005
 1879SOL    HW2 6381   0.020   2.888   4.111
 1880SOL     OW 6382   0.890   3.523   4.062
 1880SOL    HW1 6383   0.815   3.507   4.004
 1880SOL    HW2 6384   0.862   3.595   4.118
 1881SOL     OW 6385   0.243   2.493   5.710
 1881SOL    HW1 6386   0.169   2.464   5.764
 1881SOL    HW2 6387   0.214   2.477   5.620
 1882SOL     OW 6388   0.213   2.135   6.576
 1882SOL    HW1 6389   0.249   2.108   6.660
 1882SOL    HW2 6390   0.137   2.078   6.562
 1883SOL     OW 6391   0.004   2.265   6.225
 1883SOL    HW1 6392   4.424   2.299   6.263
 1883SOL    HW2 6393   4.477   2.186   6.179
 1884SOL     OW 6394   0.569   3.160   6.770
 1884SOL    HW1 6395   0.483   3.165   6.729
 1884SOL    HW2 6396   0.585   3.248   6.805
 1885SOL     OW 6397   1.565   3.370   6.292
 1885SOL    HW1 6398   1.520   3.350   6.374
 1885SOL    HW2 6399   1.493   3.380   6.228
 1886SOL     OW 6400   1.119   2.558   6.277
 1886SOL    HW1 6401   1.162   2.642   6.258
 1886SOL    HW2 6402   1.077   2.572   6.362
 1887SOL     OW 6403   1.839   2.365   5.770
 1887SOL    HW1 6404   1.797   2.389   5.688
 1887SOL    HW2 6405   1.770   2.371   5.835
 1888SOL     OW 6406   0.745   2.999   6.633
 1888SOL    HW1 6407   0.679   3.037   6.692
 1888SOL    HW2 6408   0.784   3.074   6.590
 1889SOL     OW 6409   0.874   2.622   7.408
 1889SOL    HW1 6410   0.860   2.691   7.473
 1889SOL    HW2 6411   0.897   2.669   7.328
 1890SOL     OW 6412   0.683   2.860   6.231
 1890SOL    HW1 6413   0.750   2.851   6.299
 1890SOL    HW2 6414   0.615   2.914   6.270
 1891SOL     OW 6415   0.714   3.010   7.406
 1891SOL    HW1 6416   0.761   3.088   7.437
 1891SOL    HW2 6417   0.635   3.045   7.366
 1892SOL     OW 6418   0.333   3.279   6.654
 1892SOL    HW1 6419   0.252   3.257   6.607
 1892SOL    HW2 6420   0.382   3.334   6.592
 1893SOL     OW 6421   1.459   3.364   6.948
 1893SOL    HW1 6422   1.513   3.442   6.957
 1893SOL    HW2 6423   1.391   3.374   7.014
 1894SOL     OW 6424   0.452   2.261   7.063
 1894SOL    HW1 6425   0.530   2.206   7.073
 1894SOL    HW2 6426   0.379   2.202   7.078
 1895SOL     OW 6427   0.246   3.552   6.057
 1895SOL    HW1 6428   0.228   3.637   6.098
 1895SOL    HW2 6429   0.319   3.568   5.998
 1896SOL     OW 6430   1.137   3.205   7.281
 1896SOL    HW1 6431   1.178   3.198   7.367
 1896SOL    HW2 6432   1.085   3.125   7.273
 1897SOL     OW 6433   0.262   3.287   6.110
 1897SOL    HW1 6434   0.246   3.381   6.114
 1897SOL    HW2 6435   0.203   3.250   6.176
 1898SOL     OW 6436   0.258   2.946   6.473
 1898SOL    HW1 6437   0.270   2.853   6.494
 1898SOL    HW2 6438   0.195   2.978   6.538
 1899SOL     OW 6439   0.606   3.654   7.015
 1899SOL    HW1 6440   0.523   3.636   7.059
 1899SOL    HW2 6441   0.628   3.744   7.040
 1900SOL     OW 6442   0.569   2.854   5.732
 1900SOL    HW1 6443   0.621   2.893   5.661
 1900SOL    HW2 6444   0.613   2.884   5.812
 1901SOL     OW 6445   1.601   1.988   7.053
 1901SOL    HW1 6446   1.616   2.069   7.003
 1901SOL    HW2 6447   1.577   2.017   7.141
 1902SOL     OW 6448   0.137   2.515   6.159
 1902SOL    HW1 6449   0.093   2.433   6.182
 1902SOL    HW2 6450   0.108   2.578   6.224
 1903SOL     OW 6451   1.847   3.614   5.916
 1903SOL    HW1 6452   1.914   3.587   5.979
 1903SOL    HW2 6453   1.865   3.706   5.899
 1904SOL     OW 6454   0.032   3.467   5.740
 1904SOL    HW1 6455   0.016   3.373   5.732
 1904SOL    HW2 6456   0.048   3.480   5.833
 1905SOL     OW 6457   1.624   2.984   6.016
 1905SOL    HW1 6458   1.713   2.961   5.988
 1905SOL    HW2 6459   1.638   3.042   6.091
 1906SOL     OW 6460   0.106   2.629   7.150
 1906SOL    HW1 6461   0.192   2.615   7.111
 1906SOL    HW2 6462   0.109   2.719   7.183
 1907SOL     OW 6463   0.617   3.253   6.323
 1907SOL    HW1 6464   0.571   3.170   6.332
 1907SOL    HW2 6465   0.600   3.280   6.233
 1908SOL     OW 6466   1.285   3.101   7.010
 1908SOL    HW1 6467   1.314   3.033   6.950
 1908SOL    HW2 6468   1.345   3.095   7.084
 1909SOL     OW 6469   0.823   1.866   6.102
 1909SOL    HW1 6470   0.861   1.950   6.076
 1909SOL    HW2 6471   0.729   1.882   6.106
 1910SOL     OW 6472   0.176   2.801   6.863
 1910SOL    HW1 6473   0.267   2.779   6.844
 1910SOL    HW2 6474   0.132   2.802   6.778
 1911SOL     OW 6475   1.521   2.862   5.785
 1911SOL    HW1 6476   1.448   2.809   5.816
 1911SOL    HW2 6477   1.555   2.905   5.864
 1912SOL     OW 6478   1.184   3.676   7.212
 1912SOL    HW1 6479   1.189   3.736   7.138
 1912SOL    HW2 6480   1.202   3.590   7.174
 1913SOL     OW 6481   0.337   2.120   7.397
 1913SOL    HW1 6482   0.379   2.195   7.439
 1913SOL    HW2 6483   0.245   2.125   7.425
 1914SOL     OW 6484   1.467   3.277   6.532
 1914SOL    HW1 6485   1.400   3.294   6.598
 1914SOL    HW2 6486   1.452   3.187   6.506
 1915SOL     OW 6487   1.655   3.611   6.163
 1915SOL    HW1 6488   1.634   3.579   6.075
 1915SOL    HW2 6489   1.637   3.537   6.220
 1916SOL     OW 6490   0.597   2.578   5.858
 1916SOL    HW1 6491   0.596   2.662   5.812
 1916SOL    HW2 6492   0.531   2.587   5.926
 1917SOL     OW 6493   1.279   2.223   6.517
 1917SOL    HW1 6494   1.191   2.187   6.532
 1917SOL    HW2 6495   1.336   2.169   6.572
 1918SOL     OW 6496   1.580   3.535   5.897
 1918SOL    HW1 6497   1.671   3.561   5.888
 1918SOL    HW2 6498   1.551   3.520   5.807
 1919SOL     OW 6499   0.794   2.476   7.034
 1919SOL    HW1 6500   0.766   2.450   7.122
 1919SOL    HW2 6501   0.758   2.409   6.977
 1920SOL     OW 6502   1.392   2.336   7.263
 1920SOL    HW1 6503   1.396   2.381   7.348
 1920SOL    HW2 6504   1.448   2.260   7.274
 1921SOL     OW 6505   0.950   2.747   7.172
 1921SOL    HW1 6506   1.005   2.679   7.133
 1921SOL    HW2 6507   0.904   2.785   7.098
 1922SOL     OW 6508   0.994   2.272   6.820
 1922SOL    HW1 6509   0.906   2.289   6.851
 1922SOL    HW2 6510   0.982   2.229   6.735
 1923SOL     OW 6511   1.051   2.562   6.008
 1923SOL    HW1 6512   1.067   2.556   6.102
 1923SOL    HW2 6513   0.968   2.516   5.995
 1924SOL     OW 6514   0.087   2.694   6.374
 1924SOL    HW1 6515   0.173   2.685   6.415
 1924SOL    HW2 6516   0.025   2.688   6.447
 1925SOL     OW 6517   0.121   3.723   7.168
 1925SOL    HW1 6518   0.114   3.700   7.260
 1925SOL    HW2 6519   0.044   3.683   7.127
 1926SOL     OW 6520   0.898   2.212   5.779
 1926SOL    HW1 6521   0.937   2.275   5.718
 1926SOL    HW2 6522   0.908   2.127   5.736
 1927SOL     OW 6523   1.681   2.442   7.416
 1927SOL    HW1 6524   1.652   2.519   7.367
 1927SOL    HW2 6525   1.707   2.380   7.349
 1928SOL     OW 6526   1.378   3.016   6.139
 1928SOL    HW1 6527   1.455   3.000   6.084
 1928SOL    HW2 6528   1.324   3.076   6.088
 1929SOL     OW 6529   0.556   2.039   6.482
 1929SOL    HW1 6530   0.557   2.072   6.572
 1929SOL    HW2 6531   0.554   2.119   6.429
 1930SOL     OW 6532   0.999   3.307   6.054
 1930SOL    HW1 6533   0.969   3.382   6.004
 1930SOL    HW2 6534   0.973   3.326   6.144
 1931SOL     OW 6535   0.360   3.678   6.447
 1931SOL    HW1 6536   0.401   3.592   6.459
 1931SOL    HW2 6537   0.429   3.741   6.468
 1932SOL     OW 6538   1.775   2.996   6.474
 1932SOL    HW1 6539   1.735   2.944   6.404
 1932SOL    HW2 6540   1.720   2.979   6.551
 1933SOL     OW 6541   1.227   3.403   7.100
 1933SOL    HW1 6542   1.215   3.330   7.161
 1933SOL    HW2 6543   1.158   3.390   7.034
 1934SOL     OW 6544   0.309   2.812   5.849
 1934SOL    HW1 6545   0.391   2.837   5.805
 1934SOL    HW2 6546   0.298   2.719   5.828
 1935SOL     OW 6547   1.402   2.647   6.372
 1935SOL    HW1 6548   1.401   2.565   6.421
 1935SOL    HW2 6549   1.495   2.668   6.364
 1936SOL     OW 6550   0.472   3.128   7.321
 1936SOL    HW1 6551   0.446   3.135   7.229
 1936SOL    HW2 6552   0.390   3.127   7.369
 1937SOL     OW 6553   1.125   3.640   5.815
 1937SOL    HW1 6554   1.049   3.602   5.858
 1937SOL    HW2 6555   1.149   3.576   5.747
 1938SOL     OW 6556   0.204   2.136   7.071
 1938SOL    HW1 6557   0.146   2.212   7.078
 1938SOL    HW2 6558   0.179   2.080   7.145
 1939SOL     OW 6559   1.628   3.244   5.673
 1939SOL    HW1 6560   1.589   3.330   5.661
 1939SOL    HW2 6561   1.557   3.183   5.654
 1940SOL     OW 6562   0.469   3.604   5.898
 1940SOL    HW1 6563   0.514   3.658   5.963
 1940SOL    HW2 6564   0.539   3.565   5.846
 1941SOL     OW 6565   0.255   3.654   6.807
 1941SOL    HW1 6566   0.299   3.575   6.841
 1941SOL    HW2 6567   0.213   3.625   6.726
 1942SOL     OW 6568   0.938   3.562   6.482
 1942SOL    HW1 6569   1.015   3.511   6.508
 1942SOL    HW2 6570   0.898   3.511   6.411
 1943SOL     OW 6571   0.398   2.554   6.056
 1943SOL    HW1 6572   0.418   2.461   6.069
 1943SOL    HW2 6573   0.306   2.562   6.082
 1944SOL     OW 6574   1.525   2.085   7.308
 1944SOL    HW1 6575   1.537   2.103   7.402
 1944SOL    HW2 6576   1.456   2.019   7.305
 1945SOL     OW 6577   0.646   1.980   5.685
 1945SOL    HW1 6578   0.703   1.906   5.706
 1945SOL    HW2 6579   0.592   1.950   5.612
 1946SOL     OW 6580   0.764   2.143   7.341
 1946SOL    HW1 6581   0.844   2.091   7.338
 1946SOL    HW2 6582   0.717   2.109   7.418
 1947SOL     OW 6583   0.877   3.386   6.780
 1947SOL    HW1 6584   0.857   3.347   6.695
 1947SOL    HW2 6585   0.945   3.331   6.817
 1948SOL     OW 6586   1.339   2.450   7.018
 1948SOL    HW1 6587   1.369   2.420   7.104
 1948SOL    HW2 6588   1.375   2.539   7.010
 1949SOL     OW 6589   0.819   3.251   6.533
 1949SOL    HW1 6590   0.903   3.241   6.490
 1949SOL    HW2 6591   0.756   3.258   6.462
 1950SOL     OW 6592   0.930   2.368   6.487
 1950SOL    HW1 6593   0.905   2.360   6.395
 1950SOL    HW2 6594   0.960   2.281   6.511
 1951SOL     OW 6595   0.559   1.925   6.080
 1951SOL    HW1 6596   0.479   1.922   6.132
 1951SOL    HW2 6597   0.549   2.001   6.023
 1952SOL     OW 6598   1.425   3.068   5.623
 1952SOL    HW1 6599   1.447   2.992   5.676
 1952SOL    HW2 6600   1.339   3.095   5.655
 1953SOL     OW 6601   0.295   1.906   5.762
 1953SOL    HW1 6602   0.359   1.971   5.732
 1953SOL    HW2 6603   0.348   1.841   5.808
 1954SOL     OW 6604   0.934   2.112   6.039
 1954SOL    HW1 6605   0.907   2.149   5.954
 1954SOL    HW2 6606   1.028   2.130   6.044
 1955SOL     OW 6607   1.081   2.547   7.042
 1955SOL    HW1 6608   1.014   2.478   7.046
 1955SOL    HW2 6609   1.164   2.500   7.036
 1956SOL     OW 6610   1.224   3.433   6.379
 1956SOL    HW1 6611   1.235   3.500   6.311
 1956SOL    HW2 6612   1.288   3.457   6.446
 1957SOL     OW 6613   0.470   3.016   6.316
 1957SOL    HW1 6614   0.404   2.997   6.382
 1957SOL    HW2 6615   0.426   3.002   6.232
 1958SOL     OW 6616   1.263   3.653   6.199
 1958SOL    HW1 6617   1.312   3.715   6.144
 1958SOL    HW2 6618   1.194   3.706   6.239
 1959SOL     OW 6619   1.023   2.397   5.610
 1959SOL    HW1 6620   0.978   2.479   5.590
 1959SOL    HW2 6621   1.085   2.421   5.680
 1960SOL     OW 6622   0.073   2.373   6.996
 1960SOL    HW1 6623   0.140   2.370   6.928
 1960SOL    HW2 6624   0.062   2.467   7.014
 1961SOL     OW 6625   0.559   2.090   6.756
 1961SOL    HW1 6626   0.604   2.016   6.797
 1961SOL    HW2 6627   0.467   2.078   6.781
 1962SOL     OW 6628   0.867   2.319   6.225
 1962SOL    HW1 6629   0.821   2.377   6.164
 1962SOL    HW2 6630   0.885   2.240   6.174
 1963SOL     OW 6631   1.023   1.911   6.327
 1963SOL    HW1 6632   0.959   1.908   6.256
 1963SOL    HW2 6633   0.998   1.840   6.386
 1964SOL     OW 6634   1.429   3.021   6.436
 1964SOL    HW1 6635   1.355   2.961   6.450
 1964SOL    HW2 6636   1.434   3.030   6.340
 1965SOL     OW 6637   1.444   2.458   6.575
 1965SOL    HW1 6638   1.397   2.375   6.572
 1965SOL    HW2 6639   1.510   2.446   6.643
 1966SOL     OW 6640   0.493   3.285   5.739
 1966SOL    HW1 6641   0.414   3.258   5.786
 1966SOL    HW2 6642   0.483   3.246   5.652
 1967SOL     OW 6643   1.693   3.132   6.232
 1967SOL    HW1 6644   1.755   3.130   6.305
 1967SOL    HW2 6645   1.646   3.215   6.243
 1968SOL     OW 6646   1.386   2.437   5.655
 1968SOL    HW1 6647   1.320   2.411   5.720
 1968SOL    HW2 6648   1.464   2.454   5.707
 1969SOL     OW 6649   0.526   2.121   5.894
 1969SOL    HW1 6650   0.577   2.077   5.826
 1969SOL    HW2 6651   0.502   2.206   5.856
 1970SOL     OW 6652   1.749   3.103   7.154
 1970SOL    HW1 6653   1.837   3.067   7.144
 1970SOL    HW2 6654   1.763   3.193   7.181
 1971SOL     OW 6655   1.054   3.214   6.916
 1971SOL    HW1 6656   0.978   3.184   6.966
 1971SOL    HW2 6657   1.129   3.175   6.960
 1972SOL     OW 6658   1.610   3.490   7.245
 1972SOL    HW1 6659   1.601   3.524   7.156
 1972SOL    HW2 6660   1.691   3.440   7.244
 1973SOL     OW 6661   1.136   3.073   6.686
 1973SOL    HW1 6662   1.076   3.109   6.752
 1973SOL    HW2 6663   1.106   3.110   6.603
 1974SOL     OW 6664   1.604   2.945   6.673
 1974SOL    HW1 6665   1.603   3.011   6.743
 1974SOL    HW2 6666   1.523   2.962   6.624
 1975SOL     OW 6667   0.918   1.956   6.977
 1975SOL    HW1 6668   0.940   1.937   6.886
 1975SOL    HW2 6669   0.997   1.995   7.014
 1976SOL     OW 6670   0.984   2.977   7.309
 1976SOL    HW1 6671   0.893   2.993   7.334
 1976SOL    HW2 6672   0.980   2.898   7.255
 1977SOL     OW 6673   0.710   2.926   5.959
 1977SOL    HW1 6674   0.696   2.905   6.051
 1977SOL    HW2 6675   0.784   2.872   5.933
 1978SOL     OW 6676   0.432   2.693   6.837
 1978SOL    HW1 6677   0.503   2.708   6.900
 1978SOL    HW2 6678   0.379   2.624   6.876
 1979SOL     OW 6679   1.266   2.235   6.864
 1979SOL    HW1 6680   1.298   2.313   6.910
 1979SOL    HW2 6681   1.175   2.255   6.842
 1980SOL     OW 6682   0.065   3.434   6.933
 1980SOL    HW1 6683   0.038   3.526   6.924
 1980SOL    HW2 6684   0.160   3.437   6.937
 1981SOL     OW 6685   0.333   2.976   6.079
 1981SOL    HW1 6686   0.344   3.051   6.022
 1981SOL    HW2 6687   0.331   2.900   6.020
 1982SOL     OW 6688   0.556   2.387   6.439
 1982SOL    HW1 6689   0.570   2.447   6.365
 1982SOL    HW2 6690   0.620   2.415   6.505
 1983SOL     OW 6691   1.246   3.213   5.978
 1983SOL    HW1 6692   1.301   3.285   6.008
 1983SOL    HW2 6693   1.158   3.234   6.010
 1984SOL     OW 6694   1.290   3.323   6.734
 1984SOL    HW1 6695   1.346   3.328   6.812
 1984SOL    HW2 6696   1.233   3.248   6.750
 1985SOL     OW 6697   0.344   3.399   6.895
 1985SOL    HW1 6698   0.332   3.350   6.813
 1985SOL    HW2 6699   0.439   3.408   6.903
 1986SOL     OW 6700   0.497   2.615   7.261
 1986SOL    HW1 6701   0.530   2.656   7.181
 1986SOL    HW2 6702   0.560   2.545   7.279
 1987SOL     OW 6703   1.605   2.652   7.269
 1987SOL    HW1 6704   1.519   2.694   7.261
 1987SOL    HW2 6705   1.658   2.693   7.200
 1988SOL     OW 6706   0.996   1.996   7.339
 1988SOL    HW1 6707   1.055   2.068   7.317
 1988SOL    HW2 6708   1.044   1.917   7.315
 1989SOL     OW 6709   0.496   1.903   7.336
 1989SOL    HW1 6710   0.451   1.848   7.272
 1989SOL    HW2 6711   0.439   1.980   7.346
 1990SOL     OW 6712   0.591   2.737   6.614
 1990SOL    HW1 6713   0.624   2.827   6.616
 1990SOL    HW2 6714   0.534   2.730   6.691
 1991SOL     OW 6715   1.349   2.711   6.643
 1991SOL    HW1 6716   1.287   2.713   6.570
 1991SOL    HW2 6717   1.392   2.626   6.635
 1992SOL     OW 6718   1.197   2.394   5.847
 1992SOL    HW1 6719   1.196   2.313   5.898
 1992SOL    HW2 6720   1.155   2.459   5.904
 1993SOL     OW 6721   0.299   2.049   6.827
 1993SOL    HW1 6722   0.263   2.079   6.910
 1993SOL    HW2 6723   0.283   1.954   6.826
 1994SOL     OW 6724   0.013   3.173   6.875
 1994SOL    HW1 6725   0.060   3.125   6.943
 1994SOL    HW2 6726   0.028   3.265   6.896
 1995SOL     OW 6727   0.721   2.490   6.637
 1995SOL    HW1 6728   0.799   2.477   6.583
 1995SOL    HW2 6729   0.693   2.580   6.619
 1996SOL     OW 6730   1.740   2.822   7.444
 1996SOL    HW1 6731   1.694   2.757   7.390
 1996SOL    HW2 6732   1.679   2.840   7.516
 1997SOL     OW 6733   0.320   1.931   6.203
 1997SOL    HW1 6734   0.289   2.018   6.227
 1997SOL    HW2 6735   0.320   1.883   6.286
 1998SOL     OW 6736   1.022   2.621   6.540
 1998SOL    HW1 6737   1.020   2.638   6.634
 1998SOL    HW2 6738   1.000   2.528   6.533
 1999SOL     OW 6739   0.982   3.430   7.308
 1999SOL    HW1 6740   0.966   3.472   7.223
 1999SOL    HW2 6741   1.025   3.347   7.285
 2000SOL     OW 6742   1.851   3.363   7.190
 2000SOL    HW1 6743   1.873   3.391   7.101
 2000SOL    HW2 6744   1.931   3.376   7.240
 2001SOL     OW 6745   0.349   2.798   7.402
 2001SOL    HW1 6746   0.417   2.830   7.461
 2001SOL    HW2 6747   0.391   2.729   7.351
 2002SOL     OW 6748   1.283   2.688   5.616
 2002SOL    HW1 6749   1.318   2.599   5.616
 2002SOL    HW2 6750   1.324   2.729   5.539
 2003SOL     OW 6751   1.071   3.204   6.445
 2003SOL    HW1 6752   1.071   3.133   6.381
 2003SOL    HW2 6753   1.128   3.271   6.407
 2004SOL     OW 6754   0.319   2.672   6.526
 2004SOL    HW1 6755   0.413   2.690   6.528
 2004SOL    HW2 6756   0.311   2.580   6.549
 2005SOL     OW 6757   0.323   2.389   6.570
 2005SOL    HW1 6758   0.284   2.302   6.554
 2005SOL    HW2 6759   0.403   2.389   6.517
 2006SOL     OW 6760   1.134   2.235   7.271
 2006SOL    HW1 6761   1.086   2.288   7.334
 2006SOL    HW2 6762   1.221   2.275   7.267
 2007SOL     OW 6763   1.160   2.060   7.057
 2007SOL    HW1 6764   1.149   2.123   7.128
 2007SOL    HW2 6765   1.203   2.110   6.987
 2008SOL     OW 6766   4.491   3.180   5.798
 2008SOL    HW1 6767   4.399   3.198   5.779
 2008SOL    HW2 6768   4.494   3.087   5.819
 2009SOL     OW 6769   0.105   3.628   6.528
 2009SOL    HW1 6770   0.063   3.587   6.452
 2009SOL    HW2 6771   0.192   3.653   6.497
 2010SOL     OW 6772   0.492   3.436   6.493
 2010SOL    HW1 6773   0.561   3.499   6.517
 2010SOL    HW2 6774   0.536   3.374   6.434
 2011SOL     OW 6775   0.974   2.650   6.808
 2011SOL    HW1 6776   1.034   2.631   6.880
 2011SOL    HW2 6777   0.891   2.610   6.834
 2012SOL     OW 6778   0.022   2.421   6.669
 2012SOL    HW1 6779   0.115   2.404   6.654
 2012SOL    HW2 6780   0.002   2.374   6.750
 2013SOL     OW 6781   0.179   2.393   7.304
 2013SOL    HW1 6782   0.262   2.363   7.267
 2013SOL    HW2 6783   0.156   2.471   7.254
 2014SOL     OW 6784   1.375   2.798   7.243
 2014SOL    HW1 6785   1.397   2.891   7.238
 2014SOL    HW2 6786   1.370   2.771   7.151
 2015SOL     OW 6787   0.819   2.432   5.950
 2015SOL    HW1 6788   0.822   2.357   5.890
 2015SOL    HW2 6789   0.744   2.483   5.920
 2016SOL     OW 6790   1.639   2.466   6.771
 2016SOL    HW1 6791   1.630   2.406   6.845
 2016SOL    HW2 6792   1.728   2.450   6.737
 2017SOL     OW 6793   0.275   3.424   7.326
 2017SOL    HW1 6794   0.211   3.474   7.376
 2017SOL    HW2 6795   0.259   3.333   7.350
 2018SOL     OW 6796   0.710   2.309   6.840
 2018SOL    HW1 6797   0.654   2.236   6.814
 2018SOL    HW2 6798   0.702   2.372   6.768
 2019SOL     OW 6799   0.924   3.540   7.056
 2019SOL    HW1 6800   0.898   3.500   6.973
 2019SOL    HW2 6801   0.915   3.634   7.041
 2020SOL     OW 6802   0.469   2.351   5.761
 2020SOL    HW1 6803   0.531   2.419   5.789
 2020SOL    HW2 6804   0.387   2.398   5.748
 2021SOL     OW 6805   0.159   3.005   7.041
 2021SOL    HW1 6806   0.143   2.962   7.125
 2021SOL    HW2 6807   0.167   2.933   6.979
 2022SOL     OW 6808   1.318   2.911   6.813
 2022SOL    HW1 6809   1.333   2.839   6.752
 2022SOL    HW2 6810   1.253   2.966   6.769
 2023SOL     OW 6811   1.306   2.726   5.890
 2023SOL    HW1 6812   1.231   2.701   5.945
 2023SOL    HW2 6813   1.276   2.709   5.801
 2024SOL     OW 6814   1.783   3.604   6.746
 2024SOL    HW1 6815   1.841   3.628   6.674
 2024SOL    HW2 6816   1.749   3.518   6.723
 2025SOL     OW 6817   1.239   3.594   6.689
 2025SOL    HW1 6818   1.322   3.619   6.649
 2025SOL    HW2 6819   1.250   3.501   6.712
 2026SOL     OW 6820   0.074   3.050   6.637
 2026SOL    HW1 6821   0.054   3.078   6.727
 2026SOL    HW2 6822   0.043   3.122   6.582
 2027SOL     OW 6823   0.680   3.534   7.326
 2027SOL    HW1 6824   0.618   3.606   7.314
 2027SOL    HW2 6825   0.748   3.549   7.260
 2028SOL     OW 6826   1.391   3.430   6.075
 2028SOL    HW1 6827   1.450   3.465   6.008
 2028SOL    HW2 6828   1.341   3.506   6.104
 2029SOL     OW 6829   0.115   3.668   7.437
 2029SOL    HW1 6830   0.074   3.597   7.487
 2029SOL    HW2 6831   0.180   3.705   7.497
 2030SOL     OW 6832   1.242   2.798   6.226
 2030SOL    HW1 6833   1.307   2.747   6.275
 2030SOL    HW2 6834   1.292   2.869   6.186
 2031SOL     OW 6835   0.804   3.140   7.009
 2031SOL    HW1 6836   0.777   3.181   7.091
 2031SOL    HW2 6837   0.731   3.158   6.949
 2032SOL     OW 6838   0.672   3.488   5.741
 2032SOL    HW1 6839   0.683   3.502   5.647
 2032SOL    HW2 6840   0.617   3.410   5.747
 2033SOL     OW 6841   1.619   3.590   6.979
 2033SOL    HW1 6842   1.674   3.595   6.900
 2033SOL    HW2 6843   1.604   3.681   7.004
 2034SOL     OW 6844   0.259   2.180   6.301
 2034SOL    HW1 6845   0.176   2.220   6.276
 2034SOL    HW2 6846   0.251   2.166   6.395
 2035SOL     OW 6847   1.209   3.463   5.619
 2035SOL    HW1 6848   1.197   3.372   5.646
 2035SOL    HW2 6849   1.143   3.477   5.551
 2036SOL     OW 6850   0.828   2.871   6.961
 2036SOL    HW1 6851   0.868   2.865   6.875
 2036SOL    HW2 6852   0.822   2.965   6.979
 2037SOL     OW 6853   0.915   2.773   5.876
 2037SOL    HW1 6854   0.976   2.807   5.810
 2037SOL    HW2 6855   0.964   2.706   5.922
 2038SOL     OW 6856   1.490   3.490   5.631
 2038SOL    HW1 6857   1.396   3.480   5.616
 2038SOL    HW2 6858   1.528   3.496   5.544
 2039SOL     OW 6859   0.372   3.173   7.076
 2039SOL    HW1 6860   0.354   3.252   7.025
 2039SOL    HW2 6861   0.298   3.116   7.057
 2040SOL     OW 6862   1.603   3.143   6.863
 2040SOL    HW1 6863   1.673   3.136   6.927
 2040SOL    HW2 6864   1.545   3.211   6.899
 2041SOL     OW 6865   1.050   2.980   6.296
 2041SOL    HW1 6866   0.979   2.930   6.335
 2041SOL    HW2 6867   1.109   2.915   6.260
 2042SOL     OW 6868   1.026   2.102   6.552
 2042SOL    HW1 6869   1.023   2.055   6.468
 2042SOL    HW2 6870   1.019   2.033   6.618
 2043SOL     OW 6871   0.607   3.351   6.068
 2043SOL    HW1 6872   0.654   3.302   6.000
 2043SOL    HW2 6873   0.526   3.378   6.025
 2044SOL     OW 6874   1.733   2.251   6.957
 2044SOL    HW1 6875   1.812   2.305   6.956
 2044SOL    HW2 6876   1.749   2.183   6.892
 2045SOL     OW 6877   0.254   3.205   5.859
 2045SOL    HW1 6878   0.159   3.199   5.847
 2045SOL    HW2 6879   0.265   3.238   5.948
 2046SOL     OW 6880   0.116   2.865   7.277
 2046SOL    HW1 6881   0.053   2.913   7.331
 2046SOL    HW2 6882   0.195   2.861   7.331
 2047SOL     OW 6883   0.677   2.060   7.085
 2047SOL    HW1 6884   0.761   2.036   7.045
 2047SOL    HW2 6885   0.700   2.090   7.173
 2048SOL     OW 6886   0.074   2.190   5.613
 2048SOL    HW1 6887   4.483   2.206   5.636
 2048SOL    HW2 6888   0.102   2.271   5.570
 2049SOL     OW 6889   1.425   2.719   6.985
 2049SOL    HW1 6890   1.376   2.781   6.932
 2049SOL    HW2 6891   1.514   2.721   6.949
 2050SOL     OW 6892   0.087   2.033   5.887
 2050SOL    HW1 6893   0.081   2.111   5.832
 2050SOL    HW2 6894   0.162   1.985   5.853
 2051SOL     OW 6895   1.178   3.195   5.703
 2051SOL    HW1 6896   1.086   3.169   5.703
 2051SOL    HW2 6897   1.202   3.196   5.796
 2052SOL     OW 6898   0.630   2.693   7.024
 2052SOL    HW1 6899   0.687   2.769   7.009
 2052SOL    HW2 6900   0.689   2.618   7.026
 2053SOL     OW 6901   1.482   3.646   6.567
 2053SOL    HW1 6902   1.505   3.714   6.504
 2053SOL    HW2 6903   1.566   3.619   6.604
 2054SOL     OW 6904   0.710   2.426   7.290
 2054SOL    HW1 6905   0.764   2.481   7.346
 2054SOL    HW2 6906   0.729   2.336   7.319
 2055SOL     OW 6907   1.474   3.056   7.215
 2055SOL    HW1 6908   1.462   3.072   7.309
 2055SOL    HW2 6909   1.567   3.075   7.199
 2056SOL     OW 6910   0.375   3.609   7.152
 2056SOL    HW1 6911   0.290   3.650   7.134
 2056SOL    HW2 6912   0.353   3.530   7.202
 2057SOL     OW 6913   1.667   2.738   6.846
 2057SOL    HW1 6914   1.655   2.653   6.804
 2057SOL    HW2 6915   1.645   2.801   6.778
 2058SOL     OW 6916   1.199   2.186   6.036
 2058SOL    HW1 6917   1.269   2.122   6.022
 2058SOL    HW2 6918   1.223   2.231   6.117
 2059SOL     OW 6919   0.589   2.595   6.257
 2059SOL    HW1 6920   0.626   2.682   6.244
 2059SOL    HW2 6921   0.522   2.587   6.189
 2060SOL     OW 6922   1.743   2.244   7.235
 2060SOL    HW1 6923   1.740   2.250   7.140
 2060SOL    HW2 6924   1.676   2.179   7.257
 2061SOL     OW 6925   1.758   2.795   7.096
 2061SOL    HW1 6926   1.744   2.889   7.111
 2061SOL    HW2 6927   1.736   2.782   7.004
 2062SOL     OW 6928   0.870   3.227   5.632
 2062SOL    HW1 6929   0.828   3.252   5.714
 2062SOL    HW2 6930   0.879   3.309   5.583
 2063SOL     OW 6931   0.665   3.645   6.525
 2063SOL    HW1 6932   0.645   3.737   6.504
 2063SOL    HW2 6933   0.760   3.638   6.517
 2064SOL     OW 6934   0.867   2.834   6.439
 2064SOL    HW1 6935   0.917   2.760   6.475
 2064SOL    HW2 6936   0.829   2.876   6.516
 2065SOL     OW 6937   1.078   2.854   5.677
 2065SOL    HW1 6938   1.054   2.905   5.599
 2065SOL    HW2 6939   1.150   2.798   5.648
 2066SOL     OW 6940   1.857   3.403   6.426
 2066SOL    HW1 6941   1.766   3.395   6.398
 2066SOL    HW2 6942   1.868   3.336   6.493
 2067SOL     OW 6943   0.234   3.165   7.448
 2067SOL    HW1 6944   0.147   3.129   7.432
 2067SOL    HW2 6945   0.239   3.175   7.543
 2068SOL     OW 6946   0.127   3.089   6.253
 2068SOL    HW1 6947   0.146   3.050   6.339
 2068SOL    HW2 6948   0.182   3.039   6.192
 2069SOL     OW 6949   0.687   3.270   7.219
 2069SOL    HW1 6950   0.608   3.227   7.248
 2069SOL    HW2 6951   0.682   3.358   7.256
 2070SOL     OW 6952   1.779   2.043   6.783
 2070SOL    HW1 6953   1.769   1.948   6.796
 2070SOL    HW2 6954   1.843   2.051   6.713
 2071SOL     OW 6955   0.435   2.293   6.111
 2071SOL    HW1 6956   0.461   2.219   6.055
 2071SOL    HW2 6957   0.383   2.253   6.181
 2072SOL     OW 6958   1.682   3.363   6.684
 2072SOL    HW1 6959   1.608   3.337   6.630
 2072SOL    HW2 6960   1.696   3.290   6.744
 2073SOL     OW 6961   0.293   2.356   6.837
 2073SOL    HW1 6962   0.364   2.304   6.873
 2073SOL    HW2 6963   0.318   2.370   6.745
 2074SOL     OW 6964   0.833   3.440   6.260
 2074SOL    HW1 6965   0.809   3.505   6.194
 2074SOL    HW2 6966   0.758   3.380   6.264
 2075SOL     OW 6967   1.443   2.100   6.694
 2075SOL    HW1 6968   1.461   2.012   6.726
 2075SOL    HW2 6969   1.390   2.140   6.763
 2076SOL     OW 6970   1.008   1.878   6.721
 2076SOL    HW1 6971   0.953   1.811   6.680
 2076SOL    HW2 6972   1.096   1.839   6.724
 2077SOL     OW 6973   0.775   3.196   5.906
 2077SOL    HW1 6974   0.747   3.105   5.915
 2077SOL    HW2 6975   0.856   3.201   5.957
 2078SOL     OW 6976   0.621   3.417   6.874
 2078SOL    HW1 6977   0.621   3.499   6.923
 2078SOL    HW2 6978   0.709   3.412   6.836
 2079SOL     OW 6979   1.306   1.954   5.738
 2079SOL    HW1 6980   1.379   1.895   5.717
 2079SOL    HW2 6981   1.236   1.895   5.767
 2080SOL     OW 6982   1.270   2.322   6.259
 2080SOL    HW1 6983   1.219   2.403   6.267
 2080SOL    HW2 6984   1.277   2.290   6.349
 2081SOL     OW 6985   0.038   2.911   5.881
 2081SOL    HW1 6986   0.129   2.885   5.868
 2081SOL    HW2 6987   0.020   2.889   5.973
 2082SOL     OW 6988   0.890   3.523   5.923
 2082SOL    HW1 6989   0.815   3.507   5.866
 2082SOL    HW2 6990   0.862   3.595   5.980
 2083SOL     OW 6991   0.242   2.493   7.573
 2083SOL    HW1 6992   0.169   2.464   7.626
 2083SOL    HW2 6993   0.214   2.477   7.482
 2084SOL     OW 6994   0.213   2.135   8.438
 2084SOL    HW1 6995   0.249   2.108   8.522
 2084SOL    HW2 6996   0.137   2.078   8.424
 2085SOL     OW 6997   0.005   2.265   8.088
 2085SOL    HW1 6998   4.424   2.300   8.126
 2085SOL    HW2 6999   4.477   2.186   8.041
 2086SOL     OW 7000   0.569   3.160   8.632
 2086SOL    HW1 7001   0.483   3.165   8.591
 2086SOL    HW2 7002   0.585   3.248   8.666
 2087SOL     OW 7003   1.571   3.377   8.157
 2087SOL    HW1 7004   1.527   3.353   8.239
 2087SOL    HW2 7005   1.500   3.380   8.092
 2088SOL     OW 7006   1.133   2.560   8.143
 2088SOL    HW1 7007   1.181   2.643   8.131
 2088SOL    HW2 7008   1.085   2.572   8.225
 2089SOL     OW 7009   1.775   2.471   7.670
 2089SOL    HW1 7010   1.745   2.464   7.580
 2089SOL    HW2 7011   1.753   2.387   7.710
 2090SOL     OW 7012   0.744   2.999   8.494
 2090SOL    HW1 7013   0.679   3.037   8.553
 2090SOL    HW2 7014   0.785   3.074   8.451
 2091SOL     OW 7015   0.874   2.622   9.270
 2091SOL    HW1 7016   0.860   2.691   9.335
 2091SOL    HW2 7017   0.897   2.669   9.190
 2092SOL     OW 7018   0.684   2.860   8.093
 2092SOL    HW1 7019   0.751   2.852   8.161
 2092SOL    HW2 7020   0.616   2.914   8.132
 2093SOL     OW 7021   0.714   3.010   9.268
 2093SOL    HW1 7022   0.762   3.088   9.299
 2093SOL    HW2 7023   0.635   3.045   9.228
 2094SOL     OW 7024   0.333   3.279   8.515
 2094SOL    HW1 7025   0.252   3.257   8.469
 2094SOL    HW2 7026   0.382   3.334   8.454
 2095SOL     OW 7027   1.459   3.364   8.809
 2095SOL    HW1 7028   1.513   3.442   8.819
 2095SOL    HW2 7029   1.390   3.374   8.875
 2096SOL     OW 7030   0.452   2.261   8.925
 2096SOL    HW1 7031   0.530   2.206   8.935
 2096SOL    HW2 7032   0.379   2.201   8.941
 2097SOL     OW 7033   1.588   2.308   8.194
 2097SOL    HW1 7034   1.513   2.326   8.138
 2097SOL    HW2 7035   1.593   2.383   8.253
 2098SOL     OW 7036   0.246   3.552   7.919
 2098SOL    HW1 7037   0.229   3.637   7.960
 2098SOL    HW2 7038   0.319   3.568   7.860
 2099SOL     OW 7039   1.137   3.204   9.142
 2099SOL    HW1 7040   1.178   3.198   9.229
 2099SOL    HW2 7041   1.085   3.124   9.134
 2100SOL     OW 7042   0.262   3.287   7.972
 2100SOL    HW1 7043   0.246   3.381   7.976
 2100SOL    HW2 7044   0.203   3.250   8.038
 2101SOL     OW 7045   0.257   2.946   8.335
 2101SOL    HW1 7046   0.269   2.853   8.356
 2101SOL    HW2 7047   0.195   2.978   8.400
 2102SOL     OW 7048   0.606   3.654   8.877
 2102SOL    HW1 7049   0.523   3.636   8.921
 2102SOL    HW2 7050   0.628   3.744   8.902
 2103SOL     OW 7051   0.569   2.855   7.594
 2103SOL    HW1 7052   0.621   2.893   7.523
 2103SOL    HW2 7053   0.613   2.884   7.673
 2104SOL     OW 7054   1.587   1.979   8.923
 2104SOL    HW1 7055   1.622   2.045   8.863
 2104SOL    HW2 7056   1.572   2.026   9.005
 2105SOL     OW 7057   0.137   2.514   8.020
 2105SOL    HW1 7058   0.092   2.433   8.045
 2105SOL    HW2 7059   0.108   2.578   8.085
 2106SOL     OW 7060   1.844   3.615   7.778
 2106SOL    HW1 7061   1.913   3.590   7.839
 2106SOL    HW2 7062   1.862   3.707   7.758
 2107SOL     OW 7063   0.032   3.467   7.602
 2107SOL    HW1 7064   0.016   3.373   7.594
 2107SOL    HW2 7065   0.049   3.480   7.695
 2108SOL     OW 7066   1.692   2.781   8.092
 2108SOL    HW1 7067   1.769   2.733   8.064
 2108SOL    HW2 7068   1.666   2.833   8.016
 2109SOL     OW 7069   1.649   2.965   7.877
 2109SOL    HW1 7070   1.736   2.965   7.837
 2109SOL    HW2 7071   1.656   3.029   7.948
 2110SOL     OW 7072   0.106   2.629   9.012
 2110SOL    HW1 7073   0.192   2.615   8.973
 2110SOL    HW2 7074   0.109   2.719   9.045
 2111SOL     OW 7075   0.617   3.253   8.185
 2111SOL    HW1 7076   0.571   3.169   8.194
 2111SOL    HW2 7077   0.600   3.280   8.094
 2112SOL     OW 7078   1.285   3.098   8.868
 2112SOL    HW1 7079   1.315   3.029   8.809
 2112SOL    HW2 7080   1.344   3.092   8.943
 2113SOL     OW 7081   0.824   1.866   7.962
 2113SOL    HW1 7082   0.863   1.950   7.938
 2113SOL    HW2 7083   0.730   1.884   7.967
 2114SOL     OW 7084   0.176   2.801   8.725
 2114SOL    HW1 7085   0.267   2.779   8.706
 2114SOL    HW2 7086   0.133   2.802   8.640
 2115SOL     OW 7087   1.532   2.861   7.648
 2115SOL    HW1 7088   1.462   2.804   7.680
 2115SOL    HW2 7089   1.574   2.895   7.727
 2116SOL     OW 7090   1.184   3.676   9.074
 2116SOL    HW1 7091   1.189   3.736   9.000
 2116SOL    HW2 7092   1.202   3.590   9.036
 2117SOL     OW 7093   0.337   2.120   9.259
 2117SOL    HW1 7094   0.379   2.195   9.301
 2117SOL    HW2 7095   0.245   2.125   9.287
 2118SOL     OW 7096   1.468   3.281   8.395
 2118SOL    HW1 7097   1.401   3.297   8.461
 2118SOL    HW2 7098   1.454   3.190   8.369
 2119SOL     OW 7099   1.654   3.615   8.024
 2119SOL    HW1 7100   1.635   3.582   7.937
 2119SOL    HW2 7101   1.634   3.542   8.083
 2120SOL     OW 7102   0.598   2.578   7.719
 2120SOL    HW1 7103   0.597   2.662   7.674
 2120SOL    HW2 7104   0.531   2.587   7.788
 2121SOL     OW 7105   1.276   2.229   8.383
 2121SOL    HW1 7106   1.188   2.194   8.391
 2121SOL    HW2 7107   1.330   2.175   8.441
 2122SOL     OW 7108   1.578   3.536   7.759
 2122SOL    HW1 7109   1.670   3.561   7.750
 2122SOL    HW2 7110   1.550   3.519   7.669
 2123SOL     OW 7111   0.793   2.477   8.896
 2123SOL    HW1 7112   0.765   2.450   8.984
 2123SOL    HW2 7113   0.757   2.409   8.839
 2124SOL     OW 7114   1.392   2.337   9.125
 2124SOL    HW1 7115   1.396   2.381   9.210
 2124SOL    HW2 7116   1.450   2.261   9.134
 2125SOL     OW 7117   0.950   2.747   9.034
 2125SOL    HW1 7118   1.005   2.679   8.995
 2125SOL    HW2 7119   0.904   2.785   8.960
 2126SOL     OW 7120   0.993   2.273   8.681
 2126SOL    HW1 7121   0.904   2.290   8.712
 2126SOL    HW2 7122   0.982   2.229   8.597
 2127SOL     OW 7123   1.055   2.561   7.872
 2127SOL    HW1 7124   1.073   2.554   7.966
 2127SOL    HW2 7125   0.971   2.515   7.860
 2128SOL     OW 7126   0.087   2.693   8.236
 2128SOL    HW1 7127   0.173   2.684   8.277
 2128SOL    HW2 7128   0.025   2.688   8.309
 2129SOL     OW 7129   0.121   3.723   9.030
 2129SOL    HW1 7130   0.114   3.700   9.122
 2129SOL    HW2 7131   0.044   3.683   8.989
 2130SOL     OW 7132   0.899   2.213   7.644
 2130SOL    HW1 7133   0.939   2.275   7.584
 2130SOL    HW2 7134   0.905   2.128   7.599
 2131SOL     OW 7135   1.700   2.436   9.283
 2131SOL    HW1 7136   1.666   2.509   9.230
 2131SOL    HW2 7137   1.729   2.371   9.218
 2132SOL     OW 7138   1.381   3.004   7.988
 2132SOL    HW1 7139   1.460   2.993   7.935
 2132SOL    HW2 7140   1.327   3.066   7.939
 2133SOL     OW 7141   0.555   2.039   8.344
 2133SOL    HW1 7142   0.556   2.071   8.434
 2133SOL    HW2 7143   0.554   2.118   8.291
 2134SOL     OW 7144   0.999   3.306   7.916
 2134SOL    HW1 7145   0.969   3.382   7.866
 2134SOL    HW2 7146   0.975   3.326   8.006
 2135SOL     OW 7147   0.360   3.678   8.309
 2135SOL    HW1 7148   0.401   3.592   8.321
 2135SOL    HW2 7149   0.429   3.741   8.330
 2136SOL     OW 7150   1.802   2.912   8.319
 2136SOL    HW1 7151   1.750   2.890   8.241
 2136SOL    HW2 7152   1.737   2.919   8.389
 2137SOL     OW 7153   1.227   3.402   8.961
 2137SOL    HW1 7154   1.215   3.330   9.023
 2137SOL    HW2 7155   1.158   3.389   8.895
 2138SOL     OW 7156   0.309   2.812   7.710
 2138SOL    HW1 7157   0.391   2.837   7.668
 2138SOL    HW2 7158   0.299   2.719   7.691
 2139SOL     OW 7159   1.482   2.613   8.170
 2139SOL    HW1 7160   1.477   2.574   8.257
 2139SOL    HW2 7161   1.561   2.667   8.172
 2140SOL     OW 7162   0.472   3.128   9.183
 2140SOL    HW1 7163   0.446   3.135   9.091
 2140SOL    HW2 7164   0.390   3.127   9.231
 2141SOL     OW 7165   1.125   3.641   7.676
 2141SOL    HW1 7166   1.049   3.602   7.720
 2141SOL    HW2 7167   1.149   3.577   7.609
 2142SOL     OW 7168   0.204   2.136   8.933
 2142SOL    HW1 7169   0.145   2.212   8.940
 2142SOL    HW2 7170   0.179   2.080   9.007
 2143SOL     OW 7171   1.629   3.244   7.539
 2143SOL    HW1 7172   1.587   3.329   7.524
 2143SOL    HW2 7173   1.561   3.180   7.518
 2144SOL     OW 7174   0.469   3.604   7.760
 2144SOL    HW1 7175   0.514   3.658   7.825
 2144SOL    HW2 7176   0.539   3.565   7.708
 2145SOL     OW 7177   1.397   1.969   7.887
 2145SOL    HW1 7178   1.388   1.943   7.795
 2145SOL    HW2 7179   1.491   1.981   7.900
 2146SOL     OW 7180   0.255   3.654   8.669
 2146SOL    HW1 7181   0.299   3.575   8.703
 2146SOL    HW2 7182   0.213   3.625   8.588
 2147SOL     OW 7183   0.939   3.562   8.344
 2147SOL    HW1 7184   1.018   3.512   8.367
 2147SOL    HW2 7185   0.899   3.511   8.273
 2148SOL     OW 7186   0.397   2.554   7.918
 2148SOL    HW1 7187   0.418   2.461   7.931
 2148SOL    HW2 7188   0.306   2.563   7.943
 2149SOL     OW 7189   1.529   2.091   9.175
 2149SOL    HW1 7190   1.540   2.111   9.268
 2149SOL    HW2 7191   1.465   2.020   9.172
 2150SOL     OW 7192   0.646   1.980   7.547
 2150SOL    HW1 7193   0.702   1.906   7.569
 2150SOL    HW2 7194   0.592   1.950   7.474
 2151SOL     OW 7195   0.764   2.143   9.203
 2151SOL    HW1 7196   0.844   2.091   9.199
 2151SOL    HW2 7197   0.717   2.109   9.280
 2152SOL     OW 7198   0.876   3.386   8.642
 2152SOL    HW1 7199   0.858   3.348   8.557
 2152SOL    HW2 7200   0.945   3.331   8.679
 2153SOL     OW 7201   1.338   2.452   8.880
 2153SOL    HW1 7202   1.369   2.419   8.965
 2153SOL    HW2 7203   1.376   2.539   8.872
 2154SOL     OW 7204   0.819   3.251   8.395
 2154SOL    HW1 7205   0.904   3.240   8.352
 2154SOL    HW2 7206   0.756   3.258   8.324
 2155SOL     OW 7207   0.929   2.371   8.348
 2155SOL    HW1 7208   0.904   2.362   8.256
 2155SOL    HW2 7209   0.959   2.284   8.373
 2156SOL     OW 7210   0.559   1.925   7.942
 2156SOL    HW1 7211   0.480   1.923   7.994
 2156SOL    HW2 7212   0.549   2.002   7.885
 2157SOL     OW 7213   1.428   3.063   7.487
 2157SOL    HW1 7214   1.457   2.988   7.539
 2157SOL    HW2 7215   1.342   3.085   7.524
 2158SOL     OW 7216   0.296   1.906   7.624
 2158SOL    HW1 7217   0.359   1.972   7.596
 2158SOL    HW2 7218   0.348   1.840   7.670
 2159SOL     OW 7219   0.943   2.112   7.903
 2159SOL    HW1 7220   0.918   2.151   7.819
 2159SOL    HW2 7221   1.037   2.128   7.910
 2160SOL     OW 7222   1.080   2.547   8.904
 2160SOL    HW1 7223   1.015   2.477   8.908
 2160SOL    HW2 7224   1.165   2.501   8.899
 2161SOL     OW 7225   1.220   3.434   8.243
 2161SOL    HW1 7226   1.233   3.499   8.174
 2161SOL    HW2 7227   1.289   3.452   8.306
 2162SOL     OW 7228   0.470   3.016   8.178
 2162SOL    HW1 7229   0.404   2.997   8.244
 2162SOL    HW2 7230   0.426   3.002   8.094
 2163SOL     OW 7231   1.264   3.653   8.061
 2163SOL    HW1 7232   1.312   3.715   8.006
 2163SOL    HW2 7233   1.195   3.706   8.101
 2164SOL     OW 7234   1.024   2.396   7.474
 2164SOL    HW1 7235   0.980   2.479   7.455
 2164SOL    HW2 7236   1.089   2.418   7.541
 2165SOL     OW 7237   0.072   2.373   8.857
 2165SOL    HW1 7238   0.141   2.370   8.790
 2165SOL    HW2 7239   0.063   2.467   8.876
 2166SOL     OW 7240   0.559   2.090   8.618
 2166SOL    HW1 7241   0.604   2.016   8.659
 2166SOL    HW2 7242   0.467   2.078   8.643
 2167SOL     OW 7243   0.867   2.320   8.086
 2167SOL    HW1 7244   0.823   2.376   8.022
 2167SOL    HW2 7245   0.889   2.241   8.038
 2168SOL     OW 7246   1.018   1.916   8.195
 2168SOL    HW1 7247   0.959   1.910   8.120
 2168SOL    HW2 7248   0.994   1.842   8.250
 2169SOL     OW 7249   1.439   3.022   8.304
 2169SOL    HW1 7250   1.367   2.958   8.306
 2169SOL    HW2 7251   1.462   3.030   8.212
 2170SOL     OW 7252   1.464   2.472   8.416
 2170SOL    HW1 7253   1.407   2.396   8.420
 2170SOL    HW2 7254   1.521   2.464   8.493
 2171SOL     OW 7255   1.842   2.673   7.839
 2171SOL    HW1 7256   1.898   2.620   7.896
 2171SOL    HW2 7257   1.815   2.614   7.769
 2172SOL     OW 7258   0.493   3.285   7.601
 2172SOL    HW1 7259   0.414   3.258   7.648
 2172SOL    HW2 7260   0.484   3.246   7.515
 2173SOL     OW 7261   1.676   3.127   8.088
 2173SOL    HW1 7262   1.771   3.127   8.104
 2173SOL    HW2 7263   1.649   3.216   8.111
 2174SOL     OW 7264   1.391   2.436   7.517
 2174SOL    HW1 7265   1.333   2.414   7.590
 2174SOL    HW2 7266   1.479   2.416   7.550
 2175SOL     OW 7267   0.525   2.121   7.756
 2175SOL    HW1 7268   0.577   2.078   7.688
 2175SOL    HW2 7269   0.502   2.206   7.718
 2176SOL     OW 7270   1.747   3.105   9.009
 2176SOL    HW1 7271   1.835   3.068   8.999
 2176SOL    HW2 7272   1.762   3.194   9.040
 2177SOL     OW 7273   1.054   3.216   8.780
 2177SOL    HW1 7274   0.978   3.185   8.829
 2177SOL    HW2 7275   1.129   3.174   8.822
 2178SOL     OW 7276   1.610   3.490   9.107
 2178SOL    HW1 7277   1.601   3.524   9.018
 2178SOL    HW2 7278   1.691   3.440   9.106
 2179SOL     OW 7279   1.136   3.073   8.550
 2179SOL    HW1 7280   1.075   3.110   8.614
 2179SOL    HW2 7281   1.106   3.108   8.466
 2180SOL     OW 7282   1.624   2.958   8.523
 2180SOL    HW1 7283   1.617   3.021   8.595
 2180SOL    HW2 7284   1.548   2.976   8.468
 2181SOL     OW 7285   0.917   1.956   8.839
 2181SOL    HW1 7286   0.941   1.937   8.748
 2181SOL    HW2 7287   0.997   1.995   8.876
 2182SOL     OW 7288   0.984   2.977   9.171
 2182SOL    HW1 7289   0.893   2.993   9.196
 2182SOL    HW2 7290   0.980   2.898   9.117
 2183SOL     OW 7291   0.710   2.926   7.821
 2183SOL    HW1 7292   0.696   2.905   7.913
 2183SOL    HW2 7293   0.785   2.872   7.795
 2184SOL     OW 7294   0.432   2.694   8.698
 2184SOL    HW1 7295   0.503   2.708   8.762
 2184SOL    HW2 7296   0.379   2.624   8.738
 2185SOL     OW 7297   1.264   2.236   8.728
 2185SOL    HW1 7298   1.296   2.314   8.773
 2185SOL    HW2 7299   1.173   2.257   8.706
 2186SOL     OW 7300   0.065   3.434   8.795
 2186SOL    HW1 7301   0.039   3.526   8.786
 2186SOL    HW2 7302   0.160   3.437   8.799
 2187SOL     OW 7303   0.333   2.976   7.942
 2187SOL    HW1 7304   0.344   3.051   7.884
 2187SOL    HW2 7305   0.331   2.900   7.882
 2188SOL     OW 7306   0.556   2.387   8.301
 2188SOL    HW1 7307   0.569   2.448   8.228
 2188SOL    HW2 7308   0.619   2.415   8.367
 2189SOL     OW 7309   1.247   3.212   7.839
 2189SOL    HW1 7310   1.303   3.283   7.871
 2189SOL    HW2 7311   1.160   3.233   7.872
 2190SOL     OW 7312   1.290   3.323   8.596
 2190SOL    HW1 7313   1.344   3.327   8.674
 2190SOL    HW2 7314   1.234   3.246   8.610
 2191SOL     OW 7315   1.575   2.479   7.928
 2191SOL    HW1 7316   1.528   2.527   7.996
 2191SOL    HW2 7317   1.622   2.546   7.879
 2192SOL     OW 7318   0.344   3.399   8.757
 2192SOL    HW1 7319   0.332   3.350   8.675
 2192SOL    HW2 7320   0.439   3.408   8.765
 2193SOL     OW 7321   0.497   2.614   9.123
 2193SOL    HW1 7322   0.530   2.656   9.044
 2193SOL    HW2 7323   0.560   2.545   9.141
 2194SOL     OW 7324   1.609   2.645   9.135
 2194SOL    HW1 7325   1.523   2.686   9.128
 2194SOL    HW2 7326   1.661   2.684   9.064
 2195SOL     OW 7327   0.996   1.996   9.201
 2195SOL    HW1 7328   1.055   2.068   9.179
 2195SOL    HW2 7329   1.044   1.917   9.176
 2196SOL     OW 7330   0.496   1.903   9.198
 2196SOL    HW1 7331   0.451   1.848   9.134
 2196SOL    HW2 7332   0.439   1.980   9.208
 2197SOL     OW 7333   0.591   2.737   8.476
 2197SOL    HW1 7334   0.625   2.827   8.478
 2197SOL    HW2 7335   0.535   2.730   8.553
 2198SOL     OW 7336   1.346   2.721   8.469
 2198SOL    HW1 7337   1.260   2.705   8.431
 2198SOL    HW2 7338   1.392   2.637   8.460
 2199SOL     OW 7339   1.200   2.389   7.710
 2199SOL    HW1 7340   1.208   2.311   7.765
 2199SOL    HW2 7341   1.158   2.454   7.767
 2200SOL     OW 7342   0.299   2.049   8.689
 2200SOL    HW1 7343   0.262   2.079   8.772
 2200SOL    HW2 7344   0.283   1.954   8.688
 2201SOL     OW 7345   0.013   3.173   8.737
 2201SOL    HW1 7346   0.060   3.125   8.805
 2201SOL    HW2 7347   0.027   3.265   8.758
 2202SOL     OW 7348   0.721   2.490   8.500
 2202SOL    HW1 7349   0.798   2.476   8.445
 2202SOL    HW2 7350   0.693   2.579   8.480
 2203SOL     OW 7351   1.741   2.820   9.307
 2203SOL    HW1 7352   1.696   2.753   9.255
 2203SOL    HW2 7353   1.679   2.839   9.379
 2204SOL     OW 7354   0.320   1.931   8.065
 2204SOL    HW1 7355   0.289   2.018   8.089
 2204SOL    HW2 7356   0.320   1.882   8.148
 2205SOL     OW 7357   1.618   2.233   7.813
 2205SOL    HW1 7358   1.653   2.175   7.880
 2205SOL    HW2 7359   1.596   2.314   7.859
 2206SOL     OW 7360   1.030   2.620   8.405
 2206SOL    HW1 7361   1.020   2.637   8.499
 2206SOL    HW2 7362   1.003   2.529   8.395
 2207SOL     OW 7363   0.983   3.429   9.170
 2207SOL    HW1 7364   0.966   3.472   9.086
 2207SOL    HW2 7365   1.025   3.347   9.146
 2208SOL     OW 7366   1.851   3.363   9.052
 2208SOL    HW1 7367   1.873   3.391   8.963
 2208SOL    HW2 7368   1.932   3.376   9.102
 2209SOL     OW 7369   0.349   2.798   9.264
 2209SOL    HW1 7370   0.417   2.829   9.322
 2209SOL    HW2 7371   0.391   2.728   9.213
 2210SOL     OW 7372   1.533   2.128   7.574
 2210SOL    HW1 7373   1.465   2.066   7.600
 2210SOL    HW2 7374   1.562   2.168   7.656
 2211SOL     OW 7375   1.286   2.687   7.476
 2211SOL    HW1 7376   1.327   2.601   7.480
 2211SOL    HW2 7377   1.318   2.726   7.395
 2212SOL     OW 7378   1.070   3.201   8.305
 2212SOL    HW1 7379   1.075   3.129   8.242
 2212SOL    HW2 7380   1.127   3.269   8.269
 2213SOL     OW 7381   0.319   2.672   8.388
 2213SOL    HW1 7382   0.413   2.690   8.389
 2213SOL    HW2 7383   0.311   2.580   8.411
 2214SOL     OW 7384   0.322   2.389   8.432
 2214SOL    HW1 7385   0.284   2.302   8.417
 2214SOL    HW2 7386   0.402   2.389   8.380
 2215SOL     OW 7387   1.134   2.235   9.133
 2215SOL    HW1 7388   1.087   2.289   9.197
 2215SOL    HW2 7389   1.221   2.275   9.129
 2216SOL     OW 7390   1.159   2.060   8.919
 2216SOL    HW1 7391   1.149   2.123   8.991
 2216SOL    HW2 7392   1.204   2.109   8.850
 2217SOL     OW 7393   4.491   3.180   7.660
 2217SOL    HW1 7394   4.399   3.198   7.641
 2217SOL    HW2 7395   4.494   3.087   7.681
 2218SOL     OW 7396   0.105   3.629   8.389
 2218SOL    HW1 7397   0.064   3.587   8.314
 2218SOL    HW2 7398   0.192   3.653   8.359
 2219SOL     OW 7399   0.492   3.436   8.355
 2219SOL    HW1 7400   0.561   3.499   8.379
 2219SOL    HW2 7401   0.536   3.374   8.296
 2220SOL     OW 7402   0.974   2.649   8.670
 2220SOL    HW1 7403   1.033   2.630   8.743
 2220SOL    HW2 7404   0.890   2.610   8.696
 2221SOL     OW 7405   0.022   2.420   8.531
 2221SOL    HW1 7406   0.115   2.404   8.515
 2221SOL    HW2 7407   0.003   2.375   8.613
 2222SOL     OW 7408   0.179   2.393   9.166
 2222SOL    HW1 7409   0.262   2.363   9.129
 2222SOL    HW2 7410   0.157   2.471   9.116
 2223SOL     OW 7411   1.381   2.795   9.105
 2223SOL    HW1 7412   1.401   2.888   9.101
 2223SOL    HW2 7413   1.376   2.768   9.013
 2224SOL     OW 7414   0.819   2.432   7.815
 2224SOL    HW1 7415   0.824   2.358   7.755
 2224SOL    HW2 7416   0.745   2.483   7.784
 2225SOL     OW 7417   1.641   2.466   8.627
 2225SOL    HW1 7418   1.633   2.407   8.703
 2225SOL    HW2 7419   1.728   2.449   8.593
 2226SOL     OW 7420   0.275   3.424   9.188
 2226SOL    HW1 7421   0.211   3.474   9.238
 2226SOL    HW2 7422   0.259   3.333   9.212
 2227SOL     OW 7423   0.709   2.309   8.702
 2227SOL    HW1 7424   0.654   2.236   8.676
 2227SOL    HW2 7425   0.702   2.372   8.630
 2228SOL     OW 7426   0.923   3.540   8.918
 2228SOL    HW1 7427   0.898   3.500   8.835
 2228SOL    HW2 7428   0.915   3.635   8.903
 2229SOL     OW 7429   0.469   2.351   7.622
 2229SOL    HW1 7430   0.531   2.419   7.650
 2229SOL    HW2 7431   0.387   2.398   7.610
 2230SOL     OW 7432   0.159   3.005   8.903
 2230SOL    HW1 7433   0.143   2.962   8.987
 2230SOL    HW2 7434   0.167   2.933   8.841
 2231SOL     OW 7435   1.321   2.905   8.667
 2231SOL    HW1 7436   1.341   2.842   8.598
 2231SOL    HW2 7437   1.255   2.963   8.628
 2232SOL     OW 7438   1.317   2.719   7.751
 2232SOL    HW1 7439   1.243   2.687   7.804
 2232SOL    HW2 7440   1.289   2.706   7.661
 2233SOL     OW 7441   1.780   3.598   8.606
 2233SOL    HW1 7442   1.839   3.624   8.535
 2233SOL    HW2 7443   1.752   3.510   8.582
 2234SOL     OW 7444   1.240   3.595   8.553
 2234SOL    HW1 7445   1.322   3.619   8.512
 2234SOL    HW2 7446   1.249   3.502   8.574
 2235SOL     OW 7447   0.074   3.050   8.499
 2235SOL    HW1 7448   0.054   3.078   8.589
 2235SOL    HW2 7449   0.043   3.122   8.444
 2236SOL     OW 7450   0.680   3.534   9.188
 2236SOL    HW1 7451   0.618   3.606   9.176
 2236SOL    HW2 7452   0.748   3.549   9.122
 2237SOL     OW 7453   1.718   2.003   7.961
 2237SOL    HW1 7454   1.762   1.952   7.893
 2237SOL    HW2 7455   1.687   1.938   8.024
 2238SOL     OW 7456   1.393   3.430   7.939
 2238SOL    HW1 7457   1.451   3.464   7.871
 2238SOL    HW2 7458   1.342   3.505   7.968
 2239SOL     OW 7459   0.115   3.668   9.299
 2239SOL    HW1 7460   0.074   3.597   9.349
 2239SOL    HW2 7461   0.180   3.705   9.359
 2240SOL     OW 7462   1.278   2.790   8.118
 2240SOL    HW1 7463   1.352   2.730   8.129
 2240SOL    HW2 7464   1.312   2.862   8.065
 2241SOL     OW 7465   0.804   3.140   8.871
 2241SOL    HW1 7466   0.777   3.181   8.954
 2241SOL    HW2 7467   0.732   3.158   8.811
 2242SOL     OW 7468   0.672   3.488   7.603
 2242SOL    HW1 7469   0.683   3.502   7.509
 2242SOL    HW2 7470   0.617   3.410   7.610
 2243SOL     OW 7471   1.619   3.590   8.840
 2243SOL    HW1 7472   1.673   3.594   8.761
 2243SOL    HW2 7473   1.605   3.681   8.865
 2244SOL     OW 7474   1.786   1.990   8.438
 2244SOL    HW1 7475   1.839   1.923   8.395
 2244SOL    HW2 7476   1.716   2.009   8.375
 2245SOL     OW 7477   0.259   2.179   8.163
 2245SOL    HW1 7478   0.176   2.220   8.138
 2245SOL    HW2 7479   0.251   2.165   8.258
 2246SOL     OW 7480   1.208   3.463   7.481
 2246SOL    HW1 7481   1.197   3.372   7.508
 2246SOL    HW2 7482   1.142   3.476   7.414
 2247SOL     OW 7483   0.828   2.871   8.823
 2247SOL    HW1 7484   0.869   2.866   8.737
 2247SOL    HW2 7485   0.822   2.965   8.841
 2248SOL     OW 7486   0.916   2.773   7.739
 2248SOL    HW1 7487   0.976   2.806   7.672
 2248SOL    HW2 7488   0.966   2.705   7.785
 2249SOL     OW 7489   1.488   3.492   7.493
 2249SOL    HW1 7490   1.395   3.481   7.478
 2249SOL    HW2 7491   1.527   3.497   7.406
 2250SOL     OW 7492   0.372   3.173   8.938
 2250SOL    HW1 7493   0.354   3.252   8.887
 2250SOL    HW2 7494   0.298   3.116   8.919
 2251SOL     OW 7495   1.609   3.147   8.728
 2251SOL    HW1 7496   1.665   3.129   8.803
 2251SOL    HW2 7497   1.547   3.214   8.759
 2252SOL     OW 7498   1.062   2.973   8.159
 2252SOL    HW1 7499   0.989   2.923   8.196
 2252SOL    HW2 7500   1.125   2.906   8.132
 2253SOL     OW 7501   1.024   2.104   8.414
 2253SOL    HW1 7502   1.020   2.057   8.330
 2253SOL    HW2 7503   1.019   2.035   8.480
 2254SOL     OW 7504   0.607   3.350   7.929
 2254SOL    HW1 7505   0.655   3.302   7.862
 2254SOL    HW2 7506   0.526   3.378   7.886
 2255SOL     OW 7507   1.725   2.266   8.826
 2255SOL    HW1 7508   1.806   2.317   8.823
 2255SOL    HW2 7509   1.744   2.187   8.775
 2256SOL     OW 7510   0.254   3.205   7.721
 2256SOL    HW1 7511   0.159   3.199   7.709
 2256SOL    HW2 7512   0.265   3.238   7.810
 2257SOL     OW 7513   0.116   2.865   9.139
 2257SOL    HW1 7514   0.053   2.913   9.193
 2257SOL    HW2 7515   0.195   2.861   9.193
 2258SOL     OW 7516   0.677   2.060   8.947
 2258SOL    HW1 7517   0.761   2.036   8.907
 2258SOL    HW2 7518   0.700   2.090   9.035
 2259SOL     OW 7519   0.074   2.190   7.475
 2259SOL    HW1 7520   4.483   2.206   7.499
 2259SOL    HW2 7521   0.102   2.270   7.431
 2260SOL     OW 7522   1.426   2.720   8.845
 2260SOL    HW1 7523   1.376   2.781   8.790
 2260SOL    HW2 7524   1.514   2.722   8.808
 2261SOL     OW 7525   0.087   2.033   7.749
 2261SOL    HW1 7526   0.082   2.111   7.694
 2261SOL    HW2 7527   0.162   1.985   7.714
 2262SOL     OW 7528   1.178   3.196   7.566
 2262SOL    HW1 7529   1.086   3.167   7.567
 2262SOL    HW2 7530   1.203   3.197   7.658
 2263SOL     OW 7531   0.629   2.694   8.886
 2263SOL    HW1 7532   0.687   2.769   8.871
 2263SOL    HW2 7533   0.688   2.619   8.888
 2264SOL     OW 7534   1.483   3.647   8.431
 2264SOL    HW1 7535   1.504   3.714   8.366
 2264SOL    HW2 7536   1.567   3.620   8.466
 2265SOL     OW 7537   0.710   2.426   9.152
 2265SOL    HW1 7538   0.764   2.481   9.209
 2265SOL    HW2 7539   0.729   2.336   9.181
 2266SOL     OW 7540   1.473   3.056   9.076
 2266SOL    HW1 7541   1.461   3.071   9.170
 2266SOL    HW2 7542   1.566   3.076   9.060
 2267SOL     OW 7543   0.375   3.609   9.014
 2267SOL    HW1 7544   0.290   3.650   8.996
 2267SOL    HW2 7545   0.353   3.530   9.064
 2268SOL     OW 7546   1.665   2.742   8.703
 2268SOL    HW1 7547   1.659   2.656   8.660
 2268SOL    HW2 7548   1.654   2.805   8.632
 2269SOL     OW 7549   1.215   2.182   7.905
 2269SOL    HW1 7550   1.276   2.109   7.900
 2269SOL    HW2 7551   1.245   2.232   7.982
 2270SOL     OW 7552   0.588   2.595   8.120
 2270SOL    HW1 7553   0.626   2.682   8.106
 2270SOL    HW2 7554   0.522   2.587   8.051
 2271SOL     OW 7555   1.753   2.242   9.100
 2271SOL    HW1 7556   1.738   2.252   9.006
 2271SOL    HW2 7557   1.686   2.179   9.128
 2272SOL     OW 7558   1.756   2.791   8.957
 2272SOL    HW1 7559   1.742   2.884   8.973
 2272SOL    HW2 7560   1.734   2.779   8.865
 2273SOL     OW 7561   0.866   3.226   7.492
 2273SOL    HW1 7562   0.827   3.252   7.576
 2273SOL    HW2 7563   0.879   3.309   7.445
 2274SOL     OW 7564   0.665   3.645   8.387
 2274SOL    HW1 7565   0.646   3.737   8.366
 2274SOL    HW2 7566   0.760   3.638   8.379
 2275SOL     OW 7567   0.870   2.834   8.301
 2275SOL    HW1 7568   0.919   2.760   8.338
 2275SOL    HW2 7569   0.831   2.877   8.377
 2276SOL     OW 7570   1.077   2.852   7.537
 2276SOL    HW1 7571   1.056   2.903   7.459
 2276SOL    HW2 7572   1.151   2.797   7.511
 2277SOL     OW 7573   1.846   3.415   8.290
 2277SOL    HW1 7574   1.767   3.404   8.237
 2277SOL    HW2 7575   1.836   3.352   8.362
 2278SOL     OW 7576   0.234   3.165   9.310
 2278SOL    HW1 7577   0.147   3.129   9.294
 2278SOL    HW2 7578   0.239   3.175   9.405
 2279SOL     OW 7579   0.127   3.088   8.115
 2279SOL    HW1 7580   0.147   3.049   8.201
 2279SOL    HW2 7581   0.182   3.039   8.054
 2280SOL     OW 7582   0.687   3.270   9.081
 2280SOL    HW1 7583   0.608   3.227   9.111
 2280SOL    HW2 7584   0.682   3.358   9.118
 2281SOL     OW 7585   1.764   2.030   8.701
 2281SOL    HW1 7586   1.803   1.947   8.728
 2281SOL    HW2 7587   1.766   2.027   8.605
 2282SOL     OW 7588   0.434   2.293   7.972
 2282SOL    HW1 7589   0.461   2.220   7.917
 2282SOL    HW2 7590   0.383   2.253   8.042
 2283SOL     OW 7591   1.698   3.347   8.538
 2283SOL    HW1 7592   1.618   3.328   8.489
 2283SOL    HW2 7593   1.702   3.278   8.605
 2284SOL     OW 7594   0.294   2.356   8.699
 2284SOL    HW1 7595   0.365   2.303   8.735
 2284SOL    HW2 7596   0.318   2.370   8.607
 2285SOL     OW 7597   0.832   3.440   8.123
 2285SOL    HW1 7598   0.809   3.504   8.056
 2285SOL    HW2 7599   0.757   3.381   8.126
 2286SOL     OW 7600   1.431   2.093   8.561
 2286SOL    HW1 7601   1.462   2.014   8.605
 2286SOL    HW2 7602   1.380   2.140   8.628
 2287SOL     OW 7603   1.009   1.879   8.583
 2287SOL    HW1 7604   0.954   1.812   8.541
 2287SOL    HW2 7605   1.096   1.840   8.585
 2288SOL     OW 7606   0.775   3.196   7.768
 2288SOL    HW1 7607   0.748   3.105   7.777
 2288SOL    HW2 7608   0.856   3.202   7.819
 2289SOL     OW 7609   0.621   3.417   8.736
 2289SOL    HW1 7610   0.621   3.499   8.785
 2289SOL    HW2 7611   0.709   3.412   8.698
 2290SOL     OW 7612   1.356   1.913   7.618
 2290SOL    HW1 7613   1.389   1.843   7.561
 2290SOL    HW2 7614   1.267   1.887   7.640
 2291SOL     OW 7615   1.297   2.327   8.127
 2291SOL    HW1 7616   1.243   2.406   8.129
 2291SOL    HW2 7617   1.289   2.289   8.214
 2292SOL     OW 7618   1.558   2.054   8.310
 2292SOL    HW1 7619   1.512   2.078   8.390
 2292SOL    HW2 7620   1.565   2.136   8.261
 2293SOL     OW 7621   0.038   2.911   7.743
 2293SOL    HW1 7622   0.129   2.885   7.730
 2293SOL    HW2 7623   0.020   2.889   7.835
 2294SOL     OW 7624   0.890   3.523   7.785
 2294SOL    HW1 7625   0.815   3.507   7.728
 2294SOL    HW2 7626   0.862   3.595   7.842
 2295SOL     OW 7627   0.242   2.494   9.434
 2295SOL    HW1 7628   0.169   2.464   9.488
 2295SOL    HW2 7629   0.214   2.477   9.344
 2296SOL     OW 7630   0.214   2.135  10.300
 2296SOL    HW1 7631   0.249   2.109  10.385
 2296SOL    HW2 7632   0.136   2.081  10.288
 2297SOL     OW 7633   0.005   2.265   9.950
 2297SOL    HW1 7634   4.424   2.299   9.988
 2297SOL    HW2 7635   4.478   2.186   9.903
 2298SOL     OW 7636   0.569   3.159  10.496
 2298SOL    HW1 7637   0.484   3.163  10.452
 2298SOL    HW2 7638   0.584   3.248  10.528
 2299SOL     OW 7639   1.572   3.377  10.019
 2299SOL    HW1 7640   1.528   3.353  10.101
 2299SOL    HW2 7641   1.501   3.380   9.954
 2300SOL     OW 7642   1.134   2.560  10.005
 2300SOL    HW1 7643   1.181   2.642   9.993
 2300SOL    HW2 7644   1.085   2.572  10.087
 2301SOL     OW 7645   1.795   2.454   9.531
 2301SOL    HW1 7646   1.757   2.451   9.443
 2301SOL    HW2 7647   1.744   2.390   9.581
 2302SOL     OW 7648   0.746   3.000  10.358
 2302SOL    HW1 7649   0.680   3.038  10.416
 2302SOL    HW2 7650   0.784   3.075  10.313
 2303SOL     OW 7651   0.861   2.631   0.027
 2303SOL    HW1 7652   0.868   2.685   0.106
 2303SOL    HW2 7653   0.895   2.688  11.057
 2304SOL     OW 7654   0.684   2.860   9.955
 2304SOL    HW1 7655   0.751   2.852  10.023
 2304SOL    HW2 7656   0.616   2.914   9.994
 2305SOL     OW 7657   0.334   3.277  10.376
 2305SOL    HW1 7658   0.253   3.255  10.330
 2305SOL    HW2 7659   0.382   3.333  10.314
 2306SOL     OW 7660   1.462   3.362  10.667
 2306SOL    HW1 7661   1.521   3.437  10.673
 2306SOL    HW2 7662   1.393   3.381  10.731
 2307SOL     OW 7663   0.454   2.256  10.770
 2307SOL    HW1 7664   0.532   2.203  10.783
 2307SOL    HW2 7665   0.382   2.203  10.805
 2308SOL     OW 7666   1.583   2.308  10.058
 2308SOL    HW1 7667   1.502   2.320  10.008
 2308SOL    HW2 7668   1.586   2.382  10.118
 2309SOL     OW 7669   0.246   3.552   9.781
 2309SOL    HW1 7670   0.229   3.637   9.822
 2309SOL    HW2 7671   0.319   3.568   9.722
 2310SOL     OW 7672   0.262   3.287   9.834
 2310SOL    HW1 7673   0.246   3.381   9.838
 2310SOL    HW2 7674   0.203   3.250   9.900
 2311SOL     OW 7675   0.258   2.946  10.198
 2311SOL    HW1 7676   0.269   2.853  10.218
 2311SOL    HW2 7677   0.195   2.977  10.262
 2312SOL     OW 7678   0.605   3.653  10.735
 2312SOL    HW1 7679   0.525   3.635  10.786
 2312SOL    HW2 7680   0.629   3.742  10.759
 2313SOL     OW 7681   0.569   2.855   9.455
 2313SOL    HW1 7682   0.621   2.893   9.385
 2313SOL    HW2 7683   0.613   2.884   9.535
 2314SOL     OW 7684   1.592   1.975  10.781
 2314SOL    HW1 7685   1.618   2.033  10.710
 2314SOL    HW2 7686   1.625   2.017  10.861
 2315SOL     OW 7687   0.137   2.515   9.882
 2315SOL    HW1 7688   0.093   2.433   9.906
 2315SOL    HW2 7689   0.107   2.578   9.947
 2316SOL     OW 7690   1.844   3.615   9.640
 2316SOL    HW1 7691   1.912   3.590   9.702
 2316SOL    HW2 7692   1.861   3.707   9.621
 2317SOL     OW 7693   0.032   3.467   9.464
 2317SOL    HW1 7694   0.016   3.373   9.456
 2317SOL    HW2 7695   0.049   3.480   9.557
 2318SOL     OW 7696   1.690   2.780   9.955
 2318SOL    HW1 7697   1.771   2.735   9.932
 2318SOL    HW2 7698   1.668   2.831   9.877
 2319SOL     OW 7699   1.649   2.964   9.740
 2319SOL    HW1 7700   1.736   2.965   9.699
 2319SOL    HW2 7701   1.655   3.028   9.811
 2320SOL     OW 7702   0.095   2.631  10.903
 2320SOL    HW1 7703   0.178   2.605  10.863
 2320SOL    HW2 7704   0.103   2.726  10.915
 2321SOL     OW 7705   0.616   3.253  10.047
 2321SOL    HW1 7706   0.570   3.169  10.056
 2321SOL    HW2 7707   0.600   3.280   9.957
 2322SOL     OW 7708   1.284   3.096  10.754
 2322SOL    HW1 7709   1.311   3.035  10.685
 2322SOL    HW2 7710   1.343   3.076  10.828
 2323SOL     OW 7711   0.824   1.866   9.825
 2323SOL    HW1 7712   0.864   1.950   9.800
 2323SOL    HW2 7713   0.730   1.884   9.829
 2324SOL     OW 7714   0.171   2.800  10.589
 2324SOL    HW1 7715   0.262   2.775  10.572
 2324SOL    HW2 7716   0.130   2.800  10.503
 2325SOL     OW 7717   1.532   2.861   9.510
 2325SOL    HW1 7718   1.462   2.804   9.542
 2325SOL    HW2 7719   1.574   2.895   9.589
 2326SOL     OW 7720   1.199   3.672  10.931
 2326SOL    HW1 7721   1.192   3.738  10.863
 2326SOL    HW2 7722   1.210   3.589  10.883
 2327SOL     OW 7723   0.342   2.126   0.012
 2327SOL    HW1 7724   0.387   2.201   0.051
 2327SOL    HW2 7725   0.250   2.153   0.011
 2328SOL     OW 7726   1.469   3.281  10.256
 2328SOL    HW1 7727   1.402   3.298  10.322
 2328SOL    HW2 7728   1.455   3.190  10.230
 2329SOL     OW 7729   1.654   3.615   9.886
 2329SOL    HW1 7730   1.635   3.582   9.799
 2329SOL    HW2 7731   1.635   3.542   9.945
 2330SOL     OW 7732   0.598   2.578   9.581
 2330SOL    HW1 7733   0.597   2.662   9.536
 2330SOL    HW2 7734   0.531   2.587   9.650
 2331SOL     OW 7735   1.276   2.229  10.245
 2331SOL    HW1 7736   1.188   2.193  10.253
 2331SOL    HW2 7737   1.330   2.174  10.302
 2332SOL     OW 7738   1.578   3.535   9.621
 2332SOL    HW1 7739   1.670   3.561   9.612
 2332SOL    HW2 7740   1.550   3.519   9.531
 2333SOL     OW 7741   0.797   2.475  10.756
 2333SOL    HW1 7742   0.768   2.450  10.844
 2333SOL    HW2 7743   0.761   2.408  10.699
 2334SOL     OW 7744   0.966   2.766  10.910
 2334SOL    HW1 7745   1.016   2.696  10.867
 2334SOL    HW2 7746   0.916   2.806  10.839
 2335SOL     OW 7747   0.995   2.273  10.542
 2335SOL    HW1 7748   0.906   2.289  10.571
 2335SOL    HW2 7749   0.986   2.228  10.458
 2336SOL     OW 7750   1.055   2.561   9.734
 2336SOL    HW1 7751   1.073   2.554   9.828
 2336SOL    HW2 7752   0.971   2.515   9.722
 2337SOL     OW 7753   0.087   2.695  10.098
 2337SOL    HW1 7754   0.173   2.684  10.139
 2337SOL    HW2 7755   0.025   2.687  10.171
 2338SOL     OW 7756   0.114   3.710  10.902
 2338SOL    HW1 7757   0.109   3.648  10.974
 2338SOL    HW2 7758   0.046   3.682  10.840
 2339SOL     OW 7759   0.899   2.212   9.506
 2339SOL    HW1 7760   0.939   2.275   9.445
 2339SOL    HW2 7761   0.906   2.128   9.461
 2340SOL     OW 7762   1.381   3.004   9.850
 2340SOL    HW1 7763   1.459   2.992   9.797
 2340SOL    HW2 7764   1.327   3.066   9.800
 2341SOL     OW 7765   0.555   2.038  10.207
 2341SOL    HW1 7766   0.556   2.070  10.297
 2341SOL    HW2 7767   0.554   2.118  10.153
 2342SOL     OW 7768   0.999   3.306   9.778
 2342SOL    HW1 7769   0.969   3.382   9.728
 2342SOL    HW2 7770   0.975   3.326   9.869
 2343SOL     OW 7771   0.359   3.679  10.172
 2343SOL    HW1 7772   0.401   3.593  10.183
 2343SOL    HW2 7773   0.428   3.742  10.192
 2344SOL     OW 7774   1.801   2.912  10.181
 2344SOL    HW1 7775   1.748   2.892  10.104
 2344SOL    HW2 7776   1.738   2.919  10.253
 2345SOL     OW 7777   1.231   3.398  10.817
 2345SOL    HW1 7778   1.241   3.308  10.848
 2345SOL    HW2 7779   1.158   3.394  10.756
 2346SOL     OW 7780   0.309   2.812   9.572
 2346SOL    HW1 7781   0.391   2.837   9.529
 2346SOL    HW2 7782   0.299   2.719   9.552
 2347SOL     OW 7783   1.482   2.611  10.031
 2347SOL    HW1 7784   1.478   2.574  10.119
 2347SOL    HW2 7785   1.560   2.666  10.031
 2348SOL     OW 7786   0.459   3.127  11.050
 2348SOL    HW1 7787   0.426   3.147  10.963
 2348SOL    HW2 7788   0.398   3.062  11.085
 2349SOL     OW 7789   1.125   3.640   9.538
 2349SOL    HW1 7790   1.049   3.602   9.582
 2349SOL    HW2 7791   1.149   3.577   9.471
 2350SOL     OW 7792   0.197   2.136  10.798
 2350SOL    HW1 7793   0.145   2.216  10.805
 2350SOL    HW2 7794   0.184   2.092  10.881
 2351SOL     OW 7795   1.629   3.244   9.401
 2351SOL    HW1 7796   1.587   3.329   9.386
 2351SOL    HW2 7797   1.561   3.180   9.380
 2352SOL     OW 7798   0.469   3.604   9.622
 2352SOL    HW1 7799   0.514   3.658   9.687
 2352SOL    HW2 7800   0.539   3.565   9.570
 2353SOL     OW 7801   1.397   1.970   9.751
 2353SOL    HW1 7802   1.391   1.943   9.659
 2353SOL    HW2 7803   1.491   1.971   9.770
 2354SOL     OW 7804   0.251   3.652  10.534
 2354SOL    HW1 7805   0.297   3.576  10.569
 2354SOL    HW2 7806   0.215   3.623  10.451
 2355SOL     OW 7807   0.940   3.561  10.206
 2355SOL    HW1 7808   1.021   3.514  10.226
 2355SOL    HW2 7809   0.899   3.511  10.136
 2356SOL     OW 7810   0.398   2.554   9.780
 2356SOL    HW1 7811   0.418   2.461   9.793
 2356SOL    HW2 7812   0.306   2.563   9.806
 2357SOL     OW 7813   0.646   1.980   9.409
 2357SOL    HW1 7814   0.703   1.906   9.430
 2357SOL    HW2 7815   0.592   1.950   9.336
 2358SOL     OW 7816   0.763   2.146  11.048
 2358SOL    HW1 7817   0.831   2.089  11.083
 2358SOL    HW2 7818   0.697   2.149   0.016
 2359SOL     OW 7819   0.876   3.385  10.505
 2359SOL    HW1 7820   0.858   3.349  10.418
 2359SOL    HW2 7821   0.948   3.332  10.539
 2360SOL     OW 7822   1.342   2.455  10.758
 2360SOL    HW1 7823   1.399   2.435  10.832
 2360SOL    HW2 7824   1.368   2.544  10.732
 2361SOL     OW 7825   0.819   3.251  10.257
 2361SOL    HW1 7826   0.904   3.240  10.213
 2361SOL    HW2 7827   0.756   3.258  10.185
 2362SOL     OW 7828   0.929   2.372  10.209
 2362SOL    HW1 7829   0.905   2.362  10.117
 2362SOL    HW2 7830   0.958   2.284  10.235
 2363SOL     OW 7831   0.559   1.925   9.804
 2363SOL    HW1 7832   0.480   1.923   9.856
 2363SOL    HW2 7833   0.549   2.002   9.747
 2364SOL     OW 7834   1.428   3.063   9.349
 2364SOL    HW1 7835   1.457   2.988   9.400
 2364SOL    HW2 7836   1.342   3.085   9.385
 2365SOL     OW 7837   0.296   1.906   9.486
 2365SOL    HW1 7838   0.360   1.971   9.457
 2365SOL    HW2 7839   0.348   1.840   9.532
 2366SOL     OW 7840   0.943   2.112   9.765
 2366SOL    HW1 7841   0.918   2.150   9.681
 2366SOL    HW2 7842   1.037   2.128   9.772
 2367SOL     OW 7843   1.079   2.556  10.770
 2367SOL    HW1 7844   1.010   2.490  10.775
 2367SOL    HW2 7845   1.161   2.506  10.773
 2368SOL     OW 7846   1.218   3.436  10.106
 2368SOL    HW1 7847   1.232   3.500  10.036
 2368SOL    HW2 7848   1.289   3.453  10.169
 2369SOL     OW 7849   0.470   3.016  10.040
 2369SOL    HW1 7850   0.403   2.996  10.106
 2369SOL    HW2 7851   0.427   3.002   9.956
 2370SOL     OW 7852   1.263   3.653   9.922
 2370SOL    HW1 7853   1.312   3.715   9.867
 2370SOL    HW2 7854   1.195   3.707   9.963
 2371SOL     OW 7855   1.024   2.396   9.336
 2371SOL    HW1 7856   0.980   2.479   9.317
 2371SOL    HW2 7857   1.089   2.418   9.403
 2372SOL     OW 7858   0.068   2.375  10.715
 2372SOL    HW1 7859   0.140   2.372  10.652
 2372SOL    HW2 7860   0.069   2.465  10.748
 2373SOL     OW 7861   0.558   2.090  10.480
 2373SOL    HW1 7862   0.601   2.017  10.524
 2373SOL    HW2 7863   0.466   2.082  10.506
 2374SOL     OW 7864   0.868   2.320   9.948
 2374SOL    HW1 7865   0.823   2.376   9.884
 2374SOL    HW2 7866   0.890   2.241   9.899
 2375SOL     OW 7867   1.017   1.917  10.057
 2375SOL    HW1 7868   0.958   1.910   9.982
 2375SOL    HW2 7869   0.994   1.842  10.112
 2376SOL     OW 7870   1.439   3.022  10.166
 2376SOL    HW1 7871   1.368   2.957  10.167
 2376SOL    HW2 7872   1.462   3.031  10.074
 2377SOL     OW 7873   1.464   2.474  10.279
 2377SOL    HW1 7874   1.407   2.398  10.283
 2377SOL    HW2 7875   1.522   2.466  10.355
 2378SOL     OW 7876   1.839   2.671   9.694
 2378SOL    HW1 7877   1.895   2.622   9.755
 2378SOL    HW2 7878   1.821   2.609   9.623
 2379SOL     OW 7879   0.493   3.285   9.463
 2379SOL    HW1 7880   0.414   3.258   9.510
 2379SOL    HW2 7881   0.484   3.246   9.377
 2380SOL     OW 7882   1.676   3.127   9.951
 2380SOL    HW1 7883   1.771   3.127   9.966
 2380SOL    HW2 7884   1.649   3.216   9.973
 2381SOL     OW 7885   1.392   2.434   9.380
 2381SOL    HW1 7886   1.331   2.413   9.451
 2381SOL    HW2 7887   1.477   2.402   9.411
 2382SOL     OW 7888   0.526   2.121   9.618
 2382SOL    HW1 7889   0.577   2.078   9.550
 2382SOL    HW2 7890   0.502   2.206   9.580
 2383SOL     OW 7891   1.755   3.090  10.848
 2383SOL    HW1 7892   1.847   3.066  10.845
 2383SOL    HW2 7893   1.754   3.175  10.893
 2384SOL     OW 7894   1.057   3.215  10.647
 2384SOL    HW1 7895   0.978   3.183  10.691
 2384SOL    HW2 7896   1.129   3.168  10.689
 2385SOL     OW 7897   1.137   3.077  10.411
 2385SOL    HW1 7898   1.069   3.109  10.471
 2385SOL    HW2 7899   1.110   3.108  10.325
 2386SOL     OW 7900   1.625   2.958  10.387
 2386SOL    HW1 7901   1.620   3.020  10.459
 2386SOL    HW2 7902   1.548   2.978  10.333
 2387SOL     OW 7903   0.919   1.960  10.697
 2387SOL    HW1 7904   0.943   1.940  10.607
 2387SOL    HW2 7905   0.997   1.999  10.735
 2388SOL     OW 7906   0.710   2.926   9.682
 2388SOL    HW1 7907   0.696   2.905   9.775
 2388SOL    HW2 7908   0.785   2.872   9.657
 2389SOL     OW 7909   0.428   2.689  10.563
 2389SOL    HW1 7910   0.499   2.700  10.626
 2389SOL    HW2 7911   0.374   2.620  10.599
 2390SOL     OW 7912   1.265   2.240  10.596
 2390SOL    HW1 7913   1.296   2.318  10.642
 2390SOL    HW2 7914   1.175   2.262  10.572
 2391SOL     OW 7915   0.066   3.440  10.667
 2391SOL    HW1 7916   0.044   3.528  10.635
 2391SOL    HW2 7917   0.161   3.437  10.665
 2392SOL     OW 7918   0.333   2.976   9.804
 2392SOL    HW1 7919   0.344   3.051   9.746
 2392SOL    HW2 7920   0.332   2.900   9.744
 2393SOL     OW 7921   0.556   2.387  10.163
 2393SOL    HW1 7922   0.569   2.447  10.090
 2393SOL    HW2 7923   0.620   2.415  10.229
 2394SOL     OW 7924   1.247   3.212   9.701
 2394SOL    HW1 7925   1.303   3.283   9.733
 2394SOL    HW2 7926   1.160   3.233   9.734
 2395SOL     OW 7927   1.289   3.325  10.456
 2395SOL    HW1 7928   1.346   3.328  10.532
 2395SOL    HW2 7929   1.236   3.246  10.469
 2396SOL     OW 7930   1.578   2.486   9.783
 2396SOL    HW1 7931   1.527   2.524   9.855
 2396SOL    HW2 7932   1.629   2.560   9.749
 2397SOL     OW 7933   0.344   3.396  10.617
 2397SOL    HW1 7934   0.332   3.348  10.535
 2397SOL    HW2 7935   0.438   3.408  10.624
 2398SOL     OW 7936   0.502   2.604  10.971
 2398SOL    HW1 7937   0.546   2.646  10.897
 2398SOL    HW2 7938   0.561   2.533  10.997
 2399SOL     OW 7939   1.604   2.610  10.952
 2399SOL    HW1 7940   1.528   2.668  10.962
 2399SOL    HW2 7941   1.672   2.665  10.915
 2400SOL     OW 7942   0.590   2.736  10.340
 2400SOL    HW1 7943   0.622   2.826  10.342
 2400SOL    HW2 7944   0.533   2.730  10.416
 2401SOL     OW 7945   1.347   2.725  10.338
 2401SOL    HW1 7946   1.261   2.709  10.298
 2401SOL    HW2 7947   1.394   2.642  10.327
 2402SOL     OW 7948   1.199   2.389   9.572
 2402SOL    HW1 7949   1.207   2.311   9.627
 2402SOL    HW2 7950   1.157   2.454   9.628
 2403SOL     OW 7951   0.298   2.050  10.552
 2403SOL    HW1 7952   0.262   2.081  10.635
 2403SOL    HW2 7953   0.280   1.955  10.552
 2404SOL     OW 7954   0.014   3.178  10.598
 2404SOL    HW1 7955   0.060   3.127  10.665
 2404SOL    HW2 7956   0.025   3.269  10.625
 2405SOL     OW 7957   0.722   2.491  10.362
 2405SOL    HW1 7958   0.798   2.477  10.306
 2405SOL    HW2 7959   0.693   2.580  10.342
 2406SOL     OW 7960   0.320   1.931   9.927
 2406SOL    HW1 7961   0.289   2.018   9.951
 2406SOL    HW2 7962   0.320   1.882  10.010
 2407SOL     OW 7963   1.628   2.239   9.676
 2407SOL    HW1 7964   1.644   2.178   9.747
 2407SOL    HW2 7965   1.602   2.321   9.719
 2408SOL     OW 7966   1.028   2.621  10.268
 2408SOL    HW1 7967   1.020   2.637  10.361
 2408SOL    HW2 7968   1.002   2.529  10.257
 2409SOL     OW 7969   0.974   3.436  11.003
 2409SOL    HW1 7970   0.959   3.485  10.922
 2409SOL    HW2 7971   0.989   3.346  10.974
 2410SOL     OW 7972   1.850   3.348  10.911
 2410SOL    HW1 7973   1.873   3.386  10.826
 2410SOL    HW2 7974   1.915   3.383  10.972
 2411SOL     OW 7975   0.351   2.797  11.087
 2411SOL    HW1 7976   0.418   2.824   0.049
 2411SOL    HW2 7977   0.389   2.724  11.039
 2412SOL     OW 7978   1.525   2.135   9.441
 2412SOL    HW1 7979   1.461   2.068   9.466
 2412SOL    HW2 7980   1.557   2.171   9.524
 2413SOL     OW 7981   1.287   2.686   9.338
 2413SOL    HW1 7982   1.329   2.601   9.343
 2413SOL    HW2 7983   1.319   2.725   9.256
 2414SOL     OW 7984   1.070   3.201  10.167
 2414SOL    HW1 7985   1.075   3.129  10.103
 2414SOL    HW2 7986   1.127   3.269  10.131
 2415SOL     OW 7987   0.318   2.672  10.250
 2415SOL    HW1 7988   0.412   2.689  10.251
 2415SOL    HW2 7989   0.311   2.579  10.274
 2416SOL     OW 7990   0.323   2.389  10.295
 2416SOL    HW1 7991   0.285   2.302  10.281
 2416SOL    HW2 7992   0.403   2.388  10.242
 2417SOL     OW 7993   1.158   2.063  10.785
 2417SOL    HW1 7994   1.176   2.115  10.863
 2417SOL    HW2 7995   1.200   2.111  10.713
 2418SOL     OW 7996   4.491   3.180   9.522
 2418SOL    HW1 7997   4.399   3.198   9.504
 2418SOL    HW2 7998   4.494   3.087   9.543
 2419SOL     OW 7999   0.104   3.626  10.251
 2419SOL    HW1 8000   0.063   3.586  10.174
 2419SOL    HW2 8001   0.191   3.652  10.221
 2420SOL     OW 8002   0.493   3.437  10.217
 2420SOL    HW1 8003   0.561   3.500  10.240
 2420SOL    HW2 8004   0.536   3.375  10.158
 2421SOL     OW 8005   0.973   2.652  10.533
 2421SOL    HW1 8006   1.032   2.636  10.607
 2421SOL    HW2 8007   0.891   2.608  10.557
 2422SOL     OW 8008   0.022   2.419  10.393
 2422SOL    HW1 8009   0.115   2.405  10.379
 2422SOL    HW2 8010   0.004   2.383  10.480
 2423SOL     OW 8011   0.819   2.432   9.677
 2423SOL    HW1 8012   0.824   2.358   9.616
 2423SOL    HW2 8013   0.745   2.483   9.645
 2424SOL     OW 8014   1.642   2.468  10.490
 2424SOL    HW1 8015   1.636   2.411  10.566
 2424SOL    HW2 8016   1.731   2.455  10.457
 2425SOL     OW 8017   0.260   3.438  11.049
 2425SOL    HW1 8018   0.205   3.453   0.025
 2425SOL    HW2 8019   0.244   3.346  11.025
 2426SOL     OW 8020   0.714   2.307  10.562
 2426SOL    HW1 8021   0.655   2.236  10.539
 2426SOL    HW2 8022   0.704   2.370  10.491
 2427SOL     OW 8023   0.938   3.542  10.752
 2427SOL    HW1 8024   0.906   3.504  10.670
 2427SOL    HW2 8025   0.920   3.635  10.744
 2428SOL     OW 8026   0.469   2.351   9.485
 2428SOL    HW1 8027   0.531   2.419   9.512
 2428SOL    HW2 8028   0.386   2.398   9.472
 2429SOL     OW 8029   0.162   3.010  10.759
 2429SOL    HW1 8030   0.136   2.974  10.844
 2429SOL    HW2 8031   0.166   2.934  10.701
 2430SOL     OW 8032   1.319   2.913  10.537
 2430SOL    HW1 8033   1.343   2.847  10.472
 2430SOL    HW2 8034   1.254   2.969  10.493
 2431SOL     OW 8035   1.316   2.720   9.613
 2431SOL    HW1 8036   1.243   2.687   9.665
 2431SOL    HW2 8037   1.289   2.706   9.522
 2432SOL     OW 8038   1.783   3.600  10.466
 2432SOL    HW1 8039   1.842   3.625  10.395
 2432SOL    HW2 8040   1.755   3.511  10.443
 2433SOL     OW 8041   1.239   3.596  10.415
 2433SOL    HW1 8042   1.322   3.621  10.374
 2433SOL    HW2 8043   1.249   3.503  10.435
 2434SOL     OW 8044   0.074   3.051  10.362
 2434SOL    HW1 8045   0.055   3.080  10.451
 2434SOL    HW2 8046   0.043   3.122  10.306
 2435SOL     OW 8047   1.702   2.015   9.838
 2435SOL    HW1 8048   1.759   1.996   9.763
 2435SOL    HW2 8049   1.686   1.930   9.878
 2436SOL     OW 8050   1.393   3.430   9.801
 2436SOL    HW1 8051   1.451   3.464   9.733
 2436SOL    HW2 8052   1.342   3.506   9.829
 2437SOL     OW 8053   1.278   2.790   9.981
 2437SOL    HW1 8054   1.352   2.730   9.990
 2437SOL    HW2 8055   1.313   2.862   9.927
 2438SOL     OW 8056   0.808   3.140  10.733
 2438SOL    HW1 8057   0.778   3.175  10.816
 2438SOL    HW2 8058   0.737   3.160  10.671
 2439SOL     OW 8059   0.672   3.488   9.465
 2439SOL    HW1 8060   0.684   3.502   9.371
 2439SOL    HW2 8061   0.617   3.410   9.472
 2440SOL     OW 8062   1.613   3.586  10.687
 2440SOL    HW1 8063   1.675   3.598  10.614
 2440SOL    HW2 8064   1.600   3.674  10.722
 2441SOL     OW 8065   1.815   2.032  10.285
 2441SOL    HW1 8066   1.862   1.952  10.262
 2441SOL    HW2 8067   1.735   2.029  10.232
 2442SOL     OW 8068   0.259   2.179  10.025
 2442SOL    HW1 8069   0.176   2.220  10.000
 2442SOL    HW2 8070   0.252   2.166  10.120
 2443SOL     OW 8071   1.208   3.463   9.343
 2443SOL    HW1 8072   1.197   3.372   9.370
 2443SOL    HW2 8073   1.142   3.477   9.276
 2444SOL     OW 8074   0.830   2.870  10.692
 2444SOL    HW1 8075   0.871   2.858  10.606
 2444SOL    HW2 8076   0.824   2.965  10.703
 2445SOL     OW 8077   0.917   2.773   9.601
 2445SOL    HW1 8078   0.976   2.806   9.534
 2445SOL    HW2 8079   0.966   2.705   9.647
 2446SOL     OW 8080   1.488   3.491   9.355
 2446SOL    HW1 8081   1.395   3.481   9.340
 2446SOL    HW2 8082   1.527   3.497   9.268
 2447SOL     OW 8083   0.360   3.188  10.810
 2447SOL    HW1 8084   0.349   3.260  10.749
 2447SOL    HW2 8085   0.294   3.124  10.785
 2448SOL     OW 8086   1.613   3.144  10.594
 2448SOL    HW1 8087   1.666   3.122  10.671
 2448SOL    HW2 8088   1.555   3.214  10.624
 2449SOL     OW 8089   1.062   2.973  10.021
 2449SOL    HW1 8090   0.989   2.923  10.057
 2449SOL    HW2 8091   1.125   2.906   9.994
 2450SOL     OW 8092   1.024   2.104  10.276
 2450SOL    HW1 8093   1.020   2.058  10.193
 2450SOL    HW2 8094   1.019   2.035  10.342
 2451SOL     OW 8095   0.607   3.350   9.792
 2451SOL    HW1 8096   0.655   3.302   9.725
 2451SOL    HW2 8097   0.526   3.378   9.749
 2452SOL     OW 8098   1.728   2.267  10.689
 2452SOL    HW1 8099   1.812   2.313  10.691
 2452SOL    HW2 8100   1.743   2.190  10.635
 2453SOL     OW 8101   0.254   3.205   9.583
 2453SOL    HW1 8102   0.159   3.199   9.571
 2453SOL    HW2 8103   0.265   3.238   9.672
 2454SOL     OW 8104   0.114   2.887  10.997
 2454SOL    HW1 8105   0.060   2.903  11.074
 2454SOL    HW2 8106   0.201   2.866  11.033
 2455SOL     OW 8107   0.679   2.058  10.800
 2455SOL    HW1 8108   0.762   2.033  10.758
 2455SOL    HW2 8109   0.705   2.095  10.884
 2456SOL     OW 8110   0.074   2.190   9.337
 2456SOL    HW1 8111   4.483   2.206   9.361
 2456SOL    HW2 8112   0.102   2.270   9.293
 2457SOL     OW 8113   1.424   2.713  10.708
 2457SOL    HW1 8114   1.376   2.782  10.662
 2457SOL    HW2 8115   1.513   2.721  10.675
 2458SOL     OW 8116   0.087   2.033   9.611
 2458SOL    HW1 8117   0.082   2.111   9.556
 2458SOL    HW2 8118   0.162   1.985   9.576
 2459SOL     OW 8119   1.178   3.196   9.428
 2459SOL    HW1 8120   1.086   3.167   9.428
 2459SOL    HW2 8121   1.203   3.197   9.520
 2460SOL     OW 8122   0.632   2.691  10.745
 2460SOL    HW1 8123   0.689   2.766  10.732
 2460SOL    HW2 8124   0.691   2.615  10.744
 2461SOL     OW 8125   1.482   3.647  10.292
 2461SOL    HW1 8126   1.505   3.714  10.228
 2461SOL    HW2 8127   1.566   3.619  10.329
 2462SOL     OW 8128   0.715   2.431  11.012
 2462SOL    HW1 8129   0.763   2.494  11.064
 2462SOL    HW2 8130   0.750   2.346  11.037
 2463SOL     OW 8131   0.381   3.611  10.879
 2463SOL    HW1 8132   0.304   3.665  10.867
 2463SOL    HW2 8133   0.353   3.542  10.940
 2464SOL     OW 8134   1.666   2.744  10.569
 2464SOL    HW1 8135   1.659   2.659  10.526
 2464SOL    HW2 8136   1.656   2.807  10.498
 2465SOL     OW 8137   1.216   2.183   9.768
 2465SOL    HW1 8138   1.276   2.109   9.762
 2465SOL    HW2 8139   1.246   2.232   9.844
 2466SOL     OW 8140   0.588   2.596   9.982
 2466SOL    HW1 8141   0.626   2.682   9.968
 2466SOL    HW2 8142   0.522   2.587   9.913
 2467SOL     OW 8143   1.711   2.161  10.952
 2467SOL    HW1 8144   1.710   2.215  10.873
 2467SOL    HW2 8145   1.642   2.198  11.007
 2468SOL     OW 8146   1.760   2.797  10.824
 2468SOL    HW1 8147   1.745   2.890  10.839
 2468SOL    HW2 8148   1.735   2.784  10.732
 2469SOL     OW 8149   0.866   3.226   9.354
 2469SOL    HW1 8150   0.827   3.253   9.437
 2469SOL    HW2 8151   0.879   3.308   9.306
 2470SOL     OW 8152   0.665   3.645  10.249
 2470SOL    HW1 8153   0.645   3.737  10.229
 2470SOL    HW2 8154   0.760   3.639  10.241
 2471SOL     OW 8155   0.870   2.834  10.163
 2471SOL    HW1 8156   0.919   2.760  10.200
 2471SOL    HW2 8157   0.831   2.877  10.239
 2472SOL     OW 8158   1.077   2.851   9.399
 2472SOL    HW1 8159   1.056   2.902   9.321
 2472SOL    HW2 8160   1.151   2.796   9.372
 2473SOL     OW 8161   1.847   3.414  10.151
 2473SOL    HW1 8162   1.767   3.403  10.100
 2473SOL    HW2 8163   1.838   3.352  10.224
 2474SOL     OW 8164   0.128   3.089   9.978
 2474SOL    HW1 8165   0.146   3.049  10.063
 2474SOL    HW2 8166   0.181   3.040   9.916
 2475SOL     OW 8167   0.682   3.262  10.944
 2475SOL    HW1 8168   0.615   3.208  10.987
 2475SOL    HW2 8169   0.634   3.339  10.914
 2476SOL     OW 8170   1.757   2.035  10.547
 2476SOL    HW1 8171   1.782   1.943  10.561
 2476SOL    HW2 8172   1.778   2.051  10.455
 2477SOL     OW 8173   0.435   2.293   9.834
 2477SOL    HW1 8174   0.461   2.220   9.779
 2477SOL    HW2 8175   0.383   2.253   9.905
 2478SOL     OW 8176   1.699   3.348  10.401
 2478SOL    HW1 8177   1.620   3.327  10.353
 2478SOL    HW2 8178   1.706   3.280  10.468
 2479SOL     OW 8179   0.292   2.357  10.564
 2479SOL    HW1 8180   0.363   2.309  10.607
 2479SOL    HW2 8181   0.321   2.368  10.473
 2480SOL     OW 8182   0.832   3.441   9.985
 2480SOL    HW1 8183   0.810   3.506   9.918
 2480SOL    HW2 8184   0.757   3.381   9.986
 2481SOL     OW 8185   1.429   2.094  10.426
 2481SOL    HW1 8186   1.459   2.013  10.468
 2481SOL    HW2 8187   1.380   2.140  10.493
 2482SOL     OW 8188   1.009   1.878  10.444
 2482SOL    HW1 8189   0.955   1.813  10.399
 2482SOL    HW2 8190   1.096   1.840  10.447
 2483SOL     OW 8191   0.775   3.196   9.631
 2483SOL    HW1 8192   0.748   3.105   9.639
 2483SOL    HW2 8193   0.856   3.201   9.681
 2484SOL     OW 8194   0.621   3.415  10.602
 2484SOL    HW1 8195   0.619   3.500  10.646
 2484SOL    HW2 8196   0.708   3.411  10.562
 2485SOL     OW 8197   1.358   1.913   9.482
 2485SOL    HW1 8198   1.391   1.844   9.425
 2485SOL    HW2 8199   1.268   1.886   9.503
 2486SOL     OW 8200   1.299   2.327   9.990
 2486SOL    HW1 8201   1.245   2.406   9.991
 2486SOL    HW2 8202   1.289   2.289  10.077
 2487SOL     OW 8203   1.565   2.050  10.181
 2487SOL    HW1 8204   1.518   2.077  10.260
 2487SOL    HW2 8205   1.570   2.130  10.128
 2488SOL     OW 8206   0.038   2.911   9.605
 2488SOL    HW1 8207   0.129   2.885   9.592
 2488SOL    HW2 8208   0.020   2.888   9.697
 2489SOL     OW 8209   0.890   3.523   9.648
 2489SOL    HW1 8210   0.815   3.507   9.590
 2489SOL    HW2 8211   0.862   3.595   9.704
 2490SOL     OW 8212   0.196   4.287   0.093
 2490SOL    HW1 8213   0.136   4.301   0.165
 2490SOL    HW2 8214   0.226   4.374   0.068
 2491SOL     OW 8215   0.209   3.989   0.989
 2491SOL    HW1 8216   0.243   3.963   1.075
 2491SOL    HW2 8217   0.132   3.933   0.975
 2492SOL     OW 8218   4.494   4.103   0.625
 2492SOL    HW1 8219   4.406   4.127   0.656
 2492SOL    HW2 8220   4.484   4.013   0.593
 2493SOL     OW 8221   1.721   4.330   0.240
 2493SOL    HW1 8222   1.754   4.318   0.150
 2493SOL    HW2 8223   1.711   4.241   0.273
 2494SOL     OW 8224   0.735   0.280   0.686
 2494SOL    HW1 8225   0.723   0.212   0.751
 2494SOL    HW2 8226   0.652   0.283   0.638
 2495SOL     OW 8227   0.452   4.113   1.487
 2495SOL    HW1 8228   0.533   4.061   1.485
 2495SOL    HW2 8229   0.382   4.048   1.496
 2496SOL     OW 8230   1.613   4.167   0.745
 2496SOL    HW1 8231   1.564   4.199   0.669
 2496SOL    HW2 8232   1.587   4.225   0.816
 2497SOL     OW 8233   1.596   3.851   1.465
 2497SOL    HW1 8234   1.618   3.931   1.418
 2497SOL    HW2 8235   1.575   3.880   1.554
 2498SOL     OW 8236   0.149   4.325   0.646
 2498SOL    HW1 8237   0.092   4.249   0.634
 2498SOL    HW2 8238   0.111   4.392   0.589
 2499SOL     OW 8239   0.140   0.002   1.585
 2499SOL    HW1 8240   0.233   4.482   1.575
 2499SOL    HW2 8241   0.130   0.091   1.552
 2500SOL     OW 8242   0.825   3.732   0.516
 2500SOL    HW1 8243   0.862   3.817   0.495
 2500SOL    HW2 8244   0.730   3.747   0.520
 2501SOL     OW 8245   0.328   3.979   1.808
 2501SOL    HW1 8246   0.366   4.061   1.841
 2501SOL    HW2 8247   0.236   3.984   1.835
 2502SOL     OW 8248   1.277   4.085   0.935
 2502SOL    HW1 8249   1.188   4.051   0.944
 2502SOL    HW2 8250   1.329   4.030   0.994
 2503SOL     OW 8251   0.837   4.285   1.439
 2503SOL    HW1 8252   0.798   4.291   1.526
 2503SOL    HW2 8253   0.765   4.260   1.382
 2504SOL     OW 8254   1.393   4.200   1.677
 2504SOL    HW1 8255   1.399   4.246   1.761
 2504SOL    HW2 8256   1.448   4.122   1.688
 2505SOL     OW 8257   1.002   4.160   1.233
 2505SOL    HW1 8258   0.939   4.187   1.300
 2505SOL    HW2 8259   0.952   4.103   1.174
 2506SOL     OW 8260   1.059   4.408   0.412
 2506SOL    HW1 8261   1.053   4.471   0.483
 2506SOL    HW2 8262   0.969   4.382   0.394
 2507SOL     OW 8263   0.064   0.089   0.855
 2507SOL    HW1 8264   0.145   0.041   0.869
 2507SOL    HW2 8265   0.043   0.075   0.762
 2508SOL     OW 8266   0.894   4.074   0.209
 2508SOL    HW1 8267   0.935   4.135   0.148
 2508SOL    HW2 8268   0.906   3.988   0.169
 2509SOL     OW 8269   1.716   4.304   1.834
 2509SOL    HW1 8270   1.738   4.388   1.795
 2509SOL    HW2 8271   1.733   4.240   1.765
 2510SOL     OW 8272   0.554   3.898   0.896
 2510SOL    HW1 8273   0.556   3.930   0.986
 2510SOL    HW2 8274   0.547   3.976   0.842
 2511SOL     OW 8275   1.490   4.471   0.742
 2511SOL    HW1 8276   1.481   4.413   0.818
 2511SOL    HW2 8277   1.533   0.049   0.777
 2512SOL     OW 8278   0.188   4.002   1.483
 2512SOL    HW1 8279   0.145   4.085   1.500
 2512SOL    HW2 8280   0.180   3.953   1.564
 2513SOL     OW 8281   1.401   3.827   0.436
 2513SOL    HW1 8282   1.396   3.808   0.343
 2513SOL    HW2 8283   1.495   3.837   0.454
 2514SOL     OW 8284   0.342   4.381   0.403
 2514SOL    HW1 8285   0.383   4.305   0.443
 2514SOL    HW2 8286   0.311   4.434   0.477
 2515SOL     OW 8287   1.526   3.949   1.723
 2515SOL    HW1 8288   1.536   3.969   1.816
 2515SOL    HW2 8289   1.459   3.882   1.721
 2516SOL     OW 8290   0.621   3.834   0.122
 2516SOL    HW1 8291   0.706   3.790   0.119
 2516SOL    HW2 8292   0.576   3.802   0.044
 2517SOL     OW 8293   0.763   4.000   1.755
 2517SOL    HW1 8294   0.844   3.950   1.751
 2517SOL    HW2 8295   0.717   3.967   1.832
 2518SOL     OW 8296   1.336   4.316   1.433
 2518SOL    HW1 8297   1.359   4.279   1.518
 2518SOL    HW2 8298   1.392   4.394   1.426
 2519SOL     OW 8299   0.930   4.227   0.897
 2519SOL    HW1 8300   0.905   4.213   0.805
 2519SOL    HW2 8301   0.969   4.144   0.924
 2520SOL     OW 8302   0.560   3.787   0.498
 2520SOL    HW1 8303   0.479   3.783   0.548
 2520SOL    HW2 8304   0.551   3.866   0.444
 2521SOL     OW 8305   0.283   3.772   0.189
 2521SOL    HW1 8306   0.329   3.824   0.123
 2521SOL    HW2 8307   0.348   3.709   0.220
 2522SOL     OW 8308   0.943   3.980   0.463
 2522SOL    HW1 8309   0.919   4.016   0.377
 2522SOL    HW2 8310   1.038   3.992   0.468
 2523SOL     OW 8311   1.072   4.391   1.541
 2523SOL    HW1 8312   0.994   4.358   1.496
 2523SOL    HW2 8313   1.145   4.365   1.485
 2524SOL     OW 8314   1.010   4.261   0.039
 2524SOL    HW1 8315   1.037   4.298  11.055
 2524SOL    HW2 8316   1.089   4.268   0.093
 2525SOL     OW 8317   0.072   4.256   1.386
 2525SOL    HW1 8318   0.160   4.266   1.350
 2525SOL    HW2 8319   0.051   4.340   1.425
 2526SOL     OW 8320   0.558   3.952   1.168
 2526SOL    HW1 8321   0.601   3.877   1.210
 2526SOL    HW2 8322   0.466   3.945   1.195
 2527SOL     OW 8323   0.865   4.191   0.638
 2527SOL    HW1 8324   0.848   4.261   0.575
 2527SOL    HW2 8325   0.886   4.114   0.585
 2528SOL     OW 8326   1.017   3.777   0.746
 2528SOL    HW1 8327   0.957   3.771   0.671
 2528SOL    HW2 8328   0.994   3.703   0.801
 2529SOL     OW 8329   1.479   4.303   0.955
 2529SOL    HW1 8330   1.409   4.241   0.974
 2529SOL    HW2 8331   1.526   4.312   1.038
 2530SOL     OW 8332   1.404   4.290   0.076
 2530SOL    HW1 8333   1.334   4.272   0.140
 2530SOL    HW2 8334   1.459   4.212   0.078
 2531SOL     OW 8335   0.529   3.993   0.323
 2531SOL    HW1 8336   0.560   3.933   0.255
 2531SOL    HW2 8337   0.504   4.072   0.276
 2532SOL     OW 8338   0.917   3.819   1.390
 2532SOL    HW1 8339   0.941   3.797   1.300
 2532SOL    HW2 8340   0.997   3.857   1.427
 2533SOL     OW 8341   0.455   0.007   1.277
 2533SOL    HW1 8342   0.514   4.494   1.351
 2533SOL    HW2 8343   0.421   4.419   1.258
 2534SOL     OW 8344   1.265   4.099   1.281
 2534SOL    HW1 8345   1.297   4.177   1.327
 2534SOL    HW2 8346   1.176   4.122   1.254
 2535SOL     OW 8347   0.550   4.245   0.865
 2535SOL    HW1 8348   0.570   4.271   0.774
 2535SOL    HW2 8349   0.619   4.287   0.917
 2536SOL     OW 8350   1.570   4.327   0.492
 2536SOL    HW1 8351   1.538   4.397   0.550
 2536SOL    HW2 8352   1.617   4.373   0.423
 2537SOL     OW 8353   0.996   3.857   1.755
 2537SOL    HW1 8354   1.055   3.929   1.734
 2537SOL    HW2 8355   1.044   3.778   1.730
 2538SOL     OW 8356   0.494   3.766   1.751
 2538SOL    HW1 8357   0.450   3.710   1.686
 2538SOL    HW2 8358   0.436   3.842   1.760
 2539SOL     OW 8359   1.204   4.244   0.256
 2539SOL    HW1 8360   1.216   4.166   0.312
 2539SOL    HW2 8361   1.160   4.307   0.313
 2540SOL     OW 8362   0.297   3.919   1.244
 2540SOL    HW1 8363   0.254   3.947   1.325
 2540SOL    HW2 8364   0.283   3.824   1.241
 2541SOL     OW 8365   0.739   4.359   1.033
 2541SOL    HW1 8366   0.812   4.318   0.986
 2541SOL    HW2 8367   0.757   4.453   1.026
 2542SOL     OW 8368   1.755   0.124   1.847
 2542SOL    HW1 8369   1.680   0.147   1.792
 2542SOL    HW2 8370   1.722   0.134   1.937
 2543SOL     OW 8371   0.319   3.792   0.619
 2543SOL    HW1 8372   0.291   3.880   0.643
 2543SOL    HW2 8373   0.319   3.743   0.701
 2544SOL     OW 8374   1.620   4.091   0.360
 2544SOL    HW1 8375   1.652   4.026   0.422
 2544SOL    HW2 8376   1.591   4.164   0.414
 2545SOL     OW 8377   1.527   4.027   0.108
 2545SOL    HW1 8378   1.470   3.952   0.123
 2545SOL    HW2 8379   1.565   4.046   0.194
 2546SOL     OW 8380   0.323   0.011   0.900
 2546SOL    HW1 8381   0.400   0.067   0.909
 2546SOL    HW2 8382   0.344   4.433   0.952
 2547SOL     OW 8383   0.327   4.235   1.015
 2547SOL    HW1 8384   0.282   4.153   0.992
 2547SOL    HW2 8385   0.404   4.237   0.957
 2548SOL     OW 8386   1.138   4.089   1.689
 2548SOL    HW1 8387   1.084   4.148   1.742
 2548SOL    HW2 8388   1.222   4.134   1.680
 2549SOL     OW 8389   1.160   3.921   1.470
 2549SOL    HW1 8390   1.150   3.982   1.543
 2549SOL    HW2 8391   1.203   3.973   1.402
 2550SOL     OW 8392   0.012   4.265   1.087
 2550SOL    HW1 8393   0.105   4.271   1.064
 2550SOL    HW2 8394   0.011   4.239   1.179
 2551SOL     OW 8395   0.167   4.234   1.673
 2551SOL    HW1 8396   0.262   4.222   1.664
 2551SOL    HW2 8397   0.150   4.323   1.642
 2552SOL     OW 8398   0.814   4.313   0.327
 2552SOL    HW1 8399   0.827   4.226   0.288
 2552SOL    HW2 8400   0.722   4.313   0.356
 2553SOL     OW 8401   1.632   4.311   1.181
 2553SOL    HW1 8402   1.631   4.254   1.258
 2553SOL    HW2 8403   1.721   4.304   1.147
 2554SOL     OW 8404   0.667   4.196   1.248
 2554SOL    HW1 8405   0.633   4.113   1.216
 2554SOL    HW2 8406   0.682   4.248   1.169
 2555SOL     OW 8407   0.463   4.211   0.173
 2555SOL    HW1 8408   0.514   4.291   0.175
 2555SOL    HW2 8409   0.372   4.241   0.176
 2556SOL     OW 8410   0.925   3.815   0.092
 2556SOL    HW1 8411   0.968   3.776   0.016
 2556SOL    HW2 8412   0.968   3.774   0.167
 2557SOL     OW 8413   1.725   3.879   0.508
 2557SOL    HW1 8414   1.794   3.864   0.443
 2557SOL    HW2 8415   1.709   3.792   0.545
 2558SOL     OW 8416   1.277   0.132   0.675
 2558SOL    HW1 8417   1.335   0.063   0.707
 2558SOL    HW2 8418   1.322   0.167   0.598
 2559SOL     OW 8419   1.841   3.893   0.966
 2559SOL    HW1 8420   1.869   3.805   0.940
 2559SOL    HW2 8421   1.754   3.903   0.926
 2560SOL     OW 8422   0.268   4.040   0.720
 2560SOL    HW1 8423   0.192   4.093   0.693
 2560SOL    HW2 8424   0.255   4.024   0.813
 2561SOL     OW 8425   1.061   0.286   0.748
 2561SOL    HW1 8426   0.992   0.279   0.681
 2561SOL    HW2 8427   1.131   0.228   0.717
 2562SOL     OW 8428   1.025   3.964   0.961
 2562SOL    HW1 8429   1.021   3.914   0.879
 2562SOL    HW2 8430   1.018   3.897   1.029
 2563SOL     OW 8431   1.727   4.113   1.382
 2563SOL    HW1 8432   1.798   4.177   1.380
 2563SOL    HW2 8433   1.757   4.043   1.323
 2564SOL     OW 8434   0.676   3.922   1.498
 2564SOL    HW1 8435   0.760   3.898   1.458
 2564SOL    HW2 8436   0.699   3.952   1.586
 2565SOL     OW 8437   0.064   4.065  11.099
 2565SOL    HW1 8438   4.475   4.075   0.032
 2565SOL    HW2 8439   0.107   4.148   0.021
 2566SOL     OW 8440   0.081   3.893   0.315
 2566SOL    HW1 8441   0.075   3.970   0.258
 2566SOL    HW2 8442   0.155   3.843   0.279
 2567SOL     OW 8443   0.725   4.271   1.689
 2567SOL    HW1 8444   0.721   4.320   1.771
 2567SOL    HW2 8445   0.740   4.180   1.716
 2568SOL     OW 8446   1.216   4.037   0.453
 2568SOL    HW1 8447   1.279   3.965   0.447
 2568SOL    HW2 8448   1.244   4.087   0.530
 2569SOL     OW 8449   1.752   4.093   1.655
 2569SOL    HW1 8450   1.741   4.106   1.561
 2569SOL    HW2 8451   1.681   4.035   1.681
 2570SOL     OW 8452   1.102   0.207   0.046
 2570SOL    HW1 8453   1.090   0.298   0.019
 2570SOL    HW2 8454   1.186   0.182   0.007
 2571SOL     OW 8455   1.814   3.904   1.236
 2571SOL    HW1 8456   1.817   3.809   1.249
 2571SOL    HW2 8457   1.823   3.917   1.142
 2572SOL     OW 8458   0.449   4.162   0.535
 2572SOL    HW1 8459   0.474   4.089   0.479
 2572SOL    HW2 8460   0.392   4.124   0.602
 2573SOL     OW 8461   0.326   4.265   1.283
 2573SOL    HW1 8462   0.378   4.195   1.322
 2573SOL    HW2 8463   0.328   4.247   1.189
 2574SOL     OW 8464   1.429   3.951   1.117
 2574SOL    HW1 8465   1.446   3.867   1.159
 2574SOL    HW2 8466   1.380   4.001   1.182
 2575SOL     OW 8467   1.008   3.740   1.136
 2575SOL    HW1 8468   0.954   3.674   1.093
 2575SOL    HW2 8469   1.096   3.702   1.138
 2576SOL     OW 8470   1.351   3.783   0.165
 2576SOL    HW1 8471   1.372   3.727   0.090
 2576SOL    HW2 8472   1.263   3.754   0.192
 2577SOL     OW 8473   1.295   4.172   0.676
 2577SOL    HW1 8474   1.277   4.265   0.687
 2577SOL    HW2 8475   1.295   4.137   0.765
 2578SOL     OW 8476   1.584   3.919   0.882
 2578SOL    HW1 8477   1.529   3.946   0.956
 2578SOL    HW2 8478   1.585   3.995   0.824
 2579SOL     OW 8479   0.217   4.269   1.970
 2579SOL    HW1 8480   0.158   4.289   2.043
 2579SOL    HW2 8481   0.202   4.339   1.907
 2580SOL     OW 8482   0.209   3.989   2.851
 2580SOL    HW1 8483   0.243   3.963   2.936
 2580SOL    HW2 8484   0.132   3.934   2.838
 2581SOL     OW 8485   4.494   4.105   2.490
 2581SOL    HW1 8486   4.407   4.131   2.519
 2581SOL    HW2 8487   4.481   4.018   2.451
 2582SOL     OW 8488   1.714   4.336   2.105
 2582SOL    HW1 8489   1.723   4.330   2.010
 2582SOL    HW2 8490   1.722   4.246   2.136
 2583SOL     OW 8491   0.726   0.282   2.546
 2583SOL    HW1 8492   0.714   0.215   2.614
 2583SOL    HW2 8493   0.641   0.289   2.503
 2584SOL     OW 8494   0.452   4.113   3.349
 2584SOL    HW1 8495   0.533   4.061   3.347
 2584SOL    HW2 8496   0.382   4.048   3.358
 2585SOL     OW 8497   1.611   4.165   2.606
 2585SOL    HW1 8498   1.559   4.196   2.532
 2585SOL    HW2 8499   1.588   4.224   2.678
 2586SOL     OW 8500   1.596   3.851   3.327
 2586SOL    HW1 8501   1.618   3.932   3.280
 2586SOL    HW2 8502   1.575   3.880   3.415
 2587SOL     OW 8503   0.151   4.327   2.508
 2587SOL    HW1 8504   0.094   4.251   2.496
 2587SOL    HW2 8505   0.113   4.395   2.454
 2588SOL     OW 8506   0.140   0.002   3.447
 2588SOL    HW1 8507   0.233   4.483   3.438
 2588SOL    HW2 8508   0.130   0.091   3.414
 2589SOL     OW 8509   0.824   3.729   2.377
 2589SOL    HW1 8510   0.864   3.813   2.352
 2589SOL    HW2 8511   0.730   3.747   2.381
 2590SOL     OW 8512   0.328   3.980   3.670
 2590SOL    HW1 8513   0.366   4.061   3.702
 2590SOL    HW2 8514   0.236   3.984   3.697
 2591SOL     OW 8515   1.277   4.083   2.797
 2591SOL    HW1 8516   1.188   4.050   2.806
 2591SOL    HW2 8517   1.329   4.029   2.856
 2592SOL     OW 8518   0.838   4.285   3.301
 2592SOL    HW1 8519   0.798   4.291   3.388
 2592SOL    HW2 8520   0.765   4.260   3.244
 2593SOL     OW 8521   1.393   4.200   3.539
 2593SOL    HW1 8522   1.399   4.246   3.623
 2593SOL    HW2 8523   1.448   4.122   3.550
 2594SOL     OW 8524   1.002   4.161   3.094
 2594SOL    HW1 8525   0.940   4.187   3.162
 2594SOL    HW2 8526   0.952   4.103   3.037
 2595SOL     OW 8527   1.054   4.415   2.269
 2595SOL    HW1 8528   1.046   4.466   2.349
 2595SOL    HW2 8529   0.971   4.368   2.261
 2596SOL     OW 8530   0.065   0.091   2.715
 2596SOL    HW1 8531   0.146   0.043   2.730
 2596SOL    HW2 8532   0.042   0.071   2.624
 2597SOL     OW 8533   0.899   4.067   2.050
 2597SOL    HW1 8534   0.938   4.131   1.991
 2597SOL    HW2 8535   0.911   3.983   2.006
 2598SOL     OW 8536   1.716   4.304   3.696
 2598SOL    HW1 8537   1.738   4.389   3.657
 2598SOL    HW2 8538   1.734   4.241   3.627
 2599SOL     OW 8539   0.554   3.898   2.758
 2599SOL    HW1 8540   0.555   3.930   2.849
 2599SOL    HW2 8541   0.547   3.978   2.705
 2600SOL     OW 8542   1.494   4.471   2.602
 2600SOL    HW1 8543   1.484   4.413   2.677
 2600SOL    HW2 8544   1.536   0.050   2.638
 2601SOL     OW 8545   0.188   4.002   3.345
 2601SOL    HW1 8546   0.145   4.086   3.362
 2601SOL    HW2 8547   0.180   3.954   3.427
 2602SOL     OW 8548   1.399   3.828   2.302
 2602SOL    HW1 8549   1.392   3.803   2.209
 2602SOL    HW2 8550   1.493   3.838   2.317
 2603SOL     OW 8551   0.345   4.386   2.263
 2603SOL    HW1 8552   0.380   4.307   2.303
 2603SOL    HW2 8553   0.313   4.438   2.336
 2604SOL     OW 8554   1.526   3.949   3.585
 2604SOL    HW1 8555   1.537   3.969   3.678
 2604SOL    HW2 8556   1.459   3.881   3.583
 2605SOL     OW 8557   0.644   3.842   1.962
 2605SOL    HW1 8558   0.701   3.767   1.983
 2605SOL    HW2 8559   0.591   3.811   1.888
 2606SOL     OW 8560   0.763   4.000   3.617
 2606SOL    HW1 8561   0.844   3.950   3.613
 2606SOL    HW2 8562   0.717   3.967   3.695
 2607SOL     OW 8563   1.336   4.316   3.295
 2607SOL    HW1 8564   1.359   4.279   3.380
 2607SOL    HW2 8565   1.391   4.394   3.288
 2608SOL     OW 8566   0.929   4.227   2.754
 2608SOL    HW1 8567   0.905   4.212   2.663
 2608SOL    HW2 8568   0.967   4.145   2.783
 2609SOL     OW 8569   0.559   3.788   2.355
 2609SOL    HW1 8570   0.479   3.785   2.407
 2609SOL    HW2 8571   0.549   3.865   2.298
 2610SOL     OW 8572   0.295   3.768   2.038
 2610SOL    HW1 8573   0.357   3.833   2.006
 2610SOL    HW2 8574   0.349   3.703   2.083
 2611SOL     OW 8575   0.943   3.975   2.316
 2611SOL    HW1 8576   0.919   4.010   2.230
 2611SOL    HW2 8577   1.037   3.990   2.323
 2612SOL     OW 8578   1.072   4.390   3.404
 2612SOL    HW1 8579   0.994   4.358   3.358
 2612SOL    HW2 8580   1.145   4.366   3.347
 2613SOL     OW 8581   1.028   4.258   1.892
 2613SOL    HW1 8582   1.014   4.347   1.859
 2613SOL    HW2 8583   1.092   4.269   1.962
 2614SOL     OW 8584   0.072   4.255   3.248
 2614SOL    HW1 8585   0.160   4.266   3.212
 2614SOL    HW2 8586   0.051   4.340   3.287
 2615SOL     OW 8587   0.558   3.952   3.030
 2615SOL    HW1 8588   0.601   3.878   3.073
 2615SOL    HW2 8589   0.466   3.944   3.057
 2616SOL     OW 8590   0.867   4.187   2.495
 2616SOL    HW1 8591   0.841   4.250   2.427
 2616SOL    HW2 8592   0.888   4.107   2.447
 2617SOL     OW 8593   1.017   3.777   2.607
 2617SOL    HW1 8594   0.958   3.771   2.532
 2617SOL    HW2 8595   0.993   3.703   2.663
 2618SOL     OW 8596   1.479   4.303   2.815
 2618SOL    HW1 8597   1.409   4.241   2.835
 2618SOL    HW2 8598   1.526   4.313   2.898
 2619SOL     OW 8599   1.406   4.297   1.936
 2619SOL    HW1 8600   1.343   4.266   2.000
 2619SOL    HW2 8601   1.489   4.257   1.962
 2620SOL     OW 8602   0.529   3.987   2.170
 2620SOL    HW1 8603   0.577   3.941   2.101
 2620SOL    HW2 8604   0.511   4.073   2.133
 2621SOL     OW 8605   0.917   3.819   3.252
 2621SOL    HW1 8606   0.941   3.798   3.162
 2621SOL    HW2 8607   0.997   3.857   3.289
 2622SOL     OW 8608   0.454   0.007   3.139
 2622SOL    HW1 8609   0.513   4.495   3.213
 2622SOL    HW2 8610   0.420   4.419   3.120
 2623SOL     OW 8611   1.264   4.099   3.143
 2623SOL    HW1 8612   1.297   4.177   3.188
 2623SOL    HW2 8613   1.176   4.122   3.115
 2624SOL     OW 8614   0.551   4.244   2.726
 2624SOL    HW1 8615   0.569   4.272   2.636
 2624SOL    HW2 8616   0.619   4.286   2.778
 2625SOL     OW 8617   1.565   4.328   2.354
 2625SOL    HW1 8618   1.546   4.396   2.419
 2625SOL    HW2 8619   1.622   4.372   2.290
 2626SOL     OW 8620   0.996   3.857   3.617
 2626SOL    HW1 8621   1.055   3.929   3.596
 2626SOL    HW2 8622   1.044   3.778   3.592
 2627SOL     OW 8623   0.494   3.766   3.613
 2627SOL    HW1 8624   0.450   3.710   3.548
 2627SOL    HW2 8625   0.436   3.842   3.622
 2628SOL     OW 8626   1.206   4.250   2.120
 2628SOL    HW1 8627   1.216   4.171   2.173
 2628SOL    HW2 8628   1.159   4.311   2.176
 2629SOL     OW 8629   0.297   3.919   3.106
 2629SOL    HW1 8630   0.254   3.947   3.187
 2629SOL    HW2 8631   0.283   3.824   3.103
 2630SOL     OW 8632   0.739   4.359   2.894
 2630SOL    HW1 8633   0.811   4.318   2.847
 2630SOL    HW2 8634   0.757   4.453   2.889
 2631SOL     OW 8635   1.755   0.123   3.709
 2631SOL    HW1 8636   1.680   0.146   3.653
 2631SOL    HW2 8637   1.722   0.133   3.798
 2632SOL     OW 8638   0.320   3.791   2.479
 2632SOL    HW1 8639   0.291   3.879   2.503
 2632SOL    HW2 8640   0.320   3.742   2.561
 2633SOL     OW 8641   1.615   4.089   2.226
 2633SOL    HW1 8642   1.650   4.028   2.291
 2633SOL    HW2 8643   1.587   4.165   2.277
 2634SOL     OW 8644   1.520   3.999   1.987
 2634SOL    HW1 8645   1.459   3.930   2.014
 2634SOL    HW2 8646   1.558   4.031   2.069
 2635SOL     OW 8647   0.323   0.011   2.764
 2635SOL    HW1 8648   0.400   0.067   2.772
 2635SOL    HW2 8649   0.344   4.433   2.815
 2636SOL     OW 8650   0.328   4.234   2.877
 2636SOL    HW1 8651   0.283   4.153   2.854
 2636SOL    HW2 8652   0.404   4.236   2.819
 2637SOL     OW 8653   1.138   4.089   3.551
 2637SOL    HW1 8654   1.084   4.148   3.604
 2637SOL    HW2 8655   1.222   4.134   3.543
 2638SOL     OW 8656   1.160   3.921   3.332
 2638SOL    HW1 8657   1.150   3.982   3.405
 2638SOL    HW2 8658   1.203   3.973   3.264
 2639SOL     OW 8659   0.012   4.265   2.948
 2639SOL    HW1 8660   0.105   4.271   2.925
 2639SOL    HW2 8661   0.011   4.240   3.040
 2640SOL     OW 8662   0.167   4.234   3.535
 2640SOL    HW1 8663   0.262   4.223   3.526
 2640SOL    HW2 8664   0.150   4.323   3.504
 2641SOL     OW 8665   0.822   4.275   2.223
 2641SOL    HW1 8666   0.829   4.204   2.160
 2641SOL    HW2 8667   0.733   4.309   2.211
 2642SOL     OW 8668   1.632   4.311   3.041
 2642SOL    HW1 8669   1.631   4.254   3.119
 2642SOL    HW2 8670   1.721   4.304   3.008
 2643SOL     OW 8671   0.667   4.196   3.110
 2643SOL    HW1 8672   0.632   4.113   3.078
 2643SOL    HW2 8673   0.682   4.248   3.031
 2644SOL     OW 8674   0.478   4.227   2.048
 2644SOL    HW1 8675   0.496   4.307   2.097
 2644SOL    HW2 8676   0.387   4.235   2.021
 2645SOL     OW 8677   1.728   3.878   2.372
 2645SOL    HW1 8678   1.796   3.862   2.307
 2645SOL    HW2 8679   1.709   3.792   2.409
 2646SOL     OW 8680   1.279   0.133   2.538
 2646SOL    HW1 8681   1.338   0.063   2.566
 2646SOL    HW2 8682   1.326   0.176   2.467
 2647SOL     OW 8683   1.841   3.892   2.828
 2647SOL    HW1 8684   1.869   3.805   2.802
 2647SOL    HW2 8685   1.754   3.903   2.788
 2648SOL     OW 8686   0.266   4.039   2.580
 2648SOL    HW1 8687   0.189   4.088   2.554
 2648SOL    HW2 8688   0.255   4.024   2.674
 2649SOL     OW 8689   0.899   0.089   2.060
 2649SOL    HW1 8690   0.980   0.124   2.023
 2649SOL    HW2 8691   0.923   0.061   2.149
 2650SOL     OW 8692   1.066   0.287   2.617
 2650SOL    HW1 8693   1.003   0.292   2.545
 2650SOL    HW2 8694   1.133   0.226   2.585
 2651SOL     OW 8695   1.024   3.964   2.822
 2651SOL    HW1 8696   1.021   3.914   2.741
 2651SOL    HW2 8697   1.018   3.897   2.891
 2652SOL     OW 8698   1.727   4.113   3.244
 2652SOL    HW1 8699   1.798   4.178   3.242
 2652SOL    HW2 8700   1.757   4.044   3.185
 2653SOL     OW 8701   0.676   3.922   3.360
 2653SOL    HW1 8702   0.760   3.898   3.320
 2653SOL    HW2 8703   0.699   3.952   3.448
 2654SOL     OW 8704   0.065   4.045   1.912
 2654SOL    HW1 8705   4.477   4.074   1.889
 2654SOL    HW2 8706   0.115   4.126   1.921
 2655SOL     OW 8707   0.087   3.897   2.162
 2655SOL    HW1 8708   0.073   3.963   2.093
 2655SOL    HW2 8709   0.163   3.847   2.132
 2656SOL     OW 8710   0.725   4.271   3.551
 2656SOL    HW1 8711   0.722   4.320   3.633
 2656SOL    HW2 8712   0.740   4.180   3.578
 2657SOL     OW 8713   1.217   4.041   2.314
 2657SOL    HW1 8714   1.278   3.967   2.309
 2657SOL    HW2 8715   1.244   4.090   2.392
 2658SOL     OW 8716   1.753   4.093   3.517
 2658SOL    HW1 8717   1.741   4.106   3.423
 2658SOL    HW2 8718   1.681   4.035   3.543
 2659SOL     OW 8719   1.115   0.220   1.961
 2659SOL    HW1 8720   1.113   0.265   1.877
 2659SOL    HW2 8721   1.205   0.189   1.970
 2660SOL     OW 8722   1.813   3.905   3.098
 2660SOL    HW1 8723   1.818   3.810   3.111
 2660SOL    HW2 8724   1.822   3.917   3.004
 2661SOL     OW 8725   0.444   4.161   2.391
 2661SOL    HW1 8726   0.468   4.085   2.338
 2661SOL    HW2 8727   0.389   4.125   2.461
 2662SOL     OW 8728   0.326   4.265   3.145
 2662SOL    HW1 8729   0.378   4.195   3.184
 2662SOL    HW2 8730   0.329   4.247   3.051
 2663SOL     OW 8731   1.429   3.951   2.979
 2663SOL    HW1 8732   1.447   3.867   3.022
 2663SOL    HW2 8733   1.380   4.001   3.044
 2664SOL     OW 8734   1.008   3.740   2.998
 2664SOL    HW1 8735   0.954   3.675   2.955
 2664SOL    HW2 8736   1.096   3.702   3.000
 2665SOL     OW 8737   1.357   3.775   2.032
 2665SOL    HW1 8738   1.390   3.705   1.976
 2665SOL    HW2 8739   1.268   3.749   2.054
 2666SOL     OW 8740   1.296   4.173   2.539
 2666SOL    HW1 8741   1.275   4.266   2.552
 2666SOL    HW2 8742   1.295   4.136   2.627
 2667SOL     OW 8743   1.584   3.919   2.744
 2667SOL    HW1 8744   1.529   3.945   2.818
 2667SOL    HW2 8745   1.585   3.995   2.686
 2668SOL     OW 8746   0.217   4.269   3.832
 2668SOL    HW1 8747   0.158   4.289   3.905
 2668SOL    HW2 8748   0.202   4.340   3.769
 2669SOL     OW 8749   0.209   3.989   4.713
 2669SOL    HW1 8750   0.243   3.963   4.798
 2669SOL    HW2 8751   0.132   3.934   4.699
 2670SOL     OW 8752   4.494   4.105   4.352
 2670SOL    HW1 8753   4.407   4.131   4.381
 2670SOL    HW2 8754   4.481   4.019   4.312
 2671SOL     OW 8755   1.713   4.336   3.967
 2671SOL    HW1 8756   1.722   4.330   3.872
 2671SOL    HW2 8757   1.722   4.246   3.998
 2672SOL     OW 8758   0.726   0.282   4.408
 2672SOL    HW1 8759   0.713   0.215   4.475
 2672SOL    HW2 8760   0.641   0.288   4.364
 2673SOL     OW 8761   0.452   4.113   5.211
 2673SOL    HW1 8762   0.532   4.061   5.209
 2673SOL    HW2 8763   0.382   4.048   5.220
 2674SOL     OW 8764   1.611   4.166   4.468
 2674SOL    HW1 8765   1.559   4.196   4.394
 2674SOL    HW2 8766   1.589   4.225   4.539
 2675SOL     OW 8767   1.596   3.851   5.189
 2675SOL    HW1 8768   1.618   3.931   5.141
 2675SOL    HW2 8769   1.575   3.881   5.278
 2676SOL     OW 8770   0.152   4.327   4.370
 2676SOL    HW1 8771   0.094   4.251   4.358
 2676SOL    HW2 8772   0.113   4.396   4.316
 2677SOL     OW 8773   0.140   0.002   5.310
 2677SOL    HW1 8774   0.233   4.483   5.300
 2677SOL    HW2 8775   0.130   0.091   5.277
 2678SOL     OW 8776   0.824   3.729   4.239
 2678SOL    HW1 8777   0.864   3.813   4.214
 2678SOL    HW2 8778   0.730   3.747   4.243
 2679SOL     OW 8779   0.328   3.979   5.532
 2679SOL    HW1 8780   0.366   4.061   5.565
 2679SOL    HW2 8781   0.236   3.983   5.559
 2680SOL     OW 8782   1.277   4.084   4.659
 2680SOL    HW1 8783   1.188   4.050   4.668
 2680SOL    HW2 8784   1.329   4.029   4.718
 2681SOL     OW 8785   0.838   4.285   5.163
 2681SOL    HW1 8786   0.798   4.291   5.250
 2681SOL    HW2 8787   0.765   4.260   5.106
 2682SOL     OW 8788   1.393   4.201   5.401
 2682SOL    HW1 8789   1.399   4.246   5.485
 2682SOL    HW2 8790   1.448   4.123   5.411
 2683SOL     OW 8791   1.002   4.160   4.956
 2683SOL    HW1 8792   0.939   4.187   5.024
 2683SOL    HW2 8793   0.952   4.103   4.898
 2684SOL     OW 8794   1.054   4.415   4.131
 2684SOL    HW1 8795   1.045   4.466   4.211
 2684SOL    HW2 8796   0.971   4.368   4.123
 2685SOL     OW 8797   0.065   0.092   4.577
 2685SOL    HW1 8798   0.146   0.043   4.592
 2685SOL    HW2 8799   0.041   0.071   4.486
 2686SOL     OW 8800   0.899   4.067   3.912
 2686SOL    HW1 8801   0.938   4.131   3.853
 2686SOL    HW2 8802   0.911   3.983   3.868
 2687SOL     OW 8803   1.716   4.304   5.558
 2687SOL    HW1 8804   1.738   4.389   5.519
 2687SOL    HW2 8805   1.734   4.240   5.488
 2688SOL     OW 8806   0.554   3.898   4.620
 2688SOL    HW1 8807   0.555   3.930   4.710
 2688SOL    HW2 8808   0.547   3.977   4.567
 2689SOL     OW 8809   1.494   4.471   4.464
 2689SOL    HW1 8810   1.483   4.413   4.539
 2689SOL    HW2 8811   1.536   0.049   4.500
 2690SOL     OW 8812   0.188   4.002   5.207
 2690SOL    HW1 8813   0.145   4.086   5.223
 2690SOL    HW2 8814   0.180   3.954   5.289
 2691SOL     OW 8815   1.399   3.828   4.164
 2691SOL    HW1 8816   1.392   3.803   4.071
 2691SOL    HW2 8817   1.493   3.837   4.179
 2692SOL     OW 8818   0.345   4.386   4.125
 2692SOL    HW1 8819   0.380   4.307   4.166
 2692SOL    HW2 8820   0.313   4.439   4.198
 2693SOL     OW 8821   1.526   3.950   5.447
 2693SOL    HW1 8822   1.537   3.969   5.540
 2693SOL    HW2 8823   1.457   3.883   5.445
 2694SOL     OW 8824   0.644   3.842   3.824
 2694SOL    HW1 8825   0.701   3.767   3.845
 2694SOL    HW2 8826   0.591   3.811   3.750
 2695SOL     OW 8827   0.763   4.000   5.479
 2695SOL    HW1 8828   0.844   3.950   5.475
 2695SOL    HW2 8829   0.717   3.967   5.556
 2696SOL     OW 8830   1.336   4.316   5.157
 2696SOL    HW1 8831   1.359   4.279   5.242
 2696SOL    HW2 8832   1.392   4.394   5.149
 2697SOL     OW 8833   0.929   4.227   4.616
 2697SOL    HW1 8834   0.905   4.212   4.525
 2697SOL    HW2 8835   0.967   4.145   4.645
 2698SOL     OW 8836   0.560   3.788   4.217
 2698SOL    HW1 8837   0.479   3.785   4.269
 2698SOL    HW2 8838   0.549   3.865   4.160
 2699SOL     OW 8839   0.295   3.768   3.900
 2699SOL    HW1 8840   0.357   3.833   3.868
 2699SOL    HW2 8841   0.348   3.703   3.945
 2700SOL     OW 8842   0.943   3.975   4.178
 2700SOL    HW1 8843   0.919   4.010   4.092
 2700SOL    HW2 8844   1.037   3.990   4.185
 2701SOL     OW 8845   1.072   4.390   5.266
 2701SOL    HW1 8846   0.994   4.358   5.220
 2701SOL    HW2 8847   1.145   4.366   5.209
 2702SOL     OW 8848   1.028   4.258   3.754
 2702SOL    HW1 8849   1.014   4.347   3.720
 2702SOL    HW2 8850   1.092   4.269   3.824
 2703SOL     OW 8851   0.072   4.255   5.111
 2703SOL    HW1 8852   0.160   4.266   5.074
 2703SOL    HW2 8853   0.050   4.340   5.148
 2704SOL     OW 8854   0.558   3.952   4.892
 2704SOL    HW1 8855   0.601   3.878   4.934
 2704SOL    HW2 8856   0.466   3.945   4.918
 2705SOL     OW 8857   0.867   4.187   4.357
 2705SOL    HW1 8858   0.841   4.250   4.289
 2705SOL    HW2 8859   0.888   4.107   4.309
 2706SOL     OW 8860   1.016   3.778   4.470
 2706SOL    HW1 8861   0.957   3.771   4.394
 2706SOL    HW2 8862   0.993   3.703   4.525
 2707SOL     OW 8863   1.479   4.303   4.677
 2707SOL    HW1 8864   1.409   4.241   4.697
 2707SOL    HW2 8865   1.526   4.313   4.760
 2708SOL     OW 8866   1.406   4.297   3.798
 2708SOL    HW1 8867   1.343   4.266   3.862
 2708SOL    HW2 8868   1.489   4.258   3.824
 2709SOL     OW 8869   0.529   3.987   4.032
 2709SOL    HW1 8870   0.577   3.941   3.963
 2709SOL    HW2 8871   0.511   4.073   3.995
 2710SOL     OW 8872   0.917   3.819   5.114
 2710SOL    HW1 8873   0.941   3.798   5.024
 2710SOL    HW2 8874   0.997   3.857   5.151
 2711SOL     OW 8875   0.454   0.007   5.000
 2711SOL    HW1 8876   0.513   4.495   5.075
 2711SOL    HW2 8877   0.420   4.420   4.982
 2712SOL     OW 8878   1.264   4.098   5.006
 2712SOL    HW1 8879   1.297   4.176   5.051
 2712SOL    HW2 8880   1.176   4.122   4.978
 2713SOL     OW 8881   0.551   4.244   4.588
 2713SOL    HW1 8882   0.569   4.271   4.498
 2713SOL    HW2 8883   0.619   4.286   4.640
 2714SOL     OW 8884   1.565   4.328   4.216
 2714SOL    HW1 8885   1.546   4.396   4.281
 2714SOL    HW2 8886   1.621   4.371   4.152
 2715SOL     OW 8887   0.996   3.857   5.479
 2715SOL    HW1 8888   1.055   3.929   5.459
 2715SOL    HW2 8889   1.044   3.778   5.454
 2716SOL     OW 8890   0.494   3.766   5.475
 2716SOL    HW1 8891   0.450   3.710   5.410
 2716SOL    HW2 8892   0.436   3.841   5.485
 2717SOL     OW 8893   1.206   4.250   3.981
 2717SOL    HW1 8894   1.216   4.171   4.035
 2717SOL    HW2 8895   1.159   4.311   4.038
 2718SOL     OW 8896   0.297   3.919   4.968
 2718SOL    HW1 8897   0.254   3.947   5.049
 2718SOL    HW2 8898   0.283   3.824   4.965
 2719SOL     OW 8899   0.739   4.359   4.756
 2719SOL    HW1 8900   0.811   4.318   4.709
 2719SOL    HW2 8901   0.757   4.453   4.750
 2720SOL     OW 8902   1.755   0.124   5.572
 2720SOL    HW1 8903   1.680   0.147   5.515
 2720SOL    HW2 8904   1.721   0.135   5.661
 2721SOL     OW 8905   0.320   3.791   4.341
 2721SOL    HW1 8906   0.291   3.879   4.365
 2721SOL    HW2 8907   0.320   3.742   4.423
 2722SOL     OW 8908   1.615   4.089   4.088
 2722SOL    HW1 8909   1.650   4.028   4.153
 2722SOL    HW2 8910   1.587   4.165   4.140
 2723SOL     OW 8911   1.520   3.999   3.849
 2723SOL    HW1 8912   1.459   3.930   3.876
 2723SOL    HW2 8913   1.558   4.031   3.931
 2724SOL     OW 8914   0.323   0.011   4.626
 2724SOL    HW1 8915   0.401   0.066   4.634
 2724SOL    HW2 8916   0.344   4.433   4.677
 2725SOL     OW 8917   0.328   4.234   4.739
 2725SOL    HW1 8918   0.283   4.153   4.716
 2725SOL    HW2 8919   0.404   4.236   4.681
 2726SOL     OW 8920   1.138   4.089   5.413
 2726SOL    HW1 8921   1.084   4.148   5.466
 2726SOL    HW2 8922   1.222   4.134   5.404
 2727SOL     OW 8923   1.160   3.921   5.194
 2727SOL    HW1 8924   1.150   3.981   5.268
 2727SOL    HW2 8925   1.203   3.972   5.126
 2728SOL     OW 8926   0.012   4.266   4.810
 2728SOL    HW1 8927   0.105   4.271   4.787
 2728SOL    HW2 8928   0.012   4.238   4.901
 2729SOL     OW 8929   0.168   4.234   5.398
 2729SOL    HW1 8930   0.262   4.223   5.388
 2729SOL    HW2 8931   0.150   4.322   5.366
 2730SOL     OW 8932   0.821   4.275   4.085
 2730SOL    HW1 8933   0.829   4.204   4.022
 2730SOL    HW2 8934   0.732   4.309   4.073
 2731SOL     OW 8935   1.632   4.311   4.904
 2731SOL    HW1 8936   1.631   4.254   4.981
 2731SOL    HW2 8937   1.721   4.304   4.870
 2732SOL     OW 8938   0.668   4.196   4.972
 2732SOL    HW1 8939   0.633   4.113   4.939
 2732SOL    HW2 8940   0.682   4.248   4.892
 2733SOL     OW 8941   0.478   4.227   3.910
 2733SOL    HW1 8942   0.496   4.307   3.959
 2733SOL    HW2 8943   0.387   4.235   3.883
 2734SOL     OW 8944   1.728   3.878   4.234
 2734SOL    HW1 8945   1.796   3.862   4.169
 2734SOL    HW2 8946   1.709   3.792   4.271
 2735SOL     OW 8947   1.280   0.134   4.400
 2735SOL    HW1 8948   1.338   0.063   4.429
 2735SOL    HW2 8949   1.326   0.175   4.327
 2736SOL     OW 8950   1.841   3.894   4.690
 2736SOL    HW1 8951   1.869   3.806   4.665
 2736SOL    HW2 8952   1.754   3.903   4.650
 2737SOL     OW 8953   0.266   4.039   4.442
 2737SOL    HW1 8954   0.188   4.088   4.416
 2737SOL    HW2 8955   0.255   4.024   4.536
 2738SOL     OW 8956   0.899   0.089   3.923
 2738SOL    HW1 8957   0.980   0.124   3.885
 2738SOL    HW2 8958   0.923   0.061   4.011
 2739SOL     OW 8959   1.066   0.287   4.479
 2739SOL    HW1 8960   1.003   0.292   4.407
 2739SOL    HW2 8961   1.133   0.227   4.447
 2740SOL     OW 8962   1.024   3.964   4.685
 2740SOL    HW1 8963   1.021   3.914   4.603
 2740SOL    HW2 8964   1.018   3.897   4.753
 2741SOL     OW 8965   1.728   4.112   5.106
 2741SOL    HW1 8966   1.798   4.177   5.104
 2741SOL    HW2 8967   1.758   4.043   5.047
 2742SOL     OW 8968   0.676   3.922   5.222
 2742SOL    HW1 8969   0.760   3.898   5.182
 2742SOL    HW2 8970   0.699   3.952   5.310
 2743SOL     OW 8971   0.065   4.046   3.774
 2743SOL    HW1 8972   4.477   4.074   3.750
 2743SOL    HW2 8973   0.115   4.127   3.783
 2744SOL     OW 8974   0.087   3.898   4.024
 2744SOL    HW1 8975   0.073   3.963   3.955
 2744SOL    HW2 8976   0.163   3.847   3.994
 2745SOL     OW 8977   0.725   4.271   5.413
 2745SOL    HW1 8978   0.721   4.320   5.495
 2745SOL    HW2 8979   0.740   4.180   5.440
 2746SOL     OW 8980   1.217   4.041   4.176
 2746SOL    HW1 8981   1.278   3.967   4.171
 2746SOL    HW2 8982   1.244   4.089   4.253
 2747SOL     OW 8983   1.753   4.093   5.380
 2747SOL    HW1 8984   1.741   4.106   5.286
 2747SOL    HW2 8985   1.681   4.035   5.405
 2748SOL     OW 8986   1.115   0.220   3.823
 2748SOL    HW1 8987   1.113   0.265   3.739
 2748SOL    HW2 8988   1.205   0.189   3.832
 2749SOL     OW 8989   1.813   3.903   4.960
 2749SOL    HW1 8990   1.813   3.808   4.970
 2749SOL    HW2 8991   1.823   3.918   4.866
 2750SOL     OW 8992   0.444   4.161   4.254
 2750SOL    HW1 8993   0.468   4.085   4.200
 2750SOL    HW2 8994   0.389   4.125   4.323
 2751SOL     OW 8995   0.326   4.265   5.007
 2751SOL    HW1 8996   0.378   4.195   5.046
 2751SOL    HW2 8997   0.329   4.247   4.913
 2752SOL     OW 8998   1.429   3.951   4.841
 2752SOL    HW1 8999   1.446   3.866   4.882
 2752SOL    HW2 9000   1.380   4.001   4.906
 2753SOL     OW 9001   1.008   3.740   4.860
 2753SOL    HW1 9002   0.954   3.674   4.817
 2753SOL    HW2 9003   1.096   3.702   4.862
 2754SOL     OW 9004   1.357   3.775   3.894
 2754SOL    HW1 9005   1.391   3.704   3.839
 2754SOL    HW2 9006   1.268   3.748   3.916
 2755SOL     OW 9007   1.296   4.173   4.401
 2755SOL    HW1 9008   1.276   4.266   4.414
 2755SOL    HW2 9009   1.295   4.136   4.489
 2756SOL     OW 9010   1.584   3.919   4.606
 2756SOL    HW1 9011   1.529   3.946   4.679
 2756SOL    HW2 9012   1.585   3.995   4.548
 2757SOL     OW 9013   0.217   4.269   5.694
 2757SOL    HW1 9014   0.158   4.289   5.767
 2757SOL    HW2 9015   0.202   4.339   5.631
 2758SOL     OW 9016   0.209   3.989   6.575
 2758SOL    HW1 9017   0.243   3.963   6.660
 2758SOL    HW2 9018   0.132   3.934   6.562
 2759SOL     OW 9019   4.494   4.105   6.214
 2759SOL    HW1 9020   4.407   4.131   6.243
 2759SOL    HW2 9021   4.481   4.019   6.174
 2760SOL     OW 9022   1.712   4.336   5.829
 2760SOL    HW1 9023   1.722   4.330   5.734
 2760SOL    HW2 9024   1.723   4.246   5.860
 2761SOL     OW 9025   0.726   0.282   6.270
 2761SOL    HW1 9026   0.713   0.216   6.338
 2761SOL    HW2 9027   0.641   0.289   6.227
 2762SOL     OW 9028   0.452   4.113   7.073
 2762SOL    HW1 9029   0.533   4.061   7.071
 2762SOL    HW2 9030   0.382   4.048   7.082
 2763SOL     OW 9031   1.611   4.165   6.330
 2763SOL    HW1 9032   1.559   4.196   6.256
 2763SOL    HW2 9033   1.589   4.224   6.402
 2764SOL     OW 9034   1.595   3.852   7.051
 2764SOL    HW1 9035   1.619   3.932   7.004
 2764SOL    HW2 9036   1.575   3.880   7.140
 2765SOL     OW 9037   0.152   4.327   6.232
 2765SOL    HW1 9038   0.094   4.251   6.219
 2765SOL    HW2 9039   0.113   4.395   6.178
 2766SOL     OW 9040   0.140   0.002   7.171
 2766SOL    HW1 9041   0.233   4.483   7.162
 2766SOL    HW2 9042   0.130   0.091   7.138
 2767SOL     OW 9043   0.824   3.729   6.101
 2767SOL    HW1 9044   0.864   3.812   6.076
 2767SOL    HW2 9045   0.730   3.747   6.105
 2768SOL     OW 9046   0.328   3.980   7.393
 2768SOL    HW1 9047   0.366   4.061   7.427
 2768SOL    HW2 9048   0.236   3.983   7.420
 2769SOL     OW 9049   1.277   4.083   6.521
 2769SOL    HW1 9050   1.188   4.050   6.530
 2769SOL    HW2 9051   1.329   4.028   6.580
 2770SOL     OW 9052   0.838   4.285   7.025
 2770SOL    HW1 9053   0.799   4.291   7.112
 2770SOL    HW2 9054   0.765   4.260   6.968
 2771SOL     OW 9055   1.393   4.200   7.263
 2771SOL    HW1 9056   1.399   4.246   7.347
 2771SOL    HW2 9057   1.448   4.122   7.274
 2772SOL     OW 9058   1.002   4.161   6.819
 2772SOL    HW1 9059   0.940   4.187   6.887
 2772SOL    HW2 9060   0.951   4.103   6.762
 2773SOL     OW 9061   1.054   4.415   5.993
 2773SOL    HW1 9062   1.046   4.466   6.073
 2773SOL    HW2 9063   0.971   4.368   5.985
 2774SOL     OW 9064   0.065   0.091   6.439
 2774SOL    HW1 9065   0.146   0.043   6.454
 2774SOL    HW2 9066   0.042   0.071   6.348
 2775SOL     OW 9067   0.899   4.067   5.774
 2775SOL    HW1 9068   0.938   4.131   5.715
 2775SOL    HW2 9069   0.910   3.983   5.730
 2776SOL     OW 9070   1.716   4.304   7.420
 2776SOL    HW1 9071   1.738   4.388   7.381
 2776SOL    HW2 9072   1.733   4.240   7.351
 2777SOL     OW 9073   0.554   3.898   6.482
 2777SOL    HW1 9074   0.556   3.930   6.573
 2777SOL    HW2 9075   0.547   3.978   6.429
 2778SOL     OW 9076   1.494   4.471   6.326
 2778SOL    HW1 9077   1.484   4.413   6.401
 2778SOL    HW2 9078   1.536   0.050   6.362
 2779SOL     OW 9079   0.188   4.002   7.069
 2779SOL    HW1 9080   0.145   4.086   7.085
 2779SOL    HW2 9081   0.180   3.954   7.151
 2780SOL     OW 9082   1.400   3.828   6.026
 2780SOL    HW1 9083   1.393   3.804   5.934
 2780SOL    HW2 9084   1.493   3.839   6.041
 2781SOL     OW 9085   0.345   4.386   5.987
 2781SOL    HW1 9086   0.380   4.307   6.028
 2781SOL    HW2 9087   0.313   4.438   6.060
 2782SOL     OW 9088   1.526   3.949   7.310
 2782SOL    HW1 9089   1.537   3.969   7.403
 2782SOL    HW2 9090   1.459   3.881   7.307
 2783SOL     OW 9091   0.644   3.842   5.686
 2783SOL    HW1 9092   0.701   3.767   5.707
 2783SOL    HW2 9093   0.591   3.811   5.612
 2784SOL     OW 9094   0.762   4.000   7.341
 2784SOL    HW1 9095   0.844   3.950   7.337
 2784SOL    HW2 9096   0.717   3.967   7.419
 2785SOL     OW 9097   1.336   4.316   7.019
 2785SOL    HW1 9098   1.359   4.278   7.104
 2785SOL    HW2 9099   1.391   4.394   7.012
 2786SOL     OW 9100   0.929   4.228   6.478
 2786SOL    HW1 9101   0.905   4.212   6.387
 2786SOL    HW2 9102   0.967   4.145   6.507
 2787SOL     OW 9103   0.560   3.788   6.079
 2787SOL    HW1 9104   0.480   3.785   6.131
 2787SOL    HW2 9105   0.549   3.865   6.022
 2788SOL     OW 9106   0.294   3.768   5.762
 2788SOL    HW1 9107   0.357   3.833   5.730
 2788SOL    HW2 9108   0.349   3.703   5.807
 2789SOL     OW 9109   0.943   3.975   6.040
 2789SOL    HW1 9110   0.919   4.010   5.954
 2789SOL    HW2 9111   1.037   3.990   6.047
 2790SOL     OW 9112   1.072   4.391   7.127
 2790SOL    HW1 9113   0.994   4.358   7.082
 2790SOL    HW2 9114   1.145   4.365   7.071
 2791SOL     OW 9115   1.028   4.258   5.616
 2791SOL    HW1 9116   1.013   4.347   5.583
 2791SOL    HW2 9117   1.092   4.270   5.686
 2792SOL     OW 9118   0.072   4.255   6.972
 2792SOL    HW1 9119   0.160   4.266   6.936
 2792SOL    HW2 9120   0.051   4.340   7.011
 2793SOL     OW 9121   0.558   3.952   6.754
 2793SOL    HW1 9122   0.601   3.878   6.797
 2793SOL    HW2 9123   0.466   3.945   6.781
 2794SOL     OW 9124   0.867   4.187   6.219
 2794SOL    HW1 9125   0.841   4.250   6.151
 2794SOL    HW2 9126   0.888   4.107   6.171
 2795SOL     OW 9127   1.018   3.777   6.331
 2795SOL    HW1 9128   0.958   3.771   6.256
 2795SOL    HW2 9129   0.994   3.703   6.387
 2796SOL     OW 9130   1.479   4.303   6.539
 2796SOL    HW1 9131   1.409   4.241   6.559
 2796SOL    HW2 9132   1.526   4.313   6.622
 2797SOL     OW 9133   1.406   4.298   5.660
 2797SOL    HW1 9134   1.343   4.266   5.724
 2797SOL    HW2 9135   1.489   4.259   5.686
 2798SOL     OW 9136   0.529   3.987   5.894
 2798SOL    HW1 9137   0.577   3.941   5.825
 2798SOL    HW2 9138   0.511   4.073   5.857
 2799SOL     OW 9139   0.917   3.819   6.976
 2799SOL    HW1 9140   0.941   3.798   6.886
 2799SOL    HW2 9141   0.997   3.857   7.014
 2800SOL     OW 9142   0.454   0.007   6.863
 2800SOL    HW1 9143   0.513   4.495   6.937
 2800SOL    HW2 9144   0.420   4.419   6.844
 2801SOL     OW 9145   1.264   4.099   6.867
 2801SOL    HW1 9146   1.297   4.177   6.912
 2801SOL    HW2 9147   1.176   4.122   6.839
 2802SOL     OW 9148   0.551   4.244   6.450
 2802SOL    HW1 9149   0.569   4.272   6.360
 2802SOL    HW2 9150   0.619   4.286   6.502
 2803SOL     OW 9151   1.565   4.328   6.078
 2803SOL    HW1 9152   1.546   4.396   6.143
 2803SOL    HW2 9153   1.621   4.372   6.014
 2804SOL     OW 9154   0.996   3.857   7.341
 2804SOL    HW1 9155   1.055   3.929   7.320
 2804SOL    HW2 9156   1.044   3.778   7.316
 2805SOL     OW 9157   0.494   3.766   7.336
 2805SOL    HW1 9158   0.450   3.710   7.272
 2805SOL    HW2 9159   0.436   3.842   7.346
 2806SOL     OW 9160   1.206   4.249   5.844
 2806SOL    HW1 9161   1.216   4.171   5.897
 2806SOL    HW2 9162   1.159   4.311   5.900
 2807SOL     OW 9163   0.297   3.919   6.830
 2807SOL    HW1 9164   0.254   3.947   6.911
 2807SOL    HW2 9165   0.283   3.824   6.827
 2808SOL     OW 9166   0.739   4.359   6.618
 2808SOL    HW1 9167   0.811   4.318   6.571
 2808SOL    HW2 9168   0.757   4.453   6.613
 2809SOL     OW 9169   1.755   0.124   7.433
 2809SOL    HW1 9170   1.680   0.147   7.378
 2809SOL    HW2 9171   1.722   0.134   7.523
 2810SOL     OW 9172   0.320   3.792   6.202
 2810SOL    HW1 9173   0.291   3.879   6.227
 2810SOL    HW2 9174   0.320   3.742   6.285
 2811SOL     OW 9175   1.615   4.089   5.951
 2811SOL    HW1 9176   1.649   4.028   6.016
 2811SOL    HW2 9177   1.587   4.165   6.001
 2812SOL     OW 9178   1.520   3.998   5.711
 2812SOL    HW1 9179   1.459   3.930   5.738
 2812SOL    HW2 9180   1.558   4.030   5.793
 2813SOL     OW 9181   0.323   0.011   6.488
 2813SOL    HW1 9182   0.401   0.067   6.496
 2813SOL    HW2 9183   0.344   4.433   6.539
 2814SOL     OW 9184   0.328   4.234   6.601
 2814SOL    HW1 9185   0.283   4.153   6.578
 2814SOL    HW2 9186   0.404   4.236   6.543
 2815SOL     OW 9187   1.138   4.089   7.275
 2815SOL    HW1 9188   1.084   4.148   7.328
 2815SOL    HW2 9189   1.222   4.134   7.267
 2816SOL     OW 9190   1.160   3.921   7.056
 2816SOL    HW1 9191   1.150   3.982   7.129
 2816SOL    HW2 9192   1.203   3.973   6.988
 2817SOL     OW 9193   0.012   4.266   6.672
 2817SOL    HW1 9194   0.105   4.271   6.649
 2817SOL    HW2 9195   0.011   4.239   6.764
 2818SOL     OW 9196   0.167   4.234   7.259
 2818SOL    HW1 9197   0.262   4.223   7.251
 2818SOL    HW2 9198   0.150   4.323   7.228
 2819SOL     OW 9199   0.821   4.275   5.947
 2819SOL    HW1 9200   0.829   4.204   5.884
 2819SOL    HW2 9201   0.733   4.309   5.935
 2820SOL     OW 9202   1.632   4.310   6.765
 2820SOL    HW1 9203   1.631   4.254   6.843
 2820SOL    HW2 9204   1.722   4.303   6.732
 2821SOL     OW 9205   0.668   4.196   6.833
 2821SOL    HW1 9206   0.633   4.113   6.801
 2821SOL    HW2 9207   0.682   4.248   6.754
 2822SOL     OW 9208   0.478   4.227   5.772
 2822SOL    HW1 9209   0.496   4.307   5.822
 2822SOL    HW2 9210   0.387   4.235   5.745
 2823SOL     OW 9211   1.726   3.877   6.096
 2823SOL    HW1 9212   1.795   3.861   6.031
 2823SOL    HW2 9213   1.709   3.790   6.133
 2824SOL     OW 9214   1.279   0.133   6.262
 2824SOL    HW1 9215   1.338   0.063   6.290
 2824SOL    HW2 9216   1.326   0.177   6.191
 2825SOL     OW 9217   1.841   3.891   6.551
 2825SOL    HW1 9218   1.869   3.803   6.525
 2825SOL    HW2 9219   1.755   3.902   6.512
 2826SOL     OW 9220   0.266   4.039   6.304
 2826SOL    HW1 9221   0.188   4.088   6.278
 2826SOL    HW2 9222   0.255   4.024   6.398
 2827SOL     OW 9223   0.899   0.089   5.784
 2827SOL    HW1 9224   0.980   0.124   5.747
 2827SOL    HW2 9225   0.923   0.062   5.873
 2828SOL     OW 9226   1.066   0.287   6.341
 2828SOL    HW1 9227   1.002   0.292   6.269
 2828SOL    HW2 9228   1.133   0.226   6.309
 2829SOL     OW 9229   1.024   3.964   6.546
 2829SOL    HW1 9230   1.021   3.914   6.465
 2829SOL    HW2 9231   1.018   3.898   6.615
 2830SOL     OW 9232   1.727   4.113   6.968
 2830SOL    HW1 9233   1.798   4.177   6.966
 2830SOL    HW2 9234   1.757   4.043   6.909
 2831SOL     OW 9235   0.676   3.922   7.084
 2831SOL    HW1 9236   0.760   3.898   7.044
 2831SOL    HW2 9237   0.699   3.952   7.172
 2832SOL     OW 9238   0.065   4.045   5.636
 2832SOL    HW1 9239   4.477   4.074   5.613
 2832SOL    HW2 9240   0.115   4.126   5.645
 2833SOL     OW 9241   0.087   3.898   5.886
 2833SOL    HW1 9242   0.072   3.963   5.817
 2833SOL    HW2 9243   0.163   3.847   5.856
 2834SOL     OW 9244   0.725   4.271   7.275
 2834SOL    HW1 9245   0.721   4.320   7.357
 2834SOL    HW2 9246   0.740   4.180   7.302
 2835SOL     OW 9247   1.217   4.041   6.038
 2835SOL    HW1 9248   1.278   3.967   6.033
 2835SOL    HW2 9249   1.244   4.089   6.116
 2836SOL     OW 9250   1.752   4.093   7.241
 2836SOL    HW1 9251   1.740   4.106   7.147
 2836SOL    HW2 9252   1.681   4.035   7.267
 2837SOL     OW 9253   1.115   0.220   5.685
 2837SOL    HW1 9254   1.113   0.264   5.600
 2837SOL    HW2 9255   1.205   0.189   5.694
 2838SOL     OW 9256   1.813   3.904   6.822
 2838SOL    HW1 9257   1.816   3.809   6.834
 2838SOL    HW2 9258   1.823   3.917   6.727
 2839SOL     OW 9259   0.444   4.161   6.116
 2839SOL    HW1 9260   0.468   4.085   6.062
 2839SOL    HW2 9261   0.389   4.125   6.185
 2840SOL     OW 9262   0.326   4.265   6.869
 2840SOL    HW1 9263   0.378   4.195   6.909
 2840SOL    HW2 9264   0.329   4.247   6.775
 2841SOL     OW 9265   1.429   3.951   6.704
 2841SOL    HW1 9266   1.449   3.868   6.748
 2841SOL    HW2 9267   1.380   4.002   6.768
 2842SOL     OW 9268   1.008   3.741   6.722
 2842SOL    HW1 9269   0.953   3.675   6.680
 2842SOL    HW2 9270   1.096   3.702   6.723
 2843SOL     OW 9271   1.357   3.775   5.757
 2843SOL    HW1 9272   1.388   3.707   5.698
 2843SOL    HW2 9273   1.268   3.749   5.779
 2844SOL     OW 9274   1.296   4.173   6.263
 2844SOL    HW1 9275   1.276   4.266   6.276
 2844SOL    HW2 9276   1.295   4.136   6.351
 2845SOL     OW 9277   1.584   3.918   6.469
 2845SOL    HW1 9278   1.529   3.945   6.542
 2845SOL    HW2 9279   1.585   3.995   6.411
 2846SOL     OW 9280   0.217   4.269   7.556
 2846SOL    HW1 9281   0.158   4.289   7.629
 2846SOL    HW2 9282   0.202   4.339   7.493
 2847SOL     OW 9283   0.209   3.989   8.437
 2847SOL    HW1 9284   0.243   3.963   8.522
 2847SOL    HW2 9285   0.132   3.934   8.424
 2848SOL     OW 9286   4.494   4.105   8.076
 2848SOL    HW1 9287   4.407   4.131   8.105
 2848SOL    HW2 9288   4.481   4.018   8.037
 2849SOL     OW 9289   1.714   4.336   7.691
 2849SOL    HW1 9290   1.723   4.330   7.596
 2849SOL    HW2 9291   1.722   4.246   7.722
 2850SOL     OW 9292   0.726   0.282   8.132
 2850SOL    HW1 9293   0.714   0.216   8.200
 2850SOL    HW2 9294   0.641   0.288   8.089
 2851SOL     OW 9295   0.452   4.113   8.935
 2851SOL    HW1 9296   0.533   4.061   8.933
 2851SOL    HW2 9297   0.382   4.048   8.944
 2852SOL     OW 9298   1.611   4.165   8.192
 2852SOL    HW1 9299   1.558   4.196   8.118
 2852SOL    HW2 9300   1.589   4.224   8.264
 2853SOL     OW 9301   1.596   3.851   8.913
 2853SOL    HW1 9302   1.618   3.932   8.866
 2853SOL    HW2 9303   1.575   3.880   9.002
 2854SOL     OW 9304   0.152   4.327   8.094
 2854SOL    HW1 9305   0.094   4.251   8.081
 2854SOL    HW2 9306   0.113   4.395   8.040
 2855SOL     OW 9307   0.140   0.001   9.033
 2855SOL    HW1 9308   0.233   4.483   9.023
 2855SOL    HW2 9309   0.130   0.091   9.000
 2856SOL     OW 9310   0.824   3.729   7.962
 2856SOL    HW1 9311   0.864   3.813   7.938
 2856SOL    HW2 9312   0.730   3.747   7.966
 2857SOL     OW 9313   0.328   3.980   9.255
 2857SOL    HW1 9314   0.366   4.061   9.289
 2857SOL    HW2 9315   0.236   3.984   9.282
 2858SOL     OW 9316   1.277   4.083   8.383
 2858SOL    HW1 9317   1.188   4.050   8.392
 2858SOL    HW2 9318   1.329   4.029   8.442
 2859SOL     OW 9319   0.838   4.285   8.887
 2859SOL    HW1 9320   0.798   4.291   8.974
 2859SOL    HW2 9321   0.765   4.260   8.830
 2860SOL     OW 9322   1.393   4.200   9.125
 2860SOL    HW1 9323   1.399   4.246   9.209
 2860SOL    HW2 9324   1.448   4.122   9.136
 2861SOL     OW 9325   1.002   4.161   8.680
 2861SOL    HW1 9326   0.940   4.187   8.748
 2861SOL    HW2 9327   0.952   4.103   8.623
 2862SOL     OW 9328   1.054   4.415   7.855
 2862SOL    HW1 9329   1.046   4.466   7.935
 2862SOL    HW2 9330   0.971   4.368   7.847
 2863SOL     OW 9331   0.065   0.091   8.301
 2863SOL    HW1 9332   0.146   0.043   8.316
 2863SOL    HW2 9333   0.042   0.071   8.210
 2864SOL     OW 9334   0.899   4.067   7.636
 2864SOL    HW1 9335   0.938   4.131   7.577
 2864SOL    HW2 9336   0.911   3.983   7.592
 2865SOL     OW 9337   1.716   4.304   9.282
 2865SOL    HW1 9338   1.738   4.388   9.243
 2865SOL    HW2 9339   1.733   4.240   9.212
 2866SOL     OW 9340   0.554   3.898   8.344
 2866SOL    HW1 9341   0.555   3.930   8.435
 2866SOL    HW2 9342   0.547   3.978   8.291
 2867SOL     OW 9343   1.494   4.471   8.188
 2867SOL    HW1 9344   1.484   4.413   8.263
 2867SOL    HW2 9345   1.536   0.050   8.224
 2868SOL     OW 9346   0.187   4.002   8.931
 2868SOL    HW1 9347   0.145   4.086   8.948
 2868SOL    HW2 9348   0.180   3.954   9.013
 2869SOL     OW 9349   1.399   3.828   7.888
 2869SOL    HW1 9350   1.392   3.803   7.795
 2869SOL    HW2 9351   1.493   3.837   7.903
 2870SOL     OW 9352   0.345   4.386   7.849
 2870SOL    HW1 9353   0.380   4.307   7.889
 2870SOL    HW2 9354   0.313   4.438   7.922
 2871SOL     OW 9355   1.526   3.949   9.171
 2871SOL    HW1 9356   1.537   3.969   9.264
 2871SOL    HW2 9357   1.459   3.881   9.169
 2872SOL     OW 9358   0.644   3.842   7.548
 2872SOL    HW1 9359   0.701   3.767   7.569
 2872SOL    HW2 9360   0.591   3.811   7.474
 2873SOL     OW 9361   0.763   4.000   9.203
 2873SOL    HW1 9362   0.844   3.950   9.199
 2873SOL    HW2 9363   0.718   3.967   9.281
 2874SOL     OW 9364   1.336   4.316   8.881
 2874SOL    HW1 9365   1.359   4.278   8.966
 2874SOL    HW2 9366   1.391   4.394   8.874
 2875SOL     OW 9367   0.929   4.228   8.340
 2875SOL    HW1 9368   0.905   4.212   8.249
 2875SOL    HW2 9369   0.967   4.145   8.369
 2876SOL     OW 9370   0.559   3.788   7.941
 2876SOL    HW1 9371   0.479   3.785   7.993
 2876SOL    HW2 9372   0.549   3.865   7.884
 2877SOL     OW 9373   0.295   3.768   7.624
 2877SOL    HW1 9374   0.357   3.833   7.592
 2877SOL    HW2 9375   0.348   3.703   7.669
 2878SOL     OW 9376   0.943   3.975   7.902
 2878SOL    HW1 9377   0.919   4.010   7.816
 2878SOL    HW2 9378   1.037   3.990   7.909
 2879SOL     OW 9379   1.072   4.391   8.989
 2879SOL    HW1 9380   0.994   4.358   8.944
 2879SOL    HW2 9381   1.145   4.365   8.933
 2880SOL     OW 9382   1.028   4.258   7.478
 2880SOL    HW1 9383   1.014   4.347   7.445
 2880SOL    HW2 9384   1.092   4.269   7.548
 2881SOL     OW 9385   0.071   4.256   8.833
 2881SOL    HW1 9386   0.160   4.266   8.798
 2881SOL    HW2 9387   0.051   4.340   8.873
 2882SOL     OW 9388   0.558   3.952   8.616
 2882SOL    HW1 9389   0.601   3.878   8.659
 2882SOL    HW2 9390   0.466   3.944   8.643
 2883SOL     OW 9391   0.867   4.187   8.081
 2883SOL    HW1 9392   0.841   4.250   8.013
 2883SOL    HW2 9393   0.888   4.107   8.033
 2884SOL     OW 9394   1.017   3.777   8.193
 2884SOL    HW1 9395   0.958   3.770   8.118
 2884SOL    HW2 9396   0.994   3.703   8.249
 2885SOL     OW 9397   1.479   4.303   8.401
 2885SOL    HW1 9398   1.409   4.241   8.421
 2885SOL    HW2 9399   1.526   4.313   8.484
 2886SOL     OW 9400   1.406   4.297   7.522
 2886SOL    HW1 9401   1.343   4.266   7.586
 2886SOL    HW2 9402   1.489   4.257   7.548
 2887SOL     OW 9403   0.529   3.987   7.756
 2887SOL    HW1 9404   0.577   3.941   7.687
 2887SOL    HW2 9405   0.510   4.073   7.719
 2888SOL     OW 9406   0.917   3.819   8.838
 2888SOL    HW1 9407   0.941   3.798   8.748
 2888SOL    HW2 9408   0.997   3.857   8.875
 2889SOL     OW 9409   0.455   0.007   8.725
 2889SOL    HW1 9410   0.514   4.495   8.799
 2889SOL    HW2 9411   0.421   4.419   8.706
 2890SOL     OW 9412   1.264   4.099   8.729
 2890SOL    HW1 9413   1.297   4.177   8.774
 2890SOL    HW2 9414   1.176   4.122   8.701
 2891SOL     OW 9415   0.551   4.244   8.312
 2891SOL    HW1 9416   0.569   4.272   8.222
 2891SOL    HW2 9417   0.619   4.286   8.364
 2892SOL     OW 9418   1.565   4.329   7.939
 2892SOL    HW1 9419   1.546   4.396   8.005
 2892SOL    HW2 9420   1.622   4.372   7.876
 2893SOL     OW 9421   0.996   3.857   9.203
 2893SOL    HW1 9422   1.055   3.929   9.182
 2893SOL    HW2 9423   1.044   3.778   9.178
 2894SOL     OW 9424   0.494   3.766   9.198
 2894SOL    HW1 9425   0.450   3.710   9.134
 2894SOL    HW2 9426   0.436   3.842   9.208
 2895SOL     OW 9427   1.206   4.249   7.705
 2895SOL    HW1 9428   1.216   4.171   7.759
 2895SOL    HW2 9429   1.159   4.311   7.762
 2896SOL     OW 9430   0.297   3.919   8.692
 2896SOL    HW1 9431   0.254   3.947   8.773
 2896SOL    HW2 9432   0.283   3.824   8.689
 2897SOL     OW 9433   0.739   4.359   8.480
 2897SOL    HW1 9434   0.811   4.318   8.433
 2897SOL    HW2 9435   0.757   4.453   8.475
 2898SOL     OW 9436   1.755   0.124   9.295
 2898SOL    HW1 9437   1.680   0.147   9.240
 2898SOL    HW2 9438   1.722   0.134   9.385
 2899SOL     OW 9439   0.320   3.791   8.064
 2899SOL    HW1 9440   0.291   3.879   8.089
 2899SOL    HW2 9441   0.320   3.742   8.147
 2900SOL     OW 9442   1.616   4.089   7.812
 2900SOL    HW1 9443   1.650   4.028   7.877
 2900SOL    HW2 9444   1.588   4.165   7.863
 2901SOL     OW 9445   1.520   3.999   7.573
 2901SOL    HW1 9446   1.459   3.930   7.600
 2901SOL    HW2 9447   1.558   4.031   7.655
 2902SOL     OW 9448   0.323   0.011   8.350
 2902SOL    HW1 9449   0.400   0.067   8.358
 2902SOL    HW2 9450   0.344   4.433   8.401
 2903SOL     OW 9451   0.328   4.234   8.463
 2903SOL    HW1 9452   0.283   4.153   8.440
 2903SOL    HW2 9453   0.404   4.236   8.405
 2904SOL     OW 9454   1.138   4.089   9.137
 2904SOL    HW1 9455   1.084   4.148   9.190
 2904SOL    HW2 9456   1.222   4.134   9.129
 2905SOL     OW 9457   1.160   3.921   8.918
 2905SOL    HW1 9458   1.150   3.982   8.991
 2905SOL    HW2 9459   1.203   3.973   8.850
 2906SOL     OW 9460   0.012   4.265   8.534
 2906SOL    HW1 9461   0.105   4.271   8.512
 2906SOL    HW2 9462   0.011   4.240   8.626
 2907SOL     OW 9463   0.167   4.234   9.121
 2907SOL    HW1 9464   0.262   4.223   9.113
 2907SOL    HW2 9465   0.150   4.323   9.090
 2908SOL     OW 9466   0.822   4.275   7.809
 2908SOL    HW1 9467   0.829   4.204   7.746
 2908SOL    HW2 9468   0.733   4.309   7.797
 2909SOL     OW 9469   1.632   4.311   8.627
 2909SOL    HW1 9470   1.631   4.254   8.705
 2909SOL    HW2 9471   1.721   4.304   8.594
 2910SOL     OW 9472   0.667   4.196   8.696
 2910SOL    HW1 9473   0.632   4.113   8.664
 2910SOL    HW2 9474   0.682   4.248   8.617
 2911SOL     OW 9475   0.478   4.227   7.634
 2911SOL    HW1 9476   0.496   4.307   7.684
 2911SOL    HW2 9477   0.387   4.236   7.607
 2912SOL     OW 9478   1.727   3.878   7.958
 2912SOL    HW1 9479   1.796   3.862   7.893
 2912SOL    HW2 9480   1.709   3.792   7.995
 2913SOL     OW 9481   1.279   0.133   8.124
 2913SOL    HW1 9482   1.338   0.063   8.152
 2913SOL    HW2 9483   1.326   0.176   8.052
 2914SOL     OW 9484   1.841   3.893   8.414
 2914SOL    HW1 9485   1.869   3.805   8.388
 2914SOL    HW2 9486   1.754   3.902   8.374
 2915SOL     OW 9487   0.266   4.039   8.166
 2915SOL    HW1 9488   0.188   4.088   8.140
 2915SOL    HW2 9489   0.255   4.024   8.260
 2916SOL     OW 9490   0.899   0.089   7.646
 2916SOL    HW1 9491   0.980   0.124   7.609
 2916SOL    HW2 9492   0.923   0.061   7.735
 2917SOL     OW 9493   1.066   0.287   8.202
 2917SOL    HW1 9494   1.003   0.292   8.131
 2917SOL    HW2 9495   1.133   0.226   8.171
 2918SOL     OW 9496   1.024   3.964   8.408
 2918SOL    HW1 9497   1.021   3.914   8.327
 2918SOL    HW2 9498   1.018   3.897   8.477
 2919SOL     OW 9499   1.727   4.113   8.830
 2919SOL    HW1 9500   1.798   4.178   8.828
 2919SOL    HW2 9501   1.757   4.044   8.771
 2920SOL     OW 9502   0.676   3.922   8.946
 2920SOL    HW1 9503   0.760   3.898   8.906
 2920SOL    HW2 9504   0.699   3.952   9.034
 2921SOL     OW 9505   0.065   4.045   7.498
 2921SOL    HW1 9506   4.477   4.074   7.475
 2921SOL    HW2 9507   0.115   4.126   7.507
 2922SOL     OW 9508   0.087   3.897   7.748
 2922SOL    HW1 9509   0.073   3.963   7.679
 2922SOL    HW2 9510   0.163   3.847   7.718
 2923SOL     OW 9511   0.725   4.271   9.137
 2923SOL    HW1 9512   0.721   4.320   9.219
 2923SOL    HW2 9513   0.740   4.180   9.164
 2924SOL     OW 9514   1.217   4.041   7.900
 2924SOL    HW1 9515   1.278   3.967   7.895
 2924SOL    HW2 9516   1.244   4.090   7.978
 2925SOL     OW 9517   1.752   4.093   9.103
 2925SOL    HW1 9518   1.740   4.106   9.009
 2925SOL    HW2 9519   1.681   4.035   9.129
 2926SOL     OW 9520   1.115   0.220   7.547
 2926SOL    HW1 9521   1.113   0.265   7.463
 2926SOL    HW2 9522   1.205   0.189   7.556
 2927SOL     OW 9523   1.813   3.905   8.684
 2927SOL    HW1 9524   1.818   3.810   8.697
 2927SOL    HW2 9525   1.823   3.917   8.590
 2928SOL     OW 9526   0.444   4.161   7.977
 2928SOL    HW1 9527   0.468   4.085   7.924
 2928SOL    HW2 9528   0.389   4.125   8.047
 2929SOL     OW 9529   0.326   4.265   8.731
 2929SOL    HW1 9530   0.378   4.195   8.771
 2929SOL    HW2 9531   0.329   4.247   8.637
 2930SOL     OW 9532   1.429   3.951   8.565
 2930SOL    HW1 9533   1.447   3.867   8.608
 2930SOL    HW2 9534   1.380   4.001   8.630
 2931SOL     OW 9535   1.008   3.740   8.584
 2931SOL    HW1 9536   0.954   3.675   8.541
 2931SOL    HW2 9537   1.096   3.702   8.586
 2932SOL     OW 9538   1.357   3.775   7.618
 2932SOL    HW1 9539   1.391   3.704   7.563
 2932SOL    HW2 9540   1.268   3.749   7.640
 2933SOL     OW 9541   1.296   4.173   8.125
 2933SOL    HW1 9542   1.275   4.266   8.138
 2933SOL    HW2 9543   1.295   4.136   8.213
 2934SOL     OW 9544   1.584   3.919   8.330
 2934SOL    HW1 9545   1.529   3.945   8.404
 2934SOL    HW2 9546   1.585   3.995   8.272
 2935SOL     OW 9547   0.217   4.269   9.418
 2935SOL    HW1 9548   0.158   4.289   9.491
 2935SOL    HW2 9549   0.202   4.340   9.355
 2936SOL     OW 9550   0.210   3.988  10.297
 2936SOL    HW1 9551   0.244   3.964  10.383
 2936SOL    HW2 9552   0.132   3.934  10.286
 2937SOL     OW 9553   4.493   4.105   9.938
 2937SOL    HW1 9554   4.405   4.131   9.966
 2937SOL    HW2 9555   4.480   4.018   9.899
 2938SOL     OW 9556   1.714   4.336   9.553
 2938SOL    HW1 9557   1.723   4.330   9.458
 2938SOL    HW2 9558   1.722   4.246   9.584
 2939SOL     OW 9559   0.727   0.281   9.993
 2939SOL    HW1 9560   0.713   0.217  10.063
 2939SOL    HW2 9561   0.641   0.289   9.951
 2940SOL     OW 9562   0.451   4.118  10.778
 2940SOL    HW1 9563   0.532   4.067  10.782
 2940SOL    HW2 9564   0.383   4.058  10.808
 2941SOL     OW 9565   1.611   4.165  10.054
 2941SOL    HW1 9566   1.558   4.196   9.980
 2941SOL    HW2 9567   1.589   4.225  10.126
 2942SOL     OW 9568   1.592   3.844  10.775
 2942SOL    HW1 9569   1.619   3.923  10.729
 2942SOL    HW2 9570   1.596   3.867  10.867
 2943SOL     OW 9571   0.152   4.325   9.955
 2943SOL    HW1 9572   0.093   4.250   9.943
 2943SOL    HW2 9573   0.113   4.395   9.901
 2944SOL     OW 9574   0.104   0.005  10.923
 2944SOL    HW1 9575   0.195   4.479  10.938
 2944SOL    HW2 9576   0.110   0.093  10.886
 2945SOL     OW 9577   0.824   3.729   9.825
 2945SOL    HW1 9578   0.864   3.812   9.800
 2945SOL    HW2 9579   0.730   3.747   9.829
 2946SOL     OW 9580   0.343   3.986   0.010
 2946SOL    HW1 9581   0.385   4.065   0.044
 2946SOL    HW2 9582   0.250   4.006   0.011
 2947SOL     OW 9583   1.277   4.084  10.246
 2947SOL    HW1 9584   1.188   4.050  10.254
 2947SOL    HW2 9585   1.329   4.029  10.304
 2948SOL     OW 9586   0.829   4.291  10.756
 2948SOL    HW1 9587   0.783   4.303  10.839
 2948SOL    HW2 9588   0.762   4.260  10.695
 2949SOL     OW 9589   1.002   4.160  10.544
 2949SOL    HW1 9590   0.935   4.185  10.607
 2949SOL    HW2 9591   0.956   4.106  10.480
 2950SOL     OW 9592   1.054   4.415   9.717
 2950SOL    HW1 9593   1.046   4.466   9.797
 2950SOL    HW2 9594   0.971   4.368   9.709
 2951SOL     OW 9595   0.064   0.090  10.164
 2951SOL    HW1 9596   0.146   0.044  10.179
 2951SOL    HW2 9597   0.044   0.073  10.072
 2952SOL     OW 9598   0.899   4.067   9.498
 2952SOL    HW1 9599   0.938   4.131   9.439
 2952SOL    HW2 9600   0.911   3.983   9.454
 2953SOL     OW 9601   0.554   3.899  10.206
 2953SOL    HW1 9602   0.555   3.929  10.297
 2953SOL    HW2 9603   0.550   3.978  10.153
 2954SOL     OW 9604   1.494   4.471  10.050
 2954SOL    HW1 9605   1.484   4.413  10.125
 2954SOL    HW2 9606   1.536   0.050  10.086
 2955SOL     OW 9607   0.191   3.999  10.796
 2955SOL    HW1 9608   0.150   4.085  10.803
 2955SOL    HW2 9609   0.180   3.960  10.883
 2956SOL     OW 9610   1.399   3.828   9.750
 2956SOL    HW1 9611   1.393   3.804   9.657
 2956SOL    HW2 9612   1.493   3.837   9.765
 2957SOL     OW 9613   0.345   4.386   9.710
 2957SOL    HW1 9614   0.379   4.307   9.751
 2957SOL    HW2 9615   0.312   4.438   9.784
 2958SOL     OW 9616   0.644   3.842   9.410
 2958SOL    HW1 9617   0.701   3.767   9.430
 2958SOL    HW2 9618   0.591   3.811   9.336
 2959SOL     OW 9619   0.764   4.009  11.045
 2959SOL    HW1 9620   0.833   3.951  11.078
 2959SOL    HW2 9621   0.697   4.006   0.014
 2960SOL     OW 9622   1.346   4.316  10.743
 2960SOL    HW1 9623   1.358   4.302  10.837
 2960SOL    HW2 9624   1.392   4.398  10.725
 2961SOL     OW 9625   0.930   4.229  10.202
 2961SOL    HW1 9626   0.905   4.213  10.111
 2961SOL    HW2 9627   0.967   4.145  10.231
 2962SOL     OW 9628   0.560   3.788   9.803
 2962SOL    HW1 9629   0.479   3.785   9.855
 2962SOL    HW2 9630   0.549   3.865   9.746
 2963SOL     OW 9631   0.295   3.768   9.486
 2963SOL    HW1 9632   0.357   3.833   9.454
 2963SOL    HW2 9633   0.348   3.703   9.531
 2964SOL     OW 9634   0.943   3.975   9.764
 2964SOL    HW1 9635   0.919   4.010   9.678
 2964SOL    HW2 9636   1.037   3.990   9.771
 2965SOL     OW 9637   1.077   4.347  10.862
 2965SOL    HW1 9638   0.991   4.345  10.819
 2965SOL    HW2 9639   1.139   4.357  10.790
 2966SOL     OW 9640   1.028   4.258   9.341
 2966SOL    HW1 9641   1.013   4.347   9.307
 2966SOL    HW2 9642   1.092   4.269   9.411
 2967SOL     OW 9643   0.092   4.252  10.730
 2967SOL    HW1 9644   0.159   4.261  10.662
 2967SOL    HW2 9645   0.052   4.339  10.735
 2968SOL     OW 9646   0.556   3.951  10.477
 2968SOL    HW1 9647   0.600   3.880  10.524
 2968SOL    HW2 9648   0.464   3.944  10.505
 2969SOL     OW 9649   0.868   4.188   9.943
 2969SOL    HW1 9650   0.842   4.250   9.875
 2969SOL    HW2 9651   0.888   4.107   9.895
 2970SOL     OW 9652   1.016   3.778  10.056
 2970SOL    HW1 9653   0.958   3.771   9.981
 2970SOL    HW2 9654   0.993   3.703  10.111
 2971SOL     OW 9655   1.480   4.303  10.263
 2971SOL    HW1 9656   1.409   4.240  10.282
 2971SOL    HW2 9657   1.526   4.312  10.346
 2972SOL     OW 9658   1.406   4.297   9.384
 2972SOL    HW1 9659   1.343   4.266   9.448
 2972SOL    HW2 9660   1.489   4.257   9.410
 2973SOL     OW 9661   0.529   3.986   9.618
 2973SOL    HW1 9662   0.577   3.941   9.549
 2973SOL    HW2 9663   0.510   4.073   9.581
 2974SOL     OW 9664   0.919   3.822  10.696
 2974SOL    HW1 9665   0.943   3.801  10.606
 2974SOL    HW2 9666   0.998   3.861  10.734
 2975SOL     OW 9667   0.447   4.494  10.575
 2975SOL    HW1 9668   0.497   4.488  10.656
 2975SOL    HW2 9669   0.399   4.411  10.570
 2976SOL     OW 9670   1.265   4.097  10.594
 2976SOL    HW1 9671   1.301   4.175  10.637
 2976SOL    HW2 9672   1.177   4.123  10.566
 2977SOL     OW 9673   0.558   4.238  10.168
 2977SOL    HW1 9674   0.577   4.271  10.080
 2977SOL    HW2 9675   0.621   4.282  10.224
 2978SOL     OW 9676   1.565   4.329   9.801
 2978SOL    HW1 9677   1.546   4.396   9.867
 2978SOL    HW2 9678   1.622   4.372   9.738
 2979SOL     OW 9679   0.504   0.009  11.011
 2979SOL    HW1 9680   0.492   0.063  10.933
 2979SOL    HW2 9681   0.501   4.419  10.979
 2980SOL     OW 9682   1.206   4.249   9.568
 2980SOL    HW1 9683   1.216   4.171   9.621
 2980SOL    HW2 9684   1.159   4.311   9.624
 2981SOL     OW 9685   0.295   3.918  10.553
 2981SOL    HW1 9686   0.258   3.946  10.637
 2981SOL    HW2 9687   0.281   3.823  10.552
 2982SOL     OW 9688   0.737   4.359  10.341
 2982SOL    HW1 9689   0.811   4.320  10.294
 2982SOL    HW2 9690   0.754   4.453  10.338
 2983SOL     OW 9691   0.320   3.791   9.926
 2983SOL    HW1 9692   0.291   3.879   9.950
 2983SOL    HW2 9693   0.320   3.742  10.009
 2984SOL     OW 9694   1.615   4.090   9.674
 2984SOL    HW1 9695   1.650   4.028   9.739
 2984SOL    HW2 9696   1.588   4.165   9.725
 2985SOL     OW 9697   1.520   3.999   9.435
 2985SOL    HW1 9698   1.459   3.930   9.462
 2985SOL    HW2 9699   1.558   4.031   9.517
 2986SOL     OW 9700   0.322   0.011  10.211
 2986SOL    HW1 9701   0.400   0.066  10.223
 2986SOL    HW2 9702   0.341   4.432  10.261
 2987SOL     OW 9703   0.328   4.235  10.305
 2987SOL    HW1 9704   0.284   4.153  10.286
 2987SOL    HW2 9705   0.406   4.234  10.249
 2988SOL     OW 9706   1.157   3.925  10.784
 2988SOL    HW1 9707   1.164   3.985  10.859
 2988SOL    HW2 9708   1.201   3.972  10.712
 2989SOL     OW 9709   0.015   4.268  10.393
 2989SOL    HW1 9710   0.107   4.277  10.369
 2989SOL    HW2 9711   0.016   4.227  10.479
 2990SOL     OW 9712   1.341   0.211  10.974
 2990SOL    HW1 9713   1.401   0.253  11.035
 2990SOL    HW2 9714   1.397   0.171  10.908
 2991SOL     OW 9715   0.822   4.275   9.671
 2991SOL    HW1 9716   0.829   4.204   9.608
 2991SOL    HW2 9717   0.733   4.309   9.659
 2992SOL     OW 9718   1.631   4.309  10.491
 2992SOL    HW1 9719   1.631   4.251  10.567
 2992SOL    HW2 9720   1.721   4.306  10.458
 2993SOL     OW 9721   0.682   4.187  10.554
 2993SOL    HW1 9722   0.637   4.109  10.523
 2993SOL    HW2 9723   0.686   4.245  10.478
 2994SOL     OW 9724   0.478   4.227   9.496
 2994SOL    HW1 9725   0.496   4.306   9.546
 2994SOL    HW2 9726   0.386   4.236   9.469
 2995SOL     OW 9727   1.727   3.878   9.819
 2995SOL    HW1 9728   1.796   3.862   9.755
 2995SOL    HW2 9729   1.709   3.792   9.857
 2996SOL     OW 9730   1.279   0.133   9.986
 2996SOL    HW1 9731   1.338   0.063  10.014
 2996SOL    HW2 9732   1.326   0.176   9.914
 2997SOL     OW 9733   1.840   3.893  10.276
 2997SOL    HW1 9734   1.869   3.805  10.251
 2997SOL    HW2 9735   1.754   3.903  10.236
 2998SOL     OW 9736   0.267   4.039  10.027
 2998SOL    HW1 9737   0.190   4.090  10.002
 2998SOL    HW2 9738   0.255   4.022  10.121
 2999SOL     OW 9739   0.899   0.089   9.508
 2999SOL    HW1 9740   0.980   0.124   9.471
 2999SOL    HW2 9741   0.922   0.062   9.597
 3000SOL     OW 9742   1.066   0.287  10.063
 3000SOL    HW1 9743   1.002   0.291   9.992
 3000SOL    HW2 9744   1.133   0.226  10.032
 3001SOL     OW 9745   1.024   3.965  10.271
 3001SOL    HW1 9746   1.021   3.915  10.189
 3001SOL    HW2 9747   1.018   3.898  10.340
 3002SOL     OW 9748   1.720   4.113  10.697
 3002SOL    HW1 9749   1.793   4.176  10.700
 3002SOL    HW2 9750   1.751   4.044  10.637
 3003SOL     OW 9751   0.678   3.920  10.798
 3003SOL    HW1 9752   0.761   3.896  10.757
 3003SOL    HW2 9753   0.704   3.958  10.882
 3004SOL     OW 9754   0.065   4.045   9.360
 3004SOL    HW1 9755   4.477   4.074   9.337
 3004SOL    HW2 9756   0.115   4.126   9.369
 3005SOL     OW 9757   0.087   3.897   9.610
 3005SOL    HW1 9758   0.073   3.963   9.541
 3005SOL    HW2 9759   0.163   3.847   9.580
 3006SOL     OW 9760   0.727   4.288  11.015
 3006SOL    HW1 9761   0.781   4.335  11.078
 3006SOL    HW2 9762   0.753   4.196  11.025
 3007SOL     OW 9763   1.217   4.041   9.762
 3007SOL    HW1 9764   1.278   3.967   9.757
 3007SOL    HW2 9765   1.244   4.089   9.840
 3008SOL     OW 9766   1.748   4.055  10.970
 3008SOL    HW1 9767   1.726   4.085  10.882
 3008SOL    HW2 9768   1.667   4.063  11.020
 3009SOL     OW 9769   1.115   0.220   9.409
 3009SOL    HW1 9770   1.113   0.265   9.324
 3009SOL    HW2 9771   1.205   0.189   9.418
 3010SOL     OW 9772   1.804   3.905  10.547
 3010SOL    HW1 9773   1.814   3.810  10.558
 3010SOL    HW2 9774   1.817   3.919  10.453
 3011SOL     OW 9775   0.444   4.161   9.838
 3011SOL    HW1 9776   0.468   4.084   9.786
 3011SOL    HW2 9777   0.390   4.125   9.909
 3012SOL     OW 9778   0.310   4.249  10.569
 3012SOL    HW1 9779   0.369   4.187  10.612
 3012SOL    HW2 9780   0.326   4.237  10.475
 3013SOL     OW 9781   1.429   3.950  10.427
 3013SOL    HW1 9782   1.452   3.868  10.471
 3013SOL    HW2 9783   1.380   4.000  10.493
 3014SOL     OW 9784   1.008   3.740  10.445
 3014SOL    HW1 9785   0.955   3.676  10.399
 3014SOL    HW2 9786   1.096   3.702  10.447
 3015SOL     OW 9787   1.357   3.775   9.480
 3015SOL    HW1 9788   1.391   3.704   9.425
 3015SOL    HW2 9789   1.268   3.749   9.502
 3016SOL     OW 9790   1.296   4.173   9.987
 3016SOL    HW1 9791   1.275   4.266  10.000
 3016SOL    HW2 9792   1.295   4.136  10.075
 3017SOL     OW 9793   1.583   3.918  10.192
 3017SOL    HW1 9794   1.528   3.945  10.265
 3017SOL    HW2 9795   1.585   3.995  10.134
 3018SOL     OW 9796   2.065   0.603   0.104
 3018SOL    HW1 9797   1.986   0.618   0.155
 3018SOL    HW2 9798   2.051   0.654   0.024
 3019SOL     OW 9799   2.066   0.304   0.992
 3019SOL    HW1 9800   2.098   0.270   1.075
 3019SOL    HW2 9801   1.985   0.255   0.976
 3020SOL     OW 9802   1.865   0.393   0.634
 3020SOL    HW1 9803   1.779   0.410   0.672
 3020SOL    HW2 9804   1.850   0.321   0.572
 3021SOL     OW 9805   2.432   1.297   1.183
 3021SOL    HW1 9806   2.345   1.302   1.143
 3021SOL    HW2 9807   2.449   1.385   1.214
 3022SOL     OW 9808   3.434   1.514   0.709
 3022SOL    HW1 9809   3.390   1.490   0.790
 3022SOL    HW2 9810   3.364   1.517   0.644
 3023SOL     OW 9811   3.004   0.696   0.690
 3023SOL    HW1 9812   3.048   0.781   0.685
 3023SOL    HW2 9813   2.951   0.702   0.770
 3024SOL     OW 9814   3.645   0.599   0.206
 3024SOL    HW1 9815   3.578   0.620   0.141
 3024SOL    HW2 9816   3.607   0.527   0.257
 3025SOL     OW 9817   2.608   1.137   1.047
 3025SOL    HW1 9818   2.542   1.175   1.105
 3025SOL    HW2 9819   2.648   1.212   1.004
 3026SOL     OW 9820   2.735   0.763   1.824
 3026SOL    HW1 9821   2.721   0.833   1.888
 3026SOL    HW2 9822   2.758   0.809   1.743
 3027SOL     OW 9823   2.548   0.995   0.645
 3027SOL    HW1 9824   2.614   0.987   0.714
 3027SOL    HW2 9825   2.480   1.050   0.684
 3028SOL     OW 9826   2.576   1.149   1.819
 3028SOL    HW1 9827   2.624   1.227   1.850
 3028SOL    HW2 9828   2.496   1.184   1.780
 3029SOL     OW 9829   2.193   1.414   1.069
 3029SOL    HW1 9830   2.118   1.377   1.024
 3029SOL    HW2 9831   2.238   1.466   1.002
 3030SOL     OW 9832   3.321   1.502   1.362
 3030SOL    HW1 9833   3.375   1.580   1.371
 3030SOL    HW2 9834   3.252   1.512   1.428
 3031SOL     OW 9835   2.308   0.391   1.480
 3031SOL    HW1 9836   2.389   0.341   1.486
 3031SOL    HW2 9837   2.238   0.327   1.496
 3032SOL     OW 9838   3.465   0.440   0.739
 3032SOL    HW1 9839   3.383   0.454   0.692
 3032SOL    HW2 9840   3.474   0.518   0.795
 3033SOL     OW 9841   2.083   1.715   0.476
 3033SOL    HW1 9842   2.119   1.747   0.558
 3033SOL    HW2 9843   2.158   1.708   0.418
 3034SOL     OW 9844   3.000   1.342   1.695
 3034SOL    HW1 9845   3.040   1.336   1.781
 3034SOL    HW2 9846   2.948   1.263   1.686
 3035SOL     OW 9847   2.083   1.441   0.534
 3035SOL    HW1 9848   2.058   1.533   0.539
 3035SOL    HW2 9849   2.029   1.398   0.600
 3036SOL     OW 9850   2.131   1.091   0.892
 3036SOL    HW1 9851   2.124   1.003   0.929
 3036SOL    HW2 9852   2.072   1.144   0.946
 3037SOL     OW 9853   2.460   1.791   1.418
 3037SOL    HW1 9854   2.382   1.774   1.470
 3037SOL    HW2 9855   2.488   1.879   1.445
 3038SOL     OW 9856   2.439   0.992   0.151
 3038SOL    HW1 9857   2.485   1.041   0.083
 3038SOL    HW2 9858   2.480   1.019   0.233
 3039SOL     OW 9859   3.436   0.120   1.462
 3039SOL    HW1 9860   3.478   0.185   1.407
 3039SOL    HW2 9861   3.427   0.163   1.547
 3040SOL     OW 9862   1.981   0.656   0.561
 3040SOL    HW1 9863   1.949   0.568   0.583
 3040SOL    HW2 9864   1.973   0.706   0.642
 3041SOL     OW 9865   3.706   1.755   0.327
 3041SOL    HW1 9866   3.775   1.728   0.388
 3041SOL    HW2 9867   3.725   1.847   0.309
 3042SOL     OW 9868   1.891   1.595   0.113
 3042SOL    HW1 9869   1.880   1.502   0.134
 3042SOL    HW2 9870   1.870   1.640   0.195
 3043SOL     OW 9871   3.552   0.920   0.647
 3043SOL    HW1 9872   3.635   0.878   0.626
 3043SOL    HW2 9873   3.531   0.972   0.570
 3044SOL     OW 9874   3.512   1.101   0.432
 3044SOL    HW1 9875   3.595   1.108   0.384
 3044SOL    HW2 9876   3.519   1.166   0.502
 3045SOL     OW 9877   1.983   0.748   1.581
 3045SOL    HW1 9878   2.073   0.781   1.585
 3045SOL    HW2 9879   1.929   0.827   1.582
 3046SOL     OW 9880   2.482   1.390   0.734
 3046SOL    HW1 9881   2.437   1.306   0.743
 3046SOL    HW2 9882   2.464   1.418   0.644
 3047SOL     OW 9883   3.147   1.236   1.420
 3047SOL    HW1 9884   3.177   1.167   1.361
 3047SOL    HW2 9885   3.206   1.230   1.495
 3048SOL     OW 9886   2.685   0.014   0.559
 3048SOL    HW1 9887   2.725   0.091   0.518
 3048SOL    HW2 9888   2.590   0.030   0.552
 3049SOL     OW 9889   2.050   0.960   1.282
 3049SOL    HW1 9890   2.136   0.922   1.265
 3049SOL    HW2 9891   1.992   0.916   1.219
 3050SOL     OW 9892   3.368   1.012   0.209
 3050SOL    HW1 9893   3.305   0.951   0.247
 3050SOL    HW2 9894   3.423   1.039   0.282
 3051SOL     OW 9895   3.052   1.811   1.624
 3051SOL    HW1 9896   3.056   1.870   1.549
 3051SOL    HW2 9897   3.067   1.724   1.587
 3052SOL     OW 9898   2.179   0.251   1.778
 3052SOL    HW1 9899   2.243   0.313   1.812
 3052SOL    HW2 9900   2.105   0.257   1.838
 3053SOL     OW 9901   3.329   1.419   0.946
 3053SOL    HW1 9902   3.263   1.435   1.013
 3053SOL    HW2 9903   3.316   1.328   0.920
 3054SOL     OW 9904   3.514   1.755   0.578
 3054SOL    HW1 9905   3.496   1.722   0.490
 3054SOL    HW2 9906   3.497   1.680   0.635
 3055SOL     OW 9907   2.448   0.712   0.264
 3055SOL    HW1 9908   2.456   0.799   0.226
 3055SOL    HW2 9909   2.386   0.723   0.336
 3056SOL     OW 9910   3.153   0.375   0.932
 3056SOL    HW1 9911   3.063   0.346   0.921
 3056SOL    HW2 9912   3.192   0.312   0.992
 3057SOL     OW 9913   3.443   1.673   0.315
 3057SOL    HW1 9914   3.535   1.697   0.306
 3057SOL    HW2 9915   3.415   1.655   0.225
 3058SOL     OW 9916   2.658   0.621   1.452
 3058SOL    HW1 9917   2.630   0.593   1.539
 3058SOL    HW2 9918   2.626   0.553   1.393
 3059SOL     OW 9919   3.250   0.484   1.676
 3059SOL    HW1 9920   3.255   0.528   1.761
 3059SOL    HW2 9921   3.317   0.415   1.681
 3060SOL     OW 9922   2.812   0.886   1.587
 3060SOL    HW1 9923   2.866   0.817   1.549
 3060SOL    HW2 9924   2.763   0.922   1.513
 3061SOL     OW 9925   2.862   0.417   1.230
 3061SOL    HW1 9926   2.771   0.423   1.258
 3061SOL    HW2 9927   2.859   0.363   1.151
 3062SOL     OW 9928   2.913   0.703   0.425
 3062SOL    HW1 9929   2.935   0.694   0.518
 3062SOL    HW2 9930   2.829   0.658   0.416
 3063SOL     OW 9931   1.951   0.823   0.776
 3063SOL    HW1 9932   2.031   0.816   0.829
 3063SOL    HW2 9933   1.905   0.899   0.812
 3064SOL     OW 9934   1.974   1.806   1.573
 3064SOL    HW1 9935   1.968   1.796   1.668
 3064SOL    HW2 9936   1.912   1.876   1.552
 3065SOL     OW 9937   2.732   0.362   0.200
 3065SOL    HW1 9938   2.787   0.417   0.144
 3065SOL    HW2 9939   2.770   0.274   0.191
 3066SOL     OW 9940   3.563   0.570   1.830
 3066SOL    HW1 9941   3.529   0.645   1.780
 3066SOL    HW2 9942   3.596   0.510   1.763
 3067SOL     OW 9943   3.244   1.142   0.540
 3067SOL    HW1 9944   3.322   1.130   0.486
 3067SOL    HW2 9945   3.190   1.204   0.492
 3068SOL     OW 9946   2.397   0.211   0.902
 3068SOL    HW1 9947   2.419   0.228   0.994
 3068SOL    HW2 9948   2.395   0.297   0.861
 3069SOL     OW 9949   2.859   1.442   0.471
 3069SOL    HW1 9950   2.829   1.518   0.421
 3069SOL    HW2 9951   2.836   1.462   0.562
 3070SOL     OW 9952   2.214   1.792   0.831
 3070SOL    HW1 9953   2.259   1.711   0.853
 3070SOL    HW2 9954   2.277   1.861   0.851
 3071SOL     OW 9955   3.662   1.054   0.874
 3071SOL    HW1 9956   3.610   1.034   0.796
 3071SOL    HW2 9957   3.598   1.060   0.945
 3072SOL     OW 9958   3.088   1.540   1.513
 3072SOL    HW1 9959   3.077   1.468   1.575
 3072SOL    HW2 9960   3.021   1.525   1.446
 3073SOL     OW 9961   2.173   0.964   0.281
 3073SOL    HW1 9962   2.251   0.987   0.231
 3073SOL    HW2 9963   2.150   0.876   0.251
 3074SOL     OW 9964   3.345   0.747   0.719
 3074SOL    HW1 9965   3.340   0.709   0.806
 3074SOL    HW2 9966   3.422   0.804   0.722
 3075SOL     OW 9967   2.333   1.267   1.740
 3075SOL    HW1 9968   2.307   1.271   1.648
 3075SOL    HW2 9969   2.250   1.263   1.788
 3076SOL     OW 9970   2.968   1.784   0.224
 3076SOL    HW1 9971   2.906   1.735   0.278
 3076SOL    HW2 9972   3.011   1.718   0.170
 3077SOL     OW 9973   2.049   0.268   1.519
 3077SOL    HW1 9974   1.984   0.339   1.513
 3077SOL    HW2 9975   2.075   0.269   1.611
 3078SOL     OW 9976   3.490   1.372   0.091
 3078SOL    HW1 9977   3.447   1.458   0.080
 3078SOL    HW2 9978   3.425   1.309   0.060
 3079SOL     OW 9979   2.332   1.735   0.337
 3079SOL    HW1 9980   2.370   1.805   0.389
 3079SOL    HW2 9981   2.402   1.707   0.279
 3080SOL     OW 9982   3.291   0.152   0.427
 3080SOL    HW1 9983   3.276   0.110   0.342
 3080SOL    HW2 9984   3.384   0.140   0.443
 3081SOL     OW 9985   2.110   1.753   1.212
 3081SOL    HW1 9986   2.164   1.686   1.252
 3081SOL    HW2 9987   2.115   1.735   1.118
 3082SOL     OW 9988   2.805   1.696   0.894
 3082SOL    HW1 9989   2.885   1.648   0.915
 3082SOL    HW2 9990   2.765   1.646   0.824
 3083SOL     OW 9991   2.256   0.690   0.469
 3083SOL    HW1 9992   2.277   0.598   0.487
 3083SOL    HW2 9993   2.164   0.698   0.493
 3084SOL     OW 9994   3.385   0.234   1.723
 3084SOL    HW1 9995   3.385   0.254   1.816
 3084SOL    HW2 9996   3.304   0.185   1.709
 3085SOL     OW 9997   2.460   0.087   0.128
 3085SOL    HW1 9998   2.554   0.073   0.135
 3085SOL    HW2 9999   2.445   0.105   0.035
 3086SOL     OW10000   2.630   0.271   1.757
 3086SOL    HW110001   2.701   0.206   1.752
 3086SOL    HW210002   2.593   0.259   1.844
 3087SOL     OW10003   2.740   1.525   1.194
 3087SOL    HW110004   2.722   1.486   1.108
 3087SOL    HW210005   2.809   1.469   1.231
 3088SOL     OW10006   3.200   0.590   1.428
 3088SOL    HW110007   3.228   0.563   1.515
 3088SOL    HW210008   3.235   0.679   1.418
 3089SOL     OW10009   2.681   1.389   0.948
 3089SOL    HW110010   2.766   1.377   0.904
 3089SOL    HW210011   2.619   1.395   0.876
 3090SOL     OW10012   2.791   0.526   0.895
 3090SOL    HW110013   2.771   0.525   0.802
 3090SOL    HW210014   2.821   0.437   0.914
 3091SOL     OW10015   2.420   0.083   0.531
 3091SOL    HW110016   2.335   0.051   0.559
 3091SOL    HW210017   2.402   0.139   0.456
 3092SOL     OW10018   3.283   1.199   0.025
 3092SOL    HW110019   3.311   1.129   0.084
 3092SOL    HW210020   3.201   1.230   0.062
 3093SOL     OW10021   2.143   0.051   0.203
 3093SOL    HW110022   2.218   0.094   0.162
 3093SOL    HW210023   2.182   4.500   0.274
 3094SOL     OW10024   2.822   0.225   0.446
 3094SOL    HW110025   2.770   0.291   0.400
 3094SOL    HW210026   2.911   0.260   0.447
 3095SOL     OW10027   2.942   0.686   1.457
 3095SOL    HW110028   2.873   0.619   1.456
 3095SOL    HW210029   3.023   0.636   1.446
 3096SOL     OW10030   3.080   1.574   0.796
 3096SOL    HW110031   3.095   1.637   0.726
 3096SOL    HW210032   3.151   1.588   0.858
 3097SOL     OW10033   2.338   1.154   0.730
 3097SOL    HW110034   2.272   1.133   0.796
 3097SOL    HW210035   2.291   1.146   0.647
 3098SOL     OW10036   3.126   1.793   0.610
 3098SOL    HW110037   3.175   1.855   0.556
 3098SOL    HW210038   3.058   1.845   0.652
 3099SOL     OW10039   2.882   0.523   0.043
 3099SOL    HW110040   2.843   0.609   0.025
 3099SOL    HW210041   2.954   0.541   0.102
 3100SOL     OW10042   1.951   0.548   1.397
 3100SOL    HW110043   2.042   0.553   1.367
 3100SOL    HW210044   1.942   0.620   1.460
 3101SOL     OW10045   2.420   0.250   1.172
 3101SOL    HW110046   2.443   0.168   1.216
 3101SOL    HW210047   2.327   0.263   1.192
 3102SOL     OW10048   2.721   0.514   0.632
 3102SOL    HW110049   2.688   0.543   0.547
 3102SOL    HW210050   2.675   0.431   0.648
 3103SOL     OW10051   2.800   0.015   0.808
 3103SOL    HW110052   2.762   0.016   0.720
 3103SOL    HW210053   2.830   4.425   0.820
 3104SOL     OW10054   3.301   1.160   0.856
 3104SOL    HW110055   3.231   1.095   0.857
 3104SOL    HW210056   3.326   1.168   0.764
 3105SOL     OW10057   3.326   0.610   0.964
 3105SOL    HW110058   3.268   0.534   0.965
 3105SOL    HW210059   3.381   0.600   1.042
 3106SOL     OW10060   3.711   0.808   0.376
 3106SOL    HW110061   3.762   0.759   0.440
 3106SOL    HW210062   3.684   0.742   0.312
 3107SOL     OW10063   2.357   1.423   0.173
 3107SOL    HW110064   2.280   1.396   0.224
 3107SOL    HW210065   2.353   1.370   0.093
 3108SOL     OW10066   3.540   1.264   0.643
 3108SOL    HW110067   3.635   1.263   0.658
 3108SOL    HW210068   3.514   1.353   0.663
 3109SOL     OW10069   3.254   0.566   0.079
 3109SOL    HW110070   3.190   0.553   0.149
 3109SOL    HW210071   3.307   0.486   0.081
 3110SOL     OW10072   2.378   0.260   0.323
 3110SOL    HW110073   2.412   0.199   0.258
 3110SOL    HW210074   2.358   0.339   0.274
 3111SOL     OW10075   3.610   1.242   1.562
 3111SOL    HW110076   3.697   1.204   1.555
 3111SOL    HW210077   3.626   1.332   1.592
 3112SOL     OW10078   2.916   1.355   1.333
 3112SOL    HW110079   2.840   1.323   1.382
 3112SOL    HW210080   2.991   1.312   1.374
 3113SOL     OW10081   3.472   1.628   1.659
 3113SOL    HW110082   3.463   1.662   1.570
 3113SOL    HW210083   3.553   1.578   1.657
 3114SOL     OW10084   2.999   1.213   1.102
 3114SOL    HW110085   2.936   1.248   1.165
 3114SOL    HW210086   2.969   1.245   1.017
 3115SOL     OW10087   3.483   1.095   1.077
 3115SOL    HW110088   3.477   1.159   1.148
 3115SOL    HW210089   3.408   1.114   1.021
 3116SOL     OW10090   2.756   0.139   1.382
 3116SOL    HW110091   2.780   0.091   1.303
 3116SOL    HW210092   2.840   0.161   1.423
 3117SOL     OW10093   2.846   1.115   1.724
 3117SOL    HW110094   2.755   1.132   1.748
 3117SOL    HW210095   2.843   1.037   1.669
 3118SOL     OW10096   2.575   1.059   0.376
 3118SOL    HW110097   2.562   1.038   0.469
 3118SOL    HW210098   2.650   1.004   0.350
 3119SOL     OW10099   2.285   0.821   1.252
 3119SOL    HW110100   2.353   0.830   1.318
 3119SOL    HW210101   2.250   0.732   1.264
 3120SOL     OW10102   3.130   0.373   1.277
 3120SOL    HW110103   3.162   0.452   1.320
 3120SOL    HW210104   3.040   0.394   1.251
 3121SOL     OW10105   1.929   1.567   1.352
 3121SOL    HW110106   1.900   1.645   1.304
 3121SOL    HW210107   2.024   1.576   1.358
 3122SOL     OW10108   2.194   1.131   0.499
 3122SOL    HW110109   2.195   1.204   0.438
 3122SOL    HW210110   2.192   1.053   0.443
 3123SOL     OW10111   2.414   0.519   0.856
 3123SOL    HW110112   2.424   0.580   0.783
 3123SOL    HW210113   2.480   0.547   0.920
 3124SOL     OW10114   3.108   1.346   0.401
 3124SOL    HW110115   3.163   1.419   0.428
 3124SOL    HW210116   3.020   1.370   0.430
 3125SOL     OW10117   3.152   1.461   1.148
 3125SOL    HW110118   3.206   1.464   1.226
 3125SOL    HW210119   3.097   1.383   1.160
 3126SOL     OW10120   3.442   0.627   0.478
 3126SOL    HW110121   3.391   0.659   0.553
 3126SOL    HW210122   3.470   0.706   0.433
 3127SOL     OW10123   2.214   1.517   1.316
 3127SOL    HW110124   2.199   1.474   1.232
 3127SOL    HW210125   2.309   1.531   1.320
 3128SOL     OW10126   2.283   0.741   1.606
 3128SOL    HW110127   2.341   0.788   1.546
 3128SOL    HW210128   2.330   0.660   1.625
 3129SOL     OW10129   3.471   0.781   1.686
 3129SOL    HW110130   3.385   0.823   1.680
 3129SOL    HW210131   3.523   0.822   1.617
 3130SOL     OW10132   2.854   0.092   1.710
 3130SOL    HW110133   2.904   0.165   1.674
 3130SOL    HW210134   2.876   0.018   1.654
 3131SOL     OW10135   2.364   0.039   1.765
 3131SOL    HW110136   2.382   0.019   1.673
 3131SOL    HW210137   2.297   0.106   1.762
 3132SOL     OW10138   2.446   0.875   1.031
 3132SOL    HW110139   2.480   0.965   1.035
 3132SOL    HW210140   2.390   0.868   1.108
 3133SOL     OW10141   3.207   0.858   1.021
 3133SOL    HW110142   3.121   0.842   0.984
 3133SOL    HW210143   3.254   0.775   1.009
 3134SOL     OW10144   3.054   0.532   0.261
 3134SOL    HW110145   3.065   0.455   0.318
 3134SOL    HW210146   3.013   0.597   0.317
 3135SOL     OW10147   2.150   0.229   1.244
 3135SOL    HW110148   2.101   0.246   1.325
 3135SOL    HW210149   2.193   0.145   1.259
 3136SOL     OW10150   1.906   1.308   1.273
 3136SOL    HW110151   1.940   1.255   1.345
 3136SOL    HW210152   1.912   1.398   1.304
 3137SOL     OW10153   2.581   0.628   1.049
 3137SOL    HW110154   2.658   0.615   0.995
 3137SOL    HW210155   2.553   0.718   1.029
 3138SOL     OW10156   3.601   0.959   1.858
 3138SOL    HW110157   3.558   0.893   1.806
 3138SOL    HW210158   3.541   0.977   1.930
 3139SOL     OW10159   2.160   0.048   0.651
 3139SOL    HW110160   2.144   0.142   0.651
 3139SOL    HW210161   2.170   0.025   0.743
 3140SOL     OW10162   3.493   0.391   0.347
 3140SOL    HW110163   3.511   0.320   0.409
 3140SOL    HW210164   3.464   0.464   0.401
 3141SOL     OW10165   2.897   0.766   0.960
 3141SOL    HW110166   2.885   0.781   1.054
 3141SOL    HW210167   2.866   0.677   0.946
 3142SOL     OW10168   2.844   1.567   1.722
 3142SOL    HW110169   2.827   1.610   1.638
 3142SOL    HW210170   2.887   1.484   1.698
 3143SOL     OW10171   3.713   1.501   1.604
 3143SOL    HW110172   3.734   1.529   1.515
 3143SOL    HW210173   3.794   1.515   1.654
 3144SOL     OW10174   2.215   0.916   1.810
 3144SOL    HW110175   2.295   0.936   1.857
 3144SOL    HW210176   2.241   0.852   1.743
 3145SOL     OW10177   3.379   0.302   0.103
 3145SOL    HW110178   3.333   0.222   0.128
 3145SOL    HW210179   3.426   0.329   0.182
 3146SOL     OW10180   3.146   0.814   0.033
 3146SOL    HW110181   3.190   0.729   0.041
 3146SOL    HW210182   3.185   0.854  11.056
 3147SOL     OW10183   2.931   1.339   0.856
 3147SOL    HW110184   2.936   1.267   0.793
 3147SOL    HW210185   2.989   1.406   0.820
 3148SOL     OW10186   2.170   0.810   0.945
 3148SOL    HW110187   2.263   0.832   0.939
 3148SOL    HW210188   2.169   0.720   0.978
 3149SOL     OW10189   2.196   0.536   1.014
 3149SOL    HW110190   2.152   0.453   0.997
 3149SOL    HW210191   2.273   0.535   0.957
 3150SOL     OW10192   3.002   0.368   1.705
 3150SOL    HW110193   2.947   0.430   1.754
 3150SOL    HW210194   3.084   0.415   1.690
 3151SOL     OW10195   3.009   0.217   1.475
 3151SOL    HW110196   3.009   0.280   1.546
 3151SOL    HW210197   3.057   0.261   1.404
 3152SOL     OW10198   1.873   1.324   0.193
 3152SOL    HW110199   1.785   1.337   0.156
 3152SOL    HW210200   1.872   1.234   0.226
 3153SOL     OW10201   1.951   1.780   0.925
 3153SOL    HW110202   1.922   1.698   0.884
 3153SOL    HW210203   2.038   1.795   0.886
 3154SOL     OW10204   2.354   1.568   0.905
 3154SOL    HW110205   2.422   1.629   0.930
 3154SOL    HW210206   2.398   1.505   0.847
 3155SOL     OW10207   2.834   0.791   1.224
 3155SOL    HW110208   2.894   0.771   1.297
 3155SOL    HW210209   2.753   0.746   1.248
 3156SOL     OW10210   1.894   0.547   1.120
 3156SOL    HW110211   1.969   0.529   1.064
 3156SOL    HW210212   1.929   0.549   1.209
 3157SOL     OW10213   2.045   0.525   1.726
 3157SOL    HW110214   2.126   0.509   1.677
 3157SOL    HW210215   2.005   0.601   1.683
 3158SOL     OW10216   3.244   0.933   1.656
 3158SOL    HW110217   3.264   1.026   1.652
 3158SOL    HW210218   3.238   0.906   1.565
 3159SOL     OW10219   2.673   0.578   0.364
 3159SOL    HW110220   2.680   0.503   0.305
 3159SOL    HW210221   2.598   0.627   0.331
 3160SOL     OW10222   3.498   0.602   1.179
 3160SOL    HW110223   3.489   0.543   1.254
 3160SOL    HW210224   3.587   0.584   1.147
 3161SOL     OW10225   2.108   1.542   1.726
 3161SOL    HW110226   2.076   1.603   1.792
 3161SOL    HW210227   2.110   1.457   1.771
 3162SOL     OW10228   2.579   0.455   1.257
 3162SOL    HW110229   2.525   0.380   1.231
 3162SOL    HW210230   2.572   0.516   1.183
 3163SOL     OW10231   2.783   1.678   1.472
 3163SOL    HW110232   2.760   1.638   1.388
 3163SOL    HW210233   2.780   1.772   1.455
 3164SOL     OW10234   2.314   0.481   0.169
 3164SOL    HW110235   2.373   0.552   0.193
 3164SOL    HW210236   2.229   0.524   0.156
 3165SOL     OW10237   2.002   1.142   1.476
 3165SOL    HW110238   2.004   1.095   1.559
 3165SOL    HW210239   2.019   1.075   1.410
 3166SOL     OW10240   3.182   1.043   1.218
 3166SOL    HW110241   3.202   0.979   1.150
 3166SOL    HW210242   3.117   1.101   1.179
 3167SOL     OW10243   3.171   0.849   0.311
 3167SOL    HW110244   3.096   0.817   0.360
 3167SOL    HW210245   3.149   0.833   0.219
 3168SOL     OW10246   3.644   1.735   1.159
 3168SOL    HW110247   3.703   1.762   1.088
 3168SOL    HW210248   3.615   1.647   1.134
 3169SOL     OW10249   3.103   1.732   1.106
 3169SOL    HW110250   3.185   1.756   1.064
 3169SOL    HW210251   3.112   1.639   1.126
 3170SOL     OW10252   1.952   1.262   1.011
 3170SOL    HW110253   1.933   1.278   1.103
 3170SOL    HW210254   1.877   1.211   0.980
 3171SOL     OW10255   2.543   1.669   1.738
 3171SOL    HW110256   2.485   1.745   1.732
 3171SOL    HW210257   2.612   1.687   1.674
 3172SOL     OW10258   2.740   0.066   0.131
 3172SOL    HW110259   2.826   0.094   0.101
 3172SOL    HW210260   2.758   0.001   0.199
 3173SOL     OW10261   3.581   0.134   0.483
 3173SOL    HW110262   3.649   0.147   0.417
 3173SOL    HW210263   3.613   0.061   0.537
 3174SOL     OW10264   3.255   1.568   0.492
 3174SOL    HW110265   3.314   1.600   0.425
 3174SOL    HW210266   3.205   1.645   0.520
 3175SOL     OW10267   1.986   1.779   1.847
 3175SOL    HW110268   1.935   1.709   1.887
 3175SOL    HW210269   2.045   1.809   1.917
 3176SOL     OW10270   3.142   0.931   0.674
 3176SOL    HW110271   3.215   0.869   0.681
 3176SOL    HW210272   3.176   1.002   0.619
 3177SOL     OW10273   2.666   1.277   1.423
 3177SOL    HW110274   2.638   1.318   1.505
 3177SOL    HW210275   2.595   1.296   1.362
 3178SOL     OW10276   2.534   1.625   0.175
 3178SOL    HW110277   2.556   1.634   0.082
 3178SOL    HW210278   2.477   1.548   0.178
 3179SOL     OW10279   3.481   1.728   1.392
 3179SOL    HW110280   3.535   1.732   1.313
 3179SOL    HW210281   3.467   1.819   1.417
 3180SOL     OW10282   3.703   0.151   0.965
 3180SOL    HW110283   3.734   0.071   0.923
 3180SOL    HW210284   3.617   0.166   0.927
 3181SOL     OW10285   2.120   0.316   0.712
 3181SOL    HW110286   2.034   0.352   0.688
 3181SOL    HW210287   2.117   0.312   0.808
 3182SOL     OW10288   3.084   1.598   0.058
 3182SOL    HW110289   3.074   1.504   0.078
 3182SOL    HW210290   3.019   1.615  11.090
 3183SOL     OW10291   2.685   1.007   1.376
 3183SOL    HW110292   2.728   0.999   1.291
 3183SOL    HW210293   2.682   1.101   1.393
 3184SOL     OW10294   2.776   0.904   0.279
 3184SOL    HW110295   2.840   0.946   0.222
 3184SOL    HW210296   2.827   0.844   0.333
 3185SOL     OW10297   3.358   1.622   0.051
 3185SOL    HW110298   3.262   1.614   0.052
 3185SOL    HW210299   3.380   1.636  11.060
 3186SOL     OW10300   2.231   1.300   1.495
 3186SOL    HW110301   2.220   1.377   1.439
 3186SOL    HW210302   2.152   1.248   1.479
 3187SOL     OW10303   3.470   1.285   1.280
 3187SOL    HW110304   3.527   1.267   1.354
 3187SOL    HW210305   3.409   1.352   1.312
 3188SOL     OW10306   2.923   1.110   0.711
 3188SOL    HW110307   2.851   1.059   0.748
 3188SOL    HW210308   2.988   1.044   0.686
 3189SOL     OW10309   2.869   0.246   1.012
 3189SOL    HW110310   2.871   0.228   0.918
 3189SOL    HW210311   2.856   0.160   1.052
 3190SOL     OW10312   2.467   1.489   0.480
 3190SOL    HW110313   2.513   1.437   0.415
 3190SOL    HW210314   2.397   1.533   0.431
 3191SOL     OW10315   3.588   0.395   1.374
 3191SOL    HW110316   3.662   0.455   1.374
 3191SOL    HW210317   3.615   0.323   1.317
 3192SOL     OW10318   2.131   1.333   0.296
 3192SOL    HW110319   2.045   1.333   0.254
 3192SOL    HW210320   2.116   1.376   0.380
 3193SOL     OW10321   1.977   1.032   1.726
 3193SOL    HW110322   1.900   1.005   1.776
 3193SOL    HW210323   2.051   0.989   1.768
 3194SOL     OW10324   2.518   0.206   1.506
 3194SOL    HW110325   2.596   0.182   1.456
 3194SOL    HW210326   2.551   0.231   1.592
 3195SOL     OW10327   1.938   0.332   0.059
 3195SOL    HW110328   1.869   0.317  11.094
 3195SOL    HW210329   1.951   0.426   0.058
 3196SOL     OW10330   3.287   0.857   1.396
 3196SOL    HW110331   3.237   0.918   1.342
 3196SOL    HW210332   3.375   0.860   1.360
 3197SOL     OW10333   1.924   0.191   0.311
 3197SOL    HW110334   1.918   0.250   0.236
 3197SOL    HW210335   1.996   0.132   0.289
 3198SOL     OW10336   3.050   1.333   0.124
 3198SOL    HW110337   2.956   1.322   0.114
 3198SOL    HW210338   3.065   1.325   0.218
 3199SOL     OW10339   2.483   0.831   1.436
 3199SOL    HW110340   2.539   0.907   1.421
 3199SOL    HW210341   2.543   0.757   1.444
 3200SOL     OW10342   3.345   1.786   0.983
 3200SOL    HW110343   3.368   1.851   0.917
 3200SOL    HW210344   3.429   1.755   1.017
 3201SOL     OW10345   2.577   0.559   1.702
 3201SOL    HW110346   2.622   0.620   1.761
 3201SOL    HW210347   2.600   0.472   1.736
 3202SOL     OW10348   3.336   1.194   1.629
 3202SOL    HW110349   3.324   1.209   1.722
 3202SOL    HW210350   3.428   1.214   1.613
 3203SOL     OW10351   2.238   1.739   1.571
 3203SOL    HW110352   2.152   1.774   1.546
 3203SOL    HW210353   2.219   1.653   1.609
 3204SOL     OW10354   3.525   0.879   1.255
 3204SOL    HW110355   3.521   0.794   1.211
 3204SOL    HW210356   3.515   0.943   1.185
 3205SOL     OW10357   3.081   0.332   0.446
 3205SOL    HW110358   3.152   0.270   0.431
 3205SOL    HW210359   3.107   0.379   0.525
 3206SOL     OW10360   2.440   0.733   0.677
 3206SOL    HW110361   2.485   0.817   0.664
 3206SOL    HW210362   2.379   0.727   0.604
 3207SOL     OW10363   3.617   0.374   1.644
 3207SOL    HW110364   3.603   0.387   1.550
 3207SOL    HW210365   3.541   0.322   1.672
 3208SOL     OW10366   3.613   0.933   1.510
 3208SOL    HW110367   3.599   1.026   1.523
 3208SOL    HW210368   3.593   0.918   1.418
 3209SOL     OW10369   2.777   1.355   0.083
 3209SOL    HW110370   2.711   1.347   0.153
 3209SOL    HW210371   2.751   1.433   0.035
 3210SOL     OW10372   2.534   1.766   0.935
 3210SOL    HW110373   2.520   1.858   0.910
 3210SOL    HW210374   2.629   1.755   0.934
 3211SOL     OW10375   2.732   0.971   0.854
 3211SOL    HW110376   2.783   0.900   0.891
 3211SOL    HW210377   2.692   1.014   0.929
 3212SOL     OW10378   2.938   0.987   0.080
 3212SOL    HW110379   2.910   1.012  11.093
 3212SOL    HW210380   3.014   0.931   0.066
 3213SOL     OW10381   3.710   1.555   0.843
 3213SOL    HW110382   3.631   1.542   0.790
 3213SOL    HW210383   3.705   1.487   0.910
 3214SOL     OW10384   2.087   1.295   1.854
 3214SOL    HW110385   2.026   1.230   1.818
 3214SOL    HW210386   2.059   1.306   1.944
 3215SOL     OW10387   1.954   1.227   0.666
 3215SOL    HW110388   1.962   1.183   0.751
 3215SOL    HW210389   2.023   1.188   0.613
 3216SOL     OW10390   2.547   1.407   1.631
 3216SOL    HW110391   2.468   1.365   1.665
 3216SOL    HW210392   2.544   1.495   1.668
 3217SOL     OW10393   3.662   0.175   1.237
 3217SOL    HW110394   3.657   0.081   1.255
 3217SOL    HW210395   3.682   0.180   1.144
 3218SOL     OW10396   2.298   0.431   0.531
 3218SOL    HW110397   2.319   0.361   0.469
 3218SOL    HW210398   2.243   0.388   0.596
 3219SOL     OW10399   3.557   1.487   1.093
 3219SOL    HW110400   3.479   1.466   1.041
 3219SOL    HW210401   3.561   1.416   1.158
 3220SOL     OW10402   2.198   0.563   1.293
 3220SOL    HW110403   2.252   0.504   1.346
 3220SOL    HW210404   2.216   0.536   1.203
 3221SOL     OW10405   2.694   1.576   0.675
 3221SOL    HW110406   2.669   1.634   0.603
 3221SOL    HW210407   2.620   1.515   0.684
 3222SOL     OW10408   3.292   0.219   1.115
 3222SOL    HW110409   3.327   0.147   1.167
 3222SOL    HW210410   3.241   0.271   1.177
 3223SOL     OW10411   2.856   0.001   1.156
 3223SOL    HW110412   2.819   4.412   1.152
 3223SOL    HW210413   2.951   4.487   1.164
 3224SOL     OW10414   2.635   1.326   0.325
 3224SOL    HW110415   2.609   1.235   0.340
 3224SOL    HW210416   2.717   1.335   0.374
 3225SOL     OW10417   2.485   1.553   1.285
 3225SOL    HW110418   2.481   1.637   1.332
 3225SOL    HW210419   2.573   1.549   1.249
 3226SOL     OW10420   3.227   0.056   0.172
 3226SOL    HW110421   3.259   4.479   0.124
 3226SOL    HW210422   3.138   0.032   0.198
 3227SOL     OW10423   3.178   0.467   0.671
 3227SOL    HW110424   3.123   0.545   0.672
 3227SOL    HW210425   3.164   0.426   0.756
 3228SOL     OW10426   3.449   0.196   0.871
 3228SOL    HW110427   3.391   0.213   0.946
 3228SOL    HW210428   3.450   0.279   0.823
 3229SOL     OW10429   1.903   1.067   0.302
 3229SOL    HW110430   1.998   1.062   0.299
 3229SOL    HW210431   1.875   0.978   0.326
 3230SOL     OW10432   2.750   1.662   0.348
 3230SOL    HW110433   2.676   1.642   0.291
 3230SOL    HW210434   2.720   1.736   0.401
 3231SOL     OW10435   2.084   0.623   1.989
 3231SOL    HW110436   1.997   0.616   2.029
 3231SOL    HW210437   2.070   0.598   1.898
 3232SOL     OW10438   2.066   0.303   2.853
 3232SOL    HW110439   2.098   0.270   2.937
 3232SOL    HW210440   1.985   0.255   2.838
 3233SOL     OW10441   1.866   0.394   2.496
 3233SOL    HW110442   1.780   0.410   2.535
 3233SOL    HW210443   1.852   0.323   2.433
 3234SOL     OW10444   2.431   1.296   3.045
 3234SOL    HW110445   2.344   1.301   3.005
 3234SOL    HW210446   2.448   1.385   3.077
 3235SOL     OW10447   3.434   1.515   2.571
 3235SOL    HW110448   3.390   1.490   2.653
 3235SOL    HW210449   3.363   1.517   2.506
 3236SOL     OW10450   3.004   0.696   2.553
 3236SOL    HW110451   3.047   0.781   2.546
 3236SOL    HW210452   2.951   0.702   2.633
 3237SOL     OW10453   3.642   0.600   2.085
 3237SOL    HW110454   3.615   0.594   1.994
 3237SOL    HW210455   3.603   0.523   2.127
 3238SOL     OW10456   2.608   1.137   2.909
 3238SOL    HW110457   2.542   1.175   2.967
 3238SOL    HW210458   2.648   1.213   2.866
 3239SOL     OW10459   2.734   0.763   3.687
 3239SOL    HW110460   2.722   0.832   3.752
 3239SOL    HW210461   2.757   0.809   3.606
 3240SOL     OW10462   2.548   0.996   2.506
 3240SOL    HW110463   2.614   0.988   2.574
 3240SOL    HW210464   2.479   1.050   2.544
 3241SOL     OW10465   2.576   1.149   3.680
 3241SOL    HW110466   2.623   1.226   3.711
 3241SOL    HW210467   2.496   1.184   3.642
 3242SOL     OW10468   2.194   1.414   2.930
 3242SOL    HW110469   2.118   1.376   2.887
 3242SOL    HW210470   2.237   1.465   2.862
 3243SOL     OW10471   3.321   1.502   3.223
 3243SOL    HW110472   3.375   1.581   3.234
 3243SOL    HW210473   3.252   1.512   3.289
 3244SOL     OW10474   2.308   0.391   3.341
 3244SOL    HW110475   2.389   0.341   3.347
 3244SOL    HW210476   2.239   0.327   3.358
 3245SOL     OW10477   3.466   0.440   2.601
 3245SOL    HW110478   3.387   0.457   2.551
 3245SOL    HW210479   3.475   0.517   2.658
 3246SOL     OW10480   2.083   1.721   2.344
 3246SOL    HW110481   2.118   1.755   2.426
 3246SOL    HW210482   2.159   1.711   2.287
 3247SOL     OW10483   3.000   1.342   3.557
 3247SOL    HW110484   3.040   1.337   3.644
 3247SOL    HW210485   2.948   1.262   3.549
 3248SOL     OW10486   2.089   1.443   2.400
 3248SOL    HW110487   2.061   1.534   2.407
 3248SOL    HW210488   2.034   1.396   2.462
 3249SOL     OW10489   2.130   1.091   2.753
 3249SOL    HW110490   2.125   1.003   2.790
 3249SOL    HW210491   2.072   1.144   2.807
 3250SOL     OW10492   2.465   1.778   3.290
 3250SOL    HW110493   2.383   1.768   3.337
 3250SOL    HW210494   2.492   1.868   3.308
 3251SOL     OW10495   2.440   0.986   2.002
 3251SOL    HW110496   2.489   1.030   1.933
 3251SOL    HW210497   2.479   1.017   2.083
 3252SOL     OW10498   3.436   0.120   3.324
 3252SOL    HW110499   3.478   0.186   3.269
 3252SOL    HW210500   3.427   0.162   3.409
 3253SOL     OW10501   1.982   0.656   2.424
 3253SOL    HW110502   1.950   0.569   2.446
 3253SOL    HW210503   1.974   0.706   2.505
 3254SOL     OW10504   3.705   1.754   2.192
 3254SOL    HW110505   3.774   1.728   2.253
 3254SOL    HW210506   3.723   1.846   2.172
 3255SOL     OW10507   1.897   1.574   1.984
 3255SOL    HW110508   1.880   1.482   2.001
 3255SOL    HW210509   1.872   1.618   2.065
 3256SOL     OW10510   3.553   0.921   2.509
 3256SOL    HW110511   3.635   0.877   2.486
 3256SOL    HW210512   3.530   0.972   2.431
 3257SOL     OW10513   3.512   1.103   2.291
 3257SOL    HW110514   3.599   1.104   2.250
 3257SOL    HW210515   3.519   1.167   2.362
 3258SOL     OW10516   1.984   0.748   3.443
 3258SOL    HW110517   2.074   0.780   3.447
 3258SOL    HW210518   1.931   0.827   3.446
 3259SOL     OW10519   2.480   1.389   2.595
 3259SOL    HW110520   2.435   1.305   2.604
 3259SOL    HW210521   2.463   1.417   2.505
 3260SOL     OW10522   3.147   1.236   3.281
 3260SOL    HW110523   3.178   1.167   3.222
 3260SOL    HW210524   3.205   1.231   3.357
 3261SOL     OW10525   2.685   0.022   2.421
 3261SOL    HW110526   2.724   0.105   2.392
 3261SOL    HW210527   2.591   0.035   2.413
 3262SOL     OW10528   2.050   0.960   3.143
 3262SOL    HW110529   2.136   0.922   3.127
 3262SOL    HW210530   1.992   0.915   3.081
 3263SOL     OW10531   3.394   0.999   2.062
 3263SOL    HW110532   3.324   0.942   2.095
 3263SOL    HW210533   3.436   1.032   2.141
 3264SOL     OW10534   3.052   1.813   3.487
 3264SOL    HW110535   3.057   1.872   3.412
 3264SOL    HW210536   3.067   1.725   3.451
 3265SOL     OW10537   2.179   0.251   3.640
 3265SOL    HW110538   2.243   0.313   3.674
 3265SOL    HW210539   2.105   0.257   3.700
 3266SOL     OW10540   3.329   1.419   2.808
 3266SOL    HW110541   3.263   1.435   2.875
 3266SOL    HW210542   3.316   1.328   2.782
 3267SOL     OW10543   3.514   1.755   2.438
 3267SOL    HW110544   3.496   1.720   2.351
 3267SOL    HW210545   3.496   1.681   2.497
 3268SOL     OW10546   2.451   0.721   2.130
 3268SOL    HW110547   2.453   0.805   2.086
 3268SOL    HW210548   2.386   0.731   2.199
 3269SOL     OW10549   3.156   0.377   2.792
 3269SOL    HW110550   3.067   0.346   2.774
 3269SOL    HW210551   3.191   0.312   2.853
 3270SOL     OW10552   3.440   1.674   2.173
 3270SOL    HW110553   3.532   1.699   2.164
 3270SOL    HW210554   3.411   1.657   2.083
 3271SOL     OW10555   2.658   0.621   3.314
 3271SOL    HW110556   2.630   0.593   3.401
 3271SOL    HW210557   2.626   0.553   3.255
 3272SOL     OW10558   3.250   0.483   3.538
 3272SOL    HW110559   3.254   0.528   3.623
 3272SOL    HW210560   3.317   0.415   3.543
 3273SOL     OW10561   2.812   0.886   3.449
 3273SOL    HW110562   2.866   0.817   3.411
 3273SOL    HW210563   2.763   0.922   3.375
 3274SOL     OW10564   2.862   0.417   3.093
 3274SOL    HW110565   2.771   0.425   3.121
 3274SOL    HW210566   2.858   0.361   3.015
 3275SOL     OW10567   2.914   0.699   2.286
 3275SOL    HW110568   2.934   0.690   2.379
 3275SOL    HW210569   2.829   0.656   2.275
 3276SOL     OW10570   1.951   0.822   2.639
 3276SOL    HW110571   2.031   0.816   2.691
 3276SOL    HW210572   1.905   0.899   2.675
 3277SOL     OW10573   1.956   1.801   3.422
 3277SOL    HW110574   1.969   1.792   3.517
 3277SOL    HW210575   1.861   1.810   3.412
 3278SOL     OW10576   2.721   0.372   2.056
 3278SOL    HW110577   2.783   0.406   1.992
 3278SOL    HW210578   2.731   0.277   2.052
 3279SOL     OW10579   3.563   0.570   3.692
 3279SOL    HW110580   3.529   0.644   3.643
 3279SOL    HW210581   3.596   0.510   3.625
 3280SOL     OW10582   3.244   1.143   2.401
 3280SOL    HW110583   3.323   1.132   2.348
 3280SOL    HW210584   3.190   1.205   2.351
 3281SOL     OW10585   2.395   0.211   2.765
 3281SOL    HW110586   2.418   0.229   2.857
 3281SOL    HW210587   2.393   0.298   2.724
 3282SOL     OW10588   2.862   1.444   2.330
 3282SOL    HW110589   2.831   1.519   2.280
 3282SOL    HW210590   2.839   1.463   2.420
 3283SOL     OW10591   2.208   1.787   2.690
 3283SOL    HW110592   2.244   1.700   2.706
 3283SOL    HW210593   2.278   1.847   2.717
 3284SOL     OW10594   3.662   1.056   2.735
 3284SOL    HW110595   3.611   1.033   2.658
 3284SOL    HW210596   3.598   1.061   2.806
 3285SOL     OW10597   3.089   1.540   3.375
 3285SOL    HW110598   3.077   1.469   3.438
 3285SOL    HW210599   3.018   1.529   3.312
 3286SOL     OW10600   2.175   0.960   2.116
 3286SOL    HW110601   2.257   0.980   2.072
 3286SOL    HW210602   2.147   0.876   2.078
 3287SOL     OW10603   3.345   0.749   2.581
 3287SOL    HW110604   3.339   0.709   2.668
 3287SOL    HW210605   3.423   0.805   2.586
 3288SOL     OW10606   2.333   1.266   3.600
 3288SOL    HW110607   2.307   1.271   3.508
 3288SOL    HW210608   2.251   1.263   3.649
 3289SOL     OW10609   2.988   1.776   2.093
 3289SOL    HW110610   2.910   1.738   2.134
 3289SOL    HW210611   3.011   1.714   2.024
 3290SOL     OW10612   2.048   0.268   3.381
 3290SOL    HW110613   1.985   0.339   3.375
 3290SOL    HW210614   2.076   0.269   3.473
 3291SOL     OW10615   3.491   1.382   1.953
 3291SOL    HW110616   3.449   1.467   1.938
 3291SOL    HW210617   3.423   1.318   1.932
 3292SOL     OW10618   2.329   1.717   2.209
 3292SOL    HW110619   2.370   1.792   2.251
 3292SOL    HW210620   2.385   1.698   2.134
 3293SOL     OW10621   3.293   0.150   2.285
 3293SOL    HW110622   3.276   0.091   2.212
 3293SOL    HW210623   3.386   0.135   2.306
 3294SOL     OW10624   2.092   1.772   3.098
 3294SOL    HW110625   2.158   1.708   3.126
 3294SOL    HW210626   2.108   1.781   3.004
 3295SOL     OW10627   2.794   1.697   2.758
 3295SOL    HW110628   2.873   1.650   2.784
 3295SOL    HW210629   2.759   1.647   2.685
 3296SOL     OW10630   2.258   0.691   2.335
 3296SOL    HW110631   2.278   0.599   2.351
 3296SOL    HW210632   2.165   0.699   2.352
 3297SOL     OW10633   3.385   0.234   3.585
 3297SOL    HW110634   3.385   0.254   3.678
 3297SOL    HW210635   3.304   0.185   3.571
 3298SOL     OW10636   2.497   0.122   1.988
 3298SOL    HW110637   2.586   0.087   1.999
 3298SOL    HW210638   2.464   0.079   1.909
 3299SOL     OW10639   2.630   0.270   3.618
 3299SOL    HW110640   2.701   0.206   3.614
 3299SOL    HW210641   2.596   0.262   3.708
 3300SOL     OW10642   2.741   1.525   3.054
 3300SOL    HW110643   2.722   1.484   2.969
 3300SOL    HW210644   2.808   1.470   3.093
 3301SOL     OW10645   3.201   0.590   3.289
 3301SOL    HW110646   3.228   0.563   3.377
 3301SOL    HW210647   3.235   0.679   3.280
 3302SOL     OW10648   2.680   1.390   2.808
 3302SOL    HW110649   2.765   1.378   2.766
 3302SOL    HW210650   2.618   1.393   2.735
 3303SOL     OW10651   2.789   0.528   2.757
 3303SOL    HW110652   2.771   0.524   2.663
 3303SOL    HW210653   2.817   0.439   2.780
 3304SOL     OW10654   2.420   0.088   2.389
 3304SOL    HW110655   2.336   0.050   2.413
 3304SOL    HW210656   2.401   0.144   2.313
 3305SOL     OW10657   3.290   1.201   1.901
 3305SOL    HW110658   3.319   1.126   1.953
 3305SOL    HW210659   3.205   1.223   1.937
 3306SOL     OW10660   2.153   0.060   2.070
 3306SOL    HW110661   2.227   0.120   2.058
 3306SOL    HW210662   2.181   4.500   2.138
 3307SOL     OW10663   2.823   0.240   2.322
 3307SOL    HW110664   2.770   0.308   2.280
 3307SOL    HW210665   2.913   0.271   2.315
 3308SOL     OW10666   2.942   0.686   3.319
 3308SOL    HW110667   2.873   0.620   3.318
 3308SOL    HW210668   3.023   0.636   3.308
 3309SOL     OW10669   3.080   1.573   2.657
 3309SOL    HW110670   3.096   1.638   2.588
 3309SOL    HW210671   3.150   1.587   2.720
 3310SOL     OW10672   2.335   1.154   2.588
 3310SOL    HW110673   2.269   1.133   2.654
 3310SOL    HW210674   2.290   1.141   2.504
 3311SOL     OW10675   3.127   1.792   2.474
 3311SOL    HW110676   3.175   1.853   2.419
 3311SOL    HW210677   3.059   1.845   2.515
 3312SOL     OW10678   2.887   0.538   1.885
 3312SOL    HW110679   2.841   0.620   1.869
 3312SOL    HW210680   2.946   0.558   1.958
 3313SOL     OW10681   1.951   0.548   3.259
 3313SOL    HW110682   2.041   0.553   3.229
 3313SOL    HW210683   1.942   0.620   3.322
 3314SOL     OW10684   2.420   0.250   3.034
 3314SOL    HW110685   2.444   0.169   3.079
 3314SOL    HW210686   2.327   0.263   3.055
 3315SOL     OW10687   2.726   0.505   2.492
 3315SOL    HW110688   2.691   0.540   2.409
 3315SOL    HW210689   2.672   0.427   2.509
 3316SOL     OW10690   2.804   0.009   2.669
 3316SOL    HW110691   2.765   0.013   2.582
 3316SOL    HW210692   2.824   4.416   2.682
 3317SOL     OW10693   3.300   1.160   2.718
 3317SOL    HW110694   3.230   1.095   2.721
 3317SOL    HW210695   3.323   1.167   2.625
 3318SOL     OW10696   3.326   0.610   2.826
 3318SOL    HW110697   3.269   0.534   2.826
 3318SOL    HW210698   3.381   0.600   2.904
 3319SOL     OW10699   3.702   0.811   2.248
 3319SOL    HW110700   3.760   0.762   2.306
 3319SOL    HW210701   3.678   0.748   2.179
 3320SOL     OW10702   2.351   1.424   2.012
 3320SOL    HW110703   2.276   1.395   2.065
 3320SOL    HW210704   2.346   1.372   1.932
 3321SOL     OW10705   3.541   1.265   2.501
 3321SOL    HW110706   3.635   1.264   2.518
 3321SOL    HW210707   3.513   1.354   2.525
 3322SOL     OW10708   3.256   0.575   1.931
 3322SOL    HW110709   3.193   0.557   2.001
 3322SOL    HW210710   3.342   0.560   1.972
 3323SOL     OW10711   2.373   0.263   2.180
 3323SOL    HW110712   2.429   0.216   2.118
 3323SOL    HW210713   2.355   0.346   2.137
 3324SOL     OW10714   3.610   1.242   3.423
 3324SOL    HW110715   3.697   1.203   3.417
 3324SOL    HW210716   3.625   1.332   3.453
 3325SOL     OW10717   2.915   1.354   3.193
 3325SOL    HW110718   2.840   1.322   3.243
 3325SOL    HW210719   2.991   1.313   3.235
 3326SOL     OW10720   3.472   1.629   3.521
 3326SOL    HW110721   3.463   1.662   3.431
 3326SOL    HW210722   3.553   1.578   3.519
 3327SOL     OW10723   2.999   1.212   2.964
 3327SOL    HW110724   2.937   1.248   3.028
 3327SOL    HW210725   2.967   1.245   2.880
 3328SOL     OW10726   3.484   1.095   2.939
 3328SOL    HW110727   3.478   1.159   3.010
 3328SOL    HW210728   3.408   1.114   2.884
 3329SOL     OW10729   2.756   0.138   3.244
 3329SOL    HW110730   2.781   0.090   3.164
 3329SOL    HW210731   2.840   0.160   3.285
 3330SOL     OW10732   2.846   1.116   3.585
 3330SOL    HW110733   2.756   1.133   3.610
 3330SOL    HW210734   2.842   1.037   3.532
 3331SOL     OW10735   2.572   1.063   2.233
 3331SOL    HW110736   2.557   1.042   2.325
 3331SOL    HW210737   2.647   1.009   2.208
 3332SOL     OW10738   2.285   0.821   3.114
 3332SOL    HW110739   2.353   0.830   3.180
 3332SOL    HW210740   2.250   0.732   3.127
 3333SOL     OW10741   3.130   0.373   3.138
 3333SOL    HW110742   3.162   0.452   3.182
 3333SOL    HW210743   3.040   0.395   3.113
 3334SOL     OW10744   1.931   1.563   3.214
 3334SOL    HW110745   1.904   1.644   3.171
 3334SOL    HW210746   2.026   1.569   3.217
 3335SOL     OW10747   2.198   1.119   2.351
 3335SOL    HW110748   2.201   1.192   2.289
 3335SOL    HW210749   2.197   1.041   2.296
 3336SOL     OW10750   2.413   0.520   2.719
 3336SOL    HW110751   2.423   0.580   2.645
 3336SOL    HW210752   2.479   0.548   2.782
 3337SOL     OW10753   3.110   1.350   2.252
 3337SOL    HW110754   3.165   1.421   2.284
 3337SOL    HW210755   3.022   1.371   2.285
 3338SOL     OW10756   3.152   1.461   3.010
 3338SOL    HW110757   3.206   1.465   3.089
 3338SOL    HW210758   3.097   1.384   3.023
 3339SOL     OW10759   3.439   0.623   2.342
 3339SOL    HW110760   3.390   0.664   2.413
 3339SOL    HW210761   3.482   0.695   2.298
 3340SOL     OW10762   2.211   1.522   3.176
 3340SOL    HW110763   2.197   1.479   3.092
 3340SOL    HW210764   2.306   1.534   3.181
 3341SOL     OW10765   2.284   0.741   3.468
 3341SOL    HW110766   2.341   0.788   3.408
 3341SOL    HW210767   2.331   0.660   3.489
 3342SOL     OW10768   3.471   0.781   3.548
 3342SOL    HW110769   3.385   0.823   3.542
 3342SOL    HW210770   3.523   0.822   3.479
 3343SOL     OW10771   2.854   0.092   3.573
 3343SOL    HW110772   2.904   0.165   3.537
 3343SOL    HW210773   2.876   0.018   3.516
 3344SOL     OW10774   2.364   0.039   3.626
 3344SOL    HW110775   2.383   0.020   3.534
 3344SOL    HW210776   2.297   0.107   3.624
 3345SOL     OW10777   2.446   0.876   2.893
 3345SOL    HW110778   2.481   0.965   2.897
 3345SOL    HW210779   2.390   0.868   2.970
 3346SOL     OW10780   3.207   0.858   2.882
 3346SOL    HW110781   3.120   0.841   2.846
 3346SOL    HW210782   3.254   0.775   2.871
 3347SOL     OW10783   3.058   0.537   2.117
 3347SOL    HW110784   3.066   0.458   2.170
 3347SOL    HW210785   3.016   0.600   2.174
 3348SOL     OW10786   2.150   0.229   3.106
 3348SOL    HW110787   2.101   0.246   3.187
 3348SOL    HW210788   2.193   0.145   3.122
 3349SOL     OW10789   1.905   1.306   3.135
 3349SOL    HW110790   1.939   1.253   3.207
 3349SOL    HW210791   1.911   1.396   3.165
 3350SOL     OW10792   2.580   0.629   2.912
 3350SOL    HW110793   2.657   0.615   2.857
 3350SOL    HW210794   2.552   0.718   2.892
 3351SOL     OW10795   3.601   0.959   3.720
 3351SOL    HW110796   3.557   0.892   3.668
 3351SOL    HW210797   3.541   0.978   3.792
 3352SOL     OW10798   2.153   0.043   2.510
 3352SOL    HW110799   2.141   0.138   2.510
 3352SOL    HW210800   2.167   0.020   2.602
 3353SOL     OW10801   3.487   0.388   2.213
 3353SOL    HW110802   3.509   0.320   2.278
 3353SOL    HW210803   3.461   0.463   2.266
 3354SOL     OW10804   2.897   0.767   2.822
 3354SOL    HW110805   2.885   0.781   2.916
 3354SOL    HW210806   2.865   0.678   2.808
 3355SOL     OW10807   2.847   1.568   3.585
 3355SOL    HW110808   2.828   1.610   3.501
 3355SOL    HW210809   2.887   1.484   3.562
 3356SOL     OW10810   3.713   1.500   3.466
 3356SOL    HW110811   3.734   1.528   3.377
 3356SOL    HW210812   3.794   1.515   3.516
 3357SOL     OW10813   2.214   0.916   3.671
 3357SOL    HW110814   2.294   0.937   3.720
 3357SOL    HW210815   2.242   0.853   3.606
 3358SOL     OW10816   3.389   0.260   1.989
 3358SOL    HW110817   3.322   0.202   2.025
 3358SOL    HW210818   3.422   0.308   2.065
 3359SOL     OW10819   3.148   0.826   1.889
 3359SOL    HW110820   3.189   0.739   1.893
 3359SOL    HW210821   3.180   0.864   1.807
 3360SOL     OW10822   2.930   1.339   2.718
 3360SOL    HW110823   2.935   1.267   2.656
 3360SOL    HW210824   2.988   1.406   2.683
 3361SOL     OW10825   2.171   0.811   2.808
 3361SOL    HW110826   2.264   0.832   2.801
 3361SOL    HW210827   2.169   0.721   2.840
 3362SOL     OW10828   2.195   0.536   2.876
 3362SOL    HW110829   2.151   0.453   2.859
 3362SOL    HW210830   2.272   0.535   2.819
 3363SOL     OW10831   3.002   0.368   3.567
 3363SOL    HW110832   2.947   0.430   3.616
 3363SOL    HW210833   3.084   0.415   3.552
 3364SOL     OW10834   3.009   0.217   3.337
 3364SOL    HW110835   3.009   0.280   3.408
 3364SOL    HW210836   3.056   0.261   3.266
 3365SOL     OW10837   1.869   1.309   2.055
 3365SOL    HW110838   1.781   1.325   2.021
 3365SOL    HW210839   1.865   1.220   2.091
 3366SOL     OW10840   1.945   1.772   2.793
 3366SOL    HW110841   1.912   1.691   2.752
 3366SOL    HW210842   2.032   1.784   2.755
 3367SOL     OW10843   2.354   1.570   2.762
 3367SOL    HW110844   2.422   1.633   2.785
 3367SOL    HW210845   2.399   1.505   2.707
 3368SOL     OW10846   2.835   0.791   3.086
 3368SOL    HW110847   2.894   0.772   3.159
 3368SOL    HW210848   2.753   0.747   3.110
 3369SOL     OW10849   1.894   0.547   2.982
 3369SOL    HW110850   1.969   0.530   2.926
 3369SOL    HW210851   1.930   0.549   3.071
 3370SOL     OW10852   2.045   0.525   3.588
 3370SOL    HW110853   2.126   0.510   3.540
 3370SOL    HW210854   2.005   0.601   3.545
 3371SOL     OW10855   3.244   0.932   3.518
 3371SOL    HW110856   3.264   1.026   3.515
 3371SOL    HW210857   3.239   0.906   3.426
 3372SOL     OW10858   2.672   0.579   2.226
 3372SOL    HW110859   2.679   0.508   2.162
 3372SOL    HW210860   2.599   0.632   2.195
 3373SOL     OW10861   3.498   0.602   3.041
 3373SOL    HW110862   3.488   0.544   3.116
 3373SOL    HW210863   3.587   0.584   3.009
 3374SOL     OW10864   2.104   1.542   3.584
 3374SOL    HW110865   2.082   1.608   3.649
 3374SOL    HW210866   2.110   1.460   3.634
 3375SOL     OW10867   2.579   0.455   3.119
 3375SOL    HW110868   2.525   0.381   3.093
 3375SOL    HW210869   2.572   0.517   3.046
 3376SOL     OW10870   2.789   1.674   3.333
 3376SOL    HW110871   2.759   1.636   3.250
 3376SOL    HW210872   2.787   1.769   3.319
 3377SOL     OW10873   2.321   0.491   2.042
 3377SOL    HW110874   2.381   0.562   2.065
 3377SOL    HW210875   2.236   0.535   2.030
 3378SOL     OW10876   2.002   1.142   3.337
 3378SOL    HW110877   2.004   1.095   3.421
 3378SOL    HW210878   2.020   1.075   3.271
 3379SOL     OW10879   3.183   1.043   3.080
 3379SOL    HW110880   3.203   0.979   3.011
 3379SOL    HW210881   3.117   1.100   3.041
 3380SOL     OW10882   3.180   0.856   2.165
 3380SOL    HW110883   3.106   0.827   2.219
 3380SOL    HW210884   3.150   0.844   2.075
 3381SOL     OW10885   3.644   1.735   3.020
 3381SOL    HW110886   3.703   1.762   2.950
 3381SOL    HW210887   3.614   1.648   2.995
 3382SOL     OW10888   3.103   1.732   2.967
 3382SOL    HW110889   3.186   1.756   2.926
 3382SOL    HW210890   3.112   1.640   2.988
 3383SOL     OW10891   1.953   1.262   2.873
 3383SOL    HW110892   1.933   1.278   2.965
 3383SOL    HW210893   1.878   1.211   2.841
 3384SOL     OW10894   2.541   1.669   3.599
 3384SOL    HW110895   2.482   1.745   3.600
 3384SOL    HW210896   2.606   1.690   3.532
 3385SOL     OW10897   3.584   0.128   2.343
 3385SOL    HW110898   3.650   0.143   2.276
 3385SOL    HW210899   3.620   0.058   2.397
 3386SOL     OW10900   3.255   1.567   2.353
 3386SOL    HW110901   3.313   1.601   2.285
 3386SOL    HW210902   3.204   1.643   2.381
 3387SOL     OW10903   2.001   1.790   3.689
 3387SOL    HW110904   1.961   1.732   3.754
 3387SOL    HW210905   2.029   1.867   3.739
 3388SOL     OW10906   3.142   0.931   2.535
 3388SOL    HW110907   3.215   0.870   2.543
 3388SOL    HW210908   3.176   1.002   2.481
 3389SOL     OW10909   2.665   1.277   3.284
 3389SOL    HW110910   2.639   1.318   3.367
 3389SOL    HW210911   2.593   1.294   3.225
 3390SOL     OW10912   2.529   1.629   2.017
 3390SOL    HW110913   2.544   1.641   1.923
 3390SOL    HW210914   2.474   1.551   2.022
 3391SOL     OW10915   3.482   1.728   3.254
 3391SOL    HW110916   3.535   1.733   3.175
 3391SOL    HW210917   3.467   1.819   3.279
 3392SOL     OW10918   3.703   0.151   2.827
 3392SOL    HW110919   3.735   0.072   2.783
 3392SOL    HW210920   3.616   0.166   2.789
 3393SOL     OW10921   2.120   0.313   2.573
 3393SOL    HW110922   2.036   0.351   2.550
 3393SOL    HW210923   2.119   0.309   2.669
 3394SOL     OW10924   3.070   1.601   1.895
 3394SOL    HW110925   3.059   1.510   1.922
 3394SOL    HW210926   3.004   1.615   1.828
 3395SOL     OW10927   2.685   1.007   3.238
 3395SOL    HW110928   2.728   0.999   3.154
 3395SOL    HW210929   2.682   1.101   3.255
 3396SOL     OW10930   2.779   0.911   2.153
 3396SOL    HW110931   2.839   0.944   2.086
 3396SOL    HW210932   2.828   0.843   2.199
 3397SOL     OW10933   3.350   1.629   1.907
 3397SOL    HW110934   3.257   1.619   1.892
 3397SOL    HW210935   3.389   1.635   1.820
 3398SOL     OW10936   2.231   1.301   3.355
 3398SOL    HW110937   2.219   1.378   3.300
 3398SOL    HW210938   2.152   1.249   3.340
 3399SOL     OW10939   3.470   1.285   3.143
 3399SOL    HW110940   3.526   1.267   3.218
 3399SOL    HW210941   3.409   1.352   3.174
 3400SOL     OW10942   2.924   1.111   2.573
 3400SOL    HW110943   2.851   1.060   2.610
 3400SOL    HW210944   2.988   1.045   2.548
 3401SOL     OW10945   2.861   0.247   2.877
 3401SOL    HW110946   2.870   0.233   2.783
 3401SOL    HW210947   2.850   0.159   2.913
 3402SOL     OW10948   2.468   1.491   2.343
 3402SOL    HW110949   2.513   1.439   2.276
 3402SOL    HW210950   2.401   1.539   2.295
 3403SOL     OW10951   3.588   0.395   3.236
 3403SOL    HW110952   3.662   0.454   3.236
 3403SOL    HW210953   3.615   0.323   3.179
 3404SOL     OW10954   2.125   1.342   2.155
 3404SOL    HW110955   2.032   1.336   2.131
 3404SOL    HW210956   2.124   1.383   2.242
 3405SOL     OW10957   1.976   1.030   3.586
 3405SOL    HW110958   1.900   1.004   3.638
 3405SOL    HW210959   2.051   0.988   3.630
 3406SOL     OW10960   2.518   0.205   3.368
 3406SOL    HW110961   2.596   0.182   3.318
 3406SOL    HW210962   2.551   0.231   3.454
 3407SOL     OW10963   1.946   0.325   1.908
 3407SOL    HW110964   1.877   0.270   1.872
 3407SOL    HW210965   1.951   0.400   1.848
 3408SOL     OW10966   3.287   0.857   3.258
 3408SOL    HW110967   3.237   0.918   3.203
 3408SOL    HW210968   3.375   0.860   3.222
 3409SOL     OW10969   1.922   0.192   2.167
 3409SOL    HW110970   1.925   0.259   2.099
 3409SOL    HW210971   1.996   0.134   2.147
 3410SOL     OW10972   3.040   1.334   1.980
 3410SOL    HW110973   2.949   1.304   1.981
 3410SOL    HW210974   3.066   1.335   2.072
 3411SOL     OW10975   2.483   0.831   3.298
 3411SOL    HW110976   2.539   0.907   3.283
 3411SOL    HW210977   2.543   0.757   3.306
 3412SOL     OW10978   3.345   1.786   2.845
 3412SOL    HW110979   3.369   1.851   2.779
 3412SOL    HW210980   3.429   1.755   2.880
 3413SOL     OW10981   2.577   0.559   3.564
 3413SOL    HW110982   2.621   0.621   3.623
 3413SOL    HW210983   2.600   0.473   3.598
 3414SOL     OW10984   3.335   1.194   3.491
 3414SOL    HW110985   3.322   1.210   3.584
 3414SOL    HW210986   3.427   1.214   3.475
 3415SOL     OW10987   2.231   1.739   3.429
 3415SOL    HW110988   2.146   1.771   3.398
 3415SOL    HW210989   2.211   1.655   3.470
 3416SOL     OW10990   3.526   0.879   3.117
 3416SOL    HW110991   3.521   0.794   3.074
 3416SOL    HW210992   3.516   0.943   3.047
 3417SOL     OW10993   3.085   0.335   2.306
 3417SOL    HW110994   3.155   0.271   2.291
 3417SOL    HW210995   3.112   0.383   2.383
 3418SOL     OW10996   2.443   0.733   2.540
 3418SOL    HW110997   2.487   0.817   2.524
 3418SOL    HW210998   2.381   0.725   2.467
 3419SOL     OW10999   3.617   0.373   3.506
 3419SOL    HW111000   3.603   0.386   3.412
 3419SOL    HW211001   3.541   0.322   3.534
 3420SOL     OW11002   3.613   0.933   3.372
 3420SOL    HW111003   3.599   1.026   3.385
 3420SOL    HW211004   3.594   0.918   3.280
 3421SOL     OW11005   2.727   1.365   1.906
 3421SOL    HW111006   2.688   1.392   1.989
 3421SOL    HW211007   2.741   1.447   1.858
 3422SOL     OW11008   2.525   1.793   2.794
 3422SOL    HW111009   2.531   1.870   2.850
 3422SOL    HW211010   2.615   1.762   2.786
 3423SOL     OW11011   2.732   0.972   2.715
 3423SOL    HW111012   2.783   0.900   2.752
 3423SOL    HW211013   2.692   1.014   2.791
 3424SOL     OW11014   2.940   0.990   1.952
 3424SOL    HW111015   2.918   1.041   1.874
 3424SOL    HW211016   3.013   0.934   1.924
 3425SOL     OW11017   3.710   1.555   2.704
 3425SOL    HW111018   3.630   1.542   2.653
 3425SOL    HW211019   3.706   1.487   2.772
 3426SOL     OW11020   2.090   1.297   3.717
 3426SOL    HW111021   2.026   1.233   3.685
 3426SOL    HW211022   2.070   1.306   3.810
 3427SOL     OW11023   1.954   1.228   2.526
 3427SOL    HW111024   1.963   1.185   2.611
 3427SOL    HW211025   2.020   1.184   2.471
 3428SOL     OW11026   2.546   1.409   3.491
 3428SOL    HW111027   2.468   1.365   3.526
 3428SOL    HW211028   2.544   1.496   3.530
 3429SOL     OW11029   3.662   0.175   3.099
 3429SOL    HW111030   3.657   0.081   3.117
 3429SOL    HW211031   3.682   0.180   3.006
 3430SOL     OW11032   2.300   0.431   2.395
 3430SOL    HW111033   2.319   0.364   2.330
 3430SOL    HW211034   2.243   0.387   2.459
 3431SOL     OW11035   3.557   1.486   2.955
 3431SOL    HW111036   3.479   1.466   2.903
 3431SOL    HW211037   3.562   1.417   3.020
 3432SOL     OW11038   2.198   0.563   3.155
 3432SOL    HW111039   2.252   0.504   3.208
 3432SOL    HW211040   2.216   0.536   3.065
 3433SOL     OW11041   2.692   1.578   2.536
 3433SOL    HW111042   2.669   1.636   2.464
 3433SOL    HW211043   2.620   1.515   2.539
 3434SOL     OW11044   3.291   0.219   2.977
 3434SOL    HW111045   3.327   0.147   3.029
 3434SOL    HW211046   3.240   0.271   3.039
 3435SOL     OW11047   2.856   4.498   3.018
 3435SOL    HW111048   2.821   4.409   3.016
 3435SOL    HW211049   2.951   4.487   3.024
 3436SOL     OW11050   2.636   1.334   2.183
 3436SOL    HW111051   2.608   1.243   2.191
 3436SOL    HW211052   2.718   1.338   2.232
 3437SOL     OW11053   2.484   1.552   3.144
 3437SOL    HW111054   2.482   1.631   3.197
 3437SOL    HW211055   2.574   1.547   3.110
 3438SOL     OW11056   3.200   0.050   2.028
 3438SOL    HW111057   3.237   4.475   1.981
 3438SOL    HW211058   3.122   0.016   2.071
 3439SOL     OW11059   3.178   0.468   2.531
 3439SOL    HW111060   3.123   0.546   2.532
 3439SOL    HW211061   3.167   0.429   2.617
 3440SOL     OW11062   3.448   0.197   2.733
 3440SOL    HW111063   3.390   0.213   2.808
 3440SOL    HW211064   3.450   0.280   2.686
 3441SOL     OW11065   1.905   1.063   2.172
 3441SOL    HW111066   1.999   1.054   2.152
 3441SOL    HW211067   1.877   0.974   2.194
 3442SOL     OW11068   2.750   1.659   2.199
 3442SOL    HW111069   2.675   1.643   2.141
 3442SOL    HW211070   2.722   1.732   2.255
 3443SOL     OW11071   2.084   0.623   3.851
 3443SOL    HW111072   1.997   0.617   3.891
 3443SOL    HW211073   2.070   0.597   3.760
 3444SOL     OW11074   2.065   0.304   4.716
 3444SOL    HW111075   2.098   0.271   4.799
 3444SOL    HW211076   1.985   0.255   4.700
 3445SOL     OW11077   1.866   0.393   4.358
 3445SOL    HW111078   1.780   0.409   4.396
 3445SOL    HW211079   1.852   0.322   4.295
 3446SOL     OW11080   2.423   1.262   4.902
 3446SOL    HW111081   2.333   1.239   4.877
 3446SOL    HW211082   2.435   1.350   4.867
 3447SOL     OW11083   3.430   1.515   4.434
 3447SOL    HW111084   3.387   1.491   4.516
 3447SOL    HW211085   3.359   1.517   4.369
 3448SOL     OW11086   3.004   0.694   4.416
 3448SOL    HW111087   3.047   0.779   4.406
 3448SOL    HW211088   2.952   0.702   4.496
 3449SOL     OW11089   3.644   0.599   3.947
 3449SOL    HW111090   3.616   0.594   3.856
 3449SOL    HW211091   3.603   0.524   3.989
 3450SOL     OW11092   2.610   1.112   4.775
 3450SOL    HW111093   2.548   1.152   4.835
 3450SOL    HW211094   2.642   1.184   4.722
 3451SOL     OW11095   2.735   0.763   5.547
 3451SOL    HW111096   2.721   0.833   5.611
 3451SOL    HW211097   2.758   0.809   5.466
 3452SOL     OW11098   2.546   0.995   4.368
 3452SOL    HW111099   2.615   0.988   4.435
 3452SOL    HW211100   2.480   1.052   4.406
 3453SOL     OW11101   2.572   1.146   5.537
 3453SOL    HW111102   2.619   1.225   5.563
 3453SOL    HW211103   2.491   1.179   5.497
 3454SOL     OW11104   3.320   1.497   5.091
 3454SOL    HW111105   3.368   1.580   5.096
 3454SOL    HW211106   3.252   1.505   5.159
 3455SOL     OW11107   2.307   0.392   5.205
 3455SOL    HW111108   2.389   0.342   5.210
 3455SOL    HW211109   2.239   0.327   5.220
 3456SOL     OW11110   3.466   0.441   4.463
 3456SOL    HW111111   3.387   0.457   4.412
 3456SOL    HW211112   3.475   0.518   4.519
 3457SOL     OW11113   2.087   1.714   4.208
 3457SOL    HW111114   2.123   1.746   4.291
 3457SOL    HW211115   2.163   1.703   4.151
 3458SOL     OW11116   3.006   1.345   5.427
 3458SOL    HW111117   3.035   1.326   5.516
 3458SOL    HW211118   2.942   1.276   5.408
 3459SOL     OW11119   2.080   1.439   4.258
 3459SOL    HW111120   2.065   1.533   4.267
 3459SOL    HW211121   2.029   1.400   4.329
 3460SOL     OW11122   2.125   1.095   4.614
 3460SOL    HW111123   2.121   1.007   4.652
 3460SOL    HW211124   2.067   1.148   4.670
 3461SOL     OW11125   2.440   0.987   3.864
 3461SOL    HW111126   2.489   1.031   3.795
 3461SOL    HW211127   2.479   1.018   3.946
 3462SOL     OW11128   3.437   0.119   5.187
 3462SOL    HW111129   3.478   0.185   5.130
 3462SOL    HW211130   3.427   0.163   5.271
 3463SOL     OW11131   1.981   0.657   4.285
 3463SOL    HW111132   1.950   0.569   4.308
 3463SOL    HW211133   1.973   0.706   4.366
 3464SOL     OW11134   3.706   1.754   4.052
 3464SOL    HW111135   3.773   1.728   4.115
 3464SOL    HW211136   3.725   1.847   4.034
 3465SOL     OW11137   1.906   1.597   3.853
 3465SOL    HW111138   1.889   1.503   3.861
 3465SOL    HW211139   1.874   1.634   3.936
 3466SOL     OW11140   3.553   0.922   4.369
 3466SOL    HW111141   3.633   0.877   4.344
 3466SOL    HW211142   3.528   0.973   4.293
 3467SOL     OW11143   3.512   1.103   4.152
 3467SOL    HW111144   3.599   1.104   4.112
 3467SOL    HW211145   3.518   1.168   4.223
 3468SOL     OW11146   1.984   0.747   5.305
 3468SOL    HW111147   2.073   0.780   5.309
 3468SOL    HW211148   1.929   0.826   5.304
 3469SOL     OW11149   2.475   1.396   4.448
 3469SOL    HW111150   2.426   1.314   4.456
 3469SOL    HW211151   2.456   1.426   4.359
 3470SOL     OW11152   3.151   1.229   5.153
 3470SOL    HW111153   3.179   1.164   5.089
 3470SOL    HW211154   3.214   1.221   5.225
 3471SOL     OW11155   2.686   0.022   4.283
 3471SOL    HW111156   2.724   0.105   4.254
 3471SOL    HW211157   2.591   0.035   4.275
 3472SOL     OW11158   2.048   0.961   5.003
 3472SOL    HW111159   2.135   0.922   4.990
 3472SOL    HW211160   1.993   0.917   4.938
 3473SOL     OW11161   3.394   0.999   3.924
 3473SOL    HW111162   3.325   0.942   3.957
 3473SOL    HW211163   3.436   1.033   4.003
 3474SOL     OW11164   3.055   1.801   5.336
 3474SOL    HW111165   3.095   1.850   5.264
 3474SOL    HW211166   3.076   1.709   5.317
 3475SOL     OW11167   2.179   0.251   5.501
 3475SOL    HW111168   2.243   0.313   5.535
 3475SOL    HW211169   2.105   0.257   5.562
 3476SOL     OW11170   3.338   1.414   4.674
 3476SOL    HW111171   3.268   1.430   4.737
 3476SOL    HW211172   3.322   1.325   4.644
 3477SOL     OW11173   3.516   1.752   4.300
 3477SOL    HW111174   3.495   1.720   4.213
 3477SOL    HW211175   3.494   1.680   4.358
 3478SOL     OW11176   2.452   0.720   3.992
 3478SOL    HW111177   2.455   0.806   3.948
 3478SOL    HW211178   2.387   0.731   4.061
 3479SOL     OW11179   3.156   0.376   4.654
 3479SOL    HW111180   3.067   0.346   4.635
 3479SOL    HW211181   3.191   0.312   4.715
 3480SOL     OW11182   3.441   1.678   4.033
 3480SOL    HW111183   3.533   1.702   4.025
 3480SOL    HW211184   3.412   1.660   3.944
 3481SOL     OW11185   2.657   0.621   5.176
 3481SOL    HW111186   2.629   0.592   5.263
 3481SOL    HW211187   2.625   0.553   5.117
 3482SOL     OW11188   3.250   0.484   5.400
 3482SOL    HW111189   3.254   0.528   5.485
 3482SOL    HW211190   3.317   0.416   5.405
 3483SOL     OW11191   2.812   0.887   5.310
 3483SOL    HW111192   2.867   0.818   5.273
 3483SOL    HW211193   2.764   0.922   5.235
 3484SOL     OW11194   2.862   0.416   4.956
 3484SOL    HW111195   2.770   0.425   4.983
 3484SOL    HW211196   2.858   0.361   4.877
 3485SOL     OW11197   2.914   0.698   4.148
 3485SOL    HW111198   2.934   0.690   4.241
 3485SOL    HW211199   2.829   0.655   4.137
 3486SOL     OW11200   1.950   0.821   4.502
 3486SOL    HW111201   2.031   0.816   4.553
 3486SOL    HW211202   1.904   0.897   4.538
 3487SOL     OW11203   2.718   0.372   3.914
 3487SOL    HW111204   2.783   0.406   3.853
 3487SOL    HW211205   2.732   0.278   3.914
 3488SOL     OW11206   3.562   0.570   5.554
 3488SOL    HW111207   3.529   0.645   5.504
 3488SOL    HW211208   3.596   0.510   5.487
 3489SOL     OW11209   3.244   1.143   4.265
 3489SOL    HW111210   3.321   1.134   4.210
 3489SOL    HW211211   3.188   1.206   4.218
 3490SOL     OW11212   2.394   0.212   4.627
 3490SOL    HW111213   2.418   0.229   4.718
 3490SOL    HW211214   2.393   0.298   4.586
 3491SOL     OW11215   2.859   1.445   4.191
 3491SOL    HW111216   2.831   1.522   4.141
 3491SOL    HW211217   2.833   1.463   4.281
 3492SOL     OW11218   2.257   1.808   4.483
 3492SOL    HW111219   2.223   1.753   4.554
 3492SOL    HW211220   2.317   1.869   4.526
 3493SOL     OW11221   3.662   1.055   4.596
 3493SOL    HW111222   3.610   1.033   4.518
 3493SOL    HW211223   3.598   1.061   4.667
 3494SOL     OW11224   3.081   1.538   5.248
 3494SOL    HW111225   3.065   1.465   5.308
 3494SOL    HW211226   3.029   1.517   5.171
 3495SOL     OW11227   2.176   0.960   3.978
 3495SOL    HW111228   2.259   0.980   3.935
 3495SOL    HW211229   2.148   0.877   3.940
 3496SOL     OW11230   3.347   0.748   4.443
 3496SOL    HW111231   3.340   0.710   4.530
 3496SOL    HW211232   3.423   0.806   4.448
 3497SOL     OW11233   2.326   1.264   5.461
 3497SOL    HW111234   2.303   1.269   5.369
 3497SOL    HW211235   2.242   1.253   5.506
 3498SOL     OW11236   2.989   1.778   3.953
 3498SOL    HW111237   2.911   1.742   3.996
 3498SOL    HW211238   3.011   1.714   3.886
 3499SOL     OW11239   2.048   0.267   5.243
 3499SOL    HW111240   1.984   0.339   5.236
 3499SOL    HW211241   2.075   0.268   5.335
 3500SOL     OW11242   3.491   1.382   3.813
 3500SOL    HW111243   3.449   1.467   3.800
 3500SOL    HW211244   3.423   1.318   3.794
 3501SOL     OW11245   2.329   1.716   4.068
 3501SOL    HW111246   2.367   1.789   4.116
 3501SOL    HW211247   2.389   1.702   3.994
 3502SOL     OW11248   3.294   0.150   4.147
 3502SOL    HW111249   3.276   0.091   4.073
 3502SOL    HW211250   3.386   0.136   4.167
 3503SOL     OW11251   2.258   0.691   4.196
 3503SOL    HW111252   2.278   0.599   4.213
 3503SOL    HW211253   2.165   0.699   4.214
 3504SOL     OW11254   3.385   0.234   5.447
 3504SOL    HW111255   3.385   0.254   5.540
 3504SOL    HW211256   3.304   0.185   5.433
 3505SOL     OW11257   2.495   0.119   3.852
 3505SOL    HW111258   2.585   0.086   3.861
 3505SOL    HW211259   2.463   0.078   3.772
 3506SOL     OW11260   2.630   0.271   5.481
 3506SOL    HW111261   2.701   0.206   5.476
 3506SOL    HW211262   2.594   0.260   5.569
 3507SOL     OW11263   3.200   0.590   5.151
 3507SOL    HW111264   3.228   0.564   5.238
 3507SOL    HW211265   3.234   0.679   5.141
 3508SOL     OW11266   2.667   1.333   4.637
 3508SOL    HW111267   2.753   1.368   4.616
 3508SOL    HW211268   2.610   1.366   4.568
 3509SOL     OW11269   2.788   0.527   4.619
 3509SOL    HW111270   2.771   0.524   4.525
 3509SOL    HW211271   2.817   0.439   4.641
 3510SOL     OW11272   2.420   0.087   4.250
 3510SOL    HW111273   2.336   0.049   4.274
 3510SOL    HW211274   2.401   0.143   4.175
 3511SOL     OW11275   3.290   1.201   3.763
 3511SOL    HW111276   3.318   1.126   3.815
 3511SOL    HW211277   3.205   1.225   3.800
 3512SOL     OW11278   2.153   0.060   3.932
 3512SOL    HW111279   2.227   0.119   3.920
 3512SOL    HW211280   2.181   4.499   4.000
 3513SOL     OW11281   2.823   0.239   4.183
 3513SOL    HW111282   2.770   0.309   4.145
 3513SOL    HW211283   2.913   0.271   4.177
 3514SOL     OW11284   2.942   0.685   5.183
 3514SOL    HW111285   2.873   0.619   5.180
 3514SOL    HW211286   3.023   0.636   5.170
 3515SOL     OW11287   3.103   1.559   4.501
 3515SOL    HW111288   3.112   1.631   4.439
 3515SOL    HW211289   3.142   1.591   4.582
 3516SOL     OW11290   2.332   1.154   4.448
 3516SOL    HW111291   2.266   1.135   4.514
 3516SOL    HW211292   2.288   1.139   4.365
 3517SOL     OW11293   3.141   1.784   4.327
 3517SOL    HW111294   3.182   1.855   4.278
 3517SOL    HW211295   3.056   1.819   4.354
 3518SOL     OW11296   2.887   0.538   3.747
 3518SOL    HW111297   2.840   0.620   3.731
 3518SOL    HW211298   2.946   0.558   3.820
 3519SOL     OW11299   1.952   0.547   5.121
 3519SOL    HW111300   2.042   0.552   5.091
 3519SOL    HW211301   1.943   0.618   5.184
 3520SOL     OW11302   2.420   0.250   4.896
 3520SOL    HW111303   2.444   0.169   4.941
 3520SOL    HW211304   2.327   0.262   4.917
 3521SOL     OW11305   2.727   0.504   4.353
 3521SOL    HW111306   2.691   0.540   4.272
 3521SOL    HW211307   2.672   0.427   4.371
 3522SOL     OW11308   2.802   0.008   4.532
 3522SOL    HW111309   2.765   0.013   4.444
 3522SOL    HW211310   2.824   4.415   4.544
 3523SOL     OW11311   3.303   1.158   4.579
 3523SOL    HW111312   3.225   1.102   4.584
 3523SOL    HW211313   3.321   1.166   4.486
 3524SOL     OW11314   3.326   0.610   4.688
 3524SOL    HW111315   3.268   0.534   4.688
 3524SOL    HW211316   3.380   0.600   4.766
 3525SOL     OW11317   3.703   0.811   4.109
 3525SOL    HW111318   3.761   0.762   4.168
 3525SOL    HW211319   3.679   0.748   4.041
 3526SOL     OW11320   2.352   1.423   3.874
 3526SOL    HW111321   2.277   1.396   3.927
 3526SOL    HW211322   2.346   1.370   3.795
 3527SOL     OW11323   3.540   1.267   4.361
 3527SOL    HW111324   3.634   1.268   4.380
 3527SOL    HW211325   3.510   1.354   4.386
 3528SOL     OW11326   3.256   0.574   3.793
 3528SOL    HW111327   3.193   0.557   3.863
 3528SOL    HW211328   3.342   0.561   3.835
 3529SOL     OW11329   2.373   0.263   4.043
 3529SOL    HW111330   2.428   0.215   3.981
 3529SOL    HW211331   2.355   0.346   3.999
 3530SOL     OW11332   3.611   1.243   5.286
 3530SOL    HW111333   3.698   1.204   5.279
 3530SOL    HW211334   3.627   1.332   5.316
 3531SOL     OW11335   2.932   1.366   5.068
 3531SOL    HW111336   2.850   1.333   5.104
 3531SOL    HW211337   3.000   1.311   5.107
 3532SOL     OW11338   3.473   1.629   5.382
 3532SOL    HW111339   3.465   1.663   5.293
 3532SOL    HW211340   3.553   1.577   5.381
 3533SOL     OW11341   2.987   1.210   4.831
 3533SOL    HW111342   2.926   1.255   4.889
 3533SOL    HW211343   2.969   1.245   4.744
 3534SOL     OW11344   3.484   1.095   4.800
 3534SOL    HW111345   3.477   1.160   4.871
 3534SOL    HW211346   3.409   1.114   4.743
 3535SOL     OW11347   2.756   0.137   5.106
 3535SOL    HW111348   2.780   0.090   5.027
 3535SOL    HW211349   2.839   0.160   5.147
 3536SOL     OW11350   2.847   1.116   5.449
 3536SOL    HW111351   2.755   1.134   5.470
 3536SOL    HW211352   2.844   1.038   5.393
 3537SOL     OW11353   2.572   1.063   4.095
 3537SOL    HW111354   2.557   1.043   4.188
 3537SOL    HW211355   2.647   1.009   4.070
 3538SOL     OW11356   2.284   0.823   4.979
 3538SOL    HW111357   2.354   0.831   5.044
 3538SOL    HW211358   2.251   0.734   4.989
 3539SOL     OW11359   3.130   0.373   5.001
 3539SOL    HW111360   3.162   0.452   5.044
 3539SOL    HW211361   3.040   0.394   4.976
 3540SOL     OW11362   2.193   1.118   4.213
 3540SOL    HW111363   2.203   1.193   4.154
 3540SOL    HW211364   2.194   1.042   4.155
 3541SOL     OW11365   2.413   0.520   4.581
 3541SOL    HW111366   2.423   0.580   4.507
 3541SOL    HW211367   2.480   0.548   4.644
 3542SOL     OW11368   3.108   1.350   4.115
 3542SOL    HW111369   3.164   1.421   4.147
 3542SOL    HW211370   3.021   1.371   4.149
 3543SOL     OW11371   3.155   1.454   4.871
 3543SOL    HW111372   3.205   1.453   4.953
 3543SOL    HW211373   3.083   1.393   4.886
 3544SOL     OW11374   3.439   0.623   4.204
 3544SOL    HW111375   3.390   0.663   4.276
 3544SOL    HW211376   3.481   0.697   4.159
 3545SOL     OW11377   2.284   0.741   5.329
 3545SOL    HW111378   2.343   0.788   5.270
 3545SOL    HW211379   2.329   0.660   5.349
 3546SOL     OW11380   3.471   0.781   5.410
 3546SOL    HW111381   3.385   0.823   5.403
 3546SOL    HW211382   3.523   0.822   5.341
 3547SOL     OW11383   2.853   0.091   5.435
 3547SOL    HW111384   2.904   0.165   5.399
 3547SOL    HW211385   2.876   0.017   5.379
 3548SOL     OW11386   2.364   0.039   5.488
 3548SOL    HW111387   2.384   0.020   5.397
 3548SOL    HW211388   2.296   0.106   5.485
 3549SOL     OW11389   2.444   0.874   4.752
 3549SOL    HW111390   2.492   0.957   4.756
 3549SOL    HW211391   2.392   0.873   4.833
 3550SOL     OW11392   3.207   0.858   4.747
 3550SOL    HW111393   3.120   0.843   4.709
 3550SOL    HW211394   3.252   0.775   4.734
 3551SOL     OW11395   3.058   0.537   3.979
 3551SOL    HW111396   3.066   0.458   4.033
 3551SOL    HW211397   3.016   0.601   4.036
 3552SOL     OW11398   2.150   0.229   4.968
 3552SOL    HW111399   2.101   0.246   5.049
 3552SOL    HW211400   2.193   0.145   4.984
 3553SOL     OW11401   1.916   1.322   5.010
 3553SOL    HW111402   1.943   1.259   5.077
 3553SOL    HW211403   1.900   1.403   5.059
 3554SOL     OW11404   2.580   0.629   4.774
 3554SOL    HW111405   2.657   0.615   4.719
 3554SOL    HW211406   2.551   0.718   4.753
 3555SOL     OW11407   3.602   0.959   5.582
 3555SOL    HW111408   3.558   0.893   5.529
 3555SOL    HW211409   3.541   0.977   5.654
 3556SOL     OW11410   2.152   0.042   4.371
 3556SOL    HW111411   2.141   0.137   4.371
 3556SOL    HW211412   2.166   0.019   4.463
 3557SOL     OW11413   3.487   0.388   4.075
 3557SOL    HW111414   3.508   0.321   4.140
 3557SOL    HW211415   3.461   0.464   4.128
 3558SOL     OW11416   2.900   0.765   4.684
 3558SOL    HW111417   2.887   0.781   4.777
 3558SOL    HW211418   2.866   0.676   4.670
 3559SOL     OW11419   3.714   1.500   5.329
 3559SOL    HW111420   3.734   1.529   5.240
 3559SOL    HW211421   3.794   1.515   5.378
 3560SOL     OW11422   2.214   0.921   5.527
 3560SOL    HW111423   2.291   0.938   5.581
 3560SOL    HW211424   2.242   0.855   5.464
 3561SOL     OW11425   3.389   0.260   3.851
 3561SOL    HW111426   3.322   0.202   3.887
 3561SOL    HW211427   3.422   0.308   3.927
 3562SOL     OW11428   3.147   0.825   3.750
 3562SOL    HW111429   3.189   0.739   3.754
 3562SOL    HW211430   3.180   0.864   3.669
 3563SOL     OW11431   2.949   1.334   4.586
 3563SOL    HW111432   2.944   1.266   4.519
 3563SOL    HW211433   3.000   1.404   4.544
 3564SOL     OW11434   2.170   0.813   4.671
 3564SOL    HW111435   2.263   0.835   4.665
 3564SOL    HW211436   2.169   0.722   4.702
 3565SOL     OW11437   2.196   0.537   4.738
 3565SOL    HW111438   2.152   0.454   4.721
 3565SOL    HW211439   2.273   0.536   4.681
 3566SOL     OW11440   3.002   0.368   5.430
 3566SOL    HW111441   2.947   0.430   5.478
 3566SOL    HW211442   3.083   0.415   5.414
 3567SOL     OW11443   3.009   0.216   5.199
 3567SOL    HW111444   3.009   0.280   5.271
 3567SOL    HW211445   3.056   0.260   5.128
 3568SOL     OW11446   1.869   1.319   3.916
 3568SOL    HW111447   1.782   1.335   3.881
 3568SOL    HW211448   1.864   1.229   3.951
 3569SOL     OW11449   2.836   0.787   4.948
 3569SOL    HW111450   2.895   0.770   5.021
 3569SOL    HW211451   2.754   0.745   4.973
 3570SOL     OW11452   1.894   0.548   4.844
 3570SOL    HW111453   1.968   0.529   4.786
 3570SOL    HW211454   1.931   0.548   4.932
 3571SOL     OW11455   2.046   0.525   5.450
 3571SOL    HW111456   2.126   0.508   5.401
 3571SOL    HW211457   2.006   0.600   5.407
 3572SOL     OW11458   3.243   0.932   5.380
 3572SOL    HW111459   3.265   1.025   5.377
 3572SOL    HW211460   3.237   0.905   5.288
 3573SOL     OW11461   2.672   0.578   4.088
 3573SOL    HW111462   2.678   0.507   4.023
 3573SOL    HW211463   2.599   0.632   4.057
 3574SOL     OW11464   3.498   0.602   4.903
 3574SOL    HW111465   3.488   0.543   4.979
 3574SOL    HW211466   3.586   0.584   4.871
 3575SOL     OW11467   2.054   1.539   5.512
 3575SOL    HW111468   2.145   1.566   5.499
 3575SOL    HW211469   2.060   1.450   5.546
 3576SOL     OW11470   2.578   0.456   4.981
 3576SOL    HW111471   2.525   0.381   4.954
 3576SOL    HW211472   2.572   0.517   4.908
 3577SOL     OW11473   2.321   0.491   3.904
 3577SOL    HW111474   2.381   0.562   3.927
 3577SOL    HW211475   2.236   0.535   3.892
 3578SOL     OW11476   2.010   1.143   5.198
 3578SOL    HW111477   2.010   1.096   5.281
 3578SOL    HW211478   2.023   1.075   5.132
 3579SOL     OW11479   3.179   1.045   4.944
 3579SOL    HW111480   3.199   0.982   4.874
 3579SOL    HW211481   3.111   1.101   4.907
 3580SOL     OW11482   3.181   0.855   4.026
 3580SOL    HW111483   3.107   0.830   4.082
 3580SOL    HW211484   3.149   0.843   3.937
 3581SOL     OW11485   3.646   1.735   4.884
 3581SOL    HW111486   3.704   1.760   4.813
 3581SOL    HW211487   3.615   1.648   4.860
 3582SOL     OW11488   3.154   1.731   4.876
 3582SOL    HW111489   3.221   1.749   4.809
 3582SOL    HW211490   3.141   1.637   4.873
 3583SOL     OW11491   1.942   1.252   4.745
 3583SOL    HW111492   1.927   1.277   4.836
 3583SOL    HW211493   1.867   1.197   4.722
 3584SOL     OW11494   2.558   1.664   5.442
 3584SOL    HW111495   2.494   1.735   5.441
 3584SOL    HW211496   2.621   1.688   5.374
 3585SOL     OW11497   3.583   0.128   4.205
 3585SOL    HW111498   3.650   0.144   4.138
 3585SOL    HW211499   3.620   0.058   4.259
 3586SOL     OW11500   3.259   1.564   4.209
 3586SOL    HW111501   3.316   1.601   4.141
 3586SOL    HW211502   3.209   1.639   4.242
 3587SOL     OW11503   1.946   1.774   5.598
 3587SOL    HW111504   1.975   1.687   5.570
 3587SOL    HW211505   2.024   1.813   5.637
 3588SOL     OW11506   3.141   0.928   4.394
 3588SOL    HW111507   3.215   0.869   4.403
 3588SOL    HW211508   3.175   1.002   4.342
 3589SOL     OW11509   2.677   1.274   5.142
 3589SOL    HW111510   2.643   1.316   5.221
 3589SOL    HW211511   2.607   1.286   5.077
 3590SOL     OW11512   2.530   1.629   3.878
 3590SOL    HW111513   2.545   1.641   3.784
 3590SOL    HW211514   2.474   1.551   3.883
 3591SOL     OW11515   3.480   1.731   5.119
 3591SOL    HW111516   3.532   1.733   5.038
 3591SOL    HW211517   3.464   1.823   5.139
 3592SOL     OW11518   3.703   0.151   4.689
 3592SOL    HW111519   3.735   0.072   4.645
 3592SOL    HW211520   3.616   0.167   4.651
 3593SOL     OW11521   2.120   0.312   4.435
 3593SOL    HW111522   2.036   0.351   4.412
 3593SOL    HW211523   2.119   0.309   4.531
 3594SOL     OW11524   3.072   1.600   3.757
 3594SOL    HW111525   3.060   1.510   3.786
 3594SOL    HW211526   3.004   1.614   3.691
 3595SOL     OW11527   2.688   1.005   5.096
 3595SOL    HW111528   2.730   0.996   5.011
 3595SOL    HW211529   2.690   1.099   5.114
 3596SOL     OW11530   2.777   0.909   4.013
 3596SOL    HW111531   2.838   0.943   3.948
 3596SOL    HW211532   2.827   0.843   4.061
 3597SOL     OW11533   3.351   1.629   3.769
 3597SOL    HW111534   3.257   1.618   3.755
 3597SOL    HW211535   3.388   1.635   3.681
 3598SOL     OW11536   2.229   1.310   5.216
 3598SOL    HW111537   2.195   1.397   5.198
 3598SOL    HW211538   2.155   1.251   5.198
 3599SOL     OW11539   3.473   1.285   5.005
 3599SOL    HW111540   3.526   1.267   5.082
 3599SOL    HW211541   3.409   1.350   5.035
 3600SOL     OW11542   2.923   1.111   4.430
 3600SOL    HW111543   2.849   1.064   4.469
 3600SOL    HW211544   2.986   1.042   4.407
 3601SOL     OW11545   2.861   0.247   4.740
 3601SOL    HW111546   2.870   0.234   4.645
 3601SOL    HW211547   2.850   0.159   4.775
 3602SOL     OW11548   2.458   1.489   4.193
 3602SOL    HW111549   2.506   1.441   4.126
 3602SOL    HW211550   2.399   1.546   4.144
 3603SOL     OW11551   3.588   0.394   5.099
 3603SOL    HW111552   3.662   0.454   5.098
 3603SOL    HW211553   3.615   0.322   5.041
 3604SOL     OW11554   2.123   1.344   4.013
 3604SOL    HW111555   2.031   1.340   3.990
 3604SOL    HW211556   2.124   1.382   4.101
 3605SOL     OW11557   1.976   1.040   5.453
 3605SOL    HW111558   1.900   1.009   5.501
 3605SOL    HW211559   2.049   0.991   5.491
 3606SOL     OW11560   2.518   0.205   5.230
 3606SOL    HW111561   2.596   0.182   5.180
 3606SOL    HW211562   2.552   0.231   5.316
 3607SOL     OW11563   1.946   0.325   3.770
 3607SOL    HW111564   1.877   0.270   3.733
 3607SOL    HW211565   1.951   0.400   3.710
 3608SOL     OW11566   3.286   0.858   5.119
 3608SOL    HW111567   3.235   0.918   5.065
 3608SOL    HW211568   3.374   0.861   5.082
 3609SOL     OW11569   1.922   0.192   4.029
 3609SOL    HW111570   1.925   0.259   3.961
 3609SOL    HW211571   1.996   0.134   4.009
 3610SOL     OW11572   3.040   1.334   3.843
 3610SOL    HW111573   2.949   1.304   3.845
 3610SOL    HW211574   3.066   1.336   3.935
 3611SOL     OW11575   2.484   0.832   5.160
 3611SOL    HW111576   2.541   0.907   5.143
 3611SOL    HW211577   2.544   0.758   5.168
 3612SOL     OW11578   3.357   1.786   4.701
 3612SOL    HW111579   3.375   1.843   4.626
 3612SOL    HW211580   3.443   1.756   4.729
 3613SOL     OW11581   2.576   0.559   5.427
 3613SOL    HW111582   2.621   0.621   5.484
 3613SOL    HW211583   2.600   0.473   5.461
 3614SOL     OW11584   3.340   1.190   5.355
 3614SOL    HW111585   3.327   1.208   5.448
 3614SOL    HW211586   3.432   1.212   5.340
 3615SOL     OW11587   3.525   0.880   4.979
 3615SOL    HW111588   3.520   0.795   4.935
 3615SOL    HW211589   3.515   0.944   4.909
 3616SOL     OW11590   3.085   0.334   4.168
 3616SOL    HW111591   3.155   0.271   4.153
 3616SOL    HW211592   3.112   0.384   4.245
 3617SOL     OW11593   2.443   0.732   4.401
 3617SOL    HW111594   2.487   0.817   4.389
 3617SOL    HW211595   2.381   0.726   4.329
 3618SOL     OW11596   3.617   0.374   5.369
 3618SOL    HW111597   3.604   0.387   5.275
 3618SOL    HW211598   3.541   0.322   5.396
 3619SOL     OW11599   3.615   0.932   5.234
 3619SOL    HW111600   3.599   1.026   5.247
 3619SOL    HW211601   3.594   0.917   5.141
 3620SOL     OW11602   2.725   1.364   3.767
 3620SOL    HW111603   2.690   1.385   3.853
 3620SOL    HW211604   2.739   1.449   3.725
 3621SOL     OW11605   2.735   0.967   4.573
 3621SOL    HW111606   2.790   0.897   4.611
 3621SOL    HW211607   2.697   1.011   4.649
 3622SOL     OW11608   2.939   0.989   3.813
 3622SOL    HW111609   2.918   1.041   3.736
 3622SOL    HW211610   3.013   0.934   3.785
 3623SOL     OW11611   3.707   1.555   4.567
 3623SOL    HW111612   3.629   1.543   4.514
 3623SOL    HW211613   3.701   1.489   4.635
 3624SOL     OW11614   2.074   1.274   5.576
 3624SOL    HW111615   2.034   1.197   5.535
 3624SOL    HW211616   2.021   1.288   5.655
 3625SOL     OW11617   1.953   1.223   4.393
 3625SOL    HW111618   1.975   1.179   4.475
 3625SOL    HW211619   2.017   1.189   4.330
 3626SOL     OW11620   2.539   1.407   5.336
 3626SOL    HW111621   2.464   1.366   5.379
 3626SOL    HW211622   2.546   1.493   5.377
 3627SOL     OW11623   3.662   0.174   4.961
 3627SOL    HW111624   3.657   0.080   4.979
 3627SOL    HW211625   3.682   0.180   4.868
 3628SOL     OW11626   2.299   0.431   4.257
 3628SOL    HW111627   2.319   0.364   4.192
 3628SOL    HW211628   2.243   0.386   4.321
 3629SOL     OW11629   3.559   1.486   4.819
 3629SOL    HW111630   3.482   1.467   4.766
 3629SOL    HW211631   3.562   1.416   4.884
 3630SOL     OW11632   2.199   0.564   5.017
 3630SOL    HW111633   2.252   0.505   5.070
 3630SOL    HW211634   2.216   0.537   4.926
 3631SOL     OW11635   2.693   1.573   4.389
 3631SOL    HW111636   2.657   1.631   4.322
 3631SOL    HW211637   2.620   1.518   4.416
 3632SOL     OW11638   3.291   0.218   4.839
 3632SOL    HW111639   3.326   0.147   4.891
 3632SOL    HW211640   3.240   0.271   4.901
 3633SOL     OW11641   2.856   4.498   4.880
 3633SOL    HW111642   2.821   4.409   4.877
 3633SOL    HW211643   2.951   4.487   4.885
 3634SOL     OW11644   2.639   1.334   4.039
 3634SOL    HW111645   2.612   1.243   4.053
 3634SOL    HW211646   2.715   1.344   4.096
 3635SOL     OW11647   3.200   0.050   3.889
 3635SOL    HW111648   3.237   4.475   3.843
 3635SOL    HW211649   3.122   0.016   3.933
 3636SOL     OW11650   3.178   0.467   4.392
 3636SOL    HW111651   3.123   0.546   4.394
 3636SOL    HW211652   3.167   0.429   4.480
 3637SOL     OW11653   3.448   0.198   4.595
 3637SOL    HW111654   3.390   0.213   4.670
 3637SOL    HW211655   3.450   0.281   4.548
 3638SOL     OW11656   1.903   1.066   4.032
 3638SOL    HW111657   1.997   1.059   4.015
 3638SOL    HW211658   1.876   0.977   4.053
 3639SOL     OW11659   2.751   1.663   4.058
 3639SOL    HW111660   2.676   1.645   4.001
 3639SOL    HW211661   2.721   1.734   4.115
 3640SOL     OW11662   2.084   0.625   5.712
 3640SOL    HW111663   1.998   0.617   5.753
 3640SOL    HW211664   2.070   0.597   5.621
 3641SOL     OW11665   2.066   0.304   6.577
 3641SOL    HW111666   2.098   0.270   6.661
 3641SOL    HW211667   1.985   0.255   6.562
 3642SOL     OW11668   1.866   0.394   6.220
 3642SOL    HW111669   1.780   0.410   6.259
 3642SOL    HW211670   1.852   0.323   6.157
 3643SOL     OW11671   2.433   1.292   6.774
 3643SOL    HW111672   2.347   1.294   6.732
 3643SOL    HW211673   2.450   1.383   6.799
 3644SOL     OW11674   3.432   1.514   6.295
 3644SOL    HW111675   3.389   1.490   6.377
 3644SOL    HW211676   3.361   1.516   6.231
 3645SOL     OW11677   3.004   0.695   6.277
 3645SOL    HW111678   3.047   0.781   6.270
 3645SOL    HW211679   2.951   0.702   6.357
 3646SOL     OW11680   3.642   0.600   5.810
 3646SOL    HW111681   3.615   0.594   5.718
 3646SOL    HW211682   3.603   0.523   5.851
 3647SOL     OW11683   2.613   1.138   6.637
 3647SOL    HW111684   2.544   1.175   6.692
 3647SOL    HW211685   2.656   1.214   6.598
 3648SOL     OW11686   2.735   0.763   7.410
 3648SOL    HW111687   2.722   0.833   7.474
 3648SOL    HW211688   2.758   0.808   7.329
 3649SOL     OW11689   2.548   0.996   6.231
 3649SOL    HW111690   2.613   0.991   6.301
 3649SOL    HW211691   2.480   1.053   6.267
 3650SOL     OW11692   2.577   1.150   7.406
 3650SOL    HW111693   2.624   1.227   7.436
 3650SOL    HW211694   2.497   1.185   7.367
 3651SOL     OW11695   2.196   1.417   6.658
 3651SOL    HW111696   2.121   1.387   6.605
 3651SOL    HW211697   2.259   1.449   6.594
 3652SOL     OW11698   3.321   1.502   6.948
 3652SOL    HW111699   3.375   1.580   6.957
 3652SOL    HW211700   3.252   1.512   7.013
 3653SOL     OW11701   2.308   0.391   7.066
 3653SOL    HW111702   2.389   0.341   7.072
 3653SOL    HW211703   2.239   0.327   7.082
 3654SOL     OW11704   3.466   0.440   6.325
 3654SOL    HW111705   3.387   0.457   6.274
 3654SOL    HW211706   3.475   0.517   6.381
 3655SOL     OW11707   3.001   1.342   7.281
 3655SOL    HW111708   3.040   1.335   7.368
 3655SOL    HW211709   2.948   1.262   7.272
 3656SOL     OW11710   2.123   1.097   6.475
 3656SOL    HW111711   2.122   1.009   6.511
 3656SOL    HW211712   2.064   1.147   6.533
 3657SOL     OW11713   2.467   1.775   7.020
 3657SOL    HW111714   2.383   1.767   7.064
 3657SOL    HW211715   2.492   1.866   7.031
 3658SOL     OW11716   2.437   0.985   5.724
 3658SOL    HW111717   2.488   1.029   5.656
 3658SOL    HW211718   2.476   1.015   5.806
 3659SOL     OW11719   3.436   0.119   7.049
 3659SOL    HW111720   3.478   0.185   6.992
 3659SOL    HW211721   3.427   0.163   7.133
 3660SOL     OW11722   1.983   0.655   6.148
 3660SOL    HW111723   1.951   0.568   6.171
 3660SOL    HW211724   1.974   0.706   6.229
 3661SOL     OW11725   3.706   1.754   5.915
 3661SOL    HW111726   3.774   1.729   5.978
 3661SOL    HW211727   3.724   1.846   5.897
 3662SOL     OW11728   3.553   0.921   6.233
 3662SOL    HW111729   3.634   0.876   6.209
 3662SOL    HW211730   3.530   0.972   6.155
 3663SOL     OW11731   3.512   1.103   6.015
 3663SOL    HW111732   3.599   1.104   5.974
 3663SOL    HW211733   3.518   1.167   6.086
 3664SOL     OW11734   1.984   0.748   7.167
 3664SOL    HW111735   2.073   0.781   7.171
 3664SOL    HW211736   1.929   0.827   7.168
 3665SOL     OW11737   3.146   1.236   7.006
 3665SOL    HW111738   3.176   1.168   6.946
 3665SOL    HW211739   3.205   1.230   7.081
 3666SOL     OW11740   2.685   0.022   6.145
 3666SOL    HW111741   2.724   0.105   6.116
 3666SOL    HW211742   2.591   0.035   6.137
 3667SOL     OW11743   2.049   0.960   6.866
 3667SOL    HW111744   2.136   0.922   6.851
 3667SOL    HW211745   1.992   0.915   6.805
 3668SOL     OW11746   3.395   0.998   5.786
 3668SOL    HW111747   3.325   0.941   5.819
 3668SOL    HW211748   3.437   1.032   5.865
 3669SOL     OW11749   3.048   1.813   7.213
 3669SOL    HW111750   3.057   1.873   7.138
 3669SOL    HW211751   3.064   1.726   7.176
 3670SOL     OW11752   2.179   0.251   7.364
 3670SOL    HW111753   2.243   0.313   7.397
 3670SOL    HW211754   2.105   0.257   7.424
 3671SOL     OW11755   3.334   1.417   6.536
 3671SOL    HW111756   3.265   1.434   6.600
 3671SOL    HW211757   3.318   1.327   6.508
 3672SOL     OW11758   3.515   1.754   6.163
 3672SOL    HW111759   3.495   1.721   6.075
 3672SOL    HW211760   3.496   1.680   6.221
 3673SOL     OW11761   2.451   0.720   5.854
 3673SOL    HW111762   2.454   0.805   5.810
 3673SOL    HW211763   2.387   0.731   5.924
 3674SOL     OW11764   3.156   0.377   6.516
 3674SOL    HW111765   3.067   0.346   6.498
 3674SOL    HW211766   3.191   0.313   6.577
 3675SOL     OW11767   3.442   1.674   5.896
 3675SOL    HW111768   3.534   1.699   5.889
 3675SOL    HW211769   3.414   1.657   5.806
 3676SOL     OW11770   2.658   0.621   7.038
 3676SOL    HW111771   2.629   0.593   7.125
 3676SOL    HW211772   2.625   0.553   6.979
 3677SOL     OW11773   3.250   0.484   7.262
 3677SOL    HW111774   3.255   0.528   7.347
 3677SOL    HW211775   3.317   0.415   7.267
 3678SOL     OW11776   2.812   0.886   7.173
 3678SOL    HW111777   2.866   0.817   7.135
 3678SOL    HW211778   2.763   0.922   7.099
 3679SOL     OW11779   2.862   0.417   6.817
 3679SOL    HW111780   2.771   0.424   6.845
 3679SOL    HW211781   2.858   0.362   6.739
 3680SOL     OW11782   2.915   0.699   6.010
 3680SOL    HW111783   2.934   0.690   6.103
 3680SOL    HW211784   2.830   0.656   5.999
 3681SOL     OW11785   1.950   0.821   6.364
 3681SOL    HW111786   2.031   0.816   6.415
 3681SOL    HW211787   1.904   0.898   6.399
 3682SOL     OW11788   1.958   1.803   7.147
 3682SOL    HW111789   1.967   1.792   7.241
 3682SOL    HW211790   1.863   1.810   7.132
 3683SOL     OW11791   2.720   0.372   5.779
 3683SOL    HW111792   2.782   0.407   5.715
 3683SOL    HW211793   2.732   0.278   5.776
 3684SOL     OW11794   3.563   0.570   7.416
 3684SOL    HW111795   3.529   0.645   7.366
 3684SOL    HW211796   3.596   0.510   7.349
 3685SOL     OW11797   3.243   1.143   6.125
 3685SOL    HW111798   3.322   1.133   6.072
 3685SOL    HW211799   3.189   1.205   6.076
 3686SOL     OW11800   2.394   0.211   6.489
 3686SOL    HW111801   2.418   0.229   6.581
 3686SOL    HW211802   2.393   0.298   6.448
 3687SOL     OW11803   2.866   1.463   6.051
 3687SOL    HW111804   2.782   1.504   6.028
 3687SOL    HW211805   2.871   1.471   6.146
 3688SOL     OW11806   3.662   1.056   6.459
 3688SOL    HW111807   3.611   1.033   6.381
 3688SOL    HW211808   3.598   1.061   6.530
 3689SOL     OW11809   3.088   1.541   7.100
 3689SOL    HW111810   3.078   1.468   7.162
 3689SOL    HW211811   3.020   1.526   7.034
 3690SOL     OW11812   2.174   0.955   5.840
 3690SOL    HW111813   2.256   0.977   5.797
 3690SOL    HW211814   2.148   0.871   5.802
 3691SOL     OW11815   3.346   0.749   6.305
 3691SOL    HW111816   3.340   0.709   6.392
 3691SOL    HW211817   3.423   0.805   6.310
 3692SOL     OW11818   2.333   1.267   7.326
 3692SOL    HW111819   2.307   1.271   7.234
 3692SOL    HW211820   2.250   1.263   7.374
 3693SOL     OW11821   3.013   1.728   5.795
 3693SOL    HW111822   2.945   1.678   5.839
 3693SOL    HW211823   3.038   1.674   5.719
 3694SOL     OW11824   2.048   0.268   7.105
 3694SOL    HW111825   1.984   0.339   7.099
 3694SOL    HW211826   2.075   0.269   7.197
 3695SOL     OW11827   3.492   1.383   5.677
 3695SOL    HW111828   3.450   1.468   5.662
 3695SOL    HW211829   3.424   1.318   5.657
 3696SOL     OW11830   3.293   0.149   6.010
 3696SOL    HW111831   3.276   0.091   5.936
 3696SOL    HW211832   3.386   0.136   6.030
 3697SOL     OW11833   2.086   1.762   6.788
 3697SOL    HW111834   2.144   1.721   6.852
 3697SOL    HW211835   2.130   1.748   6.704
 3698SOL     OW11836   2.259   0.691   6.059
 3698SOL    HW111837   2.279   0.599   6.075
 3698SOL    HW211838   2.165   0.699   6.077
 3699SOL     OW11839   3.385   0.234   7.309
 3699SOL    HW111840   3.385   0.254   7.402
 3699SOL    HW211841   3.304   0.185   7.295
 3700SOL     OW11842   2.496   0.121   5.713
 3700SOL    HW111843   2.585   0.086   5.723
 3700SOL    HW211844   2.463   0.078   5.634
 3701SOL     OW11845   2.630   0.271   7.343
 3701SOL    HW111846   2.701   0.206   7.338
 3701SOL    HW211847   2.593   0.259   7.430
 3702SOL     OW11848   2.751   1.541   6.782
 3702SOL    HW111849   2.730   1.495   6.701
 3702SOL    HW211850   2.814   1.484   6.826
 3703SOL     OW11851   3.200   0.590   7.013
 3703SOL    HW111852   3.228   0.563   7.101
 3703SOL    HW211853   3.235   0.679   7.004
 3704SOL     OW11854   2.695   1.395   6.557
 3704SOL    HW111855   2.767   1.383   6.495
 3704SOL    HW211856   2.620   1.418   6.502
 3705SOL     OW11857   2.789   0.528   6.481
 3705SOL    HW111858   2.771   0.524   6.387
 3705SOL    HW211859   2.817   0.440   6.503
 3706SOL     OW11860   2.420   0.088   6.113
 3706SOL    HW111861   2.336   0.050   6.137
 3706SOL    HW211862   2.401   0.144   6.037
 3707SOL     OW11863   3.292   1.201   5.628
 3707SOL    HW111864   3.321   1.125   5.678
 3707SOL    HW211865   3.205   1.221   5.662
 3708SOL     OW11866   2.153   0.059   5.793
 3708SOL    HW111867   2.227   0.119   5.781
 3708SOL    HW211868   2.181   4.499   5.862
 3709SOL     OW11869   2.823   0.240   6.046
 3709SOL    HW111870   2.770   0.308   6.004
 3709SOL    HW211871   2.913   0.272   6.039
 3710SOL     OW11872   2.942   0.686   7.043
 3710SOL    HW111873   2.873   0.619   7.041
 3710SOL    HW211874   3.023   0.636   7.032
 3711SOL     OW11875   3.100   1.553   6.364
 3711SOL    HW111876   3.105   1.627   6.303
 3711SOL    HW211877   3.151   1.582   6.440
 3712SOL     OW11878   2.335   1.147   6.311
 3712SOL    HW111879   2.266   1.134   6.376
 3712SOL    HW211880   2.290   1.140   6.227
 3713SOL     OW11881   3.126   1.782   6.193
 3713SOL    HW111882   3.177   1.844   6.141
 3713SOL    HW211883   3.058   1.836   6.234
 3714SOL     OW11884   2.886   0.538   5.609
 3714SOL    HW111885   2.840   0.620   5.592
 3714SOL    HW211886   2.945   0.558   5.682
 3715SOL     OW11887   1.951   0.547   6.983
 3715SOL    HW111888   2.042   0.553   6.953
 3715SOL    HW211889   1.942   0.619   7.046
 3716SOL     OW11890   2.420   0.250   6.758
 3716SOL    HW111891   2.444   0.169   6.803
 3716SOL    HW211892   2.327   0.262   6.779
 3717SOL     OW11893   2.726   0.505   6.216
 3717SOL    HW111894   2.691   0.540   6.134
 3717SOL    HW211895   2.672   0.427   6.233
 3718SOL     OW11896   2.803   0.008   6.394
 3718SOL    HW111897   2.765   0.013   6.306
 3718SOL    HW211898   2.824   4.416   6.406
 3719SOL     OW11899   3.301   1.159   6.442
 3719SOL    HW111900   3.231   1.094   6.443
 3719SOL    HW211901   3.324   1.169   6.350
 3720SOL     OW11902   3.326   0.610   6.550
 3720SOL    HW111903   3.269   0.534   6.550
 3720SOL    HW211904   3.381   0.600   6.628
 3721SOL     OW11905   3.702   0.811   5.972
 3721SOL    HW111906   3.760   0.762   6.030
 3721SOL    HW211907   3.678   0.748   5.903
 3722SOL     OW11908   2.362   1.387   5.706
 3722SOL    HW111909   2.298   1.340   5.761
 3722SOL    HW211910   2.358   1.342   5.622
 3723SOL     OW11911   3.540   1.265   6.226
 3723SOL    HW111912   3.634   1.265   6.243
 3723SOL    HW211913   3.512   1.354   6.249
 3724SOL     OW11914   3.256   0.574   5.655
 3724SOL    HW111915   3.193   0.557   5.725
 3724SOL    HW211916   3.342   0.560   5.696
 3725SOL     OW11917   2.373   0.263   5.904
 3725SOL    HW111918   2.428   0.216   5.842
 3725SOL    HW211919   2.355   0.346   5.861
 3726SOL     OW11920   3.610   1.243   7.147
 3726SOL    HW111921   3.697   1.203   7.141
 3726SOL    HW211922   3.626   1.332   7.178
 3727SOL     OW11923   2.915   1.360   6.921
 3727SOL    HW111924   2.839   1.324   6.968
 3727SOL    HW211925   2.990   1.314   6.960
 3728SOL     OW11926   3.472   1.629   7.245
 3728SOL    HW111927   3.463   1.662   7.156
 3728SOL    HW211928   3.553   1.578   7.244
 3729SOL     OW11929   2.998   1.217   6.688
 3729SOL    HW111930   2.934   1.250   6.750
 3729SOL    HW211931   2.966   1.245   6.602
 3730SOL     OW11932   3.483   1.095   6.663
 3730SOL    HW111933   3.477   1.159   6.734
 3730SOL    HW211934   3.408   1.114   6.607
 3731SOL     OW11935   2.756   0.138   6.968
 3731SOL    HW111936   2.780   0.090   6.889
 3731SOL    HW211937   2.840   0.160   7.009
 3732SOL     OW11938   2.846   1.115   7.310
 3732SOL    HW111939   2.755   1.132   7.334
 3732SOL    HW211940   2.843   1.037   7.255
 3733SOL     OW11941   2.566   1.052   5.958
 3733SOL    HW111942   2.553   1.035   6.052
 3733SOL    HW211943   2.643   1.000   5.935
 3734SOL     OW11944   2.284   0.821   6.838
 3734SOL    HW111945   2.353   0.830   6.905
 3734SOL    HW211946   2.250   0.733   6.851
 3735SOL     OW11947   3.130   0.373   6.863
 3735SOL    HW111948   3.162   0.452   6.906
 3735SOL    HW211949   3.040   0.395   6.837
 3736SOL     OW11950   1.938   1.560   6.942
 3736SOL    HW111951   1.918   1.642   6.897
 3736SOL    HW211952   2.033   1.555   6.941
 3737SOL     OW11953   2.193   1.118   6.078
 3737SOL    HW111954   2.184   1.188   6.012
 3737SOL    HW211955   2.200   1.038   6.026
 3738SOL     OW11956   2.413   0.520   6.443
 3738SOL    HW111957   2.423   0.580   6.369
 3738SOL    HW211958   2.480   0.548   6.506
 3739SOL     OW11959   3.108   1.352   5.977
 3739SOL    HW111960   3.166   1.421   6.009
 3739SOL    HW211961   3.020   1.380   6.004
 3740SOL     OW11962   3.151   1.463   6.733
 3740SOL    HW111963   3.205   1.465   6.812
 3740SOL    HW211964   3.096   1.385   6.744
 3741SOL     OW11965   3.439   0.623   6.066
 3741SOL    HW111966   3.390   0.664   6.137
 3741SOL    HW211967   3.482   0.695   6.021
 3742SOL     OW11968   2.211   1.521   6.905
 3742SOL    HW111969   2.197   1.481   6.819
 3742SOL    HW211970   2.305   1.535   6.909
 3743SOL     OW11971   2.283   0.741   7.192
 3743SOL    HW111972   2.341   0.788   7.132
 3743SOL    HW211973   2.329   0.660   7.211
 3744SOL     OW11974   3.471   0.781   7.272
 3744SOL    HW111975   3.385   0.823   7.266
 3744SOL    HW211976   3.523   0.822   7.203
 3745SOL     OW11977   2.854   0.092   7.296
 3745SOL    HW111978   2.904   0.165   7.260
 3745SOL    HW211979   2.876   0.018   7.241
 3746SOL     OW11980   2.364   0.039   7.351
 3746SOL    HW111981   2.383   0.019   7.259
 3746SOL    HW211982   2.297   0.106   7.347
 3747SOL     OW11983   2.447   0.874   6.617
 3747SOL    HW111984   2.479   0.964   6.618
 3747SOL    HW211985   2.390   0.868   6.694
 3748SOL     OW11986   3.207   0.858   6.606
 3748SOL    HW111987   3.120   0.841   6.570
 3748SOL    HW211988   3.254   0.775   6.595
 3749SOL     OW11989   3.058   0.537   5.841
 3749SOL    HW111990   3.066   0.458   5.895
 3749SOL    HW211991   3.016   0.600   5.898
 3750SOL     OW11992   2.150   0.229   6.830
 3750SOL    HW111993   2.101   0.246   6.911
 3750SOL    HW211994   2.193   0.145   6.846
 3751SOL     OW11995   1.904   1.303   6.858
 3751SOL    HW111996   1.939   1.250   6.930
 3751SOL    HW211997   1.910   1.393   6.889
 3752SOL     OW11998   2.581   0.629   6.636
 3752SOL    HW111999   2.657   0.615   6.581
 3752SOL    HW212000   2.552   0.718   6.616
 3753SOL     OW12001   3.601   0.960   7.444
 3753SOL    HW112002   3.558   0.893   7.392
 3753SOL    HW212003   3.541   0.977   7.516
 3754SOL     OW12004   2.152   0.042   6.233
 3754SOL    HW112005   2.141   0.137   6.234
 3754SOL    HW212006   2.166   0.019   6.325
 3755SOL     OW12007   3.487   0.388   5.938
 3755SOL    HW112008   3.509   0.320   6.002
 3755SOL    HW212009   3.460   0.463   5.990
 3756SOL     OW12010   2.898   0.767   6.546
 3756SOL    HW112011   2.886   0.781   6.640
 3756SOL    HW212012   2.865   0.678   6.532
 3757SOL     OW12013   2.845   1.566   7.310
 3757SOL    HW112014   2.827   1.610   7.226
 3757SOL    HW212015   2.888   1.484   7.285
 3758SOL     OW12016   3.713   1.501   7.190
 3758SOL    HW112017   3.734   1.529   7.101
 3758SOL    HW212018   3.794   1.515   7.240
 3759SOL     OW12019   2.215   0.917   7.395
 3759SOL    HW112020   2.295   0.936   7.443
 3759SOL    HW212021   2.241   0.853   7.329
 3760SOL     OW12022   3.389   0.260   5.713
 3760SOL    HW112023   3.322   0.202   5.749
 3760SOL    HW212024   3.422   0.308   5.789
 3761SOL     OW12025   3.148   0.826   5.613
 3761SOL    HW112026   3.189   0.740   5.617
 3761SOL    HW212027   3.180   0.864   5.531
 3762SOL     OW12028   2.929   1.341   6.430
 3762SOL    HW112029   2.937   1.266   6.371
 3762SOL    HW212030   2.995   1.402   6.399
 3763SOL     OW12031   2.171   0.813   6.531
 3763SOL    HW112032   2.264   0.834   6.523
 3763SOL    HW212033   2.169   0.723   6.564
 3764SOL     OW12034   2.195   0.537   6.600
 3764SOL    HW112035   2.151   0.454   6.583
 3764SOL    HW212036   2.272   0.536   6.543
 3765SOL     OW12037   3.002   0.368   7.291
 3765SOL    HW112038   2.947   0.430   7.340
 3765SOL    HW212039   3.084   0.415   7.276
 3766SOL     OW12040   3.009   0.217   7.061
 3766SOL    HW112041   3.009   0.280   7.132
 3766SOL    HW212042   3.056   0.261   6.990
 3767SOL     OW12043   1.888   1.310   5.773
 3767SOL    HW112044   1.804   1.342   5.741
 3767SOL    HW212045   1.867   1.225   5.813
 3768SOL     OW12046   2.425   1.520   6.518
 3768SOL    HW112047   2.455   1.596   6.568
 3768SOL    HW212048   2.365   1.556   6.453
 3769SOL     OW12049   2.835   0.791   6.810
 3769SOL    HW112050   2.894   0.771   6.883
 3769SOL    HW212051   2.753   0.746   6.833
 3770SOL     OW12052   1.894   0.547   6.706
 3770SOL    HW112053   1.969   0.530   6.650
 3770SOL    HW212054   1.930   0.548   6.795
 3771SOL     OW12055   2.046   0.525   7.312
 3771SOL    HW112056   2.126   0.509   7.263
 3771SOL    HW212057   2.006   0.601   7.269
 3772SOL     OW12058   3.244   0.933   7.242
 3772SOL    HW112059   3.264   1.026   7.238
 3772SOL    HW212060   3.238   0.906   7.151
 3773SOL     OW12061   2.672   0.579   5.950
 3773SOL    HW112062   2.679   0.508   5.886
 3773SOL    HW212063   2.599   0.632   5.919
 3774SOL     OW12064   3.498   0.602   6.765
 3774SOL    HW112065   3.488   0.543   6.840
 3774SOL    HW212066   3.587   0.584   6.733
 3775SOL     OW12067   2.105   1.539   7.307
 3775SOL    HW112068   2.082   1.606   7.372
 3775SOL    HW212069   2.110   1.458   7.358
 3776SOL     OW12070   2.579   0.455   6.843
 3776SOL    HW112071   2.525   0.380   6.817
 3776SOL    HW212072   2.572   0.517   6.770
 3777SOL     OW12073   2.787   1.676   7.060
 3777SOL    HW112074   2.754   1.637   6.979
 3777SOL    HW212075   2.784   1.770   7.044
 3778SOL     OW12076   2.320   0.491   5.766
 3778SOL    HW112077   2.381   0.562   5.789
 3778SOL    HW212078   2.236   0.535   5.754
 3779SOL     OW12079   2.002   1.142   7.061
 3779SOL    HW112080   2.005   1.095   7.145
 3779SOL    HW212081   2.020   1.074   6.996
 3780SOL     OW12082   3.181   1.044   6.804
 3780SOL    HW112083   3.201   0.980   6.736
 3780SOL    HW212084   3.116   1.102   6.764
 3781SOL     OW12085   3.180   0.856   5.889
 3781SOL    HW112086   3.106   0.827   5.942
 3781SOL    HW212087   3.150   0.844   5.799
 3782SOL     OW12088   3.645   1.735   6.746
 3782SOL    HW112089   3.703   1.762   6.675
 3782SOL    HW212090   3.615   1.648   6.721
 3783SOL     OW12091   3.097   1.732   6.680
 3783SOL    HW112092   3.182   1.757   6.644
 3783SOL    HW212093   3.108   1.640   6.704
 3784SOL     OW12094   1.935   1.269   6.593
 3784SOL    HW112095   1.921   1.277   6.688
 3784SOL    HW212096   1.871   1.204   6.565
 3785SOL     OW12097   2.540   1.672   7.324
 3785SOL    HW112098   2.481   1.747   7.322
 3785SOL    HW212099   2.603   1.689   7.254
 3786SOL     OW12100   3.584   0.128   6.067
 3786SOL    HW112101   3.650   0.144   6.000
 3786SOL    HW212102   3.620   0.058   6.121
 3787SOL     OW12103   3.258   1.565   6.072
 3787SOL    HW112104   3.316   1.601   6.006
 3787SOL    HW212105   3.207   1.640   6.103
 3788SOL     OW12106   1.998   1.782   7.413
 3788SOL    HW112107   1.958   1.726   7.479
 3788SOL    HW212108   2.032   1.856   7.462
 3789SOL     OW12109   3.142   0.931   6.259
 3789SOL    HW112110   3.215   0.870   6.267
 3789SOL    HW212111   3.176   1.002   6.205
 3790SOL     OW12112   2.664   1.278   7.007
 3790SOL    HW112113   2.637   1.319   7.089
 3790SOL    HW212114   2.591   1.293   6.947
 3791SOL     OW12115   2.543   1.592   5.713
 3791SOL    HW112116   2.547   1.630   5.625
 3791SOL    HW212117   2.485   1.517   5.705
 3792SOL     OW12118   3.481   1.728   6.978
 3792SOL    HW112119   3.535   1.732   6.899
 3792SOL    HW212120   3.466   1.820   7.002
 3793SOL     OW12121   3.703   0.151   6.551
 3793SOL    HW112122   3.735   0.072   6.507
 3793SOL    HW212123   3.617   0.166   6.513
 3794SOL     OW12124   2.120   0.312   6.297
 3794SOL    HW112125   2.036   0.351   6.274
 3794SOL    HW212126   2.119   0.309   6.393
 3795SOL     OW12127   3.087   1.570   5.591
 3795SOL    HW112128   3.073   1.484   5.631
 3795SOL    HW212129   3.047   1.563   5.504
 3796SOL     OW12130   2.685   1.008   6.963
 3796SOL    HW112131   2.726   0.999   6.877
 3796SOL    HW212132   2.681   1.102   6.978
 3797SOL     OW12133   2.779   0.910   5.877
 3797SOL    HW112134   2.839   0.945   5.811
 3797SOL    HW212135   2.829   0.843   5.922
 3798SOL     OW12136   3.354   1.633   5.630
 3798SOL    HW112137   3.263   1.612   5.612
 3798SOL    HW212138   3.395   1.638   5.544
 3799SOL     OW12139   2.231   1.300   7.081
 3799SOL    HW112140   2.220   1.377   7.025
 3799SOL    HW212141   2.152   1.248   7.065
 3800SOL     OW12142   3.470   1.284   6.867
 3800SOL    HW112143   3.527   1.267   6.942
 3800SOL    HW212144   3.409   1.351   6.898
 3801SOL     OW12145   2.924   1.108   6.292
 3801SOL    HW112146   2.851   1.060   6.331
 3801SOL    HW212147   2.988   1.041   6.270
 3802SOL     OW12148   2.861   0.247   6.601
 3802SOL    HW112149   2.870   0.234   6.507
 3802SOL    HW212150   2.850   0.159   6.637
 3803SOL     OW12151   3.588   0.395   6.960
 3803SOL    HW112152   3.662   0.454   6.960
 3803SOL    HW212153   3.615   0.323   6.903
 3804SOL     OW12154   2.141   1.311   5.892
 3804SOL    HW112155   2.051   1.321   5.860
 3804SOL    HW212156   2.170   1.400   5.909
 3805SOL     OW12157   1.977   1.034   7.313
 3805SOL    HW112158   1.900   1.005   7.363
 3805SOL    HW212159   2.051   0.989   7.355
 3806SOL     OW12160   2.518   0.206   7.092
 3806SOL    HW112161   2.596   0.182   7.042
 3806SOL    HW212162   2.552   0.231   7.178
 3807SOL     OW12163   1.946   0.325   5.632
 3807SOL    HW112164   1.877   0.270   5.596
 3807SOL    HW212165   1.951   0.400   5.572
 3808SOL     OW12166   3.286   0.858   6.982
 3808SOL    HW112167   3.236   0.919   6.928
 3808SOL    HW212168   3.375   0.860   6.945
 3809SOL     OW12169   1.922   0.192   5.891
 3809SOL    HW112170   1.926   0.259   5.824
 3809SOL    HW212171   1.995   0.134   5.871
 3810SOL     OW12172   3.042   1.323   5.709
 3810SOL    HW112173   2.954   1.285   5.713
 3810SOL    HW212174   3.069   1.329   5.801
 3811SOL     OW12175   2.483   0.831   7.022
 3811SOL    HW112176   2.539   0.907   7.007
 3811SOL    HW212177   2.543   0.757   7.030
 3812SOL     OW12178   3.344   1.785   6.568
 3812SOL    HW112179   3.369   1.853   6.505
 3812SOL    HW212180   3.427   1.753   6.603
 3813SOL     OW12181   2.577   0.559   7.289
 3813SOL    HW112182   2.622   0.620   7.347
 3813SOL    HW212183   2.600   0.472   7.322
 3814SOL     OW12184   3.335   1.194   7.214
 3814SOL    HW112185   3.323   1.209   7.308
 3814SOL    HW212186   3.427   1.214   7.198
 3815SOL     OW12187   2.228   1.738   7.151
 3815SOL    HW112188   2.140   1.770   7.129
 3815SOL    HW212189   2.213   1.653   7.191
 3816SOL     OW12190   3.525   0.879   6.841
 3816SOL    HW112191   3.521   0.794   6.798
 3816SOL    HW212192   3.516   0.943   6.771
 3817SOL     OW12193   3.085   0.335   6.030
 3817SOL    HW112194   3.155   0.271   6.015
 3817SOL    HW212195   3.112   0.383   6.107
 3818SOL     OW12196   2.443   0.734   6.264
 3818SOL    HW112197   2.486   0.819   6.251
 3818SOL    HW212198   2.381   0.727   6.191
 3819SOL     OW12199   3.617   0.374   7.230
 3819SOL    HW112200   3.603   0.387   7.136
 3819SOL    HW212201   3.541   0.322   7.258
 3820SOL     OW12202   3.613   0.933   7.096
 3820SOL    HW112203   3.599   1.026   7.109
 3820SOL    HW212204   3.594   0.918   7.004
 3821SOL     OW12205   2.715   1.366   5.614
 3821SOL    HW112206   2.696   1.345   5.705
 3821SOL    HW212207   2.708   1.461   5.609
 3822SOL     OW12208   2.510   1.773   6.595
 3822SOL    HW112209   2.471   1.860   6.580
 3822SOL    HW212210   2.591   1.774   6.543
 3823SOL     OW12211   2.733   0.973   6.440
 3823SOL    HW112212   2.784   0.901   6.478
 3823SOL    HW212213   2.693   1.016   6.516
 3824SOL     OW12214   2.941   0.993   5.677
 3824SOL    HW112215   2.917   1.042   5.598
 3824SOL    HW212216   3.013   0.936   5.648
 3825SOL     OW12217   3.710   1.555   6.428
 3825SOL    HW112218   3.630   1.542   6.377
 3825SOL    HW212219   3.705   1.487   6.496
 3826SOL     OW12220   2.088   1.295   7.440
 3826SOL    HW112221   2.028   1.229   7.405
 3826SOL    HW212222   2.063   1.303   7.532
 3827SOL     OW12223   1.953   1.229   6.246
 3827SOL    HW112224   1.973   1.187   6.330
 3827SOL    HW212225   2.020   1.196   6.186
 3828SOL     OW12226   2.547   1.408   7.217
 3828SOL    HW112227   2.468   1.365   7.251
 3828SOL    HW212228   2.544   1.496   7.255
 3829SOL     OW12229   3.662   0.174   6.823
 3829SOL    HW112230   3.657   0.081   6.841
 3829SOL    HW212231   3.682   0.180   6.730
 3830SOL     OW12232   2.300   0.431   6.119
 3830SOL    HW112233   2.319   0.364   6.054
 3830SOL    HW212234   2.243   0.387   6.183
 3831SOL     OW12235   3.559   1.487   6.680
 3831SOL    HW112236   3.481   1.466   6.628
 3831SOL    HW212237   3.564   1.416   6.745
 3832SOL     OW12238   2.198   0.563   6.879
 3832SOL    HW112239   2.252   0.504   6.932
 3832SOL    HW212240   2.216   0.536   6.789
 3833SOL     OW12241   3.291   0.219   6.701
 3833SOL    HW112242   3.327   0.147   6.753
 3833SOL    HW212243   3.240   0.271   6.763
 3834SOL     OW12244   2.856   4.498   6.742
 3834SOL    HW112245   2.821   4.409   6.740
 3834SOL    HW212246   2.951   4.487   6.748
 3835SOL     OW12247   2.669   1.291   5.865
 3835SOL    HW112248   2.623   1.212   5.896
 3835SOL    HW212249   2.707   1.329   5.944
 3836SOL     OW12250   2.486   1.551   6.869
 3836SOL    HW112251   2.483   1.630   6.923
 3836SOL    HW212252   2.573   1.552   6.830
 3837SOL     OW12253   3.200   0.050   5.752
 3837SOL    HW112254   3.237   4.475   5.706
 3837SOL    HW212255   3.122   0.016   5.795
 3838SOL     OW12256   3.178   0.468   6.255
 3838SOL    HW112257   3.123   0.546   6.256
 3838SOL    HW212258   3.167   0.429   6.341
 3839SOL     OW12259   3.448   0.197   6.457
 3839SOL    HW112260   3.390   0.213   6.532
 3839SOL    HW212261   3.450   0.280   6.410
 3840SOL     OW12262   1.901   1.062   5.897
 3840SOL    HW112263   1.995   1.056   5.880
 3840SOL    HW212264   1.876   0.972   5.919
 3841SOL     OW12265   2.084   0.624   7.575
 3841SOL    HW112266   1.997   0.616   7.615
 3841SOL    HW212267   2.070   0.598   7.484
 3842SOL     OW12268   2.066   0.303   8.440
 3842SOL    HW112269   2.098   0.270   8.523
 3842SOL    HW212270   1.985   0.255   8.424
 3843SOL     OW12271   1.866   0.394   8.082
 3843SOL    HW112272   1.780   0.410   8.121
 3843SOL    HW212273   1.852   0.323   8.019
 3844SOL     OW12274   2.432   1.297   8.631
 3844SOL    HW112275   2.345   1.301   8.592
 3844SOL    HW212276   2.449   1.386   8.662
 3845SOL     OW12277   3.434   1.515   8.157
 3845SOL    HW112278   3.390   1.491   8.239
 3845SOL    HW212279   3.363   1.518   8.092
 3846SOL     OW12280   3.004   0.696   8.139
 3846SOL    HW112281   3.047   0.781   8.132
 3846SOL    HW212282   2.951   0.702   8.219
 3847SOL     OW12283   3.642   0.600   7.672
 3847SOL    HW112284   3.615   0.594   7.580
 3847SOL    HW212285   3.603   0.523   7.713
 3848SOL     OW12286   2.608   1.137   8.495
 3848SOL    HW112287   2.542   1.175   8.553
 3848SOL    HW212288   2.648   1.213   8.451
 3849SOL     OW12289   2.735   0.763   9.272
 3849SOL    HW112290   2.722   0.833   9.336
 3849SOL    HW212291   2.758   0.809   9.191
 3850SOL     OW12292   2.548   0.996   8.092
 3850SOL    HW112293   2.614   0.988   8.160
 3850SOL    HW212294   2.479   1.050   8.130
 3851SOL     OW12295   2.577   1.149   9.267
 3851SOL    HW112296   2.624   1.227   9.298
 3851SOL    HW212297   2.496   1.185   9.229
 3852SOL     OW12298   2.194   1.415   8.517
 3852SOL    HW112299   2.118   1.377   8.473
 3852SOL    HW212300   2.238   1.465   8.449
 3853SOL     OW12301   3.321   1.502   8.809
 3853SOL    HW112302   3.375   1.581   8.819
 3853SOL    HW212303   3.252   1.512   8.875
 3854SOL     OW12304   2.308   0.391   8.928
 3854SOL    HW112305   2.389   0.341   8.934
 3854SOL    HW212306   2.239   0.327   8.944
 3855SOL     OW12307   3.466   0.440   8.187
 3855SOL    HW112308   3.387   0.457   8.137
 3855SOL    HW212309   3.475   0.517   8.243
 3856SOL     OW12310   2.080   1.712   7.927
 3856SOL    HW112311   2.111   1.749   8.009
 3856SOL    HW212312   2.159   1.700   7.874
 3857SOL     OW12313   3.000   1.342   9.142
 3857SOL    HW112314   3.040   1.336   9.229
 3857SOL    HW212315   2.948   1.262   9.134
 3858SOL     OW12316   2.089   1.438   7.985
 3858SOL    HW112317   2.062   1.530   7.991
 3858SOL    HW212318   2.034   1.393   8.049
 3859SOL     OW12319   2.130   1.091   8.339
 3859SOL    HW112320   2.125   1.003   8.376
 3859SOL    HW212321   2.072   1.143   8.394
 3860SOL     OW12322   2.467   1.780   8.879
 3860SOL    HW112323   2.384   1.769   8.924
 3860SOL    HW212324   2.492   1.872   8.895
 3861SOL     OW12325   2.439   0.986   7.588
 3861SOL    HW112326   2.489   1.030   7.519
 3861SOL    HW212327   2.479   1.017   7.670
 3862SOL     OW12328   3.436   0.119   8.911
 3862SOL    HW112329   3.478   0.185   8.854
 3862SOL    HW212330   3.427   0.163   8.995
 3863SOL     OW12331   1.982   0.657   8.009
 3863SOL    HW112332   1.950   0.569   8.031
 3863SOL    HW212333   1.973   0.706   8.090
 3864SOL     OW12334   3.705   1.754   7.777
 3864SOL    HW112335   3.774   1.728   7.839
 3864SOL    HW212336   3.723   1.846   7.758
 3865SOL     OW12337   1.905   1.597   7.585
 3865SOL    HW112338   1.890   1.503   7.587
 3865SOL    HW212339   1.866   1.630   7.666
 3866SOL     OW12340   3.553   0.921   8.095
 3866SOL    HW112341   3.635   0.877   8.072
 3866SOL    HW212342   3.530   0.972   8.017
 3867SOL     OW12343   3.512   1.103   7.877
 3867SOL    HW112344   3.599   1.104   7.836
 3867SOL    HW212345   3.519   1.167   7.948
 3868SOL     OW12346   1.984   0.748   9.029
 3868SOL    HW112347   2.074   0.780   9.033
 3868SOL    HW212348   1.929   0.827   9.031
 3869SOL     OW12349   2.481   1.388   8.181
 3869SOL    HW112350   2.435   1.304   8.189
 3869SOL    HW212351   2.463   1.416   8.091
 3870SOL     OW12352   3.147   1.236   8.868
 3870SOL    HW112353   3.177   1.167   8.808
 3870SOL    HW212354   3.206   1.230   8.943
 3871SOL     OW12355   2.685   0.022   8.007
 3871SOL    HW112356   2.724   0.105   7.978
 3871SOL    HW212357   2.591   0.035   7.999
 3872SOL     OW12358   2.050   0.960   8.729
 3872SOL    HW112359   2.136   0.922   8.713
 3872SOL    HW212360   1.992   0.915   8.667
 3873SOL     OW12361   3.394   0.999   7.648
 3873SOL    HW112362   3.324   0.942   7.681
 3873SOL    HW212363   3.436   1.032   7.727
 3874SOL     OW12364   3.052   1.812   9.073
 3874SOL    HW112365   3.056   1.871   8.998
 3874SOL    HW212366   3.067   1.725   9.035
 3875SOL     OW12367   2.179   0.251   9.226
 3875SOL    HW112368   2.243   0.313   9.260
 3875SOL    HW212369   2.105   0.257   9.286
 3876SOL     OW12370   3.329   1.419   8.394
 3876SOL    HW112371   3.263   1.435   8.461
 3876SOL    HW212372   3.316   1.328   8.368
 3877SOL     OW12373   3.515   1.754   8.024
 3877SOL    HW112374   3.496   1.720   7.937
 3877SOL    HW212375   3.497   1.681   8.083
 3878SOL     OW12376   2.451   0.721   7.716
 3878SOL    HW112377   2.453   0.805   7.672
 3878SOL    HW212378   2.386   0.731   7.785
 3879SOL     OW12379   3.156   0.377   8.378
 3879SOL    HW112380   3.067   0.346   8.360
 3879SOL    HW212381   3.192   0.313   8.439
 3880SOL     OW12382   3.440   1.674   7.759
 3880SOL    HW112383   3.532   1.699   7.750
 3880SOL    HW212384   3.411   1.657   7.669
 3881SOL     OW12385   2.658   0.621   8.900
 3881SOL    HW112386   2.630   0.593   8.987
 3881SOL    HW212387   2.625   0.553   8.841
 3882SOL     OW12388   3.250   0.484   9.124
 3882SOL    HW112389   3.255   0.528   9.209
 3882SOL    HW212390   3.317   0.415   9.129
 3883SOL     OW12391   2.812   0.886   9.035
 3883SOL    HW112392   2.866   0.817   8.997
 3883SOL    HW212393   2.763   0.921   8.961
 3884SOL     OW12394   2.862   0.417   8.679
 3884SOL    HW112395   2.771   0.424   8.707
 3884SOL    HW212396   2.858   0.361   8.601
 3885SOL     OW12397   2.914   0.699   7.872
 3885SOL    HW112398   2.934   0.690   7.965
 3885SOL    HW212399   2.829   0.656   7.861
 3886SOL     OW12400   1.951   0.823   8.225
 3886SOL    HW112401   2.031   0.816   8.277
 3886SOL    HW212402   1.906   0.899   8.261
 3887SOL     OW12403   1.966   1.796   9.007
 3887SOL    HW112404   1.962   1.787   9.103
 3887SOL    HW212405   1.892   1.853   8.986
 3888SOL     OW12406   2.721   0.372   7.642
 3888SOL    HW112407   2.783   0.406   7.578
 3888SOL    HW212408   2.731   0.277   7.638
 3889SOL     OW12409   3.563   0.570   9.278
 3889SOL    HW112410   3.529   0.645   9.229
 3889SOL    HW212411   3.596   0.510   9.211
 3890SOL     OW12412   3.244   1.143   7.987
 3890SOL    HW112413   3.323   1.132   7.934
 3890SOL    HW212414   3.190   1.205   7.937
 3891SOL     OW12415   2.395   0.211   8.351
 3891SOL    HW112416   2.417   0.229   8.443
 3891SOL    HW212417   2.393   0.297   8.310
 3892SOL     OW12418   2.862   1.444   7.915
 3892SOL    HW112419   2.830   1.520   7.866
 3892SOL    HW212420   2.839   1.464   8.006
 3893SOL     OW12421   2.208   1.784   8.285
 3893SOL    HW112422   2.246   1.698   8.301
 3893SOL    HW212423   2.279   1.845   8.303
 3894SOL     OW12424   3.662   1.056   8.321
 3894SOL    HW112425   3.611   1.033   8.244
 3894SOL    HW212426   3.598   1.061   8.392
 3895SOL     OW12427   3.089   1.540   8.961
 3895SOL    HW112428   3.077   1.468   9.023
 3895SOL    HW212429   3.020   1.527   8.896
 3896SOL     OW12430   2.175   0.960   7.702
 3896SOL    HW112431   2.258   0.980   7.658
 3896SOL    HW212432   2.147   0.877   7.665
 3897SOL     OW12433   3.345   0.750   8.167
 3897SOL    HW112434   3.339   0.709   8.254
 3897SOL    HW212435   3.423   0.805   8.172
 3898SOL     OW12436   2.333   1.267   9.189
 3898SOL    HW112437   2.307   1.270   9.096
 3898SOL    HW212438   2.251   1.262   9.237
 3899SOL     OW12439   2.987   1.776   7.679
 3899SOL    HW112440   2.910   1.738   7.721
 3899SOL    HW212441   3.011   1.714   7.610
 3900SOL     OW12442   2.048   0.268   8.967
 3900SOL    HW112443   1.984   0.339   8.961
 3900SOL    HW212444   2.076   0.269   9.059
 3901SOL     OW12445   3.491   1.382   7.539
 3901SOL    HW112446   3.449   1.467   7.524
 3901SOL    HW212447   3.423   1.318   7.518
 3902SOL     OW12448   2.330   1.712   7.797
 3902SOL    HW112449   2.368   1.789   7.839
 3902SOL    HW212450   2.384   1.698   7.720
 3903SOL     OW12451   3.293   0.149   7.871
 3903SOL    HW112452   3.276   0.091   7.798
 3903SOL    HW212453   3.386   0.135   7.892
 3904SOL     OW12454   2.105   1.753   8.676
 3904SOL    HW112455   2.164   1.689   8.717
 3904SOL    HW212456   2.116   1.739   8.582
 3905SOL     OW12457   2.795   1.697   8.344
 3905SOL    HW112458   2.875   1.650   8.369
 3905SOL    HW212459   2.759   1.647   8.271
 3906SOL     OW12460   2.258   0.692   7.920
 3906SOL    HW112461   2.278   0.599   7.937
 3906SOL    HW212462   2.165   0.699   7.938
 3907SOL     OW12463   3.385   0.234   9.171
 3907SOL    HW112464   3.385   0.254   9.264
 3907SOL    HW212465   3.304   0.185   9.157
 3908SOL     OW12466   2.497   0.122   7.574
 3908SOL    HW112467   2.585   0.087   7.585
 3908SOL    HW212468   2.463   0.078   7.495
 3909SOL     OW12469   2.630   0.271   9.205
 3909SOL    HW112470   2.701   0.206   9.200
 3909SOL    HW212471   2.593   0.258   9.292
 3910SOL     OW12472   2.741   1.525   8.640
 3910SOL    HW112473   2.722   1.484   8.555
 3910SOL    HW212474   2.808   1.470   8.679
 3911SOL     OW12475   3.200   0.590   8.875
 3911SOL    HW112476   3.228   0.563   8.963
 3911SOL    HW212477   3.235   0.679   8.866
 3912SOL     OW12478   2.680   1.390   8.394
 3912SOL    HW112479   2.765   1.378   8.352
 3912SOL    HW212480   2.618   1.393   8.321
 3913SOL     OW12481   2.789   0.528   8.343
 3913SOL    HW112482   2.771   0.524   8.249
 3913SOL    HW212483   2.817   0.440   8.366
 3914SOL     OW12484   2.420   0.088   7.975
 3914SOL    HW112485   2.336   0.050   7.999
 3914SOL    HW212486   2.401   0.144   7.899
 3915SOL     OW12487   3.290   1.201   7.487
 3915SOL    HW112488   3.319   1.126   7.538
 3915SOL    HW212489   3.205   1.223   7.523
 3916SOL     OW12490   2.153   0.060   7.656
 3916SOL    HW112491   2.227   0.120   7.644
 3916SOL    HW212492   2.181   4.500   7.724
 3917SOL     OW12493   2.823   0.240   7.908
 3917SOL    HW112494   2.770   0.307   7.865
 3917SOL    HW212495   2.913   0.272   7.902
 3918SOL     OW12496   2.942   0.686   8.905
 3918SOL    HW112497   2.873   0.619   8.904
 3918SOL    HW212498   3.023   0.636   8.894
 3919SOL     OW12499   3.080   1.573   8.243
 3919SOL    HW112500   3.095   1.638   8.174
 3919SOL    HW212501   3.150   1.588   8.306
 3920SOL     OW12502   2.335   1.154   8.174
 3920SOL    HW112503   2.269   1.133   8.240
 3920SOL    HW212504   2.290   1.140   8.090
 3921SOL     OW12505   3.127   1.792   8.061
 3921SOL    HW112506   3.175   1.854   8.005
 3921SOL    HW212507   3.058   1.845   8.101
 3922SOL     OW12508   2.887   0.538   7.471
 3922SOL    HW112509   2.841   0.620   7.455
 3922SOL    HW212510   2.946   0.558   7.544
 3923SOL     OW12511   1.951   0.548   8.845
 3923SOL    HW112512   2.041   0.553   8.815
 3923SOL    HW212513   1.942   0.620   8.908
 3924SOL     OW12514   2.420   0.250   8.620
 3924SOL    HW112515   2.444   0.169   8.665
 3924SOL    HW212516   2.327   0.263   8.641
 3925SOL     OW12517   2.725   0.505   8.078
 3925SOL    HW112518   2.691   0.540   7.995
 3925SOL    HW212519   2.672   0.427   8.095
 3926SOL     OW12520   2.804   0.009   8.256
 3926SOL    HW112521   2.765   0.013   8.168
 3926SOL    HW212522   2.824   4.416   8.268
 3927SOL     OW12523   3.300   1.160   8.304
 3927SOL    HW112524   3.230   1.095   8.306
 3927SOL    HW212525   3.324   1.168   8.212
 3928SOL     OW12526   3.326   0.610   8.412
 3928SOL    HW112527   3.269   0.534   8.412
 3928SOL    HW212528   3.381   0.600   8.490
 3929SOL     OW12529   3.702   0.811   7.834
 3929SOL    HW112530   3.760   0.762   7.892
 3929SOL    HW212531   3.678   0.748   7.765
 3930SOL     OW12532   2.351   1.424   7.597
 3930SOL    HW112533   2.277   1.395   7.650
 3930SOL    HW212534   2.346   1.370   7.517
 3931SOL     OW12535   3.540   1.265   8.088
 3931SOL    HW112536   3.635   1.264   8.104
 3931SOL    HW212537   3.513   1.354   8.111
 3932SOL     OW12538   3.256   0.575   7.517
 3932SOL    HW112539   3.193   0.557   7.587
 3932SOL    HW212540   3.342   0.560   7.558
 3933SOL     OW12541   2.373   0.263   7.766
 3933SOL    HW112542   2.429   0.216   7.704
 3933SOL    HW212543   2.355   0.346   7.723
 3934SOL     OW12544   3.610   1.242   9.009
 3934SOL    HW112545   3.697   1.203   9.003
 3934SOL    HW212546   3.626   1.332   9.040
 3935SOL     OW12547   2.915   1.355   8.780
 3935SOL    HW112548   2.840   1.323   8.830
 3935SOL    HW212549   2.991   1.313   8.821
 3936SOL     OW12550   3.472   1.628   9.107
 3936SOL    HW112551   3.463   1.662   9.018
 3936SOL    HW212552   3.553   1.578   9.105
 3937SOL     OW12553   2.999   1.213   8.550
 3937SOL    HW112554   2.937   1.248   8.614
 3937SOL    HW212555   2.968   1.245   8.466
 3938SOL     OW12556   3.483   1.095   8.525
 3938SOL    HW112557   3.477   1.159   8.596
 3938SOL    HW212558   3.408   1.114   8.469
 3939SOL     OW12559   2.756   0.138   8.830
 3939SOL    HW112560   2.780   0.090   8.751
 3939SOL    HW212561   2.840   0.160   8.871
 3940SOL     OW12562   2.846   1.115   9.172
 3940SOL    HW112563   2.755   1.132   9.196
 3940SOL    HW212564   2.843   1.037   9.117
 3941SOL     OW12565   2.572   1.063   7.819
 3941SOL    HW112566   2.557   1.042   7.912
 3941SOL    HW212567   2.647   1.009   7.794
 3942SOL     OW12568   2.285   0.821   8.700
 3942SOL    HW112569   2.353   0.830   8.766
 3942SOL    HW212570   2.250   0.732   8.712
 3943SOL     OW12571   3.130   0.373   8.725
 3943SOL    HW112572   3.162   0.452   8.768
 3943SOL    HW212573   3.040   0.395   8.699
 3944SOL     OW12574   1.924   1.562   8.799
 3944SOL    HW112575   1.890   1.639   8.753
 3944SOL    HW212576   2.018   1.579   8.806
 3945SOL     OW12577   2.198   1.118   7.938
 3945SOL    HW112578   2.203   1.191   7.876
 3945SOL    HW212579   2.196   1.040   7.882
 3946SOL     OW12580   2.413   0.520   8.305
 3946SOL    HW112581   2.423   0.580   8.231
 3946SOL    HW212582   2.480   0.548   8.368
 3947SOL     OW12583   3.109   1.350   7.838
 3947SOL    HW112584   3.165   1.421   7.870
 3947SOL    HW212585   3.022   1.371   7.871
 3948SOL     OW12586   3.152   1.461   8.596
 3948SOL    HW112587   3.206   1.465   8.674
 3948SOL    HW212588   3.097   1.383   8.608
 3949SOL     OW12589   3.439   0.623   7.928
 3949SOL    HW112590   3.390   0.664   7.999
 3949SOL    HW212591   3.482   0.695   7.884
 3950SOL     OW12592   2.216   1.515   8.767
 3950SOL    HW112593   2.199   1.474   8.682
 3950SOL    HW212594   2.311   1.529   8.768
 3951SOL     OW12595   2.283   0.741   9.054
 3951SOL    HW112596   2.341   0.788   8.994
 3951SOL    HW212597   2.329   0.660   9.073
 3952SOL     OW12598   3.471   0.781   9.134
 3952SOL    HW112599   3.385   0.823   9.128
 3952SOL    HW212600   3.523   0.822   9.066
 3953SOL     OW12601   2.854   0.092   9.158
 3953SOL    HW112602   2.904   0.165   9.122
 3953SOL    HW212603   2.876   0.018   9.103
 3954SOL     OW12604   2.364   0.039   9.213
 3954SOL    HW112605   2.382   0.019   9.121
 3954SOL    HW212606   2.297   0.106   9.210
 3955SOL     OW12607   2.446   0.876   8.479
 3955SOL    HW112608   2.481   0.965   8.483
 3955SOL    HW212609   2.390   0.868   8.556
 3956SOL     OW12610   3.207   0.858   8.468
 3956SOL    HW112611   3.120   0.841   8.432
 3956SOL    HW212612   3.254   0.775   8.457
 3957SOL     OW12613   3.058   0.537   7.703
 3957SOL    HW112614   3.066   0.458   7.756
 3957SOL    HW212615   3.016   0.600   7.760
 3958SOL     OW12616   2.150   0.229   8.692
 3958SOL    HW112617   2.101   0.246   8.773
 3958SOL    HW212618   2.193   0.145   8.708
 3959SOL     OW12619   1.906   1.305   8.720
 3959SOL    HW112620   1.940   1.252   8.793
 3959SOL    HW212621   1.911   1.395   8.751
 3960SOL     OW12622   2.581   0.629   8.498
 3960SOL    HW112623   2.657   0.615   8.443
 3960SOL    HW212624   2.552   0.718   8.477
 3961SOL     OW12625   3.601   0.960   9.306
 3961SOL    HW112626   3.558   0.893   9.254
 3961SOL    HW212627   3.541   0.977   9.378
 3962SOL     OW12628   2.153   0.043   8.096
 3962SOL    HW112629   2.141   0.138   8.096
 3962SOL    HW212630   2.166   0.020   8.188
 3963SOL     OW12631   3.487   0.388   7.799
 3963SOL    HW112632   3.509   0.320   7.864
 3963SOL    HW212633   3.461   0.463   7.852
 3964SOL     OW12634   2.897   0.767   8.408
 3964SOL    HW112635   2.885   0.781   8.502
 3964SOL    HW212636   2.865   0.678   8.394
 3965SOL     OW12637   2.845   1.566   9.171
 3965SOL    HW112638   2.828   1.610   9.087
 3965SOL    HW212639   2.887   1.484   9.147
 3966SOL     OW12640   3.713   1.500   9.052
 3966SOL    HW112641   3.734   1.529   8.963
 3966SOL    HW212642   3.794   1.515   9.102
 3967SOL     OW12643   2.215   0.916   9.258
 3967SOL    HW112644   2.295   0.936   9.306
 3967SOL    HW212645   2.241   0.853   9.191
 3968SOL     OW12646   3.389   0.260   7.575
 3968SOL    HW112647   3.322   0.202   7.611
 3968SOL    HW212648   3.422   0.308   7.651
 3969SOL     OW12649   3.148   0.826   7.475
 3969SOL    HW112650   3.190   0.740   7.479
 3969SOL    HW212651   3.181   0.864   7.393
 3970SOL     OW12652   2.930   1.339   8.305
 3970SOL    HW112653   2.935   1.267   8.242
 3970SOL    HW212654   2.988   1.406   8.269
 3971SOL     OW12655   2.170   0.811   8.394
 3971SOL    HW112656   2.264   0.832   8.387
 3971SOL    HW212657   2.169   0.721   8.426
 3972SOL     OW12658   2.195   0.536   8.462
 3972SOL    HW112659   2.151   0.453   8.445
 3972SOL    HW212660   2.272   0.535   8.405
 3973SOL     OW12661   3.002   0.368   9.153
 3973SOL    HW112662   2.947   0.430   9.202
 3973SOL    HW212663   3.084   0.416   9.138
 3974SOL     OW12664   3.009   0.217   8.923
 3974SOL    HW112665   3.009   0.280   8.994
 3974SOL    HW212666   3.057   0.261   8.852
 3975SOL     OW12667   1.870   1.318   7.641
 3975SOL    HW112668   1.783   1.335   7.606
 3975SOL    HW212669   1.865   1.229   7.676
 3976SOL     OW12670   1.944   1.774   8.373
 3976SOL    HW112671   1.913   1.693   8.333
 3976SOL    HW212672   2.032   1.787   8.337
 3977SOL     OW12673   2.357   1.567   8.351
 3977SOL    HW112674   2.424   1.632   8.372
 3977SOL    HW212675   2.401   1.504   8.294
 3978SOL     OW12676   2.834   0.791   8.672
 3978SOL    HW112677   2.894   0.772   8.745
 3978SOL    HW212678   2.753   0.746   8.695
 3979SOL     OW12679   1.894   0.547   8.568
 3979SOL    HW112680   1.969   0.529   8.512
 3979SOL    HW212681   1.929   0.549   8.657
 3980SOL     OW12682   2.045   0.525   9.174
 3980SOL    HW112683   2.126   0.509   9.125
 3980SOL    HW212684   2.006   0.601   9.131
 3981SOL     OW12685   3.244   0.933   9.104
 3981SOL    HW112686   3.264   1.026   9.100
 3981SOL    HW212687   3.238   0.905   9.013
 3982SOL     OW12688   2.672   0.579   7.812
 3982SOL    HW112689   2.679   0.508   7.749
 3982SOL    HW212690   2.599   0.632   7.781
 3983SOL     OW12691   3.498   0.602   8.627
 3983SOL    HW112692   3.488   0.544   8.702
 3983SOL    HW212693   3.587   0.584   8.595
 3984SOL     OW12694   2.109   1.540   9.173
 3984SOL    HW112695   2.076   1.601   9.239
 3984SOL    HW212696   2.112   1.456   9.217
 3985SOL     OW12697   2.579   0.455   8.705
 3985SOL    HW112698   2.525   0.381   8.679
 3985SOL    HW212699   2.572   0.517   8.632
 3986SOL     OW12700   2.787   1.677   8.920
 3986SOL    HW112701   2.760   1.638   8.837
 3986SOL    HW212702   2.783   1.771   8.905
 3987SOL     OW12703   2.321   0.491   7.628
 3987SOL    HW112704   2.381   0.562   7.651
 3987SOL    HW212705   2.236   0.535   7.616
 3988SOL     OW12706   2.002   1.142   8.924
 3988SOL    HW112707   2.004   1.095   9.007
 3988SOL    HW212708   2.019   1.074   8.858
 3989SOL     OW12709   3.182   1.043   8.666
 3989SOL    HW112710   3.202   0.979   8.598
 3989SOL    HW212711   3.117   1.101   8.627
 3990SOL     OW12712   3.180   0.856   7.751
 3990SOL    HW112713   3.106   0.827   7.805
 3990SOL    HW212714   3.150   0.844   7.661
 3991SOL     OW12715   3.644   1.735   8.606
 3991SOL    HW112716   3.703   1.762   8.536
 3991SOL    HW212717   3.614   1.648   8.582
 3992SOL     OW12718   3.102   1.732   8.553
 3992SOL    HW112719   3.185   1.756   8.512
 3992SOL    HW212720   3.112   1.640   8.574
 3993SOL     OW12721   1.953   1.262   8.458
 3993SOL    HW112722   1.934   1.277   8.551
 3993SOL    HW212723   1.879   1.211   8.427
 3994SOL     OW12724   2.541   1.672   9.185
 3994SOL    HW112725   2.481   1.746   9.178
 3994SOL    HW212726   2.607   1.688   9.118
 3995SOL     OW12727   3.584   0.128   7.929
 3995SOL    HW112728   3.650   0.143   7.862
 3995SOL    HW212729   3.620   0.058   7.983
 3996SOL     OW12730   3.255   1.567   7.939
 3996SOL    HW112731   3.313   1.601   7.871
 3996SOL    HW212732   3.204   1.643   7.967
 3997SOL     OW12733   1.980   1.779   9.280
 3997SOL    HW112734   1.931   1.711   9.325
 3997SOL    HW212735   2.041   1.813   9.345
 3998SOL     OW12736   3.142   0.931   8.121
 3998SOL    HW112737   3.215   0.870   8.130
 3998SOL    HW212738   3.176   1.002   8.067
 3999SOL     OW12739   2.666   1.277   8.871
 3999SOL    HW112740   2.638   1.318   8.953
 3999SOL    HW212741   2.593   1.294   8.811
 4000SOL     OW12742   2.532   1.626   7.602
 4000SOL    HW112743   2.545   1.640   7.508
 4000SOL    HW212744   2.476   1.549   7.607
 4001SOL     OW12745   3.481   1.728   8.840
 4001SOL    HW112746   3.535   1.732   8.761
 4001SOL    HW212747   3.467   1.819   8.865
 4002SOL     OW12748   3.703   0.151   8.413
 4002SOL    HW112749   3.735   0.072   8.369
 4002SOL    HW212750   3.617   0.166   8.375
 4003SOL     OW12751   2.120   0.313   8.159
 4003SOL    HW112752   2.036   0.351   8.136
 4003SOL    HW212753   2.119   0.309   8.255
 4004SOL     OW12754   3.070   1.601   7.482
 4004SOL    HW112755   3.060   1.510   7.508
 4004SOL    HW212756   3.004   1.614   7.414
 4005SOL     OW12757   2.685   1.007   8.825
 4005SOL    HW112758   2.728   0.998   8.740
 4005SOL    HW212759   2.682   1.101   8.841
 4006SOL     OW12760   2.779   0.911   7.739
 4006SOL    HW112761   2.839   0.944   7.672
 4006SOL    HW212762   2.828   0.843   7.785
 4007SOL     OW12763   3.351   1.629   7.493
 4007SOL    HW112764   3.257   1.619   7.478
 4007SOL    HW212765   3.389   1.635   7.406
 4008SOL     OW12766   2.231   1.298   8.943
 4008SOL    HW112767   2.221   1.376   8.888
 4008SOL    HW212768   2.152   1.247   8.928
 4009SOL     OW12769   3.470   1.285   8.728
 4009SOL    HW112770   3.527   1.267   8.803
 4009SOL    HW212771   3.409   1.352   8.760
 4010SOL     OW12772   2.924   1.111   8.160
 4010SOL    HW112773   2.851   1.060   8.196
 4010SOL    HW212774   2.988   1.045   8.134
 4011SOL     OW12775   2.861   0.247   8.463
 4011SOL    HW112776   2.870   0.233   8.369
 4011SOL    HW212777   2.850   0.159   8.499
 4012SOL     OW12778   2.468   1.490   7.929
 4012SOL    HW112779   2.513   1.439   7.862
 4012SOL    HW212780   2.404   1.543   7.881
 4013SOL     OW12781   3.588   0.395   8.822
 4013SOL    HW112782   3.662   0.454   8.822
 4013SOL    HW212783   3.615   0.323   8.765
 4014SOL     OW12784   2.125   1.343   7.739
 4014SOL    HW112785   2.032   1.339   7.716
 4014SOL    HW212786   2.126   1.381   7.827
 4015SOL     OW12787   1.977   1.032   9.174
 4015SOL    HW112788   1.900   1.004   9.225
 4015SOL    HW212789   2.051   0.988   9.217
 4016SOL     OW12790   2.518   0.206   8.954
 4016SOL    HW112791   2.596   0.182   8.904
 4016SOL    HW212792   2.552   0.231   9.040
 4017SOL     OW12793   1.946   0.325   7.494
 4017SOL    HW112794   1.877   0.270   7.458
 4017SOL    HW212795   1.951   0.400   7.434
 4018SOL     OW12796   3.287   0.857   8.844
 4018SOL    HW112797   3.237   0.918   8.790
 4018SOL    HW212798   3.375   0.860   8.808
 4019SOL     OW12799   1.922   0.192   7.753
 4019SOL    HW112800   1.925   0.259   7.685
 4019SOL    HW212801   1.996   0.134   7.734
 4020SOL     OW12802   3.040   1.334   7.566
 4020SOL    HW112803   2.949   1.305   7.567
 4020SOL    HW212804   3.066   1.335   7.658
 4021SOL     OW12805   2.483   0.831   8.884
 4021SOL    HW112806   2.539   0.907   8.869
 4021SOL    HW212807   2.543   0.757   8.892
 4022SOL     OW12808   3.345   1.786   8.431
 4022SOL    HW112809   3.367   1.851   8.365
 4022SOL    HW212810   3.429   1.756   8.465
 4023SOL     OW12811   2.577   0.558   9.151
 4023SOL    HW112812   2.622   0.620   9.209
 4023SOL    HW212813   2.600   0.472   9.184
 4024SOL     OW12814   3.335   1.194   9.076
 4024SOL    HW112815   3.323   1.209   9.170
 4024SOL    HW212816   3.428   1.214   9.060
 4025SOL     OW12817   2.235   1.742   9.020
 4025SOL    HW112818   2.150   1.772   8.988
 4025SOL    HW212819   2.216   1.657   9.060
 4026SOL     OW12820   3.526   0.879   8.703
 4026SOL    HW112821   3.521   0.794   8.660
 4026SOL    HW212822   3.516   0.943   8.633
 4027SOL     OW12823   3.085   0.335   7.892
 4027SOL    HW112824   3.155   0.271   7.877
 4027SOL    HW212825   3.113   0.383   7.969
 4028SOL     OW12826   2.443   0.733   8.126
 4028SOL    HW112827   2.487   0.817   8.111
 4028SOL    HW212828   2.381   0.726   8.053
 4029SOL     OW12829   3.617   0.374   9.092
 4029SOL    HW112830   3.603   0.387   8.998
 4029SOL    HW212831   3.541   0.322   9.120
 4030SOL     OW12832   3.613   0.933   8.958
 4030SOL    HW112833   3.599   1.026   8.971
 4030SOL    HW212834   3.593   0.918   8.866
 4031SOL     OW12835   2.727   1.365   7.492
 4031SOL    HW112836   2.688   1.393   7.575
 4031SOL    HW212837   2.742   1.447   7.444
 4032SOL     OW12838   2.526   1.791   8.380
 4032SOL    HW112839   2.532   1.871   8.431
 4032SOL    HW212840   2.616   1.760   8.372
 4033SOL     OW12841   2.732   0.972   8.301
 4033SOL    HW112842   2.783   0.900   8.338
 4033SOL    HW212843   2.692   1.014   8.377
 4034SOL     OW12844   2.940   0.990   7.538
 4034SOL    HW112845   2.917   1.041   7.460
 4034SOL    HW212846   3.013   0.934   7.510
 4035SOL     OW12847   3.710   1.555   8.290
 4035SOL    HW112848   3.630   1.542   8.238
 4035SOL    HW212849   3.706   1.487   8.358
 4036SOL     OW12850   2.087   1.294   9.302
 4036SOL    HW112851   2.026   1.230   9.267
 4036SOL    HW212852   2.061   1.306   9.393
 4037SOL     OW12853   1.954   1.226   8.113
 4037SOL    HW112854   1.962   1.184   8.198
 4037SOL    HW212855   2.020   1.183   8.058
 4038SOL     OW12856   2.546   1.408   9.079
 4038SOL    HW112857   2.468   1.365   9.113
 4038SOL    HW212858   2.543   1.496   9.116
 4039SOL     OW12859   3.662   0.174   8.685
 4039SOL    HW112860   3.657   0.081   8.703
 4039SOL    HW212861   3.682   0.180   8.592
 4040SOL     OW12862   2.299   0.431   7.981
 4040SOL    HW112863   2.319   0.364   7.916
 4040SOL    HW212864   2.243   0.387   8.045
 4041SOL     OW12865   3.557   1.487   8.540
 4041SOL    HW112866   3.479   1.466   8.489
 4041SOL    HW212867   3.562   1.416   8.605
 4042SOL     OW12868   2.198   0.563   8.741
 4042SOL    HW112869   2.252   0.504   8.794
 4042SOL    HW212870   2.216   0.536   8.651
 4043SOL     OW12871   2.692   1.578   8.122
 4043SOL    HW112872   2.670   1.637   8.050
 4043SOL    HW212873   2.620   1.515   8.124
 4044SOL     OW12874   3.291   0.219   8.562
 4044SOL    HW112875   3.327   0.147   8.614
 4044SOL    HW212876   3.240   0.271   8.625
 4045SOL     OW12877   2.856   4.498   8.604
 4045SOL    HW112878   2.821   4.409   8.602
 4045SOL    HW212879   2.950   4.487   8.610
 4046SOL     OW12880   2.635   1.333   7.769
 4046SOL    HW112881   2.608   1.242   7.777
 4046SOL    HW212882   2.717   1.338   7.818
 4047SOL     OW12883   2.485   1.553   8.731
 4047SOL    HW112884   2.484   1.633   8.784
 4047SOL    HW212885   2.575   1.549   8.697
 4048SOL     OW12886   3.200   0.050   7.614
 4048SOL    HW112887   3.237   4.475   7.568
 4048SOL    HW212888   3.122   0.016   7.657
 4049SOL     OW12889   3.178   0.468   8.117
 4049SOL    HW112890   3.123   0.546   8.118
 4049SOL    HW212891   3.167   0.429   8.203
 4050SOL     OW12892   3.448   0.197   8.319
 4050SOL    HW112893   3.391   0.213   8.394
 4050SOL    HW212894   3.450   0.280   8.272
 4051SOL     OW12895   1.905   1.066   7.756
 4051SOL    HW112896   1.999   1.057   7.737
 4051SOL    HW212897   1.877   0.977   7.778
 4052SOL     OW12898   2.749   1.661   7.787
 4052SOL    HW112899   2.675   1.644   7.728
 4052SOL    HW212900   2.720   1.735   7.840
 4053SOL     OW12901   2.084   0.624   9.437
 4053SOL    HW112902   1.997   0.616   9.477
 4053SOL    HW212903   2.070   0.598   9.346
 4054SOL     OW12904   2.066   0.303  10.301
 4054SOL    HW112905   2.097   0.270  10.385
 4054SOL    HW212906   1.984   0.255  10.285
 4055SOL     OW12907   1.866   0.394   9.944
 4055SOL    HW112908   1.780   0.410   9.983
 4055SOL    HW212909   1.852   0.323   9.881
 4056SOL     OW12910   2.432   1.295  10.494
 4056SOL    HW112911   2.345   1.298  10.454
 4056SOL    HW212912   2.447   1.384  10.526
 4057SOL     OW12913   3.434   1.515  10.019
 4057SOL    HW112914   3.391   1.491  10.100
 4057SOL    HW212915   3.364   1.518   9.954
 4058SOL     OW12916   3.004   0.696  10.001
 4058SOL    HW112917   3.047   0.781   9.994
 4058SOL    HW212918   2.951   0.702  10.081
 4059SOL     OW12919   3.642   0.599   9.534
 4059SOL    HW112920   3.615   0.594   9.442
 4059SOL    HW212921   3.603   0.523   9.575
 4060SOL     OW12922   2.610   1.139  10.358
 4060SOL    HW112923   2.543   1.176  10.416
 4060SOL    HW212924   2.648   1.214  10.313
 4061SOL     OW12925   2.728   0.762   0.027
 4061SOL    HW112926   2.731   0.817   0.105
 4061SOL    HW212927   2.759   0.820  11.057
 4062SOL     OW12928   2.548   0.996   9.954
 4062SOL    HW112929   2.614   0.988  10.022
 4062SOL    HW212930   2.479   1.050   9.992
 4063SOL     OW12931   2.196   1.410  10.377
 4063SOL    HW112932   2.118   1.374  10.334
 4063SOL    HW212933   2.240   1.462  10.309
 4064SOL     OW12934   3.324   1.500  10.667
 4064SOL    HW112935   3.383   1.575  10.673
 4064SOL    HW212936   3.255   1.519  10.730
 4065SOL     OW12937   2.317   0.390  10.773
 4065SOL    HW112938   2.393   0.333  10.783
 4065SOL    HW212939   2.245   0.341  10.814
 4066SOL     OW12940   3.466   0.440  10.049
 4066SOL    HW112941   3.386   0.457   9.999
 4066SOL    HW212942   3.476   0.517  10.105
 4067SOL     OW12943   2.081   1.715   9.787
 4067SOL    HW112944   2.116   1.747   9.871
 4067SOL    HW212945   2.158   1.705   9.731
 4068SOL     OW12946   2.090   1.440   9.848
 4068SOL    HW112947   2.061   1.531   9.852
 4068SOL    HW212948   2.034   1.394   9.911
 4069SOL     OW12949   2.131   1.091  10.202
 4069SOL    HW112950   2.125   1.003  10.239
 4069SOL    HW212951   2.072   1.144  10.255
 4070SOL     OW12952   2.466   1.777  10.739
 4070SOL    HW112953   2.385   1.764  10.788
 4070SOL    HW212954   2.492   1.867  10.758
 4071SOL     OW12955   2.440   0.986   9.450
 4071SOL    HW112956   2.489   1.030   9.381
 4071SOL    HW212957   2.479   1.017   9.531
 4072SOL     OW12958   3.412   0.138  10.793
 4072SOL    HW112959   3.447   0.197  10.726
 4072SOL    HW212960   3.484   0.125  10.854
 4073SOL     OW12961   1.982   0.656   9.871
 4073SOL    HW112962   1.950   0.569   9.894
 4073SOL    HW212963   1.974   0.706   9.952
 4074SOL     OW12964   3.705   1.754   9.639
 4074SOL    HW112965   3.774   1.728   9.701
 4074SOL    HW212966   3.723   1.846   9.620
 4075SOL     OW12967   1.899   1.579   9.431
 4075SOL    HW112968   1.882   1.486   9.449
 4075SOL    HW212969   1.874   1.624   9.512
 4076SOL     OW12970   3.553   0.921   9.957
 4076SOL    HW112971   3.635   0.877   9.934
 4076SOL    HW212972   3.530   0.971   9.878
 4077SOL     OW12973   3.512   1.103   9.739
 4077SOL    HW112974   3.599   1.104   9.698
 4077SOL    HW212975   3.519   1.167   9.810
 4078SOL     OW12976   1.995   0.724  10.923
 4078SOL    HW112977   2.087   0.743  10.905
 4078SOL    HW212978   1.951   0.809  10.915
 4079SOL     OW12979   2.482   1.387  10.042
 4079SOL    HW112980   2.436   1.303  10.051
 4079SOL    HW212981   2.464   1.415   9.953
 4080SOL     OW12982   3.146   1.234  10.753
 4080SOL    HW112983   3.172   1.173  10.685
 4080SOL    HW212984   3.205   1.214  10.826
 4081SOL     OW12985   2.686   0.022   9.869
 4081SOL    HW112986   2.724   0.105   9.840
 4081SOL    HW212987   2.591   0.035   9.861
 4082SOL     OW12988   2.051   0.958  10.583
 4082SOL    HW112989   2.136   0.919  10.568
 4082SOL    HW212990   1.991   0.909  10.527
 4083SOL     OW12991   3.394   0.999   9.510
 4083SOL    HW112992   3.324   0.942   9.543
 4083SOL    HW212993   3.436   1.032   9.589
 4084SOL     OW12994   3.065   1.809  10.931
 4084SOL    HW112995   3.058   1.875  10.862
 4084SOL    HW212996   3.074   1.726  10.884
 4085SOL     OW12997   2.198   0.284  11.082
 4085SOL    HW112998   2.252   0.346   0.030
 4085SOL    HW212999   2.114   0.284   0.028
 4086SOL     OW13000   3.330   1.419  10.255
 4086SOL    HW113001   3.263   1.436  10.322
 4086SOL    HW213002   3.317   1.328  10.230
 4087SOL     OW13003   3.514   1.755   9.886
 4087SOL    HW113004   3.496   1.721   9.799
 4087SOL    HW213005   3.497   1.681   9.945
 4088SOL     OW13006   2.451   0.721   9.578
 4088SOL    HW113007   2.453   0.805   9.534
 4088SOL    HW213008   2.386   0.731   9.648
 4089SOL     OW13009   3.156   0.377  10.240
 4089SOL    HW113010   3.067   0.346  10.222
 4089SOL    HW213011   3.191   0.313  10.302
 4090SOL     OW13012   3.440   1.673   9.621
 4090SOL    HW113013   3.532   1.699   9.612
 4090SOL    HW213014   3.411   1.657   9.531
 4091SOL     OW13015   2.661   0.620  10.760
 4091SOL    HW113016   2.628   0.594  10.846
 4091SOL    HW213017   2.629   0.552  10.701
 4092SOL     OW13018   2.828   0.903  10.911
 4092SOL    HW113019   2.877   0.833  10.868
 4092SOL    HW213020   2.776   0.942  10.841
 4093SOL     OW13021   2.864   0.420  10.537
 4093SOL    HW113022   2.773   0.427  10.567
 4093SOL    HW213023   2.861   0.363  10.461
 4094SOL     OW13024   2.914   0.699   9.734
 4094SOL    HW113025   2.934   0.690   9.827
 4094SOL    HW213026   2.829   0.656   9.723
 4095SOL     OW13027   1.951   0.823  10.087
 4095SOL    HW113028   2.031   0.816  10.139
 4095SOL    HW213029   1.905   0.899  10.123
 4096SOL     OW13030   1.961   1.795  10.904
 4096SOL    HW113031   1.952   1.772  10.997
 4096SOL    HW213032   1.871   1.803  10.873
 4097SOL     OW13033   2.721   0.372   9.505
 4097SOL    HW113034   2.783   0.406   9.440
 4097SOL    HW213035   2.731   0.277   9.500
 4098SOL     OW13036   3.244   1.143   9.849
 4098SOL    HW113037   3.323   1.132   9.796
 4098SOL    HW213038   3.190   1.205   9.799
 4099SOL     OW13039   2.396   0.212  10.214
 4099SOL    HW113040   2.418   0.229  10.305
 4099SOL    HW213041   2.394   0.298  10.173
 4100SOL     OW13042   2.862   1.444   9.778
 4100SOL    HW113043   2.831   1.519   9.727
 4100SOL    HW213044   2.839   1.464   9.868
 4101SOL     OW13045   2.212   1.780  10.152
 4101SOL    HW113046   2.247   1.692  10.164
 4101SOL    HW213047   2.284   1.839  10.174
 4102SOL     OW13048   3.662   1.055  10.183
 4102SOL    HW113049   3.610   1.033  10.106
 4102SOL    HW213050   3.598   1.060  10.254
 4103SOL     OW13051   3.094   1.536  10.817
 4103SOL    HW113052   3.103   1.446  10.848
 4103SOL    HW213053   3.019   1.534  10.757
 4104SOL     OW13054   2.175   0.960   9.564
 4104SOL    HW113055   2.257   0.980   9.519
 4104SOL    HW213056   2.147   0.876   9.526
 4105SOL     OW13057   3.345   0.750  10.030
 4105SOL    HW113058   3.339   0.709  10.117
 4105SOL    HW213059   3.423   0.805  10.034
 4106SOL     OW13060   2.320   1.259  11.055
 4106SOL    HW113061   2.288   1.280  10.967
 4106SOL    HW213062   2.261   1.190  11.086
 4107SOL     OW13063   2.988   1.776   9.541
 4107SOL    HW113064   2.910   1.738   9.582
 4107SOL    HW213065   3.011   1.714   9.472
 4108SOL     OW13066   2.061   0.264  10.827
 4108SOL    HW113067   1.994   0.332  10.824
 4108SOL    HW213068   2.092   0.266  10.918
 4109SOL     OW13069   3.491   1.382   9.401
 4109SOL    HW113070   3.449   1.467   9.386
 4109SOL    HW213071   3.423   1.318   9.380
 4110SOL     OW13072   2.331   1.714   9.661
 4110SOL    HW113073   2.370   1.790   9.704
 4110SOL    HW213074   2.386   1.699   9.584
 4111SOL     OW13075   3.293   0.149   9.734
 4111SOL    HW113076   3.276   0.091   9.660
 4111SOL    HW213077   3.386   0.135   9.754
 4112SOL     OW13078   2.089   1.758  10.531
 4112SOL    HW113079   2.155   1.700  10.569
 4112SOL    HW213080   2.116   1.768  10.440
 4113SOL     OW13081   2.796   1.697  10.207
 4113SOL    HW113082   2.877   1.651  10.229
 4113SOL    HW213083   2.759   1.647  10.133
 4114SOL     OW13084   2.259   0.691   9.783
 4114SOL    HW113085   2.279   0.599   9.799
 4114SOL    HW213086   2.165   0.699   9.800
 4115SOL     OW13087   2.498   0.123   9.435
 4115SOL    HW113088   2.586   0.087   9.447
 4115SOL    HW213089   2.464   0.079   9.357
 4116SOL     OW13090   2.615   0.268  11.051
 4116SOL    HW113091   2.686   0.206  11.063
 4116SOL    HW213092   2.597   0.303   0.039
 4117SOL     OW13093   2.740   1.525  10.502
 4117SOL    HW113094   2.722   1.485  10.417
 4117SOL    HW213095   2.810   1.471  10.539
 4118SOL     OW13096   3.205   0.593  10.755
 4118SOL    HW113097   3.258   0.574  10.832
 4118SOL    HW213098   3.230   0.682  10.730
 4119SOL     OW13099   2.681   1.390  10.255
 4119SOL    HW113100   2.766   1.378  10.213
 4119SOL    HW213101   2.619   1.393  10.183
 4120SOL     OW13102   2.789   0.528  10.205
 4120SOL    HW113103   2.771   0.524  10.111
 4120SOL    HW213104   2.817   0.440  10.228
 4121SOL     OW13105   2.420   0.088   9.837
 4121SOL    HW113106   2.336   0.051   9.862
 4121SOL    HW213107   2.401   0.144   9.761
 4122SOL     OW13108   3.290   1.201   9.349
 4122SOL    HW113109   3.319   1.126   9.401
 4122SOL    HW213110   3.205   1.223   9.385
 4123SOL     OW13111   2.153   0.060   9.518
 4123SOL    HW113112   2.227   0.120   9.507
 4123SOL    HW213113   2.181   4.500   9.586
 4124SOL     OW13114   2.823   0.240   9.770
 4124SOL    HW113115   2.770   0.307   9.727
 4124SOL    HW213116   2.913   0.272   9.763
 4125SOL     OW13117   2.941   0.693  10.772
 4125SOL    HW113118   2.869   0.630  10.772
 4125SOL    HW213119   3.020   0.639  10.770
 4126SOL     OW13120   3.079   1.575  10.106
 4126SOL    HW113121   3.095   1.638  10.036
 4126SOL    HW213122   3.150   1.589  10.168
 4127SOL     OW13123   2.335   1.154  10.036
 4127SOL    HW113124   2.269   1.133  10.102
 4127SOL    HW213125   2.290   1.140   9.952
 4128SOL     OW13126   3.127   1.792   9.922
 4128SOL    HW113127   3.175   1.853   9.867
 4128SOL    HW213128   3.059   1.846   9.963
 4129SOL     OW13129   2.887   0.538   9.333
 4129SOL    HW113130   2.841   0.620   9.317
 4129SOL    HW213131   2.946   0.558   9.406
 4130SOL     OW13132   1.950   0.543  10.717
 4130SOL    HW113133   2.040   0.552  10.684
 4130SOL    HW213134   1.944   0.606  10.789
 4131SOL     OW13135   2.419   0.249  10.483
 4131SOL    HW113136   2.435   0.162  10.520
 4131SOL    HW213137   2.328   0.268  10.506
 4132SOL     OW13138   2.725   0.505   9.940
 4132SOL    HW113139   2.691   0.540   9.857
 4132SOL    HW213140   2.672   0.427   9.957
 4133SOL     OW13141   2.805   0.008  10.118
 4133SOL    HW113142   2.766   0.014  10.030
 4133SOL    HW213143   2.824   4.415  10.129
 4134SOL     OW13144   3.300   1.161  10.166
 4134SOL    HW113145   3.231   1.094  10.167
 4134SOL    HW213146   3.324   1.168  10.074
 4135SOL     OW13147   3.326   0.612  10.274
 4135SOL    HW113148   3.268   0.535  10.274
 4135SOL    HW213149   3.380   0.601  10.352
 4136SOL     OW13150   3.702   0.811   9.696
 4136SOL    HW113151   3.760   0.762   9.754
 4136SOL    HW213152   3.678   0.748   9.627
 4137SOL     OW13153   2.351   1.424   9.460
 4137SOL    HW113154   2.277   1.396   9.512
 4137SOL    HW213155   2.346   1.372   9.380
 4138SOL     OW13156   3.540   1.265   9.950
 4138SOL    HW113157   3.634   1.263   9.967
 4138SOL    HW213158   3.513   1.354   9.973
 4139SOL     OW13159   3.256   0.575   9.379
 4139SOL    HW113160   3.193   0.557   9.449
 4139SOL    HW213161   3.342   0.560   9.420
 4140SOL     OW13162   2.373   0.263   9.628
 4140SOL    HW113163   2.429   0.216   9.566
 4140SOL    HW213164   2.354   0.346   9.585
 4141SOL     OW13165   3.616   1.228  10.847
 4141SOL    HW113166   3.708   1.202  10.843
 4141SOL    HW213167   3.617   1.313  10.892
 4142SOL     OW13168   2.918   1.354  10.648
 4142SOL    HW113169   2.839   1.321  10.691
 4142SOL    HW213170   2.990   1.306  10.689
 4143SOL     OW13171   3.001   1.217  10.412
 4143SOL    HW113172   2.931   1.245  10.470
 4143SOL    HW213173   2.972   1.246  10.325
 4144SOL     OW13174   3.485   1.096  10.388
 4144SOL    HW113175   3.480   1.158  10.460
 4144SOL    HW213176   3.408   1.115  10.334
 4145SOL     OW13177   2.751   0.131  10.694
 4145SOL    HW113178   2.777   0.088  10.613
 4145SOL    HW213179   2.833   0.163  10.732
 4146SOL     OW13180   2.572   1.063   9.681
 4146SOL    HW113181   2.557   1.042   9.773
 4146SOL    HW213182   2.647   1.009   9.656
 4147SOL     OW13183   2.287   0.819  10.561
 4147SOL    HW113184   2.354   0.828  10.628
 4147SOL    HW213185   2.251   0.732  10.574
 4148SOL     OW13186   3.133   0.383  10.586
 4148SOL    HW113187   3.163   0.459  10.636
 4148SOL    HW213188   3.043   0.405  10.560
 4149SOL     OW13189   1.930   1.566  10.666
 4149SOL    HW113190   1.907   1.643  10.615
 4149SOL    HW213191   2.026   1.566  10.668
 4150SOL     OW13192   2.198   1.118   9.799
 4150SOL    HW113193   2.202   1.192   9.738
 4150SOL    HW213194   2.197   1.041   9.743
 4151SOL     OW13195   2.413   0.520  10.168
 4151SOL    HW113196   2.424   0.580  10.094
 4151SOL    HW213197   2.480   0.548  10.231
 4152SOL     OW13198   3.109   1.350   9.700
 4152SOL    HW113199   3.165   1.421   9.732
 4152SOL    HW213200   3.022   1.371   9.733
 4153SOL     OW13201   3.151   1.462  10.455
 4153SOL    HW113202   3.207   1.465  10.533
 4153SOL    HW213203   3.098   1.383  10.467
 4154SOL     OW13204   3.439   0.623   9.790
 4154SOL    HW113205   3.390   0.664   9.861
 4154SOL    HW213206   3.483   0.695   9.746
 4155SOL     OW13207   2.210   1.517  10.623
 4155SOL    HW113208   2.196   1.474  10.539
 4155SOL    HW213209   2.305   1.532  10.627
 4156SOL     OW13210   2.280   0.731  10.903
 4156SOL    HW113211   2.345   0.773  10.848
 4156SOL    HW213212   2.313   0.643  10.917
 4157SOL     OW13213   3.465   0.751  10.964
 4157SOL    HW113214   3.386   0.804  10.951
 4157SOL    HW213215   3.535   0.803  10.923
 4158SOL     OW13216   2.446   0.875  10.341
 4158SOL    HW113217   2.479   0.965  10.345
 4158SOL    HW213218   2.390   0.866  10.417
 4159SOL     OW13219   3.208   0.862  10.337
 4159SOL    HW113220   3.122   0.846  10.299
 4159SOL    HW213221   3.255   0.779  10.325
 4160SOL     OW13222   3.058   0.537   9.565
 4160SOL    HW113223   3.066   0.458   9.618
 4160SOL    HW213224   3.016   0.600   9.622
 4161SOL     OW13225   2.147   0.227  10.553
 4161SOL    HW113226   2.110   0.246  10.639
 4161SOL    HW213227   2.191   0.143  10.563
 4162SOL     OW13228   1.914   1.309  10.578
 4162SOL    HW113229   1.943   1.254  10.651
 4162SOL    HW213230   1.912   1.397  10.615
 4163SOL     OW13231   2.581   0.629  10.361
 4163SOL    HW113232   2.657   0.615  10.305
 4163SOL    HW213233   2.552   0.718  10.340
 4164SOL     OW13234   2.154   0.043   9.957
 4164SOL    HW113235   2.141   0.138   9.958
 4164SOL    HW213236   2.167   0.020  10.049
 4165SOL     OW13237   3.487   0.388   9.662
 4165SOL    HW113238   3.509   0.320   9.726
 4165SOL    HW213239   3.460   0.463   9.714
 4166SOL     OW13240   2.896   0.767  10.271
 4166SOL    HW113241   2.885   0.782  10.365
 4166SOL    HW213242   2.865   0.678  10.256
 4167SOL     OW13243   2.838   1.572  11.004
 4167SOL    HW113244   2.823   1.622  10.923
 4167SOL    HW213245   2.851   1.482  10.974
 4168SOL     OW13246   3.712   1.484  10.911
 4168SOL    HW113247   3.734   1.523  10.827
 4168SOL    HW213248   3.774   1.524  10.973
 4169SOL     OW13249   2.224   0.915  11.096
 4169SOL    HW113250   2.308   0.932   0.040
 4169SOL    HW213251   2.246   0.849  11.029
 4170SOL     OW13252   3.389   0.260   9.437
 4170SOL    HW113253   3.322   0.202   9.473
 4170SOL    HW213254   3.422   0.308   9.513
 4171SOL     OW13255   3.148   0.826   9.337
 4171SOL    HW113256   3.190   0.739   9.341
 4171SOL    HW213257   3.181   0.864   9.256
 4172SOL     OW13258   2.931   1.339  10.166
 4172SOL    HW113259   2.936   1.267  10.104
 4172SOL    HW213260   2.989   1.406  10.130
 4173SOL     OW13261   2.170   0.810  10.255
 4173SOL    HW113262   2.263   0.831  10.248
 4173SOL    HW213263   2.168   0.720  10.288
 4174SOL     OW13264   2.195   0.536  10.324
 4174SOL    HW113265   2.151   0.453  10.307
 4174SOL    HW213266   2.272   0.535  10.267
 4175SOL     OW13267   3.003   0.215  10.770
 4175SOL    HW113268   3.055   0.225  10.850
 4175SOL    HW213269   3.048   0.269  10.705
 4176SOL     OW13270   1.869   1.312   9.504
 4176SOL    HW113271   1.781   1.328   9.469
 4176SOL    HW213272   1.865   1.223   9.539
 4177SOL     OW13273   1.944   1.785  10.241
 4177SOL    HW113274   1.911   1.704  10.201
 4177SOL    HW213275   2.034   1.793  10.209
 4178SOL     OW13276   2.360   1.564  10.214
 4178SOL    HW113277   2.427   1.629  10.234
 4178SOL    HW213278   2.405   1.501  10.156
 4179SOL     OW13279   2.834   0.794  10.536
 4179SOL    HW113280   2.893   0.775  10.609
 4179SOL    HW213281   2.754   0.744  10.556
 4180SOL     OW13282   1.895   0.548  10.434
 4180SOL    HW113283   1.971   0.530  10.378
 4180SOL    HW213284   1.930   0.547  10.523
 4181SOL     OW13285   2.672   0.579   9.674
 4181SOL    HW113286   2.679   0.508   9.611
 4181SOL    HW213287   2.599   0.632   9.643
 4182SOL     OW13288   3.498   0.601  10.489
 4182SOL    HW113289   3.489   0.546  10.567
 4182SOL    HW213290   3.587   0.584  10.458
 4183SOL     OW13291   2.134   1.557  11.056
 4183SOL    HW113292   2.110   1.620   0.024
 4183SOL    HW213293   2.105   1.472  11.090
 4184SOL     OW13294   2.583   0.453  10.567
 4184SOL    HW113295   2.528   0.378  10.542
 4184SOL    HW213296   2.574   0.514  10.494
 4185SOL     OW13297   2.804   1.676  10.752
 4185SOL    HW113298   2.768   1.640  10.671
 4185SOL    HW213299   2.791   1.770  10.745
 4186SOL     OW13300   2.321   0.491   9.490
 4186SOL    HW113301   2.381   0.562   9.513
 4186SOL    HW213302   2.236   0.535   9.478
 4187SOL     OW13303   2.012   1.139  10.778
 4187SOL    HW113304   2.006   1.088  10.859
 4187SOL    HW213305   2.026   1.074  10.710
 4188SOL     OW13306   3.181   1.050  10.537
 4188SOL    HW113307   3.204   0.984  10.472
 4188SOL    HW213308   3.117   1.106  10.493
 4189SOL     OW13309   3.179   0.856   9.613
 4189SOL    HW113310   3.106   0.827   9.667
 4189SOL    HW213311   3.150   0.844   9.523
 4190SOL     OW13312   3.648   1.737  10.467
 4190SOL    HW113313   3.706   1.762  10.396
 4190SOL    HW213314   3.617   1.650  10.444
 4191SOL     OW13315   3.102   1.733  10.415
 4191SOL    HW113316   3.185   1.758  10.374
 4191SOL    HW213317   3.112   1.640  10.435
 4192SOL     OW13318   1.952   1.264  10.317
 4192SOL    HW113319   1.936   1.280  10.410
 4192SOL    HW213320   1.878   1.211  10.289
 4193SOL     OW13321   3.584   0.128   9.791
 4193SOL    HW113322   3.650   0.143   9.724
 4193SOL    HW213323   3.621   0.058   9.845
 4194SOL     OW13324   3.255   1.567   9.801
 4194SOL    HW113325   3.313   1.601   9.733
 4194SOL    HW213326   3.204   1.643   9.829
 4195SOL     OW13327   3.142   0.931   9.984
 4195SOL    HW113328   3.215   0.870   9.992
 4195SOL    HW213329   3.176   1.002   9.929
 4196SOL     OW13330   2.668   1.278  10.732
 4196SOL    HW113331   2.638   1.313  10.816
 4196SOL    HW213332   2.597   1.296  10.672
 4197SOL     OW13333   2.530   1.629   9.464
 4197SOL    HW113334   2.544   1.642   9.370
 4197SOL    HW213335   2.475   1.551   9.470
 4198SOL     OW13336   3.476   1.724  10.688
 4198SOL    HW113337   3.537   1.736  10.616
 4198SOL    HW213338   3.461   1.812  10.723
 4199SOL     OW13339   3.703   0.152  10.276
 4199SOL    HW113340   3.735   0.072  10.233
 4199SOL    HW213341   3.616   0.166  10.237
 4200SOL     OW13342   2.120   0.313  10.021
 4200SOL    HW113343   2.036   0.352   9.998
 4200SOL    HW213344   2.119   0.309  10.117
 4201SOL     OW13345   3.070   1.601   9.344
 4201SOL    HW113346   3.059   1.510   9.370
 4201SOL    HW213347   3.004   1.615   9.276
 4202SOL     OW13348   2.688   1.006  10.695
 4202SOL    HW113349   2.730   0.991  10.610
 4202SOL    HW213350   2.685   1.102  10.703
 4203SOL     OW13351   2.779   0.911   9.601
 4203SOL    HW113352   2.839   0.944   9.535
 4203SOL    HW213353   2.828   0.843   9.647
 4204SOL     OW13354   3.351   1.629   9.355
 4204SOL    HW113355   3.257   1.619   9.340
 4204SOL    HW213356   3.389   1.635   9.268
 4205SOL     OW13357   2.227   1.309  10.810
 4205SOL    HW113358   2.215   1.384  10.751
 4205SOL    HW213359   2.153   1.251  10.790
 4206SOL     OW13360   3.475   1.282  10.595
 4206SOL    HW113361   3.527   1.259  10.672
 4206SOL    HW213362   3.417   1.352  10.624
 4207SOL     OW13363   2.923   1.111  10.022
 4207SOL    HW113364   2.850   1.060  10.057
 4207SOL    HW213365   2.988   1.045   9.996
 4208SOL     OW13366   2.862   0.248  10.324
 4208SOL    HW113367   2.871   0.234  10.230
 4208SOL    HW213368   2.850   0.161  10.361
 4209SOL     OW13369   2.469   1.491   9.791
 4209SOL    HW113370   2.513   1.440   9.723
 4209SOL    HW213371   2.403   1.542   9.744
 4210SOL     OW13372   3.584   0.392  10.694
 4210SOL    HW113373   3.659   0.452  10.696
 4210SOL    HW213374   3.611   0.323  10.634
 4211SOL     OW13375   2.125   1.343   9.602
 4211SOL    HW113376   2.032   1.337   9.579
 4211SOL    HW213377   2.125   1.382   9.689
 4212SOL     OW13378   1.985   1.012  11.015
 4212SOL    HW113379   1.919   1.010  11.084
 4212SOL    HW213380   2.065   0.979  11.058
 4213SOL     OW13381   2.506   0.178  10.814
 4213SOL    HW113382   2.585   0.159  10.762
 4213SOL    HW213383   2.540   0.218  10.894
 4214SOL     OW13384   1.946   0.325   9.356
 4214SOL    HW113385   1.877   0.270   9.320
 4214SOL    HW213386   1.951   0.400   9.296
 4215SOL     OW13387   3.288   0.852  10.711
 4215SOL    HW113388   3.238   0.919  10.665
 4215SOL    HW213389   3.376   0.859  10.675
 4216SOL     OW13390   1.922   0.192   9.615
 4216SOL    HW113391   1.925   0.259   9.547
 4216SOL    HW213392   1.995   0.134   9.596
 4217SOL     OW13393   3.040   1.334   9.427
 4217SOL    HW113394   2.949   1.304   9.428
 4217SOL    HW213395   3.066   1.335   9.519
 4218SOL     OW13396   2.485   0.829  10.746
 4218SOL    HW113397   2.542   0.905  10.734
 4218SOL    HW213398   2.546   0.755  10.752
 4219SOL     OW13399   3.344   1.786  10.292
 4219SOL    HW113400   3.369   1.851  10.227
 4219SOL    HW213401   3.427   1.754  10.328
 4220SOL     OW13402   2.572   0.568  11.010
 4220SOL    HW113403   2.616   0.635  11.062
 4220SOL    HW213404   2.611   0.486  11.038
 4221SOL     OW13405   2.237   1.731  10.875
 4221SOL    HW113406   2.151   1.770  10.856
 4221SOL    HW213407   2.218   1.660  10.936
 4222SOL     OW13408   3.526   0.880  10.568
 4222SOL    HW113409   3.521   0.795  10.524
 4222SOL    HW213410   3.517   0.944  10.497
 4223SOL     OW13411   3.085   0.335   9.754
 4223SOL    HW113412   3.155   0.271   9.739
 4223SOL    HW213413   3.113   0.384   9.831
 4224SOL     OW13414   2.443   0.733   9.988
 4224SOL    HW113415   2.487   0.817   9.972
 4224SOL    HW213416   2.381   0.725   9.916
 4225SOL     OW13417   3.605   0.314  10.961
 4225SOL    HW113418   3.589   0.351  10.875
 4225SOL    HW213419   3.527   0.336  11.013
 4226SOL     OW13420   3.615   0.934  10.824
 4226SOL    HW113421   3.603   1.028  10.838
 4226SOL    HW213422   3.595   0.920  10.732
 4227SOL     OW13423   2.727   1.365   9.354
 4227SOL    HW113424   2.688   1.392   9.437
 4227SOL    HW213425   2.741   1.447   9.306
 4228SOL     OW13426   2.525   1.791  10.244
 4228SOL    HW113427   2.531   1.873  10.294
 4228SOL    HW213428   2.616   1.762  10.235
 4229SOL     OW13429   2.731   0.972  10.164
 4229SOL    HW113430   2.783   0.900  10.200
 4229SOL    HW213431   2.692   1.014  10.240
 4230SOL     OW13432   2.940   0.990   9.400
 4230SOL    HW113433   2.918   1.041   9.322
 4230SOL    HW213434   3.013   0.934   9.372
 4231SOL     OW13435   3.711   1.555  10.152
 4231SOL    HW113436   3.631   1.542  10.101
 4231SOL    HW213437   3.707   1.487  10.220
 4232SOL     OW13438   1.953   1.228   9.975
 4232SOL    HW113439   1.960   1.185  10.060
 4232SOL    HW213440   2.019   1.184   9.921
 4233SOL     OW13441   2.541   1.399  10.944
 4233SOL    HW113442   2.475   1.345  10.987
 4233SOL    HW213443   2.494   1.477  10.915
 4234SOL     OW13444   3.655   0.174  10.548
 4234SOL    HW113445   3.675   0.083  10.569
 4234SOL    HW213446   3.674   0.182  10.454
 4235SOL     OW13447   2.300   0.431   9.843
 4235SOL    HW113448   2.319   0.364   9.778
 4235SOL    HW213449   2.243   0.387   9.907
 4236SOL     OW13450   3.559   1.488  10.404
 4236SOL    HW113451   3.480   1.466  10.353
 4236SOL    HW213452   3.566   1.418  10.469
 4237SOL     OW13453   2.195   0.563  10.602
 4237SOL    HW113454   2.249   0.503  10.654
 4237SOL    HW213455   2.211   0.538  10.511
 4238SOL     OW13456   2.692   1.579   9.984
 4238SOL    HW113457   2.670   1.638   9.912
 4238SOL    HW213458   2.620   1.515   9.986
 4239SOL     OW13459   3.290   0.221  10.425
 4239SOL    HW113460   3.330   0.153  10.479
 4239SOL    HW213461   3.241   0.275  10.487
 4240SOL     OW13462   2.855   0.000  10.465
 4240SOL    HW113463   2.819   4.411  10.459
 4240SOL    HW213464   2.950   4.488  10.468
 4241SOL     OW13465   2.636   1.334   9.631
 4241SOL    HW113466   2.608   1.243   9.638
 4241SOL    HW213467   2.717   1.338   9.680
 4242SOL     OW13468   2.485   1.549  10.597
 4242SOL    HW113469   2.481   1.631  10.646
 4242SOL    HW213470   2.573   1.546  10.560
 4243SOL     OW13471   3.200   0.050   9.476
 4243SOL    HW113472   3.237   4.475   9.430
 4243SOL    HW213473   3.122   0.016   9.519
 4244SOL     OW13474   3.178   0.468   9.979
 4244SOL    HW113475   3.123   0.546   9.981
 4244SOL    HW213476   3.167   0.429  10.065
 4245SOL     OW13477   3.448   0.197  10.181
 4245SOL    HW113478   3.389   0.213  10.255
 4245SOL    HW213479   3.450   0.280  10.133
 4246SOL     OW13480   1.905   1.064   9.619
 4246SOL    HW113481   1.999   1.055   9.600
 4246SOL    HW213482   1.877   0.975   9.641
 4247SOL     OW13483   2.750   1.659   9.648
 4247SOL    HW113484   2.676   1.644   9.589
 4247SOL    HW213485   2.722   1.733   9.702
 4248SOL     OW13486   2.031   2.531   0.071
 4248SOL    HW113487   1.958   2.522   0.132
 4248SOL    HW213488   2.081   2.450   0.080
 4249SOL     OW13489   1.831   2.264   0.632
 4249SOL    HW113490   1.749   2.285   0.676
 4249SOL    HW213491   1.821   2.173   0.604
 4250SOL     OW13492   2.430   3.159   1.184
 4250SOL    HW113493   2.344   3.164   1.141
 4250SOL    HW213494   2.446   3.248   1.215
 4251SOL     OW13495   3.434   3.376   0.708
 4251SOL    HW113496   3.390   3.352   0.790
 4251SOL    HW213497   3.364   3.379   0.643
 4252SOL     OW13498   2.995   2.562   0.697
 4252SOL    HW113499   3.043   2.644   0.688
 4252SOL    HW213500   2.946   2.570   0.779
 4253SOL     OW13501   3.641   2.461   0.208
 4253SOL    HW113502   3.577   2.478   0.140
 4253SOL    HW213503   3.605   2.387   0.258
 4254SOL     OW13504   2.608   2.997   1.051
 4254SOL    HW113505   2.541   3.036   1.108
 4254SOL    HW213506   2.648   3.072   1.006
 4255SOL     OW13507   2.743   2.629   1.818
 4255SOL    HW113508   2.738   2.697   1.885
 4255SOL    HW213509   2.764   2.676   1.738
 4256SOL     OW13510   2.567   2.907   0.646
 4256SOL    HW113511   2.625   2.892   0.720
 4256SOL    HW213512   2.489   2.947   0.684
 4257SOL     OW13513   2.577   3.015   1.812
 4257SOL    HW113514   2.625   3.092   1.844
 4257SOL    HW213515   2.498   3.051   1.773
 4258SOL     OW13516   2.193   3.278   1.067
 4258SOL    HW113517   2.119   3.240   1.021
 4258SOL    HW213518   2.238   3.331   1.000
 4259SOL     OW13519   3.321   3.364   1.362
 4259SOL    HW113520   3.375   3.442   1.370
 4259SOL    HW213521   3.252   3.375   1.428
 4260SOL     OW13522   3.466   2.304   0.745
 4260SOL    HW113523   3.391   2.321   0.688
 4260SOL    HW213524   3.471   2.381   0.801
 4261SOL     OW13525   2.080   3.577   0.470
 4261SOL    HW113526   2.101   3.653   0.524
 4261SOL    HW213527   2.153   3.571   0.408
 4262SOL     OW13528   3.000   3.205   1.695
 4262SOL    HW113529   3.041   3.198   1.781
 4262SOL    HW213530   2.948   3.125   1.686
 4263SOL     OW13531   2.089   3.306   0.533
 4263SOL    HW113532   2.074   3.401   0.532
 4263SOL    HW213533   2.031   3.273   0.601
 4264SOL     OW13534   2.125   2.961   0.889
 4264SOL    HW113535   2.119   2.872   0.923
 4264SOL    HW213536   2.065   3.012   0.944
 4265SOL     OW13537   2.464   3.653   1.427
 4265SOL    HW113538   2.383   3.636   1.475
 4265SOL    HW213539   2.489   3.742   1.454
 4266SOL     OW13540   2.435   2.871   0.143
 4266SOL    HW113541   2.489   2.914   0.076
 4266SOL    HW213542   2.475   2.896   0.226
 4267SOL     OW13543   3.457   1.989   1.464
 4267SOL    HW113544   3.480   2.069   1.417
 4267SOL    HW213545   3.437   2.019   1.553
 4268SOL     OW13546   1.962   2.505   0.564
 4268SOL    HW113547   1.923   2.421   0.588
 4268SOL    HW213548   1.959   2.557   0.645
 4269SOL     OW13549   3.707   3.616   0.326
 4269SOL    HW113550   3.775   3.590   0.388
 4269SOL    HW213551   3.725   3.709   0.308
 4270SOL     OW13552   1.915   3.457   0.117
 4270SOL    HW113553   1.888   3.370   0.145
 4270SOL    HW213554   1.888   3.516   0.188
 4271SOL     OW13555   3.550   2.780   0.647
 4271SOL    HW113556   3.634   2.739   0.627
 4271SOL    HW213557   3.530   2.833   0.569
 4272SOL     OW13558   3.512   2.963   0.432
 4272SOL    HW113559   3.595   2.969   0.385
 4272SOL    HW213560   3.519   3.027   0.502
 4273SOL     OW13561   1.984   2.611   1.580
 4273SOL    HW113562   2.017   2.623   1.669
 4273SOL    HW213563   1.922   2.684   1.568
 4274SOL     OW13564   2.478   3.256   0.735
 4274SOL    HW113565   2.432   3.173   0.744
 4274SOL    HW213566   2.462   3.283   0.645
 4275SOL     OW13567   3.146   3.097   1.421
 4275SOL    HW113568   3.177   3.029   1.361
 4275SOL    HW213569   3.207   3.092   1.496
 4276SOL     OW13570   2.675   1.873   0.507
 4276SOL    HW113571   2.718   1.957   0.491
 4276SOL    HW213572   2.581   1.895   0.509
 4277SOL     OW13573   2.045   2.828   1.280
 4277SOL    HW113574   2.129   2.786   1.265
 4277SOL    HW213575   1.984   2.780   1.223
 4278SOL     OW13576   3.368   2.875   0.208
 4278SOL    HW113577   3.304   2.815   0.248
 4278SOL    HW213578   3.424   2.901   0.281
 4279SOL     OW13579   3.044   3.675   1.626
 4279SOL    HW113580   3.051   3.736   1.553
 4279SOL    HW213581   3.064   3.590   1.587
 4280SOL     OW13582   3.329   3.282   0.946
 4280SOL    HW113583   3.263   3.297   1.013
 4280SOL    HW213584   3.316   3.190   0.920
 4281SOL     OW13585   3.516   3.616   0.578
 4281SOL    HW113586   3.497   3.583   0.490
 4281SOL    HW213587   3.497   3.542   0.635
 4282SOL     OW13588   2.505   2.644   0.312
 4282SOL    HW113589   2.492   2.697   0.233
 4282SOL    HW213590   2.417   2.619   0.339
 4283SOL     OW13591   3.142   2.226   0.934
 4283SOL    HW113592   3.053   2.191   0.942
 4283SOL    HW213593   3.195   2.171   0.992
 4284SOL     OW13594   3.444   3.534   0.315
 4284SOL    HW113595   3.536   3.559   0.306
 4284SOL    HW213596   3.415   3.516   0.225
 4285SOL     OW13597   2.666   2.471   1.485
 4285SOL    HW113598   2.694   2.486   1.575
 4285SOL    HW213599   2.597   2.404   1.492
 4286SOL     OW13600   3.255   2.336   1.678
 4286SOL    HW113601   3.260   2.380   1.763
 4286SOL    HW213602   3.311   2.260   1.688
 4287SOL     OW13603   2.813   2.747   1.580
 4287SOL    HW113604   2.872   2.682   1.543
 4287SOL    HW213605   2.777   2.792   1.503
 4288SOL     OW13606   2.869   2.273   1.234
 4288SOL    HW113607   2.784   2.281   1.278
 4288SOL    HW213608   2.848   2.245   1.145
 4289SOL     OW13609   2.914   2.567   0.432
 4289SOL    HW113610   2.940   2.562   0.524
 4289SOL    HW213611   2.822   2.541   0.431
 4290SOL     OW13612   1.948   2.684   0.775
 4290SOL    HW113613   2.029   2.681   0.826
 4290SOL    HW213614   1.901   2.759   0.809
 4291SOL     OW13615   1.986   3.732   1.584
 4291SOL    HW113616   1.990   3.709   1.676
 4291SOL    HW213617   1.902   3.698   1.554
 4292SOL     OW13618   2.755   2.205   0.220
 4292SOL    HW113619   2.802   2.270   0.168
 4292SOL    HW213620   2.769   2.122   0.174
 4293SOL     OW13621   3.566   2.432   1.830
 4293SOL    HW113622   3.531   2.506   1.780
 4293SOL    HW213623   3.594   2.369   1.764
 4294SOL     OW13624   3.244   3.002   0.540
 4294SOL    HW113625   3.322   2.992   0.487
 4294SOL    HW213626   3.190   3.065   0.492
 4295SOL     OW13627   2.456   2.023   0.866
 4295SOL    HW113628   2.445   2.030   0.961
 4295SOL    HW213629   2.465   2.114   0.836
 4296SOL     OW13630   2.860   3.305   0.471
 4296SOL    HW113631   2.830   3.381   0.422
 4296SOL    HW213632   2.836   3.324   0.562
 4297SOL     OW13633   2.216   3.676   0.871
 4297SOL    HW113634   2.260   3.592   0.877
 4297SOL    HW213635   2.285   3.740   0.889
 4298SOL     OW13636   3.662   2.915   0.874
 4298SOL    HW113637   3.609   2.897   0.796
 4298SOL    HW213638   3.598   2.921   0.945
 4299SOL     OW13639   3.088   3.403   1.514
 4299SOL    HW113640   3.077   3.330   1.575
 4299SOL    HW213641   3.022   3.388   1.447
 4300SOL     OW13642   2.183   2.816   0.271
 4300SOL    HW113643   2.262   2.842   0.223
 4300SOL    HW213644   2.144   2.747   0.218
 4301SOL     OW13645   3.344   2.608   0.721
 4301SOL    HW113646   3.341   2.571   0.809
 4301SOL    HW213647   3.421   2.665   0.721
 4302SOL     OW13648   2.331   3.130   1.737
 4302SOL    HW113649   2.304   3.134   1.645
 4302SOL    HW213650   2.249   3.128   1.786
 4303SOL     OW13651   2.970   3.645   0.224
 4303SOL    HW113652   2.908   3.596   0.279
 4303SOL    HW213653   3.013   3.579   0.171
 4304SOL     OW13654   3.489   3.234   0.091
 4304SOL    HW113655   3.447   3.319   0.080
 4304SOL    HW213656   3.424   3.171   0.059
 4305SOL     OW13657   2.329   3.593   0.328
 4305SOL    HW113658   2.369   3.655   0.388
 4305SOL    HW213659   2.400   3.565   0.270
 4306SOL     OW13660   3.263   1.969   0.437
 4306SOL    HW113661   3.257   1.948   0.344
 4306SOL    HW213662   3.357   1.974   0.454
 4307SOL     OW13663   2.119   3.652   1.228
 4307SOL    HW113664   2.168   3.580   1.267
 4307SOL    HW213665   2.108   3.626   1.136
 4308SOL     OW13666   2.802   3.561   0.896
 4308SOL    HW113667   2.882   3.513   0.916
 4308SOL    HW213668   2.761   3.511   0.826
 4309SOL     OW13669   3.389   2.086   1.723
 4309SOL    HW113670   3.400   2.106   1.816
 4309SOL    HW213671   3.322   2.018   1.721
 4310SOL     OW13672   2.477   1.959   0.131
 4310SOL    HW113673   2.571   1.941   0.134
 4310SOL    HW213674   2.452   1.938   0.041
 4311SOL     OW13675   2.632   2.108   1.740
 4311SOL    HW113676   2.717   2.065   1.741
 4311SOL    HW213677   2.590   2.080   1.822
 4312SOL     OW13678   2.736   3.384   1.195
 4312SOL    HW113679   2.720   3.347   1.108
 4312SOL    HW213680   2.807   3.331   1.231
 4313SOL     OW13681   3.203   2.454   1.434
 4313SOL    HW113682   3.235   2.421   1.519
 4313SOL    HW213683   3.244   2.540   1.425
 4314SOL     OW13684   2.680   3.248   0.947
 4314SOL    HW113685   2.765   3.238   0.904
 4314SOL    HW213686   2.618   3.257   0.875
 4315SOL     OW13687   2.799   2.356   0.918
 4315SOL    HW113688   2.772   2.354   0.826
 4315SOL    HW213689   2.831   2.267   0.935
 4316SOL     OW13690   2.405   1.944   0.505
 4316SOL    HW113691   2.375   1.952   0.596
 4316SOL    HW213692   2.357   2.013   0.458
 4317SOL     OW13693   3.282   3.061   0.024
 4317SOL    HW113694   3.311   2.991   0.083
 4317SOL    HW213695   3.200   3.092   0.062
 4318SOL     OW13696   2.143   1.791   0.124
 4318SOL    HW113697   2.156   1.877   0.084
 4318SOL    HW213698   2.216   1.782   0.186
 4319SOL     OW13699   2.803   2.117   0.469
 4319SOL    HW113700   2.778   2.152   0.383
 4319SOL    HW213701   2.898   2.128   0.472
 4320SOL     OW13702   2.949   2.547   1.455
 4320SOL    HW113703   2.890   2.471   1.457
 4320SOL    HW213704   3.036   2.509   1.449
 4321SOL     OW13705   3.079   3.437   0.796
 4321SOL    HW113706   3.094   3.500   0.726
 4321SOL    HW213707   3.151   3.451   0.858
 4322SOL     OW13708   2.333   3.022   0.728
 4322SOL    HW113709   2.266   3.001   0.794
 4322SOL    HW213710   2.288   3.009   0.645
 4323SOL     OW13711   3.126   3.654   0.610
 4323SOL    HW113712   3.175   3.716   0.556
 4323SOL    HW213713   3.059   3.708   0.652
 4324SOL     OW13714   2.900   2.370   0.065
 4324SOL    HW113715   2.888   2.444   0.005
 4324SOL    HW213716   2.974   2.395   0.120
 4325SOL     OW13717   1.951   2.423   1.382
 4325SOL    HW113718   2.037   2.391   1.406
 4325SOL    HW213719   1.934   2.494   1.444
 4326SOL     OW13720   2.412   2.022   1.134
 4326SOL    HW113721   2.438   1.967   1.208
 4326SOL    HW213722   2.324   2.053   1.157
 4327SOL     OW13723   2.742   2.314   0.657
 4327SOL    HW113724   2.688   2.377   0.609
 4327SOL    HW213725   2.759   2.244   0.594
 4328SOL     OW13726   2.881   1.915   0.747
 4328SOL    HW113727   2.819   1.912   0.674
 4328SOL    HW213728   2.858   1.840   0.802
 4329SOL     OW13729   3.301   3.022   0.856
 4329SOL    HW113730   3.230   2.959   0.856
 4329SOL    HW213731   3.327   3.031   0.765
 4330SOL     OW13732   3.328   2.472   0.967
 4330SOL    HW113733   3.271   2.395   0.971
 4330SOL    HW213734   3.385   2.463   1.044
 4331SOL     OW13735   3.711   2.670   0.376
 4331SOL    HW113736   3.762   2.621   0.440
 4331SOL    HW213737   3.684   2.604   0.312
 4332SOL     OW13738   2.356   3.287   0.171
 4332SOL    HW113739   2.280   3.261   0.223
 4332SOL    HW213740   2.353   3.230   0.094
 4333SOL     OW13741   3.540   3.125   0.644
 4333SOL    HW113742   3.635   3.124   0.658
 4333SOL    HW213743   3.514   3.215   0.663
 4334SOL     OW13744   3.256   2.426   0.083
 4334SOL    HW113745   3.200   2.415   0.160
 4334SOL    HW213746   3.308   2.346   0.079
 4335SOL     OW13747   3.610   3.105   1.562
 4335SOL    HW113748   3.697   3.066   1.556
 4335SOL    HW213749   3.626   3.194   1.592
 4336SOL     OW13750   2.917   3.216   1.331
 4336SOL    HW113751   2.841   3.187   1.382
 4336SOL    HW213752   2.992   3.174   1.373
 4337SOL     OW13753   3.471   3.490   1.659
 4337SOL    HW113754   3.463   3.524   1.570
 4337SOL    HW213755   3.553   3.440   1.657
 4338SOL     OW13756   2.997   3.073   1.102
 4338SOL    HW113757   2.937   3.113   1.166
 4338SOL    HW213758   2.968   3.107   1.018
 4339SOL     OW13759   3.483   2.957   1.077
 4339SOL    HW113760   3.476   3.020   1.148
 4339SOL    HW213761   3.408   2.976   1.020
 4340SOL     OW13762   2.790   1.951   1.390
 4340SOL    HW113763   2.812   1.933   1.299
 4340SOL    HW213764   2.869   1.991   1.426
 4341SOL     OW13765   2.846   2.977   1.720
 4341SOL    HW113766   2.756   2.994   1.744
 4341SOL    HW213767   2.842   2.899   1.665
 4342SOL     OW13768   2.576   2.934   0.370
 4342SOL    HW113769   2.567   2.924   0.464
 4342SOL    HW213770   2.646   2.873   0.346
 4343SOL     OW13771   2.283   2.689   1.249
 4343SOL    HW113772   2.346   2.709   1.317
 4343SOL    HW213773   2.304   2.600   1.222
 4344SOL     OW13774   3.135   2.236   1.283
 4344SOL    HW113775   3.165   2.315   1.327
 4344SOL    HW213776   3.044   2.255   1.258
 4345SOL     OW13777   1.936   3.437   1.358
 4345SOL    HW113778   1.907   3.506   1.299
 4345SOL    HW213779   2.032   3.436   1.348
 4346SOL     OW13780   2.198   2.986   0.492
 4346SOL    HW113781   2.198   3.061   0.432
 4346SOL    HW213782   2.196   2.910   0.434
 4347SOL     OW13783   3.108   3.208   0.401
 4347SOL    HW113784   3.163   3.281   0.428
 4347SOL    HW213785   3.020   3.231   0.430
 4348SOL     OW13786   3.152   3.323   1.148
 4348SOL    HW113787   3.207   3.328   1.226
 4348SOL    HW213788   3.098   3.245   1.162
 4349SOL     OW13789   3.442   2.486   0.482
 4349SOL    HW113790   3.391   2.524   0.554
 4349SOL    HW213791   3.473   2.561   0.432
 4350SOL     OW13792   2.207   3.393   1.309
 4350SOL    HW113793   2.196   3.347   1.226
 4350SOL    HW213794   2.302   3.404   1.318
 4351SOL     OW13795   3.471   2.643   1.687
 4351SOL    HW113796   3.385   2.685   1.681
 4351SOL    HW213797   3.523   2.685   1.618
 4352SOL     OW13798   2.873   1.987   1.754
 4352SOL    HW113799   2.929   2.062   1.733
 4352SOL    HW213800   2.924   1.911   1.726
 4353SOL     OW13801   2.361   1.890   1.758
 4353SOL    HW113802   2.314   1.838   1.693
 4353SOL    HW213803   2.320   1.977   1.754
 4354SOL     OW13804   2.419   2.763   1.018
 4354SOL    HW113805   2.483   2.834   1.018
 4354SOL    HW213806   2.385   2.761   1.107
 4355SOL     OW13807   3.209   2.720   1.022
 4355SOL    HW113808   3.123   2.704   0.982
 4355SOL    HW213809   3.256   2.637   1.012
 4356SOL     OW13810   3.074   2.393   0.284
 4356SOL    HW113811   3.078   2.314   0.337
 4356SOL    HW213812   3.024   2.455   0.337
 4357SOL     OW13813   1.910   3.175   1.275
 4357SOL    HW113814   1.941   3.119   1.347
 4357SOL    HW213815   1.914   3.263   1.310
 4358SOL     OW13816   3.601   2.822   1.859
 4358SOL    HW113817   3.558   2.754   1.806
 4358SOL    HW213818   3.540   2.839   1.930
 4359SOL     OW13819   3.491   2.245   0.356
 4359SOL    HW113820   3.514   2.177   0.419
 4359SOL    HW213821   3.464   2.319   0.410
 4360SOL     OW13822   2.882   2.614   0.953
 4360SOL    HW113823   2.879   2.634   1.047
 4360SOL    HW213824   2.850   2.524   0.947
 4361SOL     OW13825   2.842   3.428   1.722
 4361SOL    HW113826   2.827   3.472   1.638
 4361SOL    HW213827   2.887   3.347   1.698
 4362SOL     OW13828   3.713   3.363   1.604
 4362SOL    HW113829   3.734   3.391   1.515
 4362SOL    HW213830   3.794   3.377   1.654
 4363SOL     OW13831   2.225   2.776   1.795
 4363SOL    HW113832   2.292   2.801   1.859
 4363SOL    HW213833   2.275   2.741   1.721
 4364SOL     OW13834   3.387   2.170   0.109
 4364SOL    HW113835   3.333   2.092   0.125
 4364SOL    HW213836   3.427   2.189   0.194
 4365SOL     OW13837   3.147   2.672   0.031
 4365SOL    HW113838   3.192   2.588   0.041
 4365SOL    HW213839   3.199   2.719  11.067
 4366SOL     OW13840   2.931   3.201   0.858
 4366SOL    HW113841   2.937   3.130   0.795
 4366SOL    HW213842   2.989   3.269   0.822
 4367SOL     OW13843   2.164   2.687   0.946
 4367SOL    HW113844   2.256   2.714   0.949
 4367SOL    HW213845   2.158   2.615   1.009
 4368SOL     OW13846   2.996   2.237   1.683
 4368SOL    HW113847   2.948   2.288   1.748
 4368SOL    HW213848   3.083   2.277   1.681
 4369SOL     OW13849   3.027   2.061   1.472
 4369SOL    HW113850   3.013   2.124   1.543
 4369SOL    HW213851   3.072   2.111   1.404
 4370SOL     OW13852   1.872   3.188   0.194
 4370SOL    HW113853   1.786   3.201   0.155
 4370SOL    HW213854   1.870   3.098   0.226
 4371SOL     OW13855   1.953   3.643   0.943
 4371SOL    HW113856   1.922   3.566   0.896
 4371SOL    HW213857   2.041   3.658   0.910
 4372SOL     OW13858   2.354   3.437   0.906
 4372SOL    HW113859   2.422   3.499   0.929
 4372SOL    HW213860   2.396   3.375   0.846
 4373SOL     OW13861   2.845   2.653   1.220
 4373SOL    HW113862   2.905   2.630   1.292
 4373SOL    HW213863   2.759   2.626   1.252
 4374SOL     OW13864   1.897   2.420   1.115
 4374SOL    HW113865   1.949   2.349   1.077
 4374SOL    HW213866   1.925   2.424   1.207
 4375SOL     OW13867   3.243   2.795   1.656
 4375SOL    HW113868   3.264   2.888   1.653
 4375SOL    HW213869   3.240   2.768   1.564
 4376SOL     OW13870   3.502   2.463   1.180
 4376SOL    HW113871   3.492   2.404   1.255
 4376SOL    HW213872   3.590   2.445   1.146
 4377SOL     OW13873   2.100   3.411   1.723
 4377SOL    HW113874   2.079   3.476   1.789
 4377SOL    HW213875   2.107   3.329   1.771
 4378SOL     OW13876   2.783   3.540   1.472
 4378SOL    HW113877   2.759   3.501   1.388
 4378SOL    HW213878   2.778   3.635   1.456
 4379SOL     OW13879   2.001   3.006   1.478
 4379SOL    HW113880   2.004   2.959   1.561
 4379SOL    HW213881   2.017   2.940   1.411
 4380SOL     OW13882   3.181   2.905   1.219
 4380SOL    HW113883   3.203   2.842   1.151
 4380SOL    HW213884   3.115   2.962   1.179
 4381SOL     OW13885   3.170   2.714   0.310
 4381SOL    HW113886   3.098   2.677   0.360
 4381SOL    HW213887   3.149   2.695   0.218
 4382SOL     OW13888   3.645   3.597   1.159
 4382SOL    HW113889   3.703   3.624   1.088
 4382SOL    HW213890   3.615   3.510   1.134
 4383SOL     OW13891   3.102   3.595   1.106
 4383SOL    HW113892   3.184   3.619   1.064
 4383SOL    HW213893   3.112   3.502   1.126
 4384SOL     OW13894   1.946   3.129   1.011
 4384SOL    HW113895   1.930   3.144   1.104
 4384SOL    HW213896   1.873   3.074   0.982
 4385SOL     OW13897   2.541   3.534   1.739
 4385SOL    HW113898   2.482   3.609   1.730
 4385SOL    HW213899   2.610   3.550   1.675
 4386SOL     OW13900   2.780   1.955   0.096
 4386SOL    HW113901   2.821   1.921   0.016
 4386SOL    HW213902   2.827   1.912   0.167
 4387SOL     OW13903   3.581   2.019   0.504
 4387SOL    HW113904   3.652   2.004   0.442
 4387SOL    HW213905   3.566   1.933   0.544
 4388SOL     OW13906   3.255   3.430   0.492
 4388SOL    HW113907   3.314   3.463   0.425
 4388SOL    HW213908   3.205   3.507   0.520
 4389SOL     OW13909   2.004   3.656   1.842
 4389SOL    HW113910   1.953   3.590   1.889
 4389SOL    HW213911   2.048   3.706   1.911
 4390SOL     OW13912   3.141   2.790   0.672
 4390SOL    HW113913   3.215   2.729   0.680
 4390SOL    HW213914   3.175   2.861   0.618
 4391SOL     OW13915   2.666   3.144   1.424
 4391SOL    HW113916   2.638   3.184   1.506
 4391SOL    HW213917   2.596   3.164   1.362
 4392SOL     OW13918   2.536   3.488   0.171
 4392SOL    HW113919   2.564   3.491   0.080
 4392SOL    HW213920   2.478   3.411   0.177
 4393SOL     OW13921   3.481   3.589   1.392
 4393SOL    HW113922   3.535   3.594   1.313
 4393SOL    HW213923   3.467   3.681   1.417
 4394SOL     OW13924   3.706   2.032   0.966
 4394SOL    HW113925   3.736   1.944   0.942
 4394SOL    HW213926   3.619   2.040   0.926
 4395SOL     OW13927   3.085   3.460   0.057
 4395SOL    HW113928   3.074   3.367   0.077
 4395SOL    HW213929   3.022   3.478  11.088
 4396SOL     OW13930   2.710   2.883   1.368
 4396SOL    HW113931   2.746   2.882   1.279
 4396SOL    HW213932   2.697   2.975   1.388
 4397SOL     OW13933   2.787   2.782   0.281
 4397SOL    HW113934   2.851   2.820   0.221
 4397SOL    HW213935   2.837   2.721   0.335
 4398SOL     OW13936   3.359   3.484   0.052
 4398SOL    HW113937   3.263   3.476   0.052
 4398SOL    HW213938   3.381   3.498  11.060
 4399SOL     OW13939   2.229   3.167   1.492
 4399SOL    HW113940   2.216   3.243   1.435
 4399SOL    HW213941   2.151   3.113   1.478
 4400SOL     OW13942   3.469   3.146   1.280
 4400SOL    HW113943   3.528   3.130   1.353
 4400SOL    HW213944   3.409   3.214   1.312
 4401SOL     OW13945   2.927   2.973   0.712
 4401SOL    HW113946   2.854   2.923   0.750
 4401SOL    HW213947   2.990   2.907   0.685
 4402SOL     OW13948   2.890   2.098   0.966
 4402SOL    HW113949   2.886   2.051   0.883
 4402SOL    HW213950   2.884   2.030   1.033
 4403SOL     OW13951   2.467   3.352   0.481
 4403SOL    HW113952   2.513   3.301   0.414
 4403SOL    HW213953   2.395   3.393   0.434
 4404SOL     OW13954   3.589   2.254   1.380
 4404SOL    HW113955   3.661   2.316   1.380
 4404SOL    HW213956   3.618   2.183   1.323
 4405SOL     OW13957   2.131   3.193   0.295
 4405SOL    HW113958   2.045   3.196   0.253
 4405SOL    HW213959   2.118   3.238   0.379
 4406SOL     OW13960   1.978   2.898   1.731
 4406SOL    HW113961   1.902   2.869   1.780
 4406SOL    HW213962   2.052   2.850   1.770
 4407SOL     OW13963   2.548   2.043   1.485
 4407SOL    HW113964   2.635   2.018   1.452
 4407SOL    HW213965   2.566   2.077   1.573
 4408SOL     OW13966   1.876   2.274   0.056
 4408SOL    HW113967   1.817   2.201   0.036
 4408SOL    HW213968   1.919   2.293  11.073
 4409SOL     OW13969   3.288   2.720   1.397
 4409SOL    HW113970   3.238   2.781   1.342
 4409SOL    HW213971   3.376   2.722   1.360
 4410SOL     OW13972   3.051   3.196   0.124
 4410SOL    HW113973   2.956   3.182   0.113
 4410SOL    HW213974   3.065   3.187   0.218
 4411SOL     OW13975   2.503   2.719   1.420
 4411SOL    HW113976   2.564   2.791   1.406
 4411SOL    HW213977   2.557   2.646   1.451
 4412SOL     OW13978   3.344   3.648   0.983
 4412SOL    HW113979   3.366   3.714   0.918
 4412SOL    HW213980   3.429   3.617   1.016
 4413SOL     OW13981   3.336   3.056   1.629
 4413SOL    HW113982   3.324   3.071   1.722
 4413SOL    HW213983   3.428   3.075   1.612
 4414SOL     OW13984   2.233   3.603   1.566
 4414SOL    HW113985   2.150   3.649   1.550
 4414SOL    HW213986   2.207   3.520   1.606
 4415SOL     OW13987   3.526   2.741   1.255
 4415SOL    HW113988   3.523   2.656   1.212
 4415SOL    HW213989   3.516   2.804   1.184
 4416SOL     OW13990   3.076   2.177   0.463
 4416SOL    HW113991   3.140   2.106   0.453
 4416SOL    HW213992   3.107   2.226   0.539
 4417SOL     OW13993   2.562   2.635   0.618
 4417SOL    HW113994   2.581   2.729   0.623
 4417SOL    HW213995   2.472   2.631   0.586
 4418SOL     OW13996   3.618   2.225   1.653
 4418SOL    HW113997   3.604   2.242   1.560
 4418SOL    HW213998   3.545   2.169   1.678
 4419SOL     OW13999   3.611   2.795   1.511
 4419SOL    HW114000   3.600   2.889   1.522
 4419SOL    HW214001   3.593   2.780   1.418
 4420SOL     OW14002   2.777   3.215   0.080
 4420SOL    HW114003   2.714   3.210   0.152
 4420SOL    HW214004   2.752   3.294   0.032
 4421SOL     OW14005   2.526   3.645   0.939
 4421SOL    HW114006   2.507   3.737   0.919
 4421SOL    HW214007   2.621   3.638   0.932
 4422SOL     OW14008   2.734   2.838   0.856
 4422SOL    HW114009   2.775   2.757   0.886
 4422SOL    HW214010   2.697   2.877   0.935
 4423SOL     OW14011   2.945   2.852   0.076
 4423SOL    HW114012   2.917   2.877  11.088
 4423SOL    HW214013   3.018   2.792   0.061
 4424SOL     OW14014   3.711   3.416   0.842
 4424SOL    HW114015   3.632   3.404   0.790
 4424SOL    HW214016   3.706   3.348   0.909
 4425SOL     OW14017   2.087   3.161   1.853
 4425SOL    HW114018   2.027   3.096   1.816
 4425SOL    HW214019   2.056   3.175   1.942
 4426SOL     OW14020   1.950   3.092   0.667
 4426SOL    HW114021   1.961   3.046   0.750
 4426SOL    HW214022   2.018   3.057   0.610
 4427SOL     OW14023   2.545   3.272   1.631
 4427SOL    HW114024   2.465   3.230   1.664
 4427SOL    HW214025   2.543   3.360   1.669
 4428SOL     OW14026   3.673   2.043   1.236
 4428SOL    HW114027   3.679   1.948   1.249
 4428SOL    HW214028   3.685   2.055   1.142
 4429SOL     OW14029   3.557   3.349   1.093
 4429SOL    HW114030   3.479   3.329   1.041
 4429SOL    HW214031   3.562   3.278   1.157
 4430SOL     OW14032   2.693   3.440   0.676
 4430SOL    HW114033   2.670   3.501   0.607
 4430SOL    HW214034   2.619   3.379   0.681
 4431SOL     OW14035   3.294   2.089   1.115
 4431SOL    HW114036   3.310   2.005   1.156
 4431SOL    HW214037   3.245   2.139   1.181
 4432SOL     OW14038   2.873   1.876   1.135
 4432SOL    HW114039   2.816   1.811   1.094
 4432SOL    HW214040   2.960   1.836   1.136
 4433SOL     OW14041   2.637   3.195   0.321
 4433SOL    HW114042   2.610   3.104   0.335
 4433SOL    HW214043   2.718   3.204   0.373
 4434SOL     OW14044   2.482   3.417   1.287
 4434SOL    HW114045   2.482   3.500   1.336
 4434SOL    HW214046   2.570   3.411   1.250
 4435SOL     OW14047   3.213   1.921   0.166
 4435SOL    HW114048   3.234   1.867   0.090
 4435SOL    HW214049   3.125   1.893   0.191
 4436SOL     OW14050   3.160   2.326   0.679
 4436SOL    HW114051   3.107   2.406   0.683
 4436SOL    HW214052   3.153   2.289   0.767
 4437SOL     OW14053   3.448   2.056   0.882
 4437SOL    HW114054   3.392   2.081   0.956
 4437SOL    HW214055   3.447   2.133   0.825
 4438SOL     OW14056   1.903   2.931   0.303
 4438SOL    HW114057   1.999   2.929   0.301
 4438SOL    HW214058   1.878   2.842   0.328
 4439SOL     OW14059   2.751   3.524   0.348
 4439SOL    HW114060   2.676   3.505   0.292
 4439SOL    HW214061   2.722   3.597   0.403
 4440SOL     OW14062   2.066   2.539   1.994
 4440SOL    HW114063   1.979   2.505   2.017
 4440SOL    HW214064   2.106   2.469   1.943
 4441SOL     OW14065   2.429   3.160   3.046
 4441SOL    HW114066   2.343   3.167   3.003
 4441SOL    HW214067   2.447   3.247   3.079
 4442SOL     OW14068   3.434   3.376   2.571
 4442SOL    HW114069   3.390   3.353   2.653
 4442SOL    HW214070   3.363   3.379   2.506
 4443SOL     OW14071   2.998   2.562   2.557
 4443SOL    HW114072   3.046   2.644   2.544
 4443SOL    HW214073   2.954   2.572   2.641
 4444SOL     OW14074   3.639   2.461   2.088
 4444SOL    HW114075   3.613   2.455   1.996
 4444SOL    HW214076   3.599   2.384   2.128
 4445SOL     OW14077   2.601   2.998   2.907
 4445SOL    HW114078   2.538   3.038   2.967
 4445SOL    HW214079   2.644   3.072   2.864
 4446SOL     OW14080   2.747   2.630   3.689
 4446SOL    HW114081   2.731   2.704   3.748
 4446SOL    HW214082   2.765   2.671   3.604
 4447SOL     OW14083   2.564   2.898   2.502
 4447SOL    HW114084   2.627   2.884   2.573
 4447SOL    HW214085   2.491   2.945   2.544
 4448SOL     OW14086   2.577   3.012   3.677
 4448SOL    HW114087   2.625   3.089   3.708
 4448SOL    HW214088   2.496   3.048   3.639
 4449SOL     OW14089   2.194   3.278   2.929
 4449SOL    HW114090   2.119   3.240   2.883
 4449SOL    HW214091   2.238   3.330   2.862
 4450SOL     OW14092   3.321   3.364   3.223
 4450SOL    HW114093   3.375   3.442   3.233
 4450SOL    HW214094   3.252   3.375   3.290
 4451SOL     OW14095   3.467   2.304   2.607
 4451SOL    HW114096   3.395   2.323   2.547
 4451SOL    HW214097   3.471   2.381   2.664
 4452SOL     OW14098   2.082   3.577   2.331
 4452SOL    HW114099   2.103   3.653   2.386
 4452SOL    HW214100   2.156   3.570   2.271
 4453SOL     OW14101   2.998   3.204   3.557
 4453SOL    HW114102   3.040   3.197   3.643
 4453SOL    HW214103   2.948   3.123   3.548
 4454SOL     OW14104   2.095   3.306   2.399
 4454SOL    HW114105   2.077   3.400   2.399
 4454SOL    HW214106   2.036   3.270   2.465
 4455SOL     OW14107   2.126   2.962   2.749
 4455SOL    HW114108   2.124   2.873   2.785
 4455SOL    HW214109   2.067   3.012   2.805
 4456SOL     OW14110   2.463   3.654   3.288
 4456SOL    HW114111   2.383   3.636   3.337
 4456SOL    HW214112   2.489   3.742   3.316
 4457SOL     OW14113   2.437   2.860   1.993
 4457SOL    HW114114   2.487   2.905   1.924
 4457SOL    HW214115   2.472   2.894   2.075
 4458SOL     OW14116   3.457   1.990   3.326
 4458SOL    HW114117   3.480   2.070   3.280
 4458SOL    HW214118   3.436   2.018   3.415
 4459SOL     OW14119   1.971   2.517   2.427
 4459SOL    HW114120   1.931   2.437   2.460
 4459SOL    HW214121   1.974   2.576   2.502
 4460SOL     OW14122   3.705   3.616   2.192
 4460SOL    HW114123   3.774   3.590   2.254
 4460SOL    HW214124   3.723   3.708   2.172
 4461SOL     OW14125   1.901   3.451   1.983
 4461SOL    HW114126   1.880   3.360   2.003
 4461SOL    HW214127   1.875   3.500   2.061
 4462SOL     OW14128   3.551   2.782   2.509
 4462SOL    HW114129   3.634   2.737   2.487
 4462SOL    HW214130   3.530   2.832   2.430
 4463SOL     OW14131   3.512   2.965   2.291
 4463SOL    HW114132   3.599   2.965   2.251
 4463SOL    HW214133   3.519   3.028   2.363
 4464SOL     OW14134   1.977   2.602   3.438
 4464SOL    HW114135   2.065   2.634   3.456
 4464SOL    HW214136   1.921   2.679   3.450
 4465SOL     OW14137   2.478   3.254   2.597
 4465SOL    HW114138   2.432   3.171   2.605
 4465SOL    HW214139   2.462   3.281   2.506
 4466SOL     OW14140   3.147   3.097   3.283
 4466SOL    HW114141   3.177   3.029   3.223
 4466SOL    HW214142   3.207   3.092   3.357
 4467SOL     OW14143   2.681   1.866   2.372
 4467SOL    HW114144   2.725   1.948   2.347
 4467SOL    HW214145   2.588   1.887   2.373
 4468SOL     OW14146   2.029   2.837   3.137
 4468SOL    HW114147   2.117   2.808   3.112
 4468SOL    HW214148   1.971   2.784   3.081
 4469SOL     OW14149   3.393   2.861   2.063
 4469SOL    HW114150   3.323   2.804   2.095
 4469SOL    HW214151   3.436   2.894   2.141
 4470SOL     OW14152   3.044   3.675   3.488
 4470SOL    HW114153   3.051   3.736   3.415
 4470SOL    HW214154   3.064   3.590   3.449
 4471SOL     OW14155   3.330   3.281   2.808
 4471SOL    HW114156   3.263   3.297   2.875
 4471SOL    HW214157   3.316   3.190   2.782
 4472SOL     OW14158   3.515   3.615   2.439
 4472SOL    HW114159   3.497   3.582   2.351
 4472SOL    HW214160   3.497   3.542   2.497
 4473SOL     OW14161   2.545   2.632   2.141
 4473SOL    HW114162   2.537   2.692   2.067
 4473SOL    HW214163   2.481   2.663   2.205
 4474SOL     OW14164   3.140   2.227   2.796
 4474SOL    HW114165   3.052   2.192   2.805
 4474SOL    HW214166   3.193   2.173   2.854
 4475SOL     OW14167   3.440   3.535   2.173
 4475SOL    HW114168   3.532   3.561   2.165
 4475SOL    HW214169   3.412   3.519   2.083
 4476SOL     OW14170   3.255   2.337   3.539
 4476SOL    HW114171   3.259   2.381   3.624
 4476SOL    HW214172   3.310   2.260   3.548
 4477SOL     OW14173   2.812   2.741   3.441
 4477SOL    HW114174   2.864   2.670   3.402
 4477SOL    HW214175   2.770   2.784   3.367
 4478SOL     OW14176   2.865   2.269   3.088
 4478SOL    HW114177   2.779   2.290   3.125
 4478SOL    HW214178   2.846   2.226   3.005
 4479SOL     OW14179   2.930   2.570   2.287
 4479SOL    HW114180   2.948   2.564   2.380
 4479SOL    HW214181   2.848   2.522   2.275
 4480SOL     OW14182   1.954   2.690   2.635
 4480SOL    HW114183   2.034   2.689   2.687
 4480SOL    HW214184   1.903   2.763   2.671
 4481SOL     OW14185   1.986   3.732   3.446
 4481SOL    HW114186   1.991   3.709   3.538
 4481SOL    HW214187   1.901   3.698   3.417
 4482SOL     OW14188   2.758   2.216   2.059
 4482SOL    HW114189   2.800   2.274   1.996
 4482SOL    HW214190   2.746   2.134   2.011
 4483SOL     OW14191   3.567   2.432   3.692
 4483SOL    HW114192   3.532   2.506   3.642
 4483SOL    HW214193   3.595   2.369   3.626
 4484SOL     OW14194   3.244   3.005   2.401
 4484SOL    HW114195   3.323   2.993   2.349
 4484SOL    HW214196   3.190   3.066   2.351
 4485SOL     OW14197   2.861   3.306   2.330
 4485SOL    HW114198   2.831   3.382   2.280
 4485SOL    HW214199   2.839   3.326   2.421
 4486SOL     OW14200   2.216   3.676   2.732
 4486SOL    HW114201   2.260   3.591   2.738
 4486SOL    HW214202   2.284   3.740   2.751
 4487SOL     OW14203   3.662   2.917   2.735
 4487SOL    HW114204   3.610   2.896   2.658
 4487SOL    HW214205   3.598   2.922   2.806
 4488SOL     OW14206   3.088   3.402   3.376
 4488SOL    HW114207   3.077   3.330   3.437
 4488SOL    HW214208   3.021   3.388   3.309
 4489SOL     OW14209   2.180   2.806   2.117
 4489SOL    HW114210   2.260   2.824   2.068
 4489SOL    HW214211   2.144   2.727   2.076
 4490SOL     OW14212   3.344   2.611   2.584
 4490SOL    HW114213   3.341   2.572   2.671
 4490SOL    HW214214   3.422   2.667   2.586
 4491SOL     OW14215   2.332   3.129   3.599
 4491SOL    HW114216   2.306   3.135   3.507
 4491SOL    HW214217   2.250   3.126   3.648
 4492SOL     OW14218   2.987   3.641   2.090
 4492SOL    HW114219   2.911   3.602   2.134
 4492SOL    HW214220   3.011   3.577   2.023
 4493SOL     OW14221   3.491   3.244   1.953
 4493SOL    HW114222   3.449   3.329   1.938
 4493SOL    HW214223   3.423   3.180   1.932
 4494SOL     OW14224   2.325   3.598   2.181
 4494SOL    HW114225   2.370   3.654   2.244
 4494SOL    HW214226   2.395   3.564   2.125
 4495SOL     OW14227   3.262   1.969   2.302
 4495SOL    HW114228   3.254   1.943   2.210
 4495SOL    HW214229   3.357   1.974   2.317
 4496SOL     OW14230   2.118   3.652   3.090
 4496SOL    HW114231   2.168   3.581   3.131
 4496SOL    HW214232   2.109   3.625   2.999
 4497SOL     OW14233   2.801   3.561   2.758
 4497SOL    HW114234   2.882   3.514   2.779
 4497SOL    HW214235   2.761   3.511   2.688
 4498SOL     OW14236   3.388   2.086   3.586
 4498SOL    HW114237   3.399   2.107   3.679
 4498SOL    HW214238   3.321   2.018   3.584
 4499SOL     OW14239   2.525   1.977   1.959
 4499SOL    HW114240   2.568   1.900   1.996
 4499SOL    HW214241   2.462   1.942   1.897
 4500SOL     OW14242   2.632   2.118   3.602
 4500SOL    HW114243   2.712   2.068   3.614
 4500SOL    HW214244   2.585   2.108   3.685
 4501SOL     OW14245   2.736   3.384   3.057
 4501SOL    HW114246   2.720   3.347   2.971
 4501SOL    HW214247   2.807   3.331   3.093
 4502SOL     OW14248   3.194   2.461   3.298
 4502SOL    HW114249   3.228   2.426   3.381
 4502SOL    HW214250   3.238   2.545   3.288
 4503SOL     OW14251   2.680   3.249   2.809
 4503SOL    HW114252   2.766   3.239   2.766
 4503SOL    HW214253   2.618   3.258   2.736
 4504SOL     OW14254   2.791   2.370   2.768
 4504SOL    HW114255   2.775   2.365   2.674
 4504SOL    HW214256   2.824   2.283   2.792
 4505SOL     OW14257   2.415   1.937   2.359
 4505SOL    HW114258   2.364   1.943   2.440
 4505SOL    HW214259   2.403   2.023   2.318
 4506SOL     OW14260   3.290   3.063   1.901
 4506SOL    HW114261   3.320   2.988   1.952
 4506SOL    HW214262   3.205   3.085   1.938
 4507SOL     OW14263   2.808   2.106   2.312
 4507SOL    HW114264   2.782   2.146   2.228
 4507SOL    HW214265   2.902   2.120   2.317
 4508SOL     OW14266   2.928   2.522   3.316
 4508SOL    HW114267   2.898   2.442   3.359
 4508SOL    HW214268   3.022   2.509   3.304
 4509SOL     OW14269   3.080   3.436   2.658
 4509SOL    HW114270   3.095   3.500   2.588
 4509SOL    HW214271   3.151   3.451   2.720
 4510SOL     OW14272   2.333   3.019   2.586
 4510SOL    HW114273   2.266   3.001   2.652
 4510SOL    HW214274   2.290   3.003   2.502
 4511SOL     OW14275   3.126   3.654   2.475
 4511SOL    HW114276   3.174   3.715   2.420
 4511SOL    HW214277   3.058   3.707   2.515
 4512SOL     OW14278   2.883   2.397   1.885
 4512SOL    HW114279   2.836   2.477   1.866
 4512SOL    HW214280   2.947   2.422   1.952
 4513SOL     OW14281   1.965   2.406   3.253
 4513SOL    HW114282   2.027   2.349   3.298
 4513SOL    HW214283   1.954   2.480   3.312
 4514SOL     OW14284   2.760   2.313   2.499
 4514SOL    HW114285   2.730   2.373   2.432
 4514SOL    HW214286   2.779   2.231   2.452
 4515SOL     OW14287   2.875   1.916   2.611
 4515SOL    HW114288   2.819   1.907   2.533
 4515SOL    HW214289   2.852   1.841   2.665
 4516SOL     OW14290   3.301   3.022   2.719
 4516SOL    HW114291   3.230   2.958   2.720
 4516SOL    HW214292   3.325   3.030   2.626
 4517SOL     OW14293   3.328   2.472   2.829
 4517SOL    HW114294   3.271   2.395   2.833
 4517SOL    HW214295   3.385   2.464   2.906
 4518SOL     OW14296   3.703   2.672   2.247
 4518SOL    HW114297   3.761   2.623   2.305
 4518SOL    HW214298   3.678   2.609   2.180
 4519SOL     OW14299   2.351   3.283   2.015
 4519SOL    HW114300   2.275   3.255   2.066
 4519SOL    HW214301   2.345   3.234   1.933
 4520SOL     OW14302   3.540   3.126   2.503
 4520SOL    HW114303   3.635   3.125   2.519
 4520SOL    HW214304   3.513   3.215   2.525
 4521SOL     OW14305   3.256   2.435   1.933
 4521SOL    HW114306   3.194   2.413   2.003
 4521SOL    HW214307   3.340   2.403   1.965
 4522SOL     OW14308   3.610   3.105   3.424
 4522SOL    HW114309   3.697   3.065   3.418
 4522SOL    HW214310   3.626   3.194   3.454
 4523SOL     OW14311   2.917   3.216   3.194
 4523SOL    HW114312   2.841   3.185   3.244
 4523SOL    HW214313   2.992   3.174   3.235
 4524SOL     OW14314   3.471   3.490   3.521
 4524SOL    HW114315   3.463   3.524   3.431
 4524SOL    HW214316   3.553   3.440   3.519
 4525SOL     OW14317   2.998   3.074   2.964
 4525SOL    HW114318   2.937   3.111   3.028
 4525SOL    HW214319   2.968   3.108   2.880
 4526SOL     OW14320   3.483   2.957   2.938
 4526SOL    HW114321   3.477   3.020   3.010
 4526SOL    HW214322   3.408   2.976   2.883
 4527SOL     OW14323   2.798   1.945   3.253
 4527SOL    HW114324   2.819   1.930   3.161
 4527SOL    HW214325   2.876   1.988   3.289
 4528SOL     OW14326   2.846   2.973   3.581
 4528SOL    HW114327   2.755   2.990   3.605
 4528SOL    HW214328   2.843   2.895   3.527
 4529SOL     OW14329   2.571   2.930   2.227
 4529SOL    HW114330   2.563   2.922   2.322
 4529SOL    HW214331   2.651   2.881   2.205
 4530SOL     OW14332   2.272   2.708   3.119
 4530SOL    HW114333   2.348   2.720   3.176
 4530SOL    HW214334   2.218   2.643   3.164
 4531SOL     OW14335   3.131   2.241   3.144
 4531SOL    HW114336   3.159   2.320   3.189
 4531SOL    HW214337   3.041   2.258   3.119
 4532SOL     OW14338   1.937   3.437   3.220
 4532SOL    HW114339   1.908   3.508   3.162
 4532SOL    HW214340   2.032   3.436   3.211
 4533SOL     OW14341   2.204   2.975   2.345
 4533SOL    HW114342   2.205   3.053   2.289
 4533SOL    HW214343   2.198   2.902   2.284
 4534SOL     OW14344   3.109   3.212   2.252
 4534SOL    HW114345   3.165   3.283   2.284
 4534SOL    HW214346   3.022   3.233   2.286
 4535SOL     OW14347   3.152   3.323   3.010
 4535SOL    HW114348   3.207   3.328   3.088
 4535SOL    HW214349   3.098   3.245   3.024
 4536SOL     OW14350   3.439   2.481   2.346
 4536SOL    HW114351   3.390   2.528   2.414
 4536SOL    HW214352   3.483   2.550   2.296
 4537SOL     OW14353   2.207   3.393   3.171
 4537SOL    HW114354   2.196   3.347   3.088
 4537SOL    HW214355   2.302   3.404   3.180
 4538SOL     OW14356   2.261   2.634   3.436
 4538SOL    HW114357   2.331   2.687   3.396
 4538SOL    HW214358   2.287   2.543   3.418
 4539SOL     OW14359   3.471   2.643   3.549
 4539SOL    HW114360   3.385   2.685   3.543
 4539SOL    HW214361   3.523   2.685   3.480
 4540SOL     OW14362   2.868   1.987   3.619
 4540SOL    HW114363   2.923   2.061   3.594
 4540SOL    HW214364   2.919   1.910   3.593
 4541SOL     OW14365   2.353   1.884   3.627
 4541SOL    HW114366   2.314   1.838   3.553
 4541SOL    HW214367   2.283   1.940   3.661
 4542SOL     OW14368   2.439   2.753   2.895
 4542SOL    HW114369   2.487   2.836   2.892
 4542SOL    HW214370   2.386   2.758   2.974
 4543SOL     OW14371   3.207   2.720   2.882
 4543SOL    HW114372   3.121   2.703   2.844
 4543SOL    HW214373   3.255   2.637   2.873
 4544SOL     OW14374   3.063   2.388   2.124
 4544SOL    HW114375   3.069   2.310   2.178
 4544SOL    HW214376   3.026   2.455   2.181
 4545SOL     OW14377   1.912   3.176   3.137
 4545SOL    HW114378   1.941   3.120   3.209
 4545SOL    HW214379   1.914   3.265   3.172
 4546SOL     OW14380   2.648   2.547   2.955
 4546SOL    HW114381   2.671   2.484   2.887
 4546SOL    HW214382   2.580   2.601   2.915
 4547SOL     OW14383   3.601   2.822   3.721
 4547SOL    HW114384   3.559   2.754   3.669
 4547SOL    HW214385   3.540   2.839   3.792
 4548SOL     OW14386   3.485   2.242   2.221
 4548SOL    HW114387   3.513   2.176   2.285
 4548SOL    HW214388   3.461   2.317   2.274
 4549SOL     OW14389   2.907   2.622   2.817
 4549SOL    HW114390   2.900   2.646   2.909
 4549SOL    HW214391   2.869   2.534   2.812
 4550SOL     OW14392   2.843   3.428   3.584
 4550SOL    HW114393   2.827   3.472   3.500
 4550SOL    HW214394   2.887   3.346   3.560
 4551SOL     OW14395   3.713   3.363   3.466
 4551SOL    HW114396   3.734   3.391   3.377
 4551SOL    HW214397   3.794   3.377   3.516
 4552SOL     OW14398   2.217   2.782   3.669
 4552SOL    HW114399   2.300   2.795   3.716
 4552SOL    HW214400   2.241   2.728   3.594
 4553SOL     OW14401   3.387   2.134   1.988
 4553SOL    HW114402   3.324   2.068   2.016
 4553SOL    HW214403   3.422   2.170   2.069
 4554SOL     OW14404   3.150   2.686   1.889
 4554SOL    HW114405   3.193   2.600   1.895
 4554SOL    HW214406   3.183   2.724   1.808
 4555SOL     OW14407   2.931   3.202   2.719
 4555SOL    HW114408   2.937   3.130   2.657
 4555SOL    HW214409   2.989   3.269   2.684
 4556SOL     OW14410   2.174   2.689   2.802
 4556SOL    HW114411   2.268   2.707   2.806
 4556SOL    HW214412   2.165   2.602   2.842
 4557SOL     OW14413   2.993   2.244   3.538
 4557SOL    HW114414   2.945   2.291   3.606
 4557SOL    HW214415   3.081   2.281   3.540
 4558SOL     OW14416   3.030   2.063   3.333
 4558SOL    HW114417   3.014   2.125   3.404
 4558SOL    HW214418   3.074   2.114   3.265
 4559SOL     OW14419   1.870   3.177   2.054
 4559SOL    HW114420   1.783   3.195   2.019
 4559SOL    HW214421   1.864   3.089   2.090
 4560SOL     OW14422   1.952   3.643   2.804
 4560SOL    HW114423   1.922   3.565   2.757
 4560SOL    HW214424   2.041   3.657   2.772
 4561SOL     OW14425   2.353   3.437   2.767
 4561SOL    HW114426   2.422   3.499   2.791
 4561SOL    HW214427   2.397   3.374   2.708
 4562SOL     OW14428   2.851   2.666   3.086
 4562SOL    HW114429   2.881   2.616   3.162
 4562SOL    HW214430   2.773   2.619   3.057
 4563SOL     OW14431   1.907   2.417   2.985
 4563SOL    HW114432   1.931   2.329   2.953
 4563SOL    HW214433   1.936   2.418   3.076
 4564SOL     OW14434   3.243   2.795   3.518
 4564SOL    HW114435   3.264   2.888   3.516
 4564SOL    HW214436   3.241   2.768   3.426
 4565SOL     OW14437   2.701   2.431   2.244
 4565SOL    HW114438   2.698   2.360   2.180
 4565SOL    HW214439   2.642   2.497   2.208
 4566SOL     OW14440   3.502   2.462   3.042
 4566SOL    HW114441   3.493   2.404   3.117
 4566SOL    HW214442   3.590   2.445   3.008
 4567SOL     OW14443   2.100   3.410   3.585
 4567SOL    HW114444   2.079   3.475   3.651
 4567SOL    HW214445   2.107   3.327   3.633
 4568SOL     OW14446   2.783   3.540   3.334
 4568SOL    HW114447   2.759   3.501   3.250
 4568SOL    HW214448   2.778   3.635   3.318
 4569SOL     OW14449   2.001   3.009   3.342
 4569SOL    HW114450   2.003   2.959   3.424
 4569SOL    HW214451   2.011   2.942   3.274
 4570SOL     OW14452   3.183   2.906   3.080
 4570SOL    HW114453   3.202   2.841   3.012
 4570SOL    HW214454   3.116   2.962   3.041
 4571SOL     OW14455   3.177   2.719   2.165
 4571SOL    HW114456   3.104   2.686   2.217
 4571SOL    HW214457   3.150   2.704   2.075
 4572SOL     OW14458   3.644   3.597   3.021
 4572SOL    HW114459   3.703   3.624   2.950
 4572SOL    HW214460   3.615   3.510   2.996
 4573SOL     OW14461   3.101   3.594   2.967
 4573SOL    HW114462   3.184   3.619   2.926
 4573SOL    HW214463   3.112   3.501   2.988
 4574SOL     OW14464   1.948   3.127   2.874
 4574SOL    HW114465   1.933   3.143   2.967
 4574SOL    HW214466   1.873   3.074   2.846
 4575SOL     OW14467   2.541   3.533   3.601
 4575SOL    HW114468   2.482   3.609   3.592
 4575SOL    HW214469   2.611   3.550   3.537
 4576SOL     OW14470   3.585   2.018   2.367
 4576SOL    HW114471   3.655   2.002   2.304
 4576SOL    HW214472   3.568   1.933   2.407
 4577SOL     OW14473   3.255   3.430   2.353
 4577SOL    HW114474   3.313   3.464   2.285
 4577SOL    HW214475   3.204   3.506   2.382
 4578SOL     OW14476   2.004   3.656   3.704
 4578SOL    HW114477   1.953   3.590   3.751
 4578SOL    HW214478   2.048   3.705   3.773
 4579SOL     OW14479   3.142   2.791   2.532
 4579SOL    HW114480   3.216   2.731   2.542
 4579SOL    HW214481   3.176   2.862   2.478
 4580SOL     OW14482   2.667   3.139   3.285
 4580SOL    HW114483   2.640   3.180   3.367
 4580SOL    HW214484   2.597   3.160   3.224
 4581SOL     OW14485   2.530   3.488   2.018
 4581SOL    HW114486   2.543   3.502   1.924
 4581SOL    HW214487   2.475   3.410   2.023
 4582SOL     OW14488   3.481   3.589   3.254
 4582SOL    HW114489   3.535   3.594   3.175
 4582SOL    HW214490   3.467   3.681   3.279
 4583SOL     OW14491   3.706   2.032   2.828
 4583SOL    HW114492   3.736   1.944   2.804
 4583SOL    HW214493   3.619   2.040   2.788
 4584SOL     OW14494   3.070   3.463   1.896
 4584SOL    HW114495   3.059   3.372   1.922
 4584SOL    HW214496   3.005   3.477   1.827
 4585SOL     OW14497   2.690   2.870   3.235
 4585SOL    HW114498   2.741   2.858   3.156
 4585SOL    HW214499   2.688   2.964   3.249
 4586SOL     OW14500   2.796   2.797   2.165
 4586SOL    HW114501   2.852   2.820   2.091
 4586SOL    HW214502   2.840   2.722   2.205
 4587SOL     OW14503   3.351   3.491   1.907
 4587SOL    HW114504   3.257   3.481   1.892
 4587SOL    HW214505   3.389   3.497   1.820
 4588SOL     OW14506   2.230   3.166   3.353
 4588SOL    HW114507   2.217   3.243   3.298
 4588SOL    HW214508   2.151   3.113   3.342
 4589SOL     OW14509   3.469   3.146   3.142
 4589SOL    HW114510   3.528   3.129   3.215
 4589SOL    HW214511   3.409   3.214   3.174
 4590SOL     OW14512   2.927   2.973   2.573
 4590SOL    HW114513   2.855   2.923   2.611
 4590SOL    HW214514   2.990   2.907   2.545
 4591SOL     OW14515   2.884   2.103   2.828
 4591SOL    HW114516   2.882   2.057   2.744
 4591SOL    HW214517   2.883   2.034   2.893
 4592SOL     OW14518   2.468   3.350   2.342
 4592SOL    HW114519   2.518   3.301   2.276
 4592SOL    HW214520   2.393   3.385   2.293
 4593SOL     OW14521   3.588   2.254   3.242
 4593SOL    HW114522   3.661   2.317   3.242
 4593SOL    HW214523   3.618   2.183   3.185
 4594SOL     OW14524   2.125   3.202   2.157
 4594SOL    HW114525   2.033   3.199   2.130
 4594SOL    HW214526   2.124   3.243   2.243
 4595SOL     OW14527   1.976   2.895   3.590
 4595SOL    HW114528   1.899   2.867   3.640
 4595SOL    HW214529   2.049   2.851   3.634
 4596SOL     OW14530   2.557   2.029   3.355
 4596SOL    HW114531   2.644   2.006   3.321
 4596SOL    HW214532   2.574   2.065   3.442
 4597SOL     OW14533   3.288   2.722   3.259
 4597SOL    HW114534   3.239   2.783   3.203
 4597SOL    HW214535   3.377   2.723   3.223
 4598SOL     OW14536   1.850   1.997   2.199
 4598SOL    HW114537   1.820   2.076   2.153
 4598SOL    HW214538   1.940   2.017   2.225
 4599SOL     OW14539   3.040   3.196   1.980
 4599SOL    HW114540   2.950   3.164   1.982
 4599SOL    HW214541   3.067   3.198   2.072
 4600SOL     OW14542   2.483   2.705   3.291
 4600SOL    HW114543   2.547   2.774   3.273
 4600SOL    HW214544   2.536   2.629   3.314
 4601SOL     OW14545   3.344   3.647   2.844
 4601SOL    HW114546   3.366   3.714   2.780
 4601SOL    HW214547   3.429   3.618   2.879
 4602SOL     OW14548   3.335   3.056   3.491
 4602SOL    HW114549   3.324   3.071   3.584
 4602SOL    HW214550   3.428   3.075   3.474
 4603SOL     OW14551   2.232   3.603   3.428
 4603SOL    HW114552   2.150   3.648   3.413
 4603SOL    HW214553   2.207   3.520   3.469
 4604SOL     OW14554   3.526   2.741   3.117
 4604SOL    HW114555   3.523   2.656   3.074
 4604SOL    HW214556   3.516   2.804   3.046
 4605SOL     OW14557   3.077   2.180   2.319
 4605SOL    HW114558   3.140   2.108   2.313
 4605SOL    HW214559   3.106   2.230   2.395
 4606SOL     OW14560   2.484   2.643   2.553
 4606SOL    HW114561   2.520   2.728   2.527
 4606SOL    HW214562   2.390   2.652   2.538
 4607SOL     OW14563   3.617   2.225   3.515
 4607SOL    HW114564   3.603   2.242   3.422
 4607SOL    HW214565   3.544   2.169   3.541
 4608SOL     OW14566   3.611   2.795   3.373
 4608SOL    HW114567   3.599   2.890   3.384
 4608SOL    HW214568   3.593   2.780   3.280
 4609SOL     OW14569   2.725   3.228   1.904
 4609SOL    HW114570   2.689   3.255   1.989
 4609SOL    HW214571   2.742   3.310   1.858
 4610SOL     OW14572   2.525   3.645   2.799
 4610SOL    HW114573   2.507   3.737   2.781
 4610SOL    HW214574   2.621   3.638   2.795
 4611SOL     OW14575   2.734   2.837   2.716
 4611SOL    HW114576   2.780   2.760   2.749
 4611SOL    HW214577   2.694   2.876   2.793
 4612SOL     OW14578   2.941   2.850   1.945
 4612SOL    HW114579   2.922   2.902   1.867
 4612SOL    HW214580   3.015   2.796   1.920
 4613SOL     OW14581   3.711   3.416   2.704
 4613SOL    HW114582   3.631   3.404   2.652
 4613SOL    HW214583   3.706   3.349   2.772
 4614SOL     OW14584   2.088   3.160   3.714
 4614SOL    HW114585   2.028   3.093   3.681
 4614SOL    HW214586   2.062   3.172   3.805
 4615SOL     OW14587   1.950   3.093   2.529
 4615SOL    HW114588   1.961   3.048   2.613
 4615SOL    HW214589   2.015   3.052   2.472
 4616SOL     OW14590   2.546   3.271   3.492
 4616SOL    HW114591   2.467   3.228   3.526
 4616SOL    HW214592   2.544   3.359   3.530
 4617SOL     OW14593   3.673   2.044   3.098
 4617SOL    HW114594   3.679   1.949   3.112
 4617SOL    HW214595   3.685   2.055   3.004
 4618SOL     OW14596   3.558   3.349   2.955
 4618SOL    HW114597   3.479   3.329   2.903
 4618SOL    HW214598   3.563   3.278   3.019
 4619SOL     OW14599   2.694   3.441   2.537
 4619SOL    HW114600   2.672   3.505   2.469
 4619SOL    HW214601   2.619   3.381   2.539
 4620SOL     OW14602   3.291   2.091   2.978
 4620SOL    HW114603   3.310   2.007   3.020
 4620SOL    HW214604   3.244   2.141   3.044
 4621SOL     OW14605   2.874   1.878   2.994
 4621SOL    HW114606   2.818   1.809   2.957
 4621SOL    HW214607   2.962   1.839   2.996
 4622SOL     OW14608   2.638   3.199   2.181
 4622SOL    HW114609   2.611   3.108   2.188
 4622SOL    HW214610   2.719   3.204   2.232
 4623SOL     OW14611   2.482   3.417   3.149
 4623SOL    HW114612   2.482   3.500   3.198
 4623SOL    HW214613   2.570   3.411   3.112
 4624SOL     OW14614   3.219   1.913   2.034
 4624SOL    HW114615   3.252   1.843   1.978
 4624SOL    HW214616   3.130   1.886   2.055
 4625SOL     OW14617   3.158   2.325   2.539
 4625SOL    HW114618   3.106   2.405   2.543
 4625SOL    HW214619   3.153   2.289   2.628
 4626SOL     OW14620   3.447   2.057   2.745
 4626SOL    HW114621   3.392   2.081   2.819
 4626SOL    HW214622   3.447   2.134   2.688
 4627SOL     OW14623   1.903   2.927   2.172
 4627SOL    HW114624   1.997   2.919   2.153
 4627SOL    HW214625   1.875   2.837   2.191
 4628SOL     OW14626   2.751   3.523   2.200
 4628SOL    HW114627   2.676   3.507   2.143
 4628SOL    HW214628   2.723   3.596   2.256
 4629SOL     OW14629   2.047   2.540   3.859
 4629SOL    HW114630   1.965   2.510   3.898
 4629SOL    HW214631   2.045   2.506   3.770
 4630SOL     OW14632   1.845   2.273   4.365
 4630SOL    HW114633   1.752   2.291   4.377
 4630SOL    HW214634   1.859   2.189   4.409
 4631SOL     OW14635   2.414   3.206   4.900
 4631SOL    HW114636   2.339   3.228   4.845
 4631SOL    HW214637   2.446   3.290   4.932
 4632SOL     OW14638   3.432   3.376   4.433
 4632SOL    HW114639   3.389   3.353   4.515
 4632SOL    HW214640   3.362   3.380   4.369
 4633SOL     OW14641   3.000   2.556   4.430
 4633SOL    HW114642   3.044   2.641   4.421
 4633SOL    HW214643   2.952   2.562   4.512
 4634SOL     OW14644   3.638   2.460   3.950
 4634SOL    HW114645   3.613   2.455   3.858
 4634SOL    HW214646   3.598   2.383   3.991
 4635SOL     OW14647   2.713   2.677   5.515
 4635SOL    HW114648   2.759   2.690   5.598
 4635SOL    HW214649   2.769   2.721   5.450
 4636SOL     OW14650   2.590   2.944   4.381
 4636SOL    HW114651   2.578   2.856   4.416
 4636SOL    HW214652   2.508   2.989   4.400
 4637SOL     OW14653   2.589   3.013   5.530
 4637SOL    HW114654   2.633   3.092   5.562
 4637SOL    HW214655   2.501   3.042   5.507
 4638SOL     OW14656   2.181   3.306   4.786
 4638SOL    HW114657   2.102   3.275   4.741
 4638SOL    HW214658   2.231   3.353   4.719
 4639SOL     OW14659   3.321   3.365   5.086
 4639SOL    HW114660   3.375   3.443   5.096
 4639SOL    HW214661   3.253   3.374   5.153
 4640SOL     OW14662   3.470   2.306   4.463
 4640SOL    HW114663   3.396   2.324   4.405
 4640SOL    HW214664   3.473   2.383   4.521
 4641SOL     OW14665   2.081   3.579   4.192
 4641SOL    HW114666   2.102   3.653   4.248
 4641SOL    HW214667   2.156   3.571   4.133
 4642SOL     OW14668   2.993   3.197   5.418
 4642SOL    HW114669   3.030   3.189   5.505
 4642SOL    HW214670   2.946   3.115   5.404
 4643SOL     OW14671   2.100   3.307   4.260
 4643SOL    HW114672   2.077   3.400   4.262
 4643SOL    HW214673   2.041   3.266   4.323
 4644SOL     OW14674   2.464   3.666   5.158
 4644SOL    HW114675   2.384   3.646   5.205
 4644SOL    HW214676   2.487   3.754   5.186
 4645SOL     OW14677   2.442   2.849   3.859
 4645SOL    HW114678   2.491   2.894   3.790
 4645SOL    HW214679   2.476   2.886   3.941
 4646SOL     OW14680   3.450   1.997   5.185
 4646SOL    HW114681   3.490   2.074   5.146
 4646SOL    HW214682   3.434   2.023   5.276
 4647SOL     OW14683   1.986   2.510   4.287
 4647SOL    HW114684   1.943   2.427   4.305
 4647SOL    HW214685   1.973   2.561   4.367
 4648SOL     OW14686   3.705   3.616   4.053
 4648SOL    HW114687   3.774   3.590   4.116
 4648SOL    HW214688   3.723   3.708   4.034
 4649SOL     OW14689   1.900   3.451   3.844
 4649SOL    HW114690   1.881   3.360   3.865
 4649SOL    HW214691   1.875   3.500   3.923
 4650SOL     OW14692   3.551   2.780   4.371
 4650SOL    HW114693   3.634   2.736   4.350
 4650SOL    HW214694   3.530   2.830   4.292
 4651SOL     OW14695   3.511   2.964   4.154
 4651SOL    HW114696   3.598   2.965   4.113
 4651SOL    HW214697   3.518   3.028   4.226
 4652SOL     OW14698   2.478   3.258   4.460
 4652SOL    HW114699   2.430   3.175   4.468
 4652SOL    HW214700   2.464   3.284   4.369
 4653SOL     OW14701   3.149   3.097   5.146
 4653SOL    HW114702   3.178   3.029   5.086
 4653SOL    HW214703   3.209   3.091   5.220
 4654SOL     OW14704   2.672   1.870   4.227
 4654SOL    HW114705   2.715   1.954   4.211
 4654SOL    HW214706   2.579   1.891   4.233
 4655SOL     OW14707   3.392   2.861   3.925
 4655SOL    HW114708   3.323   2.804   3.958
 4655SOL    HW214709   3.435   2.894   4.004
 4656SOL     OW14710   3.045   3.675   5.350
 4656SOL    HW114711   3.050   3.736   5.276
 4656SOL    HW214712   3.063   3.589   5.312
 4657SOL     OW14713   3.330   3.281   4.672
 4657SOL    HW114714   3.262   3.297   4.738
 4657SOL    HW214715   3.317   3.190   4.646
 4658SOL     OW14716   3.516   3.615   4.301
 4658SOL    HW114717   3.497   3.582   4.213
 4658SOL    HW214718   3.496   3.541   4.359
 4659SOL     OW14719   2.494   2.632   4.051
 4659SOL    HW114720   2.488   2.689   3.975
 4659SOL    HW214721   2.404   2.628   4.085
 4660SOL     OW14722   3.179   2.217   4.655
 4660SOL    HW114723   3.087   2.193   4.645
 4660SOL    HW214724   3.209   2.165   4.730
 4661SOL     OW14725   3.440   3.536   4.035
 4661SOL    HW114726   3.532   3.561   4.026
 4661SOL    HW214727   3.412   3.519   3.945
 4662SOL     OW14728   3.249   2.338   5.393
 4662SOL    HW114729   3.250   2.380   5.479
 4662SOL    HW214730   3.309   2.264   5.403
 4663SOL     OW14731   2.949   2.579   4.155
 4663SOL    HW114732   2.965   2.565   4.249
 4663SOL    HW214733   2.867   2.534   4.137
 4664SOL     OW14734   1.953   2.684   4.500
 4664SOL    HW114735   2.034   2.670   4.550
 4664SOL    HW214736   1.911   2.758   4.542
 4665SOL     OW14737   1.986   3.733   5.308
 4665SOL    HW114738   1.990   3.709   5.401
 4665SOL    HW214739   1.902   3.700   5.278
 4666SOL     OW14740   2.760   2.222   3.925
 4666SOL    HW114741   2.804   2.273   3.857
 4666SOL    HW214742   2.734   2.141   3.881
 4667SOL     OW14743   3.550   2.430   5.557
 4667SOL    HW114744   3.525   2.507   5.505
 4667SOL    HW214745   3.586   2.369   5.493
 4668SOL     OW14746   3.240   3.002   4.262
 4668SOL    HW114747   3.320   2.990   4.211
 4668SOL    HW214748   3.189   3.065   4.213
 4669SOL     OW14749   2.436   2.003   4.571
 4669SOL    HW114750   2.443   2.005   4.666
 4669SOL    HW214751   2.460   2.091   4.542
 4670SOL     OW14752   2.860   3.306   4.193
 4670SOL    HW114753   2.831   3.382   4.143
 4670SOL    HW214754   2.837   3.327   4.284
 4671SOL     OW14755   2.217   3.677   4.594
 4671SOL    HW114756   2.263   3.593   4.599
 4671SOL    HW214757   2.285   3.742   4.612
 4672SOL     OW14758   3.662   2.917   4.597
 4672SOL    HW114759   3.610   2.895   4.520
 4672SOL    HW214760   3.598   2.922   4.668
 4673SOL     OW14761   3.087   3.400   5.239
 4673SOL    HW114762   3.076   3.327   5.299
 4673SOL    HW214763   3.021   3.386   5.172
 4674SOL     OW14764   2.164   2.826   3.971
 4674SOL    HW114765   2.246   2.841   3.923
 4674SOL    HW214766   2.135   2.740   3.941
 4675SOL     OW14767   3.342   2.614   4.449
 4675SOL    HW114768   3.342   2.571   4.534
 4675SOL    HW214769   3.422   2.667   4.449
 4676SOL     OW14770   2.331   3.122   5.467
 4676SOL    HW114771   2.308   3.124   5.374
 4676SOL    HW214772   2.247   3.131   5.512
 4677SOL     OW14773   2.987   3.641   3.952
 4677SOL    HW114774   2.911   3.602   3.996
 4677SOL    HW214775   3.011   3.577   3.885
 4678SOL     OW14776   3.491   3.244   3.815
 4678SOL    HW114777   3.449   3.329   3.800
 4678SOL    HW214778   3.423   3.180   3.794
 4679SOL     OW14779   2.325   3.599   4.043
 4679SOL    HW114780   2.370   3.654   4.106
 4679SOL    HW214781   2.395   3.563   3.987
 4680SOL     OW14782   3.264   1.975   4.160
 4680SOL    HW114783   3.254   1.945   4.070
 4680SOL    HW214784   3.358   1.973   4.176
 4681SOL     OW14785   2.124   3.654   4.948
 4681SOL    HW114786   2.179   3.586   4.986
 4681SOL    HW214787   2.113   3.628   4.857
 4682SOL     OW14788   2.798   3.565   4.620
 4682SOL    HW114789   2.870   3.511   4.653
 4682SOL    HW214790   2.758   3.513   4.551
 4683SOL     OW14791   2.237   2.589   4.171
 4683SOL    HW114792   2.262   2.503   4.136
 4683SOL    HW214793   2.148   2.577   4.202
 4684SOL     OW14794   3.390   2.087   5.449
 4684SOL    HW114795   3.401   2.111   5.542
 4684SOL    HW214796   3.319   2.023   5.449
 4685SOL     OW14797   2.524   1.984   3.824
 4685SOL    HW114798   2.566   1.906   3.861
 4685SOL    HW214799   2.467   1.950   3.755
 4686SOL     OW14800   2.626   2.068   5.487
 4686SOL    HW114801   2.709   2.021   5.479
 4686SOL    HW214802   2.637   2.124   5.564
 4687SOL     OW14803   2.738   3.393   4.925
 4687SOL    HW114804   2.716   3.358   4.839
 4687SOL    HW214805   2.805   3.333   4.959
 4688SOL     OW14806   3.263   2.441   5.126
 4688SOL    HW114807   3.243   2.406   5.213
 4688SOL    HW214808   3.255   2.536   5.136
 4689SOL     OW14809   2.683   3.276   4.679
 4689SOL    HW114810   2.765   3.245   4.640
 4689SOL    HW214811   2.616   3.254   4.616
 4690SOL     OW14812   2.400   1.931   4.229
 4690SOL    HW114813   2.364   1.915   4.316
 4690SOL    HW214814   2.349   2.003   4.194
 4691SOL     OW14815   3.290   3.062   3.763
 4691SOL    HW114816   3.320   2.987   3.814
 4691SOL    HW214817   3.205   3.085   3.800
 4692SOL     OW14818   2.799   2.119   4.181
 4692SOL    HW114819   2.782   2.155   4.094
 4692SOL    HW214820   2.894   2.122   4.191
 4693SOL     OW14821   3.084   3.430   4.516
 4693SOL    HW114822   3.095   3.497   4.449
 4693SOL    HW214823   3.150   3.450   4.582
 4694SOL     OW14824   2.332   3.024   4.445
 4694SOL    HW114825   2.285   2.986   4.519
 4694SOL    HW214826   2.279   3.002   4.368
 4695SOL     OW14827   3.126   3.653   4.337
 4695SOL    HW114828   3.174   3.715   4.282
 4695SOL    HW214829   3.057   3.705   4.377
 4696SOL     OW14830   2.887   2.397   3.746
 4696SOL    HW114831   2.837   2.476   3.728
 4696SOL    HW214832   2.948   2.422   3.815
 4697SOL     OW14833   2.418   2.016   4.841
 4697SOL    HW114834   2.445   1.963   4.916
 4697SOL    HW214835   2.331   2.049   4.865
 4698SOL     OW14836   2.759   2.322   4.382
 4698SOL    HW114837   2.735   2.385   4.314
 4698SOL    HW214838   2.771   2.239   4.334
 4699SOL     OW14839   2.893   1.853   4.412
 4699SOL    HW114840   2.813   1.852   4.359
 4699SOL    HW214841   2.876   1.790   4.482
 4700SOL     OW14842   3.303   3.023   4.580
 4700SOL    HW114843   3.227   2.965   4.576
 4700SOL    HW214844   3.332   3.031   4.489
 4701SOL     OW14845   3.325   2.470   4.689
 4701SOL    HW114846   3.279   2.386   4.688
 4701SOL    HW214847   3.383   2.465   4.765
 4702SOL     OW14848   3.703   2.672   4.109
 4702SOL    HW114849   3.761   2.623   4.167
 4702SOL    HW214850   3.678   2.609   4.042
 4703SOL     OW14851   2.352   3.283   3.876
 4703SOL    HW114852   2.275   3.255   3.927
 4703SOL    HW214853   2.346   3.233   3.794
 4704SOL     OW14854   3.538   3.125   4.366
 4704SOL    HW114855   3.633   3.124   4.382
 4704SOL    HW214856   3.512   3.215   4.388
 4705SOL     OW14857   3.256   2.435   3.794
 4705SOL    HW114858   3.193   2.413   3.863
 4705SOL    HW214859   3.340   2.401   3.826
 4706SOL     OW14860   3.610   3.105   5.286
 4706SOL    HW114861   3.697   3.065   5.281
 4706SOL    HW214862   3.626   3.194   5.315
 4707SOL     OW14863   2.923   3.216   5.050
 4707SOL    HW114864   2.845   3.188   5.098
 4707SOL    HW214865   2.996   3.173   5.095
 4708SOL     OW14866   3.472   3.490   5.383
 4708SOL    HW114867   3.463   3.524   5.294
 4708SOL    HW214868   3.553   3.440   5.382
 4709SOL     OW14869   2.986   3.061   4.826
 4709SOL    HW114870   2.935   3.108   4.892
 4709SOL    HW214871   2.961   3.102   4.743
 4710SOL     OW14872   3.483   2.957   4.800
 4710SOL    HW114873   3.477   3.020   4.872
 4710SOL    HW214874   3.408   2.977   4.744
 4711SOL     OW14875   2.838   2.952   5.420
 4711SOL    HW114876   2.750   2.972   5.453
 4711SOL    HW214877   2.822   2.909   5.337
 4712SOL     OW14878   2.576   2.937   4.091
 4712SOL    HW114879   2.579   2.943   4.187
 4712SOL    HW214880   2.648   2.879   4.069
 4713SOL     OW14881   1.938   3.468   5.088
 4713SOL    HW114882   1.911   3.536   5.027
 4713SOL    HW214883   2.033   3.464   5.080
 4714SOL     OW14884   2.190   2.971   4.216
 4714SOL    HW114885   2.196   3.046   4.157
 4714SOL    HW214886   2.188   2.895   4.158
 4715SOL     OW14887   3.108   3.213   4.115
 4715SOL    HW114888   3.165   3.283   4.147
 4715SOL    HW214889   3.021   3.234   4.149
 4716SOL     OW14890   3.151   3.324   4.875
 4716SOL    HW114891   3.210   3.330   4.950
 4716SOL    HW214892   3.086   3.259   4.900
 4717SOL     OW14893   3.439   2.482   4.208
 4717SOL    HW114894   3.388   2.530   4.273
 4717SOL    HW214895   3.483   2.550   4.157
 4718SOL     OW14896   2.208   3.394   5.040
 4718SOL    HW114897   2.195   3.355   4.954
 4718SOL    HW214898   2.303   3.408   5.047
 4719SOL     OW14899   3.473   2.646   5.413
 4719SOL    HW114900   3.386   2.685   5.404
 4719SOL    HW214901   3.524   2.686   5.342
 4720SOL     OW14902   2.890   1.974   5.519
 4720SOL    HW114903   2.935   2.058   5.520
 4720SOL    HW214904   2.955   1.912   5.488
 4721SOL     OW14905   3.209   2.718   4.749
 4721SOL    HW114906   3.139   2.711   4.684
 4721SOL    HW214907   3.257   2.635   4.742
 4722SOL     OW14908   3.065   2.389   3.985
 4722SOL    HW114909   3.068   2.310   4.038
 4722SOL    HW214910   3.035   2.457   4.045
 4723SOL     OW14911   1.863   3.217   5.020
 4723SOL    HW114912   1.866   3.177   5.107
 4723SOL    HW214913   1.886   3.309   5.035
 4724SOL     OW14914   3.604   2.823   5.583
 4724SOL    HW114915   3.560   2.757   5.530
 4724SOL    HW214916   3.543   2.841   5.654
 4725SOL     OW14917   3.488   2.242   4.083
 4725SOL    HW114918   3.513   2.175   4.147
 4725SOL    HW214919   3.462   2.317   4.137
 4726SOL     OW14920   2.843   3.426   5.444
 4726SOL    HW114921   2.827   3.470   5.361
 4726SOL    HW214922   2.886   3.344   5.420
 4727SOL     OW14923   3.713   3.363   5.328
 4727SOL    HW114924   3.734   3.391   5.239
 4727SOL    HW214925   3.794   3.377   5.378
 4728SOL     OW14926   2.216   2.824   5.548
 4728SOL    HW114927   2.275   2.889   5.508
 4728SOL    HW214928   2.238   2.742   5.505
 4729SOL     OW14929   3.387   2.135   3.850
 4729SOL    HW114930   3.324   2.069   3.878
 4729SOL    HW214931   3.423   2.171   3.931
 4730SOL     OW14932   3.149   2.687   3.753
 4730SOL    HW114933   3.191   2.601   3.758
 4730SOL    HW214934   3.182   2.725   3.672
 4731SOL     OW14935   2.929   3.199   4.588
 4731SOL    HW114936   2.934   3.126   4.527
 4731SOL    HW214937   2.986   3.266   4.549
 4732SOL     OW14938   2.187   2.647   4.646
 4732SOL    HW114939   2.255   2.714   4.640
 4732SOL    HW214940   2.218   2.589   4.716
 4733SOL     OW14941   3.003   2.223   5.488
 4733SOL    HW114942   2.939   2.294   5.481
 4733SOL    HW214943   3.072   2.246   5.426
 4734SOL     OW14944   1.870   3.178   3.918
 4734SOL    HW114945   1.783   3.194   3.882
 4734SOL    HW214946   1.865   3.089   3.953
 4735SOL     OW14947   1.953   3.645   4.667
 4735SOL    HW114948   1.922   3.568   4.620
 4735SOL    HW214949   2.042   3.659   4.633
 4736SOL     OW14950   2.356   3.439   4.627
 4736SOL    HW114951   2.425   3.501   4.653
 4736SOL    HW214952   2.401   3.376   4.570
 4737SOL     OW14953   1.977   2.374   4.903
 4737SOL    HW114954   2.021   2.345   4.823
 4737SOL    HW214955   1.966   2.469   4.891
 4738SOL     OW14956   3.242   2.797   5.381
 4738SOL    HW114957   3.263   2.890   5.379
 4738SOL    HW214958   3.242   2.770   5.289
 4739SOL     OW14959   2.719   2.461   4.095
 4739SOL    HW114960   2.716   2.387   4.033
 4739SOL    HW214961   2.643   2.515   4.072
 4740SOL     OW14962   3.498   2.471   4.899
 4740SOL    HW114963   3.476   2.422   4.978
 4740SOL    HW214964   3.586   2.442   4.876
 4741SOL     OW14965   2.099   3.411   5.445
 4741SOL    HW114966   2.081   3.478   5.511
 4741SOL    HW214967   2.108   3.330   5.496
 4742SOL     OW14968   2.782   3.541   5.195
 4742SOL    HW114969   2.762   3.500   5.111
 4742SOL    HW214970   2.776   3.635   5.178
 4743SOL     OW14971   3.177   2.905   4.942
 4743SOL    HW114972   3.200   2.842   4.874
 4743SOL    HW214973   3.111   2.961   4.902
 4744SOL     OW14974   3.176   2.719   4.030
 4744SOL    HW114975   3.104   2.682   4.081
 4744SOL    HW214976   3.150   2.705   3.939
 4745SOL     OW14977   3.644   3.597   4.883
 4745SOL    HW114978   3.703   3.624   4.812
 4745SOL    HW214979   3.615   3.510   4.858
 4746SOL     OW14980   3.101   3.595   4.829
 4746SOL    HW114981   3.184   3.620   4.787
 4746SOL    HW214982   3.112   3.502   4.850
 4747SOL     OW14983   1.934   3.191   4.719
 4747SOL    HW114984   1.906   3.195   4.810
 4747SOL    HW214985   1.895   3.111   4.685
 4748SOL     OW14986   2.542   3.534   5.462
 4748SOL    HW114987   2.485   3.610   5.452
 4748SOL    HW214988   2.611   3.548   5.397
 4749SOL     OW14989   3.586   2.017   4.229
 4749SOL    HW114990   3.656   2.000   4.166
 4749SOL    HW214991   3.568   1.932   4.269
 4750SOL     OW14992   3.255   3.430   4.214
 4750SOL    HW114993   3.313   3.464   4.147
 4750SOL    HW214994   3.204   3.505   4.244
 4751SOL     OW14995   2.005   3.653   5.566
 4751SOL    HW114996   1.951   3.589   5.613
 4751SOL    HW214997   2.048   3.703   5.635
 4752SOL     OW14998   3.140   2.791   4.401
 4752SOL    HW114999   3.213   2.729   4.408
 4752SOL    HW215000   3.172   2.860   4.344
 4753SOL     OW15001   2.683   3.150   5.154
 4753SOL    HW115002   2.644   3.191   5.231
 4753SOL    HW215003   2.610   3.137   5.094
 4754SOL     OW15004   2.530   3.489   3.880
 4754SOL    HW115005   2.543   3.502   3.786
 4754SOL    HW215006   2.475   3.410   3.885
 4755SOL     OW15007   3.481   3.590   5.116
 4755SOL    HW115008   3.535   3.594   5.037
 4755SOL    HW215009   3.467   3.681   5.141
 4756SOL     OW15010   3.708   2.033   4.690
 4756SOL    HW115011   3.735   1.944   4.664
 4756SOL    HW215012   3.620   2.042   4.651
 4757SOL     OW15013   3.070   3.463   3.757
 4757SOL    HW115014   3.059   3.372   3.784
 4757SOL    HW215015   3.004   3.477   3.690
 4758SOL     OW15016   2.788   2.784   4.024
 4758SOL    HW115017   2.843   2.815   3.952
 4758SOL    HW215018   2.840   2.716   4.066
 4759SOL     OW15019   3.351   3.491   3.769
 4759SOL    HW115020   3.257   3.481   3.754
 4759SOL    HW215021   3.389   3.497   3.682
 4760SOL     OW15022   2.229   3.167   5.218
 4760SOL    HW115023   2.223   3.246   5.165
 4760SOL    HW215024   2.145   3.122   5.202
 4761SOL     OW15025   3.469   3.146   5.004
 4761SOL    HW115026   3.527   3.129   5.078
 4761SOL    HW215027   3.409   3.213   5.036
 4762SOL     OW15028   2.924   2.968   4.445
 4762SOL    HW115029   2.841   2.929   4.418
 4762SOL    HW215030   2.990   2.903   4.421
 4763SOL     OW15031   2.467   3.350   4.203
 4763SOL    HW115032   2.517   3.302   4.137
 4763SOL    HW215033   2.391   3.383   4.156
 4764SOL     OW15034   3.594   2.244   5.109
 4764SOL    HW115035   3.660   2.313   5.104
 4764SOL    HW215036   3.625   2.177   5.047
 4765SOL     OW15037   2.125   3.204   4.016
 4765SOL    HW115038   2.032   3.200   3.992
 4765SOL    HW215039   2.126   3.245   4.103
 4766SOL     OW15040   1.947   2.925   5.485
 4766SOL    HW115041   1.882   2.865   5.521
 4766SOL    HW215042   2.030   2.880   5.498
 4767SOL     OW15043   1.873   2.228   3.777
 4767SOL    HW115044   1.787   2.185   3.772
 4767SOL    HW215045   1.881   2.275   3.694
 4768SOL     OW15046   3.287   2.730   5.123
 4768SOL    HW115047   3.239   2.790   5.065
 4768SOL    HW215048   3.375   2.725   5.085
 4769SOL     OW15049   3.040   3.196   3.842
 4769SOL    HW115050   2.950   3.164   3.844
 4769SOL    HW215051   3.067   3.198   3.934
 4770SOL     OW15052   3.344   3.648   4.707
 4770SOL    HW115053   3.366   3.714   4.642
 4770SOL    HW215054   3.429   3.619   4.740
 4771SOL     OW15055   3.336   3.058   5.353
 4771SOL    HW115056   3.325   3.073   5.447
 4771SOL    HW215057   3.429   3.076   5.337
 4772SOL     OW15058   2.232   3.605   5.291
 4772SOL    HW115059   2.149   3.650   5.276
 4772SOL    HW215060   2.207   3.521   5.329
 4773SOL     OW15061   3.526   2.741   4.979
 4773SOL    HW115062   3.521   2.656   4.937
 4773SOL    HW215063   3.516   2.804   4.908
 4774SOL     OW15064   3.078   2.183   4.180
 4774SOL    HW115065   3.138   2.109   4.173
 4774SOL    HW215066   3.110   2.232   4.256
 4775SOL     OW15067   2.486   2.698   4.382
 4775SOL    HW115068   2.523   2.725   4.298
 4775SOL    HW215069   2.411   2.643   4.358
 4776SOL     OW15070   3.618   2.226   5.381
 4776SOL    HW115071   3.607   2.242   5.288
 4776SOL    HW215072   3.544   2.170   5.405
 4777SOL     OW15073   3.615   2.794   5.234
 4777SOL    HW115074   3.600   2.888   5.246
 4777SOL    HW215075   3.594   2.778   5.141
 4778SOL     OW15076   2.724   3.227   3.765
 4778SOL    HW115077   2.689   3.254   3.850
 4778SOL    HW215078   2.742   3.309   3.719
 4779SOL     OW15079   2.526   3.648   4.665
 4779SOL    HW115080   2.509   3.739   4.643
 4779SOL    HW215081   2.621   3.638   4.657
 4780SOL     OW15082   2.941   2.855   3.813
 4780SOL    HW115083   2.920   2.904   3.733
 4780SOL    HW215084   3.013   2.798   3.788
 4781SOL     OW15085   3.710   3.416   4.566
 4781SOL    HW115086   3.631   3.404   4.514
 4781SOL    HW215087   3.705   3.349   4.634
 4782SOL     OW15088   2.086   3.162   5.576
 4782SOL    HW115089   2.026   3.091   5.553
 4782SOL    HW215090   2.062   3.185   5.666
 4783SOL     OW15091   1.951   3.101   4.387
 4783SOL    HW115092   1.914   3.040   4.451
 4783SOL    HW215093   2.010   3.047   4.334
 4784SOL     OW15094   2.538   3.273   5.350
 4784SOL    HW115095   2.466   3.227   5.393
 4784SOL    HW215096   2.539   3.359   5.391
 4785SOL     OW15097   3.675   2.037   4.959
 4785SOL    HW115098   3.679   1.942   4.969
 4785SOL    HW215099   3.687   2.052   4.866
 4786SOL     OW15100   3.558   3.349   4.817
 4786SOL    HW115101   3.479   3.329   4.766
 4786SOL    HW215102   3.563   3.278   4.881
 4787SOL     OW15103   2.695   3.440   4.398
 4787SOL    HW115104   2.663   3.497   4.328
 4787SOL    HW215105   2.623   3.378   4.413
 4788SOL     OW15106   3.279   2.080   4.864
 4788SOL    HW115107   3.296   1.987   4.877
 4788SOL    HW215108   3.299   2.120   4.949
 4789SOL     OW15109   2.639   3.203   4.040
 4789SOL    HW115110   2.612   3.112   4.045
 4789SOL    HW215111   2.718   3.208   4.093
 4790SOL     OW15112   2.481   3.444   5.007
 4790SOL    HW115113   2.484   3.524   5.059
 4790SOL    HW215114   2.572   3.432   4.978
 4791SOL     OW15115   3.220   1.914   3.893
 4791SOL    HW115116   3.252   1.842   3.839
 4791SOL    HW215117   3.130   1.888   3.916
 4792SOL     OW15118   3.169   2.327   4.399
 4792SOL    HW115119   3.112   2.404   4.409
 4792SOL    HW215120   3.172   2.288   4.486
 4793SOL     OW15121   3.452   2.063   4.602
 4793SOL    HW115122   3.378   2.082   4.659
 4793SOL    HW215123   3.456   2.137   4.541
 4794SOL     OW15124   1.904   2.926   4.034
 4794SOL    HW115125   1.996   2.917   4.009
 4794SOL    HW215126   1.877   2.837   4.058
 4795SOL     OW15127   2.752   3.523   4.061
 4795SOL    HW115128   2.676   3.507   4.004
 4795SOL    HW215129   2.724   3.595   4.118
 4796SOL     OW15130   2.069   2.515   5.692
 4796SOL    HW115131   1.992   2.467   5.723
 4796SOL    HW215132   2.121   2.449   5.645
 4797SOL     OW15133   2.429   3.164   6.770
 4797SOL    HW115134   2.343   3.167   6.729
 4797SOL    HW215135   2.444   3.254   6.801
 4798SOL     OW15136   3.433   3.377   6.295
 4798SOL    HW115137   3.390   3.352   6.377
 4798SOL    HW215138   3.363   3.380   6.230
 4799SOL     OW15139   3.645   2.459   5.808
 4799SOL    HW115140   3.613   2.454   5.718
 4799SOL    HW215141   3.601   2.387   5.854
 4800SOL     OW15142   2.590   2.996   6.630
 4800SOL    HW115143   2.532   3.047   6.687
 4800SOL    HW215144   2.643   3.062   6.585
 4801SOL     OW15145   2.749   2.629   7.413
 4801SOL    HW115146   2.734   2.701   7.475
 4801SOL    HW215147   2.765   2.673   7.330
 4802SOL     OW15148   2.576   3.011   7.401
 4802SOL    HW115149   2.625   3.087   7.433
 4802SOL    HW215150   2.496   3.048   7.363
 4803SOL     OW15151   2.193   3.292   6.655
 4803SOL    HW115152   2.127   3.245   6.604
 4803SOL    HW215153   2.244   3.341   6.590
 4804SOL     OW15154   3.320   3.363   6.948
 4804SOL    HW115155   3.374   3.442   6.957
 4804SOL    HW215156   3.251   3.374   7.014
 4805SOL     OW15157   3.481   2.306   6.335
 4805SOL    HW115158   3.400   2.314   6.286
 4805SOL    HW215159   3.481   2.381   6.395
 4806SOL     OW15160   2.087   3.571   6.055
 4806SOL    HW115161   2.105   3.647   6.110
 4806SOL    HW215162   2.160   3.568   5.993
 4807SOL     OW15163   2.999   3.204   7.281
 4807SOL    HW115164   3.039   3.197   7.368
 4807SOL    HW215165   2.948   3.123   7.272
 4808SOL     OW15166   2.074   3.304   6.125
 4808SOL    HW115167   2.072   3.399   6.111
 4808SOL    HW215168   2.048   3.293   6.217
 4809SOL     OW15169   2.136   3.070   6.462
 4809SOL    HW115170   2.164   2.979   6.473
 4809SOL    HW215171   2.055   3.076   6.512
 4810SOL     OW15172   2.463   3.656   7.011
 4810SOL    HW115173   2.383   3.637   7.061
 4810SOL    HW215174   2.489   3.743   7.040
 4811SOL     OW15175   3.455   1.991   7.049
 4811SOL    HW115176   3.483   2.071   7.004
 4811SOL    HW215177   3.435   2.019   7.138
 4812SOL     OW15178   2.035   2.457   6.182
 4812SOL    HW115179   1.968   2.403   6.140
 4812SOL    HW215180   2.011   2.547   6.160
 4813SOL     OW15181   3.705   3.616   5.916
 4813SOL    HW115182   3.773   3.590   5.978
 4813SOL    HW215183   3.723   3.708   5.896
 4814SOL     OW15184   1.889   3.453   5.703
 4814SOL    HW115185   1.863   3.363   5.722
 4814SOL    HW215186   1.871   3.501   5.783
 4815SOL     OW15187   3.549   2.780   6.232
 4815SOL    HW115188   3.631   2.737   6.212
 4815SOL    HW215189   3.530   2.832   6.154
 4816SOL     OW15190   3.513   2.966   6.016
 4816SOL    HW115191   3.600   2.966   5.975
 4816SOL    HW215192   3.520   3.029   6.087
 4817SOL     OW15193   1.980   2.609   7.161
 4817SOL    HW115194   2.026   2.629   7.242
 4817SOL    HW215195   1.914   2.678   7.153
 4818SOL     OW15196   2.480   3.255   6.326
 4818SOL    HW115197   2.428   3.177   6.346
 4818SOL    HW215198   2.459   3.276   6.236
 4819SOL     OW15199   3.147   3.096   7.007
 4819SOL    HW115200   3.177   3.028   6.946
 4819SOL    HW215201   3.207   3.091   7.081
 4820SOL     OW15202   2.028   2.840   6.859
 4820SOL    HW115203   2.114   2.802   6.848
 4820SOL    HW215204   1.968   2.779   6.816
 4821SOL     OW15205   3.402   2.863   5.784
 4821SOL    HW115206   3.331   2.806   5.814
 4821SOL    HW215207   3.442   2.897   5.864
 4822SOL     OW15208   3.045   3.675   7.212
 4822SOL    HW115209   3.051   3.736   7.138
 4822SOL    HW215210   3.063   3.589   7.173
 4823SOL     OW15211   3.330   3.281   6.532
 4823SOL    HW115212   3.264   3.297   6.598
 4823SOL    HW215213   3.316   3.189   6.506
 4824SOL     OW15214   3.515   3.615   6.163
 4824SOL    HW115215   3.497   3.582   6.075
 4824SOL    HW215216   3.496   3.542   6.221
 4825SOL     OW15217   2.535   2.637   5.736
 4825SOL    HW115218   2.547   2.697   5.662
 4825SOL    HW215219   2.445   2.652   5.764
 4826SOL     OW15220   3.182   2.243   6.522
 4826SOL    HW115221   3.091   2.224   6.502
 4826SOL    HW215222   3.206   2.178   6.588
 4827SOL     OW15223   3.440   3.536   5.897
 4827SOL    HW115224   3.532   3.561   5.888
 4827SOL    HW215225   3.412   3.519   5.807
 4828SOL     OW15226   3.254   2.337   7.263
 4828SOL    HW115227   3.259   2.381   7.348
 4828SOL    HW215228   3.311   2.260   7.273
 4829SOL     OW15229   2.814   2.740   7.166
 4829SOL    HW115230   2.865   2.671   7.125
 4829SOL    HW215231   2.769   2.783   7.093
 4830SOL     OW15232   2.864   2.265   6.814
 4830SOL    HW115233   2.792   2.310   6.858
 4830SOL    HW215234   2.822   2.193   6.767
 4831SOL     OW15235   1.986   3.732   7.170
 4831SOL    HW115236   1.990   3.709   7.263
 4831SOL    HW215237   1.901   3.697   7.140
 4832SOL     OW15238   2.698   2.168   5.724
 4832SOL    HW115239   2.725   2.250   5.766
 4832SOL    HW215240   2.768   2.106   5.744
 4833SOL     OW15241   3.566   2.432   7.416
 4833SOL    HW115242   3.531   2.506   7.366
 4833SOL    HW215243   3.594   2.369   7.350
 4834SOL     OW15244   3.245   3.003   6.123
 4834SOL    HW115245   3.326   2.993   6.074
 4834SOL    HW215246   3.194   3.067   6.074
 4835SOL     OW15247   2.863   3.304   6.056
 4835SOL    HW115248   2.831   3.378   6.005
 4835SOL    HW215249   2.842   3.326   6.146
 4836SOL     OW15250   2.215   3.676   6.456
 4836SOL    HW115251   2.260   3.592   6.463
 4836SOL    HW215252   2.282   3.742   6.475
 4837SOL     OW15253   3.662   2.916   6.458
 4837SOL    HW115254   3.609   2.895   6.381
 4837SOL    HW215255   3.598   2.922   6.530
 4838SOL     OW15256   3.087   3.402   7.099
 4838SOL    HW115257   3.077   3.330   7.162
 4838SOL    HW215258   3.022   3.384   7.031
 4839SOL     OW15259   2.245   2.706   5.789
 4839SOL    HW115260   2.236   2.771   5.720
 4839SOL    HW215261   2.178   2.641   5.770
 4840SOL     OW15262   3.331   2.618   6.304
 4840SOL    HW115263   3.334   2.577   6.391
 4840SOL    HW215264   3.409   2.674   6.301
 4841SOL     OW15265   2.331   3.129   7.324
 4841SOL    HW115266   2.305   3.134   7.232
 4841SOL    HW215267   2.249   3.128   7.373
 4842SOL     OW15268   2.987   3.640   5.814
 4842SOL    HW115269   2.912   3.601   5.859
 4842SOL    HW215270   3.011   3.576   5.747
 4843SOL     OW15271   3.491   3.245   5.677
 4843SOL    HW115272   3.449   3.329   5.662
 4843SOL    HW215273   3.423   3.180   5.657
 4844SOL     OW15274   2.327   3.597   5.906
 4844SOL    HW115275   2.372   3.655   5.968
 4844SOL    HW215276   2.396   3.565   5.848
 4845SOL     OW15277   3.256   1.955   6.027
 4845SOL    HW115278   3.251   1.940   5.932
 4845SOL    HW215279   3.347   1.981   6.042
 4846SOL     OW15280   2.120   3.651   6.814
 4846SOL    HW115281   2.169   3.582   6.858
 4846SOL    HW215282   2.111   3.621   6.724
 4847SOL     OW15283   2.801   3.562   6.483
 4847SOL    HW115284   2.879   3.513   6.507
 4847SOL    HW215285   2.761   3.511   6.412
 4848SOL     OW15286   3.389   2.086   7.309
 4848SOL    HW115287   3.400   2.106   7.402
 4848SOL    HW215288   3.322   2.018   7.308
 4849SOL     OW15289   2.446   1.949   5.669
 4849SOL    HW115290   2.514   1.950   5.736
 4849SOL    HW215291   2.484   1.994   5.594
 4850SOL     OW15292   2.624   2.118   7.313
 4850SOL    HW115293   2.703   2.070   7.334
 4850SOL    HW215294   2.581   2.133   7.398
 4851SOL     OW15295   2.737   3.386   6.783
 4851SOL    HW115296   2.720   3.347   6.697
 4851SOL    HW215297   2.807   3.332   6.820
 4852SOL     OW15298   3.195   2.461   7.022
 4852SOL    HW115299   3.229   2.427   7.105
 4852SOL    HW215300   3.238   2.546   7.011
 4853SOL     OW15301   2.683   3.255   6.536
 4853SOL    HW115302   2.768   3.240   6.494
 4853SOL    HW215303   2.621   3.261   6.463
 4854SOL     OW15304   3.291   3.062   5.625
 4854SOL    HW115305   3.322   2.987   5.676
 4854SOL    HW215306   3.204   3.080   5.659
 4855SOL     OW15307   2.928   2.517   7.041
 4855SOL    HW115308   2.902   2.442   7.095
 4855SOL    HW215309   3.022   2.506   7.027
 4856SOL     OW15310   3.082   3.433   6.379
 4856SOL    HW115311   3.096   3.500   6.311
 4856SOL    HW215312   3.150   3.450   6.444
 4857SOL     OW15313   3.126   3.654   6.199
 4857SOL    HW115314   3.175   3.715   6.143
 4857SOL    HW215315   3.058   3.707   6.240
 4858SOL     OW15316   1.970   2.408   6.973
 4858SOL    HW115317   2.036   2.350   7.012
 4858SOL    HW215318   1.964   2.482   7.033
 4859SOL     OW15319   3.300   3.020   6.445
 4859SOL    HW115320   3.233   2.952   6.451
 4859SOL    HW215321   3.319   3.026   6.351
 4860SOL     OW15322   3.337   2.475   6.549
 4860SOL    HW115323   3.281   2.398   6.549
 4860SOL    HW215324   3.390   2.466   6.628
 4861SOL     OW15325   3.701   2.671   5.971
 4861SOL    HW115326   3.760   2.623   6.030
 4861SOL    HW215327   3.679   2.609   5.903
 4862SOL     OW15328   2.355   3.289   5.736
 4862SOL    HW115329   2.272   3.275   5.780
 4862SOL    HW215330   2.354   3.226   5.663
 4863SOL     OW15331   3.541   3.128   6.226
 4863SOL    HW115332   3.635   3.127   6.243
 4863SOL    HW215333   3.513   3.216   6.249
 4864SOL     OW15334   3.266   2.436   5.653
 4864SOL    HW115335   3.234   2.393   5.733
 4864SOL    HW215336   3.361   2.421   5.654
 4865SOL     OW15337   3.610   3.105   7.147
 4865SOL    HW115338   3.697   3.065   7.142
 4865SOL    HW215339   3.626   3.194   7.177
 4866SOL     OW15340   2.917   3.222   6.924
 4866SOL    HW115341   2.841   3.187   6.971
 4866SOL    HW215342   2.992   3.175   6.962
 4867SOL     OW15343   3.471   3.490   7.245
 4867SOL    HW115344   3.463   3.524   7.156
 4867SOL    HW215345   3.553   3.440   7.244
 4868SOL     OW15346   3.003   3.079   6.690
 4868SOL    HW115347   2.935   3.107   6.752
 4868SOL    HW215348   2.969   3.105   6.604
 4869SOL     OW15349   3.484   2.957   6.663
 4869SOL    HW115350   3.478   3.020   6.734
 4869SOL    HW215351   3.408   2.976   6.608
 4870SOL     OW15352   2.798   1.948   6.977
 4870SOL    HW115353   2.819   1.931   6.885
 4870SOL    HW215354   2.877   1.989   7.012
 4871SOL     OW15355   2.846   2.974   7.305
 4871SOL    HW115356   2.755   2.991   7.328
 4871SOL    HW215357   2.843   2.895   7.250
 4872SOL     OW15358   2.256   2.695   6.854
 4872SOL    HW115359   2.334   2.715   6.906
 4872SOL    HW215360   2.221   2.616   6.895
 4873SOL     OW15361   3.131   2.239   6.870
 4873SOL    HW115362   3.160   2.320   6.913
 4873SOL    HW215363   3.042   2.259   6.841
 4874SOL     OW15364   1.938   3.437   6.944
 4874SOL    HW115365   1.910   3.508   6.886
 4874SOL    HW215366   2.033   3.435   6.936
 4875SOL     OW15367   3.111   3.211   5.978
 4875SOL    HW115368   3.166   3.283   6.009
 4875SOL    HW215369   3.023   3.232   6.010
 4876SOL     OW15370   3.151   3.323   6.732
 4876SOL    HW115371   3.204   3.325   6.812
 4876SOL    HW215372   3.098   3.244   6.740
 4877SOL     OW15373   3.438   2.488   6.062
 4877SOL    HW115374   3.388   2.527   6.134
 4877SOL    HW215375   3.484   2.561   6.022
 4878SOL     OW15376   2.208   3.393   6.900
 4878SOL    HW115377   2.196   3.352   6.815
 4878SOL    HW215378   2.303   3.405   6.908
 4879SOL     OW15379   3.471   2.643   7.273
 4879SOL    HW115380   3.385   2.685   7.267
 4879SOL    HW215381   3.523   2.685   7.204
 4880SOL     OW15382   2.865   1.992   7.348
 4880SOL    HW115383   2.919   2.066   7.320
 4880SOL    HW215384   2.913   1.914   7.321
 4881SOL     OW15385   2.347   1.887   7.348
 4881SOL    HW115386   2.309   1.838   7.275
 4881SOL    HW215387   2.280   1.950   7.372
 4882SOL     OW15388   2.484   2.733   6.665
 4882SOL    HW115389   2.512   2.821   6.642
 4882SOL    HW215390   2.397   2.744   6.702
 4883SOL     OW15391   3.207   2.718   6.603
 4883SOL    HW115392   3.119   2.688   6.581
 4883SOL    HW215393   3.262   2.640   6.593
 4884SOL     OW15394   1.895   3.176   6.871
 4884SOL    HW115395   1.935   3.119   6.937
 4884SOL    HW215396   1.909   3.265   6.904
 4885SOL     OW15397   2.670   2.535   6.661
 4885SOL    HW115398   2.614   2.462   6.635
 4885SOL    HW215399   2.611   2.611   6.663
 4886SOL     OW15400   3.601   2.822   7.445
 4886SOL    HW115401   3.558   2.754   7.392
 4886SOL    HW215402   3.540   2.839   7.516
 4887SOL     OW15403   3.481   2.241   5.949
 4887SOL    HW115404   3.511   2.178   6.014
 4887SOL    HW215405   3.458   2.319   6.000
 4888SOL     OW15406   2.956   2.605   6.582
 4888SOL    HW115407   2.938   2.656   6.661
 4888SOL    HW215408   2.877   2.555   6.566
 4889SOL     OW15409   2.843   3.428   7.308
 4889SOL    HW115410   2.827   3.472   7.225
 4889SOL    HW215411   2.887   3.346   7.284
 4890SOL     OW15412   3.713   3.363   7.190
 4890SOL    HW115413   3.734   3.391   7.101
 4890SOL    HW215414   3.794   3.377   7.240
 4891SOL     OW15415   2.231   2.766   7.374
 4891SOL    HW115416   2.294   2.794   7.440
 4891SOL    HW215417   2.283   2.754   7.295
 4892SOL     OW15418   3.386   2.138   5.713
 4892SOL    HW115419   3.324   2.070   5.740
 4892SOL    HW215420   3.422   2.172   5.795
 4893SOL     OW15421   3.144   2.684   5.609
 4893SOL    HW115422   3.187   2.598   5.612
 4893SOL    HW215423   3.178   2.724   5.529
 4894SOL     OW15424   2.929   3.201   6.440
 4894SOL    HW115425   2.933   3.128   6.379
 4894SOL    HW215426   2.988   3.267   6.404
 4895SOL     OW15427   2.992   2.245   7.264
 4895SOL    HW115428   2.946   2.292   7.332
 4895SOL    HW215429   3.081   2.281   7.265
 4896SOL     OW15430   3.030   2.063   7.059
 4896SOL    HW115431   3.015   2.126   7.130
 4896SOL    HW215432   3.074   2.114   6.991
 4897SOL     OW15433   1.861   3.174   5.785
 4897SOL    HW115434   1.776   3.190   5.745
 4897SOL    HW215435   1.846   3.097   5.841
 4898SOL     OW15436   1.950   3.640   6.524
 4898SOL    HW115437   1.923   3.560   6.478
 4898SOL    HW215438   2.039   3.656   6.494
 4899SOL     OW15439   2.356   3.440   6.491
 4899SOL    HW115440   2.423   3.503   6.516
 4899SOL    HW215441   2.402   3.377   6.435
 4900SOL     OW15442   2.846   2.675   6.825
 4900SOL    HW115443   2.878   2.619   6.896
 4900SOL    HW215444   2.782   2.621   6.780
 4901SOL     OW15445   1.899   2.422   6.707
 4901SOL    HW115446   1.955   2.360   6.661
 4901SOL    HW215447   1.933   2.423   6.797
 4902SOL     OW15448   3.243   2.795   7.242
 4902SOL    HW115449   3.264   2.888   7.240
 4902SOL    HW215450   3.241   2.769   7.150
 4903SOL     OW15451   3.502   2.463   6.767
 4903SOL    HW115452   3.493   2.403   6.841
 4903SOL    HW215453   3.590   2.445   6.733
 4904SOL     OW15454   2.100   3.411   7.309
 4904SOL    HW115455   2.079   3.476   7.375
 4904SOL    HW215456   2.107   3.328   7.357
 4905SOL     OW15457   2.780   3.542   7.060
 4905SOL    HW115458   2.760   3.500   6.976
 4905SOL    HW215459   2.776   3.636   7.042
 4906SOL     OW15460   2.002   3.009   7.068
 4906SOL    HW115461   2.006   2.958   7.149
 4906SOL    HW215462   2.013   2.944   6.998
 4907SOL     OW15463   3.183   2.904   6.802
 4907SOL    HW115464   3.201   2.840   6.733
 4907SOL    HW215465   3.119   2.963   6.764
 4908SOL     OW15466   3.183   2.728   5.875
 4908SOL    HW115467   3.099   2.751   5.915
 4908SOL    HW215468   3.161   2.706   5.785
 4909SOL     OW15469   3.644   3.597   6.745
 4909SOL    HW115470   3.703   3.624   6.674
 4909SOL    HW215471   3.615   3.510   6.720
 4910SOL     OW15472   3.101   3.595   6.691
 4910SOL    HW115473   3.184   3.619   6.650
 4910SOL    HW215474   3.111   3.502   6.712
 4911SOL     OW15475   1.922   3.182   6.600
 4911SOL    HW115476   1.910   3.175   6.695
 4911SOL    HW215477   1.865   3.114   6.564
 4912SOL     OW15478   2.542   3.533   7.325
 4912SOL    HW115479   2.484   3.609   7.315
 4912SOL    HW215480   2.611   3.549   7.261
 4913SOL     OW15481   3.587   2.019   6.093
 4913SOL    HW115482   3.656   2.002   6.029
 4913SOL    HW215483   3.568   1.933   6.131
 4914SOL     OW15484   3.255   3.430   6.077
 4914SOL    HW115485   3.313   3.464   6.009
 4914SOL    HW215486   3.204   3.506   6.105
 4915SOL     OW15487   2.004   3.656   7.428
 4915SOL    HW115488   1.953   3.590   7.475
 4915SOL    HW215489   2.048   3.705   7.497
 4916SOL     OW15490   3.120   2.793   6.240
 4916SOL    HW115491   3.184   2.725   6.262
 4916SOL    HW215492   3.169   2.860   6.193
 4917SOL     OW15493   2.666   3.141   7.007
 4917SOL    HW115494   2.637   3.182   7.088
 4917SOL    HW215495   2.594   3.157   6.945
 4918SOL     OW15496   2.531   3.496   5.740
 4918SOL    HW115497   2.545   3.508   5.647
 4918SOL    HW215498   2.480   3.415   5.747
 4919SOL     OW15499   3.481   3.589   6.978
 4919SOL    HW115500   3.535   3.594   6.899
 4919SOL    HW215501   3.467   3.681   7.003
 4920SOL     OW15502   3.706   2.032   6.552
 4920SOL    HW115503   3.736   1.944   6.528
 4920SOL    HW215504   3.619   2.039   6.513
 4921SOL     OW15505   3.070   3.462   5.619
 4921SOL    HW115506   3.058   3.371   5.645
 4921SOL    HW215507   3.005   3.476   5.551
 4922SOL     OW15508   2.685   2.869   6.966
 4922SOL    HW115509   2.731   2.852   6.884
 4922SOL    HW215510   2.684   2.964   6.974
 4923SOL     OW15511   3.350   3.492   5.631
 4923SOL    HW115512   3.256   3.480   5.616
 4923SOL    HW215513   3.388   3.497   5.544
 4924SOL     OW15514   2.230   3.168   7.080
 4924SOL    HW115515   2.218   3.244   7.022
 4924SOL    HW215516   2.152   3.114   7.066
 4925SOL     OW15517   3.470   3.147   6.866
 4925SOL    HW115518   3.527   3.129   6.941
 4925SOL    HW215519   3.409   3.214   6.898
 4926SOL     OW15520   2.917   2.969   6.300
 4926SOL    HW115521   2.853   2.908   6.338
 4926SOL    HW215522   2.990   2.913   6.274
 4927SOL     OW15523   2.457   3.343   6.070
 4927SOL    HW115524   2.514   3.309   6.000
 4927SOL    HW215525   2.387   3.389   6.024
 4928SOL     OW15526   3.589   2.253   6.967
 4928SOL    HW115527   3.661   2.316   6.966
 4928SOL    HW215528   3.619   2.183   6.909
 4929SOL     OW15529   2.107   3.256   5.856
 4929SOL    HW115530   2.013   3.246   5.840
 4929SOL    HW215531   2.114   3.267   5.951
 4930SOL     OW15532   1.980   2.892   7.317
 4930SOL    HW115533   1.902   2.866   7.365
 4930SOL    HW215534   2.051   2.843   7.358
 4931SOL     OW15535   2.554   2.030   7.067
 4931SOL    HW115536   2.641   2.007   7.036
 4931SOL    HW215537   2.567   2.066   7.154
 4932SOL     OW15538   3.288   2.722   6.982
 4932SOL    HW115539   3.238   2.782   6.926
 4932SOL    HW215540   3.377   2.723   6.946
 4933SOL     OW15541   1.863   2.016   5.837
 4933SOL    HW115542   1.855   2.106   5.806
 4933SOL    HW215543   1.944   2.016   5.889
 4934SOL     OW15544   3.040   3.196   5.704
 4934SOL    HW115545   2.962   3.142   5.706
 4934SOL    HW215546   3.070   3.199   5.795
 4935SOL     OW15547   2.472   2.707   7.013
 4935SOL    HW115548   2.542   2.770   6.997
 4935SOL    HW215549   2.517   2.631   7.049
 4936SOL     OW15550   3.344   3.648   6.569
 4936SOL    HW115551   3.366   3.715   6.504
 4936SOL    HW215552   3.429   3.618   6.602
 4937SOL     OW15553   3.335   3.056   7.215
 4937SOL    HW115554   3.324   3.071   7.309
 4937SOL    HW215555   3.428   3.075   7.199
 4938SOL     OW15556   2.233   3.603   7.152
 4938SOL    HW115557   2.150   3.649   7.137
 4938SOL    HW215558   2.207   3.520   7.192
 4939SOL     OW15559   3.526   2.741   6.841
 4939SOL    HW115560   3.523   2.656   6.798
 4939SOL    HW215561   3.516   2.804   6.770
 4940SOL     OW15562   3.618   2.225   7.239
 4940SOL    HW115563   3.604   2.241   7.146
 4940SOL    HW215564   3.545   2.169   7.265
 4941SOL     OW15565   3.612   2.795   7.096
 4941SOL    HW115566   3.599   2.889   7.109
 4941SOL    HW215567   3.593   2.780   7.004
 4942SOL     OW15568   2.720   3.235   5.619
 4942SOL    HW115569   2.691   3.268   5.704
 4942SOL    HW215570   2.748   3.312   5.570
 4943SOL     OW15571   2.526   3.647   6.524
 4943SOL    HW115572   2.508   3.739   6.505
 4943SOL    HW215573   2.622   3.640   6.519
 4944SOL     OW15574   2.960   2.891   5.662
 4944SOL    HW115575   2.922   2.909   5.576
 4944SOL    HW215576   3.014   2.813   5.648
 4945SOL     OW15577   3.710   3.416   6.428
 4945SOL    HW115578   3.631   3.404   6.377
 4945SOL    HW215579   3.706   3.349   6.496
 4946SOL     OW15580   2.087   3.161   7.439
 4946SOL    HW115581   2.025   3.097   7.405
 4946SOL    HW215582   2.061   3.175   7.530
 4947SOL     OW15583   2.545   3.271   7.215
 4947SOL    HW115584   2.466   3.228   7.249
 4947SOL    HW215585   2.544   3.358   7.254
 4948SOL     OW15586   3.673   2.042   6.823
 4948SOL    HW115587   3.680   1.948   6.835
 4948SOL    HW215588   3.685   2.055   6.729
 4949SOL     OW15589   3.557   3.349   6.679
 4949SOL    HW115590   3.479   3.329   6.627
 4949SOL    HW215591   3.562   3.278   6.744
 4950SOL     OW15592   2.694   3.443   6.260
 4950SOL    HW115593   2.674   3.507   6.192
 4950SOL    HW215594   2.618   3.385   6.261
 4951SOL     OW15595   3.290   2.080   6.713
 4951SOL    HW115596   3.314   2.000   6.759
 4951SOL    HW215597   3.243   2.132   6.778
 4952SOL     OW15598   2.858   1.855   6.723
 4952SOL    HW115599   2.811   1.773   6.740
 4952SOL    HW215600   2.950   1.828   6.713
 4953SOL     OW15601   2.630   3.230   5.887
 4953SOL    HW115602   2.580   3.149   5.874
 4953SOL    HW215603   2.710   3.202   5.931
 4954SOL     OW15604   2.481   3.420   6.872
 4954SOL    HW115605   2.482   3.503   6.920
 4954SOL    HW215606   2.570   3.412   6.837
 4955SOL     OW15607   3.223   1.912   5.754
 4955SOL    HW115608   3.266   1.841   5.707
 4955SOL    HW215609   3.133   1.881   5.768
 4956SOL     OW15610   3.217   2.333   6.263
 4956SOL    HW115611   3.173   2.418   6.265
 4956SOL    HW215612   3.197   2.294   6.348
 4957SOL     OW15613   3.447   2.056   6.471
 4957SOL    HW115614   3.390   2.082   6.543
 4957SOL    HW215615   3.451   2.133   6.414
 4958SOL     OW15616   2.753   3.523   5.926
 4958SOL    HW115617   2.679   3.506   5.868
 4958SOL    HW215618   2.724   3.597   5.980
 4959SOL     OW15619   2.042   2.544   7.574
 4959SOL    HW115620   1.960   2.528   7.619
 4959SOL    HW215621   2.060   2.463   7.527
 4960SOL     OW15622   1.834   2.259   8.080
 4960SOL    HW115623   1.751   2.282   8.122
 4960SOL    HW215624   1.824   2.167   8.056
 4961SOL     OW15625   2.430   3.160   8.632
 4961SOL    HW115626   2.344   3.166   8.590
 4961SOL    HW215627   2.447   3.249   8.664
 4962SOL     OW15628   3.434   3.376   8.157
 4962SOL    HW115629   3.390   3.352   8.239
 4962SOL    HW215630   3.363   3.379   8.092
 4963SOL     OW15631   3.002   2.561   8.146
 4963SOL    HW115632   3.048   2.643   8.134
 4963SOL    HW215633   2.956   2.571   8.230
 4964SOL     OW15634   3.641   2.460   7.673
 4964SOL    HW115635   3.614   2.455   7.581
 4964SOL    HW215636   3.599   2.384   7.714
 4965SOL     OW15637   2.602   2.998   8.493
 4965SOL    HW115638   2.538   3.036   8.553
 4965SOL    HW215639   2.643   3.074   8.451
 4966SOL     OW15640   2.745   2.628   9.270
 4966SOL    HW115641   2.735   2.699   9.334
 4966SOL    HW215642   2.764   2.673   9.188
 4967SOL     OW15643   2.571   2.916   8.090
 4967SOL    HW115644   2.630   2.900   8.164
 4967SOL    HW215645   2.493   2.954   8.130
 4968SOL     OW15646   2.577   3.014   9.261
 4968SOL    HW115647   2.625   3.091   9.293
 4968SOL    HW215648   2.498   3.050   9.222
 4969SOL     OW15649   2.193   3.279   8.515
 4969SOL    HW115650   2.119   3.240   8.469
 4969SOL    HW215651   2.238   3.331   8.448
 4970SOL     OW15652   3.320   3.364   8.810
 4970SOL    HW115653   3.375   3.442   8.819
 4970SOL    HW215654   3.252   3.374   8.876
 4971SOL     OW15655   3.467   2.305   8.193
 4971SOL    HW115656   3.394   2.322   8.133
 4971SOL    HW215657   3.469   2.381   8.251
 4972SOL     OW15658   2.082   3.578   7.917
 4972SOL    HW115659   2.103   3.653   7.972
 4972SOL    HW215660   2.156   3.570   7.857
 4973SOL     OW15661   2.999   3.205   9.143
 4973SOL    HW115662   3.040   3.197   9.229
 4973SOL    HW215663   2.948   3.125   9.134
 4974SOL     OW15664   2.095   3.306   7.985
 4974SOL    HW115665   2.076   3.400   7.986
 4974SOL    HW215666   2.037   3.269   8.050
 4975SOL     OW15667   2.127   2.956   8.339
 4975SOL    HW115668   2.121   2.868   8.376
 4975SOL    HW215669   2.068   3.009   8.393
 4976SOL     OW15670   2.463   3.654   8.874
 4976SOL    HW115671   2.383   3.636   8.923
 4976SOL    HW215672   2.489   3.742   8.902
 4977SOL     OW15673   2.436   2.852   7.584
 4977SOL    HW115674   2.486   2.895   7.515
 4977SOL    HW215675   2.473   2.887   7.665
 4978SOL     OW15676   3.457   1.989   8.912
 4978SOL    HW115677   3.480   2.070   8.866
 4978SOL    HW215678   3.437   2.018   9.001
 4979SOL     OW15679   1.963   2.503   8.014
 4979SOL    HW115680   1.925   2.419   8.038
 4979SOL    HW215681   1.961   2.554   8.095
 4980SOL     OW15682   3.705   3.616   7.777
 4980SOL    HW115683   3.773   3.590   7.839
 4980SOL    HW215684   3.723   3.708   7.758
 4981SOL     OW15685   1.901   3.451   7.568
 4981SOL    HW115686   1.881   3.360   7.589
 4981SOL    HW215687   1.875   3.500   7.647
 4982SOL     OW15688   3.552   2.782   8.095
 4982SOL    HW115689   3.633   2.738   8.072
 4982SOL    HW215690   3.529   2.833   8.016
 4983SOL     OW15691   3.512   2.965   7.877
 4983SOL    HW115692   3.599   2.965   7.836
 4983SOL    HW215693   3.519   3.028   7.948
 4984SOL     OW15694   1.985   2.612   9.025
 4984SOL    HW115695   2.021   2.624   9.113
 4984SOL    HW215696   1.922   2.683   9.015
 4985SOL     OW15697   2.477   3.255   8.183
 4985SOL    HW115698   2.431   3.172   8.192
 4985SOL    HW215699   2.462   3.281   8.092
 4986SOL     OW15700   3.147   3.097   8.869
 4986SOL    HW115701   3.177   3.029   8.809
 4986SOL    HW215702   3.207   3.092   8.943
 4987SOL     OW15703   2.676   1.871   7.956
 4987SOL    HW115704   2.719   1.954   7.933
 4987SOL    HW215705   2.583   1.892   7.958
 4988SOL     OW15706   2.033   2.837   8.723
 4988SOL    HW115707   2.123   2.807   8.708
 4988SOL    HW215708   1.979   2.781   8.668
 4989SOL     OW15709   3.392   2.860   7.649
 4989SOL    HW115710   3.323   2.803   7.681
 4989SOL    HW215711   3.435   2.894   7.727
 4990SOL     OW15712   3.045   3.675   9.074
 4990SOL    HW115713   3.051   3.736   9.000
 4990SOL    HW215714   3.063   3.589   9.035
 4991SOL     OW15715   3.330   3.281   8.394
 4991SOL    HW115716   3.263   3.297   8.461
 4991SOL    HW215717   3.316   3.190   8.368
 4992SOL     OW15718   3.515   3.615   8.024
 4992SOL    HW115719   3.496   3.582   7.937
 4992SOL    HW215720   3.497   3.542   8.083
 4993SOL     OW15721   2.508   2.621   7.742
 4993SOL    HW115722   2.488   2.693   7.682
 4993SOL    HW215723   2.423   2.581   7.760
 4994SOL     OW15724   3.140   2.227   8.382
 4994SOL    HW115725   3.052   2.192   8.391
 4994SOL    HW215726   3.193   2.172   8.440
 4995SOL     OW15727   3.440   3.536   7.759
 4995SOL    HW115728   3.532   3.561   7.750
 4995SOL    HW215729   3.412   3.519   7.669
 4996SOL     OW15730   2.674   2.450   8.911
 4996SOL    HW115731   2.685   2.456   9.006
 4996SOL    HW215732   2.595   2.397   8.900
 4997SOL     OW15733   3.255   2.337   9.126
 4997SOL    HW115734   3.259   2.381   9.211
 4997SOL    HW215735   3.311   2.260   9.136
 4998SOL     OW15736   2.813   2.745   9.030
 4998SOL    HW115737   2.870   2.680   8.989
 4998SOL    HW215738   2.769   2.788   8.957
 4999SOL     OW15739   2.866   2.280   8.685
 4999SOL    HW115740   2.788   2.317   8.724
 4999SOL    HW215741   2.836   2.242   8.602
 5000SOL     OW15742   2.948   2.580   7.874
 5000SOL    HW115743   2.960   2.570   7.969
 5000SOL    HW215744   2.866   2.535   7.855
 5001SOL     OW15745   1.952   2.681   8.226
 5001SOL    HW115746   2.033   2.679   8.276
 5001SOL    HW215747   1.905   2.758   8.259
 5002SOL     OW15748   1.986   3.732   9.032
 5002SOL    HW115749   1.990   3.709   9.124
 5002SOL    HW215750   1.902   3.697   9.002
 5003SOL     OW15751   2.762   2.215   7.642
 5003SOL    HW115752   2.805   2.272   7.579
 5003SOL    HW215753   2.754   2.131   7.597
 5004SOL     OW15754   3.566   2.432   9.278
 5004SOL    HW115755   3.531   2.506   9.228
 5004SOL    HW215756   3.594   2.369   9.212
 5005SOL     OW15757   3.244   3.005   7.988
 5005SOL    HW115758   3.323   2.993   7.935
 5005SOL    HW215759   3.190   3.066   7.938
 5006SOL     OW15760   2.862   3.306   7.916
 5006SOL    HW115761   2.831   3.382   7.866
 5006SOL    HW215762   2.839   3.325   8.007
 5007SOL     OW15763   2.216   3.676   8.318
 5007SOL    HW115764   2.260   3.591   8.324
 5007SOL    HW215765   2.284   3.740   8.337
 5008SOL     OW15766   3.662   2.917   8.321
 5008SOL    HW115767   3.610   2.895   8.243
 5008SOL    HW215768   3.598   2.923   8.392
 5009SOL     OW15769   3.088   3.402   8.961
 5009SOL    HW115770   3.077   3.330   9.023
 5009SOL    HW215771   3.022   3.386   8.894
 5010SOL     OW15772   2.174   2.812   7.699
 5010SOL    HW115773   2.257   2.827   7.655
 5010SOL    HW215774   2.138   2.733   7.658
 5011SOL     OW15775   3.345   2.610   8.169
 5011SOL    HW115776   3.340   2.572   8.256
 5011SOL    HW215777   3.423   2.667   8.172
 5012SOL     OW15778   2.331   3.130   9.186
 5012SOL    HW115779   2.305   3.135   9.094
 5012SOL    HW215780   2.249   3.128   9.234
 5013SOL     OW15781   2.986   3.641   7.676
 5013SOL    HW115782   2.911   3.602   7.720
 5013SOL    HW215783   3.011   3.577   7.609
 5014SOL     OW15784   3.491   3.244   7.539
 5014SOL    HW115785   3.449   3.329   7.524
 5014SOL    HW215786   3.423   3.180   7.518
 5015SOL     OW15787   2.325   3.599   7.767
 5015SOL    HW115788   2.371   3.654   7.830
 5015SOL    HW215789   2.395   3.563   7.711
 5016SOL     OW15790   3.262   1.969   7.888
 5016SOL    HW115791   3.253   1.944   7.796
 5016SOL    HW215792   3.356   1.974   7.903
 5017SOL     OW15793   2.118   3.652   8.676
 5017SOL    HW115794   2.168   3.581   8.717
 5017SOL    HW215795   2.109   3.625   8.585
 5018SOL     OW15796   2.801   3.561   8.344
 5018SOL    HW115797   2.881   3.513   8.366
 5018SOL    HW215798   2.761   3.511   8.274
 5019SOL     OW15799   3.389   2.086   9.171
 5019SOL    HW115800   3.400   2.106   9.264
 5019SOL    HW215801   3.320   2.020   9.169
 5020SOL     OW15802   2.516   1.977   7.552
 5020SOL    HW115803   2.572   1.901   7.570
 5020SOL    HW215804   2.460   1.949   7.479
 5021SOL     OW15805   2.632   2.109   9.198
 5021SOL    HW115806   2.717   2.065   9.198
 5021SOL    HW215807   2.590   2.080   9.279
 5022SOL     OW15808   2.737   3.385   8.643
 5022SOL    HW115809   2.720   3.347   8.557
 5022SOL    HW215810   2.807   3.332   8.680
 5023SOL     OW15811   3.200   2.453   8.882
 5023SOL    HW115812   3.231   2.422   8.967
 5023SOL    HW215813   3.239   2.540   8.873
 5024SOL     OW15814   2.680   3.249   8.395
 5024SOL    HW115815   2.765   3.239   8.352
 5024SOL    HW215816   2.618   3.258   8.323
 5025SOL     OW15817   2.790   2.370   8.358
 5025SOL    HW115818   2.766   2.365   8.266
 5025SOL    HW215819   2.826   2.283   8.378
 5026SOL     OW15820   2.405   1.938   7.942
 5026SOL    HW115821   2.357   1.950   8.024
 5026SOL    HW215822   2.377   2.011   7.887
 5027SOL     OW15823   3.290   3.062   7.487
 5027SOL    HW115824   3.320   2.987   7.539
 5027SOL    HW215825   3.205   3.085   7.524
 5028SOL     OW15826   2.802   2.116   7.901
 5028SOL    HW115827   2.781   2.153   7.814
 5028SOL    HW215828   2.896   2.128   7.910
 5029SOL     OW15829   2.942   2.548   8.894
 5029SOL    HW115830   2.881   2.474   8.898
 5029SOL    HW215831   3.029   2.506   8.891
 5030SOL     OW15832   3.080   3.436   8.244
 5030SOL    HW115833   3.095   3.500   8.174
 5030SOL    HW215834   3.151   3.451   8.306
 5031SOL     OW15835   2.331   3.019   8.174
 5031SOL    HW115836   2.265   2.998   8.239
 5031SOL    HW215837   2.288   3.003   8.090
 5032SOL     OW15838   3.126   3.654   8.061
 5032SOL    HW115839   3.174   3.715   8.005
 5032SOL    HW215840   3.058   3.707   8.101
 5033SOL     OW15841   2.885   2.396   7.472
 5033SOL    HW115842   2.835   2.475   7.452
 5033SOL    HW215843   2.947   2.423   7.539
 5034SOL     OW15844   1.957   2.422   8.830
 5034SOL    HW115845   2.025   2.367   8.870
 5034SOL    HW215846   1.947   2.496   8.889
 5035SOL     OW15847   2.736   2.318   8.094
 5035SOL    HW115848   2.707   2.388   8.036
 5035SOL    HW215849   2.756   2.245   8.035
 5036SOL     OW15850   2.877   1.915   8.196
 5036SOL    HW115851   2.819   1.909   8.120
 5036SOL    HW215852   2.852   1.840   8.250
 5037SOL     OW15853   3.300   3.022   8.304
 5037SOL    HW115854   3.230   2.957   8.307
 5037SOL    HW215855   3.322   3.029   8.211
 5038SOL     OW15856   3.328   2.472   8.415
 5038SOL    HW115857   3.271   2.396   8.419
 5038SOL    HW215858   3.385   2.464   8.492
 5039SOL     OW15859   3.703   2.672   7.833
 5039SOL    HW115860   3.761   2.623   7.892
 5039SOL    HW215861   3.678   2.609   7.766
 5040SOL     OW15862   2.351   3.284   7.601
 5040SOL    HW115863   2.275   3.256   7.651
 5040SOL    HW215864   2.347   3.232   7.520
 5041SOL     OW15865   3.541   3.127   8.088
 5041SOL    HW115866   3.635   3.126   8.104
 5041SOL    HW215867   3.513   3.216   8.111
 5042SOL     OW15868   3.256   2.435   7.518
 5042SOL    HW115869   3.194   2.413   7.587
 5042SOL    HW215870   3.340   2.405   7.551
 5043SOL     OW15871   3.610   3.105   9.009
 5043SOL    HW115872   3.697   3.065   9.004
 5043SOL    HW215873   3.626   3.194   9.039
 5044SOL     OW15874   2.918   3.219   8.781
 5044SOL    HW115875   2.842   3.187   8.830
 5044SOL    HW215876   2.992   3.175   8.822
 5045SOL     OW15877   3.471   3.490   9.107
 5045SOL    HW115878   3.463   3.524   9.018
 5045SOL    HW215879   3.553   3.440   9.106
 5046SOL     OW15880   3.000   3.076   8.550
 5046SOL    HW115881   2.937   3.111   8.613
 5046SOL    HW215882   2.969   3.108   8.465
 5047SOL     OW15883   3.483   2.957   8.525
 5047SOL    HW115884   3.477   3.020   8.596
 5047SOL    HW215885   3.408   2.976   8.469
 5048SOL     OW15886   2.791   1.949   8.839
 5048SOL    HW115887   2.813   1.933   8.747
 5048SOL    HW215888   2.870   1.991   8.875
 5049SOL     OW15889   2.846   2.977   9.167
 5049SOL    HW115890   2.755   2.993   9.192
 5049SOL    HW215891   2.843   2.898   9.113
 5050SOL     OW15892   2.572   2.932   7.812
 5050SOL    HW115893   2.566   2.926   7.907
 5050SOL    HW215894   2.645   2.875   7.789
 5051SOL     OW15895   2.280   2.718   8.703
 5051SOL    HW115896   2.349   2.728   8.768
 5051SOL    HW215897   2.251   2.627   8.713
 5052SOL     OW15898   3.132   2.236   8.730
 5052SOL    HW115899   3.163   2.314   8.775
 5052SOL    HW215900   3.042   2.256   8.706
 5053SOL     OW15901   1.937   3.437   8.806
 5053SOL    HW115902   1.908   3.508   8.748
 5053SOL    HW215903   2.032   3.436   8.797
 5054SOL     OW15904   2.202   2.977   7.933
 5054SOL    HW115905   2.205   3.053   7.875
 5054SOL    HW215906   2.196   2.902   7.873
 5055SOL     OW15907   3.110   3.212   7.838
 5055SOL    HW115908   3.165   3.283   7.871
 5055SOL    HW215909   3.022   3.233   7.871
 5056SOL     OW15910   3.152   3.323   8.595
 5056SOL    HW115911   3.206   3.327   8.674
 5056SOL    HW215912   3.098   3.245   8.607
 5057SOL     OW15913   3.439   2.481   7.932
 5057SOL    HW115914   3.390   2.527   8.000
 5057SOL    HW215915   3.481   2.551   7.881
 5058SOL     OW15916   2.207   3.393   8.757
 5058SOL    HW115917   2.196   3.347   8.674
 5058SOL    HW215918   2.302   3.404   8.766
 5059SOL     OW15919   3.471   2.643   9.135
 5059SOL    HW115920   3.385   2.685   9.128
 5059SOL    HW215921   3.523   2.685   9.066
 5060SOL     OW15922   2.873   1.987   9.204
 5060SOL    HW115923   2.927   2.063   9.183
 5060SOL    HW215924   2.924   1.912   9.176
 5061SOL     OW15925   2.354   1.898   9.208
 5061SOL    HW115926   2.310   1.847   9.141
 5061SOL    HW215927   2.314   1.985   9.202
 5062SOL     OW15928   2.436   2.745   8.474
 5062SOL    HW115929   2.485   2.827   8.469
 5062SOL    HW215930   2.388   2.750   8.557
 5063SOL     OW15931   3.206   2.720   8.468
 5063SOL    HW115932   3.119   2.702   8.433
 5063SOL    HW215933   3.254   2.637   8.458
 5064SOL     OW15934   3.066   2.388   7.710
 5064SOL    HW115935   3.069   2.310   7.765
 5064SOL    HW215936   3.035   2.457   7.768
 5065SOL     OW15937   1.911   3.176   8.722
 5065SOL    HW115938   1.941   3.120   8.794
 5065SOL    HW215939   1.914   3.264   8.758
 5066SOL     OW15940   2.642   2.555   8.537
 5066SOL    HW115941   2.667   2.495   8.466
 5066SOL    HW215942   2.569   2.605   8.502
 5067SOL     OW15943   3.601   2.822   9.306
 5067SOL    HW115944   3.559   2.754   9.254
 5067SOL    HW215945   3.540   2.839   9.378
 5068SOL     OW15946   3.485   2.242   7.807
 5068SOL    HW115947   3.513   2.176   7.871
 5068SOL    HW215948   3.460   2.318   7.860
 5069SOL     OW15949   2.909   2.620   8.404
 5069SOL    HW115950   2.899   2.648   8.495
 5069SOL    HW215951   2.870   2.533   8.400
 5070SOL     OW15952   2.843   3.428   9.170
 5070SOL    HW115953   2.827   3.472   9.086
 5070SOL    HW215954   2.887   3.347   9.147
 5071SOL     OW15955   3.713   3.363   9.052
 5071SOL    HW115956   3.734   3.391   8.963
 5071SOL    HW215957   3.794   3.377   9.102
 5072SOL     OW15958   2.227   2.776   9.244
 5072SOL    HW115959   2.294   2.807   9.305
 5072SOL    HW215960   2.274   2.721   9.182
 5073SOL     OW15961   3.388   2.133   7.573
 5073SOL    HW115962   3.325   2.068   7.602
 5073SOL    HW215963   3.423   2.171   7.654
 5074SOL     OW15964   3.149   2.687   7.476
 5074SOL    HW115965   3.191   2.601   7.481
 5074SOL    HW215966   3.182   2.725   7.394
 5075SOL     OW15967   2.930   3.202   8.305
 5075SOL    HW115968   2.937   3.129   8.242
 5075SOL    HW215969   2.988   3.269   8.269
 5076SOL     OW15970   2.176   2.675   8.392
 5076SOL    HW115971   2.267   2.703   8.395
 5076SOL    HW215972   2.176   2.590   8.434
 5077SOL     OW15973   2.996   2.235   9.133
 5077SOL    HW115974   2.947   2.287   9.196
 5077SOL    HW215975   3.083   2.277   9.129
 5078SOL     OW15976   3.027   2.061   8.920
 5078SOL    HW115977   3.013   2.123   8.991
 5078SOL    HW215978   3.071   2.111   8.852
 5079SOL     OW15979   1.869   3.177   7.641
 5079SOL    HW115980   1.782   3.194   7.605
 5079SOL    HW215981   1.864   3.089   7.677
 5080SOL     OW15982   1.952   3.643   8.390
 5080SOL    HW115983   1.922   3.565   8.343
 5080SOL    HW215984   2.041   3.658   8.358
 5081SOL     OW15985   2.353   3.437   8.353
 5081SOL    HW115986   2.422   3.499   8.377
 5081SOL    HW215987   2.396   3.375   8.294
 5082SOL     OW15988   2.851   2.677   8.666
 5082SOL    HW115989   2.886   2.635   8.745
 5082SOL    HW215990   2.772   2.627   8.646
 5083SOL     OW15991   1.900   2.414   8.563
 5083SOL    HW115992   1.959   2.350   8.524
 5083SOL    HW215993   1.929   2.421   8.654
 5084SOL     OW15994   3.243   2.795   9.104
 5084SOL    HW115995   3.264   2.888   9.101
 5084SOL    HW215996   3.240   2.768   9.012
 5085SOL     OW15997   2.723   2.457   7.805
 5085SOL    HW115998   2.715   2.384   7.743
 5085SOL    HW215999   2.652   2.517   7.781
 5086SOL     OW16000   3.502   2.463   8.628
 5086SOL    HW116001   3.492   2.404   8.703
 5086SOL    HW216002   3.590   2.445   8.594
 5087SOL     OW16003   2.100   3.411   9.170
 5087SOL    HW116004   2.079   3.476   9.237
 5087SOL    HW216005   2.107   3.328   9.219
 5088SOL     OW16006   2.782   3.541   8.921
 5088SOL    HW116007   2.760   3.501   8.837
 5088SOL    HW216008   2.777   3.635   8.904
 5089SOL     OW16009   1.999   3.009   8.928
 5089SOL    HW116010   2.004   2.960   9.010
 5089SOL    HW216011   2.012   2.943   8.860
 5090SOL     OW16012   3.183   2.906   8.666
 5090SOL    HW116013   3.202   2.841   8.598
 5090SOL    HW216014   3.117   2.963   8.627
 5091SOL     OW16015   3.177   2.718   7.753
 5091SOL    HW116016   3.105   2.684   7.805
 5091SOL    HW216017   3.149   2.705   7.662
 5092SOL     OW16018   3.644   3.597   8.607
 5092SOL    HW116019   3.703   3.624   8.536
 5092SOL    HW216020   3.615   3.510   8.582
 5093SOL     OW16021   3.102   3.595   8.554
 5093SOL    HW116022   3.184   3.619   8.512
 5093SOL    HW216023   3.111   3.502   8.574
 5094SOL     OW16024   1.949   3.127   8.458
 5094SOL    HW116025   1.933   3.143   8.552
 5094SOL    HW216026   1.875   3.073   8.430
 5095SOL     OW16027   2.541   3.534   9.187
 5095SOL    HW116028   2.483   3.609   9.178
 5095SOL    HW216029   2.611   3.549   9.123
 5096SOL     OW16030   3.585   2.018   7.953
 5096SOL    HW116031   3.655   2.002   7.890
 5096SOL    HW216032   3.568   1.933   7.993
 5097SOL     OW16033   3.255   3.430   7.939
 5097SOL    HW116034   3.313   3.464   7.871
 5097SOL    HW216035   3.204   3.506   7.968
 5098SOL     OW16036   2.004   3.656   9.290
 5098SOL    HW116037   1.953   3.590   9.337
 5098SOL    HW216038   2.048   3.706   9.359
 5099SOL     OW16039   3.142   2.791   8.118
 5099SOL    HW116040   3.216   2.731   8.128
 5099SOL    HW216041   3.176   2.862   8.064
 5100SOL     OW16042   2.667   3.144   8.870
 5100SOL    HW116043   2.639   3.183   8.952
 5100SOL    HW216044   2.595   3.161   8.809
 5101SOL     OW16045   2.530   3.489   7.604
 5101SOL    HW116046   2.544   3.502   7.510
 5101SOL    HW216047   2.475   3.411   7.609
 5102SOL     OW16048   3.481   3.589   8.840
 5102SOL    HW116049   3.535   3.594   8.761
 5102SOL    HW216050   3.467   3.681   8.865
 5103SOL     OW16051   3.706   2.032   8.414
 5103SOL    HW116052   3.736   1.944   8.389
 5103SOL    HW216053   3.619   2.040   8.374
 5104SOL     OW16054   3.070   3.463   7.482
 5104SOL    HW116055   3.059   3.372   7.508
 5104SOL    HW216056   3.004   3.477   7.413
 5105SOL     OW16057   2.697   2.876   8.823
 5105SOL    HW116058   2.746   2.863   8.741
 5105SOL    HW216059   2.693   2.971   8.834
 5106SOL     OW16060   2.786   2.784   7.740
 5106SOL    HW116061   2.845   2.815   7.672
 5106SOL    HW216062   2.836   2.719   7.788
 5107SOL     OW16063   3.350   3.491   7.493
 5107SOL    HW116064   3.257   3.481   7.478
 5107SOL    HW216065   3.389   3.497   7.406
 5108SOL     OW16066   2.229   3.167   8.940
 5108SOL    HW116067   2.216   3.243   8.883
 5108SOL    HW216068   2.151   3.114   8.927
 5109SOL     OW16069   3.470   3.147   8.728
 5109SOL    HW116070   3.527   3.129   8.803
 5109SOL    HW216071   3.409   3.214   8.760
 5110SOL     OW16072   2.928   2.973   8.159
 5110SOL    HW116073   2.856   2.923   8.198
 5110SOL    HW216074   2.991   2.907   8.132
 5111SOL     OW16075   2.886   2.104   8.413
 5111SOL    HW116076   2.883   2.056   8.329
 5111SOL    HW216077   2.883   2.035   8.479
 5112SOL     OW16078   2.468   3.350   7.927
 5112SOL    HW116079   2.518   3.300   7.863
 5112SOL    HW216080   2.393   3.384   7.879
 5113SOL     OW16081   3.589   2.253   8.828
 5113SOL    HW116082   3.661   2.316   8.828
 5113SOL    HW216083   3.618   2.183   8.771
 5114SOL     OW16084   2.124   3.203   7.741
 5114SOL    HW116085   2.032   3.199   7.716
 5114SOL    HW216086   2.124   3.244   7.827
 5115SOL     OW16087   1.979   2.897   9.179
 5115SOL    HW116088   1.903   2.867   9.228
 5115SOL    HW216089   2.053   2.850   9.218
 5116SOL     OW16090   2.550   2.035   8.945
 5116SOL    HW116091   2.636   2.014   8.907
 5116SOL    HW216092   2.571   2.070   9.031
 5117SOL     OW16093   1.881   2.236   7.487
 5117SOL    HW116094   1.794   2.196   7.492
 5117SOL    HW216095   1.886   2.273   7.399
 5118SOL     OW16096   3.287   2.720   8.845
 5118SOL    HW116097   3.237   2.780   8.790
 5118SOL    HW216098   3.376   2.722   8.808
 5119SOL     OW16099   3.040   3.196   7.566
 5119SOL    HW116100   2.951   3.161   7.569
 5119SOL    HW216101   3.068   3.198   7.658
 5120SOL     OW16102   2.495   2.706   8.872
 5120SOL    HW116103   2.553   2.781   8.860
 5120SOL    HW216104   2.553   2.631   8.881
 5121SOL     OW16105   3.344   3.648   8.431
 5121SOL    HW116106   3.366   3.714   8.366
 5121SOL    HW216107   3.429   3.618   8.464
 5122SOL     OW16108   3.335   3.056   9.077
 5122SOL    HW116109   3.324   3.071   9.170
 5122SOL    HW216110   3.428   3.075   9.060
 5123SOL     OW16111   2.233   3.603   9.014
 5123SOL    HW116112   2.150   3.649   8.999
 5123SOL    HW216113   2.207   3.520   9.055
 5124SOL     OW16114   3.526   2.741   8.703
 5124SOL    HW116115   3.522   2.656   8.660
 5124SOL    HW216116   3.516   2.804   8.632
 5125SOL     OW16117   3.076   2.180   7.907
 5125SOL    HW116118   3.139   2.108   7.900
 5125SOL    HW216119   3.106   2.231   7.982
 5126SOL     OW16120   2.541   2.647   8.105
 5126SOL    HW116121   2.565   2.739   8.092
 5126SOL    HW216122   2.451   2.640   8.072
 5127SOL     OW16123   3.618   2.225   9.101
 5127SOL    HW116124   3.604   2.242   9.008
 5127SOL    HW216125   3.545   2.169   9.126
 5128SOL     OW16126   3.612   2.795   8.958
 5128SOL    HW116127   3.599   2.889   8.970
 5128SOL    HW216128   3.593   2.780   8.866
 5129SOL     OW16129   2.723   3.226   7.489
 5129SOL    HW116130   2.689   3.253   7.574
 5129SOL    HW216131   2.742   3.308   7.444
 5130SOL     OW16132   2.525   3.645   8.386
 5130SOL    HW116133   2.507   3.737   8.367
 5130SOL    HW216134   2.621   3.638   8.381
 5131SOL     OW16135   2.736   2.840   8.304
 5131SOL    HW116136   2.779   2.761   8.335
 5131SOL    HW216137   2.696   2.879   8.382
 5132SOL     OW16138   2.945   2.858   7.536
 5132SOL    HW116139   2.921   2.905   7.455
 5132SOL    HW216140   3.015   2.799   7.510
 5133SOL     OW16141   3.710   3.416   8.290
 5133SOL    HW116142   3.631   3.404   8.238
 5133SOL    HW216143   3.706   3.349   8.358
 5134SOL     OW16144   2.087   3.161   9.300
 5134SOL    HW116145   2.027   3.095   9.265
 5134SOL    HW216146   2.057   3.174   9.390
 5135SOL     OW16147   1.950   3.093   8.114
 5135SOL    HW116148   1.958   3.046   8.198
 5135SOL    HW216149   2.015   3.052   8.058
 5136SOL     OW16150   2.545   3.272   9.078
 5136SOL    HW116151   2.466   3.229   9.111
 5136SOL    HW216152   2.543   3.359   9.116
 5137SOL     OW16153   3.673   2.043   8.684
 5137SOL    HW116154   3.679   1.948   8.697
 5137SOL    HW216155   3.685   2.056   8.590
 5138SOL     OW16156   3.557   3.349   8.541
 5138SOL    HW116157   3.479   3.329   8.489
 5138SOL    HW216158   3.562   3.278   8.605
 5139SOL     OW16159   2.694   3.441   8.123
 5139SOL    HW116160   2.671   3.504   8.054
 5139SOL    HW216161   2.619   3.381   8.126
 5140SOL     OW16162   3.293   2.090   8.563
 5140SOL    HW116163   3.311   2.006   8.606
 5140SOL    HW216164   3.244   2.140   8.629
 5141SOL     OW16165   2.872   1.877   8.581
 5141SOL    HW116166   2.818   1.809   8.542
 5141SOL    HW216167   2.960   1.840   8.583
 5142SOL     OW16168   2.638   3.199   7.767
 5142SOL    HW116169   2.611   3.108   7.773
 5142SOL    HW216170   2.719   3.203   7.818
 5143SOL     OW16171   2.482   3.418   8.735
 5143SOL    HW116172   2.482   3.500   8.784
 5143SOL    HW216173   2.570   3.411   8.698
 5144SOL     OW16174   3.219   1.913   7.620
 5144SOL    HW116175   3.252   1.843   7.564
 5144SOL    HW216176   3.129   1.887   7.641
 5145SOL     OW16177   3.159   2.325   8.126
 5145SOL    HW116178   3.108   2.406   8.130
 5145SOL    HW216179   3.153   2.288   8.214
 5146SOL     OW16180   3.448   2.057   8.330
 5146SOL    HW116181   3.392   2.081   8.404
 5146SOL    HW216182   3.447   2.134   8.274
 5147SOL     OW16183   1.904   2.926   7.758
 5147SOL    HW116184   1.997   2.918   7.738
 5147SOL    HW216185   1.877   2.838   7.782
 5148SOL     OW16186   2.751   3.523   7.786
 5148SOL    HW116187   2.676   3.507   7.729
 5148SOL    HW216188   2.723   3.596   7.842
 5149SOL     OW16189   2.051   2.540   9.428
 5149SOL    HW116190   1.968   2.513   9.465
 5149SOL    HW216191   2.073   2.472   9.364
 5150SOL     OW16192   1.827   2.267   9.933
 5150SOL    HW116193   1.748   2.295   9.979
 5150SOL    HW216194   1.812   2.175   9.912
 5151SOL     OW16195   2.430   3.159  10.495
 5151SOL    HW116196   2.345   3.164  10.451
 5151SOL    HW216197   2.446   3.247  10.527
 5152SOL     OW16198   3.434   3.376  10.018
 5152SOL    HW116199   3.391   3.353  10.101
 5152SOL    HW216200   3.363   3.379   9.954
 5153SOL     OW16201   2.998   2.561  10.005
 5153SOL    HW116202   3.045   2.643   9.992
 5153SOL    HW216203   2.954   2.572  10.089
 5154SOL     OW16204   3.640   2.460   9.536
 5154SOL    HW116205   3.614   2.455   9.444
 5154SOL    HW216206   3.599   2.384   9.576
 5155SOL     OW16207   2.604   2.998  10.356
 5155SOL    HW116208   2.540   3.037  10.415
 5155SOL    HW216209   2.645   3.073  10.312
 5156SOL     OW16210   2.686   2.667   0.027
 5156SOL    HW116211   2.711   2.701   0.113
 5156SOL    HW216212   2.740   2.714  11.065
 5157SOL     OW16213   2.558   2.891   9.951
 5157SOL    HW116214   2.621   2.875  10.021
 5157SOL    HW216215   2.487   2.940   9.993
 5158SOL     OW16216   2.196   3.276  10.375
 5158SOL    HW116217   2.119   3.239  10.331
 5158SOL    HW216218   2.238   3.329  10.308
 5159SOL     OW16219   3.323   3.362  10.667
 5159SOL    HW116220   3.383   3.437  10.673
 5159SOL    HW216221   3.255   3.381  10.732
 5160SOL     OW16222   3.467   2.304  10.055
 5160SOL    HW116223   3.395   2.322   9.995
 5160SOL    HW216224   3.471   2.382  10.111
 5161SOL     OW16225   2.082   3.578   9.779
 5161SOL    HW116226   2.103   3.653   9.834
 5161SOL    HW216227   2.156   3.570   9.719
 5162SOL     OW16228   2.095   3.306   9.847
 5162SOL    HW116229   2.076   3.400   9.848
 5162SOL    HW216230   2.036   3.269   9.913
 5163SOL     OW16231   2.126   2.961  10.198
 5163SOL    HW116232   2.122   2.872  10.234
 5163SOL    HW216233   2.068   3.012  10.254
 5164SOL     OW16234   2.464   3.651  10.735
 5164SOL    HW116235   2.385   3.633  10.786
 5164SOL    HW216236   2.489   3.740  10.760
 5165SOL     OW16237   2.437   2.860   9.443
 5165SOL    HW116238   2.488   2.903   9.374
 5165SOL    HW216239   2.473   2.896   9.524
 5166SOL     OW16240   3.454   1.983  10.775
 5166SOL    HW116241   3.480   2.060  10.725
 5166SOL    HW216242   3.470   2.006  10.867
 5167SOL     OW16243   1.963   2.508   9.871
 5167SOL    HW116244   1.927   2.423   9.895
 5167SOL    HW216245   1.966   2.557   9.953
 5168SOL     OW16246   3.705   3.616   9.640
 5168SOL    HW116247   3.773   3.590   9.701
 5168SOL    HW216248   3.723   3.708   9.620
 5169SOL     OW16249   1.901   3.451   9.431
 5169SOL    HW116250   1.881   3.360   9.451
 5169SOL    HW216251   1.875   3.500   9.509
 5170SOL     OW16252   3.551   2.781   9.957
 5170SOL    HW116253   3.633   2.737   9.935
 5170SOL    HW216254   3.530   2.832   9.878
 5171SOL     OW16255   3.512   2.965   9.739
 5171SOL    HW116256   3.598   2.965   9.699
 5171SOL    HW216257   3.519   3.028   9.811
 5172SOL     OW16258   1.987   2.597  10.890
 5172SOL    HW116259   2.004   2.590  10.984
 5172SOL    HW216260   1.931   2.675  10.882
 5173SOL     OW16261   2.478   3.254  10.045
 5173SOL    HW116262   2.432   3.171  10.054
 5173SOL    HW216263   2.463   3.281   9.955
 5174SOL     OW16264   3.147   3.097  10.754
 5174SOL    HW116265   3.173   3.036  10.685
 5174SOL    HW216266   3.206   3.076  10.827
 5175SOL     OW16267   2.681   1.866   9.821
 5175SOL    HW116268   2.723   1.948   9.795
 5175SOL    HW216269   2.588   1.887   9.825
 5176SOL     OW16270   2.034   2.836  10.576
 5176SOL    HW116271   2.120   2.793  10.570
 5176SOL    HW216272   1.974   2.777  10.531
 5177SOL     OW16273   3.393   2.861   9.511
 5177SOL    HW116274   3.323   2.804   9.543
 5177SOL    HW216275   3.436   2.894   9.590
 5178SOL     OW16276   3.060   3.671  10.931
 5178SOL    HW116277   3.054   3.738  10.863
 5178SOL    HW216278   3.071   3.589  10.883
 5179SOL     OW16279   3.331   3.281  10.256
 5179SOL    HW116280   3.263   3.298  10.321
 5179SOL    HW216281   3.317   3.190  10.230
 5180SOL     OW16282   3.515   3.616   9.886
 5180SOL    HW116283   3.496   3.582   9.799
 5180SOL    HW216284   3.497   3.542   9.945
 5181SOL     OW16285   2.538   2.637   9.604
 5181SOL    HW116286   2.531   2.700   9.533
 5181SOL    HW216287   2.467   2.660   9.664
 5182SOL     OW16288   3.140   2.228  10.245
 5182SOL    HW116289   3.052   2.193  10.253
 5182SOL    HW216290   3.193   2.173  10.303
 5183SOL     OW16291   3.440   3.535   9.621
 5183SOL    HW116292   3.532   3.561   9.612
 5183SOL    HW216293   3.412   3.519   9.531
 5184SOL     OW16294   2.833   2.763  10.911
 5184SOL    HW116295   2.875   2.689  10.867
 5184SOL    HW216296   2.783   2.806  10.843
 5185SOL     OW16297   2.868   2.269  10.538
 5185SOL    HW116298   2.787   2.307  10.573
 5185SOL    HW216299   2.842   2.230  10.455
 5186SOL     OW16300   2.929   2.570   9.733
 5186SOL    HW116301   2.946   2.563   9.827
 5186SOL    HW216302   2.847   2.522   9.720
 5187SOL     OW16303   1.951   2.688  10.084
 5187SOL    HW116304   2.033   2.684  10.133
 5187SOL    HW216305   1.904   2.762  10.120
 5188SOL     OW16306   1.988   3.725  10.903
 5188SOL    HW116307   1.977   3.684  10.989
 5188SOL    HW216308   1.910   3.698  10.854
 5189SOL     OW16309   2.760   2.212   9.505
 5189SOL    HW116310   2.800   2.273   9.444
 5189SOL    HW216311   2.752   2.130   9.455
 5190SOL     OW16312   3.244   3.005   9.850
 5190SOL    HW116313   3.323   2.993   9.797
 5190SOL    HW216314   3.190   3.066   9.799
 5191SOL     OW16315   2.862   3.307   9.778
 5191SOL    HW116316   2.832   3.382   9.728
 5191SOL    HW216317   2.838   3.326   9.869
 5192SOL     OW16318   2.215   3.676  10.179
 5192SOL    HW116319   2.260   3.591  10.186
 5192SOL    HW216320   2.283   3.740  10.199
 5193SOL     OW16321   3.662   2.916  10.183
 5193SOL    HW116322   3.610   2.895  10.106
 5193SOL    HW216323   3.598   2.922  10.254
 5194SOL     OW16324   3.092   3.396  10.819
 5194SOL    HW116325   3.104   3.306  10.847
 5194SOL    HW216326   3.020   3.393  10.755
 5195SOL     OW16327   2.180   2.808   9.564
 5195SOL    HW116328   2.261   2.826   9.516
 5195SOL    HW216329   2.143   2.732   9.521
 5196SOL     OW16330   3.344   2.611  10.032
 5196SOL    HW116331   3.340   2.572  10.119
 5196SOL    HW216332   3.422   2.667  10.034
 5197SOL     OW16333   2.314   3.127  11.052
 5197SOL    HW116334   2.283   3.144  10.963
 5197SOL    HW216335   2.257   3.056  11.084
 5198SOL     OW16336   2.987   3.641   9.538
 5198SOL    HW116337   2.911   3.602   9.582
 5198SOL    HW216338   3.011   3.577   9.471
 5199SOL     OW16339   3.491   3.244   9.401
 5199SOL    HW116340   3.449   3.329   9.386
 5199SOL    HW216341   3.423   3.180   9.380
 5200SOL     OW16342   2.325   3.598   9.629
 5200SOL    HW116343   2.370   3.654   9.692
 5200SOL    HW216344   2.395   3.564   9.573
 5201SOL     OW16345   3.262   1.969   9.750
 5201SOL    HW116346   3.254   1.944   9.658
 5201SOL    HW216347   3.357   1.974   9.765
 5202SOL     OW16348   2.119   3.653  10.540
 5202SOL    HW116349   2.167   3.584  10.586
 5202SOL    HW216350   2.111   3.622  10.450
 5203SOL     OW16351   2.802   3.561  10.207
 5203SOL    HW116352   2.884   3.514  10.225
 5203SOL    HW216353   2.761   3.511  10.136
 5204SOL     OW16354   2.520   1.974   9.411
 5204SOL    HW116355   2.565   1.894   9.441
 5204SOL    HW216356   2.456   1.943   9.347
 5205SOL     OW16357   2.624   2.149  11.044
 5205SOL    HW116358   2.682   2.094  11.096
 5205SOL    HW216359   2.558   2.180   0.006
 5206SOL     OW16360   2.737   3.385  10.505
 5206SOL    HW116361   2.721   3.349  10.418
 5206SOL    HW216362   2.810   3.333  10.540
 5207SOL     OW16363   3.195   2.461  10.761
 5207SOL    HW116364   3.255   2.439  10.833
 5207SOL    HW216365   3.223   2.549  10.734
 5208SOL     OW16366   2.681   3.250  10.257
 5208SOL    HW116367   2.766   3.239  10.214
 5208SOL    HW216368   2.618   3.258  10.185
 5209SOL     OW16369   2.785   2.366  10.219
 5209SOL    HW116370   2.770   2.362  10.124
 5209SOL    HW216371   2.820   2.280  10.241
 5210SOL     OW16372   2.413   1.937   9.814
 5210SOL    HW116373   2.365   1.954   9.895
 5210SOL    HW216374   2.407   2.019   9.764
 5211SOL     OW16375   3.290   3.063   9.349
 5211SOL    HW116376   3.320   2.987   9.400
 5211SOL    HW216377   3.205   3.085   9.386
 5212SOL     OW16378   2.805   2.109   9.760
 5212SOL    HW116379   2.781   2.147   9.676
 5212SOL    HW216380   2.900   2.122   9.766
 5213SOL     OW16381   2.921   2.538  10.766
 5213SOL    HW116382   2.869   2.481  10.822
 5213SOL    HW216383   3.010   2.501  10.769
 5214SOL     OW16384   3.079   3.437  10.106
 5214SOL    HW116385   3.094   3.500  10.036
 5214SOL    HW216386   3.151   3.452  10.168
 5215SOL     OW16387   2.332   3.020  10.035
 5215SOL    HW116388   2.265   3.001  10.101
 5215SOL    HW216389   2.289   3.004   9.951
 5216SOL     OW16390   3.126   3.654   9.922
 5216SOL    HW116391   3.175   3.715   9.867
 5216SOL    HW216392   3.058   3.707   9.963
 5217SOL     OW16393   2.883   2.396   9.333
 5217SOL    HW116394   2.835   2.476   9.314
 5217SOL    HW216395   2.946   2.422   9.400
 5218SOL     OW16396   1.975   2.403  10.695
 5218SOL    HW116397   2.045   2.348  10.730
 5218SOL    HW216398   1.970   2.476  10.757
 5219SOL     OW16399   2.756   2.312   9.951
 5219SOL    HW116400   2.727   2.377   9.886
 5219SOL    HW216401   2.775   2.234   9.899
 5220SOL     OW16402   2.875   1.916  10.059
 5220SOL    HW116403   2.820   1.908   9.981
 5220SOL    HW216404   2.852   1.840  10.113
 5221SOL     OW16405   3.300   3.023  10.166
 5221SOL    HW116406   3.231   2.957  10.168
 5221SOL    HW216407   3.324   3.030  10.074
 5222SOL     OW16408   3.327   2.475  10.278
 5222SOL    HW116409   3.271   2.397  10.280
 5222SOL    HW216410   3.385   2.465  10.353
 5223SOL     OW16411   3.703   2.672   9.695
 5223SOL    HW116412   3.761   2.623   9.753
 5223SOL    HW216413   3.678   2.609   9.628
 5224SOL     OW16414   2.351   3.284   9.463
 5224SOL    HW116415   2.275   3.255   9.513
 5224SOL    HW216416   2.346   3.233   9.382
 5225SOL     OW16417   3.540   3.126   9.951
 5225SOL    HW116418   3.635   3.125   9.967
 5225SOL    HW216419   3.513   3.215   9.973
 5226SOL     OW16420   3.256   2.434   9.381
 5226SOL    HW116421   3.193   2.413   9.450
 5226SOL    HW216422   3.340   2.403   9.414
 5227SOL     OW16423   3.616   3.091  10.847
 5227SOL    HW116424   3.708   3.064  10.844
 5227SOL    HW216425   3.618   3.175  10.892
 5228SOL     OW16426   2.919   3.217  10.648
 5228SOL    HW116427   2.841   3.183  10.691
 5228SOL    HW216428   2.991   3.168  10.689
 5229SOL     OW16429   3.000   3.079  10.412
 5229SOL    HW116430   2.930   3.108  10.470
 5229SOL    HW216431   2.973   3.109  10.325
 5230SOL     OW16432   3.485   2.957  10.388
 5230SOL    HW116433   3.480   3.020  10.460
 5230SOL    HW216434   3.408   2.977  10.334
 5231SOL     OW16435   2.796   1.952  10.699
 5231SOL    HW116436   2.818   1.936  10.607
 5231SOL    HW216437   2.874   1.995  10.734
 5232SOL     OW16438   2.572   2.933   9.676
 5232SOL    HW116439   2.561   2.921   9.770
 5232SOL    HW216440   2.650   2.882   9.654
 5233SOL     OW16441   2.265   2.691  10.590
 5233SOL    HW116442   2.342   2.709  10.644
 5233SOL    HW216443   2.225   2.614  10.631
 5234SOL     OW16444   3.132   2.242  10.598
 5234SOL    HW116445   3.159   2.322  10.643
 5234SOL    HW216446   3.042   2.259  10.570
 5235SOL     OW16447   1.937   3.441  10.670
 5235SOL    HW116448   1.908   3.510  10.610
 5235SOL    HW216449   2.032   3.438  10.659
 5236SOL     OW16450   2.204   2.976   9.794
 5236SOL    HW116451   2.205   3.053   9.737
 5236SOL    HW216452   2.198   2.902   9.733
 5237SOL     OW16453   3.109   3.212   9.700
 5237SOL    HW116454   3.165   3.283   9.733
 5237SOL    HW216455   3.022   3.233   9.734
 5238SOL     OW16456   3.151   3.325  10.455
 5238SOL    HW116457   3.208   3.327  10.532
 5238SOL    HW216458   3.098   3.245  10.467
 5239SOL     OW16459   3.440   2.481   9.795
 5239SOL    HW116460   3.390   2.528   9.862
 5239SOL    HW216461   3.482   2.550   9.743
 5240SOL     OW16462   2.206   3.392  10.617
 5240SOL    HW116463   2.195   3.345  10.534
 5240SOL    HW216464   2.301   3.403  10.625
 5241SOL     OW16465   3.460   2.616  10.962
 5241SOL    HW116466   3.384   2.669  10.940
 5241SOL    HW216467   3.534   2.664  10.925
 5242SOL     OW16468   2.431   2.745  10.351
 5242SOL    HW116469   2.481   2.826  10.344
 5242SOL    HW216470   2.387   2.750  10.436
 5243SOL     OW16471   3.208   2.724  10.338
 5243SOL    HW116472   3.122   2.707  10.298
 5243SOL    HW216473   3.256   2.642  10.326
 5244SOL     OW16474   3.064   2.388   9.572
 5244SOL    HW116475   3.069   2.310   9.627
 5244SOL    HW216476   3.025   2.455   9.629
 5245SOL     OW16477   1.918   3.179  10.582
 5245SOL    HW116478   1.942   3.120  10.653
 5245SOL    HW216479   1.913   3.266  10.622
 5246SOL     OW16480   2.649   2.543  10.402
 5246SOL    HW116481   2.668   2.476  10.335
 5246SOL    HW216482   2.576   2.592  10.365
 5247SOL     OW16483   3.485   2.242   9.669
 5247SOL    HW116484   3.513   2.176   9.733
 5247SOL    HW216485   3.461   2.317   9.722
 5248SOL     OW16486   2.904   2.620  10.264
 5248SOL    HW116487   2.898   2.646  10.356
 5248SOL    HW216488   2.865   2.533  10.261
 5249SOL     OW16489   2.833   3.435  11.003
 5249SOL    HW116490   2.819   3.485  10.923
 5249SOL    HW216491   2.855   3.347  10.973
 5250SOL     OW16492   3.712   3.347  10.911
 5250SOL    HW116493   3.735   3.386  10.827
 5250SOL    HW216494   3.772   3.387  10.973
 5251SOL     OW16495   2.236   2.773  11.077
 5251SOL    HW116496   2.315   2.797   0.025
 5251SOL    HW216497   2.268   2.730  10.998
 5252SOL     OW16498   3.388   2.134   9.436
 5252SOL    HW116499   3.324   2.068   9.464
 5252SOL    HW216500   3.423   2.170   9.517
 5253SOL     OW16501   3.150   2.686   9.337
 5253SOL    HW116502   3.192   2.600   9.343
 5253SOL    HW216503   3.183   2.724   9.256
 5254SOL     OW16504   2.931   3.201  10.167
 5254SOL    HW116505   2.937   3.129  10.104
 5254SOL    HW216506   2.989   3.269  10.131
 5255SOL     OW16507   2.170   2.688  10.256
 5255SOL    HW116508   2.263   2.706  10.265
 5255SOL    HW216509   2.155   2.611  10.310
 5256SOL     OW16510   3.028   2.065  10.786
 5256SOL    HW116511   3.042   2.117  10.865
 5256SOL    HW216512   3.070   2.115  10.716
 5257SOL     OW16513   1.870   3.177   9.503
 5257SOL    HW116514   1.783   3.195   9.467
 5257SOL    HW216515   1.864   3.089   9.539
 5258SOL     OW16516   1.951   3.644  10.250
 5258SOL    HW116517   1.922   3.566  10.203
 5258SOL    HW216518   2.041   3.658  10.219
 5259SOL     OW16519   2.354   3.437  10.214
 5259SOL    HW116520   2.423   3.500  10.238
 5259SOL    HW216521   2.397   3.375  10.156
 5260SOL     OW16522   2.848   2.672  10.533
 5260SOL    HW116523   2.878   2.627  10.612
 5260SOL    HW216524   2.771   2.621  10.505
 5261SOL     OW16525   1.904   2.419  10.430
 5261SOL    HW116526   1.932   2.337  10.390
 5261SOL    HW216527   1.937   2.414  10.520
 5262SOL     OW16528   2.701   2.433   9.686
 5262SOL    HW116529   2.690   2.361   9.624
 5262SOL    HW216530   2.638   2.499   9.658
 5263SOL     OW16531   3.502   2.462  10.489
 5263SOL    HW116532   3.494   2.405  10.565
 5263SOL    HW216533   3.590   2.446  10.456
 5264SOL     OW16534   2.115   3.424  11.043
 5264SOL    HW116535   2.053   3.448   0.013
 5264SOL    HW216536   2.144   3.336  11.067
 5265SOL     OW16537   2.799   3.542  10.753
 5265SOL    HW116538   2.768   3.504  10.670
 5265SOL    HW216539   2.782   3.636  10.744
 5266SOL     OW16540   2.012   3.006  10.783
 5266SOL    HW116541   2.008   2.954  10.863
 5266SOL    HW216542   2.020   2.942  10.712
 5267SOL     OW16543   3.181   2.913  10.537
 5267SOL    HW116544   3.204   2.846  10.472
 5267SOL    HW216545   3.116   2.968  10.493
 5268SOL     OW16546   3.177   2.719   9.614
 5268SOL    HW116547   3.103   2.686   9.665
 5268SOL    HW216548   3.151   2.705   9.523
 5269SOL     OW16549   3.648   3.599  10.468
 5269SOL    HW116550   3.706   3.624  10.396
 5269SOL    HW216551   3.617   3.512  10.444
 5270SOL     OW16552   3.101   3.596  10.415
 5270SOL    HW116553   3.184   3.621  10.374
 5270SOL    HW216554   3.111   3.503  10.435
 5271SOL     OW16555   1.948   3.130  10.319
 5271SOL    HW116556   1.935   3.146  10.413
 5271SOL    HW216557   1.874   3.074  10.294
 5272SOL     OW16558   3.585   2.018   9.815
 5272SOL    HW116559   3.655   2.002   9.752
 5272SOL    HW216560   3.568   1.933   9.855
 5273SOL     OW16561   3.255   3.430   9.801
 5273SOL    HW116562   3.313   3.463   9.733
 5273SOL    HW216563   3.204   3.506   9.829
 5274SOL     OW16564   3.141   2.791   9.980
 5274SOL    HW116565   3.215   2.731   9.990
 5274SOL    HW216566   3.175   2.862   9.926
 5275SOL     OW16567   2.671   3.138  10.731
 5275SOL    HW116568   2.640   3.172  10.815
 5275SOL    HW216569   2.600   3.157  10.670
 5276SOL     OW16570   2.530   3.489   9.466
 5276SOL    HW116571   2.544   3.502   9.372
 5276SOL    HW216572   2.475   3.410   9.471
 5277SOL     OW16573   3.475   3.585  10.687
 5277SOL    HW116574   3.537   3.597  10.615
 5277SOL    HW216575   3.462   3.674  10.722
 5278SOL     OW16576   3.706   2.033  10.277
 5278SOL    HW116577   3.736   1.945  10.253
 5278SOL    HW216578   3.619   2.040  10.237
 5279SOL     OW16579   3.070   3.463   9.344
 5279SOL    HW116580   3.059   3.372   9.370
 5279SOL    HW216581   3.004   3.477   9.276
 5280SOL     OW16582   2.696   2.865  10.696
 5280SOL    HW116583   2.746   2.846  10.617
 5280SOL    HW216584   2.692   2.961  10.700
 5281SOL     OW16585   2.793   2.796   9.608
 5281SOL    HW116586   2.851   2.820   9.536
 5281SOL    HW216587   2.836   2.721   9.649
 5282SOL     OW16588   3.350   3.492   9.355
 5282SOL    HW116589   3.257   3.481   9.340
 5282SOL    HW216590   3.389   3.497   9.268
 5283SOL     OW16591   2.222   3.180  10.808
 5283SOL    HW116592   2.210   3.251  10.746
 5283SOL    HW216593   2.151   3.119  10.790
 5284SOL     OW16594   3.474   3.144  10.594
 5284SOL    HW116595   3.527   3.122  10.671
 5284SOL    HW216596   3.417   3.214  10.624
 5285SOL     OW16597   2.925   2.972  10.023
 5285SOL    HW116598   2.852   2.921  10.058
 5285SOL    HW216599   2.988   2.907   9.994
 5286SOL     OW16600   2.885   2.103  10.275
 5286SOL    HW116601   2.882   2.057  10.191
 5286SOL    HW216602   2.883   2.034  10.341
 5287SOL     OW16603   2.468   3.350   9.790
 5287SOL    HW116604   2.518   3.301   9.725
 5287SOL    HW216605   2.393   3.384   9.742
 5288SOL     OW16606   3.583   2.255  10.693
 5288SOL    HW116607   3.656   2.316  10.697
 5288SOL    HW216608   3.613   2.185  10.635
 5289SOL     OW16609   2.124   3.202   9.604
 5289SOL    HW116610   2.032   3.199   9.578
 5289SOL    HW216611   2.124   3.243   9.690
 5290SOL     OW16612   1.990   2.879  11.022
 5290SOL    HW116613   1.923   2.864  11.089
 5290SOL    HW216614   2.067   2.835  11.056
 5291SOL     OW16615   2.556   2.030  10.805
 5291SOL    HW116616   2.641   2.009  10.765
 5291SOL    HW216617   2.579   2.079  10.884
 5292SOL     OW16618   3.288   2.715  10.712
 5292SOL    HW116619   3.238   2.782  10.665
 5292SOL    HW216620   3.376   2.721  10.675
 5293SOL     OW16621   1.855   2.004   9.615
 5293SOL    HW116622   1.816   2.082   9.575
 5293SOL    HW216623   1.948   2.024   9.621
 5294SOL     OW16624   3.040   3.196   9.428
 5294SOL    HW116625   2.951   3.162   9.430
 5294SOL    HW216626   3.067   3.198   9.520
 5295SOL     OW16627   2.483   2.704  10.745
 5295SOL    HW116628   2.555   2.765  10.731
 5295SOL    HW216629   2.526   2.623  10.772
 5296SOL     OW16630   3.343   3.647  10.292
 5296SOL    HW116631   3.367   3.714  10.228
 5296SOL    HW216632   3.427   3.617  10.327
 5297SOL     OW16633   2.721   2.451  10.958
 5297SOL    HW116634   2.694   2.519  11.020
 5297SOL    HW216635   2.699   2.369  11.001
 5298SOL     OW16636   2.240   3.599  10.875
 5298SOL    HW116637   2.165   3.658  10.868
 5298SOL    HW216638   2.209   3.528  10.932
 5299SOL     OW16639   3.526   2.742  10.568
 5299SOL    HW116640   3.523   2.657  10.525
 5299SOL    HW216641   3.517   2.806  10.497
 5300SOL     OW16642   3.077   2.179   9.768
 5300SOL    HW116643   3.139   2.108   9.761
 5300SOL    HW216644   3.106   2.230   9.844
 5301SOL     OW16645   2.484   2.631   9.966
 5301SOL    HW116646   2.510   2.722   9.953
 5301SOL    HW216647   2.389   2.633   9.968
 5302SOL     OW16648   3.599   2.179  10.965
 5302SOL    HW116649   3.583   2.220  10.880
 5302SOL    HW216650   3.523   2.203  11.018
 5303SOL     OW16651   3.615   2.797  10.824
 5303SOL    HW116652   3.603   2.891  10.838
 5303SOL    HW216653   3.594   2.783  10.732
 5304SOL     OW16654   2.724   3.228   9.352
 5304SOL    HW116655   2.689   3.255   9.437
 5304SOL    HW216656   2.742   3.310   9.306
 5305SOL     OW16657   2.526   3.645  10.248
 5305SOL    HW116658   2.507   3.737  10.229
 5305SOL    HW216659   2.621   3.639  10.242
 5306SOL     OW16660   2.731   2.834  10.164
 5306SOL    HW116661   2.778   2.759  10.198
 5306SOL    HW216662   2.694   2.876  10.242
 5307SOL     OW16663   2.944   2.855   9.395
 5307SOL    HW116664   2.923   2.903   9.315
 5307SOL    HW216665   3.017   2.797   9.369
 5308SOL     OW16666   3.711   3.416  10.152
 5308SOL    HW116667   3.631   3.404  10.101
 5308SOL    HW216668   3.707   3.349  10.220
 5309SOL     OW16669   1.950   3.092   9.976
 5309SOL    HW116670   1.959   3.049  10.061
 5309SOL    HW216671   2.015   3.051   9.920
 5310SOL     OW16672   2.542   3.258  10.943
 5310SOL    HW116673   2.473   3.207  10.985
 5310SOL    HW216674   2.498   3.339  10.914
 5311SOL     OW16675   3.666   2.043  10.548
 5311SOL    HW116676   3.675   1.948  10.558
 5311SOL    HW216677   3.681   2.058  10.454
 5312SOL     OW16678   3.559   3.350  10.404
 5312SOL    HW116679   3.481   3.328  10.353
 5312SOL    HW216680   3.567   3.280  10.468
 5313SOL     OW16681   2.694   3.441   9.985
 5313SOL    HW116682   2.672   3.505   9.917
 5313SOL    HW216683   2.619   3.381   9.987
 5314SOL     OW16684   3.290   2.091  10.427
 5314SOL    HW116685   3.311   2.008  10.469
 5314SOL    HW216686   3.244   2.141  10.495
 5315SOL     OW16687   2.873   1.877  10.441
 5315SOL    HW116688   2.819   1.810  10.400
 5315SOL    HW216689   2.961   1.839  10.444
 5316SOL     OW16690   2.639   3.200   9.630
 5316SOL    HW116691   2.611   3.109   9.636
 5316SOL    HW216692   2.720   3.205   9.679
 5317SOL     OW16693   2.482   3.415  10.601
 5317SOL    HW116694   2.480   3.499  10.645
 5317SOL    HW216695   2.570   3.410  10.562
 5318SOL     OW16696   3.219   1.913   9.482
 5318SOL    HW116697   3.252   1.844   9.425
 5318SOL    HW216698   3.129   1.887   9.503
 5319SOL     OW16699   3.158   2.325   9.988
 5319SOL    HW116700   3.106   2.405   9.991
 5319SOL    HW216701   3.153   2.289  10.076
 5320SOL     OW16702   3.447   2.057  10.193
 5320SOL    HW116703   3.391   2.082  10.267
 5320SOL    HW216704   3.447   2.134  10.136
 5321SOL     OW16705   1.903   2.926   9.620
 5321SOL    HW116706   1.997   2.918   9.602
 5321SOL    HW216707   1.875   2.837   9.641
 5322SOL     OW16708   2.751   3.523   9.648
 5322SOL    HW116709   2.676   3.507   9.591
 5322SOL    HW216710   2.723   3.596   9.704
 5323SOL     OW16711   2.055   4.303   0.086
 5323SOL    HW116712   2.049   4.370   0.154
 5323SOL    HW216713   2.060   4.352   0.004
 5324SOL     OW16714   2.085   4.002   0.991
 5324SOL    HW116715   2.113   3.967   1.076
 5324SOL    HW216716   1.996   3.971   0.980
 5325SOL     OW16717   1.863   4.101   0.644
 5325SOL    HW116718   1.783   4.132   0.688
 5325SOL    HW216719   1.834   4.026   0.592
 5326SOL     OW16720   3.589   4.329   0.239
 5326SOL    HW116721   3.610   4.313   0.147
 5326SOL    HW216722   3.575   4.241   0.275
 5327SOL     OW16723   2.596   0.280   0.687
 5327SOL    HW116724   2.588   0.215   0.757
 5327SOL    HW216725   2.515   0.272   0.637
 5328SOL     OW16726   2.314   4.104   1.476
 5328SOL    HW116727   2.391   4.049   1.485
 5328SOL    HW216728   2.241   4.048   1.501
 5329SOL     OW16729   3.474   4.166   0.745
 5329SOL    HW116730   3.424   4.198   0.670
 5329SOL    HW216731   3.450   4.225   0.817
 5330SOL     OW16732   3.457   3.851   1.465
 5330SOL    HW116733   3.480   3.931   1.417
 5330SOL    HW216734   3.437   3.881   1.553
 5331SOL     OW16735   1.935   4.379   0.569
 5331SOL    HW116736   1.925   4.286   0.590
 5331SOL    HW216737   2.008   4.409   0.623
 5332SOL     OW16738   1.980   4.483   1.582
 5332SOL    HW116739   2.040   0.005   1.654
 5332SOL    HW216740   1.956   0.068   1.544
 5333SOL     OW16741   2.682   3.733   0.516
 5333SOL    HW116742   2.721   3.818   0.494
 5333SOL    HW216743   2.588   3.749   0.520
 5334SOL     OW16744   2.202   3.970   1.828
 5334SOL    HW116745   2.234   4.059   1.836
 5334SOL    HW216746   2.107   3.977   1.844
 5335SOL     OW16747   3.139   4.084   0.935
 5335SOL    HW116748   3.050   4.051   0.944
 5335SOL    HW216749   3.191   4.030   0.993
 5336SOL     OW16750   2.700   4.291   1.441
 5336SOL    HW116751   2.661   4.295   1.528
 5336SOL    HW216752   2.630   4.259   1.384
 5337SOL     OW16753   3.255   4.200   1.677
 5337SOL    HW116754   3.261   4.246   1.761
 5337SOL    HW216755   3.310   4.123   1.688
 5338SOL     OW16756   2.863   4.158   1.233
 5338SOL    HW116757   2.799   4.186   1.298
 5338SOL    HW216758   2.814   4.104   1.172
 5339SOL     OW16759   2.921   4.409   0.412
 5339SOL    HW116760   2.915   4.473   0.483
 5339SOL    HW216761   2.830   4.382   0.396
 5340SOL     OW16762   2.756   4.074   0.208
 5340SOL    HW116763   2.797   4.135   0.147
 5340SOL    HW216764   2.769   3.988   0.169
 5341SOL     OW16765   3.579   4.303   1.834
 5341SOL    HW116766   3.598   4.388   1.793
 5341SOL    HW216767   3.595   4.239   1.764
 5342SOL     OW16768   2.412   3.898   0.897
 5342SOL    HW116769   2.414   3.928   0.988
 5342SOL    HW216770   2.410   3.978   0.845
 5343SOL     OW16771   3.352   4.470   0.741
 5343SOL    HW116772   3.344   4.412   0.817
 5343SOL    HW216773   3.395   0.049   0.776
 5344SOL     OW16774   2.061   3.991   1.507
 5344SOL    HW116775   1.978   4.039   1.507
 5344SOL    HW216776   2.040   3.906   1.544
 5345SOL     OW16777   3.264   3.828   0.436
 5345SOL    HW116778   3.259   3.808   0.343
 5345SOL    HW216779   3.357   3.837   0.454
 5346SOL     OW16780   2.211   4.383   0.403
 5346SOL    HW116781   2.250   4.310   0.449
 5346SOL    HW216782   2.143   4.415   0.462
 5347SOL     OW16783   3.389   3.950   1.724
 5347SOL    HW116784   3.399   3.970   1.817
 5347SOL    HW216785   3.321   3.882   1.721
 5348SOL     OW16786   2.483   3.833   0.130
 5348SOL    HW116787   2.568   3.790   0.118
 5348SOL    HW216788   2.434   3.811   0.050
 5349SOL     OW16789   2.623   4.001   1.755
 5349SOL    HW116790   2.705   3.950   1.752
 5349SOL    HW216791   2.579   3.970   1.834
 5350SOL     OW16792   3.198   4.315   1.433
 5350SOL    HW116793   3.221   4.278   1.518
 5350SOL    HW216794   3.253   4.394   1.426
 5351SOL     OW16795   2.792   4.230   0.895
 5351SOL    HW116796   2.767   4.215   0.805
 5351SOL    HW216797   2.830   4.147   0.924
 5352SOL     OW16798   2.415   3.788   0.501
 5352SOL    HW116799   2.333   3.785   0.551
 5352SOL    HW216800   2.407   3.867   0.447
 5353SOL     OW16801   2.146   3.771   0.207
 5353SOL    HW116802   2.186   3.827   0.141
 5353SOL    HW216803   2.214   3.708   0.230
 5354SOL     OW16804   2.804   3.979   0.462
 5354SOL    HW116805   2.780   4.015   0.377
 5354SOL    HW216806   2.899   3.991   0.468
 5355SOL     OW16807   2.935   4.391   1.542
 5355SOL    HW116808   2.856   4.359   1.498
 5355SOL    HW216809   3.007   4.364   1.484
 5356SOL     OW16810   2.872   4.262   0.039
 5356SOL    HW116811   2.898   4.297  11.054
 5356SOL    HW216812   2.951   4.269   0.093
 5357SOL     OW16813   1.941   4.281   1.397
 5357SOL    HW116814   2.032   4.273   1.369
 5357SOL    HW216815   1.941   4.356   1.457
 5358SOL     OW16816   2.418   3.951   1.167
 5358SOL    HW116817   2.462   3.881   1.216
 5358SOL    HW216818   2.327   3.947   1.197
 5359SOL     OW16819   2.727   4.191   0.637
 5359SOL    HW116820   2.708   4.260   0.573
 5359SOL    HW216821   2.748   4.114   0.584
 5360SOL     OW16822   2.878   3.777   0.746
 5360SOL    HW116823   2.819   3.771   0.672
 5360SOL    HW216824   2.855   3.703   0.801
 5361SOL     OW16825   3.341   4.303   0.955
 5361SOL    HW116826   3.270   4.241   0.974
 5361SOL    HW216827   3.388   4.313   1.038
 5362SOL     OW16828   3.266   4.289   0.076
 5362SOL    HW116829   3.197   4.272   0.140
 5362SOL    HW216830   3.320   4.210   0.078
 5363SOL     OW16831   2.390   3.997   0.327
 5363SOL    HW116832   2.421   3.936   0.260
 5363SOL    HW216833   2.363   4.074   0.277
 5364SOL     OW16834   2.781   3.817   1.390
 5364SOL    HW116835   2.804   3.797   1.300
 5364SOL    HW216836   2.860   3.856   1.427
 5365SOL     OW16837   2.304   0.011   1.295
 5365SOL    HW116838   2.376   4.496   1.356
 5365SOL    HW216839   2.259   4.427   1.289
 5366SOL     OW16840   3.126   4.098   1.281
 5366SOL    HW116841   3.158   4.176   1.326
 5366SOL    HW216842   3.037   4.121   1.254
 5367SOL     OW16843   2.413   4.244   0.864
 5367SOL    HW116844   2.431   4.274   0.775
 5367SOL    HW216845   2.480   4.287   0.918
 5368SOL     OW16846   3.431   4.329   0.491
 5368SOL    HW116847   3.401   4.396   0.552
 5368SOL    HW216848   3.481   4.376   0.425
 5369SOL     OW16849   2.857   3.857   1.756
 5369SOL    HW116850   2.916   3.930   1.735
 5369SOL    HW216851   2.906   3.779   1.730
 5370SOL     OW16852   2.358   3.759   1.751
 5370SOL    HW116853   2.311   3.707   1.686
 5370SOL    HW216854   2.302   3.835   1.767
 5371SOL     OW16855   3.066   4.245   0.257
 5371SOL    HW116856   3.078   4.167   0.312
 5371SOL    HW216857   3.021   4.307   0.313
 5372SOL     OW16858   2.157   3.920   1.247
 5372SOL    HW116859   2.120   3.951   1.330
 5372SOL    HW216860   2.140   3.826   1.248
 5373SOL     OW16861   2.599   4.362   1.031
 5373SOL    HW116862   2.673   4.321   0.986
 5373SOL    HW216863   2.617   4.455   1.026
 5374SOL     OW16864   3.617   0.125   1.848
 5374SOL    HW116865   3.542   0.147   1.792
 5374SOL    HW216866   3.584   0.134   1.937
 5375SOL     OW16867   2.170   3.786   0.625
 5375SOL    HW116868   2.146   3.876   0.645
 5375SOL    HW216869   2.177   3.743   0.711
 5376SOL     OW16870   3.482   4.092   0.359
 5376SOL    HW116871   3.514   4.027   0.422
 5376SOL    HW216872   3.453   4.166   0.414
 5377SOL     OW16873   3.388   4.028   0.108
 5377SOL    HW116874   3.332   3.952   0.123
 5377SOL    HW216875   3.426   4.047   0.194
 5378SOL     OW16876   2.184   0.013   0.916
 5378SOL    HW116877   2.259   0.070   0.928
 5378SOL    HW216878   2.200   4.439   0.975
 5379SOL     OW16879   2.198   4.242   1.024
 5379SOL    HW116880   2.157   4.157   1.007
 5379SOL    HW216881   2.274   4.245   0.965
 5380SOL     OW16882   3.000   4.088   1.690
 5380SOL    HW116883   2.945   4.148   1.741
 5380SOL    HW216884   3.083   4.134   1.681
 5381SOL     OW16885   3.022   3.921   1.471
 5381SOL    HW116886   3.012   3.981   1.544
 5381SOL    HW216887   3.065   3.972   1.402
 5382SOL     OW16888   1.898   4.281   1.117
 5382SOL    HW116889   1.978   4.270   1.066
 5382SOL    HW216890   1.927   4.279   1.208
 5383SOL     OW16891   2.063   4.248   1.712
 5383SOL    HW116892   2.108   4.192   1.649
 5383SOL    HW216893   2.013   4.309   1.658
 5384SOL     OW16894   2.677   4.310   0.329
 5384SOL    HW116895   2.690   4.224   0.289
 5384SOL    HW216896   2.583   4.312   0.351
 5385SOL     OW16897   3.494   4.311   1.181
 5385SOL    HW116898   3.492   4.254   1.258
 5385SOL    HW216899   3.583   4.304   1.147
 5386SOL     OW16900   2.548   4.186   1.243
 5386SOL    HW116901   2.500   4.109   1.214
 5386SOL    HW216902   2.550   4.244   1.167
 5387SOL     OW16903   2.320   4.214   0.173
 5387SOL    HW116904   2.366   4.297   0.185
 5387SOL    HW216905   2.227   4.237   0.170
 5388SOL     OW16906   2.786   3.816   0.091
 5388SOL    HW116907   2.829   3.777   0.014
 5388SOL    HW216908   2.829   3.774   0.166
 5389SOL     OW16909   3.585   3.879   0.507
 5389SOL    HW116910   3.655   3.865   0.443
 5389SOL    HW216911   3.570   3.793   0.545
 5390SOL     OW16912   3.139   0.132   0.674
 5390SOL    HW116913   3.196   0.062   0.707
 5390SOL    HW216914   3.185   0.167   0.598
 5391SOL     OW16915   3.704   3.893   0.966
 5391SOL    HW116916   3.734   3.806   0.941
 5391SOL    HW216917   3.618   3.902   0.926
 5392SOL     OW16918   2.121   4.040   0.715
 5392SOL    HW116919   2.033   4.068   0.691
 5392SOL    HW216920   2.118   4.031   0.811
 5393SOL     OW16921   2.923   0.287   0.746
 5393SOL    HW116922   2.852   0.274   0.683
 5393SOL    HW216923   2.993   0.229   0.716
 5394SOL     OW16924   2.886   3.965   0.961
 5394SOL    HW116925   2.883   3.915   0.879
 5394SOL    HW216926   2.880   3.898   1.030
 5395SOL     OW16927   3.589   4.113   1.381
 5395SOL    HW116928   3.660   4.177   1.380
 5395SOL    HW216929   3.619   4.043   1.323
 5396SOL     OW16930   2.539   3.916   1.499
 5396SOL    HW116931   2.623   3.896   1.459
 5396SOL    HW216932   2.561   3.950   1.586
 5397SOL     OW16933   1.948   4.049   0.064
 5397SOL    HW116934   1.880   4.048  11.096
 5397SOL    HW216935   1.974   4.141   0.071
 5398SOL     OW16936   1.919   3.880   0.303
 5398SOL    HW116937   1.908   3.950   0.239
 5398SOL    HW216938   2.005   3.842   0.283
 5399SOL     OW16939   2.597   4.275   1.694
 5399SOL    HW116940   2.581   4.319   1.777
 5399SOL    HW216941   2.606   4.182   1.718
 5400SOL     OW16942   3.078   4.037   0.453
 5400SOL    HW116943   3.141   3.965   0.447
 5400SOL    HW216944   3.106   4.087   0.530
 5401SOL     OW16945   3.614   4.094   1.654
 5401SOL    HW116946   3.602   4.106   1.560
 5401SOL    HW216947   3.542   4.036   1.680
 5402SOL     OW16948   2.962   0.210   0.048
 5402SOL    HW116949   2.954   0.300   0.019
 5402SOL    HW216950   3.046   0.180   0.013
 5403SOL     OW16951   3.675   3.904   1.237
 5403SOL    HW116952   3.680   3.809   1.249
 5403SOL    HW216953   3.685   3.916   1.143
 5404SOL     OW16954   2.302   4.163   0.539
 5404SOL    HW116955   2.331   4.094   0.480
 5404SOL    HW216956   2.246   4.119   0.602
 5405SOL     OW16957   2.189   4.266   1.298
 5405SOL    HW116958   2.245   4.208   1.350
 5405SOL    HW216959   2.207   4.241   1.207
 5406SOL     OW16960   3.291   3.951   1.117
 5406SOL    HW116961   3.309   3.867   1.159
 5406SOL    HW216962   3.241   4.001   1.182
 5407SOL     OW16963   2.871   3.740   1.135
 5407SOL    HW116964   2.817   3.675   1.091
 5407SOL    HW216965   2.958   3.702   1.137
 5408SOL     OW16966   3.213   3.783   0.165
 5408SOL    HW116967   3.234   3.727   0.090
 5408SOL    HW216968   3.125   3.755   0.192
 5409SOL     OW16969   3.158   4.172   0.676
 5409SOL    HW116970   3.139   4.265   0.687
 5409SOL    HW216971   3.157   4.136   0.765
 5410SOL     OW16972   3.446   3.919   0.882
 5410SOL    HW116973   3.391   3.945   0.956
 5410SOL    HW216974   3.447   3.995   0.824
 5411SOL     OW16975   2.078   4.277   1.982
 5411SOL    HW116976   2.055   4.362   2.018
 5411SOL    HW216977   2.077   4.291   1.887
 5412SOL     OW16978   2.086   4.001   2.853
 5412SOL    HW116979   2.113   3.967   2.938
 5412SOL    HW216980   1.996   3.971   2.842
 5413SOL     OW16981   1.862   4.099   2.505
 5413SOL    HW116982   1.784   4.133   2.549
 5413SOL    HW216983   1.831   4.022   2.457
 5414SOL     OW16984   3.578   4.336   2.104
 5414SOL    HW116985   3.586   4.328   2.009
 5414SOL    HW216986   3.585   4.246   2.136
 5415SOL     OW16987   2.588   0.281   2.550
 5415SOL    HW116988   2.581   0.218   2.621
 5415SOL    HW216989   2.507   0.270   2.500
 5416SOL     OW16990   2.314   4.104   3.338
 5416SOL    HW116991   2.392   4.049   3.347
 5416SOL    HW216992   2.241   4.048   3.363
 5417SOL     OW16993   3.473   4.165   2.606
 5417SOL    HW116994   3.419   4.195   2.533
 5417SOL    HW216995   3.451   4.225   2.678
 5418SOL     OW16996   3.457   3.851   3.327
 5418SOL    HW116997   3.480   3.931   3.280
 5418SOL    HW216998   3.437   3.881   3.415
 5419SOL     OW16999   1.913   4.390   2.450
 5419SOL    HW117000   1.918   4.295   2.456
 5419SOL    HW217001   1.998   4.421   2.481
 5420SOL     OW17002   1.981   4.483   3.444
 5420SOL    HW117003   2.040   0.004   3.516
 5420SOL    HW217004   1.957   0.068   3.406
 5421SOL     OW17005   2.682   3.729   2.375
 5421SOL    HW117006   2.723   3.813   2.352
 5421SOL    HW217007   2.589   3.748   2.380
 5422SOL     OW17008   2.202   3.970   3.689
 5422SOL    HW117009   2.235   4.059   3.698
 5422SOL    HW217010   2.108   3.977   3.705
 5423SOL     OW17011   3.139   4.083   2.797
 5423SOL    HW117012   3.049   4.050   2.806
 5423SOL    HW217013   3.191   4.029   2.855
 5424SOL     OW17014   2.701   4.289   3.303
 5424SOL    HW117015   2.661   4.294   3.390
 5424SOL    HW217016   2.630   4.258   3.246
 5425SOL     OW17017   3.255   4.200   3.539
 5425SOL    HW117018   3.261   4.246   3.623
 5425SOL    HW217019   3.310   4.123   3.550
 5426SOL     OW17020   2.863   4.160   3.094
 5426SOL    HW117021   2.799   4.187   3.160
 5426SOL    HW217022   2.813   4.104   3.035
 5427SOL     OW17023   2.915   4.415   2.270
 5427SOL    HW117024   2.908   4.466   2.351
 5427SOL    HW217025   2.832   4.369   2.264
 5428SOL     OW17026   2.762   4.067   2.050
 5428SOL    HW117027   2.801   4.132   1.991
 5428SOL    HW217028   2.776   3.983   2.006
 5429SOL     OW17029   3.579   4.303   3.696
 5429SOL    HW117030   3.598   4.388   3.656
 5429SOL    HW217031   3.595   4.239   3.626
 5430SOL     OW17032   2.412   3.898   2.759
 5430SOL    HW117033   2.414   3.927   2.850
 5430SOL    HW217034   2.410   3.980   2.708
 5431SOL     OW17035   3.356   4.471   2.601
 5431SOL    HW117036   3.346   4.413   2.677
 5431SOL    HW217037   3.398   0.049   2.637
 5432SOL     OW17038   2.061   3.991   3.368
 5432SOL    HW117039   1.978   4.039   3.370
 5432SOL    HW217040   2.040   3.906   3.407
 5433SOL     OW17041   3.262   3.828   2.302
 5433SOL    HW117042   3.255   3.804   2.209
 5433SOL    HW217043   3.356   3.838   2.317
 5434SOL     OW17044   2.215   4.392   2.271
 5434SOL    HW117045   2.248   4.311   2.310
 5434SOL    HW217046   2.161   4.431   2.339
 5435SOL     OW17047   3.389   3.950   3.586
 5435SOL    HW117048   3.399   3.970   3.679
 5435SOL    HW217049   3.321   3.882   3.583
 5436SOL     OW17050   2.505   3.841   1.965
 5436SOL    HW117051   2.565   3.768   1.983
 5436SOL    HW217052   2.452   3.811   1.892
 5437SOL     OW17053   2.623   4.000   3.617
 5437SOL    HW117054   2.705   3.950   3.614
 5437SOL    HW217055   2.579   3.970   3.696
 5438SOL     OW17056   3.199   4.315   3.295
 5438SOL    HW117057   3.221   4.278   3.380
 5438SOL    HW217058   3.253   4.394   3.288
 5439SOL     OW17059   2.790   4.229   2.753
 5439SOL    HW117060   2.766   4.213   2.662
 5439SOL    HW217061   2.829   4.147   2.783
 5440SOL     OW17062   2.415   3.788   2.358
 5440SOL    HW117063   2.335   3.787   2.410
 5440SOL    HW217064   2.406   3.865   2.302
 5441SOL     OW17065   2.151   3.772   2.048
 5441SOL    HW117066   2.207   3.836   2.004
 5441SOL    HW217067   2.212   3.711   2.089
 5442SOL     OW17068   2.805   3.974   2.316
 5442SOL    HW117069   2.781   4.010   2.231
 5442SOL    HW217070   2.899   3.989   2.323
 5443SOL     OW17071   2.935   4.390   3.404
 5443SOL    HW117072   2.856   4.359   3.360
 5443SOL    HW217073   3.007   4.364   3.346
 5444SOL     OW17074   2.889   4.258   1.893
 5444SOL    HW117075   2.874   4.346   1.857
 5444SOL    HW217076   2.954   4.271   1.962
 5445SOL     OW17077   1.941   4.282   3.259
 5445SOL    HW117078   2.032   4.273   3.231
 5445SOL    HW217079   1.940   4.356   3.319
 5446SOL     OW17080   2.418   3.950   3.029
 5446SOL    HW117081   2.462   3.882   3.080
 5446SOL    HW217082   2.327   3.947   3.059
 5447SOL     OW17083   2.728   4.187   2.494
 5447SOL    HW117084   2.702   4.248   2.426
 5447SOL    HW217085   2.750   4.106   2.448
 5448SOL     OW17086   2.878   3.777   2.608
 5448SOL    HW117087   2.820   3.771   2.533
 5448SOL    HW217088   2.855   3.703   2.663
 5449SOL     OW17089   3.341   4.303   2.815
 5449SOL    HW117090   3.271   4.241   2.835
 5449SOL    HW217091   3.388   4.313   2.898
 5450SOL     OW17092   3.268   4.297   1.936
 5450SOL    HW117093   3.204   4.266   2.001
 5450SOL    HW217094   3.350   4.256   1.963
 5451SOL     OW17095   2.392   3.989   2.175
 5451SOL    HW117096   2.438   3.941   2.106
 5451SOL    HW217097   2.371   4.074   2.136
 5452SOL     OW17098   2.781   3.817   3.252
 5452SOL    HW117099   2.804   3.797   3.162
 5452SOL    HW217100   2.860   3.856   3.290
 5453SOL     OW17101   2.304   0.011   3.157
 5453SOL    HW117102   2.376   4.496   3.219
 5453SOL    HW217103   2.259   4.427   3.152
 5454SOL     OW17104   3.126   4.098   3.143
 5454SOL    HW117105   3.158   4.176   3.188
 5454SOL    HW217106   3.037   4.121   3.116
 5455SOL     OW17107   2.414   4.244   2.726
 5455SOL    HW117108   2.431   4.275   2.637
 5455SOL    HW217109   2.480   4.286   2.780
 5456SOL     OW17110   3.427   4.329   2.353
 5456SOL    HW117111   3.408   4.396   2.419
 5456SOL    HW217112   3.485   4.373   2.291
 5457SOL     OW17113   2.857   3.857   3.618
 5457SOL    HW117114   2.916   3.930   3.597
 5457SOL    HW217115   2.906   3.779   3.592
 5458SOL     OW17116   2.359   3.759   3.613
 5458SOL    HW117117   2.311   3.707   3.548
 5458SOL    HW217118   2.303   3.835   3.628
 5459SOL     OW17119   3.067   4.250   2.120
 5459SOL    HW117120   3.078   4.171   2.173
 5459SOL    HW217121   3.020   4.311   2.177
 5460SOL     OW17122   2.157   3.920   3.109
 5460SOL    HW117123   2.120   3.952   3.192
 5460SOL    HW217124   2.140   3.826   3.110
 5461SOL     OW17125   2.599   4.361   2.892
 5461SOL    HW117126   2.672   4.321   2.846
 5461SOL    HW217127   2.618   4.455   2.891
 5462SOL     OW17128   3.617   0.124   3.709
 5462SOL    HW117129   3.542   0.147   3.654
 5462SOL    HW217130   3.584   0.134   3.799
 5463SOL     OW17131   2.171   3.786   2.486
 5463SOL    HW117132   2.147   3.876   2.506
 5463SOL    HW217133   2.178   3.743   2.572
 5464SOL     OW17134   3.478   4.090   2.226
 5464SOL    HW117135   3.512   4.029   2.291
 5464SOL    HW217136   3.450   4.166   2.277
 5465SOL     OW17137   3.382   3.999   1.987
 5465SOL    HW117138   3.321   3.930   2.014
 5465SOL    HW217139   3.420   4.031   2.069
 5466SOL     OW17140   2.185   0.012   2.776
 5466SOL    HW117141   2.259   0.071   2.788
 5466SOL    HW217142   2.201   4.440   2.838
 5467SOL     OW17143   2.199   4.241   2.887
 5467SOL    HW117144   2.157   4.157   2.869
 5467SOL    HW217145   2.274   4.244   2.827
 5468SOL     OW17146   3.000   4.088   3.552
 5468SOL    HW117147   2.945   4.148   3.603
 5468SOL    HW217148   3.083   4.134   3.543
 5469SOL     OW17149   3.022   3.921   3.332
 5469SOL    HW117150   3.012   3.981   3.406
 5469SOL    HW217151   3.065   3.973   3.264
 5470SOL     OW17152   1.898   4.280   2.979
 5470SOL    HW117153   1.978   4.270   2.928
 5470SOL    HW217154   1.927   4.278   3.071
 5471SOL     OW17155   2.062   4.249   3.574
 5471SOL    HW117156   2.109   4.193   3.511
 5471SOL    HW217157   2.013   4.310   3.519
 5472SOL     OW17158   2.683   4.273   2.224
 5472SOL    HW117159   2.692   4.202   2.161
 5472SOL    HW217160   2.597   4.310   2.207
 5473SOL     OW17161   3.493   4.311   3.042
 5473SOL    HW117162   3.492   4.255   3.119
 5473SOL    HW217163   3.583   4.304   3.008
 5474SOL     OW17164   2.548   4.186   3.105
 5474SOL    HW117165   2.500   4.109   3.076
 5474SOL    HW217166   2.550   4.244   3.028
 5475SOL     OW17167   2.338   4.225   2.052
 5475SOL    HW117168   2.360   4.312   2.087
 5475SOL    HW217169   2.244   4.230   2.032
 5476SOL     OW17170   3.589   3.878   2.371
 5476SOL    HW117171   3.658   3.862   2.307
 5476SOL    HW217172   3.570   3.792   2.409
 5477SOL     OW17173   3.141   0.132   2.538
 5477SOL    HW117174   3.200   0.062   2.566
 5477SOL    HW217175   3.188   0.177   2.467
 5478SOL     OW17176   3.704   3.893   2.829
 5478SOL    HW117177   3.734   3.805   2.803
 5478SOL    HW217178   3.618   3.902   2.788
 5479SOL     OW17179   2.121   4.039   2.577
 5479SOL    HW117180   2.033   4.067   2.553
 5479SOL    HW217181   2.118   4.031   2.672
 5480SOL     OW17182   2.763   0.087   2.061
 5480SOL    HW117183   2.843   0.123   2.022
 5480SOL    HW217184   2.789   0.062   2.150
 5481SOL     OW17185   2.928   0.288   2.616
 5481SOL    HW117186   2.864   0.293   2.545
 5481SOL    HW217187   2.994   0.226   2.584
 5482SOL     OW17188   2.886   3.965   2.822
 5482SOL    HW117189   2.883   3.914   2.741
 5482SOL    HW217190   2.880   3.899   2.892
 5483SOL     OW17191   3.589   4.113   3.244
 5483SOL    HW117192   3.660   4.177   3.242
 5483SOL    HW217193   3.619   4.043   3.185
 5484SOL     OW17194   2.539   3.916   3.361
 5484SOL    HW117195   2.624   3.896   3.321
 5484SOL    HW217196   2.561   3.950   3.448
 5485SOL     OW17197   1.937   4.033   1.892
 5485SOL    HW117198   1.864   4.039   1.829
 5485SOL    HW217199   1.966   4.123   1.903
 5486SOL     OW17200   1.924   3.876   2.164
 5486SOL    HW117201   1.907   3.951   2.106
 5486SOL    HW217202   2.009   3.844   2.136
 5487SOL     OW17203   2.597   4.275   3.556
 5487SOL    HW117204   2.581   4.320   3.639
 5487SOL    HW217205   2.606   4.183   3.580
 5488SOL     OW17206   3.079   4.041   2.314
 5488SOL    HW117207   3.140   3.967   2.309
 5488SOL    HW217208   3.106   4.090   2.392
 5489SOL     OW17209   3.614   4.094   3.516
 5489SOL    HW117210   3.602   4.106   3.422
 5489SOL    HW217211   3.543   4.036   3.542
 5490SOL     OW17212   2.977   0.220   1.961
 5490SOL    HW117213   2.975   0.265   1.876
 5490SOL    HW217214   3.068   0.189   1.969
 5491SOL     OW17215   3.675   3.904   3.099
 5491SOL    HW117216   3.680   3.809   3.111
 5491SOL    HW217217   3.685   3.917   3.005
 5492SOL     OW17218   2.297   4.163   2.395
 5492SOL    HW117219   2.327   4.092   2.338
 5492SOL    HW217220   2.243   4.119   2.461
 5493SOL     OW17221   2.189   4.266   3.160
 5493SOL    HW117222   2.245   4.208   3.212
 5493SOL    HW217223   2.207   4.241   3.069
 5494SOL     OW17224   3.291   3.951   2.979
 5494SOL    HW117225   3.310   3.868   3.023
 5494SOL    HW217226   3.242   4.001   3.044
 5495SOL     OW17227   2.871   3.740   2.997
 5495SOL    HW117228   2.817   3.675   2.953
 5495SOL    HW217229   2.958   3.702   2.999
 5496SOL     OW17230   3.220   3.775   2.032
 5496SOL    HW117231   3.253   3.704   1.977
 5496SOL    HW217232   3.130   3.749   2.054
 5497SOL     OW17233   3.158   4.174   2.539
 5497SOL    HW117234   3.138   4.266   2.552
 5497SOL    HW217235   3.157   4.136   2.627
 5498SOL     OW17236   3.446   3.918   2.744
 5498SOL    HW117237   3.391   3.945   2.818
 5498SOL    HW217238   3.447   3.995   2.686
 5499SOL     OW17239   2.078   4.277   3.844
 5499SOL    HW117240   2.056   4.363   3.880
 5499SOL    HW217241   2.077   4.291   3.749
 5500SOL     OW17242   2.086   4.002   4.715
 5500SOL    HW117243   2.113   3.968   4.800
 5500SOL    HW217244   1.996   3.972   4.704
 5501SOL     OW17245   1.862   4.099   4.367
 5501SOL    HW117246   1.784   4.132   4.411
 5501SOL    HW217247   1.831   4.022   4.319
 5502SOL     OW17248   3.578   4.336   3.966
 5502SOL    HW117249   3.586   4.328   3.871
 5502SOL    HW217250   3.585   4.246   3.998
 5503SOL     OW17251   2.587   0.281   4.411
 5503SOL    HW117252   2.580   0.217   4.482
 5503SOL    HW217253   2.505   0.272   4.363
 5504SOL     OW17254   2.314   4.106   5.202
 5504SOL    HW117255   2.392   4.051   5.210
 5504SOL    HW217256   2.241   4.048   5.225
 5505SOL     OW17257   3.473   4.165   4.468
 5505SOL    HW117258   3.419   4.196   4.395
 5505SOL    HW217259   3.451   4.225   4.540
 5506SOL     OW17260   3.458   3.851   5.189
 5506SOL    HW117261   3.480   3.931   5.141
 5506SOL    HW217262   3.437   3.881   5.277
 5507SOL     OW17263   1.911   4.392   4.314
 5507SOL    HW117264   1.916   4.296   4.319
 5507SOL    HW217265   1.997   4.422   4.343
 5508SOL     OW17266   1.981   4.483   5.306
 5508SOL    HW117267   2.041   0.004   5.377
 5508SOL    HW217268   1.958   0.068   5.268
 5509SOL     OW17269   2.682   3.730   4.233
 5509SOL    HW117270   2.722   3.814   4.212
 5509SOL    HW217271   2.589   3.749   4.240
 5510SOL     OW17272   2.201   3.969   5.552
 5510SOL    HW117273   2.235   4.059   5.559
 5510SOL    HW217274   2.107   3.978   5.568
 5511SOL     OW17275   3.139   4.083   4.659
 5511SOL    HW117276   3.049   4.050   4.668
 5511SOL    HW217277   3.191   4.029   4.717
 5512SOL     OW17278   2.700   4.289   5.165
 5512SOL    HW117279   2.660   4.294   5.252
 5512SOL    HW217280   2.630   4.259   5.108
 5513SOL     OW17281   3.255   4.200   5.401
 5513SOL    HW117282   3.261   4.246   5.485
 5513SOL    HW217283   3.309   4.123   5.412
 5514SOL     OW17284   2.863   4.159   4.956
 5514SOL    HW117285   2.799   4.187   5.022
 5514SOL    HW217286   2.814   4.103   4.896
 5515SOL     OW17287   2.916   4.415   4.133
 5515SOL    HW117288   2.909   4.466   4.213
 5515SOL    HW217289   2.832   4.369   4.126
 5516SOL     OW17290   2.762   4.067   3.912
 5516SOL    HW117291   2.801   4.132   3.853
 5516SOL    HW217292   2.776   3.983   3.869
 5517SOL     OW17293   3.579   4.303   5.558
 5517SOL    HW117294   3.597   4.388   5.517
 5517SOL    HW217295   3.595   4.239   5.488
 5518SOL     OW17296   2.411   3.900   4.620
 5518SOL    HW117297   2.414   3.928   4.711
 5518SOL    HW217298   2.410   3.981   4.569
 5519SOL     OW17299   3.356   4.471   4.463
 5519SOL    HW117300   3.346   4.413   4.539
 5519SOL    HW217301   3.398   0.050   4.499
 5520SOL     OW17302   2.061   3.992   5.230
 5520SOL    HW117303   1.979   4.040   5.232
 5520SOL    HW217304   2.040   3.907   5.269
 5521SOL     OW17305   3.262   3.828   4.164
 5521SOL    HW117306   3.255   3.804   4.071
 5521SOL    HW217307   3.356   3.837   4.179
 5522SOL     OW17308   2.215   4.392   4.133
 5522SOL    HW117309   2.248   4.311   4.171
 5522SOL    HW217310   2.163   4.432   4.203
 5523SOL     OW17311   3.388   3.950   5.447
 5523SOL    HW117312   3.399   3.970   5.541
 5523SOL    HW217313   3.321   3.882   5.445
 5524SOL     OW17314   2.505   3.841   3.827
 5524SOL    HW117315   2.564   3.768   3.846
 5524SOL    HW217316   2.452   3.811   3.753
 5525SOL     OW17317   2.624   4.001   5.480
 5525SOL    HW117318   2.705   3.950   5.477
 5525SOL    HW217319   2.579   3.970   5.559
 5526SOL     OW17320   3.199   4.316   5.157
 5526SOL    HW117321   3.221   4.279   5.242
 5526SOL    HW217322   3.253   4.394   5.150
 5527SOL     OW17323   2.790   4.228   4.616
 5527SOL    HW117324   2.765   4.212   4.524
 5527SOL    HW217325   2.828   4.146   4.645
 5528SOL     OW17326   2.414   3.788   4.220
 5528SOL    HW117327   2.334   3.787   4.273
 5528SOL    HW217328   2.406   3.865   4.164
 5529SOL     OW17329   2.151   3.772   3.910
 5529SOL    HW117330   2.208   3.836   3.867
 5529SOL    HW217331   2.212   3.711   3.952
 5530SOL     OW17332   2.805   3.975   4.178
 5530SOL    HW117333   2.781   4.011   4.093
 5530SOL    HW217334   2.899   3.990   4.185
 5531SOL     OW17335   2.935   4.389   5.267
 5531SOL    HW117336   2.856   4.359   5.223
 5531SOL    HW217337   3.006   4.365   5.209
 5532SOL     OW17338   2.889   4.258   3.754
 5532SOL    HW117339   2.874   4.346   3.719
 5532SOL    HW217340   2.954   4.271   3.824
 5533SOL     OW17341   1.941   4.281   5.121
 5533SOL    HW117342   2.032   4.273   5.094
 5533SOL    HW217343   1.941   4.356   5.181
 5534SOL     OW17344   2.418   3.951   4.891
 5534SOL    HW117345   2.463   3.881   4.939
 5534SOL    HW217346   2.328   3.947   4.921
 5535SOL     OW17347   2.728   4.187   4.357
 5535SOL    HW117348   2.702   4.248   4.288
 5535SOL    HW217349   2.750   4.106   4.310
 5536SOL     OW17350   2.880   3.777   4.469
 5536SOL    HW117351   2.821   3.770   4.393
 5536SOL    HW217352   2.856   3.703   4.524
 5537SOL     OW17353   3.341   4.303   4.677
 5537SOL    HW117354   3.271   4.242   4.697
 5537SOL    HW217355   3.388   4.313   4.760
 5538SOL     OW17356   3.268   4.297   3.798
 5538SOL    HW117357   3.204   4.266   3.862
 5538SOL    HW217358   3.350   4.257   3.825
 5539SOL     OW17359   2.392   3.989   4.037
 5539SOL    HW117360   2.438   3.941   3.968
 5539SOL    HW217361   2.371   4.074   3.998
 5540SOL     OW17362   2.780   3.819   5.114
 5540SOL    HW117363   2.803   3.798   5.024
 5540SOL    HW217364   2.860   3.856   5.151
 5541SOL     OW17365   2.303   0.011   5.020
 5541SOL    HW117366   2.376   4.496   5.080
 5541SOL    HW217367   2.258   4.427   5.014
 5542SOL     OW17368   3.126   4.098   5.005
 5542SOL    HW117369   3.158   4.176   5.050
 5542SOL    HW217370   3.037   4.121   4.978
 5543SOL     OW17371   2.414   4.244   4.587
 5543SOL    HW117372   2.432   4.275   4.499
 5543SOL    HW217373   2.480   4.287   4.642
 5544SOL     OW17374   3.427   4.329   4.215
 5544SOL    HW117375   3.408   4.396   4.281
 5544SOL    HW217376   3.485   4.373   4.153
 5545SOL     OW17377   2.858   3.857   5.481
 5545SOL    HW117378   2.917   3.929   5.459
 5545SOL    HW217379   2.905   3.778   5.454
 5546SOL     OW17380   2.359   3.760   5.475
 5546SOL    HW117381   2.311   3.707   5.411
 5546SOL    HW217382   2.302   3.836   5.491
 5547SOL     OW17383   3.067   4.250   3.982
 5547SOL    HW117384   3.078   4.171   4.035
 5547SOL    HW217385   3.020   4.311   4.039
 5548SOL     OW17386   2.158   3.922   4.971
 5548SOL    HW117387   2.120   3.953   5.054
 5548SOL    HW217388   2.141   3.828   4.971
 5549SOL     OW17389   2.599   4.361   4.754
 5549SOL    HW117390   2.672   4.320   4.708
 5549SOL    HW217391   2.618   4.455   4.752
 5550SOL     OW17392   3.617   0.125   5.572
 5550SOL    HW117393   3.543   0.147   5.515
 5550SOL    HW217394   3.583   0.135   5.661
 5551SOL     OW17395   2.171   3.786   4.349
 5551SOL    HW117396   2.147   3.876   4.369
 5551SOL    HW217397   2.179   3.743   4.434
 5552SOL     OW17398   3.478   4.090   4.088
 5552SOL    HW117399   3.512   4.028   4.153
 5552SOL    HW217400   3.450   4.166   4.139
 5553SOL     OW17401   3.383   3.999   3.849
 5553SOL    HW117402   3.321   3.930   3.876
 5553SOL    HW217403   3.420   4.031   3.931
 5554SOL     OW17404   2.185   0.012   4.638
 5554SOL    HW117405   2.259   0.072   4.649
 5554SOL    HW217406   2.201   4.441   4.699
 5555SOL     OW17407   2.199   4.242   4.749
 5555SOL    HW117408   2.158   4.157   4.730
 5555SOL    HW217409   2.274   4.245   4.689
 5556SOL     OW17410   3.000   4.088   5.414
 5556SOL    HW117411   2.945   4.148   5.465
 5556SOL    HW217412   3.083   4.134   5.405
 5557SOL     OW17413   3.022   3.921   5.195
 5557SOL    HW117414   3.012   3.981   5.268
 5557SOL    HW217415   3.065   3.972   5.126
 5558SOL     OW17416   1.898   4.280   4.842
 5558SOL    HW117417   1.977   4.270   4.790
 5558SOL    HW217418   1.928   4.278   4.933
 5559SOL     OW17419   2.064   4.248   5.435
 5559SOL    HW117420   2.112   4.195   5.372
 5559SOL    HW217421   2.013   4.310   5.382
 5560SOL     OW17422   2.683   4.273   4.087
 5560SOL    HW117423   2.692   4.203   4.023
 5560SOL    HW217424   2.597   4.311   4.069
 5561SOL     OW17425   3.493   4.311   4.904
 5561SOL    HW117426   3.492   4.254   4.981
 5561SOL    HW217427   3.583   4.304   4.870
 5562SOL     OW17428   2.546   4.188   4.967
 5562SOL    HW117429   2.500   4.109   4.937
 5562SOL    HW217430   2.550   4.244   4.890
 5563SOL     OW17431   2.338   4.225   3.914
 5563SOL    HW117432   2.360   4.312   3.947
 5563SOL    HW217433   2.244   4.231   3.894
 5564SOL     OW17434   3.589   3.878   4.233
 5564SOL    HW117435   3.658   3.862   4.169
 5564SOL    HW217436   3.570   3.792   4.271
 5565SOL     OW17437   3.140   0.132   4.400
 5565SOL    HW117438   3.200   0.062   4.426
 5565SOL    HW217439   3.187   0.179   4.332
 5566SOL     OW17440   3.704   3.893   4.691
 5566SOL    HW117441   3.733   3.805   4.665
 5566SOL    HW217442   3.618   3.902   4.650
 5567SOL     OW17443   2.121   4.039   4.439
 5567SOL    HW117444   2.033   4.067   4.415
 5567SOL    HW217445   2.118   4.031   4.534
 5568SOL     OW17446   2.763   0.087   3.923
 5568SOL    HW117447   2.843   0.123   3.884
 5568SOL    HW217448   2.788   0.063   4.012
 5569SOL     OW17449   2.928   0.287   4.479
 5569SOL    HW117450   2.865   0.295   4.407
 5569SOL    HW217451   2.993   0.225   4.447
 5570SOL     OW17452   2.886   3.964   4.684
 5570SOL    HW117453   2.883   3.914   4.603
 5570SOL    HW217454   2.880   3.898   4.753
 5571SOL     OW17455   3.589   4.113   5.106
 5571SOL    HW117456   3.660   4.177   5.104
 5571SOL    HW217457   3.619   4.043   5.047
 5572SOL     OW17458   2.540   3.923   5.225
 5572SOL    HW117459   2.623   3.901   5.184
 5572SOL    HW217460   2.563   3.956   5.312
 5573SOL     OW17461   1.937   4.033   3.754
 5573SOL    HW117462   1.865   4.040   3.691
 5573SOL    HW217463   1.967   4.123   3.766
 5574SOL     OW17464   1.923   3.876   4.026
 5574SOL    HW117465   1.907   3.951   3.968
 5574SOL    HW217466   2.009   3.844   3.998
 5575SOL     OW17467   2.597   4.275   5.418
 5575SOL    HW117468   2.584   4.320   5.501
 5575SOL    HW217469   2.606   4.183   5.442
 5576SOL     OW17470   3.079   4.041   4.176
 5576SOL    HW117471   3.140   3.967   4.171
 5576SOL    HW217472   3.106   4.090   4.254
 5577SOL     OW17473   3.614   4.094   5.379
 5577SOL    HW117474   3.602   4.106   5.284
 5577SOL    HW217475   3.542   4.036   5.404
 5578SOL     OW17476   2.977   0.221   3.823
 5578SOL    HW117477   2.975   0.266   3.739
 5578SOL    HW217478   3.067   0.189   3.831
 5579SOL     OW17479   3.676   3.904   4.961
 5579SOL    HW117480   3.680   3.809   4.973
 5579SOL    HW217481   3.685   3.917   4.867
 5580SOL     OW17482   2.297   4.163   4.257
 5580SOL    HW117483   2.328   4.092   4.201
 5580SOL    HW217484   2.243   4.119   4.323
 5581SOL     OW17485   2.189   4.266   5.022
 5581SOL    HW117486   2.245   4.208   5.074
 5581SOL    HW217487   2.207   4.241   4.931
 5582SOL     OW17488   3.291   3.951   4.841
 5582SOL    HW117489   3.309   3.867   4.884
 5582SOL    HW217490   3.242   4.001   4.906
 5583SOL     OW17491   2.870   3.741   4.860
 5583SOL    HW117492   2.816   3.676   4.816
 5583SOL    HW217493   2.958   3.702   4.861
 5584SOL     OW17494   3.219   3.775   3.894
 5584SOL    HW117495   3.253   3.704   3.839
 5584SOL    HW217496   3.130   3.749   3.916
 5585SOL     OW17497   3.158   4.174   4.401
 5585SOL    HW117498   3.138   4.266   4.414
 5585SOL    HW217499   3.157   4.136   4.489
 5586SOL     OW17500   3.446   3.919   4.606
 5586SOL    HW117501   3.391   3.945   4.680
 5586SOL    HW217502   3.447   3.995   4.548
 5587SOL     OW17503   2.077   4.277   5.706
 5587SOL    HW117504   2.057   4.363   5.742
 5587SOL    HW217505   2.077   4.291   5.611
 5588SOL     OW17506   2.086   4.001   6.577
 5588SOL    HW117507   2.113   3.967   6.662
 5588SOL    HW217508   1.996   3.970   6.566
 5589SOL     OW17509   1.862   4.099   6.229
 5589SOL    HW117510   1.784   4.133   6.273
 5589SOL    HW217511   1.831   4.022   6.181
 5590SOL     OW17512   3.578   4.336   5.829
 5590SOL    HW117513   3.586   4.329   5.733
 5590SOL    HW217514   3.585   4.246   5.860
 5591SOL     OW17515   2.587   0.281   6.274
 5591SOL    HW117516   2.581   0.217   6.345
 5591SOL    HW217517   2.506   0.270   6.224
 5592SOL     OW17518   2.314   4.104   7.062
 5592SOL    HW117519   2.392   4.049   7.071
 5592SOL    HW217520   2.241   4.048   7.087
 5593SOL     OW17521   3.473   4.165   6.330
 5593SOL    HW117522   3.420   4.196   6.256
 5593SOL    HW217523   3.451   4.225   6.402
 5594SOL     OW17524   3.458   3.851   7.051
 5594SOL    HW117525   3.480   3.931   7.004
 5594SOL    HW217526   3.437   3.881   7.139
 5595SOL     OW17527   1.912   4.391   6.174
 5595SOL    HW117528   1.918   4.295   6.181
 5595SOL    HW217529   1.998   4.422   6.205
 5596SOL     OW17530   1.981   4.483   7.168
 5596SOL    HW117531   2.040   0.004   7.240
 5596SOL    HW217532   1.957   0.068   7.130
 5597SOL     OW17533   2.682   3.730   6.099
 5597SOL    HW117534   2.722   3.813   6.076
 5597SOL    HW217535   2.588   3.749   6.104
 5598SOL     OW17536   2.201   3.970   7.413
 5598SOL    HW117537   2.234   4.059   7.422
 5598SOL    HW217538   2.107   3.977   7.429
 5599SOL     OW17539   3.139   4.083   6.521
 5599SOL    HW117540   3.049   4.050   6.531
 5599SOL    HW217541   3.191   4.029   6.579
 5600SOL     OW17542   2.700   4.290   7.027
 5600SOL    HW117543   2.661   4.294   7.114
 5600SOL    HW217544   2.630   4.259   6.970
 5601SOL     OW17545   3.255   4.200   7.263
 5601SOL    HW117546   3.261   4.245   7.347
 5601SOL    HW217547   3.309   4.122   7.274
 5602SOL     OW17548   2.863   4.160   6.818
 5602SOL    HW117549   2.799   4.187   6.884
 5602SOL    HW217550   2.814   4.104   6.759
 5603SOL     OW17551   2.915   4.415   5.994
 5603SOL    HW117552   2.908   4.466   6.075
 5603SOL    HW217553   2.832   4.369   5.988
 5604SOL     OW17554   2.762   4.067   5.774
 5604SOL    HW117555   2.800   4.132   5.715
 5604SOL    HW217556   2.778   3.983   5.731
 5605SOL     OW17557   3.579   4.303   7.420
 5605SOL    HW117558   3.598   4.388   7.379
 5605SOL    HW217559   3.595   4.239   7.350
 5606SOL     OW17560   2.411   3.899   6.483
 5606SOL    HW117561   2.414   3.927   6.574
 5606SOL    HW217562   2.410   3.981   6.433
 5607SOL     OW17563   3.356   4.471   6.326
 5607SOL    HW117564   3.345   4.413   6.401
 5607SOL    HW217565   3.398   0.049   6.361
 5608SOL     OW17566   2.061   3.991   7.092
 5608SOL    HW117567   1.978   4.039   7.094
 5608SOL    HW217568   2.040   3.906   7.131
 5609SOL     OW17569   3.262   3.828   6.026
 5609SOL    HW117570   3.255   3.804   5.933
 5609SOL    HW217571   3.356   3.837   6.041
 5610SOL     OW17572   2.215   4.393   5.995
 5610SOL    HW117573   2.248   4.311   6.034
 5610SOL    HW217574   2.162   4.432   6.064
 5611SOL     OW17575   3.388   3.949   7.310
 5611SOL    HW117576   3.399   3.970   7.403
 5611SOL    HW217577   3.321   3.882   7.307
 5612SOL     OW17578   2.505   3.840   5.690
 5612SOL    HW117579   2.565   3.767   5.707
 5612SOL    HW217580   2.452   3.811   5.616
 5613SOL     OW17581   2.623   4.001   7.341
 5613SOL    HW117582   2.705   3.950   7.338
 5613SOL    HW217583   2.579   3.969   7.420
 5614SOL     OW17584   3.198   4.315   7.019
 5614SOL    HW117585   3.221   4.278   7.104
 5614SOL    HW217586   3.253   4.394   7.012
 5615SOL     OW17587   2.790   4.229   6.477
 5615SOL    HW117588   2.766   4.212   6.386
 5615SOL    HW217589   2.829   4.147   6.507
 5616SOL     OW17590   2.414   3.788   6.082
 5616SOL    HW117591   2.334   3.787   6.134
 5616SOL    HW217592   2.406   3.865   6.026
 5617SOL     OW17593   2.151   3.771   5.772
 5617SOL    HW117594   2.207   3.835   5.728
 5617SOL    HW217595   2.213   3.710   5.813
 5618SOL     OW17596   2.805   3.974   6.040
 5618SOL    HW117597   2.781   4.010   5.955
 5618SOL    HW217598   2.899   3.989   6.047
 5619SOL     OW17599   2.935   4.390   7.129
 5619SOL    HW117600   2.856   4.359   7.084
 5619SOL    HW217601   3.006   4.365   7.071
 5620SOL     OW17602   2.889   4.259   5.617
 5620SOL    HW117603   2.875   4.346   5.581
 5620SOL    HW217604   2.954   4.272   5.686
 5621SOL     OW17605   1.941   4.282   6.983
 5621SOL    HW117606   2.032   4.273   6.955
 5621SOL    HW217607   1.940   4.356   7.043
 5622SOL     OW17608   2.418   3.950   6.753
 5622SOL    HW117609   2.462   3.882   6.804
 5622SOL    HW217610   2.327   3.946   6.783
 5623SOL     OW17611   2.728   4.186   6.218
 5623SOL    HW117612   2.702   4.247   6.149
 5623SOL    HW217613   2.751   4.106   6.172
 5624SOL     OW17614   2.879   3.778   6.332
 5624SOL    HW117615   2.820   3.771   6.257
 5624SOL    HW217616   2.856   3.703   6.388
 5625SOL     OW17617   3.341   4.303   6.539
 5625SOL    HW117618   3.271   4.241   6.559
 5625SOL    HW217619   3.388   4.313   6.622
 5626SOL     OW17620   3.268   4.297   5.660
 5626SOL    HW117621   3.204   4.266   5.724
 5626SOL    HW217622   3.351   4.256   5.687
 5627SOL     OW17623   2.392   3.989   5.900
 5627SOL    HW117624   2.437   3.941   5.830
 5627SOL    HW217625   2.371   4.074   5.860
 5628SOL     OW17626   2.780   3.818   6.976
 5628SOL    HW117627   2.804   3.797   6.885
 5628SOL    HW217628   2.860   3.856   7.013
 5629SOL     OW17629   2.304   0.011   6.881
 5629SOL    HW117630   2.376   4.496   6.942
 5629SOL    HW217631   2.259   4.427   6.876
 5630SOL     OW17632   3.126   4.098   6.867
 5630SOL    HW117633   3.158   4.176   6.912
 5630SOL    HW217634   3.037   4.122   6.840
 5631SOL     OW17635   2.414   4.243   6.449
 5631SOL    HW117636   2.431   4.275   6.361
 5631SOL    HW217637   2.480   4.286   6.504
 5632SOL     OW17638   3.427   4.329   6.077
 5632SOL    HW117639   3.408   4.396   6.143
 5632SOL    HW217640   3.485   4.373   6.015
 5633SOL     OW17641   2.857   3.857   7.342
 5633SOL    HW117642   2.917   3.929   7.321
 5633SOL    HW217643   2.905   3.778   7.316
 5634SOL     OW17644   2.359   3.759   7.337
 5634SOL    HW117645   2.311   3.707   7.272
 5634SOL    HW217646   2.302   3.835   7.352
 5635SOL     OW17647   3.067   4.250   5.844
 5635SOL    HW117648   3.078   4.171   5.897
 5635SOL    HW217649   3.020   4.311   5.901
 5636SOL     OW17650   2.157   3.920   6.833
 5636SOL    HW117651   2.120   3.951   6.915
 5636SOL    HW217652   2.140   3.826   6.833
 5637SOL     OW17653   2.599   4.361   6.616
 5637SOL    HW117654   2.672   4.320   6.570
 5637SOL    HW217655   2.618   4.454   6.615
 5638SOL     OW17656   3.617   0.125   7.434
 5638SOL    HW117657   3.543   0.147   7.378
 5638SOL    HW217658   3.584   0.135   7.523
 5639SOL     OW17659   2.169   3.784   6.209
 5639SOL    HW117660   2.145   3.874   6.229
 5639SOL    HW217661   2.177   3.742   6.295
 5640SOL     OW17662   3.478   4.090   5.950
 5640SOL    HW117663   3.512   4.028   6.015
 5640SOL    HW217664   3.450   4.166   6.001
 5641SOL     OW17665   3.382   3.999   5.711
 5641SOL    HW117666   3.321   3.930   5.738
 5641SOL    HW217667   3.420   4.031   5.793
 5642SOL     OW17668   2.185   0.012   6.500
 5642SOL    HW117669   2.259   0.071   6.512
 5642SOL    HW217670   2.201   4.441   6.561
 5643SOL     OW17671   2.199   4.241   6.611
 5643SOL    HW117672   2.157   4.157   6.593
 5643SOL    HW217673   2.273   4.244   6.551
 5644SOL     OW17674   3.000   4.088   7.275
 5644SOL    HW117675   2.945   4.148   7.327
 5644SOL    HW217676   3.083   4.134   7.267
 5645SOL     OW17677   3.022   3.921   7.056
 5645SOL    HW117678   3.012   3.981   7.130
 5645SOL    HW217679   3.065   3.973   6.988
 5646SOL     OW17680   1.898   4.280   6.703
 5646SOL    HW117681   1.978   4.270   6.652
 5646SOL    HW217682   1.927   4.278   6.795
 5647SOL     OW17683   2.062   4.248   7.298
 5647SOL    HW117684   2.109   4.193   7.236
 5647SOL    HW217685   2.013   4.309   7.243
 5648SOL     OW17686   2.683   4.273   5.949
 5648SOL    HW117687   2.692   4.202   5.885
 5648SOL    HW217688   2.597   4.311   5.930
 5649SOL     OW17689   3.493   4.311   6.766
 5649SOL    HW117690   3.492   4.254   6.843
 5649SOL    HW217691   3.583   4.304   6.732
 5650SOL     OW17692   2.547   4.187   6.829
 5650SOL    HW117693   2.500   4.109   6.800
 5650SOL    HW217694   2.550   4.244   6.752
 5651SOL     OW17695   2.337   4.225   5.776
 5651SOL    HW117696   2.360   4.312   5.808
 5651SOL    HW217697   2.244   4.230   5.757
 5652SOL     OW17698   3.589   3.878   6.095
 5652SOL    HW117699   3.658   3.862   6.031
 5652SOL    HW217700   3.570   3.792   6.133
 5653SOL     OW17701   3.141   0.133   6.262
 5653SOL    HW117702   3.200   0.063   6.290
 5653SOL    HW217703   3.188   0.175   6.190
 5654SOL     OW17704   3.704   3.893   6.553
 5654SOL    HW117705   3.733   3.805   6.527
 5654SOL    HW217706   3.618   3.902   6.512
 5655SOL     OW17707   2.121   4.037   6.300
 5655SOL    HW117708   2.033   4.067   6.277
 5655SOL    HW217709   2.119   4.029   6.396
 5656SOL     OW17710   2.763   0.087   5.785
 5656SOL    HW117711   2.843   0.123   5.746
 5656SOL    HW217712   2.789   0.062   5.873
 5657SOL     OW17713   2.928   0.288   6.340
 5657SOL    HW117714   2.865   0.293   6.269
 5657SOL    HW217715   2.995   0.226   6.308
 5658SOL     OW17716   2.886   3.964   6.547
 5658SOL    HW117717   2.883   3.914   6.465
 5658SOL    HW217718   2.880   3.898   6.616
 5659SOL     OW17719   3.589   4.113   6.968
 5659SOL    HW117720   3.660   4.177   6.966
 5659SOL    HW217721   3.619   4.043   6.909
 5660SOL     OW17722   2.539   3.917   7.085
 5660SOL    HW117723   2.623   3.896   7.045
 5660SOL    HW217724   2.561   3.950   7.172
 5661SOL     OW17725   1.936   4.033   5.616
 5661SOL    HW117726   1.865   4.041   5.552
 5661SOL    HW217727   1.966   4.123   5.629
 5662SOL     OW17728   1.924   3.875   5.889
 5662SOL    HW117729   1.906   3.950   5.832
 5662SOL    HW217730   2.010   3.844   5.860
 5663SOL     OW17731   2.597   4.275   7.280
 5663SOL    HW117732   2.582   4.319   7.363
 5663SOL    HW217733   2.606   4.182   7.304
 5664SOL     OW17734   3.078   4.041   6.038
 5664SOL    HW117735   3.140   3.967   6.033
 5664SOL    HW217736   3.106   4.089   6.116
 5665SOL     OW17737   3.614   4.094   7.240
 5665SOL    HW117738   3.602   4.106   7.146
 5665SOL    HW217739   3.542   4.035   7.266
 5666SOL     OW17740   2.977   0.220   5.685
 5666SOL    HW117741   2.975   0.266   5.600
 5666SOL    HW217742   3.068   0.189   5.693
 5667SOL     OW17743   3.675   3.904   6.823
 5667SOL    HW117744   3.680   3.809   6.835
 5667SOL    HW217745   3.685   3.917   6.729
 5668SOL     OW17746   2.296   4.163   6.119
 5668SOL    HW117747   2.328   4.092   6.062
 5668SOL    HW217748   2.243   4.118   6.185
 5669SOL     OW17749   2.189   4.266   6.884
 5669SOL    HW117750   2.245   4.208   6.936
 5669SOL    HW217751   2.207   4.241   6.793
 5670SOL     OW17752   3.291   3.951   6.703
 5670SOL    HW117753   3.309   3.867   6.746
 5670SOL    HW217754   3.242   4.001   6.768
 5671SOL     OW17755   2.871   3.741   6.722
 5671SOL    HW117756   2.816   3.675   6.679
 5671SOL    HW217757   2.958   3.702   6.723
 5672SOL     OW17758   3.220   3.775   5.756
 5672SOL    HW117759   3.253   3.704   5.701
 5672SOL    HW217760   3.130   3.749   5.777
 5673SOL     OW17761   3.157   4.174   6.263
 5673SOL    HW117762   3.139   4.266   6.276
 5673SOL    HW217763   3.156   4.136   6.351
 5674SOL     OW17764   3.446   3.919   6.468
 5674SOL    HW117765   3.391   3.945   6.542
 5674SOL    HW217766   3.447   3.995   6.410
 5675SOL     OW17767   2.078   4.277   7.568
 5675SOL    HW117768   2.055   4.362   7.605
 5675SOL    HW217769   2.077   4.291   7.473
 5676SOL     OW17770   2.086   4.002   8.439
 5676SOL    HW117771   2.113   3.967   8.524
 5676SOL    HW217772   1.996   3.971   8.428
 5677SOL     OW17773   1.862   4.099   8.091
 5677SOL    HW117774   1.784   4.133   8.135
 5677SOL    HW217775   1.831   4.022   8.043
 5678SOL     OW17776   3.579   4.336   7.690
 5678SOL    HW117777   3.586   4.328   7.595
 5678SOL    HW217778   3.584   4.246   7.722
 5679SOL     OW17779   2.587   0.281   8.136
 5679SOL    HW117780   2.582   0.217   8.207
 5679SOL    HW217781   2.507   0.269   8.086
 5680SOL     OW17782   2.314   4.104   8.924
 5680SOL    HW117783   2.392   4.049   8.933
 5680SOL    HW217784   2.241   4.048   8.949
 5681SOL     OW17785   3.473   4.165   8.192
 5681SOL    HW117786   3.418   4.195   8.119
 5681SOL    HW217787   3.451   4.225   8.264
 5682SOL     OW17788   3.457   3.851   8.913
 5682SOL    HW117789   3.480   3.931   8.865
 5682SOL    HW217790   3.437   3.881   9.001
 5683SOL     OW17791   1.913   4.391   8.036
 5683SOL    HW117792   1.917   4.295   8.042
 5683SOL    HW217793   1.998   4.421   8.067
 5684SOL     OW17794   1.980   4.483   9.030
 5684SOL    HW117795   2.040   0.004   9.102
 5684SOL    HW217796   1.956   0.068   8.992
 5685SOL     OW17797   2.683   3.729   7.961
 5685SOL    HW117798   2.723   3.813   7.937
 5685SOL    HW217799   2.589   3.748   7.966
 5686SOL     OW17800   2.202   3.970   9.275
 5686SOL    HW117801   2.234   4.059   9.284
 5686SOL    HW217802   2.108   3.977   9.292
 5687SOL     OW17803   3.139   4.083   8.383
 5687SOL    HW117804   3.049   4.050   8.392
 5687SOL    HW217805   3.191   4.029   8.441
 5688SOL     OW17806   2.700   4.290   8.889
 5688SOL    HW117807   2.661   4.294   8.976
 5688SOL    HW217808   2.630   4.259   8.832
 5689SOL     OW17809   3.255   4.200   9.125
 5689SOL    HW117810   3.261   4.245   9.209
 5689SOL    HW217811   3.310   4.122   9.136
 5690SOL     OW17812   2.863   4.160   8.680
 5690SOL    HW117813   2.799   4.187   8.746
 5690SOL    HW217814   2.814   4.104   8.620
 5691SOL     OW17815   2.915   4.415   7.856
 5691SOL    HW117816   2.908   4.466   7.937
 5691SOL    HW217817   2.832   4.369   7.850
 5692SOL     OW17818   2.762   4.067   7.636
 5692SOL    HW117819   2.801   4.132   7.577
 5692SOL    HW217820   2.775   3.983   7.592
 5693SOL     OW17821   3.579   4.303   9.282
 5693SOL    HW117822   3.598   4.388   9.241
 5693SOL    HW217823   3.595   4.239   9.212
 5694SOL     OW17824   2.412   3.899   8.345
 5694SOL    HW117825   2.414   3.927   8.436
 5694SOL    HW217826   2.410   3.980   8.294
 5695SOL     OW17827   3.356   4.471   8.188
 5695SOL    HW117828   3.346   4.413   8.263
 5695SOL    HW217829   3.398   0.049   8.223
 5696SOL     OW17830   2.061   3.991   8.955
 5696SOL    HW117831   1.978   4.039   8.956
 5696SOL    HW217832   2.040   3.906   8.993
 5697SOL     OW17833   3.262   3.828   7.888
 5697SOL    HW117834   3.255   3.804   7.795
 5697SOL    HW217835   3.356   3.837   7.903
 5698SOL     OW17836   2.215   4.393   7.857
 5698SOL    HW117837   2.248   4.311   7.896
 5698SOL    HW217838   2.161   4.432   7.925
 5699SOL     OW17839   3.388   3.949   9.172
 5699SOL    HW117840   3.399   3.970   9.265
 5699SOL    HW217841   3.321   3.882   9.169
 5700SOL     OW17842   2.505   3.841   7.551
 5700SOL    HW117843   2.564   3.768   7.569
 5700SOL    HW217844   2.452   3.811   7.477
 5701SOL     OW17845   2.623   4.001   9.203
 5701SOL    HW117846   2.705   3.950   9.200
 5701SOL    HW217847   2.579   3.969   9.282
 5702SOL     OW17848   3.199   4.315   8.881
 5702SOL    HW117849   3.221   4.278   8.966
 5702SOL    HW217850   3.253   4.394   8.874
 5703SOL     OW17851   2.790   4.229   8.339
 5703SOL    HW117852   2.766   4.213   8.248
 5703SOL    HW217853   2.829   4.147   8.369
 5704SOL     OW17854   2.415   3.788   7.944
 5704SOL    HW117855   2.335   3.787   7.996
 5704SOL    HW217856   2.406   3.865   7.888
 5705SOL     OW17857   2.151   3.772   7.634
 5705SOL    HW117858   2.208   3.836   7.591
 5705SOL    HW217859   2.212   3.710   7.675
 5706SOL     OW17860   2.805   3.975   7.902
 5706SOL    HW117861   2.781   4.010   7.817
 5706SOL    HW217862   2.899   3.989   7.909
 5707SOL     OW17863   2.935   4.390   8.990
 5707SOL    HW117864   2.856   4.359   8.946
 5707SOL    HW217865   3.006   4.365   8.932
 5708SOL     OW17866   2.889   4.258   7.479
 5708SOL    HW117867   2.874   4.346   7.443
 5708SOL    HW217868   2.954   4.271   7.548
 5709SOL     OW17869   1.941   4.282   8.845
 5709SOL    HW117870   2.032   4.273   8.817
 5709SOL    HW217871   1.940   4.356   8.905
 5710SOL     OW17872   2.418   3.950   8.615
 5710SOL    HW117873   2.462   3.882   8.665
 5710SOL    HW217874   2.327   3.947   8.645
 5711SOL     OW17875   2.728   4.187   8.080
 5711SOL    HW117876   2.702   4.248   8.011
 5711SOL    HW217877   2.750   4.106   8.034
 5712SOL     OW17878   2.878   3.777   8.194
 5712SOL    HW117879   2.819   3.770   8.119
 5712SOL    HW217880   2.855   3.703   8.249
 5713SOL     OW17881   3.341   4.303   8.401
 5713SOL    HW117882   3.271   4.241   8.421
 5713SOL    HW217883   3.388   4.313   8.484
 5714SOL     OW17884   3.268   4.297   7.522
 5714SOL    HW117885   3.204   4.266   7.586
 5714SOL    HW217886   3.350   4.256   7.549
 5715SOL     OW17887   2.392   3.989   7.761
 5715SOL    HW117888   2.438   3.941   7.692
 5715SOL    HW217889   2.371   4.074   7.722
 5716SOL     OW17890   2.781   3.817   8.838
 5716SOL    HW117891   2.804   3.797   8.747
 5716SOL    HW217892   2.860   3.856   8.875
 5717SOL     OW17893   2.304   0.011   8.743
 5717SOL    HW117894   2.376   4.496   8.804
 5717SOL    HW217895   2.259   4.427   8.738
 5718SOL     OW17896   3.126   4.098   8.729
 5718SOL    HW117897   3.158   4.176   8.774
 5718SOL    HW217898   3.037   4.121   8.702
 5719SOL     OW17899   2.414   4.244   8.312
 5719SOL    HW117900   2.432   4.275   8.223
 5719SOL    HW217901   2.480   4.287   8.366
 5720SOL     OW17902   3.426   4.330   7.938
 5720SOL    HW117903   3.408   4.396   8.005
 5720SOL    HW217904   3.485   4.373   7.877
 5721SOL     OW17905   2.857   3.857   9.204
 5721SOL    HW117906   2.916   3.929   9.183
 5721SOL    HW217907   2.906   3.778   9.178
 5722SOL     OW17908   2.359   3.759   9.199
 5722SOL    HW117909   2.311   3.707   9.134
 5722SOL    HW217910   2.302   3.835   9.214
 5723SOL     OW17911   3.067   4.251   7.706
 5723SOL    HW117912   3.078   4.171   7.759
 5723SOL    HW217913   3.020   4.311   7.763
 5724SOL     OW17914   2.157   3.920   8.695
 5724SOL    HW117915   2.120   3.951   8.778
 5724SOL    HW217916   2.140   3.826   8.696
 5725SOL     OW17917   2.599   4.361   8.478
 5725SOL    HW117918   2.672   4.320   8.432
 5725SOL    HW217919   2.618   4.455   8.476
 5726SOL     OW17920   3.617   0.125   9.296
 5726SOL    HW117921   3.543   0.147   9.240
 5726SOL    HW217922   3.584   0.135   9.385
 5727SOL     OW17923   2.171   3.786   8.072
 5727SOL    HW117924   2.147   3.876   8.093
 5727SOL    HW217925   2.179   3.743   8.158
 5728SOL     OW17926   3.478   4.090   7.812
 5728SOL    HW117927   3.512   4.029   7.876
 5728SOL    HW217928   3.450   4.166   7.863
 5729SOL     OW17929   3.382   3.999   7.573
 5729SOL    HW117930   3.321   3.930   7.600
 5729SOL    HW217931   3.420   4.031   7.655
 5730SOL     OW17932   2.185   0.012   8.362
 5730SOL    HW117933   2.259   0.071   8.374
 5730SOL    HW217934   2.201   4.440   8.423
 5731SOL     OW17935   2.199   4.241   8.473
 5731SOL    HW117936   2.157   4.157   8.455
 5731SOL    HW217937   2.274   4.245   8.413
 5732SOL     OW17938   3.000   4.088   9.138
 5732SOL    HW117939   2.945   4.148   9.189
 5732SOL    HW217940   3.083   4.134   9.129
 5733SOL     OW17941   3.022   3.921   8.918
 5733SOL    HW117942   3.012   3.981   8.992
 5733SOL    HW217943   3.065   3.973   8.850
 5734SOL     OW17944   1.898   4.280   8.565
 5734SOL    HW117945   1.978   4.270   8.514
 5734SOL    HW217946   1.927   4.278   8.657
 5735SOL     OW17947   2.062   4.248   9.160
 5735SOL    HW117948   2.108   4.192   9.097
 5735SOL    HW217949   2.012   4.309   9.105
 5736SOL     OW17950   2.683   4.273   7.810
 5736SOL    HW117951   2.692   4.202   7.747
 5736SOL    HW217952   2.596   4.310   7.793
 5737SOL     OW17953   3.493   4.311   8.628
 5737SOL    HW117954   3.492   4.255   8.705
 5737SOL    HW217955   3.583   4.304   8.594
 5738SOL     OW17956   2.548   4.186   8.691
 5738SOL    HW117957   2.500   4.109   8.662
 5738SOL    HW217958   2.550   4.243   8.614
 5739SOL     OW17959   2.338   4.225   7.638
 5739SOL    HW117960   2.360   4.312   7.673
 5739SOL    HW217961   2.244   4.231   7.618
 5740SOL     OW17962   3.589   3.878   7.957
 5740SOL    HW117963   3.658   3.862   7.893
 5740SOL    HW217964   3.570   3.792   7.994
 5741SOL     OW17965   3.141   0.133   8.124
 5741SOL    HW117966   3.200   0.063   8.152
 5741SOL    HW217967   3.188   0.176   8.052
 5742SOL     OW17968   3.704   3.893   8.415
 5742SOL    HW117969   3.734   3.805   8.389
 5742SOL    HW217970   3.618   3.902   8.374
 5743SOL     OW17971   2.121   4.039   8.163
 5743SOL    HW117972   2.033   4.067   8.139
 5743SOL    HW217973   2.118   4.031   8.258
 5744SOL     OW17974   2.763   0.087   7.647
 5744SOL    HW117975   2.843   0.123   7.608
 5744SOL    HW217976   2.789   0.061   7.735
 5745SOL     OW17977   2.928   0.288   8.202
 5745SOL    HW117978   2.865   0.293   8.130
 5745SOL    HW217979   2.995   0.226   8.170
 5746SOL     OW17980   2.886   3.964   8.408
 5746SOL    HW117981   2.883   3.914   8.327
 5746SOL    HW217982   2.880   3.898   8.477
 5747SOL     OW17983   3.589   4.113   8.830
 5747SOL    HW117984   3.660   4.177   8.828
 5747SOL    HW217985   3.619   4.043   8.771
 5748SOL     OW17986   2.539   3.916   8.947
 5748SOL    HW117987   2.623   3.896   8.907
 5748SOL    HW217988   2.561   3.950   9.034
 5749SOL     OW17989   1.937   4.033   7.478
 5749SOL    HW117990   1.864   4.039   7.416
 5749SOL    HW217991   1.967   4.123   7.488
 5750SOL     OW17992   1.924   3.876   7.750
 5750SOL    HW117993   1.907   3.951   7.692
 5750SOL    HW217994   2.009   3.844   7.722
 5751SOL     OW17995   2.597   4.275   9.142
 5751SOL    HW117996   2.581   4.319   9.225
 5751SOL    HW217997   2.606   4.182   9.166
 5752SOL     OW17998   3.079   4.041   7.900
 5752SOL    HW117999   3.140   3.967   7.895
 5752SOL    HW218000   3.106   4.090   7.978
 5753SOL     OW18001   3.614   4.094   9.103
 5753SOL    HW118002   3.602   4.106   9.008
 5753SOL    HW218003   3.542   4.036   9.128
 5754SOL     OW18004   2.977   0.220   7.547
 5754SOL    HW118005   2.975   0.265   7.462
 5754SOL    HW218006   3.068   0.189   7.555
 5755SOL     OW18007   3.675   3.904   8.685
 5755SOL    HW118008   3.680   3.809   8.697
 5755SOL    HW218009   3.685   3.917   8.591
 5756SOL     OW18010   2.297   4.163   7.981
 5756SOL    HW118011   2.327   4.092   7.924
 5756SOL    HW218012   2.243   4.119   8.047
 5757SOL     OW18013   2.189   4.266   8.746
 5757SOL    HW118014   2.245   4.208   8.798
 5757SOL    HW218015   2.207   4.241   8.655
 5758SOL     OW18016   3.291   3.951   8.565
 5758SOL    HW118017   3.309   3.867   8.608
 5758SOL    HW218018   3.242   4.001   8.630
 5759SOL     OW18019   2.871   3.740   8.583
 5759SOL    HW118020   2.817   3.675   8.539
 5759SOL    HW218021   2.958   3.702   8.585
 5760SOL     OW18022   3.220   3.775   7.618
 5760SOL    HW118023   3.253   3.704   7.563
 5760SOL    HW218024   3.130   3.749   7.640
 5761SOL     OW18025   3.158   4.174   8.125
 5761SOL    HW118026   3.138   4.266   8.138
 5761SOL    HW218027   3.157   4.136   8.213
 5762SOL     OW18028   3.446   3.919   8.330
 5762SOL    HW118029   3.391   3.945   8.404
 5762SOL    HW218030   3.447   3.995   8.272
 5763SOL     OW18031   2.078   4.277   9.430
 5763SOL    HW118032   2.055   4.362   9.467
 5763SOL    HW218033   2.077   4.291   9.335
 5764SOL     OW18034   2.086   4.001  10.300
 5764SOL    HW118035   2.113   3.968  10.386
 5764SOL    HW218036   1.996   3.971  10.290
 5765SOL     OW18037   1.862   4.099   9.952
 5765SOL    HW118038   1.784   4.133   9.997
 5765SOL    HW218039   1.831   4.022   9.904
 5766SOL     OW18040   3.578   4.336   9.552
 5766SOL    HW118041   3.586   4.328   9.457
 5766SOL    HW218042   3.584   4.245   9.584
 5767SOL     OW18043   2.587   0.281   9.998
 5767SOL    HW118044   2.580   0.219  10.070
 5767SOL    HW218045   2.507   0.270   9.947
 5768SOL     OW18046   2.321   4.109  10.784
 5768SOL    HW118047   2.391   4.044  10.790
 5768SOL    HW218048   2.243   4.063  10.814
 5769SOL     OW18049   3.473   4.165  10.054
 5769SOL    HW118050   3.419   4.195   9.980
 5769SOL    HW218051   3.452   4.226  10.125
 5770SOL     OW18052   3.454   3.844  10.775
 5770SOL    HW118053   3.480   3.923  10.728
 5770SOL    HW218054   3.458   3.867  10.867
 5771SOL     OW18055   1.913   4.390   9.897
 5771SOL    HW118056   1.917   4.295   9.904
 5771SOL    HW218057   1.998   4.420   9.930
 5772SOL     OW18058   2.005   4.463  10.904
 5772SOL    HW118059   2.101   4.463  10.900
 5772SOL    HW218060   1.981   0.055  10.895
 5773SOL     OW18061   2.683   3.729   9.824
 5773SOL    HW118062   2.723   3.813   9.800
 5773SOL    HW218063   2.589   3.748   9.828
 5774SOL     OW18064   2.214   3.973   0.027
 5774SOL    HW118065   2.255   4.058   0.045
 5774SOL    HW218066   2.120   3.990   0.033
 5775SOL     OW18067   3.139   4.084  10.246
 5775SOL    HW118068   3.050   4.050  10.255
 5775SOL    HW218069   3.192   4.029  10.304
 5776SOL     OW18070   2.690   4.295  10.760
 5776SOL    HW118071   2.640   4.309  10.840
 5776SOL    HW218072   2.627   4.259  10.698
 5777SOL     OW18073   2.864   4.158  10.543
 5777SOL    HW118074   2.793   4.182  10.602
 5777SOL    HW218075   2.822   4.104  10.475
 5778SOL     OW18076   2.915   4.415   9.718
 5778SOL    HW118077   2.908   4.466   9.799
 5778SOL    HW218078   2.832   4.369   9.711
 5779SOL     OW18079   2.762   4.067   9.498
 5779SOL    HW118080   2.801   4.132   9.439
 5779SOL    HW218081   2.775   3.983   9.454
 5780SOL     OW18082   2.413   3.899  10.208
 5780SOL    HW118083   2.415   3.927  10.299
 5780SOL    HW218084   2.410   3.980  10.157
 5781SOL     OW18085   3.356   4.471  10.050
 5781SOL    HW118086   3.345   4.413  10.125
 5781SOL    HW218087   3.398   0.049  10.085
 5782SOL     OW18088   2.067   3.991  10.810
 5782SOL    HW118089   1.991   4.048  10.821
 5782SOL    HW218090   2.046   3.913  10.861
 5783SOL     OW18091   3.262   3.828   9.750
 5783SOL    HW118092   3.255   3.804   9.657
 5783SOL    HW218093   3.356   3.837   9.765
 5784SOL     OW18094   2.215   4.392   9.719
 5784SOL    HW118095   2.248   4.311   9.758
 5784SOL    HW218096   2.161   4.432   9.787
 5785SOL     OW18097   2.505   3.841   9.413
 5785SOL    HW118098   2.565   3.768   9.431
 5785SOL    HW218099   2.452   3.811   9.339
 5786SOL     OW18100   2.620   4.013  11.046
 5786SOL    HW118101   2.691   3.956  11.077
 5786SOL    HW218102   2.557   4.014   0.019
 5787SOL     OW18103   3.208   4.316  10.742
 5787SOL    HW118104   3.219   4.303  10.836
 5787SOL    HW218105   3.255   4.398  10.724
 5788SOL     OW18106   2.791   4.229  10.201
 5788SOL    HW118107   2.766   4.213  10.110
 5788SOL    HW218108   2.828   4.146  10.231
 5789SOL     OW18109   2.415   3.788   9.806
 5789SOL    HW118110   2.335   3.787   9.858
 5789SOL    HW218111   2.407   3.865   9.750
 5790SOL     OW18112   2.151   3.772   9.496
 5790SOL    HW118113   2.208   3.836   9.453
 5790SOL    HW218114   2.212   3.711   9.537
 5791SOL     OW18115   2.805   3.974   9.764
 5791SOL    HW118116   2.781   4.010   9.679
 5791SOL    HW218117   2.899   3.989   9.771
 5792SOL     OW18118   2.939   4.346  10.863
 5792SOL    HW118119   2.853   4.344  10.821
 5792SOL    HW218120   3.001   4.357  10.791
 5793SOL     OW18121   2.889   4.258   9.341
 5793SOL    HW118122   2.874   4.346   9.305
 5793SOL    HW218123   2.954   4.271   9.410
 5794SOL     OW18124   1.939   4.276  10.713
 5794SOL    HW118125   2.029   4.268  10.683
 5794SOL    HW218126   1.943   4.339  10.785
 5795SOL     OW18127   2.418   3.951  10.478
 5795SOL    HW118128   2.460   3.882  10.529
 5795SOL    HW218129   2.326   3.949  10.507
 5796SOL     OW18130   2.729   4.187   9.942
 5796SOL    HW118131   2.702   4.248   9.874
 5796SOL    HW218132   2.751   4.106   9.896
 5797SOL     OW18133   2.878   3.778  10.057
 5797SOL    HW118134   2.819   3.772   9.981
 5797SOL    HW218135   2.855   3.703  10.111
 5798SOL     OW18136   3.341   4.303  10.264
 5798SOL    HW118137   3.271   4.241  10.283
 5798SOL    HW218138   3.388   4.313  10.347
 5799SOL     OW18139   3.268   4.297   9.384
 5799SOL    HW118140   3.204   4.266   9.448
 5799SOL    HW218141   3.350   4.256   9.411
 5800SOL     OW18142   2.392   3.989   9.623
 5800SOL    HW118143   2.438   3.941   9.554
 5800SOL    HW218144   2.371   4.074   9.584
 5801SOL     OW18145   2.782   3.822  10.697
 5801SOL    HW118146   2.805   3.801  10.606
 5801SOL    HW218147   2.861   3.861  10.734
 5802SOL     OW18148   2.305   0.008  10.591
 5802SOL    HW118149   2.356   0.006  10.672
 5802SOL    HW218150   2.256   4.426  10.590
 5803SOL     OW18151   3.127   4.097  10.594
 5803SOL    HW118152   3.162   4.175  10.637
 5803SOL    HW218153   3.039   4.123  10.567
 5804SOL     OW18154   2.414   4.242  10.174
 5804SOL    HW118155   2.431   4.276  10.086
 5804SOL    HW218156   2.479   4.285  10.229
 5805SOL     OW18157   3.427   4.329   9.801
 5805SOL    HW118158   3.408   4.396   9.867
 5805SOL    HW218159   3.485   4.373   9.739
 5806SOL     OW18160   2.280   4.462  10.899
 5806SOL    HW118161   2.343   0.034  10.895
 5806SOL    HW218162   2.334   4.384  10.916
 5807SOL     OW18163   3.068   4.251   9.568
 5807SOL    HW118164   3.078   4.171   9.621
 5807SOL    HW218165   3.020   4.311   9.625
 5808SOL     OW18166   2.157   3.921  10.555
 5808SOL    HW118167   2.124   3.953  10.639
 5808SOL    HW218168   2.140   3.827  10.557
 5809SOL     OW18169   2.598   4.361  10.340
 5809SOL    HW118170   2.672   4.322  10.293
 5809SOL    HW218171   2.615   4.455  10.337
 5810SOL     OW18172   2.171   3.786   9.934
 5810SOL    HW118173   2.147   3.876   9.954
 5810SOL    HW218174   2.178   3.743  10.019
 5811SOL     OW18175   3.478   4.090   9.674
 5811SOL    HW118176   3.512   4.029   9.738
 5811SOL    HW218177   3.450   4.166   9.725
 5812SOL     OW18178   3.382   3.999   9.435
 5812SOL    HW118179   3.321   3.930   9.462
 5812SOL    HW218180   3.420   4.031   9.517
 5813SOL     OW18181   2.186   0.011  10.223
 5813SOL    HW118182   2.260   0.071  10.237
 5813SOL    HW218183   2.200   4.441  10.286
 5814SOL     OW18184   2.198   4.241  10.334
 5814SOL    HW118185   2.157   4.156  10.315
 5814SOL    HW218186   2.273   4.244  10.274
 5815SOL     OW18187   3.020   3.925  10.785
 5815SOL    HW118188   3.026   3.986  10.858
 5815SOL    HW218189   3.063   3.971  10.712
 5816SOL     OW18190   1.898   4.284  10.431
 5816SOL    HW118191   1.979   4.272  10.381
 5816SOL    HW218192   1.926   4.279  10.523
 5817SOL     OW18193   3.201   0.211  10.975
 5817SOL    HW118194   3.265   0.253  11.033
 5817SOL    HW218195   3.254   0.169  10.907
 5818SOL     OW18196   2.683   4.273   9.672
 5818SOL    HW118197   2.692   4.202   9.609
 5818SOL    HW218198   2.596   4.310   9.655
 5819SOL     OW18199   3.492   4.310  10.492
 5819SOL    HW118200   3.493   4.251  10.568
 5819SOL    HW218201   3.582   4.306  10.458
 5820SOL     OW18202   2.558   4.182  10.552
 5820SOL    HW118203   2.504   4.107  10.525
 5820SOL    HW218204   2.554   4.242  10.478
 5821SOL     OW18205   2.338   4.225   9.500
 5821SOL    HW118206   2.359   4.312   9.536
 5821SOL    HW218207   2.245   4.230   9.480
 5822SOL     OW18208   3.589   3.878   9.819
 5822SOL    HW118209   3.658   3.862   9.755
 5822SOL    HW218210   3.570   3.792   9.856
 5823SOL     OW18211   3.141   0.133   9.986
 5823SOL    HW118212   3.200   0.063  10.014
 5823SOL    HW218213   3.188   0.175   9.914
 5824SOL     OW18214   3.704   3.893  10.277
 5824SOL    HW118215   3.734   3.806  10.252
 5824SOL    HW218216   3.618   3.902  10.236
 5825SOL     OW18217   2.121   4.039  10.025
 5825SOL    HW118218   2.033   4.068  10.001
 5825SOL    HW218219   2.118   4.030  10.120
 5826SOL     OW18220   2.763   0.087   9.509
 5826SOL    HW118221   2.843   0.123   9.471
 5826SOL    HW218222   2.789   0.061   9.598
 5827SOL     OW18223   2.928   0.288  10.063
 5827SOL    HW118224   2.865   0.293   9.992
 5827SOL    HW218225   2.995   0.226  10.032
 5828SOL     OW18226   2.886   3.965  10.272
 5828SOL    HW118227   2.883   3.916  10.190
 5828SOL    HW218228   2.880   3.898  10.340
 5829SOL     OW18229   3.583   4.113  10.696
 5829SOL    HW118230   3.655   4.175  10.699
 5829SOL    HW218231   3.613   4.044  10.637
 5830SOL     OW18232   2.539   3.914  10.801
 5830SOL    HW118233   2.623   3.893  10.759
 5830SOL    HW218234   2.564   3.957  10.883
 5831SOL     OW18235   1.937   4.033   9.340
 5831SOL    HW118236   1.864   4.039   9.278
 5831SOL    HW218237   1.967   4.123   9.351
 5832SOL     OW18238   1.924   3.876   9.612
 5832SOL    HW118239   1.907   3.951   9.555
 5832SOL    HW218240   2.009   3.844   9.584
 5833SOL     OW18241   2.585   4.299  11.019
 5833SOL    HW118242   2.645   4.338  11.083
 5833SOL    HW218243   2.604   4.205  11.023
 5834SOL     OW18244   3.079   4.041   9.762
 5834SOL    HW118245   3.140   3.967   9.757
 5834SOL    HW218246   3.106   4.089   9.840
 5835SOL     OW18247   3.610   4.055  10.970
 5835SOL    HW118248   3.588   4.085  10.882
 5835SOL    HW218249   3.529   4.063  11.019
 5836SOL     OW18250   2.978   0.220   9.409
 5836SOL    HW118251   2.975   0.265   9.324
 5836SOL    HW218252   3.068   0.189   9.417
 5837SOL     OW18253   3.667   3.904  10.548
 5837SOL    HW118254   3.675   3.809  10.558
 5837SOL    HW218255   3.680   3.919  10.454
 5838SOL     OW18256   2.297   4.163   9.843
 5838SOL    HW118257   2.327   4.092   9.786
 5838SOL    HW218258   2.243   4.119   9.909
 5839SOL     OW18259   2.185   4.264  10.606
 5839SOL    HW118260   2.242   4.209  10.659
 5839SOL    HW218261   2.204   4.239  10.516
 5840SOL     OW18262   3.291   3.950  10.427
 5840SOL    HW118263   3.314   3.868  10.470
 5840SOL    HW218264   3.242   3.999  10.493
 5841SOL     OW18265   2.870   3.740  10.445
 5841SOL    HW118266   2.817   3.676  10.398
 5841SOL    HW218267   2.958   3.702  10.447
 5842SOL     OW18268   3.220   3.775   9.480
 5842SOL    HW118269   3.253   3.704   9.425
 5842SOL    HW218270   3.130   3.749   9.502
 5843SOL     OW18271   3.158   4.173   9.987
 5843SOL    HW118272   3.138   4.266  10.000
 5843SOL    HW218273   3.157   4.136  10.075
 5844SOL     OW18274   3.447   3.918  10.192
 5844SOL    HW118275   3.391   3.945  10.265
 5844SOL    HW218276   3.447   3.995  10.134
 5845SOL     OW18277   3.924   0.602   0.100
 5845SOL    HW118278   3.847   0.618   0.155
 5845SOL    HW218279   3.909   0.654   0.022
 5846SOL     OW18280   3.925   0.312   0.991
 5846SOL    HW118281   3.961   0.278   1.072
 5846SOL    HW218282   3.846   0.260   0.976
 5847SOL     OW18283   3.726   0.394   0.634
 5847SOL    HW118284   3.640   0.410   0.673
 5847SOL    HW218285   3.712   0.322   0.572
 5848SOL     OW18286   4.265   1.229   1.146
 5848SOL    HW118287   4.205   1.299   1.123
 5848SOL    HW218288   4.338   1.273   1.191
 5849SOL     OW18289   0.015   0.773   1.856
 5849SOL    HW118290   0.062   0.805   1.932
 5849SOL    HW218291   0.052   0.822   1.782
 5850SOL     OW18292   4.398   0.983   0.622
 5850SOL    HW118293   4.478   0.991   0.673
 5850SOL    HW218294   4.336   1.043   0.665
 5851SOL     OW18295   4.417   1.154   1.809
 5851SOL    HW118296   4.454   1.235   1.772
 5851SOL    HW218297   4.324   1.160   1.791
 5852SOL     OW18298   4.065   1.428   1.068
 5852SOL    HW118299   3.992   1.382   1.027
 5852SOL    HW218300   4.106   1.477   0.997
 5853SOL     OW18301   4.161   0.393   1.476
 5853SOL    HW118302   4.240   0.339   1.479
 5853SOL    HW218303   4.089   0.332   1.492
 5854SOL     OW18304   3.939   1.715   0.472
 5854SOL    HW118305   3.958   1.791   0.527
 5854SOL    HW218306   4.013   1.710   0.411
 5855SOL     OW18307   3.950   1.445   0.532
 5855SOL    HW118308   3.933   1.539   0.534
 5855SOL    HW218309   3.894   1.408   0.600
 5856SOL     OW18310   3.982   1.089   0.885
 5856SOL    HW118311   3.985   1.002   0.927
 5856SOL    HW218312   3.932   1.143   0.946
 5857SOL     OW18313   4.357   1.795   1.459
 5857SOL    HW118314   4.268   1.768   1.477
 5857SOL    HW218315   4.354   1.890   1.458
 5858SOL     OW18316   4.292   1.015   0.141
 5858SOL    HW118317   4.301   1.091   0.084
 5858SOL    HW218318   4.376   1.010   0.188
 5859SOL     OW18319   3.840   0.654   0.562
 5859SOL    HW118320   3.807   0.568   0.585
 5859SOL    HW218321   3.831   0.706   0.642
 5860SOL     OW18322   3.779   1.594   0.117
 5860SOL    HW118323   3.750   1.508   0.145
 5860SOL    HW218324   3.751   1.653   0.187
 5861SOL     OW18325   3.843   0.747   1.582
 5861SOL    HW118326   3.933   0.780   1.586
 5861SOL    HW218327   3.788   0.825   1.580
 5862SOL     OW18328   4.304   1.389   0.738
 5862SOL    HW118329   4.270   1.300   0.738
 5862SOL    HW218330   4.309   1.413   0.645
 5863SOL     OW18331   0.012   0.000   0.486
 5863SOL    HW118332   0.045   0.068   0.427
 5863SOL    HW218333   4.427   0.034   0.515
 5864SOL     OW18334   3.909   0.958   1.281
 5864SOL    HW118335   3.996   0.922   1.264
 5864SOL    HW218336   3.853   0.915   1.217
 5865SOL     OW18337   4.040   0.247   1.783
 5865SOL    HW118338   4.100   0.315   1.812
 5865SOL    HW218339   3.965   0.254   1.842
 5866SOL     OW18340   4.304   0.705   0.264
 5866SOL    HW118341   4.335   0.787   0.225
 5866SOL    HW218342   4.249   0.732   0.337
 5867SOL     OW18343   3.812   0.824   0.775
 5867SOL    HW118344   3.892   0.815   0.827
 5867SOL    HW218345   3.768   0.901   0.812
 5868SOL     OW18346   3.853   1.869   1.583
 5868SOL    HW118347   3.856   1.846   1.676
 5868SOL    HW218348   3.768   1.836   1.553
 5869SOL     OW18349   4.231   0.207   0.898
 5869SOL    HW118350   4.274   0.220   0.983
 5869SOL    HW218351   4.257   0.283   0.846
 5870SOL     OW18352   4.083   1.818   0.872
 5870SOL    HW118353   4.137   1.740   0.879
 5870SOL    HW218354   4.145   1.891   0.880
 5871SOL     OW18355   4.039   0.967   0.280
 5871SOL    HW118356   4.120   0.989   0.234
 5871SOL    HW218357   4.017   0.878   0.250
 5872SOL     OW18358   4.176   1.250   1.733
 5872SOL    HW118359   4.150   1.265   1.642
 5872SOL    HW218360   4.094   1.260   1.783
 5873SOL     OW18361   3.909   0.269   1.520
 5873SOL    HW118362   3.845   0.340   1.510
 5873SOL    HW218363   3.933   0.271   1.613
 5874SOL     OW18364   4.188   1.727   0.327
 5874SOL    HW118365   4.224   1.792   0.387
 5874SOL    HW218366   4.260   1.704   0.269
 5875SOL     OW18367   3.980   1.793   1.227
 5875SOL    HW118368   4.025   1.717   1.265
 5875SOL    HW218369   3.966   1.769   1.136
 5876SOL     OW18370   4.110   0.690   0.472
 5876SOL    HW118371   4.134   0.599   0.488
 5876SOL    HW218372   4.017   0.696   0.497
 5877SOL     OW18373   4.349   0.128   0.109
 5877SOL    HW118374   4.434   0.104   0.145
 5877SOL    HW218375   4.338   0.071   0.033
 5878SOL     OW18376   0.026   1.416   0.901
 5878SOL    HW118377   0.065   1.485   0.848
 5878SOL    HW218378   4.449   1.388   0.852
 5879SOL     OW18379   4.277   0.116   0.542
 5879SOL    HW118380   4.194   0.083   0.577
 5879SOL    HW218381   4.252   0.162   0.462
 5880SOL     OW18382   4.005   0.050   0.206
 5880SOL    HW118383   4.072   0.105   0.166
 5880SOL    HW218384   4.051   0.002   0.275
 5881SOL     OW18385   0.324   0.669   1.466
 5881SOL    HW118386   0.301   0.600   1.404
 5881SOL    HW218387   0.411   0.646   1.497
 5882SOL     OW18388   4.194   1.142   0.725
 5882SOL    HW118389   4.130   1.122   0.794
 5882SOL    HW218390   4.145   1.135   0.643
 5883SOL     OW18391   3.813   0.546   1.398
 5883SOL    HW118392   3.902   0.552   1.365
 5883SOL    HW218393   3.804   0.618   1.460
 5884SOL     OW18394   4.296   0.242   1.160
 5884SOL    HW118395   4.301   0.152   1.193
 5884SOL    HW218396   4.213   0.276   1.193
 5885SOL     OW18397   4.241   1.390   0.195
 5885SOL    HW118398   4.155   1.380   0.237
 5885SOL    HW218399   4.225   1.366   0.104
 5886SOL     OW18400   4.232   0.265   0.315
 5886SOL    HW118401   4.279   0.213   0.250
 5886SOL    HW218402   4.210   0.346   0.270
 5887SOL     OW18403   4.146   0.818   1.254
 5887SOL    HW118404   4.216   0.823   1.320
 5887SOL    HW218405   4.111   0.730   1.263
 5888SOL     OW18406   3.797   1.574   1.358
 5888SOL    HW118407   3.765   1.642   1.299
 5888SOL    HW218408   3.893   1.576   1.347
 5889SOL     OW18409   4.047   1.133   0.497
 5889SOL    HW118410   4.050   1.206   0.436
 5889SOL    HW218411   4.049   1.055   0.441
 5890SOL     OW18412   4.312   0.532   0.863
 5890SOL    HW118413   4.307   0.601   0.797
 5890SOL    HW218414   4.375   0.564   0.926
 5891SOL     OW18415   4.071   1.540   1.311
 5891SOL    HW118416   4.069   1.494   1.227
 5891SOL    HW218417   4.163   1.539   1.336
 5892SOL     OW18418   4.147   0.734   1.611
 5892SOL    HW118419   4.202   0.779   1.547
 5892SOL    HW218420   4.198   0.658   1.638
 5893SOL     OW18421   4.246   0.074   1.719
 5893SOL    HW118422   4.216   4.484   1.707
 5893SOL    HW218423   4.166   0.124   1.733
 5894SOL     OW18424   4.281   0.904   1.026
 5894SOL    HW118425   4.303   0.996   1.041
 5894SOL    HW218426   4.241   0.875   1.108
 5895SOL     OW18427   4.013   0.236   1.241
 5895SOL    HW118428   3.964   0.247   1.323
 5895SOL    HW218429   4.058   0.153   1.251
 5896SOL     OW18430   3.772   1.312   1.275
 5896SOL    HW118431   3.802   1.255   1.345
 5896SOL    HW218432   3.775   1.400   1.311
 5897SOL     OW18433   4.020   0.050   0.650
 5897SOL    HW118434   4.002   0.145   0.652
 5897SOL    HW218435   4.028   0.025   0.742
 5898SOL     OW18436   4.074   0.913   1.808
 5898SOL    HW118437   4.154   0.928   1.859
 5898SOL    HW218438   4.099   0.847   1.743
 5899SOL     OW18439   4.030   0.809   0.944
 5899SOL    HW118440   4.120   0.841   0.948
 5899SOL    HW218441   4.035   0.718   0.973
 5900SOL     OW18442   4.077   0.536   1.010
 5900SOL    HW118443   4.029   0.455   0.990
 5900SOL    HW218444   4.156   0.531   0.957
 5901SOL     OW18445   3.735   1.325   0.193
 5901SOL    HW118446   3.648   1.338   0.154
 5901SOL    HW218447   3.733   1.235   0.226
 5902SOL     OW18448   3.819   1.782   0.944
 5902SOL    HW118449   3.788   1.705   0.897
 5902SOL    HW218450   3.908   1.796   0.911
 5903SOL     OW18451   4.234   1.589   0.906
 5903SOL    HW118452   4.320   1.610   0.942
 5903SOL    HW218453   4.250   1.521   0.840
 5904SOL     OW18454   3.755   0.545   1.118
 5904SOL    HW118455   3.825   0.513   1.061
 5904SOL    HW218456   3.794   0.548   1.206
 5905SOL     OW18457   3.910   0.524   1.725
 5905SOL    HW118458   3.992   0.513   1.677
 5905SOL    HW218459   3.867   0.598   1.683
 5906SOL     OW18460   0.020   0.532   0.261
 5906SOL    HW118461   0.033   0.516   0.355
 5906SOL    HW218462   4.451   0.598   0.257
 5907SOL     OW18463   3.964   1.552   1.722
 5907SOL    HW118464   3.939   1.616   1.788
 5907SOL    HW218465   3.965   1.469   1.769
 5908SOL     OW18466   4.172   0.485   0.163
 5908SOL    HW118467   4.228   0.555   0.195
 5908SOL    HW218468   4.087   0.527   0.149
 5909SOL     OW18469   3.864   1.142   1.475
 5909SOL    HW118470   3.866   1.095   1.558
 5909SOL    HW218471   3.880   1.074   1.409
 5910SOL     OW18472   3.814   1.270   1.011
 5910SOL    HW118473   3.795   1.282   1.104
 5910SOL    HW218474   3.743   1.213   0.980
 5911SOL     OW18475   4.390   1.653   1.694
 5911SOL    HW118476   4.356   1.731   1.739
 5911SOL    HW218477   4.395   1.679   1.602
 5912SOL     OW18478   3.866   1.796   1.843
 5912SOL    HW118479   3.815   1.730   1.890
 5912SOL    HW218480   3.912   1.844   1.912
 5913SOL     OW18481   3.982   0.319   0.711
 5913SOL    HW118482   3.896   0.355   0.689
 5913SOL    HW218483   3.982   0.314   0.806
 5914SOL     OW18484   4.083   1.311   1.490
 5914SOL    HW118485   4.063   1.385   1.432
 5914SOL    HW218486   4.011   1.250   1.475
 5915SOL     OW18487   4.325   1.492   0.481
 5915SOL    HW118488   4.339   1.437   0.404
 5915SOL    HW218489   4.253   1.550   0.456
 5916SOL     OW18490   3.993   1.338   0.292
 5916SOL    HW118491   3.907   1.338   0.250
 5916SOL    HW218492   3.978   1.381   0.376
 5917SOL     OW18493   3.838   1.036   1.727
 5917SOL    HW118494   3.761   1.007   1.776
 5917SOL    HW218495   3.912   0.990   1.768
 5918SOL     OW18496   4.362   0.202   1.492
 5918SOL    HW118497   4.454   0.228   1.488
 5918SOL    HW218498   4.352   0.161   1.577
 5919SOL     OW18499   3.798   0.332   0.060
 5919SOL    HW118500   3.729   0.317  11.095
 5919SOL    HW218501   3.811   0.427   0.061
 5920SOL     OW18502   3.785   0.191   0.312
 5920SOL    HW118503   3.780   0.249   0.237
 5920SOL    HW218504   3.856   0.130   0.291
 5921SOL     OW18505   4.345   0.841   1.444
 5921SOL    HW118506   4.374   0.929   1.419
 5921SOL    HW218507   4.424   0.800   1.479
 5922SOL     OW18508   4.381   0.566   1.731
 5922SOL    HW118509   4.409   0.637   1.788
 5922SOL    HW218510   4.462   0.528   1.698
 5923SOL     OW18511   4.102   1.741   1.562
 5923SOL    HW118512   4.020   1.788   1.546
 5923SOL    HW218513   4.077   1.661   1.606
 5924SOL     OW18514   4.306   0.725   0.670
 5924SOL    HW118515   4.347   0.810   0.657
 5924SOL    HW218516   4.237   0.720   0.604
 5925SOL     OW18517   3.939   1.304   1.851
 5925SOL    HW118518   3.881   1.236   1.818
 5925SOL    HW218519   3.913   1.315   1.942
 5926SOL     OW18520   3.815   1.228   0.667
 5926SOL    HW118521   3.828   1.182   0.750
 5926SOL    HW218522   3.884   1.194   0.610
 5927SOL     OW18523   4.430   1.387   1.680
 5927SOL    HW118524   4.341   1.361   1.658
 5927SOL    HW218525   4.426   1.483   1.686
 5928SOL     OW18526   4.165   0.433   0.534
 5928SOL    HW118527   4.183   0.364   0.469
 5928SOL    HW218528   4.107   0.391   0.598
 5929SOL     OW18529   4.057   0.562   1.287
 5929SOL    HW118530   4.108   0.503   1.342
 5929SOL    HW218531   4.078   0.536   1.198
 5930SOL     OW18532   0.033   1.612   0.690
 5930SOL    HW118533   0.063   1.680   0.630
 5930SOL    HW218534   4.468   1.563   0.640
 5931SOL     OW18535   3.765   1.066   0.301
 5931SOL    HW118536   3.860   1.062   0.298
 5931SOL    HW218537   3.737   0.978   0.325
 5932SOL     OW18538   3.947   0.625   1.987
 5932SOL    HW118539   3.861   0.617   2.029
 5932SOL    HW218540   3.932   0.597   1.897
 5933SOL     OW18541   3.924   0.313   2.853
 5933SOL    HW118542   3.961   0.279   2.934
 5933SOL    HW218543   3.846   0.260   2.838
 5934SOL     OW18544   3.728   0.395   2.496
 5934SOL    HW118545   3.641   0.410   2.535
 5934SOL    HW218546   3.713   0.323   2.434
 5935SOL     OW18547   4.267   1.229   3.006
 5935SOL    HW118548   4.205   1.299   2.985
 5935SOL    HW218549   4.338   1.272   3.052
 5936SOL     OW18550   0.015   0.773   3.718
 5936SOL    HW118551   0.062   0.806   3.794
 5936SOL    HW218552   0.051   0.821   3.644
 5937SOL     OW18553   4.402   0.984   2.483
 5937SOL    HW118554   4.477   0.977   2.543
 5937SOL    HW218555   4.342   1.044   2.526
 5938SOL     OW18556   4.417   1.154   3.671
 5938SOL    HW118557   4.454   1.235   3.634
 5938SOL    HW218558   4.324   1.160   3.653
 5939SOL     OW18559   4.065   1.428   2.931
 5939SOL    HW118560   3.992   1.382   2.890
 5939SOL    HW218561   4.106   1.477   2.859
 5940SOL     OW18562   4.161   0.393   3.338
 5940SOL    HW118563   4.240   0.338   3.341
 5940SOL    HW218564   4.089   0.333   3.354
 5941SOL     OW18565   3.940   1.717   2.332
 5941SOL    HW118566   3.960   1.791   2.388
 5941SOL    HW218567   4.018   1.707   2.277
 5942SOL     OW18568   3.957   1.445   2.398
 5942SOL    HW118569   3.934   1.538   2.402
 5942SOL    HW218570   3.900   1.404   2.464
 5943SOL     OW18571   3.982   1.089   2.746
 5943SOL    HW118572   3.986   1.002   2.787
 5943SOL    HW218573   3.933   1.143   2.807
 5944SOL     OW18574   4.357   1.795   3.321
 5944SOL    HW118575   4.267   1.768   3.339
 5944SOL    HW218576   4.354   1.890   3.320
 5945SOL     OW18577   4.307   0.986   2.007
 5945SOL    HW118578   4.340   1.033   1.931
 5945SOL    HW218579   4.374   0.999   2.074
 5946SOL     OW18580   3.843   0.656   2.424
 5946SOL    HW118581   3.810   0.569   2.446
 5946SOL    HW218582   3.834   0.706   2.505
 5947SOL     OW18583   3.764   1.590   1.983
 5947SOL    HW118584   3.743   1.499   2.002
 5947SOL    HW218585   3.737   1.638   2.061
 5948SOL     OW18586   3.843   0.747   3.444
 5948SOL    HW118587   3.932   0.781   3.448
 5948SOL    HW218588   3.788   0.825   3.442
 5949SOL     OW18589   4.303   1.389   2.599
 5949SOL    HW118590   4.269   1.300   2.599
 5949SOL    HW218591   4.309   1.413   2.506
 5950SOL     OW18592   0.014   0.007   2.358
 5950SOL    HW118593   0.048   0.074   2.298
 5950SOL    HW218594   4.428   0.039   2.383
 5951SOL     OW18595   3.910   0.958   3.143
 5951SOL    HW118596   3.997   0.922   3.126
 5951SOL    HW218597   3.853   0.914   3.080
 5952SOL     OW18598   4.040   0.247   3.645
 5952SOL    HW118599   4.100   0.316   3.674
 5952SOL    HW218600   3.965   0.254   3.704
 5953SOL     OW18601   4.311   0.723   2.131
 5953SOL    HW118602   4.304   0.806   2.085
 5953SOL    HW218603   4.247   0.730   2.203
 5954SOL     OW18604   3.812   0.824   2.639
 5954SOL    HW118605   3.892   0.815   2.690
 5954SOL    HW218606   3.769   0.902   2.674
 5955SOL     OW18607   3.853   1.869   3.445
 5955SOL    HW118608   3.856   1.846   3.538
 5955SOL    HW218609   3.768   1.836   3.415
 5956SOL     OW18610   4.231   0.204   2.762
 5956SOL    HW118611   4.274   0.221   2.845
 5956SOL    HW218612   4.258   0.277   2.705
 5957SOL     OW18613   4.083   1.818   2.733
 5957SOL    HW118614   4.137   1.739   2.741
 5957SOL    HW218615   4.145   1.891   2.742
 5958SOL     OW18616   4.037   0.962   2.115
 5958SOL    HW118617   4.122   0.981   2.075
 5958SOL    HW218618   4.010   0.879   2.077
 5959SOL     OW18619   4.176   1.251   3.595
 5959SOL    HW118620   4.150   1.265   3.504
 5959SOL    HW218621   4.094   1.260   3.645
 5960SOL     OW18622   3.909   0.270   3.382
 5960SOL    HW118623   3.845   0.340   3.371
 5960SOL    HW218624   3.932   0.272   3.475
 5961SOL     OW18625   4.189   1.733   2.188
 5961SOL    HW118626   4.225   1.795   2.251
 5961SOL    HW218627   4.258   1.722   2.122
 5962SOL     OW18628   3.980   1.793   3.089
 5962SOL    HW118629   4.025   1.717   3.128
 5962SOL    HW218630   3.966   1.769   2.998
 5963SOL     OW18631   4.115   0.690   2.332
 5963SOL    HW118632   4.136   0.598   2.351
 5963SOL    HW218633   4.022   0.697   2.352
 5964SOL     OW18634   4.327   0.116   1.979
 5964SOL    HW118635   4.412   0.072   1.989
 5964SOL    HW218636   4.304   0.103   1.887
 5965SOL     OW18637   0.025   1.416   2.764
 5965SOL    HW118638   0.066   1.483   2.709
 5965SOL    HW218639   4.448   1.389   2.714
 5966SOL     OW18640   4.274   0.115   2.407
 5966SOL    HW118641   4.191   0.080   2.436
 5966SOL    HW218642   4.253   0.164   2.327
 5967SOL     OW18643   4.021   0.062   2.072
 5967SOL    HW118644   4.099   0.114   2.055
 5967SOL    HW218645   4.049   4.499   2.139
 5968SOL     OW18646   0.324   0.669   3.329
 5968SOL    HW118647   0.299   0.601   3.267
 5968SOL    HW218648   0.412   0.644   3.359
 5969SOL     OW18649   4.193   1.142   2.583
 5969SOL    HW118650   4.128   1.123   2.650
 5969SOL    HW218651   4.146   1.130   2.500
 5970SOL     OW18652   3.813   0.546   3.260
 5970SOL    HW118653   3.903   0.552   3.227
 5970SOL    HW218654   3.804   0.618   3.322
 5971SOL     OW18655   4.297   0.243   3.023
 5971SOL    HW118656   4.301   0.153   3.055
 5971SOL    HW218657   4.213   0.277   3.055
 5972SOL     OW18658   4.231   1.384   2.036
 5972SOL    HW118659   4.146   1.369   2.077
 5972SOL    HW218660   4.212   1.392   1.943
 5973SOL     OW18661   4.236   0.270   2.184
 5973SOL    HW118662   4.281   0.215   2.119
 5973SOL    HW218663   4.215   0.351   2.137
 5974SOL     OW18664   4.147   0.818   3.116
 5974SOL    HW118665   4.216   0.823   3.182
 5974SOL    HW218666   4.111   0.730   3.125
 5975SOL     OW18667   3.797   1.575   3.220
 5975SOL    HW118668   3.765   1.643   3.161
 5975SOL    HW218669   3.892   1.576   3.209
 5976SOL     OW18670   4.053   1.119   2.349
 5976SOL    HW118671   4.054   1.192   2.287
 5976SOL    HW218672   4.054   1.041   2.294
 5977SOL     OW18673   4.310   0.534   2.726
 5977SOL    HW118674   4.305   0.602   2.659
 5977SOL    HW218675   4.375   0.567   2.788
 5978SOL     OW18676   4.071   1.540   3.173
 5978SOL    HW118677   4.069   1.494   3.089
 5978SOL    HW218678   4.163   1.539   3.199
 5979SOL     OW18679   4.147   0.734   3.473
 5979SOL    HW118680   4.202   0.779   3.409
 5979SOL    HW218681   4.198   0.658   3.499
 5980SOL     OW18682   4.246   0.074   3.581
 5980SOL    HW118683   4.215   4.484   3.568
 5980SOL    HW218684   4.166   0.124   3.596
 5981SOL     OW18685   4.282   0.905   2.888
 5981SOL    HW118686   4.303   0.997   2.904
 5981SOL    HW218687   4.242   0.875   2.970
 5982SOL     OW18688   4.013   0.237   3.103
 5982SOL    HW118689   3.964   0.247   3.184
 5982SOL    HW218690   4.059   0.153   3.112
 5983SOL     OW18691   3.774   1.312   3.136
 5983SOL    HW118692   3.802   1.255   3.207
 5983SOL    HW218693   3.775   1.400   3.173
 5984SOL     OW18694   4.013   0.045   2.510
 5984SOL    HW118695   3.999   0.139   2.512
 5984SOL    HW218696   4.022   0.020   2.602
 5985SOL     OW18697   4.075   0.913   3.670
 5985SOL    HW118698   4.154   0.928   3.721
 5985SOL    HW218699   4.099   0.847   3.605
 5986SOL     OW18700   4.031   0.810   2.807
 5986SOL    HW118701   4.121   0.841   2.810
 5986SOL    HW218702   4.035   0.718   2.835
 5987SOL     OW18703   4.076   0.536   2.872
 5987SOL    HW118704   4.029   0.456   2.852
 5987SOL    HW218705   4.156   0.532   2.819
 5988SOL     OW18706   3.731   1.317   2.057
 5988SOL    HW118707   3.644   1.333   2.021
 5988SOL    HW218708   3.727   1.228   2.092
 5989SOL     OW18709   3.819   1.782   2.806
 5989SOL    HW118710   3.787   1.705   2.758
 5989SOL    HW218711   3.907   1.796   2.773
 5990SOL     OW18712   4.233   1.588   2.768
 5990SOL    HW118713   4.320   1.608   2.805
 5990SOL    HW218714   4.250   1.521   2.702
 5991SOL     OW18715   3.755   0.545   2.980
 5991SOL    HW118716   3.824   0.512   2.923
 5991SOL    HW218717   3.794   0.548   3.067
 5992SOL     OW18718   3.910   0.524   3.587
 5992SOL    HW118719   3.992   0.513   3.539
 5992SOL    HW218720   3.867   0.598   3.545
 5993SOL     OW18721   0.023   0.544   2.125
 5993SOL    HW118722   0.029   0.515   2.216
 5993SOL    HW218723   4.453   0.609   2.125
 5994SOL     OW18724   3.965   1.552   3.584
 5994SOL    HW118725   3.939   1.616   3.650
 5994SOL    HW218726   3.965   1.468   3.631
 5995SOL     OW18727   4.182   0.493   2.042
 5995SOL    HW118728   4.242   0.565   2.063
 5995SOL    HW218729   4.098   0.535   2.028
 5996SOL     OW18730   3.865   1.142   3.337
 5996SOL    HW118731   3.866   1.095   3.420
 5996SOL    HW218732   3.881   1.074   3.271
 5997SOL     OW18733   3.814   1.270   2.872
 5997SOL    HW118734   3.796   1.283   2.965
 5997SOL    HW218735   3.744   1.213   2.841
 5998SOL     OW18736   4.390   1.653   3.556
 5998SOL    HW118737   4.356   1.731   3.601
 5998SOL    HW218738   4.395   1.679   3.464
 5999SOL     OW18739   3.866   1.796   3.705
 5999SOL    HW118740   3.816   1.730   3.752
 5999SOL    HW218741   3.912   1.845   3.774
 6000SOL     OW18742   3.982   0.315   2.572
 6000SOL    HW118743   3.897   0.354   2.550
 6000SOL    HW218744   3.983   0.311   2.668
 6001SOL     OW18745   4.083   1.311   3.351
 6001SOL    HW118746   4.062   1.386   3.294
 6001SOL    HW218747   4.011   1.249   3.337
 6002SOL     OW18748   4.328   1.491   2.341
 6002SOL    HW118749   4.343   1.431   2.268
 6002SOL    HW218750   4.259   1.549   2.310
 6003SOL     OW18751   3.986   1.344   2.154
 6003SOL    HW118752   3.894   1.340   2.130
 6003SOL    HW218753   3.986   1.385   2.241
 6004SOL     OW18754   3.838   1.036   3.589
 6004SOL    HW118755   3.761   1.007   3.638
 6004SOL    HW218756   3.912   0.990   3.630
 6005SOL     OW18757   4.361   0.202   3.354
 6005SOL    HW118758   4.454   0.228   3.349
 6005SOL    HW218759   4.352   0.161   3.440
 6006SOL     OW18760   3.807   0.326   1.909
 6006SOL    HW118761   3.738   0.270   1.873
 6006SOL    HW218762   3.812   0.400   1.849
 6007SOL     OW18763   3.786   0.191   2.167
 6007SOL    HW118764   3.789   0.258   2.099
 6007SOL    HW218765   3.861   0.135   2.150
 6008SOL     OW18766   4.345   0.841   3.306
 6008SOL    HW118767   4.374   0.929   3.281
 6008SOL    HW218768   4.424   0.800   3.341
 6009SOL     OW18769   4.381   0.565   3.593
 6009SOL    HW118770   4.409   0.637   3.651
 6009SOL    HW218771   4.463   0.528   3.560
 6010SOL     OW18772   4.102   1.741   3.424
 6010SOL    HW118773   4.020   1.787   3.408
 6010SOL    HW218774   4.077   1.661   3.469
 6011SOL     OW18775   4.306   0.727   2.533
 6011SOL    HW118776   4.347   0.812   2.517
 6011SOL    HW218777   4.239   0.719   2.465
 6012SOL     OW18778   3.939   1.304   3.713
 6012SOL    HW118779   3.881   1.235   3.679
 6012SOL    HW218780   3.911   1.316   3.803
 6013SOL     OW18781   3.816   1.229   2.528
 6013SOL    HW118782   3.827   1.184   2.612
 6013SOL    HW218783   3.881   1.189   2.470
 6014SOL     OW18784   4.430   1.387   3.542
 6014SOL    HW118785   4.341   1.361   3.521
 6014SOL    HW218786   4.426   1.483   3.548
 6015SOL     OW18787   4.168   0.434   2.401
 6015SOL    HW118788   4.186   0.369   2.333
 6015SOL    HW218789   4.109   0.390   2.462
 6016SOL     OW18790   4.057   0.562   3.149
 6016SOL    HW118791   4.108   0.503   3.204
 6016SOL    HW218792   4.077   0.536   3.060
 6017SOL     OW18793   0.033   1.614   2.552
 6017SOL    HW118794   0.059   1.683   2.490
 6017SOL    HW218795   4.470   1.561   2.503
 6018SOL     OW18796   3.766   1.065   2.170
 6018SOL    HW118797   3.860   1.056   2.151
 6018SOL    HW218798   3.738   0.976   2.192
 6019SOL     OW18799   3.947   0.624   3.850
 6019SOL    HW118800   3.860   0.617   3.891
 6019SOL    HW218801   3.932   0.597   3.759
 6020SOL     OW18802   3.924   0.312   4.715
 6020SOL    HW118803   3.961   0.279   4.796
 6020SOL    HW218804   3.846   0.260   4.700
 6021SOL     OW18805   3.727   0.394   4.358
 6021SOL    HW118806   3.641   0.410   4.397
 6021SOL    HW218807   3.713   0.323   4.296
 6022SOL     OW18808   4.267   1.229   4.868
 6022SOL    HW118809   4.204   1.298   4.846
 6022SOL    HW218810   4.338   1.273   4.914
 6023SOL     OW18811   0.014   0.773   5.580
 6023SOL    HW118812   0.063   0.805   5.655
 6023SOL    HW218813   0.051   0.820   5.505
 6024SOL     OW18814   4.403   0.984   4.344
 6024SOL    HW118815   4.476   0.974   4.406
 6024SOL    HW218816   4.343   1.044   4.388
 6025SOL     OW18817   4.417   1.154   5.533
 6025SOL    HW118818   4.453   1.235   5.496
 6025SOL    HW218819   4.323   1.160   5.515
 6026SOL     OW18820   4.065   1.427   4.792
 6026SOL    HW118821   3.991   1.380   4.752
 6026SOL    HW218822   4.105   1.476   4.721
 6027SOL     OW18823   4.161   0.393   5.200
 6027SOL    HW118824   4.239   0.338   5.204
 6027SOL    HW218825   4.089   0.333   5.216
 6028SOL     OW18826   3.940   1.716   4.194
 6028SOL    HW118827   3.960   1.792   4.251
 6028SOL    HW218828   4.018   1.708   4.139
 6029SOL     OW18829   3.958   1.445   4.261
 6029SOL    HW118830   3.934   1.537   4.265
 6029SOL    HW218831   3.901   1.403   4.325
 6030SOL     OW18832   3.984   1.089   4.609
 6030SOL    HW118833   3.986   1.003   4.650
 6030SOL    HW218834   3.932   1.143   4.668
 6031SOL     OW18835   4.357   1.795   5.182
 6031SOL    HW118836   4.267   1.768   5.201
 6031SOL    HW218837   4.354   1.890   5.182
 6032SOL     OW18838   4.307   0.986   3.869
 6032SOL    HW118839   4.341   1.033   3.793
 6032SOL    HW218840   4.374   0.999   3.936
 6033SOL     OW18841   3.844   0.655   4.286
 6033SOL    HW118842   3.810   0.569   4.308
 6033SOL    HW218843   3.835   0.706   4.366
 6034SOL     OW18844   3.765   1.590   3.844
 6034SOL    HW118845   3.743   1.498   3.863
 6034SOL    HW218846   3.738   1.638   3.922
 6035SOL     OW18847   3.842   0.747   5.306
 6035SOL    HW118848   3.931   0.781   5.309
 6035SOL    HW218849   3.786   0.824   5.302
 6036SOL     OW18850   4.304   1.389   4.461
 6036SOL    HW118851   4.269   1.300   4.461
 6036SOL    HW218852   4.309   1.413   4.368
 6037SOL     OW18853   0.015   0.008   4.220
 6037SOL    HW118854   0.048   0.075   4.160
 6037SOL    HW218855   4.428   0.040   4.245
 6038SOL     OW18856   3.909   0.958   5.007
 6038SOL    HW118857   3.996   0.922   4.989
 6038SOL    HW218858   3.852   0.917   4.941
 6039SOL     OW18859   4.040   0.247   5.507
 6039SOL    HW118860   4.100   0.316   5.536
 6039SOL    HW218861   3.965   0.254   5.566
 6040SOL     OW18862   4.311   0.723   3.993
 6040SOL    HW118863   4.304   0.806   3.947
 6040SOL    HW218864   4.247   0.730   4.065
 6041SOL     OW18865   3.812   0.823   4.500
 6041SOL    HW118866   3.892   0.815   4.553
 6041SOL    HW218867   3.768   0.900   4.535
 6042SOL     OW18868   3.853   1.870   5.307
 6042SOL    HW118869   3.856   1.847   5.400
 6042SOL    HW218870   3.771   1.833   5.275
 6043SOL     OW18871   4.231   0.204   4.624
 6043SOL    HW118872   4.275   0.221   4.707
 6043SOL    HW218873   4.258   0.276   4.567
 6044SOL     OW18874   4.083   1.818   4.595
 6044SOL    HW118875   4.137   1.739   4.602
 6044SOL    HW218876   4.145   1.890   4.604
 6045SOL     OW18877   4.037   0.962   3.978
 6045SOL    HW118878   4.122   0.981   3.936
 6045SOL    HW218879   4.010   0.879   3.939
 6046SOL     OW18880   4.176   1.251   5.457
 6046SOL    HW118881   4.150   1.266   5.366
 6046SOL    HW218882   4.094   1.260   5.506
 6047SOL     OW18883   3.909   0.270   5.243
 6047SOL    HW118884   3.846   0.341   5.232
 6047SOL    HW218885   3.931   0.272   5.336
 6048SOL     OW18886   4.189   1.734   4.049
 6048SOL    HW118887   4.225   1.795   4.113
 6048SOL    HW218888   4.258   1.722   3.984
 6049SOL     OW18889   3.981   1.793   4.951
 6049SOL    HW118890   4.025   1.717   4.988
 6049SOL    HW218891   3.964   1.769   4.860
 6050SOL     OW18892   4.115   0.690   4.194
 6050SOL    HW118893   4.137   0.598   4.213
 6050SOL    HW218894   4.022   0.697   4.214
 6051SOL     OW18895   4.328   0.116   3.841
 6051SOL    HW118896   4.412   0.072   3.850
 6051SOL    HW218897   4.303   0.103   3.749
 6052SOL     OW18898   0.025   1.416   4.626
 6052SOL    HW118899   0.066   1.483   4.570
 6052SOL    HW218900   4.447   1.389   4.576
 6053SOL     OW18901   4.274   0.115   4.268
 6053SOL    HW118902   4.190   0.079   4.298
 6053SOL    HW218903   4.253   0.164   4.189
 6054SOL     OW18904   4.021   0.061   3.934
 6054SOL    HW118905   4.099   0.114   3.917
 6054SOL    HW218906   4.049   4.499   4.001
 6055SOL     OW18907   0.324   0.668   5.193
 6055SOL    HW118908   0.297   0.601   5.130
 6055SOL    HW218909   0.412   0.642   5.219
 6056SOL     OW18910   4.194   1.142   4.445
 6056SOL    HW118911   4.129   1.123   4.513
 6056SOL    HW218912   4.147   1.130   4.362
 6057SOL     OW18913   3.813   0.545   5.122
 6057SOL    HW118914   3.903   0.552   5.090
 6057SOL    HW218915   3.805   0.618   5.184
 6058SOL     OW18916   4.298   0.244   4.885
 6058SOL    HW118917   4.301   0.153   4.917
 6058SOL    HW218918   4.214   0.277   4.917
 6059SOL     OW18919   4.231   1.384   3.898
 6059SOL    HW118920   4.146   1.369   3.940
 6059SOL    HW218921   4.211   1.392   3.805
 6060SOL     OW18922   4.236   0.270   4.046
 6060SOL    HW118923   4.281   0.215   3.981
 6060SOL    HW218924   4.216   0.350   3.999
 6061SOL     OW18925   4.147   0.818   4.978
 6061SOL    HW118926   4.216   0.823   5.044
 6061SOL    HW218927   4.111   0.730   4.987
 6062SOL     OW18928   3.796   1.576   5.083
 6062SOL    HW118929   3.763   1.641   5.022
 6062SOL    HW218930   3.891   1.578   5.071
 6063SOL     OW18931   4.054   1.119   4.211
 6063SOL    HW118932   4.053   1.193   4.149
 6063SOL    HW218933   4.054   1.041   4.155
 6064SOL     OW18934   4.310   0.535   4.588
 6064SOL    HW118935   4.305   0.602   4.520
 6064SOL    HW218936   4.374   0.568   4.650
 6065SOL     OW18937   4.070   1.540   5.035
 6065SOL    HW118938   4.068   1.494   4.951
 6065SOL    HW218939   4.163   1.539   5.060
 6066SOL     OW18940   4.147   0.735   5.335
 6066SOL    HW118941   4.202   0.780   5.271
 6066SOL    HW218942   4.198   0.658   5.361
 6067SOL     OW18943   4.246   0.074   5.443
 6067SOL    HW118944   4.215   4.484   5.430
 6067SOL    HW218945   4.166   0.124   5.458
 6068SOL     OW18946   4.283   0.904   4.750
 6068SOL    HW118947   4.302   0.997   4.765
 6068SOL    HW218948   4.242   0.875   4.832
 6069SOL     OW18949   4.013   0.237   4.965
 6069SOL    HW118950   3.964   0.247   5.046
 6069SOL    HW218951   4.059   0.153   4.974
 6070SOL     OW18952   3.777   1.312   4.998
 6070SOL    HW118953   3.804   1.255   5.070
 6070SOL    HW218954   3.776   1.400   5.036
 6071SOL     OW18955   4.013   0.045   4.373
 6071SOL    HW118956   3.998   0.140   4.375
 6071SOL    HW218957   4.022   0.020   4.465
 6072SOL     OW18958   4.075   0.913   5.532
 6072SOL    HW118959   4.154   0.927   5.583
 6072SOL    HW218960   4.099   0.847   5.467
 6073SOL     OW18961   4.030   0.810   4.669
 6073SOL    HW118962   4.121   0.841   4.672
 6073SOL    HW218963   4.035   0.719   4.698
 6074SOL     OW18964   4.076   0.536   4.735
 6074SOL    HW118965   4.029   0.456   4.714
 6074SOL    HW218966   4.156   0.532   4.681
 6075SOL     OW18967   3.732   1.316   3.918
 6075SOL    HW118968   3.644   1.332   3.882
 6075SOL    HW218969   3.727   1.228   3.954
 6076SOL     OW18970   3.819   1.780   4.669
 6076SOL    HW118971   3.787   1.704   4.621
 6076SOL    HW218972   3.907   1.795   4.635
 6077SOL     OW18973   4.233   1.588   4.630
 6077SOL    HW118974   4.320   1.608   4.666
 6077SOL    HW218975   4.250   1.521   4.564
 6078SOL     OW18976   3.754   0.544   4.843
 6078SOL    HW118977   3.824   0.512   4.785
 6078SOL    HW218978   3.795   0.547   4.929
 6079SOL     OW18979   3.910   0.524   5.449
 6079SOL    HW118980   3.992   0.513   5.401
 6079SOL    HW218981   3.867   0.598   5.407
 6080SOL     OW18982   0.023   0.544   3.987
 6080SOL    HW118983   0.028   0.514   4.078
 6080SOL    HW218984   4.453   0.610   3.987
 6081SOL     OW18985   3.965   1.552   5.446
 6081SOL    HW118986   3.939   1.616   5.512
 6081SOL    HW218987   3.965   1.468   5.493
 6082SOL     OW18988   4.183   0.493   3.904
 6082SOL    HW118989   4.242   0.565   3.925
 6082SOL    HW218990   4.098   0.535   3.890
 6083SOL     OW18991   3.865   1.142   5.200
 6083SOL    HW118992   3.866   1.095   5.283
 6083SOL    HW218993   3.880   1.074   5.134
 6084SOL     OW18994   3.815   1.269   4.735
 6084SOL    HW118995   3.797   1.282   4.828
 6084SOL    HW218996   3.743   1.214   4.704
 6085SOL     OW18997   4.390   1.654   5.417
 6085SOL    HW118998   4.355   1.731   5.463
 6085SOL    HW218999   4.395   1.680   5.325
 6086SOL     OW19000   3.866   1.795   5.567
 6086SOL    HW119001   3.815   1.730   5.614
 6086SOL    HW219002   3.912   1.844   5.635
 6087SOL     OW19003   3.982   0.316   4.434
 6087SOL    HW119004   3.897   0.354   4.412
 6087SOL    HW219005   3.982   0.312   4.530
 6088SOL     OW19006   4.083   1.312   5.213
 6088SOL    HW119007   4.062   1.386   5.156
 6088SOL    HW219008   4.011   1.249   5.199
 6089SOL     OW19009   4.328   1.491   4.203
 6089SOL    HW119010   4.342   1.431   4.130
 6089SOL    HW219011   4.258   1.549   4.174
 6090SOL     OW19012   3.987   1.343   4.017
 6090SOL    HW119013   3.894   1.339   3.992
 6090SOL    HW219014   3.986   1.385   4.104
 6091SOL     OW19015   3.839   1.038   5.453
 6091SOL    HW119016   3.762   1.008   5.501
 6091SOL    HW219017   3.912   0.991   5.493
 6092SOL     OW19018   4.362   0.202   5.216
 6092SOL    HW119019   4.454   0.228   5.211
 6092SOL    HW219020   4.352   0.161   5.302
 6093SOL     OW19021   3.807   0.325   3.771
 6093SOL    HW119022   3.737   0.270   3.735
 6093SOL    HW219023   3.812   0.400   3.711
 6094SOL     OW19024   3.786   0.191   4.029
 6094SOL    HW119025   3.789   0.258   3.961
 6094SOL    HW219026   3.861   0.135   4.011
 6095SOL     OW19027   4.345   0.841   5.167
 6095SOL    HW119028   4.373   0.929   5.142
 6095SOL    HW219029   4.424   0.800   5.203
 6096SOL     OW19030   4.382   0.565   5.456
 6096SOL    HW119031   4.409   0.636   5.513
 6096SOL    HW219032   4.464   0.528   5.423
 6097SOL     OW19033   4.103   1.741   5.286
 6097SOL    HW119034   4.021   1.788   5.270
 6097SOL    HW219035   4.076   1.661   5.331
 6098SOL     OW19036   4.307   0.727   4.394
 6098SOL    HW119037   4.347   0.812   4.378
 6098SOL    HW219038   4.239   0.719   4.327
 6099SOL     OW19039   3.938   1.304   5.574
 6099SOL    HW119040   3.882   1.234   5.540
 6099SOL    HW219041   3.909   1.315   5.665
 6100SOL     OW19042   3.816   1.231   4.390
 6100SOL    HW119043   3.823   1.185   4.474
 6100SOL    HW219044   3.881   1.189   4.334
 6101SOL     OW19045   4.431   1.388   5.405
 6101SOL    HW119046   4.341   1.361   5.383
 6101SOL    HW219047   4.427   1.483   5.410
 6102SOL     OW19048   4.169   0.434   4.264
 6102SOL    HW119049   4.186   0.369   4.196
 6102SOL    HW219050   4.109   0.390   4.324
 6103SOL     OW19051   4.057   0.562   5.011
 6103SOL    HW119052   4.108   0.503   5.066
 6103SOL    HW219053   4.077   0.536   4.922
 6104SOL     OW19054   0.033   1.614   4.414
 6104SOL    HW119055   0.059   1.683   4.352
 6104SOL    HW219056   4.470   1.561   4.365
 6105SOL     OW19057   3.767   1.065   4.031
 6105SOL    HW119058   3.860   1.055   4.013
 6105SOL    HW219059   3.738   0.976   4.054
 6106SOL     OW19060   3.947   0.624   5.711
 6106SOL    HW119061   3.861   0.617   5.752
 6106SOL    HW219062   3.933   0.597   5.621
 6107SOL     OW19063   3.924   0.313   6.577
 6107SOL    HW119064   3.961   0.279   6.658
 6107SOL    HW219065   3.846   0.260   6.562
 6108SOL     OW19066   3.728   0.394   6.220
 6108SOL    HW119067   3.641   0.410   6.259
 6108SOL    HW219068   3.714   0.323   6.158
 6109SOL     OW19069   4.266   1.229   6.730
 6109SOL    HW119070   4.205   1.299   6.709
 6109SOL    HW219071   4.338   1.273   6.776
 6110SOL     OW19072   0.014   0.773   7.442
 6110SOL    HW119073   0.063   0.805   7.518
 6110SOL    HW219074   0.051   0.821   7.368
 6111SOL     OW19075   4.403   0.984   6.207
 6111SOL    HW119076   4.476   0.975   6.267
 6111SOL    HW219077   4.343   1.044   6.250
 6112SOL     OW19078   4.417   1.154   7.395
 6112SOL    HW119079   4.454   1.235   7.358
 6112SOL    HW219080   4.323   1.160   7.377
 6113SOL     OW19081   4.065   1.428   6.655
 6113SOL    HW119082   3.992   1.381   6.613
 6113SOL    HW219083   4.106   1.477   6.583
 6114SOL     OW19084   4.161   0.393   7.062
 6114SOL    HW119085   4.240   0.339   7.065
 6114SOL    HW219086   4.089   0.333   7.078
 6115SOL     OW19087   3.941   1.716   6.056
 6115SOL    HW119088   3.960   1.791   6.113
 6115SOL    HW219089   4.018   1.708   6.001
 6116SOL     OW19090   3.957   1.445   6.123
 6116SOL    HW119091   3.934   1.538   6.126
 6116SOL    HW219092   3.900   1.404   6.188
 6117SOL     OW19093   3.982   1.089   6.470
 6117SOL    HW119094   3.986   1.002   6.511
 6117SOL    HW219095   3.933   1.143   6.531
 6118SOL     OW19096   4.358   1.795   7.045
 6118SOL    HW119097   4.268   1.768   7.063
 6118SOL    HW219098   4.355   1.890   7.044
 6119SOL     OW19099   4.307   0.986   5.731
 6119SOL    HW119100   4.340   1.033   5.655
 6119SOL    HW219101   4.374   0.999   5.798
 6120SOL     OW19102   3.843   0.656   6.148
 6120SOL    HW119103   3.810   0.569   6.170
 6120SOL    HW219104   3.834   0.706   6.229
 6121SOL     OW19105   3.764   1.590   5.706
 6121SOL    HW119106   3.743   1.499   5.726
 6121SOL    HW219107   3.737   1.638   5.785
 6122SOL     OW19108   3.843   0.747   7.168
 6122SOL    HW119109   3.933   0.780   7.172
 6122SOL    HW219110   3.788   0.825   7.166
 6123SOL     OW19111   4.303   1.389   6.323
 6123SOL    HW119112   4.269   1.300   6.323
 6123SOL    HW219113   4.308   1.413   6.230
 6124SOL     OW19114   0.015   0.008   6.082
 6124SOL    HW119115   0.048   0.075   6.022
 6124SOL    HW219116   4.428   0.040   6.108
 6125SOL     OW19117   3.909   0.958   6.867
 6125SOL    HW119118   3.997   0.922   6.850
 6125SOL    HW219119   3.853   0.915   6.803
 6126SOL     OW19120   4.040   0.247   7.369
 6126SOL    HW119121   4.100   0.316   7.398
 6126SOL    HW219122   3.965   0.254   7.428
 6127SOL     OW19123   4.311   0.723   5.855
 6127SOL    HW119124   4.304   0.806   5.808
 6127SOL    HW219125   4.247   0.730   5.927
 6128SOL     OW19126   3.812   0.823   6.363
 6128SOL    HW119127   3.892   0.815   6.414
 6128SOL    HW219128   3.769   0.901   6.398
 6129SOL     OW19129   3.853   1.869   7.169
 6129SOL    HW119130   3.856   1.846   7.262
 6129SOL    HW219131   3.768   1.835   7.139
 6130SOL     OW19132   4.231   0.204   6.486
 6130SOL    HW119133   4.274   0.221   6.569
 6130SOL    HW219134   4.258   0.276   6.429
 6131SOL     OW19135   4.083   1.818   6.457
 6131SOL    HW119136   4.137   1.739   6.465
 6131SOL    HW219137   4.145   1.891   6.466
 6132SOL     OW19138   4.037   0.962   5.840
 6132SOL    HW119139   4.121   0.981   5.798
 6132SOL    HW219140   4.010   0.879   5.801
 6133SOL     OW19141   4.176   1.251   7.319
 6133SOL    HW119142   4.150   1.265   7.228
 6133SOL    HW219143   4.094   1.260   7.369
 6134SOL     OW19144   3.909   0.269   7.106
 6134SOL    HW119145   3.845   0.340   7.095
 6134SOL    HW219146   3.932   0.271   7.199
 6135SOL     OW19147   4.189   1.733   5.911
 6135SOL    HW119148   4.225   1.795   5.975
 6135SOL    HW219149   4.258   1.722   5.846
 6136SOL     OW19150   3.980   1.793   6.813
 6136SOL    HW119151   4.025   1.717   6.851
 6136SOL    HW219152   3.966   1.769   6.722
 6137SOL     OW19153   4.115   0.690   6.056
 6137SOL    HW119154   4.137   0.598   6.075
 6137SOL    HW219155   4.022   0.697   6.076
 6138SOL     OW19156   4.327   0.116   5.703
 6138SOL    HW119157   4.412   0.071   5.712
 6138SOL    HW219158   4.303   0.103   5.612
 6139SOL     OW19159   0.025   1.416   6.488
 6139SOL    HW119160   0.066   1.483   6.433
 6139SOL    HW219161   4.447   1.389   6.438
 6140SOL     OW19162   4.274   0.115   6.130
 6140SOL    HW119163   4.190   0.079   6.160
 6140SOL    HW219164   4.253   0.164   6.051
 6141SOL     OW19165   4.021   0.062   5.796
 6141SOL    HW119166   4.099   0.114   5.779
 6141SOL    HW219167   4.049   4.499   5.863
 6142SOL     OW19168   0.324   0.669   7.054
 6142SOL    HW119169   0.299   0.601   6.991
 6142SOL    HW219170   0.412   0.644   7.082
 6143SOL     OW19171   4.193   1.142   6.307
 6143SOL    HW119172   4.128   1.123   6.374
 6143SOL    HW219173   4.147   1.130   6.224
 6144SOL     OW19174   3.813   0.546   6.984
 6144SOL    HW119175   3.903   0.552   6.951
 6144SOL    HW219176   3.805   0.618   7.046
 6145SOL     OW19177   4.297   0.244   6.747
 6145SOL    HW119178   4.301   0.153   6.779
 6145SOL    HW219179   4.213   0.277   6.779
 6146SOL     OW19180   4.231   1.384   5.760
 6146SOL    HW119181   4.146   1.369   5.802
 6146SOL    HW219182   4.212   1.392   5.667
 6147SOL     OW19183   4.236   0.270   5.908
 6147SOL    HW119184   4.281   0.215   5.843
 6147SOL    HW219185   4.216   0.351   5.861
 6148SOL     OW19186   4.147   0.818   6.840
 6148SOL    HW119187   4.216   0.823   6.906
 6148SOL    HW219188   4.111   0.730   6.849
 6149SOL     OW19189   3.797   1.575   6.944
 6149SOL    HW119190   3.765   1.642   6.885
 6149SOL    HW219191   3.892   1.577   6.933
 6150SOL     OW19192   4.053   1.119   6.073
 6150SOL    HW119193   4.054   1.192   6.011
 6150SOL    HW219194   4.054   1.041   6.018
 6151SOL     OW19195   4.310   0.535   6.450
 6151SOL    HW119196   4.305   0.603   6.382
 6151SOL    HW219197   4.375   0.568   6.512
 6152SOL     OW19198   4.071   1.540   6.897
 6152SOL    HW119199   4.069   1.494   6.813
 6152SOL    HW219200   4.163   1.539   6.923
 6153SOL     OW19201   4.147   0.735   7.197
 6153SOL    HW119202   4.202   0.779   7.133
 6153SOL    HW219203   4.198   0.658   7.223
 6154SOL     OW19204   4.246   0.074   7.305
 6154SOL    HW119205   4.216   4.484   7.292
 6154SOL    HW219206   4.166   0.124   7.320
 6155SOL     OW19207   4.283   0.905   6.612
 6155SOL    HW119208   4.303   0.997   6.628
 6155SOL    HW219209   4.242   0.875   6.694
 6156SOL     OW19210   4.013   0.237   6.827
 6156SOL    HW119211   3.964   0.247   6.908
 6156SOL    HW219212   4.059   0.153   6.836
 6157SOL     OW19213   3.773   1.312   6.860
 6157SOL    HW119214   3.802   1.255   6.931
 6157SOL    HW219215   3.775   1.400   6.897
 6158SOL     OW19216   4.013   0.045   6.235
 6158SOL    HW119217   3.999   0.139   6.237
 6158SOL    HW219218   4.022   0.020   6.327
 6159SOL     OW19219   4.074   0.913   7.394
 6159SOL    HW119220   4.154   0.928   7.445
 6159SOL    HW219221   4.099   0.847   7.329
 6160SOL     OW19222   4.031   0.810   6.531
 6160SOL    HW119223   4.121   0.841   6.534
 6160SOL    HW219224   4.035   0.719   6.560
 6161SOL     OW19225   4.076   0.536   6.596
 6161SOL    HW119226   4.029   0.456   6.576
 6161SOL    HW219227   4.156   0.532   6.543
 6162SOL     OW19228   3.733   1.316   5.780
 6162SOL    HW119229   3.645   1.333   5.745
 6162SOL    HW219230   3.728   1.228   5.816
 6163SOL     OW19231   3.819   1.781   6.531
 6163SOL    HW119232   3.787   1.705   6.483
 6163SOL    HW219233   3.908   1.796   6.497
 6164SOL     OW19234   4.233   1.588   6.492
 6164SOL    HW119235   4.320   1.608   6.529
 6164SOL    HW219236   4.250   1.521   6.426
 6165SOL     OW19237   3.755   0.545   6.704
 6165SOL    HW119238   3.824   0.512   6.647
 6165SOL    HW219239   3.795   0.548   6.791
 6166SOL     OW19240   3.910   0.524   7.311
 6166SOL    HW119241   3.992   0.513   7.263
 6166SOL    HW219242   3.867   0.598   7.269
 6167SOL     OW19243   0.023   0.544   5.849
 6167SOL    HW119244   0.028   0.514   5.940
 6167SOL    HW219245   4.453   0.610   5.849
 6168SOL     OW19246   3.965   1.552   7.308
 6168SOL    HW119247   3.939   1.616   7.374
 6168SOL    HW219248   3.965   1.469   7.355
 6169SOL     OW19249   4.183   0.493   5.766
 6169SOL    HW119250   4.242   0.565   5.787
 6169SOL    HW219251   4.098   0.535   5.752
 6170SOL     OW19252   3.864   1.142   7.061
 6170SOL    HW119253   3.866   1.095   7.144
 6170SOL    HW219254   3.881   1.074   6.995
 6171SOL     OW19255   3.814   1.270   6.596
 6171SOL    HW119256   3.795   1.282   6.689
 6171SOL    HW219257   3.744   1.213   6.565
 6172SOL     OW19258   4.390   1.653   7.280
 6172SOL    HW119259   4.356   1.731   7.325
 6172SOL    HW219260   4.395   1.679   7.188
 6173SOL     OW19261   3.866   1.795   7.429
 6173SOL    HW119262   3.815   1.730   7.476
 6173SOL    HW219263   3.912   1.844   7.497
 6174SOL     OW19264   3.982   0.316   6.296
 6174SOL    HW119265   3.897   0.354   6.274
 6174SOL    HW219266   3.983   0.312   6.392
 6175SOL     OW19267   4.083   1.311   7.075
 6175SOL    HW119268   4.062   1.385   7.018
 6175SOL    HW219269   4.011   1.249   7.061
 6176SOL     OW19270   4.328   1.491   6.065
 6176SOL    HW119271   4.342   1.431   5.991
 6176SOL    HW219272   4.258   1.549   6.035
 6177SOL     OW19273   3.987   1.343   5.880
 6177SOL    HW119274   3.895   1.339   5.854
 6177SOL    HW219275   3.986   1.385   5.966
 6178SOL     OW19276   3.838   1.037   7.313
 6178SOL    HW119277   3.761   1.007   7.362
 6178SOL    HW219278   3.912   0.991   7.354
 6179SOL     OW19279   4.361   0.203   7.078
 6179SOL    HW119280   4.454   0.228   7.073
 6179SOL    HW219281   4.352   0.161   7.164
 6180SOL     OW19282   3.807   0.326   5.633
 6180SOL    HW119283   3.737   0.271   5.597
 6180SOL    HW219284   3.812   0.400   5.573
 6181SOL     OW19285   3.786   0.191   5.891
 6181SOL    HW119286   3.788   0.258   5.823
 6181SOL    HW219287   3.861   0.135   5.874
 6182SOL     OW19288   4.345   0.841   7.030
 6182SOL    HW119289   4.374   0.929   7.005
 6182SOL    HW219290   4.424   0.800   7.065
 6183SOL     OW19291   4.381   0.566   7.317
 6183SOL    HW119292   4.409   0.637   7.375
 6183SOL    HW219293   4.463   0.528   7.285
 6184SOL     OW19294   4.103   1.741   7.148
 6184SOL    HW119295   4.020   1.788   7.132
 6184SOL    HW219296   4.077   1.661   7.193
 6185SOL     OW19297   4.306   0.727   6.256
 6185SOL    HW119298   4.347   0.812   6.240
 6185SOL    HW219299   4.239   0.719   6.189
 6186SOL     OW19300   3.939   1.304   7.437
 6186SOL    HW119301   3.882   1.235   7.403
 6186SOL    HW219302   3.913   1.315   7.528
 6187SOL     OW19303   3.815   1.229   6.252
 6187SOL    HW119304   3.826   1.184   6.336
 6187SOL    HW219305   3.881   1.189   6.194
 6188SOL     OW19306   4.430   1.387   7.266
 6188SOL    HW119307   4.341   1.361   7.245
 6188SOL    HW219308   4.426   1.483   7.272
 6189SOL     OW19309   4.169   0.434   6.126
 6189SOL    HW119310   4.186   0.369   6.057
 6189SOL    HW219311   4.109   0.390   6.186
 6190SOL     OW19312   4.057   0.562   6.873
 6190SOL    HW119313   4.108   0.503   6.928
 6190SOL    HW219314   4.077   0.536   6.784
 6191SOL     OW19315   0.033   1.614   6.276
 6191SOL    HW119316   0.059   1.683   6.214
 6191SOL    HW219317   4.470   1.561   6.227
 6192SOL     OW19318   3.767   1.065   5.894
 6192SOL    HW119319   3.860   1.056   5.875
 6192SOL    HW219320   3.738   0.976   5.917
 6193SOL     OW19321   3.947   0.625   7.573
 6193SOL    HW119322   3.861   0.617   7.614
 6193SOL    HW219323   3.933   0.597   7.483
 6194SOL     OW19324   3.924   0.313   8.439
 6194SOL    HW119325   3.961   0.279   8.520
 6194SOL    HW219326   3.846   0.260   8.424
 6195SOL     OW19327   3.728   0.395   8.082
 6195SOL    HW119328   3.641   0.410   8.121
 6195SOL    HW219329   3.714   0.323   8.020
 6196SOL     OW19330   4.266   1.229   8.592
 6196SOL    HW119331   4.205   1.299   8.571
 6196SOL    HW219332   4.338   1.272   8.638
 6197SOL     OW19333   0.014   0.773   9.304
 6197SOL    HW119334   0.063   0.804   9.380
 6197SOL    HW219335   0.052   0.821   9.230
 6198SOL     OW19336   4.403   0.984   8.069
 6198SOL    HW119337   4.477   0.976   8.129
 6198SOL    HW219338   4.342   1.044   8.112
 6199SOL     OW19339   4.417   1.154   9.257
 6199SOL    HW119340   4.454   1.235   9.220
 6199SOL    HW219341   4.324   1.160   9.239
 6200SOL     OW19342   4.065   1.428   8.517
 6200SOL    HW119343   3.992   1.382   8.475
 6200SOL    HW219344   4.106   1.477   8.445
 6201SOL     OW19345   4.161   0.393   8.924
 6201SOL    HW119346   4.240   0.339   8.927
 6201SOL    HW219347   4.089   0.332   8.940
 6202SOL     OW19348   3.940   1.716   7.918
 6202SOL    HW119349   3.960   1.791   7.974
 6202SOL    HW219350   4.018   1.708   7.863
 6203SOL     OW19351   3.957   1.445   7.984
 6203SOL    HW119352   3.934   1.538   7.988
 6203SOL    HW219353   3.900   1.404   8.050
 6204SOL     OW19354   3.982   1.089   8.332
 6204SOL    HW119355   3.986   1.002   8.373
 6204SOL    HW219356   3.933   1.143   8.393
 6205SOL     OW19357   4.358   1.795   8.907
 6205SOL    HW119358   4.268   1.768   8.925
 6205SOL    HW219359   4.355   1.890   8.906
 6206SOL     OW19360   4.307   0.986   7.593
 6206SOL    HW119361   4.340   1.033   7.517
 6206SOL    HW219362   4.374   0.999   7.661
 6207SOL     OW19363   3.843   0.656   8.010
 6207SOL    HW119364   3.810   0.569   8.032
 6207SOL    HW219365   3.834   0.706   8.091
 6208SOL     OW19366   3.764   1.590   7.568
 6208SOL    HW119367   3.743   1.499   7.588
 6208SOL    HW219368   3.737   1.638   7.647
 6209SOL     OW19369   3.843   0.747   9.030
 6209SOL    HW119370   3.933   0.780   9.034
 6209SOL    HW219371   3.788   0.825   9.028
 6210SOL     OW19372   4.303   1.389   8.185
 6210SOL    HW119373   4.269   1.300   8.185
 6210SOL    HW219374   4.308   1.413   8.092
 6211SOL     OW19375   0.014   0.007   7.943
 6211SOL    HW119376   0.048   0.074   7.884
 6211SOL    HW219377   4.428   0.039   7.969
 6212SOL     OW19378   3.909   0.958   8.729
 6212SOL    HW119379   3.997   0.922   8.712
 6212SOL    HW219380   3.853   0.914   8.665
 6213SOL     OW19381   4.040   0.247   9.231
 6213SOL    HW119382   4.100   0.315   9.260
 6213SOL    HW219383   3.965   0.254   9.290
 6214SOL     OW19384   4.311   0.723   7.717
 6214SOL    HW119385   4.304   0.806   7.671
 6214SOL    HW219386   4.247   0.730   7.789
 6215SOL     OW19387   3.812   0.824   8.225
 6215SOL    HW119388   3.892   0.815   8.276
 6215SOL    HW219389   3.769   0.902   8.260
 6216SOL     OW19390   3.853   1.869   9.031
 6216SOL    HW119391   3.856   1.846   9.124
 6216SOL    HW219392   3.768   1.836   9.001
 6217SOL     OW19393   4.231   0.204   8.348
 6217SOL    HW119394   4.274   0.221   8.431
 6217SOL    HW219395   4.258   0.276   8.291
 6218SOL     OW19396   4.083   1.818   8.319
 6218SOL    HW119397   4.137   1.739   8.327
 6218SOL    HW219398   4.145   1.891   8.328
 6219SOL     OW19399   4.037   0.962   7.701
 6219SOL    HW119400   4.122   0.981   7.661
 6219SOL    HW219401   4.010   0.879   7.663
 6220SOL     OW19402   4.176   1.251   9.181
 6220SOL    HW119403   4.150   1.265   9.090
 6220SOL    HW219404   4.094   1.260   9.231
 6221SOL     OW19405   3.909   0.269   8.968
 6221SOL    HW119406   3.845   0.340   8.958
 6221SOL    HW219407   3.932   0.271   9.061
 6222SOL     OW19408   4.189   1.733   7.774
 6222SOL    HW119409   4.225   1.795   7.837
 6222SOL    HW219410   4.258   1.722   7.708
 6223SOL     OW19411   3.980   1.793   8.675
 6223SOL    HW119412   4.025   1.717   8.714
 6223SOL    HW219413   3.966   1.769   8.584
 6224SOL     OW19414   4.115   0.690   7.918
 6224SOL    HW119415   4.136   0.598   7.937
 6224SOL    HW219416   4.022   0.697   7.938
 6225SOL     OW19417   4.327   0.116   7.565
 6225SOL    HW119418   4.412   0.072   7.575
 6225SOL    HW219419   4.304   0.103   7.473
 6226SOL     OW19420   0.025   1.416   8.350
 6226SOL    HW119421   0.066   1.483   8.295
 6226SOL    HW219422   4.447   1.389   8.300
 6227SOL     OW19423   4.274   0.115   7.993
 6227SOL    HW119424   4.191   0.080   8.022
 6227SOL    HW219425   4.253   0.164   7.913
 6228SOL     OW19426   4.021   0.062   7.658
 6228SOL    HW119427   4.099   0.114   7.641
 6228SOL    HW219428   4.049   4.499   7.725
 6229SOL     OW19429   0.324   0.669   8.915
 6229SOL    HW119430   0.300   0.601   8.852
 6229SOL    HW219431   0.411   0.645   8.945
 6230SOL     OW19432   4.193   1.142   8.169
 6230SOL    HW119433   4.128   1.123   8.236
 6230SOL    HW219434   4.146   1.130   8.086
 6231SOL     OW19435   3.813   0.546   8.846
 6231SOL    HW119436   3.903   0.552   8.813
 6231SOL    HW219437   3.805   0.618   8.908
 6232SOL     OW19438   4.297   0.244   8.609
 6232SOL    HW119439   4.302   0.153   8.641
 6232SOL    HW219440   4.213   0.276   8.641
 6233SOL     OW19441   4.231   1.384   7.622
 6233SOL    HW119442   4.146   1.369   7.663
 6233SOL    HW219443   4.212   1.392   7.529
 6234SOL     OW19444   4.236   0.270   7.770
 6234SOL    HW119445   4.281   0.215   7.705
 6234SOL    HW219446   4.216   0.351   7.723
 6235SOL     OW19447   4.147   0.818   8.702
 6235SOL    HW119448   4.216   0.823   8.768
 6235SOL    HW219449   4.111   0.730   8.711
 6236SOL     OW19450   3.797   1.574   8.806
 6236SOL    HW119451   3.765   1.643   8.747
 6236SOL    HW219452   3.892   1.577   8.795
 6237SOL     OW19453   4.053   1.119   7.935
 6237SOL    HW119454   4.054   1.192   7.873
 6237SOL    HW219455   4.054   1.041   7.880
 6238SOL     OW19456   4.310   0.534   8.312
 6238SOL    HW119457   4.306   0.602   8.245
 6238SOL    HW219458   4.375   0.567   8.374
 6239SOL     OW19459   4.071   1.540   8.759
 6239SOL    HW119460   4.069   1.494   8.675
 6239SOL    HW219461   4.163   1.539   8.785
 6240SOL     OW19462   4.147   0.734   9.059
 6240SOL    HW119463   4.202   0.779   8.995
 6240SOL    HW219464   4.198   0.658   9.086
 6241SOL     OW19465   4.246   0.074   9.167
 6241SOL    HW119466   4.216   4.484   9.154
 6241SOL    HW219467   4.166   0.124   9.182
 6242SOL     OW19468   4.282   0.905   8.474
 6242SOL    HW119469   4.303   0.997   8.490
 6242SOL    HW219470   4.242   0.875   8.556
 6243SOL     OW19471   4.013   0.236   8.689
 6243SOL    HW119472   3.964   0.247   8.771
 6243SOL    HW219473   4.059   0.153   8.698
 6244SOL     OW19474   3.772   1.312   8.722
 6244SOL    HW119475   3.802   1.255   8.793
 6244SOL    HW219476   3.775   1.400   8.759
 6245SOL     OW19477   4.013   0.045   8.096
 6245SOL    HW119478   3.999   0.139   8.098
 6245SOL    HW219479   4.022   0.020   8.188
 6246SOL     OW19480   4.074   0.913   9.256
 6246SOL    HW119481   4.154   0.928   9.307
 6246SOL    HW219482   4.099   0.847   9.191
 6247SOL     OW19483   4.031   0.810   8.393
 6247SOL    HW119484   4.121   0.841   8.396
 6247SOL    HW219485   4.035   0.719   8.421
 6248SOL     OW19486   4.076   0.536   8.458
 6248SOL    HW119487   4.029   0.456   8.438
 6248SOL    HW219488   4.156   0.532   8.405
 6249SOL     OW19489   3.731   1.316   7.643
 6249SOL    HW119490   3.644   1.333   7.607
 6249SOL    HW219491   3.727   1.228   7.678
 6250SOL     OW19492   3.819   1.781   8.392
 6250SOL    HW119493   3.788   1.705   8.344
 6250SOL    HW219494   3.907   1.796   8.359
 6251SOL     OW19495   4.233   1.588   8.354
 6251SOL    HW119496   4.320   1.608   8.391
 6251SOL    HW219497   4.250   1.521   8.288
 6252SOL     OW19498   3.755   0.545   8.566
 6252SOL    HW119499   3.824   0.512   8.509
 6252SOL    HW219500   3.794   0.548   8.653
 6253SOL     OW19501   3.910   0.524   9.173
 6253SOL    HW119502   3.992   0.513   9.125
 6253SOL    HW219503   3.867   0.598   9.131
 6254SOL     OW19504   0.023   0.544   7.711
 6254SOL    HW119505   0.029   0.515   7.802
 6254SOL    HW219506   4.453   0.609   7.711
 6255SOL     OW19507   3.965   1.552   9.170
 6255SOL    HW119508   3.939   1.617   9.236
 6255SOL    HW219509   3.965   1.469   9.217
 6256SOL     OW19510   4.182   0.493   7.628
 6256SOL    HW119511   4.242   0.565   7.649
 6256SOL    HW219512   4.098   0.535   7.614
 6257SOL     OW19513   3.864   1.142   8.922
 6257SOL    HW119514   3.866   1.095   9.006
 6257SOL    HW219515   3.881   1.074   8.857
 6258SOL     OW19516   3.814   1.270   8.458
 6258SOL    HW119517   3.795   1.282   8.551
 6258SOL    HW219518   3.744   1.213   8.427
 6259SOL     OW19519   4.390   1.653   9.142
 6259SOL    HW119520   4.356   1.731   9.187
 6259SOL    HW219521   4.395   1.679   9.050
 6260SOL     OW19522   3.866   1.795   9.291
 6260SOL    HW119523   3.815   1.729   9.338
 6260SOL    HW219524   3.912   1.844   9.359
 6261SOL     OW19525   3.982   0.316   8.158
 6261SOL    HW119526   3.897   0.354   8.137
 6261SOL    HW219527   3.983   0.311   8.254
 6262SOL     OW19528   4.083   1.311   8.937
 6262SOL    HW119529   4.062   1.386   8.880
 6262SOL    HW219530   4.011   1.249   8.923
 6263SOL     OW19531   4.327   1.491   7.927
 6263SOL    HW119532   4.343   1.431   7.853
 6263SOL    HW219533   4.258   1.550   7.896
 6264SOL     OW19534   3.986   1.344   7.741
 6264SOL    HW119535   3.894   1.339   7.716
 6264SOL    HW219536   3.986   1.385   7.827
 6265SOL     OW19537   3.838   1.036   9.175
 6265SOL    HW119538   3.761   1.007   9.224
 6265SOL    HW219539   3.912   0.991   9.216
 6266SOL     OW19540   4.362   0.203   8.940
 6266SOL    HW119541   4.454   0.228   8.936
 6266SOL    HW219542   4.352   0.161   9.026
 6267SOL     OW19543   3.807   0.326   7.495
 6267SOL    HW119544   3.738   0.270   7.460
 6267SOL    HW219545   3.812   0.400   7.435
 6268SOL     OW19546   3.786   0.191   7.753
 6268SOL    HW119547   3.789   0.258   7.685
 6268SOL    HW219548   3.861   0.135   7.736
 6269SOL     OW19549   4.345   0.841   8.892
 6269SOL    HW119550   4.374   0.929   8.867
 6269SOL    HW219551   4.424   0.799   8.927
 6270SOL     OW19552   4.381   0.566   9.179
 6270SOL    HW119553   4.409   0.637   9.236
 6270SOL    HW219554   4.462   0.528   9.147
 6271SOL     OW19555   4.103   1.741   9.009
 6271SOL    HW119556   4.020   1.788   8.994
 6271SOL    HW219557   4.077   1.661   9.055
 6272SOL     OW19558   4.306   0.727   8.119
 6272SOL    HW119559   4.347   0.812   8.102
 6272SOL    HW219560   4.239   0.719   8.051
 6273SOL     OW19561   3.939   1.304   9.299
 6273SOL    HW119562   3.881   1.235   9.266
 6273SOL    HW219563   3.913   1.315   9.390
 6274SOL     OW19564   3.815   1.229   8.114
 6274SOL    HW119565   3.827   1.184   8.198
 6274SOL    HW219566   3.881   1.189   8.056
 6275SOL     OW19567   4.430   1.387   9.128
 6275SOL    HW119568   4.341   1.361   9.107
 6275SOL    HW219569   4.426   1.483   9.134
 6276SOL     OW19570   4.168   0.434   7.987
 6276SOL    HW119571   4.186   0.369   7.919
 6276SOL    HW219572   4.109   0.390   8.048
 6277SOL     OW19573   4.057   0.562   8.735
 6277SOL    HW119574   4.108   0.503   8.790
 6277SOL    HW219575   4.078   0.536   8.646
 6278SOL     OW19576   0.033   1.614   8.138
 6278SOL    HW119577   0.058   1.683   8.076
 6278SOL    HW219578   4.470   1.561   8.089
 6279SOL     OW19579   3.766   1.065   7.756
 6279SOL    HW119580   3.860   1.056   7.737
 6279SOL    HW219581   3.738   0.976   7.778
 6280SOL     OW19582   3.947   0.625   9.435
 6280SOL    HW119583   3.861   0.617   9.476
 6280SOL    HW219584   3.933   0.597   9.345
 6281SOL     OW19585   3.924   0.313  10.301
 6281SOL    HW119586   3.961   0.279  10.382
 6281SOL    HW219587   3.845   0.260  10.286
 6282SOL     OW19588   3.728   0.394   9.944
 6282SOL    HW119589   3.642   0.410   9.983
 6282SOL    HW219590   3.714   0.323   9.882
 6283SOL     OW19591   4.266   1.229  10.458
 6283SOL    HW119592   4.205   1.299  10.433
 6283SOL    HW219593   4.339   1.274  10.501
 6284SOL     OW19594   0.025   0.809   0.083
 6284SOL    HW119595   0.111   0.839   0.111
 6284SOL    HW219596   0.034   0.791  11.089
 6285SOL     OW19597   4.403   0.984   9.931
 6285SOL    HW119598   4.476   0.974   9.991
 6285SOL    HW219599   4.343   1.044   9.975
 6286SOL     OW19600   4.067   1.427  10.378
 6286SOL    HW119601   3.993   1.382  10.338
 6286SOL    HW219602   4.106   1.477  10.307
 6287SOL     OW19603   4.176   0.399  10.785
 6287SOL    HW119604   4.246   0.335  10.796
 6287SOL    HW219605   4.097   0.352  10.811
 6288SOL     OW19606   3.940   1.717   9.780
 6288SOL    HW119607   3.960   1.791   9.836
 6288SOL    HW219608   4.018   1.708   9.725
 6289SOL     OW19609   3.957   1.445   9.846
 6289SOL    HW119610   3.934   1.538   9.850
 6289SOL    HW219611   3.900   1.404   9.912
 6290SOL     OW19612   3.982   1.089  10.194
 6290SOL    HW119613   3.986   1.003  10.236
 6290SOL    HW219614   3.933   1.143  10.255
 6291SOL     OW19615   4.353   1.811  10.745
 6291SOL    HW119616   4.268   1.781  10.777
 6291SOL    HW219617   4.355   1.904  10.766
 6292SOL     OW19618   4.307   0.986   9.455
 6292SOL    HW119619   4.340   1.033   9.379
 6292SOL    HW219620   4.374   0.999   9.523
 6293SOL     OW19621   3.843   0.656   9.872
 6293SOL    HW119622   3.810   0.569   9.894
 6293SOL    HW219623   3.834   0.706   9.953
 6294SOL     OW19624   3.764   1.590   9.431
 6294SOL    HW119625   3.743   1.499   9.450
 6294SOL    HW219626   3.737   1.638   9.509
 6295SOL     OW19627   3.852   0.726  10.922
 6295SOL    HW119628   3.943   0.749  10.905
 6295SOL    HW219629   3.804   0.808  10.911
 6296SOL     OW19630   4.304   1.389  10.047
 6296SOL    HW119631   4.269   1.300  10.047
 6296SOL    HW219632   4.309   1.413   9.954
 6297SOL     OW19633   0.014   0.007   9.805
 6297SOL    HW119634   0.048   0.074   9.745
 6297SOL    HW219635   4.428   0.039   9.831
 6298SOL     OW19636   3.909   0.956  10.583
 6298SOL    HW119637   3.996   0.919  10.567
 6298SOL    HW219638   3.852   0.909  10.523
 6299SOL     OW19639   4.055   0.284  11.083
 6299SOL    HW119640   4.112   0.343   0.032
 6299SOL    HW219641   3.971   0.288   0.028
 6300SOL     OW19642   4.311   0.722   9.579
 6300SOL    HW119643   4.305   0.806   9.533
 6300SOL    HW219644   4.247   0.730   9.651
 6301SOL     OW19645   3.811   0.824  10.087
 6301SOL    HW119646   3.892   0.815  10.138
 6301SOL    HW219647   3.769   0.902  10.122
 6302SOL     OW19648   3.858   1.861  10.900
 6302SOL    HW119649   3.847   1.819  10.986
 6302SOL    HW219650   3.780   1.834  10.851
 6303SOL     OW19651   4.231   0.207  10.217
 6303SOL    HW119652   4.284   0.225  10.295
 6303SOL    HW219653   4.256   0.275  10.155
 6304SOL     OW19654   4.083   1.818  10.181
 6304SOL    HW119655   4.137   1.740  10.189
 6304SOL    HW219656   4.145   1.891  10.190
 6305SOL     OW19657   4.037   0.962   9.563
 6305SOL    HW119658   4.122   0.981   9.523
 6305SOL    HW219659   4.010   0.879   9.525
 6306SOL     OW19660   4.172   1.262  11.058
 6306SOL    HW119661   4.146   1.283  10.968
 6306SOL    HW219662   4.107   1.199  11.088
 6307SOL     OW19663   3.927   0.271  10.825
 6307SOL    HW119664   3.855   0.334  10.824
 6307SOL    HW219665   3.955   0.268  10.917
 6308SOL     OW19666   4.189   1.733   9.636
 6308SOL    HW119667   4.225   1.795   9.699
 6308SOL    HW219668   4.258   1.722   9.570
 6309SOL     OW19669   3.982   1.793  10.538
 6309SOL    HW119670   4.025   1.717  10.578
 6309SOL    HW219671   3.968   1.768  10.447
 6310SOL     OW19672   4.115   0.690   9.780
 6310SOL    HW119673   4.137   0.599   9.799
 6310SOL    HW219674   4.022   0.697   9.800
 6311SOL     OW19675   4.327   0.116   9.427
 6311SOL    HW119676   4.412   0.072   9.437
 6311SOL    HW219677   4.304   0.103   9.335
 6312SOL     OW19678   0.025   1.416  10.212
 6312SOL    HW119679   0.066   1.483  10.157
 6312SOL    HW219680   4.448   1.389  10.162
 6313SOL     OW19681   4.274   0.116   9.855
 6313SOL    HW119682   4.191   0.079   9.883
 6313SOL    HW219683   4.254   0.165   9.776
 6314SOL     OW19684   4.021   0.062   9.520
 6314SOL    HW119685   4.099   0.114   9.503
 6314SOL    HW219686   4.049   4.499   9.587
 6315SOL     OW19687   0.306   0.676  10.788
 6315SOL    HW119688   0.293   0.592  10.743
 6315SOL    HW219689   0.394   0.671  10.825
 6316SOL     OW19690   4.193   1.142  10.031
 6316SOL    HW119691   4.128   1.123  10.098
 6316SOL    HW219692   4.147   1.130   9.948
 6317SOL     OW19693   3.812   0.543  10.716
 6317SOL    HW119694   3.901   0.552  10.682
 6317SOL    HW219695   3.807   0.607  10.787
 6318SOL     OW19696   4.301   0.236  10.485
 6318SOL    HW119697   4.287   0.142  10.494
 6318SOL    HW219698   4.217   0.276  10.506
 6319SOL     OW19699   4.231   1.384   9.484
 6319SOL    HW119700   4.146   1.369   9.525
 6319SOL    HW219701   4.212   1.392   9.391
 6320SOL     OW19702   4.236   0.270   9.632
 6320SOL    HW119703   4.281   0.215   9.567
 6320SOL    HW219704   4.216   0.351   9.585
 6321SOL     OW19705   4.147   0.816  10.561
 6321SOL    HW119706   4.215   0.822  10.627
 6321SOL    HW219707   4.111   0.728  10.571
 6322SOL     OW19708   3.798   1.579  10.670
 6322SOL    HW119709   3.767   1.645  10.608
 6322SOL    HW219710   3.893   1.578  10.658
 6323SOL     OW19711   4.053   1.119   9.797
 6323SOL    HW119712   4.054   1.192   9.735
 6323SOL    HW219713   4.054   1.041   9.742
 6324SOL     OW19714   4.310   0.534  10.176
 6324SOL    HW119715   4.307   0.603  10.110
 6324SOL    HW219716   4.377   0.562  10.238
 6325SOL     OW19717   4.072   1.539  10.622
 6325SOL    HW119718   4.070   1.492  10.539
 6325SOL    HW219719   4.164   1.541  10.647
 6326SOL     OW19720   4.137   0.730  10.897
 6326SOL    HW119721   4.205   0.772  10.845
 6326SOL    HW219722   4.156   0.636  10.890
 6327SOL     OW19723   4.283   0.906  10.335
 6327SOL    HW119724   4.303   0.998  10.352
 6327SOL    HW219725   4.242   0.875  10.416
 6328SOL     OW19726   4.015   0.236  10.550
 6328SOL    HW119727   3.975   0.249  10.637
 6328SOL    HW219728   4.057   0.150  10.557
 6329SOL     OW19729   3.780   1.316  10.581
 6329SOL    HW119730   3.804   1.256  10.651
 6329SOL    HW219731   3.774   1.401  10.623
 6330SOL     OW19732   4.013   0.044   9.958
 6330SOL    HW119733   3.998   0.139   9.960
 6330SOL    HW219734   4.022   0.020  10.050
 6331SOL     OW19735   4.082   0.910  11.094
 6331SOL    HW119736   4.165   0.931   0.037
 6331SOL    HW219737   4.106   0.844  11.028
 6332SOL     OW19738   4.031   0.809  10.254
 6332SOL    HW119739   4.121   0.840  10.256
 6332SOL    HW219740   4.036   0.718  10.283
 6333SOL     OW19741   4.076   0.536  10.322
 6333SOL    HW119742   4.029   0.456  10.300
 6333SOL    HW219743   4.156   0.533  10.270
 6334SOL     OW19744   3.731   1.317   9.505
 6334SOL    HW119745   3.644   1.333   9.469
 6334SOL    HW219746   3.727   1.228   9.540
 6335SOL     OW19747   3.819   1.782  10.252
 6335SOL    HW119748   3.788   1.705  10.205
 6335SOL    HW219749   3.908   1.796  10.220
 6336SOL     OW19750   4.234   1.589  10.215
 6336SOL    HW119751   4.320   1.608  10.252
 6336SOL    HW219752   4.251   1.521  10.150
 6337SOL     OW19753   3.755   0.545  10.432
 6337SOL    HW119754   3.825   0.513  10.375
 6337SOL    HW219755   3.794   0.546  10.519
 6338SOL     OW19756   0.023   0.543   9.573
 6338SOL    HW119757   0.030   0.516   9.664
 6338SOL    HW219758   4.453   0.609   9.573
 6339SOL     OW19759   3.978   1.566  11.042
 6339SOL    HW119760   3.917   1.587   0.012
 6339SOL    HW219761   4.000   1.474  11.055
 6340SOL     OW19762   4.182   0.493   9.490
 6340SOL    HW119763   4.242   0.565   9.511
 6340SOL    HW219764   4.098   0.535   9.476
 6341SOL     OW19765   3.873   1.138  10.777
 6341SOL    HW119766   3.867   1.088  10.858
 6341SOL    HW219767   3.886   1.073  10.709
 6342SOL     OW19768   3.815   1.271  10.318
 6342SOL    HW119769   3.799   1.285  10.412
 6342SOL    HW219770   3.744   1.213  10.290
 6343SOL     OW19771   4.375   1.662  10.992
 6343SOL    HW119772   4.288   1.696  10.972
 6343SOL    HW219773   4.416   1.651  10.907
 6344SOL     OW19774   3.982   0.315  10.021
 6344SOL    HW119775   3.897   0.353   9.998
 6344SOL    HW219776   3.983   0.312  10.116
 6345SOL     OW19777   4.073   1.320  10.817
 6345SOL    HW119778   4.063   1.388  10.750
 6345SOL    HW219779   4.008   1.254  10.794
 6346SOL     OW19780   4.328   1.491   9.789
 6346SOL    HW119781   4.343   1.431   9.715
 6346SOL    HW219782   4.259   1.549   9.758
 6347SOL     OW19783   3.986   1.344   9.602
 6347SOL    HW119784   3.894   1.340   9.578
 6347SOL    HW219785   3.986   1.385   9.689
 6348SOL     OW19786   3.846   1.018  11.018
 6348SOL    HW119787   3.778   1.010  11.085
 6348SOL    HW219788   3.924   0.980  11.058
 6349SOL     OW19789   4.361   0.191  10.821
 6349SOL    HW119790   4.418   0.206  10.746
 6349SOL    HW219791   4.417   0.210  10.897
 6350SOL     OW19792   3.807   0.326   9.357
 6350SOL    HW119793   3.738   0.270   9.321
 6350SOL    HW219794   3.812   0.400   9.297
 6351SOL     OW19795   3.786   0.191   9.615
 6351SOL    HW119796   3.789   0.258   9.547
 6351SOL    HW219797   3.861   0.135   9.598
 6352SOL     OW19798   4.345   0.840  10.751
 6352SOL    HW119799   4.371   0.929  10.727
 6352SOL    HW219800   4.425   0.800  10.785
 6353SOL     OW19801   4.120   1.737  10.884
 6353SOL    HW119802   4.049   1.799  10.868
 6353SOL    HW219803   4.080   1.666  10.934
 6354SOL     OW19804   4.307   0.726   9.982
 6354SOL    HW119805   4.347   0.812   9.965
 6354SOL    HW219806   4.239   0.718   9.915
 6355SOL     OW19807   3.815   1.229   9.975
 6355SOL    HW119808   3.826   1.185  10.060
 6355SOL    HW219809   3.881   1.189   9.919
 6356SOL     OW19810   4.418   1.384  10.967
 6356SOL    HW119811   4.334   1.343  10.987
 6356SOL    HW219812   4.407   1.475  10.996
 6357SOL     OW19813   4.168   0.434   9.849
 6357SOL    HW119814   4.186   0.369   9.781
 6357SOL    HW219815   4.109   0.390   9.910
 6358SOL     OW19816   4.056   0.561  10.598
 6358SOL    HW119817   4.111   0.500  10.649
 6358SOL    HW219818   4.074   0.537  10.507
 6359SOL     OW19819   0.033   1.615   9.999
 6359SOL    HW119820   0.058   1.683   9.938
 6359SOL    HW219821   4.470   1.561   9.951
 6360SOL     OW19822   3.766   1.065   9.618
 6360SOL    HW119823   3.860   1.056   9.599
 6360SOL    HW219824   3.738   0.976   9.640
 6361SOL     OW19825   3.926   2.469   0.102
 6361SOL    HW119826   3.847   2.479   0.155
 6361SOL    HW219827   3.908   2.519   0.022
 6362SOL     OW19828   3.946   2.155   0.993
 6362SOL    HW119829   3.978   2.117   1.075
 6362SOL    HW219830   3.858   2.119   0.982
 6363SOL     OW19831   3.721   2.248   0.638
 6363SOL    HW119832   3.639   2.273   0.681
 6363SOL    HW219833   3.699   2.170   0.587
 6364SOL     OW19834   4.266   3.091   1.145
 6364SOL    HW119835   4.205   3.161   1.123
 6364SOL    HW219836   4.338   3.134   1.191
 6365SOL     OW19837   0.012   2.637   1.856
 6365SOL    HW119838   0.067   2.664   1.930
 6365SOL    HW219839   0.054   2.677   1.780
 6366SOL     OW19840   4.400   2.844   0.620
 6366SOL    HW119841   4.477   2.843   0.676
 6366SOL    HW219842   4.340   2.905   0.664
 6367SOL     OW19843   4.418   3.016   1.808
 6367SOL    HW119844   4.454   3.096   1.771
 6367SOL    HW219845   4.324   3.022   1.791
 6368SOL     OW19846   4.065   3.290   1.068
 6368SOL    HW119847   3.992   3.244   1.027
 6368SOL    HW219848   4.106   3.339   0.997
 6369SOL     OW19849   4.171   2.258   1.473
 6369SOL    HW119850   4.247   2.200   1.482
 6369SOL    HW219851   4.096   2.203   1.495
 6370SOL     OW19852   3.940   3.577   0.472
 6370SOL    HW119853   3.958   3.654   0.526
 6370SOL    HW219854   4.014   3.571   0.412
 6371SOL     OW19855   3.950   3.307   0.531
 6371SOL    HW119856   3.932   3.401   0.533
 6371SOL    HW219857   3.894   3.270   0.600
 6372SOL     OW19858   3.981   2.950   0.885
 6372SOL    HW119859   3.985   2.864   0.926
 6372SOL    HW219860   3.932   3.005   0.947
 6373SOL     OW19861   4.361   3.656   1.460
 6373SOL    HW119862   4.270   3.631   1.477
 6373SOL    HW219863   4.359   3.752   1.458
 6374SOL     OW19864   4.292   2.877   0.142
 6374SOL    HW119865   4.301   2.953   0.084
 6374SOL    HW219866   4.375   2.872   0.188
 6375SOL     OW19867   3.839   2.515   0.562
 6375SOL    HW119868   3.806   2.428   0.585
 6375SOL    HW219869   3.830   2.566   0.643
 6376SOL     OW19870   3.778   3.456   0.116
 6376SOL    HW119871   3.751   3.369   0.144
 6376SOL    HW219872   3.751   3.515   0.186
 6377SOL     OW19873   3.847   2.605   1.585
 6377SOL    HW119874   3.938   2.636   1.587
 6377SOL    HW219875   3.795   2.686   1.586
 6378SOL     OW19876   4.303   3.251   0.738
 6378SOL    HW119877   4.270   3.162   0.738
 6378SOL    HW219878   4.308   3.275   0.645
 6379SOL     OW19879   0.019   1.872   0.535
 6379SOL    HW119880   0.050   1.925   0.461
 6379SOL    HW219881   4.424   1.885   0.535
 6380SOL     OW19882   3.909   2.821   1.280
 6380SOL    HW119883   3.996   2.784   1.264
 6380SOL    HW219884   3.852   2.775   1.218
 6381SOL     OW19885   4.068   2.110   1.826
 6381SOL    HW119886   4.107   2.195   1.847
 6381SOL    HW219887   3.975   2.121   1.848
 6382SOL     OW19888   4.306   2.568   0.265
 6382SOL    HW119889   4.334   2.650   0.225
 6382SOL    HW219890   4.249   2.595   0.338
 6383SOL     OW19891   3.811   2.686   0.775
 6383SOL    HW119892   3.891   2.677   0.826
 6383SOL    HW219893   3.768   2.764   0.812
 6384SOL     OW19894   3.853   3.732   1.583
 6384SOL    HW119895   3.856   3.708   1.676
 6384SOL    HW219896   3.769   3.697   1.553
 6385SOL     OW19897   4.244   2.047   0.882
 6385SOL    HW119898   4.265   2.055   0.975
 6385SOL    HW219899   4.254   2.136   0.848
 6386SOL     OW19900   4.082   3.680   0.871
 6386SOL    HW119901   4.136   3.601   0.879
 6386SOL    HW219902   4.144   3.752   0.880
 6387SOL     OW19903   4.038   2.828   0.279
 6387SOL    HW119904   4.119   2.850   0.233
 6387SOL    HW219905   4.017   2.740   0.250
 6388SOL     OW19906   4.176   3.113   1.733
 6388SOL    HW119907   4.150   3.127   1.642
 6388SOL    HW219908   4.095   3.122   1.783
 6389SOL     OW19909   3.926   2.133   1.504
 6389SOL    HW119910   3.846   2.185   1.508
 6389SOL    HW219911   3.903   2.049   1.544
 6390SOL     OW19912   4.190   3.587   0.330
 6390SOL    HW119913   4.225   3.654   0.389
 6390SOL    HW219914   4.259   3.573   0.265
 6391SOL     OW19915   3.979   3.654   1.228
 6391SOL    HW119916   4.025   3.579   1.265
 6391SOL    HW219917   3.966   3.631   1.136
 6392SOL     OW19918   4.110   2.552   0.473
 6392SOL    HW119919   4.133   2.461   0.489
 6392SOL    HW219920   4.017   2.558   0.497
 6393SOL     OW19921   4.363   1.999   0.106
 6393SOL    HW119922   4.440   1.949   0.133
 6393SOL    HW219923   4.323   1.945   0.038
 6394SOL     OW19924   0.026   3.278   0.902
 6394SOL    HW119925   0.065   3.346   0.847
 6394SOL    HW219926   4.448   3.250   0.852
 6395SOL     OW19927   4.257   1.928   0.494
 6395SOL    HW119928   4.177   1.931   0.547
 6395SOL    HW219929   4.252   2.006   0.440
 6396SOL     OW19930   4.005   1.911   0.205
 6396SOL    HW119931   4.046   1.968   0.140
 6396SOL    HW219932   4.073   1.847   0.226
 6397SOL     OW19933   0.328   2.527   1.454
 6397SOL    HW119934   0.302   2.456   1.396
 6397SOL    HW219935   0.410   2.498   1.493
 6398SOL     OW19936   4.195   3.003   0.725
 6398SOL    HW119937   4.130   2.984   0.793
 6398SOL    HW219938   4.146   2.997   0.643
 6399SOL     OW19939   3.808   2.415   1.393
 6399SOL    HW119940   3.899   2.415   1.364
 6399SOL    HW219941   3.803   2.484   1.459
 6400SOL     OW19942   4.280   2.069   1.150
 6400SOL    HW119943   4.329   2.018   1.215
 6400SOL    HW219944   4.192   2.077   1.187
 6401SOL     OW19945   4.241   3.251   0.195
 6401SOL    HW119946   4.156   3.242   0.237
 6401SOL    HW219947   4.225   3.227   0.103
 6402SOL     OW19948   4.246   2.135   0.319
 6402SOL    HW119949   4.290   2.082   0.252
 6402SOL    HW219950   4.216   2.213   0.273
 6403SOL     OW19951   4.145   2.678   1.254
 6403SOL    HW119952   4.214   2.684   1.320
 6403SOL    HW219953   4.109   2.590   1.264
 6404SOL     OW19954   3.798   3.436   1.358
 6404SOL    HW119955   3.766   3.504   1.298
 6404SOL    HW219956   3.893   3.438   1.347
 6405SOL     OW19957   4.047   2.994   0.497
 6405SOL    HW119958   4.050   3.068   0.436
 6405SOL    HW219959   4.049   2.917   0.441
 6406SOL     OW19960   4.306   2.395   0.868
 6406SOL    HW119961   4.305   2.464   0.802
 6406SOL    HW219962   4.375   2.422   0.929
 6407SOL     OW19963   4.071   3.401   1.311
 6407SOL    HW119964   4.069   3.356   1.227
 6407SOL    HW219965   4.164   3.401   1.336
 6408SOL     OW19966   4.141   2.602   1.607
 6408SOL    HW119967   4.203   2.643   1.546
 6408SOL    HW219968   4.183   2.519   1.631
 6409SOL     OW19969   4.235   1.914   1.734
 6409SOL    HW119970   4.186   1.855   1.676
 6409SOL    HW219971   4.173   1.982   1.757
 6410SOL     OW19972   4.281   2.766   1.027
 6410SOL    HW119973   4.302   2.859   1.042
 6410SOL    HW219974   4.241   2.737   1.108
 6411SOL     OW19975   4.021   2.061   1.246
 6411SOL    HW119976   3.984   2.092   1.329
 6411SOL    HW219977   4.003   1.967   1.246
 6412SOL     OW19978   3.770   3.174   1.275
 6412SOL    HW119979   3.801   3.117   1.345
 6412SOL    HW219980   3.774   3.262   1.311
 6413SOL     OW19981   4.020   1.925   0.628
 6413SOL    HW119982   4.000   2.017   0.650
 6413SOL    HW219983   4.035   1.883   0.713
 6414SOL     OW19984   4.074   2.775   1.810
 6414SOL    HW119985   4.154   2.789   1.860
 6414SOL    HW219986   4.098   2.711   1.743
 6415SOL     OW19987   4.030   2.670   0.944
 6415SOL    HW119988   4.120   2.701   0.948
 6415SOL    HW219989   4.034   2.579   0.972
 6416SOL     OW19990   4.068   2.395   1.008
 6416SOL    HW119991   4.029   2.308   0.993
 6416SOL    HW219992   4.149   2.394   0.958
 6417SOL     OW19993   3.735   3.187   0.193
 6417SOL    HW119994   3.648   3.200   0.155
 6417SOL    HW219995   3.733   3.097   0.226
 6418SOL     OW19996   3.819   3.643   0.945
 6418SOL    HW119997   3.788   3.567   0.897
 6418SOL    HW219998   3.907   3.658   0.911
 6419SOL     OW19999   4.233   3.450   0.906
 6419SOL    HW120000   4.320   3.471   0.942
 6419SOL    HW220001   4.250   3.383   0.840
 6420SOL     OW20002   3.759   2.411   1.116
 6420SOL    HW120003   3.838   2.397   1.063
 6420SOL    HW220004   3.791   2.411   1.207
 6421SOL     OW20005   3.915   2.384   1.732
 6421SOL    HW120006   3.971   2.342   1.667
 6421SOL    HW220007   3.878   2.460   1.686
 6422SOL     OW20008   0.023   2.396   0.262
 6422SOL    HW120009   0.032   2.377   0.355
 6422SOL    HW220010   4.452   2.460   0.258
 6423SOL     OW20011   3.964   3.414   1.721
 6423SOL    HW120012   3.939   3.479   1.787
 6423SOL    HW220013   3.965   3.331   1.769
 6424SOL     OW20014   4.171   2.350   0.167
 6424SOL    HW120015   4.228   2.420   0.198
 6424SOL    HW220016   4.087   2.392   0.150
 6425SOL     OW20017   3.864   3.003   1.474
 6425SOL    HW120018   3.866   2.957   1.558
 6425SOL    HW220019   3.881   2.936   1.408
 6426SOL     OW20020   3.813   3.132   1.011
 6426SOL    HW120021   3.794   3.144   1.104
 6426SOL    HW220022   3.744   3.074   0.979
 6427SOL     OW20023   4.389   3.515   1.695
 6427SOL    HW120024   4.356   3.592   1.740
 6427SOL    HW220025   4.396   3.542   1.603
 6428SOL     OW20026   3.867   3.656   1.843
 6428SOL    HW120027   3.816   3.591   1.890
 6428SOL    HW220028   3.911   3.707   1.911
 6429SOL     OW20029   3.979   2.181   0.714
 6429SOL    HW120030   3.892   2.213   0.692
 6429SOL    HW220031   3.979   2.174   0.809
 6430SOL     OW20032   4.083   3.173   1.489
 6430SOL    HW120033   4.063   3.247   1.432
 6430SOL    HW220034   4.011   3.111   1.475
 6431SOL     OW20035   4.324   3.355   0.481
 6431SOL    HW120036   4.338   3.299   0.404
 6431SOL    HW220037   4.256   3.416   0.454
 6432SOL     OW20038   3.993   3.200   0.292
 6432SOL    HW120039   3.908   3.200   0.250
 6432SOL    HW220040   3.979   3.244   0.376
 6433SOL     OW20041   3.838   2.897   1.727
 6433SOL    HW120042   3.761   2.869   1.776
 6433SOL    HW220043   3.912   2.852   1.768
 6434SOL     OW20044   4.384   2.066   1.494
 6434SOL    HW120045   4.474   2.078   1.464
 6434SOL    HW220046   4.391   2.054   1.588
 6435SOL     OW20047   3.810   2.194   0.046
 6435SOL    HW120048   3.737   2.178  11.086
 6435SOL    HW220049   3.824   2.289   0.042
 6436SOL     OW20050   3.781   2.021   0.307
 6436SOL    HW120051   3.771   2.096   0.249
 6436SOL    HW220052   3.865   1.982   0.282
 6437SOL     OW20053   4.345   2.701   1.443
 6437SOL    HW120054   4.376   2.789   1.421
 6437SOL    HW220055   4.422   2.656   1.477
 6438SOL     OW20056   4.385   2.421   1.740
 6438SOL    HW120057   4.409   2.496   1.794
 6438SOL    HW220058   4.468   2.392   1.701
 6439SOL     OW20059   4.103   3.604   1.561
 6439SOL    HW120060   4.020   3.650   1.546
 6439SOL    HW220061   4.078   3.523   1.606
 6440SOL     OW20062   4.306   2.587   0.672
 6440SOL    HW120063   4.346   2.673   0.657
 6440SOL    HW220064   4.237   2.581   0.606
 6441SOL     OW20065   3.939   3.166   1.851
 6441SOL    HW120066   3.881   3.098   1.818
 6441SOL    HW220067   3.914   3.177   1.943
 6442SOL     OW20068   3.815   3.089   0.667
 6442SOL    HW120069   3.830   3.044   0.750
 6442SOL    HW220070   3.884   3.056   0.609
 6443SOL     OW20071   4.430   3.249   1.680
 6443SOL    HW120072   4.341   3.222   1.659
 6443SOL    HW220073   4.426   3.344   1.686
 6444SOL     OW20074   4.165   2.295   0.537
 6444SOL    HW120075   4.184   2.228   0.471
 6444SOL    HW220076   4.104   2.251   0.598
 6445SOL     OW20077   4.056   2.421   1.288
 6445SOL    HW120078   4.109   2.364   1.344
 6445SOL    HW220079   4.078   2.393   1.198
 6446SOL     OW20080   0.033   3.474   0.690
 6446SOL    HW120081   0.063   3.542   0.630
 6446SOL    HW220082   4.468   3.425   0.640
 6447SOL     OW20083   3.764   2.928   0.302
 6447SOL    HW120084   3.860   2.924   0.298
 6447SOL    HW220085   3.737   2.839   0.325
 6448SOL     OW20086   3.947   2.487   1.991
 6448SOL    HW120087   3.859   2.482   2.026
 6448SOL    HW220088   3.938   2.463   1.899
 6449SOL     OW20089   3.946   2.154   2.854
 6449SOL    HW120090   3.978   2.117   2.937
 6449SOL    HW220091   3.858   2.119   2.844
 6450SOL     OW20092   3.721   2.247   2.500
 6450SOL    HW120093   3.640   2.273   2.544
 6450SOL    HW220094   3.697   2.169   2.451
 6451SOL     OW20095   4.267   3.091   3.006
 6451SOL    HW120096   4.205   3.161   2.985
 6451SOL    HW220097   4.338   3.134   3.052
 6452SOL     OW20098   0.012   2.637   3.718
 6452SOL    HW120099   0.066   2.664   3.792
 6452SOL    HW220100   0.054   2.677   3.642
 6453SOL     OW20101   4.403   2.845   2.483
 6453SOL    HW120102   4.476   2.834   2.544
 6453SOL    HW220103   4.343   2.906   2.527
 6454SOL     OW20104   4.418   3.016   3.670
 6454SOL    HW120105   4.454   3.096   3.633
 6454SOL    HW220106   4.324   3.022   3.653
 6455SOL     OW20107   4.065   3.290   2.931
 6455SOL    HW120108   3.992   3.244   2.889
 6455SOL    HW220109   4.106   3.339   2.860
 6456SOL     OW20110   4.171   2.258   3.335
 6456SOL    HW120111   4.247   2.200   3.344
 6456SOL    HW220112   4.096   2.203   3.357
 6457SOL     OW20113   3.941   3.578   2.332
 6457SOL    HW120114   3.960   3.653   2.388
 6457SOL    HW220115   4.018   3.570   2.277
 6458SOL     OW20116   3.956   3.307   2.398
 6458SOL    HW120117   3.935   3.400   2.402
 6458SOL    HW220118   3.900   3.267   2.464
 6459SOL     OW20119   3.981   2.950   2.746
 6459SOL    HW120120   3.986   2.864   2.787
 6459SOL    HW220121   3.933   3.004   2.808
 6460SOL     OW20122   4.361   3.656   3.322
 6460SOL    HW120123   4.270   3.631   3.339
 6460SOL    HW220124   4.360   3.752   3.320
 6461SOL     OW20125   4.307   2.849   2.008
 6461SOL    HW120126   4.341   2.894   1.931
 6461SOL    HW220127   4.374   2.862   2.075
 6462SOL     OW20128   3.842   2.516   2.424
 6462SOL    HW120129   3.809   2.429   2.446
 6462SOL    HW220130   3.833   2.566   2.505
 6463SOL     OW20131   3.763   3.452   1.983
 6463SOL    HW120132   3.743   3.361   2.003
 6463SOL    HW220133   3.737   3.500   2.061
 6464SOL     OW20134   3.847   2.605   3.446
 6464SOL    HW120135   3.938   2.636   3.449
 6464SOL    HW220136   3.795   2.686   3.448
 6465SOL     OW20137   4.303   3.251   2.599
 6465SOL    HW120138   4.269   3.162   2.598
 6465SOL    HW220139   4.308   3.275   2.506
 6466SOL     OW20140   0.022   1.871   2.386
 6466SOL    HW120141   0.051   1.928   2.315
 6466SOL    HW220142   4.427   1.885   2.391
 6467SOL     OW20143   3.910   2.821   3.142
 6467SOL    HW120144   3.996   2.784   3.126
 6467SOL    HW220145   3.852   2.775   3.080
 6468SOL     OW20146   4.068   2.111   3.688
 6468SOL    HW120147   4.107   2.195   3.709
 6468SOL    HW220148   3.975   2.121   3.710
 6469SOL     OW20149   4.310   2.585   2.132
 6469SOL    HW120150   4.304   2.668   2.084
 6469SOL    HW220151   4.246   2.593   2.203
 6470SOL     OW20152   3.811   2.685   2.638
 6470SOL    HW120153   3.891   2.676   2.689
 6470SOL    HW220154   3.768   2.764   2.674
 6471SOL     OW20155   3.853   3.731   3.445
 6471SOL    HW120156   3.857   3.708   3.538
 6471SOL    HW220157   3.769   3.697   3.415
 6472SOL     OW20158   4.243   2.047   2.744
 6472SOL    HW120159   4.265   2.054   2.837
 6472SOL    HW220160   4.254   2.135   2.709
 6473SOL     OW20161   4.082   3.679   2.733
 6473SOL    HW120162   4.136   3.601   2.741
 6473SOL    HW220163   4.144   3.752   2.742
 6474SOL     OW20164   4.038   2.825   2.116
 6474SOL    HW120165   4.122   2.844   2.075
 6474SOL    HW220166   4.011   2.742   2.077
 6475SOL     OW20167   4.176   3.113   3.595
 6475SOL    HW120168   4.150   3.127   3.504
 6475SOL    HW220169   4.095   3.122   3.645
 6476SOL     OW20170   3.926   2.133   3.366
 6476SOL    HW120171   3.846   2.185   3.371
 6476SOL    HW220172   3.903   2.049   3.406
 6477SOL     OW20173   4.190   3.595   2.188
 6477SOL    HW120174   4.226   3.657   2.252
 6477SOL    HW220175   4.258   3.588   2.121
 6478SOL     OW20176   3.979   3.654   3.090
 6478SOL    HW120177   4.025   3.579   3.128
 6478SOL    HW220178   3.966   3.631   2.998
 6479SOL     OW20179   4.115   2.550   2.334
 6479SOL    HW120180   4.137   2.459   2.351
 6479SOL    HW220181   4.022   2.557   2.352
 6480SOL     OW20182   4.339   1.965   1.983
 6480SOL    HW120183   4.434   1.952   1.984
 6480SOL    HW220184   4.312   1.945   1.894
 6481SOL     OW20185   0.025   3.278   2.763
 6481SOL    HW120186   0.066   3.345   2.709
 6481SOL    HW220187   4.447   3.251   2.714
 6482SOL     OW20188   4.258   1.929   2.361
 6482SOL    HW120189   4.179   1.931   2.414
 6482SOL    HW220190   4.252   2.006   2.305
 6483SOL     OW20191   4.016   1.910   2.048
 6483SOL    HW120192   4.076   1.972   2.007
 6483SOL    HW220193   4.073   1.848   2.093
 6484SOL     OW20194   0.328   2.528   3.316
 6484SOL    HW120195   0.302   2.456   3.257
 6484SOL    HW220196   0.410   2.498   3.355
 6485SOL     OW20197   4.193   3.004   2.583
 6485SOL    HW120198   4.128   2.984   2.651
 6485SOL    HW220199   4.147   2.992   2.500
 6486SOL     OW20200   3.808   2.415   3.255
 6486SOL    HW120201   3.899   2.415   3.226
 6486SOL    HW220202   3.803   2.484   3.320
 6487SOL     OW20203   4.280   2.068   3.012
 6487SOL    HW120204   4.329   2.018   3.077
 6487SOL    HW220205   4.192   2.077   3.049
 6488SOL     OW20206   4.232   3.246   2.036
 6488SOL    HW120207   4.146   3.231   2.077
 6488SOL    HW220208   4.212   3.254   1.943
 6489SOL     OW20209   4.240   2.129   2.181
 6489SOL    HW120210   4.283   2.073   2.115
 6489SOL    HW220211   4.219   2.209   2.133
 6490SOL     OW20212   4.145   2.678   3.116
 6490SOL    HW120213   4.214   2.684   3.182
 6490SOL    HW220214   4.109   2.590   3.126
 6491SOL     OW20215   3.798   3.436   3.220
 6491SOL    HW120216   3.766   3.505   3.161
 6491SOL    HW220217   3.893   3.438   3.209
 6492SOL     OW20218   4.052   2.982   2.349
 6492SOL    HW120219   4.055   3.055   2.287
 6492SOL    HW220220   4.054   2.903   2.294
 6493SOL     OW20221   4.305   2.396   2.730
 6493SOL    HW120222   4.304   2.465   2.664
 6493SOL    HW220223   4.375   2.422   2.791
 6494SOL     OW20224   4.071   3.402   3.173
 6494SOL    HW120225   4.069   3.356   3.089
 6494SOL    HW220226   4.163   3.401   3.199
 6495SOL     OW20227   4.141   2.602   3.469
 6495SOL    HW120228   4.203   2.643   3.408
 6495SOL    HW220229   4.183   2.519   3.493
 6496SOL     OW20230   4.235   1.914   3.595
 6496SOL    HW120231   4.186   1.855   3.538
 6496SOL    HW220232   4.173   1.982   3.619
 6497SOL     OW20233   4.282   2.767   2.889
 6497SOL    HW120234   4.302   2.859   2.905
 6497SOL    HW220235   4.241   2.737   2.970
 6498SOL     OW20236   4.021   2.061   3.108
 6498SOL    HW120237   3.984   2.092   3.191
 6498SOL    HW220238   4.003   1.967   3.108
 6499SOL     OW20239   3.770   3.174   3.137
 6499SOL    HW120240   3.801   3.117   3.207
 6499SOL    HW220241   3.774   3.262   3.173
 6500SOL     OW20242   4.019   1.925   2.490
 6500SOL    HW120243   4.000   2.016   2.512
 6500SOL    HW220244   4.034   1.883   2.575
 6501SOL     OW20245   4.074   2.776   3.672
 6501SOL    HW120246   4.154   2.789   3.722
 6501SOL    HW220247   4.098   2.711   3.605
 6502SOL     OW20248   4.030   2.671   2.806
 6502SOL    HW120249   4.121   2.701   2.810
 6502SOL    HW220250   4.034   2.579   2.834
 6503SOL     OW20251   4.067   2.395   2.870
 6503SOL    HW120252   4.029   2.308   2.855
 6503SOL    HW220253   4.149   2.394   2.820
 6504SOL     OW20254   3.731   3.179   2.057
 6504SOL    HW120255   3.644   3.195   2.021
 6504SOL    HW220256   3.727   3.090   2.092
 6505SOL     OW20257   3.819   3.643   2.806
 6505SOL    HW120258   3.788   3.566   2.758
 6505SOL    HW220259   3.907   3.658   2.773
 6506SOL     OW20260   4.233   3.450   2.768
 6506SOL    HW120261   4.319   3.470   2.805
 6506SOL    HW220262   4.250   3.383   2.702
 6507SOL     OW20263   3.760   2.411   2.978
 6507SOL    HW120264   3.839   2.398   2.925
 6507SOL    HW220265   3.790   2.411   3.068
 6508SOL     OW20266   3.915   2.384   3.594
 6508SOL    HW120267   3.971   2.342   3.529
 6508SOL    HW220268   3.878   2.460   3.548
 6509SOL     OW20269   0.024   2.411   2.124
 6509SOL    HW120270   0.029   2.377   2.213
 6509SOL    HW220271   4.454   2.476   2.127
 6510SOL     OW20272   3.965   3.414   3.583
 6510SOL    HW120273   3.940   3.479   3.649
 6510SOL    HW220274   3.965   3.331   3.631
 6511SOL     OW20275   4.182   2.354   2.044
 6511SOL    HW120276   4.242   2.425   2.065
 6511SOL    HW220277   4.097   2.397   2.032
 6512SOL     OW20278   3.864   3.003   3.336
 6512SOL    HW120279   3.866   2.956   3.419
 6512SOL    HW220280   3.881   2.936   3.270
 6513SOL     OW20281   3.814   3.132   2.873
 6513SOL    HW120282   3.795   3.144   2.966
 6513SOL    HW220283   3.744   3.074   2.841
 6514SOL     OW20284   4.389   3.515   3.557
 6514SOL    HW120285   4.355   3.592   3.602
 6514SOL    HW220286   4.396   3.542   3.466
 6515SOL     OW20287   3.867   3.656   3.704
 6515SOL    HW120288   3.816   3.591   3.752
 6515SOL    HW220289   3.911   3.707   3.773
 6516SOL     OW20290   3.979   2.181   2.575
 6516SOL    HW120291   3.892   2.213   2.554
 6516SOL    HW220292   3.980   2.174   2.671
 6517SOL     OW20293   4.083   3.173   3.351
 6517SOL    HW120294   4.062   3.247   3.294
 6517SOL    HW220295   4.011   3.111   3.337
 6518SOL     OW20296   4.327   3.353   2.341
 6518SOL    HW120297   4.343   3.293   2.267
 6518SOL    HW220298   4.260   3.413   2.309
 6519SOL     OW20299   3.986   3.206   2.154
 6519SOL    HW120300   3.894   3.202   2.130
 6519SOL    HW220301   3.986   3.247   2.241
 6520SOL     OW20302   3.838   2.897   3.588
 6520SOL    HW120303   3.761   2.869   3.638
 6520SOL    HW220304   3.912   2.852   3.630
 6521SOL     OW20305   4.384   2.066   3.355
 6521SOL    HW120306   4.474   2.078   3.326
 6521SOL    HW220307   4.390   2.054   3.450
 6522SOL     OW20308   3.805   2.189   1.894
 6522SOL    HW120309   3.719   2.171   1.857
 6522SOL    HW220310   3.836   2.266   1.846
 6523SOL     OW20311   3.786   2.016   2.162
 6523SOL    HW120312   3.773   2.094   2.109
 6523SOL    HW220313   3.872   1.983   2.136
 6524SOL     OW20314   4.345   2.701   3.305
 6524SOL    HW120315   4.376   2.789   3.283
 6524SOL    HW220316   4.422   2.655   3.339
 6525SOL     OW20317   4.385   2.421   3.602
 6525SOL    HW120318   4.409   2.496   3.656
 6525SOL    HW220319   4.468   2.392   3.563
 6526SOL     OW20320   4.103   3.604   3.423
 6526SOL    HW120321   4.020   3.650   3.408
 6526SOL    HW220322   4.078   3.523   3.468
 6527SOL     OW20323   4.306   2.588   2.534
 6527SOL    HW120324   4.347   2.673   2.518
 6527SOL    HW220325   4.238   2.580   2.467
 6528SOL     OW20326   3.939   3.166   3.713
 6528SOL    HW120327   3.881   3.098   3.680
 6528SOL    HW220328   3.914   3.177   3.805
 6529SOL     OW20329   3.816   3.090   2.527
 6529SOL    HW120330   3.829   3.046   2.611
 6529SOL    HW220331   3.881   3.052   2.469
 6530SOL     OW20332   4.430   3.249   3.541
 6530SOL    HW120333   4.340   3.222   3.521
 6530SOL    HW220334   4.425   3.344   3.548
 6531SOL     OW20335   4.168   2.292   2.400
 6531SOL    HW120336   4.182   2.228   2.331
 6531SOL    HW220337   4.106   2.251   2.460
 6532SOL     OW20338   4.056   2.421   3.150
 6532SOL    HW120339   4.109   2.364   3.206
 6532SOL    HW220340   4.078   2.393   3.060
 6533SOL     OW20341   0.033   3.476   2.552
 6533SOL    HW120342   0.058   3.545   2.490
 6533SOL    HW220343   4.470   3.423   2.503
 6534SOL     OW20344   3.766   2.927   2.170
 6534SOL    HW120345   3.860   2.918   2.151
 6534SOL    HW220346   3.738   2.838   2.192
 6535SOL     OW20347   3.947   2.487   3.853
 6535SOL    HW120348   3.859   2.481   3.888
 6535SOL    HW220349   3.938   2.462   3.761
 6536SOL     OW20350   3.948   2.155   4.716
 6536SOL    HW120351   3.979   2.117   4.799
 6536SOL    HW220352   3.859   2.119   4.706
 6537SOL     OW20353   3.723   2.246   4.361
 6537SOL    HW120354   3.641   2.274   4.403
 6537SOL    HW220355   3.699   2.168   4.311
 6538SOL     OW20356   4.267   3.091   4.867
 6538SOL    HW120357   4.205   3.161   4.847
 6538SOL    HW220358   4.338   3.134   4.914
 6539SOL     OW20359   0.013   2.636   5.580
 6539SOL    HW120360   0.065   2.665   5.654
 6539SOL    HW220361   0.054   2.679   5.504
 6540SOL     OW20362   4.403   2.845   4.344
 6540SOL    HW120363   4.476   2.834   4.406
 6540SOL    HW220364   4.344   2.906   4.389
 6541SOL     OW20365   4.417   3.016   5.532
 6541SOL    HW120366   4.454   3.096   5.495
 6541SOL    HW220367   4.323   3.021   5.515
 6542SOL     OW20368   4.065   3.289   4.793
 6542SOL    HW120369   3.992   3.244   4.751
 6542SOL    HW220370   4.106   3.339   4.721
 6543SOL     OW20371   4.171   2.258   5.197
 6543SOL    HW120372   4.246   2.200   5.206
 6543SOL    HW220373   4.096   2.203   5.218
 6544SOL     OW20374   3.941   3.578   4.194
 6544SOL    HW120375   3.960   3.653   4.250
 6544SOL    HW220376   4.018   3.570   4.139
 6545SOL     OW20377   3.956   3.307   4.260
 6545SOL    HW120378   3.935   3.400   4.263
 6545SOL    HW220379   3.900   3.267   4.326
 6546SOL     OW20380   3.982   2.950   4.608
 6546SOL    HW120381   3.986   2.864   4.649
 6546SOL    HW220382   3.933   3.004   4.670
 6547SOL     OW20383   4.361   3.656   5.184
 6547SOL    HW120384   4.270   3.631   5.201
 6547SOL    HW220385   4.359   3.752   5.182
 6548SOL     OW20386   4.307   2.849   3.870
 6548SOL    HW120387   4.341   2.894   3.793
 6548SOL    HW220388   4.374   2.862   3.937
 6549SOL     OW20389   3.842   2.516   4.286
 6549SOL    HW120390   3.809   2.429   4.307
 6549SOL    HW220391   3.833   2.566   4.367
 6550SOL     OW20392   3.763   3.452   3.845
 6550SOL    HW120393   3.743   3.360   3.865
 6550SOL    HW220394   3.737   3.500   3.923
 6551SOL     OW20395   3.846   2.606   5.309
 6551SOL    HW120396   3.936   2.638   5.311
 6551SOL    HW220397   3.792   2.685   5.307
 6552SOL     OW20398   4.303   3.251   4.461
 6552SOL    HW120399   4.269   3.162   4.461
 6552SOL    HW220400   4.308   3.275   4.368
 6553SOL     OW20401   0.023   1.872   4.248
 6553SOL    HW120402   0.052   1.929   4.177
 6553SOL    HW220403   4.428   1.886   4.253
 6554SOL     OW20404   3.910   2.821   5.004
 6554SOL    HW120405   3.996   2.784   4.987
 6554SOL    HW220406   3.852   2.775   4.943
 6555SOL     OW20407   4.068   2.110   5.551
 6555SOL    HW120408   4.107   2.195   5.571
 6555SOL    HW220409   3.975   2.121   5.572
 6556SOL     OW20410   4.310   2.585   3.994
 6556SOL    HW120411   4.304   2.668   3.946
 6556SOL    HW220412   4.246   2.593   4.065
 6557SOL     OW20413   3.811   2.685   4.500
 6557SOL    HW120414   3.891   2.676   4.551
 6557SOL    HW220415   3.768   2.763   4.536
 6558SOL     OW20416   3.853   3.732   5.307
 6558SOL    HW120417   3.856   3.708   5.400
 6558SOL    HW220418   3.769   3.697   5.277
 6559SOL     OW20419   4.244   2.047   4.606
 6559SOL    HW120420   4.266   2.055   4.699
 6559SOL    HW220421   4.254   2.135   4.571
 6560SOL     OW20422   4.082   3.679   4.595
 6560SOL    HW120423   4.136   3.601   4.603
 6560SOL    HW220424   4.144   3.752   4.604
 6561SOL     OW20425   4.038   2.824   3.978
 6561SOL    HW120426   4.122   2.844   3.937
 6561SOL    HW220427   4.010   2.741   3.939
 6562SOL     OW20428   4.176   3.113   5.457
 6562SOL    HW120429   4.150   3.127   5.366
 6562SOL    HW220430   4.095   3.122   5.507
 6563SOL     OW20431   3.926   2.133   5.228
 6563SOL    HW120432   3.845   2.184   5.231
 6563SOL    HW220433   3.902   2.049   5.267
 6564SOL     OW20434   4.190   3.595   4.050
 6564SOL    HW120435   4.226   3.657   4.114
 6564SOL    HW220436   4.258   3.588   3.983
 6565SOL     OW20437   3.979   3.654   4.952
 6565SOL    HW120438   4.025   3.579   4.989
 6565SOL    HW220439   3.966   3.631   4.860
 6566SOL     OW20440   4.115   2.550   4.196
 6566SOL    HW120441   4.137   2.459   4.213
 6566SOL    HW220442   4.022   2.557   4.214
 6567SOL     OW20443   4.340   1.966   3.845
 6567SOL    HW120444   4.434   1.951   3.845
 6567SOL    HW220445   4.312   1.945   3.755
 6568SOL     OW20446   0.025   3.278   4.625
 6568SOL    HW120447   0.066   3.345   4.571
 6568SOL    HW220448   4.447   3.251   4.576
 6569SOL     OW20449   4.259   1.929   4.223
 6569SOL    HW120450   4.180   1.931   4.276
 6569SOL    HW220451   4.253   2.006   4.167
 6570SOL     OW20452   4.016   1.911   3.910
 6570SOL    HW120453   4.077   1.973   3.869
 6570SOL    HW220454   4.073   1.848   3.955
 6571SOL     OW20455   0.329   2.527   5.179
 6571SOL    HW120456   0.299   2.456   5.121
 6571SOL    HW220457   0.411   2.494   5.216
 6572SOL     OW20458   4.193   3.004   4.445
 6572SOL    HW120459   4.128   2.984   4.513
 6572SOL    HW220460   4.147   2.992   4.362
 6573SOL     OW20461   3.807   2.415   5.117
 6573SOL    HW120462   3.899   2.416   5.089
 6573SOL    HW220463   3.802   2.484   5.183
 6574SOL     OW20464   4.280   2.069   4.874
 6574SOL    HW120465   4.328   2.016   4.938
 6574SOL    HW220466   4.193   2.078   4.911
 6575SOL     OW20467   4.232   3.246   3.898
 6575SOL    HW120468   4.146   3.231   3.939
 6575SOL    HW220469   4.212   3.254   3.805
 6576SOL     OW20470   4.240   2.129   4.042
 6576SOL    HW120471   4.283   2.073   3.977
 6576SOL    HW220472   4.219   2.209   3.995
 6577SOL     OW20473   4.145   2.678   4.978
 6577SOL    HW120474   4.214   2.684   5.044
 6577SOL    HW220475   4.109   2.590   4.988
 6578SOL     OW20476   3.797   3.437   5.082
 6578SOL    HW120477   3.765   3.505   5.023
 6578SOL    HW220478   3.893   3.438   5.071
 6579SOL     OW20479   4.053   2.982   4.211
 6579SOL    HW120480   4.055   3.055   4.149
 6579SOL    HW220481   4.054   2.903   4.156
 6580SOL     OW20482   4.305   2.396   4.592
 6580SOL    HW120483   4.304   2.465   4.525
 6580SOL    HW220484   4.375   2.423   4.653
 6581SOL     OW20485   4.071   3.402   5.035
 6581SOL    HW120486   4.069   3.356   4.951
 6581SOL    HW220487   4.163   3.401   5.061
 6582SOL     OW20488   4.141   2.603   5.331
 6582SOL    HW120489   4.203   2.643   5.270
 6582SOL    HW220490   4.182   2.519   5.354
 6583SOL     OW20491   4.235   1.914   5.458
 6583SOL    HW120492   4.186   1.855   5.400
 6583SOL    HW220493   4.173   1.982   5.481
 6584SOL     OW20494   4.282   2.767   4.751
 6584SOL    HW120495   4.301   2.859   4.767
 6584SOL    HW220496   4.241   2.737   4.832
 6585SOL     OW20497   4.022   2.061   4.970
 6585SOL    HW120498   3.984   2.092   5.053
 6585SOL    HW220499   4.004   1.967   4.970
 6586SOL     OW20500   3.771   3.174   4.998
 6586SOL    HW120501   3.801   3.117   5.069
 6586SOL    HW220502   3.774   3.262   5.036
 6587SOL     OW20503   4.020   1.925   4.352
 6587SOL    HW120504   4.000   2.017   4.374
 6587SOL    HW220505   4.034   1.883   4.437
 6588SOL     OW20506   4.074   2.775   5.534
 6588SOL    HW120507   4.154   2.789   5.584
 6588SOL    HW220508   4.097   2.711   5.467
 6589SOL     OW20509   4.030   2.671   4.668
 6589SOL    HW120510   4.121   2.701   4.671
 6589SOL    HW220511   4.034   2.579   4.696
 6590SOL     OW20512   4.068   2.395   4.732
 6590SOL    HW120513   4.029   2.309   4.717
 6590SOL    HW220514   4.149   2.394   4.682
 6591SOL     OW20515   3.731   3.178   3.919
 6591SOL    HW120516   3.644   3.195   3.883
 6591SOL    HW220517   3.727   3.090   3.954
 6592SOL     OW20518   3.819   3.643   4.668
 6592SOL    HW120519   3.788   3.566   4.620
 6592SOL    HW220520   3.907   3.658   4.635
 6593SOL     OW20521   4.233   3.450   4.630
 6593SOL    HW120522   4.319   3.470   4.667
 6593SOL    HW220523   4.250   3.383   4.564
 6594SOL     OW20524   3.756   2.404   4.843
 6594SOL    HW120525   3.835   2.394   4.790
 6594SOL    HW220526   3.788   2.409   4.933
 6595SOL     OW20527   3.915   2.385   5.456
 6595SOL    HW120528   3.969   2.341   5.391
 6595SOL    HW220529   3.879   2.460   5.410
 6596SOL     OW20530   0.024   2.412   3.986
 6596SOL    HW120531   0.028   2.376   4.075
 6596SOL    HW220532   4.454   2.476   3.989
 6597SOL     OW20533   3.965   3.414   5.445
 6597SOL    HW120534   3.939   3.479   5.511
 6597SOL    HW220535   3.965   3.331   5.493
 6598SOL     OW20536   4.182   2.354   3.906
 6598SOL    HW120537   4.242   2.425   3.927
 6598SOL    HW220538   4.097   2.397   3.894
 6599SOL     OW20539   3.865   3.004   5.198
 6599SOL    HW120540   3.866   2.957   5.282
 6599SOL    HW220541   3.881   2.936   5.132
 6600SOL     OW20542   3.814   3.132   4.735
 6600SOL    HW120543   3.795   3.144   4.828
 6600SOL    HW220544   3.744   3.074   4.703
 6601SOL     OW20545   4.389   3.515   5.419
 6601SOL    HW120546   4.355   3.592   5.464
 6601SOL    HW220547   4.395   3.542   5.327
 6602SOL     OW20548   3.867   3.656   5.566
 6602SOL    HW120549   3.816   3.591   5.614
 6602SOL    HW220550   3.911   3.707   5.635
 6603SOL     OW20551   3.980   2.181   4.437
 6603SOL    HW120552   3.892   2.213   4.415
 6603SOL    HW220553   3.980   2.174   4.533
 6604SOL     OW20554   4.083   3.173   5.213
 6604SOL    HW120555   4.062   3.248   5.156
 6604SOL    HW220556   4.011   3.111   5.199
 6605SOL     OW20557   4.328   3.353   4.203
 6605SOL    HW120558   4.343   3.293   4.130
 6605SOL    HW220559   4.260   3.413   4.171
 6606SOL     OW20560   3.986   3.206   4.016
 6606SOL    HW120561   3.894   3.202   3.992
 6606SOL    HW220562   3.986   3.247   4.103
 6607SOL     OW20563   3.839   2.900   5.452
 6607SOL    HW120564   3.762   2.870   5.500
 6607SOL    HW220565   3.912   2.853   5.492
 6608SOL     OW20566   4.383   2.066   5.218
 6608SOL    HW120567   4.474   2.078   5.188
 6608SOL    HW220568   4.390   2.054   5.313
 6609SOL     OW20569   3.806   2.189   3.756
 6609SOL    HW120570   3.718   2.171   3.721
 6609SOL    HW220571   3.835   2.266   3.707
 6610SOL     OW20572   3.787   2.016   4.025
 6610SOL    HW120573   3.773   2.095   3.973
 6610SOL    HW220574   3.873   1.984   3.997
 6611SOL     OW20575   4.345   2.701   5.167
 6611SOL    HW120576   4.376   2.789   5.145
 6611SOL    HW220577   4.422   2.656   5.201
 6612SOL     OW20578   4.386   2.420   5.464
 6612SOL    HW120579   4.410   2.495   5.519
 6612SOL    HW220580   4.469   2.391   5.425
 6613SOL     OW20581   4.103   3.604   5.285
 6613SOL    HW120582   4.021   3.650   5.270
 6613SOL    HW220583   4.078   3.523   5.330
 6614SOL     OW20584   4.306   2.588   4.396
 6614SOL    HW120585   4.347   2.673   4.379
 6614SOL    HW220586   4.238   2.580   4.329
 6615SOL     OW20587   3.939   3.166   5.574
 6615SOL    HW120588   3.882   3.096   5.541
 6615SOL    HW220589   3.912   3.177   5.665
 6616SOL     OW20590   3.815   3.090   4.389
 6616SOL    HW120591   3.828   3.046   4.473
 6616SOL    HW220592   3.880   3.051   4.331
 6617SOL     OW20593   4.430   3.249   5.404
 6617SOL    HW120594   4.341   3.222   5.383
 6617SOL    HW220595   4.426   3.345   5.410
 6618SOL     OW20596   4.169   2.292   4.263
 6618SOL    HW120597   4.182   2.228   4.193
 6618SOL    HW220598   4.106   2.251   4.322
 6619SOL     OW20599   4.056   2.421   5.012
 6619SOL    HW120600   4.109   2.364   5.068
 6619SOL    HW220601   4.077   2.393   4.923
 6620SOL     OW20602   0.033   3.476   4.414
 6620SOL    HW120603   0.058   3.545   4.352
 6620SOL    HW220604   4.470   3.423   4.365
 6621SOL     OW20605   3.766   2.927   4.032
 6621SOL    HW120606   3.859   2.918   4.013
 6621SOL    HW220607   3.738   2.838   4.054
 6622SOL     OW20608   3.947   2.487   5.715
 6622SOL    HW120609   3.858   2.481   5.751
 6622SOL    HW220610   3.937   2.463   5.623
 6623SOL     OW20611   3.946   2.155   6.578
 6623SOL    HW120612   3.978   2.117   6.660
 6623SOL    HW220613   3.858   2.119   6.568
 6624SOL     OW20614   3.725   2.247   6.221
 6624SOL    HW120615   3.645   2.275   6.266
 6624SOL    HW220616   3.699   2.168   6.173
 6625SOL     OW20617   4.267   3.091   6.729
 6625SOL    HW120618   4.205   3.161   6.709
 6625SOL    HW220619   4.338   3.134   6.776
 6626SOL     OW20620   0.013   2.637   7.442
 6626SOL    HW120621   0.065   2.664   7.517
 6626SOL    HW220622   0.054   2.679   7.367
 6627SOL     OW20623   4.404   2.845   6.206
 6627SOL    HW120624   4.476   2.834   6.268
 6627SOL    HW220625   4.344   2.906   6.251
 6628SOL     OW20626   4.418   3.016   7.394
 6628SOL    HW120627   4.454   3.096   7.357
 6628SOL    HW220628   4.324   3.022   7.377
 6629SOL     OW20629   4.065   3.289   6.655
 6629SOL    HW120630   3.992   3.244   6.613
 6629SOL    HW220631   4.106   3.339   6.583
 6630SOL     OW20632   4.171   2.258   7.059
 6630SOL    HW120633   4.247   2.200   7.067
 6630SOL    HW220634   4.096   2.203   7.080
 6631SOL     OW20635   3.941   3.578   6.056
 6631SOL    HW120636   3.960   3.653   6.112
 6631SOL    HW220637   4.018   3.570   6.001
 6632SOL     OW20638   3.957   3.307   6.123
 6632SOL    HW120639   3.934   3.400   6.126
 6632SOL    HW220640   3.900   3.266   6.188
 6633SOL     OW20641   3.982   2.950   6.470
 6633SOL    HW120642   3.986   2.864   6.512
 6633SOL    HW220643   3.933   3.005   6.532
 6634SOL     OW20644   4.361   3.656   7.046
 6634SOL    HW120645   4.270   3.631   7.063
 6634SOL    HW220646   4.360   3.752   7.044
 6635SOL     OW20647   4.307   2.848   5.732
 6635SOL    HW120648   4.341   2.894   5.655
 6635SOL    HW220649   4.374   2.862   5.799
 6636SOL     OW20650   3.843   2.515   6.147
 6636SOL    HW120651   3.809   2.428   6.169
 6636SOL    HW220652   3.833   2.565   6.228
 6637SOL     OW20653   3.763   3.452   5.707
 6637SOL    HW120654   3.743   3.361   5.727
 6637SOL    HW220655   3.737   3.500   5.785
 6638SOL     OW20656   3.847   2.606   7.170
 6638SOL    HW120657   3.937   2.637   7.173
 6638SOL    HW220658   3.794   2.685   7.171
 6639SOL     OW20659   4.303   3.251   6.323
 6639SOL    HW120660   4.269   3.162   6.323
 6639SOL    HW220661   4.308   3.275   6.230
 6640SOL     OW20662   0.023   1.872   6.110
 6640SOL    HW120663   0.052   1.929   6.039
 6640SOL    HW220664   4.428   1.885   6.115
 6641SOL     OW20665   3.910   2.821   6.866
 6641SOL    HW120666   3.996   2.784   6.850
 6641SOL    HW220667   3.852   2.775   6.804
 6642SOL     OW20668   4.068   2.110   7.412
 6642SOL    HW120669   4.107   2.195   7.433
 6642SOL    HW220670   3.975   2.121   7.434
 6643SOL     OW20671   4.310   2.585   5.856
 6643SOL    HW120672   4.303   2.668   5.808
 6643SOL    HW220673   4.246   2.593   5.927
 6644SOL     OW20674   3.811   2.686   6.362
 6644SOL    HW120675   3.892   2.677   6.413
 6644SOL    HW220676   3.768   2.763   6.398
 6645SOL     OW20677   3.853   3.732   7.169
 6645SOL    HW120678   3.856   3.708   7.262
 6645SOL    HW220679   3.769   3.697   7.139
 6646SOL     OW20680   4.244   2.046   6.468
 6646SOL    HW120681   4.265   2.055   6.561
 6646SOL    HW220682   4.254   2.135   6.433
 6647SOL     OW20683   4.082   3.679   6.457
 6647SOL    HW120684   4.136   3.601   6.465
 6647SOL    HW220685   4.144   3.752   6.466
 6648SOL     OW20686   4.038   2.824   5.840
 6648SOL    HW120687   4.122   2.844   5.799
 6648SOL    HW220688   4.010   2.741   5.801
 6649SOL     OW20689   4.176   3.113   7.319
 6649SOL    HW120690   4.150   3.127   7.228
 6649SOL    HW220691   4.095   3.122   7.369
 6650SOL     OW20692   3.926   2.133   7.090
 6650SOL    HW120693   3.846   2.185   7.094
 6650SOL    HW220694   3.903   2.050   7.130
 6651SOL     OW20695   4.190   3.596   5.912
 6651SOL    HW120696   4.226   3.657   5.976
 6651SOL    HW220697   4.258   3.588   5.845
 6652SOL     OW20698   3.979   3.655   6.814
 6652SOL    HW120699   4.025   3.579   6.852
 6652SOL    HW220700   3.966   3.631   6.722
 6653SOL     OW20701   4.115   2.550   6.058
 6653SOL    HW120702   4.137   2.458   6.075
 6653SOL    HW220703   4.022   2.557   6.076
 6654SOL     OW20704   4.340   1.965   5.707
 6654SOL    HW120705   4.434   1.951   5.707
 6654SOL    HW220706   4.312   1.945   5.618
 6655SOL     OW20707   0.025   3.278   6.487
 6655SOL    HW120708   0.066   3.345   6.432
 6655SOL    HW220709   4.447   3.251   6.438
 6656SOL     OW20710   4.259   1.929   6.085
 6656SOL    HW120711   4.180   1.931   6.138
 6656SOL    HW220712   4.253   2.006   6.029
 6657SOL     OW20713   4.016   1.910   5.772
 6657SOL    HW120714   4.076   1.973   5.731
 6657SOL    HW220715   4.073   1.848   5.817
 6658SOL     OW20716   0.328   2.527   7.040
 6658SOL    HW120717   0.299   2.456   6.983
 6658SOL    HW220718   0.411   2.495   7.078
 6659SOL     OW20719   4.193   3.004   6.307
 6659SOL    HW120720   4.128   2.984   6.374
 6659SOL    HW220721   4.147   2.992   6.224
 6660SOL     OW20722   3.808   2.414   6.979
 6660SOL    HW120723   3.899   2.414   6.951
 6660SOL    HW220724   3.803   2.484   7.045
 6661SOL     OW20725   4.280   2.069   6.736
 6661SOL    HW120726   4.329   2.018   6.801
 6661SOL    HW220727   4.192   2.078   6.773
 6662SOL     OW20728   4.232   3.245   5.760
 6662SOL    HW120729   4.146   3.231   5.802
 6662SOL    HW220730   4.212   3.254   5.667
 6663SOL     OW20731   4.240   2.129   5.904
 6663SOL    HW120732   4.283   2.073   5.839
 6663SOL    HW220733   4.219   2.209   5.857
 6664SOL     OW20734   4.145   2.678   6.840
 6664SOL    HW120735   4.214   2.684   6.906
 6664SOL    HW220736   4.109   2.590   6.850
 6665SOL     OW20737   3.797   3.437   6.944
 6665SOL    HW120738   3.765   3.505   6.885
 6665SOL    HW220739   3.892   3.438   6.933
 6666SOL     OW20740   4.053   2.982   6.073
 6666SOL    HW120741   4.054   3.055   6.011
 6666SOL    HW220742   4.054   2.903   6.018
 6667SOL     OW20743   4.305   2.396   6.454
 6667SOL    HW120744   4.304   2.465   6.388
 6667SOL    HW220745   4.375   2.422   6.515
 6668SOL     OW20746   4.071   3.402   6.897
 6668SOL    HW120747   4.069   3.356   6.813
 6668SOL    HW220748   4.163   3.401   6.923
 6669SOL     OW20749   4.142   2.602   7.193
 6669SOL    HW120750   4.203   2.643   7.132
 6669SOL    HW220751   4.183   2.519   7.217
 6670SOL     OW20752   4.235   1.914   7.319
 6670SOL    HW120753   4.186   1.855   7.262
 6670SOL    HW220754   4.173   1.982   7.343
 6671SOL     OW20755   4.283   2.767   6.613
 6671SOL    HW120756   4.301   2.859   6.629
 6671SOL    HW220757   4.241   2.737   6.694
 6672SOL     OW20758   4.021   2.061   6.832
 6672SOL    HW120759   3.984   2.092   6.915
 6672SOL    HW220760   4.003   1.967   6.832
 6673SOL     OW20761   3.772   3.174   6.860
 6673SOL    HW120762   3.802   3.117   6.931
 6673SOL    HW220763   3.775   3.262   6.897
 6674SOL     OW20764   4.019   1.925   6.214
 6674SOL    HW120765   4.000   2.016   6.236
 6674SOL    HW220766   4.034   1.883   6.299
 6675SOL     OW20767   4.074   2.775   7.396
 6675SOL    HW120768   4.154   2.789   7.446
 6675SOL    HW220769   4.098   2.711   7.329
 6676SOL     OW20770   4.030   2.671   6.530
 6676SOL    HW120771   4.121   2.701   6.534
 6676SOL    HW220772   4.034   2.579   6.558
 6677SOL     OW20773   4.068   2.395   6.594
 6677SOL    HW120774   4.029   2.308   6.579
 6677SOL    HW220775   4.149   2.394   6.544
 6678SOL     OW20776   3.732   3.178   5.781
 6678SOL    HW120777   3.644   3.195   5.745
 6678SOL    HW220778   3.727   3.089   5.816
 6679SOL     OW20779   3.819   3.643   6.530
 6679SOL    HW120780   3.787   3.566   6.482
 6679SOL    HW220781   3.907   3.658   6.497
 6680SOL     OW20782   4.233   3.450   6.492
 6680SOL    HW120783   4.319   3.470   6.529
 6680SOL    HW220784   4.250   3.383   6.426
 6681SOL     OW20785   3.759   2.410   6.702
 6681SOL    HW120786   3.838   2.397   6.649
 6681SOL    HW220787   3.791   2.411   6.793
 6682SOL     OW20788   3.915   2.384   7.318
 6682SOL    HW120789   3.971   2.342   7.253
 6682SOL    HW220790   3.878   2.460   7.273
 6683SOL     OW20791   0.024   2.412   5.848
 6683SOL    HW120792   0.027   2.376   5.937
 6683SOL    HW220793   4.454   2.477   5.851
 6684SOL     OW20794   3.965   3.414   7.307
 6684SOL    HW120795   3.939   3.479   7.373
 6684SOL    HW220796   3.965   3.331   7.355
 6685SOL     OW20797   4.182   2.354   5.768
 6685SOL    HW120798   4.242   2.425   5.789
 6685SOL    HW220799   4.097   2.397   5.756
 6686SOL     OW20800   3.864   3.003   7.060
 6686SOL    HW120801   3.866   2.956   7.144
 6686SOL    HW220802   3.881   2.936   6.994
 6687SOL     OW20803   3.814   3.132   6.597
 6687SOL    HW120804   3.795   3.144   6.690
 6687SOL    HW220805   3.744   3.074   6.565
 6688SOL     OW20806   4.389   3.515   7.281
 6688SOL    HW120807   4.355   3.592   7.327
 6688SOL    HW220808   4.396   3.542   7.190
 6689SOL     OW20809   3.867   3.656   7.429
 6689SOL    HW120810   3.816   3.591   7.476
 6689SOL    HW220811   3.911   3.707   7.497
 6690SOL     OW20812   3.981   2.181   6.299
 6690SOL    HW120813   3.894   2.213   6.276
 6690SOL    HW220814   3.980   2.174   6.395
 6691SOL     OW20815   4.083   3.173   7.075
 6691SOL    HW120816   4.062   3.247   7.018
 6691SOL    HW220817   4.011   3.111   7.061
 6692SOL     OW20818   4.327   3.353   6.065
 6692SOL    HW120819   4.342   3.293   5.991
 6692SOL    HW220820   4.259   3.413   6.034
 6693SOL     OW20821   3.987   3.206   5.879
 6693SOL    HW120822   3.894   3.201   5.854
 6693SOL    HW220823   3.986   3.247   5.965
 6694SOL     OW20824   3.838   2.898   7.313
 6694SOL    HW120825   3.761   2.869   7.362
 6694SOL    HW220826   3.912   2.852   7.354
 6695SOL     OW20827   4.384   2.066   7.080
 6695SOL    HW120828   4.474   2.078   7.050
 6695SOL    HW220829   4.391   2.055   7.174
 6696SOL     OW20830   3.805   2.189   5.617
 6696SOL    HW120831   3.720   2.170   5.578
 6696SOL    HW220832   3.836   2.266   5.570
 6697SOL     OW20833   3.786   2.016   5.886
 6697SOL    HW120834   3.773   2.095   5.834
 6697SOL    HW220835   3.872   1.983   5.859
 6698SOL     OW20836   4.345   2.701   7.029
 6698SOL    HW120837   4.376   2.789   7.007
 6698SOL    HW220838   4.422   2.656   7.063
 6699SOL     OW20839   4.385   2.421   7.325
 6699SOL    HW120840   4.409   2.496   7.380
 6699SOL    HW220841   4.468   2.391   7.287
 6700SOL     OW20842   4.103   3.604   7.147
 6700SOL    HW120843   4.021   3.650   7.132
 6700SOL    HW220844   4.078   3.523   7.192
 6701SOL     OW20845   4.307   2.588   6.258
 6701SOL    HW120846   4.347   2.673   6.241
 6701SOL    HW220847   4.239   2.580   6.191
 6702SOL     OW20848   3.939   3.166   7.437
 6702SOL    HW120849   3.882   3.097   7.404
 6702SOL    HW220850   3.914   3.177   7.528
 6703SOL     OW20851   3.815   3.091   6.252
 6703SOL    HW120852   3.827   3.046   6.336
 6703SOL    HW220853   3.881   3.051   6.194
 6704SOL     OW20854   4.430   3.249   7.266
 6704SOL    HW120855   4.340   3.222   7.245
 6704SOL    HW220856   4.425   3.345   7.272
 6705SOL     OW20857   4.169   2.292   6.125
 6705SOL    HW120858   4.182   2.228   6.055
 6705SOL    HW220859   4.106   2.251   6.184
 6706SOL     OW20860   4.056   2.421   6.874
 6706SOL    HW120861   4.109   2.364   6.929
 6706SOL    HW220862   4.077   2.393   6.784
 6707SOL     OW20863   0.033   3.476   6.276
 6707SOL    HW120864   0.058   3.545   6.214
 6707SOL    HW220865   4.470   3.423   6.227
 6708SOL     OW20866   3.766   2.926   5.894
 6708SOL    HW120867   3.860   2.918   5.875
 6708SOL    HW220868   3.738   2.838   5.916
 6709SOL     OW20869   3.947   2.487   7.577
 6709SOL    HW120870   3.859   2.482   7.613
 6709SOL    HW220871   3.937   2.462   7.485
 6710SOL     OW20872   3.947   2.154   8.440
 6710SOL    HW120873   3.978   2.117   8.522
 6710SOL    HW220874   3.858   2.119   8.430
 6711SOL     OW20875   3.721   2.247   8.086
 6711SOL    HW120876   3.640   2.274   8.130
 6711SOL    HW220877   3.697   2.169   8.037
 6712SOL     OW20878   4.267   3.091   8.591
 6712SOL    HW120879   4.205   3.161   8.571
 6712SOL    HW220880   4.338   3.134   8.638
 6713SOL     OW20881   0.013   2.637   9.304
 6713SOL    HW120882   0.066   2.664   9.379
 6713SOL    HW220883   0.054   2.679   9.228
 6714SOL     OW20884   4.403   2.845   8.068
 6714SOL    HW120885   4.476   2.834   8.130
 6714SOL    HW220886   4.343   2.906   8.113
 6715SOL     OW20887   4.418   3.016   9.256
 6715SOL    HW120888   4.454   3.096   9.219
 6715SOL    HW220889   4.324   3.022   9.239
 6716SOL     OW20890   4.065   3.290   8.517
 6716SOL    HW120891   3.992   3.244   8.475
 6716SOL    HW220892   4.106   3.339   8.446
 6717SOL     OW20893   4.171   2.258   8.921
 6717SOL    HW120894   4.247   2.200   8.930
 6717SOL    HW220895   4.096   2.203   8.942
 6718SOL     OW20896   3.941   3.578   7.918
 6718SOL    HW120897   3.960   3.653   7.974
 6718SOL    HW220898   4.018   3.570   7.863
 6719SOL     OW20899   3.957   3.307   7.984
 6719SOL    HW120900   3.934   3.400   7.988
 6719SOL    HW220901   3.900   3.266   8.050
 6720SOL     OW20902   3.982   2.950   8.332
 6720SOL    HW120903   3.986   2.864   8.373
 6720SOL    HW220904   3.933   3.005   8.393
 6721SOL     OW20905   4.361   3.656   8.908
 6721SOL    HW120906   4.271   3.631   8.925
 6721SOL    HW220907   4.360   3.752   8.906
 6722SOL     OW20908   4.307   2.848   7.594
 6722SOL    HW120909   4.341   2.894   7.517
 6722SOL    HW220910   4.374   2.862   7.661
 6723SOL     OW20911   3.843   2.515   8.010
 6723SOL    HW120912   3.808   2.429   8.032
 6723SOL    HW220913   3.833   2.566   8.091
 6724SOL     OW20914   3.763   3.452   7.569
 6724SOL    HW120915   3.743   3.361   7.589
 6724SOL    HW220916   3.737   3.500   7.647
 6725SOL     OW20917   3.847   2.605   9.032
 6725SOL    HW120918   3.937   2.637   9.035
 6725SOL    HW220919   3.794   2.685   9.033
 6726SOL     OW20920   4.303   3.251   8.185
 6726SOL    HW120921   4.269   3.162   8.185
 6726SOL    HW220922   4.308   3.275   8.092
 6727SOL     OW20923   0.022   1.871   7.972
 6727SOL    HW120924   0.051   1.928   7.901
 6727SOL    HW220925   4.428   1.885   7.977
 6728SOL     OW20926   3.910   2.821   8.728
 6728SOL    HW120927   3.996   2.784   8.712
 6728SOL    HW220928   3.852   2.775   8.667
 6729SOL     OW20929   4.068   2.110   9.274
 6729SOL    HW120930   4.107   2.195   9.295
 6729SOL    HW220931   3.975   2.121   9.296
 6730SOL     OW20932   4.310   2.585   7.718
 6730SOL    HW120933   4.303   2.668   7.670
 6730SOL    HW220934   4.246   2.593   7.789
 6731SOL     OW20935   3.811   2.685   8.224
 6731SOL    HW120936   3.891   2.677   8.275
 6731SOL    HW220937   3.768   2.763   8.259
 6732SOL     OW20938   3.853   3.732   9.031
 6732SOL    HW120939   3.856   3.708   9.124
 6732SOL    HW220940   3.769   3.696   9.001
 6733SOL     OW20941   4.244   2.047   8.330
 6733SOL    HW120942   4.265   2.054   8.423
 6733SOL    HW220943   4.254   2.135   8.295
 6734SOL     OW20944   4.082   3.679   8.319
 6734SOL    HW120945   4.136   3.601   8.327
 6734SOL    HW220946   4.144   3.752   8.328
 6735SOL     OW20947   4.038   2.824   7.702
 6735SOL    HW120948   4.122   2.844   7.661
 6735SOL    HW220949   4.010   2.741   7.663
 6736SOL     OW20950   4.176   3.113   9.181
 6736SOL    HW120951   4.150   3.127   9.090
 6736SOL    HW220952   4.095   3.122   9.231
 6737SOL     OW20953   3.926   2.133   8.952
 6737SOL    HW120954   3.846   2.185   8.956
 6737SOL    HW220955   3.903   2.050   8.992
 6738SOL     OW20956   4.190   3.595   7.774
 6738SOL    HW120957   4.226   3.657   7.838
 6738SOL    HW220958   4.258   3.588   7.707
 6739SOL     OW20959   3.979   3.654   8.676
 6739SOL    HW120960   4.025   3.579   8.714
 6739SOL    HW220961   3.966   3.631   8.584
 6740SOL     OW20962   4.115   2.550   7.920
 6740SOL    HW120963   4.137   2.459   7.937
 6740SOL    HW220964   4.022   2.557   7.938
 6741SOL     OW20965   4.339   1.965   7.569
 6741SOL    HW120966   4.434   1.952   7.570
 6741SOL    HW220967   4.312   1.945   7.480
 6742SOL     OW20968   0.025   3.278   8.349
 6742SOL    HW120969   0.066   3.345   8.295
 6742SOL    HW220970   4.447   3.251   8.300
 6743SOL     OW20971   4.258   1.929   7.947
 6743SOL    HW120972   4.179   1.931   8.000
 6743SOL    HW220973   4.252   2.006   7.891
 6744SOL     OW20974   4.016   1.910   7.634
 6744SOL    HW120975   4.076   1.973   7.593
 6744SOL    HW220976   4.073   1.848   7.679
 6745SOL     OW20977   0.328   2.527   8.902
 6745SOL    HW120978   0.301   2.456   8.844
 6745SOL    HW220979   0.410   2.497   8.941
 6746SOL     OW20980   4.193   3.004   8.169
 6746SOL    HW120981   4.128   2.984   8.237
 6746SOL    HW220982   4.147   2.992   8.087
 6747SOL     OW20983   3.808   2.415   8.841
 6747SOL    HW120984   3.899   2.415   8.812
 6747SOL    HW220985   3.803   2.484   8.907
 6748SOL     OW20986   4.280   2.068   8.598
 6748SOL    HW120987   4.329   2.018   8.663
 6748SOL    HW220988   4.192   2.077   8.635
 6749SOL     OW20989   4.232   3.245   7.622
 6749SOL    HW120990   4.146   3.231   7.664
 6749SOL    HW220991   4.212   3.254   7.529
 6750SOL     OW20992   4.240   2.129   7.767
 6750SOL    HW120993   4.283   2.073   7.701
 6750SOL    HW220994   4.219   2.209   7.719
 6751SOL     OW20995   4.145   2.678   8.702
 6751SOL    HW120996   4.214   2.684   8.768
 6751SOL    HW220997   4.109   2.590   8.712
 6752SOL     OW20998   3.797   3.437   8.806
 6752SOL    HW120999   3.765   3.505   8.747
 6752SOL    HW221000   3.893   3.438   8.795
 6753SOL     OW21001   4.053   2.982   7.935
 6753SOL    HW121002   4.054   3.055   7.873
 6753SOL    HW221003   4.054   2.903   7.880
 6754SOL     OW21004   4.305   2.396   8.316
 6754SOL    HW121005   4.304   2.465   8.250
 6754SOL    HW221006   4.375   2.422   8.377
 6755SOL     OW21007   4.071   3.402   8.759
 6755SOL    HW121008   4.069   3.356   8.675
 6755SOL    HW221009   4.163   3.401   8.785
 6756SOL     OW21010   4.142   2.602   9.055
 6756SOL    HW121011   4.203   2.643   8.994
 6756SOL    HW221012   4.183   2.519   9.079
 6757SOL     OW21013   4.235   1.914   9.181
 6757SOL    HW121014   4.186   1.855   9.124
 6757SOL    HW221015   4.173   1.982   9.205
 6758SOL     OW21016   4.282   2.767   8.475
 6758SOL    HW121017   4.301   2.859   8.491
 6758SOL    HW221018   4.241   2.737   8.556
 6759SOL     OW21019   4.021   2.061   8.694
 6759SOL    HW121020   3.984   2.092   8.777
 6759SOL    HW221021   4.003   1.967   8.694
 6760SOL     OW21022   3.772   3.174   8.722
 6760SOL    HW121023   3.802   3.117   8.793
 6760SOL    HW221024   3.775   3.262   8.760
 6761SOL     OW21025   4.019   1.925   8.076
 6761SOL    HW121026   4.000   2.016   8.098
 6761SOL    HW221027   4.034   1.883   8.161
 6762SOL     OW21028   4.074   2.775   9.258
 6762SOL    HW121029   4.154   2.789   9.308
 6762SOL    HW221030   4.097   2.711   9.191
 6763SOL     OW21031   4.030   2.671   8.392
 6763SOL    HW121032   4.121   2.701   8.396
 6763SOL    HW221033   4.034   2.579   8.420
 6764SOL     OW21034   4.067   2.395   8.456
 6764SOL    HW121035   4.029   2.308   8.441
 6764SOL    HW221036   4.149   2.394   8.406
 6765SOL     OW21037   3.731   3.178   7.643
 6765SOL    HW121038   3.644   3.195   7.607
 6765SOL    HW221039   3.727   3.090   7.678
 6766SOL     OW21040   3.819   3.643   8.392
 6766SOL    HW121041   3.787   3.566   8.344
 6766SOL    HW221042   3.907   3.658   8.359
 6767SOL     OW21043   4.233   3.450   8.354
 6767SOL    HW121044   4.319   3.470   8.391
 6767SOL    HW221045   4.250   3.383   8.288
 6768SOL     OW21046   3.759   2.410   8.564
 6768SOL    HW121047   3.838   2.397   8.512
 6768SOL    HW221048   3.790   2.411   8.655
 6769SOL     OW21049   3.915   2.384   9.180
 6769SOL    HW121050   3.971   2.342   9.115
 6769SOL    HW221051   3.878   2.460   9.135
 6770SOL     OW21052   0.024   2.411   7.710
 6770SOL    HW121053   0.029   2.378   7.800
 6770SOL    HW221054   4.454   2.476   7.713
 6771SOL     OW21055   3.965   3.414   9.169
 6771SOL    HW121056   3.940   3.479   9.235
 6771SOL    HW221057   3.965   3.331   9.217
 6772SOL     OW21058   4.182   2.354   7.630
 6772SOL    HW121059   4.242   2.425   7.651
 6772SOL    HW221060   4.097   2.397   7.618
 6773SOL     OW21061   3.864   3.004   8.922
 6773SOL    HW121062   3.866   2.957   9.006
 6773SOL    HW221063   3.881   2.936   8.856
 6774SOL     OW21064   3.814   3.132   8.459
 6774SOL    HW121065   3.795   3.144   8.552
 6774SOL    HW221066   3.744   3.074   8.427
 6775SOL     OW21067   4.389   3.515   9.143
 6775SOL    HW121068   4.355   3.592   9.188
 6775SOL    HW221069   4.396   3.542   9.052
 6776SOL     OW21070   3.867   3.656   9.291
 6776SOL    HW121071   3.816   3.591   9.338
 6776SOL    HW221072   3.911   3.707   9.359
 6777SOL     OW21073   3.979   2.181   8.161
 6777SOL    HW121074   3.892   2.213   8.140
 6777SOL    HW221075   3.980   2.174   8.256
 6778SOL     OW21076   4.083   3.173   8.937
 6778SOL    HW121077   4.062   3.247   8.880
 6778SOL    HW221078   4.011   3.111   8.923
 6779SOL     OW21079   4.327   3.353   7.927
 6779SOL    HW121080   4.342   3.293   7.853
 6779SOL    HW221081   4.259   3.413   7.896
 6780SOL     OW21082   3.986   3.206   7.740
 6780SOL    HW121083   3.894   3.202   7.716
 6780SOL    HW221084   3.986   3.247   7.827
 6781SOL     OW21085   3.838   2.898   9.175
 6781SOL    HW121086   3.761   2.869   9.224
 6781SOL    HW221087   3.912   2.852   9.216
 6782SOL     OW21088   4.384   2.066   8.941
 6782SOL    HW121089   4.474   2.078   8.912
 6782SOL    HW221090   4.391   2.055   9.036
 6783SOL     OW21091   3.805   2.189   7.480
 6783SOL    HW121092   3.718   2.171   7.444
 6783SOL    HW221093   3.836   2.266   7.432
 6784SOL     OW21094   3.786   2.016   7.749
 6784SOL    HW121095   3.773   2.095   7.696
 6784SOL    HW221096   3.872   1.983   7.721
 6785SOL     OW21097   4.345   2.701   8.891
 6785SOL    HW121098   4.376   2.789   8.869
 6785SOL    HW221099   4.422   2.656   8.925
 6786SOL     OW21100   4.385   2.421   9.187
 6786SOL    HW121101   4.409   2.496   9.242
 6786SOL    HW221102   4.468   2.392   9.149
 6787SOL     OW21103   4.103   3.604   9.009
 6787SOL    HW121104   4.021   3.650   8.994
 6787SOL    HW221105   4.078   3.523   9.054
 6788SOL     OW21106   4.306   2.588   8.120
 6788SOL    HW121107   4.347   2.673   8.103
 6788SOL    HW221108   4.239   2.580   8.053
 6789SOL     OW21109   3.939   3.166   9.299
 6789SOL    HW121110   3.882   3.097   9.266
 6789SOL    HW221111   3.914   3.177   9.390
 6790SOL     OW21112   3.816   3.091   8.114
 6790SOL    HW121113   3.827   3.046   8.197
 6790SOL    HW221114   3.881   3.051   8.056
 6791SOL     OW21115   4.430   3.249   9.128
 6791SOL    HW121116   4.340   3.222   9.107
 6791SOL    HW221117   4.425   3.345   9.134
 6792SOL     OW21118   4.169   2.292   7.987
 6792SOL    HW121119   4.182   2.228   7.917
 6792SOL    HW221120   4.106   2.251   8.046
 6793SOL     OW21121   4.056   2.421   8.736
 6793SOL    HW121122   4.109   2.364   8.792
 6793SOL    HW221123   4.078   2.393   8.646
 6794SOL     OW21124   0.033   3.476   8.138
 6794SOL    HW121125   0.058   3.545   8.076
 6794SOL    HW221126   4.470   3.423   8.089
 6795SOL     OW21127   3.766   2.927   7.756
 6795SOL    HW121128   3.860   2.918   7.737
 6795SOL    HW221129   3.738   2.838   7.778
 6796SOL     OW21130   3.947   2.487   9.439
 6796SOL    HW121131   3.859   2.482   9.474
 6796SOL    HW221132   3.937   2.462   9.347
 6797SOL     OW21133   3.946   2.155  10.302
 6797SOL    HW121134   3.979   2.117  10.384
 6797SOL    HW221135   3.858   2.119  10.292
 6798SOL     OW21136   3.721   2.247   9.948
 6798SOL    HW121137   3.640   2.274   9.992
 6798SOL    HW221138   3.697   2.169   9.899
 6799SOL     OW21139   4.267   3.091  10.456
 6799SOL    HW121140   4.205   3.160  10.433
 6799SOL    HW221141   4.339   3.136  10.500
 6800SOL     OW21142   0.025   2.674   0.081
 6800SOL    HW121143   0.112   2.701   0.112
 6800SOL    HW221144   0.037   2.653  11.089
 6801SOL     OW21145   4.404   2.845   9.930
 6801SOL    HW121146   4.476   2.833   9.992
 6801SOL    HW221147   4.344   2.906   9.975
 6802SOL     OW21148   4.067   3.289  10.379
 6802SOL    HW121149   3.993   3.244  10.338
 6802SOL    HW221150   4.106   3.339  10.307
 6803SOL     OW21151   4.177   2.266  10.792
 6803SOL    HW121152   4.249   2.203  10.798
 6803SOL    HW221153   4.099   2.215  10.815
 6804SOL     OW21154   3.941   3.578   9.780
 6804SOL    HW121155   3.960   3.653   9.836
 6804SOL    HW221156   4.018   3.570   9.725
 6805SOL     OW21157   3.956   3.307   9.846
 6805SOL    HW121158   3.934   3.400   9.850
 6805SOL    HW221159   3.900   3.266   9.912
 6806SOL     OW21160   3.982   2.950  10.194
 6806SOL    HW121161   3.985   2.864  10.236
 6806SOL    HW221162   3.933   3.005  10.255
 6807SOL     OW21163   4.354   3.673  10.746
 6807SOL    HW121164   4.269   3.642  10.778
 6807SOL    HW221165   4.355   3.766  10.768
 6808SOL     OW21166   4.307   2.849   9.456
 6808SOL    HW121167   4.341   2.894   9.379
 6808SOL    HW221168   4.374   2.862   9.523
 6809SOL     OW21169   3.842   2.516   9.872
 6809SOL    HW121170   3.809   2.429   9.894
 6809SOL    HW221171   3.833   2.566   9.953
 6810SOL     OW21172   3.763   3.452   9.431
 6810SOL    HW121173   3.743   3.361   9.451
 6810SOL    HW221174   3.737   3.500   9.509
 6811SOL     OW21175   3.852   2.588  10.923
 6811SOL    HW121176   3.944   2.608  10.905
 6811SOL    HW221177   3.807   2.672  10.911
 6812SOL     OW21178   4.304   3.251  10.047
 6812SOL    HW121179   4.269   3.162  10.047
 6812SOL    HW221180   4.308   3.275   9.954
 6813SOL     OW21181   0.022   1.871   9.834
 6813SOL    HW121182   0.051   1.928   9.763
 6813SOL    HW221183   4.428   1.885   9.839
 6814SOL     OW21184   3.910   2.818  10.582
 6814SOL    HW121185   3.996   2.780  10.567
 6814SOL    HW221186   3.851   2.770  10.524
 6815SOL     OW21187   4.074   2.115   0.029
 6815SOL    HW121188   4.119   2.193   0.061
 6815SOL    HW221189   3.981   2.138   0.031
 6816SOL     OW21190   4.310   2.585   9.580
 6816SOL    HW121191   4.304   2.668   9.532
 6816SOL    HW221192   4.246   2.593   9.651
 6817SOL     OW21193   3.811   2.685  10.086
 6817SOL    HW121194   3.891   2.677  10.137
 6817SOL    HW221195   3.768   2.763  10.122
 6818SOL     OW21196   3.859   3.723  10.901
 6818SOL    HW121197   3.847   3.682  10.987
 6818SOL    HW221198   3.781   3.697  10.851
 6819SOL     OW21199   4.244   2.048  10.193
 6819SOL    HW121200   4.266   2.055  10.285
 6819SOL    HW221201   4.254   2.136  10.158
 6820SOL     OW21202   4.083   3.680  10.181
 6820SOL    HW121203   4.137   3.601  10.188
 6820SOL    HW221204   4.144   3.752  10.190
 6821SOL     OW21205   4.038   2.825   9.564
 6821SOL    HW121206   4.122   2.844   9.523
 6821SOL    HW221207   4.010   2.742   9.525
 6822SOL     OW21208   4.173   3.124  11.058
 6822SOL    HW121209   4.146   3.145  10.968
 6822SOL    HW221210   4.108   3.060  11.088
 6823SOL     OW21211   3.932   2.132  10.807
 6823SOL    HW121212   3.853   2.186  10.813
 6823SOL    HW221213   3.912   2.055  10.861
 6824SOL     OW21214   4.190   3.595   9.636
 6824SOL    HW121215   4.226   3.657   9.700
 6824SOL    HW221216   4.258   3.588   9.569
 6825SOL     OW21217   3.982   3.655  10.538
 6825SOL    HW121218   4.025   3.578  10.578
 6825SOL    HW221219   3.967   3.629  10.447
 6826SOL     OW21220   4.116   2.550   9.782
 6826SOL    HW121221   4.137   2.459   9.799
 6826SOL    HW221222   4.022   2.557   9.801
 6827SOL     OW21223   4.339   1.965   9.431
 6827SOL    HW121224   4.434   1.952   9.432
 6827SOL    HW221225   4.312   1.945   9.342
 6828SOL     OW21226   0.025   3.278  10.211
 6828SOL    HW121227   0.066   3.345  10.157
 6828SOL    HW221228   4.447   3.251  10.162
 6829SOL     OW21229   4.258   1.929   9.809
 6829SOL    HW121230   4.179   1.931   9.862
 6829SOL    HW221231   4.252   2.006   9.753
 6830SOL     OW21232   4.016   1.910   9.496
 6830SOL    HW121233   4.076   1.973   9.455
 6830SOL    HW221234   4.073   1.848   9.541
 6831SOL     OW21235   0.311   2.533  10.776
 6831SOL    HW121236   0.295   2.447  10.738
 6831SOL    HW221237   0.395   2.525  10.821
 6832SOL     OW21238   4.193   3.004  10.031
 6832SOL    HW121239   4.128   2.984  10.099
 6832SOL    HW221240   4.147   2.992   9.949
 6833SOL     OW21241   3.807   2.411  10.711
 6833SOL    HW121242   3.898   2.414  10.681
 6833SOL    HW221243   3.804   2.472  10.785
 6834SOL     OW21244   4.282   2.066  10.461
 6834SOL    HW121245   4.325   2.003  10.519
 6834SOL    HW221246   4.194   2.076  10.498
 6835SOL     OW21247   4.232   3.246   9.484
 6835SOL    HW121248   4.146   3.231   9.526
 6835SOL    HW221249   4.212   3.254   9.391
 6836SOL     OW21250   4.240   2.129   9.629
 6836SOL    HW121251   4.283   2.073   9.563
 6836SOL    HW221252   4.219   2.209   9.581
 6837SOL     OW21253   4.145   2.676  10.560
 6837SOL    HW121254   4.213   2.683  10.627
 6837SOL    HW221255   4.109   2.588  10.572
 6838SOL     OW21256   3.798   3.441  10.671
 6838SOL    HW121257   3.767   3.506  10.608
 6838SOL    HW221258   3.893   3.439  10.658
 6839SOL     OW21259   4.053   2.982   9.797
 6839SOL    HW121260   4.054   3.055   9.735
 6839SOL    HW221261   4.054   2.903   9.742
 6840SOL     OW21262   4.305   2.395  10.179
 6840SOL    HW121263   4.305   2.465  10.113
 6840SOL    HW221264   4.375   2.419  10.239
 6841SOL     OW21265   4.071   3.401  10.622
 6841SOL    HW121266   4.070   3.354  10.539
 6841SOL    HW221267   4.164   3.402  10.647
 6842SOL     OW21268   4.136   2.589  10.897
 6842SOL    HW121269   4.204   2.631  10.845
 6842SOL    HW221270   4.154   2.496  10.890
 6843SOL     OW21271   4.283   2.767  10.337
 6843SOL    HW121272   4.301   2.860  10.353
 6843SOL    HW221273   4.241   2.737  10.417
 6844SOL     OW21274   4.023   2.061  10.554
 6844SOL    HW121275   3.989   2.092  10.638
 6844SOL    HW221276   4.004   1.967  10.555
 6845SOL     OW21277   3.779   3.178  10.581
 6845SOL    HW121278   3.804   3.118  10.651
 6845SOL    HW221279   3.774   3.263  10.624
 6846SOL     OW21280   4.019   1.925   9.938
 6846SOL    HW121281   4.000   2.016   9.960
 6846SOL    HW221282   4.034   1.883  10.023
 6847SOL     OW21283   4.083   2.774  11.092
 6847SOL    HW121284   4.166   2.793   0.036
 6847SOL    HW221285   4.106   2.706  11.028
 6848SOL     OW21286   4.030   2.670  10.254
 6848SOL    HW121287   4.121   2.700  10.256
 6848SOL    HW221288   4.035   2.579  10.282
 6849SOL     OW21289   4.067   2.395  10.320
 6849SOL    HW121290   4.029   2.309  10.304
 6849SOL    HW221291   4.149   2.394  10.270
 6850SOL     OW21292   3.731   3.179   9.505
 6850SOL    HW121293   3.644   3.195   9.469
 6850SOL    HW221294   3.727   3.090   9.540
 6851SOL     OW21295   3.819   3.644  10.253
 6851SOL    HW121296   3.788   3.567  10.205
 6851SOL    HW221297   3.908   3.658  10.220
 6852SOL     OW21298   4.234   3.451  10.215
 6852SOL    HW121299   4.320   3.470  10.252
 6852SOL    HW221300   4.250   3.383  10.150
 6853SOL     OW21301   3.760   2.412  10.429
 6853SOL    HW121302   3.839   2.398  10.377
 6853SOL    HW221303   3.791   2.411  10.520
 6854SOL     OW21304   0.024   2.411   9.572
 6854SOL    HW121305   0.029   2.377   9.662
 6854SOL    HW221306   4.454   2.476   9.575
 6855SOL     OW21307   3.980   3.428  11.043
 6855SOL    HW121308   3.918   3.448   0.013
 6855SOL    HW221309   4.000   3.335  11.055
 6856SOL     OW21310   4.182   2.354   9.492
 6856SOL    HW121311   4.242   2.425   9.513
 6856SOL    HW221312   4.097   2.397   9.480
 6857SOL     OW21313   3.873   3.001  10.777
 6857SOL    HW121314   3.867   2.950  10.858
 6857SOL    HW221315   3.886   2.935  10.709
 6858SOL     OW21316   3.815   3.133  10.319
 6858SOL    HW121317   3.798   3.146  10.412
 6858SOL    HW221318   3.744   3.075  10.290
 6859SOL     OW21319   4.378   3.524  10.992
 6859SOL    HW121320   4.289   3.557  10.976
 6859SOL    HW221321   4.415   3.513  10.905
 6860SOL     OW21322   3.980   2.181  10.023
 6860SOL    HW121323   3.892   2.213  10.002
 6860SOL    HW221324   3.980   2.174  10.118
 6861SOL     OW21325   4.073   3.182  10.817
 6861SOL    HW121326   4.062   3.250  10.750
 6861SOL    HW221327   4.008   3.116  10.794
 6862SOL     OW21328   4.328   3.353   9.789
 6862SOL    HW121329   4.342   3.293   9.716
 6862SOL    HW221330   4.259   3.413   9.758
 6863SOL     OW21331   3.986   3.206   9.602
 6863SOL    HW121332   3.894   3.202   9.578
 6863SOL    HW221333   3.986   3.247   9.689
 6864SOL     OW21334   3.846   2.879  11.017
 6864SOL    HW121335   3.779   2.871  11.085
 6864SOL    HW221336   3.925   2.842  11.057
 6865SOL     OW21337   4.395   2.074  10.812
 6865SOL    HW121338   4.471   2.092  10.756
 6865SOL    HW221339   4.427   2.085  10.901
 6866SOL     OW21340   3.805   2.189   9.342
 6866SOL    HW121341   3.718   2.171   9.306
 6866SOL    HW221342   3.836   2.266   9.294
 6867SOL     OW21343   3.786   2.016   9.610
 6867SOL    HW121344   3.773   2.094   9.558
 6867SOL    HW221345   3.872   1.983   9.583
 6868SOL     OW21346   4.343   2.700  10.750
 6868SOL    HW121347   4.373   2.789  10.729
 6868SOL    HW221348   4.422   2.655  10.778
 6869SOL     OW21349   4.121   3.599  10.884
 6869SOL    HW121350   4.048   3.660  10.868
 6869SOL    HW221351   4.081   3.528  10.934
 6870SOL     OW21352   4.307   2.588   9.983
 6870SOL    HW121353   4.347   2.673   9.965
 6870SOL    HW221354   4.239   2.579   9.916
 6871SOL     OW21355   3.815   3.091   9.975
 6871SOL    HW121356   3.827   3.047  10.060
 6871SOL    HW221357   3.881   3.051   9.918
 6872SOL     OW21358   4.418   3.246  10.965
 6872SOL    HW121359   4.334   3.205  10.986
 6872SOL    HW221360   4.408   3.336  10.995
 6873SOL     OW21361   4.168   2.292   9.848
 6873SOL    HW121362   4.182   2.228   9.779
 6873SOL    HW221363   4.106   2.251   9.908
 6874SOL     OW21364   4.056   2.419  10.599
 6874SOL    HW121365   4.110   2.361  10.653
 6874SOL    HW221366   4.075   2.393  10.509
 6875SOL     OW21367   0.033   3.477  10.000
 6875SOL    HW121368   0.058   3.546   9.938
 6875SOL    HW221369   4.470   3.423   9.951
 6876SOL     OW21370   3.766   2.927   9.618
 6876SOL    HW121371   3.860   2.918   9.599
 6876SOL    HW221372   3.738   2.838   9.640
 6877SOL     OW21373   3.917   4.303   0.086
 6877SOL    HW121374   3.906   4.368   0.155
 6877SOL    HW221375   3.921   4.355   0.005
 6878SOL     OW21376   3.946   4.012   0.991
 6878SOL    HW121377   3.977   3.975   1.074
 6878SOL    HW221378   3.857   3.978   0.981
 6879SOL     OW21379   3.724   4.101   0.644
 6879SOL    HW121380   3.645   4.132   0.687
 6879SOL    HW221381   3.695   4.025   0.593
 6880SOL     OW21382   0.067   4.498   1.859
 6880SOL    HW121383   0.126   0.057   1.907
 6880SOL    HW221384   0.082   0.020   1.767
 6881SOL     OW21385   4.174   4.110   1.470
 6881SOL    HW121386   4.250   4.053   1.479
 6881SOL    HW221387   4.100   4.056   1.498
 6882SOL     OW21388   3.793   4.381   0.570
 6882SOL    HW121389   3.788   4.287   0.589
 6882SOL    HW221390   3.870   4.411   0.617
 6883SOL     OW21391   3.839   4.484   1.580
 6883SOL    HW121392   3.894   0.007   1.655
 6883SOL    HW221393   3.815   0.068   1.541
 6884SOL     OW21394   0.020   3.738   0.536
 6884SOL    HW121395   0.051   3.790   0.462
 6884SOL    HW221396   4.424   3.748   0.534
 6885SOL     OW21397   4.066   3.973   1.823
 6885SOL    HW121398   4.103   4.057   1.850
 6885SOL    HW221399   3.973   3.979   1.843
 6886SOL     OW21400   4.244   3.907   0.882
 6886SOL    HW121401   4.265   3.913   0.975
 6886SOL    HW221402   4.255   3.997   0.849
 6887SOL     OW21403   3.924   3.994   1.508
 6887SOL    HW121404   3.839   4.039   1.505
 6887SOL    HW221405   3.904   3.908   1.547
 6888SOL     OW21406   4.092   4.387   0.407
 6888SOL    HW121407   4.130   4.313   0.455
 6888SOL    HW221408   4.030   4.426   0.469
 6889SOL     OW21409   4.346   3.837   0.123
 6889SOL    HW121410   4.435   3.803   0.124
 6889SOL    HW221411   4.312   3.812   0.037
 6890SOL     OW21412   4.257   3.790   0.496
 6890SOL    HW121413   4.177   3.792   0.549
 6890SOL    HW221414   4.252   3.868   0.441
 6891SOL     OW21415   4.008   3.773   0.206
 6891SOL    HW121416   4.050   3.828   0.140
 6891SOL    HW221417   4.075   3.708   0.228
 6892SOL     OW21418   0.382   4.382   1.533
 6892SOL    HW121419   0.346   4.367   1.445
 6892SOL    HW221420   0.442   4.309   1.548
 6893SOL     OW21421   3.804   4.280   1.397
 6893SOL    HW121422   3.894   4.273   1.367
 6893SOL    HW221423   3.803   4.356   1.456
 6894SOL     OW21424   4.278   3.926   1.149
 6894SOL    HW121425   4.330   3.884   1.218
 6894SOL    HW221426   4.192   3.937   1.188
 6895SOL     OW21427   4.247   3.997   0.322
 6895SOL    HW121428   4.283   3.936   0.258
 6895SOL    HW221429   4.220   4.073   0.271
 6896SOL     OW21430   4.162   0.015   1.286
 6896SOL    HW121431   4.225   0.007   1.358
 6896SOL    HW221432   4.120   4.430   1.281
 6897SOL     OW21433   4.314   4.259   0.882
 6897SOL    HW121434   4.327   4.335   0.825
 6897SOL    HW221435   4.383   4.266   0.948
 6898SOL     OW21436   4.235   3.776   1.734
 6898SOL    HW121437   4.187   3.718   1.676
 6898SOL    HW221438   4.172   3.845   1.757
 6899SOL     OW21439   4.020   3.922   1.247
 6899SOL    HW121440   3.983   3.954   1.330
 6899SOL    HW221441   4.002   3.828   1.247
 6900SOL     OW21442   4.020   3.788   0.628
 6900SOL    HW121443   4.001   3.879   0.650
 6900SOL    HW221444   4.035   3.746   0.713
 6901SOL     OW21445   4.037   0.010   0.916
 6901SOL    HW121446   4.108   0.074   0.924
 6901SOL    HW221447   4.063   4.438   0.972
 6902SOL     OW21448   4.079   4.244   1.020
 6902SOL    HW121449   4.036   4.162   0.998
 6902SOL    HW221450   4.160   4.244   0.969
 6903SOL     OW21451   3.758   4.279   1.117
 6903SOL    HW121452   3.835   4.263   1.062
 6903SOL    HW221453   3.791   4.277   1.206
 6904SOL     OW21454   3.921   4.252   1.717
 6904SOL    HW121455   3.964   4.188   1.659
 6904SOL    HW221456   3.871   4.307   1.657
 6905SOL     OW21457   0.008   4.296   0.294
 6905SOL    HW121458   0.014   4.219   0.352
 6905SOL    HW221459   0.005   4.371   0.354
 6906SOL     OW21460   4.184   4.212   0.167
 6906SOL    HW121461   4.236   4.278   0.212
 6906SOL    HW221462   4.097   4.250   0.160
 6907SOL     OW21463   3.983   4.045   0.714
 6907SOL    HW121464   3.893   4.071   0.692
 6907SOL    HW221465   3.981   4.035   0.810
 6908SOL     OW21466   4.389   3.928   1.493
 6908SOL    HW121467   4.478   3.947   1.465
 6908SOL    HW221468   4.395   3.920   1.588
 6909SOL     OW21469   3.808   4.050   0.064
 6909SOL    HW121470   3.742   4.049  11.096
 6909SOL    HW221471   3.835   4.141   0.071
 6910SOL     OW21472   3.781   3.880   0.303
 6910SOL    HW121473   3.769   3.950   0.239
 6910SOL    HW221474   3.866   3.843   0.283
 6911SOL     OW21475   4.408   4.271   1.763
 6911SOL    HW121476   4.432   4.351   1.810
 6911SOL    HW221477   4.490   4.242   1.722
 6912SOL     OW21478   4.176   4.158   0.545
 6912SOL    HW121479   4.191   4.091   0.477
 6912SOL    HW221480   4.111   4.118   0.603
 6913SOL     OW21481   4.049   4.268   1.291
 6913SOL    HW121482   4.103   4.209   1.344
 6913SOL    HW221483   4.071   4.245   1.200
 6914SOL     OW21484   3.943   4.285   1.986
 6914SOL    HW121485   3.910   4.367   2.021
 6914SOL    HW221486   3.937   4.295   1.891
 6915SOL     OW21487   3.946   4.011   2.853
 6915SOL    HW121488   3.977   3.975   2.936
 6915SOL    HW221489   3.857   3.977   2.843
 6916SOL     OW21490   3.723   4.099   2.505
 6916SOL    HW121491   3.645   4.133   2.549
 6916SOL    HW221492   3.692   4.022   2.457
 6917SOL     OW21493   0.068   4.498   3.721
 6917SOL    HW121494   0.126   0.057   3.769
 6917SOL    HW221495   0.082   0.020   3.629
 6918SOL     OW21496   4.174   4.110   3.332
 6918SOL    HW121497   4.250   4.053   3.341
 6918SOL    HW221498   4.100   4.056   3.360
 6919SOL     OW21499   3.772   4.392   2.450
 6919SOL    HW121500   3.779   4.297   2.455
 6919SOL    HW221501   3.858   4.424   2.476
 6920SOL     OW21502   3.839   4.484   3.442
 6920SOL    HW121503   3.894   0.008   3.517
 6920SOL    HW221504   3.815   0.068   3.403
 6921SOL     OW21505   0.023   3.735   2.386
 6921SOL    HW121506   0.051   3.791   2.314
 6921SOL    HW221507   4.428   3.746   2.390
 6922SOL     OW21508   4.066   3.973   3.685
 6922SOL    HW121509   4.102   4.057   3.711
 6922SOL    HW221510   3.973   3.979   3.705
 6923SOL     OW21511   4.244   3.906   2.743
 6923SOL    HW121512   4.265   3.912   2.837
 6923SOL    HW221513   4.256   3.995   2.710
 6924SOL     OW21514   3.924   3.994   3.370
 6924SOL    HW121515   3.839   4.039   3.368
 6924SOL    HW221516   3.904   3.909   3.409
 6925SOL     OW21517   4.087   4.394   2.276
 6925SOL    HW121518   4.126   4.316   2.315
 6925SOL    HW221519   4.041   4.437   2.349
 6926SOL     OW21520   4.336   3.819   1.986
 6926SOL    HW121521   4.432   3.817   1.982
 6926SOL    HW221522   4.308   3.802   1.896
 6927SOL     OW21523   4.259   3.789   2.364
 6927SOL    HW121524   4.179   3.791   2.417
 6927SOL    HW221525   4.253   3.866   2.307
 6928SOL     OW21526   4.016   3.772   2.049
 6928SOL    HW121527   4.077   3.834   2.008
 6928SOL    HW221528   4.073   3.709   2.093
 6929SOL     OW21529   0.382   4.382   3.395
 6929SOL    HW121530   0.346   4.367   3.308
 6929SOL    HW221531   0.442   4.310   3.410
 6930SOL     OW21532   3.804   4.280   3.260
 6930SOL    HW121533   3.894   4.273   3.230
 6930SOL    HW221534   3.803   4.356   3.318
 6931SOL     OW21535   4.278   3.925   3.011
 6931SOL    HW121536   4.330   3.885   3.081
 6931SOL    HW221537   4.192   3.937   3.049
 6932SOL     OW21538   4.244   3.987   2.184
 6932SOL    HW121539   4.284   3.929   2.119
 6932SOL    HW221540   4.227   4.068   2.136
 6933SOL     OW21541   4.162   0.016   3.147
 6933SOL    HW121542   4.225   0.008   3.219
 6933SOL    HW221543   4.120   4.430   3.143
 6934SOL     OW21544   4.313   4.259   2.743
 6934SOL    HW121545   4.325   4.335   2.687
 6934SOL    HW221546   4.382   4.266   2.809
 6935SOL     OW21547   4.235   3.776   3.596
 6935SOL    HW121548   4.186   3.718   3.538
 6935SOL    HW221549   4.172   3.845   3.619
 6936SOL     OW21550   4.020   3.922   3.109
 6936SOL    HW121551   3.983   3.954   3.191
 6936SOL    HW221552   4.002   3.828   3.109
 6937SOL     OW21553   4.019   3.787   2.491
 6937SOL    HW121554   4.000   3.879   2.512
 6937SOL    HW221555   4.034   3.746   2.576
 6938SOL     OW21556   4.036   0.010   2.777
 6938SOL    HW121557   4.107   0.074   2.785
 6938SOL    HW221558   4.063   4.438   2.835
 6939SOL     OW21559   4.079   4.244   2.883
 6939SOL    HW121560   4.036   4.161   2.861
 6939SOL    HW221561   4.159   4.244   2.831
 6940SOL     OW21562   3.758   4.278   2.979
 6940SOL    HW121563   3.835   4.264   2.924
 6940SOL    HW221564   3.791   4.277   3.068
 6941SOL     OW21565   3.922   4.252   3.578
 6941SOL    HW121566   3.964   4.188   3.521
 6941SOL    HW221567   3.871   4.308   3.519
 6942SOL     OW21568   0.012   4.299   2.153
 6942SOL    HW121569   0.009   4.218   2.204
 6942SOL    HW221570   0.002   4.368   2.218
 6943SOL     OW21571   4.200   4.208   2.044
 6943SOL    HW121572   4.252   4.286   2.061
 6943SOL    HW221573   4.110   4.240   2.036
 6944SOL     OW21574   3.983   4.045   2.576
 6944SOL    HW121575   3.893   4.071   2.553
 6944SOL    HW221576   3.981   4.035   2.671
 6945SOL     OW21577   4.389   3.927   3.355
 6945SOL    HW121578   4.478   3.948   3.327
 6945SOL    HW221579   4.395   3.920   3.450
 6946SOL     OW21580   3.801   4.034   1.890
 6946SOL    HW121581   3.723   4.034   1.834
 6946SOL    HW221582   3.830   4.125   1.891
 6947SOL     OW21583   3.786   3.876   2.163
 6947SOL    HW121584   3.770   3.952   2.107
 6947SOL    HW221585   3.872   3.844   2.136
 6948SOL     OW21586   4.409   4.270   3.626
 6948SOL    HW121587   4.431   4.351   3.672
 6948SOL    HW221588   4.490   4.242   3.585
 6949SOL     OW21589   4.177   4.158   2.406
 6949SOL    HW121590   4.188   4.093   2.336
 6949SOL    HW221591   4.112   4.119   2.464
 6950SOL     OW21592   4.049   4.268   3.153
 6950SOL    HW121593   4.103   4.209   3.206
 6950SOL    HW221594   4.070   4.245   3.062
 6951SOL     OW21595   3.942   4.284   3.847
 6951SOL    HW121596   3.911   4.367   3.883
 6951SOL    HW221597   3.937   4.295   3.752
 6952SOL     OW21598   3.946   4.011   4.715
 6952SOL    HW121599   3.977   3.975   4.798
 6952SOL    HW221600   3.857   3.977   4.705
 6953SOL     OW21601   3.723   4.099   4.367
 6953SOL    HW121602   3.645   4.133   4.411
 6953SOL    HW221603   3.692   4.022   4.319
 6954SOL     OW21604   0.067   4.498   5.583
 6954SOL    HW121605   0.126   0.057   5.631
 6954SOL    HW221606   0.082   0.020   5.491
 6955SOL     OW21607   4.174   4.110   5.194
 6955SOL    HW121608   4.250   4.053   5.203
 6955SOL    HW221609   4.100   4.056   5.222
 6956SOL     OW21610   3.773   4.391   4.311
 6956SOL    HW121611   3.780   4.296   4.317
 6956SOL    HW221612   3.859   4.423   4.338
 6957SOL     OW21613   3.840   4.484   5.304
 6957SOL    HW121614   3.894   0.008   5.379
 6957SOL    HW221615   3.815   0.067   5.264
 6958SOL     OW21616   0.023   3.735   4.248
 6958SOL    HW121617   0.051   3.791   4.176
 6958SOL    HW221618   4.428   3.746   4.252
 6959SOL     OW21619   4.067   3.973   5.547
 6959SOL    HW121620   4.102   4.057   5.573
 6959SOL    HW221621   3.973   3.979   5.567
 6960SOL     OW21622   4.244   3.906   4.606
 6960SOL    HW121623   4.265   3.912   4.699
 6960SOL    HW221624   4.256   3.995   4.572
 6961SOL     OW21625   3.924   3.994   5.232
 6961SOL    HW121626   3.839   4.039   5.229
 6961SOL    HW221627   3.904   3.909   5.271
 6962SOL     OW21628   4.087   4.394   4.138
 6962SOL    HW121629   4.127   4.316   4.178
 6962SOL    HW221630   4.040   4.435   4.210
 6963SOL     OW21631   4.336   3.819   3.848
 6963SOL    HW121632   4.432   3.817   3.844
 6963SOL    HW221633   4.308   3.802   3.758
 6964SOL     OW21634   4.259   3.789   4.226
 6964SOL    HW121635   4.179   3.791   4.279
 6964SOL    HW221636   4.253   3.866   4.169
 6965SOL     OW21637   4.016   3.772   3.911
 6965SOL    HW121638   4.077   3.835   3.870
 6965SOL    HW221639   4.073   3.709   3.955
 6966SOL     OW21640   0.382   4.383   5.257
 6966SOL    HW121641   0.346   4.367   5.170
 6966SOL    HW221642   0.442   4.310   5.271
 6967SOL     OW21643   3.804   4.280   5.122
 6967SOL    HW121644   3.895   4.273   5.092
 6967SOL    HW221645   3.803   4.356   5.180
 6968SOL     OW21646   4.279   3.926   4.873
 6968SOL    HW121647   4.330   3.884   4.942
 6968SOL    HW221648   4.192   3.937   4.911
 6969SOL     OW21649   4.244   3.987   4.046
 6969SOL    HW121650   4.284   3.929   3.981
 6969SOL    HW221651   4.227   4.068   3.998
 6970SOL     OW21652   4.163   0.016   5.009
 6970SOL    HW121653   4.225   0.008   5.081
 6970SOL    HW221654   4.120   4.430   5.005
 6971SOL     OW21655   4.313   4.259   4.605
 6971SOL    HW121656   4.324   4.335   4.549
 6971SOL    HW221657   4.382   4.267   4.671
 6972SOL     OW21658   4.235   3.776   5.458
 6972SOL    HW121659   4.186   3.718   5.400
 6972SOL    HW221660   4.172   3.845   5.481
 6973SOL     OW21661   4.020   3.922   4.971
 6973SOL    HW121662   3.983   3.954   5.053
 6973SOL    HW221663   4.002   3.829   4.970
 6974SOL     OW21664   4.019   3.787   4.353
 6974SOL    HW121665   4.000   3.879   4.374
 6974SOL    HW221666   4.034   3.746   4.437
 6975SOL     OW21667   4.036   0.010   4.640
 6975SOL    HW121668   4.107   0.074   4.647
 6975SOL    HW221669   4.063   4.438   4.698
 6976SOL     OW21670   4.079   4.244   4.745
 6976SOL    HW121671   4.036   4.161   4.723
 6976SOL    HW221672   4.159   4.244   4.693
 6977SOL     OW21673   3.758   4.278   4.841
 6977SOL    HW121674   3.835   4.264   4.786
 6977SOL    HW221675   3.791   4.277   4.930
 6978SOL     OW21676   3.921   4.252   5.441
 6978SOL    HW121677   3.963   4.188   5.383
 6978SOL    HW221678   3.871   4.308   5.382
 6979SOL     OW21679   0.012   4.299   4.015
 6979SOL    HW121680   0.008   4.217   4.066
 6979SOL    HW221681   0.002   4.368   4.080
 6980SOL     OW21682   4.200   4.208   3.906
 6980SOL    HW121683   4.251   4.287   3.923
 6980SOL    HW221684   4.110   4.240   3.898
 6981SOL     OW21685   3.983   4.045   4.438
 6981SOL    HW121686   3.893   4.071   4.415
 6981SOL    HW221687   3.981   4.035   4.533
 6982SOL     OW21688   4.389   3.927   5.217
 6982SOL    HW121689   4.478   3.948   5.189
 6982SOL    HW221690   4.395   3.920   5.312
 6983SOL     OW21691   3.801   4.034   3.752
 6983SOL    HW121692   3.724   4.035   3.696
 6983SOL    HW221693   3.830   4.125   3.754
 6984SOL     OW21694   3.786   3.876   4.025
 6984SOL    HW121695   3.770   3.952   3.969
 6984SOL    HW221696   3.872   3.844   3.998
 6985SOL     OW21697   4.409   4.270   5.487
 6985SOL    HW121698   4.431   4.351   5.534
 6985SOL    HW221699   4.491   4.241   5.447
 6986SOL     OW21700   4.177   4.157   4.268
 6986SOL    HW121701   4.188   4.093   4.198
 6986SOL    HW221702   4.112   4.119   4.326
 6987SOL     OW21703   4.049   4.268   5.015
 6987SOL    HW121704   4.104   4.209   5.068
 6987SOL    HW221705   4.070   4.245   4.925
 6988SOL     OW21706   3.943   4.285   5.709
 6988SOL    HW121707   3.910   4.368   5.744
 6988SOL    HW221708   3.937   4.295   5.614
 6989SOL     OW21709   3.946   4.011   6.577
 6989SOL    HW121710   3.977   3.975   6.660
 6989SOL    HW221711   3.857   3.977   6.567
 6990SOL     OW21712   3.723   4.099   6.229
 6990SOL    HW121713   3.645   4.133   6.273
 6990SOL    HW221714   3.692   4.022   6.181
 6991SOL     OW21715   0.068   4.498   7.445
 6991SOL    HW121716   0.126   0.057   7.493
 6991SOL    HW221717   0.082   0.020   7.353
 6992SOL     OW21718   4.174   4.110   7.055
 6992SOL    HW121719   4.250   4.053   7.065
 6992SOL    HW221720   4.100   4.056   7.084
 6993SOL     OW21721   3.772   4.392   6.174
 6993SOL    HW121722   3.780   4.297   6.179
 6993SOL    HW221723   3.859   4.424   6.200
 6994SOL     OW21724   3.839   4.484   7.166
 6994SOL    HW121725   3.894   0.007   7.241
 6994SOL    HW221726   3.815   0.068   7.127
 6995SOL     OW21727   0.023   3.734   6.110
 6995SOL    HW121728   0.051   3.791   6.038
 6995SOL    HW221729   4.428   3.746   6.114
 6996SOL     OW21730   4.067   3.973   7.409
 6996SOL    HW121731   4.103   4.057   7.436
 6996SOL    HW221732   3.973   3.979   7.429
 6997SOL     OW21733   4.244   3.906   6.467
 6997SOL    HW121734   4.265   3.912   6.561
 6997SOL    HW221735   4.256   3.995   6.434
 6998SOL     OW21736   3.924   3.994   7.094
 6998SOL    HW121737   3.839   4.039   7.091
 6998SOL    HW221738   3.904   3.909   7.133
 6999SOL     OW21739   4.087   4.394   6.000
 6999SOL    HW121740   4.126   4.316   6.039
 6999SOL    HW221741   4.041   4.436   6.072
 7000SOL     OW21742   4.336   3.819   5.710
 7000SOL    HW121743   4.432   3.817   5.706
 7000SOL    HW221744   4.308   3.802   5.620
 7001SOL     OW21745   4.259   3.789   6.088
 7001SOL    HW121746   4.179   3.791   6.141
 7001SOL    HW221747   4.253   3.866   6.031
 7002SOL     OW21748   4.016   3.772   5.773
 7002SOL    HW121749   4.077   3.835   5.732
 7002SOL    HW221750   4.073   3.709   5.817
 7003SOL     OW21751   0.382   4.382   7.119
 7003SOL    HW121752   0.346   4.367   7.032
 7003SOL    HW221753   0.442   4.310   7.133
 7004SOL     OW21754   3.804   4.280   6.983
 7004SOL    HW121755   3.894   4.273   6.954
 7004SOL    HW221756   3.803   4.356   7.042
 7005SOL     OW21757   4.279   3.926   6.735
 7005SOL    HW121758   4.330   3.885   6.804
 7005SOL    HW221759   4.192   3.937   6.773
 7006SOL     OW21760   4.245   3.987   5.908
 7006SOL    HW121761   4.284   3.929   5.843
 7006SOL    HW221762   4.227   4.068   5.860
 7007SOL     OW21763   4.162   0.016   6.871
 7007SOL    HW121764   4.225   0.008   6.943
 7007SOL    HW221765   4.120   4.430   6.867
 7008SOL     OW21766   4.313   4.259   6.467
 7008SOL    HW121767   4.325   4.335   6.411
 7008SOL    HW221768   4.382   4.266   6.533
 7009SOL     OW21769   4.235   3.776   7.320
 7009SOL    HW121770   4.187   3.718   7.262
 7009SOL    HW221771   4.173   3.845   7.343
 7010SOL     OW21772   4.020   3.923   6.833
 7010SOL    HW121773   3.983   3.954   6.915
 7010SOL    HW221774   4.002   3.829   6.833
 7011SOL     OW21775   4.019   3.787   6.215
 7011SOL    HW121776   4.000   3.879   6.236
 7011SOL    HW221777   4.034   3.746   6.299
 7012SOL     OW21778   4.036   0.010   6.502
 7012SOL    HW121779   4.107   0.074   6.509
 7012SOL    HW221780   4.063   4.438   6.559
 7013SOL     OW21781   4.079   4.244   6.607
 7013SOL    HW121782   4.036   4.161   6.585
 7013SOL    HW221783   4.160   4.244   6.555
 7014SOL     OW21784   3.758   4.278   6.703
 7014SOL    HW121785   3.835   4.264   6.648
 7014SOL    HW221786   3.791   4.277   6.792
 7015SOL     OW21787   3.921   4.252   7.303
 7015SOL    HW121788   3.964   4.188   7.245
 7015SOL    HW221789   3.871   4.307   7.243
 7016SOL     OW21790   0.012   4.299   5.877
 7016SOL    HW121791   0.008   4.217   5.928
 7016SOL    HW221792   0.002   4.368   5.942
 7017SOL     OW21793   4.200   4.208   5.768
 7017SOL    HW121794   4.252   4.287   5.785
 7017SOL    HW221795   4.110   4.240   5.760
 7018SOL     OW21796   3.983   4.045   6.300
 7018SOL    HW121797   3.893   4.071   6.277
 7018SOL    HW221798   3.981   4.035   6.395
 7019SOL     OW21799   4.389   3.927   7.079
 7019SOL    HW121800   4.478   3.948   7.051
 7019SOL    HW221801   4.395   3.920   7.174
 7020SOL     OW21802   3.801   4.034   5.614
 7020SOL    HW121803   3.723   4.034   5.557
 7020SOL    HW221804   3.830   4.125   5.615
 7021SOL     OW21805   3.786   3.876   5.887
 7021SOL    HW121806   3.770   3.952   5.831
 7021SOL    HW221807   3.872   3.844   5.860
 7022SOL     OW21808   4.408   4.271   7.349
 7022SOL    HW121809   4.432   4.351   7.396
 7022SOL    HW221810   4.490   4.242   7.309
 7023SOL     OW21811   4.177   4.157   6.130
 7023SOL    HW121812   4.188   4.093   6.060
 7023SOL    HW221813   4.112   4.119   6.188
 7024SOL     OW21814   4.049   4.268   6.877
 7024SOL    HW121815   4.103   4.209   6.930
 7024SOL    HW221816   4.070   4.245   6.786
 7025SOL     OW21817   3.943   4.285   7.571
 7025SOL    HW121818   3.910   4.367   7.607
 7025SOL    HW221819   3.937   4.295   7.476
 7026SOL     OW21820   3.946   4.011   8.439
 7026SOL    HW121821   3.977   3.975   8.522
 7026SOL    HW221822   3.857   3.977   8.429
 7027SOL     OW21823   3.723   4.099   8.091
 7027SOL    HW121824   3.645   4.133   8.135
 7027SOL    HW221825   3.692   4.022   8.043
 7028SOL     OW21826   0.068   4.498   9.307
 7028SOL    HW121827   0.126   0.057   9.355
 7028SOL    HW221828   0.082   0.020   9.215
 7029SOL     OW21829   4.174   4.110   8.918
 7029SOL    HW121830   4.250   4.053   8.927
 7029SOL    HW221831   4.100   4.056   8.946
 7030SOL     OW21832   3.772   4.392   8.036
 7030SOL    HW121833   3.779   4.297   8.041
 7030SOL    HW221834   3.858   4.424   8.062
 7031SOL     OW21835   3.839   4.484   9.028
 7031SOL    HW121836   3.894   0.007   9.103
 7031SOL    HW221837   3.815   0.068   8.989
 7032SOL     OW21838   0.023   3.734   7.972
 7032SOL    HW121839   0.051   3.791   7.900
 7032SOL    HW221840   4.428   3.746   7.976
 7033SOL     OW21841   4.067   3.973   9.271
 7033SOL    HW121842   4.103   4.057   9.298
 7033SOL    HW221843   3.973   3.979   9.291
 7034SOL     OW21844   4.244   3.906   8.329
 7034SOL    HW121845   4.265   3.912   8.423
 7034SOL    HW221846   4.256   3.995   8.297
 7035SOL     OW21847   3.924   3.994   8.957
 7035SOL    HW121848   3.839   4.039   8.953
 7035SOL    HW221849   3.904   3.909   8.995
 7036SOL     OW21850   4.087   4.394   7.862
 7036SOL    HW121851   4.126   4.316   7.901
 7036SOL    HW221852   4.041   4.437   7.935
 7037SOL     OW21853   4.336   3.819   7.572
 7037SOL    HW121854   4.432   3.817   7.568
 7037SOL    HW221855   4.308   3.802   7.482
 7038SOL     OW21856   4.259   3.789   7.950
 7038SOL    HW121857   4.179   3.791   8.003
 7038SOL    HW221858   4.253   3.866   7.893
 7039SOL     OW21859   4.016   3.772   7.635
 7039SOL    HW121860   4.077   3.834   7.595
 7039SOL    HW221861   4.073   3.709   7.679
 7040SOL     OW21862   0.382   4.382   8.981
 7040SOL    HW121863   0.346   4.367   8.894
 7040SOL    HW221864   0.442   4.310   8.996
 7041SOL     OW21865   3.804   4.280   8.845
 7041SOL    HW121866   3.894   4.273   8.816
 7041SOL    HW221867   3.803   4.356   8.904
 7042SOL     OW21868   4.278   3.925   8.597
 7042SOL    HW121869   4.330   3.885   8.666
 7042SOL    HW221870   4.192   3.937   8.635
 7043SOL     OW21871   4.244   3.987   7.770
 7043SOL    HW121872   4.284   3.929   7.705
 7043SOL    HW221873   4.227   4.068   7.722
 7044SOL     OW21874   4.162   0.016   8.733
 7044SOL    HW121875   4.225   0.008   8.805
 7044SOL    HW221876   4.120   4.430   8.729
 7045SOL     OW21877   4.313   4.258   8.329
 7045SOL    HW121878   4.325   4.335   8.273
 7045SOL    HW221879   4.382   4.266   8.395
 7046SOL     OW21880   4.235   3.776   9.182
 7046SOL    HW121881   4.187   3.718   9.124
 7046SOL    HW221882   4.173   3.845   9.205
 7047SOL     OW21883   4.020   3.923   8.695
 7047SOL    HW121884   3.983   3.954   8.778
 7047SOL    HW221885   4.002   3.829   8.695
 7048SOL     OW21886   4.019   3.787   8.077
 7048SOL    HW121887   4.000   3.879   8.098
 7048SOL    HW221888   4.034   3.746   8.161
 7049SOL     OW21889   4.036   0.010   8.364
 7049SOL    HW121890   4.107   0.074   8.371
 7049SOL    HW221891   4.063   4.438   8.421
 7050SOL     OW21892   4.079   4.244   8.469
 7050SOL    HW121893   4.036   4.161   8.447
 7050SOL    HW221894   4.160   4.244   8.417
 7051SOL     OW21895   3.758   4.279   8.565
 7051SOL    HW121896   3.835   4.264   8.510
 7051SOL    HW221897   3.791   4.277   8.654
 7052SOL     OW21898   3.921   4.252   9.165
 7052SOL    HW121899   3.964   4.188   9.107
 7052SOL    HW221900   3.871   4.307   9.105
 7053SOL     OW21901   0.012   4.299   7.739
 7053SOL    HW121902   0.009   4.218   7.790
 7053SOL    HW221903   0.002   4.368   7.804
 7054SOL     OW21904   4.200   4.208   7.630
 7054SOL    HW121905   4.252   4.287   7.648
 7054SOL    HW221906   4.110   4.240   7.622
 7055SOL     OW21907   3.983   4.045   8.162
 7055SOL    HW121908   3.893   4.071   8.139
 7055SOL    HW221909   3.981   4.035   8.257
 7056SOL     OW21910   4.389   3.927   8.941
 7056SOL    HW121911   4.478   3.948   8.913
 7056SOL    HW221912   4.395   3.920   9.036
 7057SOL     OW21913   3.801   4.034   7.476
 7057SOL    HW121914   3.723   4.034   7.420
 7057SOL    HW221915   3.830   4.125   7.476
 7058SOL     OW21916   3.786   3.876   7.749
 7058SOL    HW121917   3.770   3.953   7.693
 7058SOL    HW221918   3.872   3.844   7.722
 7059SOL     OW21919   4.408   4.271   9.211
 7059SOL    HW121920   4.432   4.351   9.258
 7059SOL    HW221921   4.490   4.242   9.170
 7060SOL     OW21922   4.177   4.158   7.992
 7060SOL    HW121923   4.188   4.093   7.922
 7060SOL    HW221924   4.112   4.119   8.050
 7061SOL     OW21925   4.049   4.268   8.739
 7061SOL    HW121926   4.103   4.209   8.792
 7061SOL    HW221927   4.070   4.245   8.648
 7062SOL     OW21928   3.943   4.285   9.433
 7062SOL    HW121929   3.910   4.368   9.468
 7062SOL    HW221930   3.937   4.295   9.338
 7063SOL     OW21931   3.946   4.011  10.301
 7063SOL    HW121932   3.977   3.975  10.384
 7063SOL    HW221933   3.857   3.978  10.291
 7064SOL     OW21934   3.723   4.098   9.953
 7064SOL    HW121935   3.645   4.133   9.996
 7064SOL    HW221936   3.692   4.021   9.905
 7065SOL     OW21937   4.182   4.121  10.792
 7065SOL    HW121938   4.252   4.055  10.799
 7065SOL    HW221939   4.103   4.074  10.817
 7066SOL     OW21940   3.771   4.393   9.899
 7066SOL    HW121941   3.779   4.297   9.903
 7066SOL    HW221942   3.858   4.425   9.923
 7067SOL     OW21943   3.859   4.462  10.905
 7067SOL    HW121944   3.954   4.464  10.904
 7067SOL    HW221945   3.833   0.054  10.900
 7068SOL     OW21946   0.023   3.734   9.834
 7068SOL    HW121947   0.051   3.790   9.762
 7068SOL    HW221948   4.428   3.746   9.838
 7069SOL     OW21949   4.074   3.976   0.024
 7069SOL    HW121950   4.116   4.057   0.053
 7069SOL    HW221951   3.980   3.994   0.032
 7070SOL     OW21952   4.245   3.907  10.194
 7070SOL    HW121953   4.267   3.915  10.287
 7070SOL    HW221954   4.255   3.995  10.159
 7071SOL     OW21955   3.932   3.995  10.810
 7071SOL    HW121956   3.854   4.050  10.818
 7071SOL    HW221957   3.913   3.918  10.863
 7072SOL     OW21958   4.088   4.395   9.725
 7072SOL    HW121959   4.126   4.316   9.763
 7072SOL    HW221960   4.042   4.437   9.797
 7073SOL     OW21961   4.336   3.819   9.434
 7073SOL    HW121962   4.432   3.817   9.431
 7073SOL    HW221963   4.308   3.802   9.344
 7074SOL     OW21964   4.259   3.789   9.812
 7074SOL    HW121965   4.179   3.791   9.864
 7074SOL    HW221966   4.253   3.866   9.755
 7075SOL     OW21967   4.016   3.772   9.497
 7075SOL    HW121968   4.077   3.834   9.456
 7075SOL    HW221969   4.073   3.709   9.541
 7076SOL     OW21970   0.339   4.367  10.832
 7076SOL    HW121971   0.248   4.342  10.813
 7076SOL    HW221972   0.391   4.291  10.809
 7077SOL     OW21973   3.802   4.275  10.712
 7077SOL    HW121974   3.892   4.268  10.681
 7077SOL    HW221975   3.806   4.338  10.784
 7078SOL     OW21976   4.282   3.928  10.463
 7078SOL    HW121977   4.323   3.862  10.519
 7078SOL    HW221978   4.194   3.938  10.498
 7079SOL     OW21979   4.244   3.987   9.632
 7079SOL    HW121980   4.284   3.929   9.567
 7079SOL    HW221981   4.227   4.068   9.584
 7080SOL     OW21982   4.162   0.008  10.581
 7080SOL    HW121983   4.219   0.002  10.657
 7080SOL    HW221984   4.112   4.427  10.580
 7081SOL     OW21985   4.314   4.258  10.192
 7081SOL    HW121986   4.326   4.334  10.135
 7081SOL    HW221987   4.384   4.266  10.257
 7082SOL     OW21988   4.130   4.459  10.903
 7082SOL    HW121989   4.196   0.028  10.896
 7082SOL    HW221990   4.180   4.378  10.898
 7083SOL     OW21991   4.023   3.923  10.556
 7083SOL    HW121992   3.988   3.954  10.639
 7083SOL    HW221993   4.004   3.829  10.556
 7084SOL     OW21994   4.019   3.787   9.939
 7084SOL    HW121995   4.000   3.879   9.960
 7084SOL    HW221996   4.033   3.745  10.023
 7085SOL     OW21997   4.037   0.010  10.225
 7085SOL    HW121998   4.107   0.075  10.235
 7085SOL    HW221999   4.063   4.439  10.284
 7086SOL     OW22000   4.079   4.244  10.332
 7086SOL    HW122001   4.036   4.162  10.308
 7086SOL    HW222002   4.160   4.244  10.279
 7087SOL     OW22003   3.758   4.282  10.430
 7087SOL    HW122004   3.836   4.266  10.377
 7087SOL    HW222005   3.789   4.277  10.520
 7088SOL     OW22006   0.012   4.299   9.601
 7088SOL    HW122007   0.009   4.218   9.653
 7088SOL    HW222008   0.002   4.369   9.666
 7089SOL     OW22009   4.200   4.208   9.492
 7089SOL    HW122010   4.252   4.286   9.510
 7089SOL    HW222011   4.110   4.240   9.484
 7090SOL     OW22012   3.983   4.044  10.024
 7090SOL    HW122013   3.894   4.071  10.001
 7090SOL    HW222014   3.981   4.035  10.119
 7091SOL     OW22015   4.398   3.936  10.815
 7091SOL    HW122016   4.474   3.951  10.758
 7091SOL    HW222017   4.432   3.946  10.904
 7092SOL     OW22018   3.801   4.034   9.338
 7092SOL    HW122019   3.723   4.034   9.282
 7092SOL    HW222020   3.830   4.125   9.339
 7093SOL     OW22021   3.786   3.876   9.611
 7093SOL    HW122022   3.770   3.952   9.555
 7093SOL    HW222023   3.872   3.844   9.584
 7094SOL     OW22024   4.177   4.157   9.854
 7094SOL    HW122025   4.188   4.093   9.784
 7094SOL    HW222026   4.111   4.119   9.912
 7095SOL     OW22027   4.047   4.263  10.602
 7095SOL    HW122028   4.104   4.207  10.655
 7095SOL    HW222029   4.069   4.240  10.511
   4.50000   4.50000  11.10000
