2aCDOC_1PEG_l8
22164
    1LIG      O    1   2.764   2.588   0.002
    1LIG      C    2   2.751   2.635   0.136
    1LIG     C1    3   2.619   2.574   0.190
    1LIG     O1    4   2.563   2.662   0.286
    1LIG     C2    5   2.589   2.615   0.415
    1LIG     C3    6   2.735   2.657   0.451
    1LIG     O2    7   2.766   2.604   0.577
    1LIG     C4    8   2.711   2.688   0.676
    1LIG     C5    9   2.578   2.627   0.726
    1LIG     O3   10   2.541   2.697   0.841
    1LIG     C6   11   2.589   2.635   0.957
    1LIG     C7   12   2.734   2.683   0.995
    1LIG     O4   13   2.779   2.620   1.113
    1LIG     C8   14   2.730   2.686   1.227
    1LIG     C9   15   2.600   2.611   1.268
    1LIG     O5   16   2.529   2.676   1.370
    1LIG    C10   17   2.583   2.633   1.491
    1LIG    C11   18   2.687   2.735   1.535
    1LIG     O6   19   2.637   2.781   1.655
    1LIG    C12   20   2.687   2.706   1.761
    1LIG    C13   21   2.596   2.585   1.797
    1LIG     O7   22   2.655   2.523   1.910
    1LIG    C14   23   2.614   2.588   2.029
    1LIG    C15   24   2.707   2.708   2.069
    1LIG     O8   25   2.643   2.788   2.165
    1LIG    C16   26   2.678   2.741   2.291
    1LIG    C17   27   2.569   2.639   2.332
    1LIG     O9   28   2.625   2.552   2.426
    1LIG    C18   29   2.590   2.599   2.554
    1LIG    C19   30   2.687   2.712   2.596
    1LIG    O10   31   2.641   2.767   2.716
    1LIG    C20   32   2.700   2.704   2.826
    1LIG    C21   33   2.602   2.597   2.874
    1LIG    O11   34   2.651   2.537   2.988
    1LIG    C22   35   2.603   2.601   3.102
    1LIG    C23   36   2.716   2.692   3.150
    1LIG    O12   37   2.762   2.631   3.266
    1LIG    C24   38   2.713   2.698   3.375
    1LIG    C25   39   2.578   2.631   3.415
    1LIG    O13   40   2.528   2.697   3.527
    1LIG    C26   41   2.570   2.632   3.644
    1LIG    C27   42   2.711   2.682   3.682
    1LIG    O14   43   2.762   2.611   3.789
    1LIG    C28   44   2.728   2.677   3.905
    1LIG    C29   45   2.592   2.626   3.953
    1LIG    O15   46   2.555   2.701   4.062
    1LIG    C30   47   2.578   2.634   4.179
    1LIG    C31   48   2.719   2.677   4.222
    1LIG    O16   49   2.759   2.602   4.331
    1LIG    C32   50   2.727   2.670   4.446
    1LIG    C33   51   2.585   2.630   4.485
    1LIG    O17   52   2.547   2.698   4.599
    1LIG    C34   53   2.591   2.626   4.709
    1LIG    C35   54   2.725   2.690   4.757
    1LIG    O18   55   2.769   2.630   4.876
    1LIG    C36   56   2.716   2.699   4.986
    1LIG    C37   57   2.577   2.636   5.018
    1LIG    O19   58   2.518   2.685   5.135
    1LIG    C38   59   2.582   2.626   5.243
    1LIG    C39   60   2.694   2.721   5.285
    1LIG    O20   61   2.650   2.777   5.403
    1LIG    C40   62   2.697   2.702   5.509
    1LIG    C41   63   2.602   2.585   5.547
    1LIG    O21   64   2.654   2.527   5.663
    1LIG    C42   65   2.608   2.595   5.777
    1LIG    C43   66   2.702   2.715   5.818
    1LIG    O22   67   2.642   2.790   5.920
    1LIG    C44   68   2.683   2.737   6.042
    1LIG    C45   69   2.577   2.632   6.084
    1LIG    O23   70   2.635   2.548   6.179
    1LIG    C46   71   2.596   2.593   6.305
    1LIG    C47   72   2.688   2.708   6.349
    1LIG    O24   73   2.638   2.752   6.470
    1LIG    C48   74   2.707   2.695   6.576
    1LIG    C49   75   2.613   2.590   6.636
    1LIG    O25   76   2.672   2.533   6.750
    1LIG    C50   77   2.623   2.596   6.865
    1LIG    C51   78   2.703   2.725   6.895
    1LIG    O26   79   2.637   2.792   7.000
    1LIG    C52   80   2.679   2.739   7.123
    1LIG    C53   81   2.584   2.626   7.166
    1LIG    O27   82   2.543   2.664   7.292
    1LIG    C54   83   2.597   2.594   7.398
    1LIG    C55   84   2.727   2.668   7.443
    1LIG    O28   85   2.788   2.605   7.557
    1LIG    C56   86   2.742   2.665   7.677
    1LIG    C57   87   2.602   2.604   7.708
    1LIG    O29   88   2.542   2.665   7.818
    1LIG    C58   89   2.568   2.592   7.935
    1LIG    C59   90   2.681   2.670   8.001
    1LIG      H   91   2.745   2.745   0.139
    1LIG     H1   92   2.838   2.604   0.193
    1LIG     H2   93   2.639   2.475   0.231
    1LIG     H3   94   2.544   2.562   0.112
    1LIG     H4   95   2.577   2.506   0.422
    1LIG     H5   96   2.516   2.664   0.478
    1LIG     H6   97   2.744   2.766   0.450
    1LIG     H7   98   2.808   2.616   0.382
    1LIG     H8   99   2.695   2.791   0.642
    1LIG     H9  100   2.789   2.695   0.750
    1LIG    H10  101   2.589   2.519   0.745
    1LIG    H11  102   2.495   2.639   0.658
    1LIG    H12  103   2.588   2.526   0.949
    1LIG    H13  104   2.514   2.666   1.028
    1LIG    H14  105   2.737   2.792   1.003
    1LIG    H15  106   2.807   2.650   0.922
    1LIG    H16  107   2.712   2.792   1.208
    1LIG    H17  108   2.807   2.678   1.305
    1LIG    H18  109   2.627   2.510   1.295
    1LIG    H19  110   2.525   2.601   1.191
    1LIG    H20  111   2.628   2.533   1.487
    1LIG    H21  112   2.500   2.627   1.561
    1LIG    H22  113   2.696   2.821   1.469
    1LIG    H23  114   2.786   2.689   1.549
    1LIG    H24  115   2.685   2.783   1.832
    1LIG    H25  116   2.791   2.673   1.747
    1LIG    H26  117   2.594   2.510   1.717
    1LIG    H27  118   2.493   2.617   1.818
    1LIG    H28  119   2.622   2.511   2.104
    1LIG    H29  120   2.508   2.617   2.025
    1LIG    H30  121   2.726   2.784   1.997
    1LIG    H31  122   2.806   2.672   2.099
    1LIG    H32  123   2.681   2.830   2.354
    1LIG    H33  124   2.778   2.696   2.292
    1LIG    H34  125   2.533   2.575   2.253
    1LIG    H35  126   2.480   2.692   2.366
    1LIG    H36  127   2.597   2.514   2.620
    1LIG    H37  128   2.487   2.635   2.555
    1LIG    H38  129   2.688   2.798   2.531
    1LIG    H39  130   2.790   2.675   2.603
    1LIG    H40  131   2.718   2.781   2.900
    1LIG    H41  132   2.795   2.656   2.800
    1LIG    H42  133   2.594   2.515   2.805
    1LIG    H43  134   2.501   2.640   2.888
    1LIG    H44  135   2.578   2.521   3.170
    1LIG    H45  136   2.511   2.661   3.084
    1LIG    H46  137   2.681   2.794   3.165
    1LIG    H47  138   2.803   2.694   3.085
    1LIG    H48  139   2.702   2.806   3.362
    1LIG    H49  140   2.798   2.683   3.440
    1LIG    H50  141   2.592   2.524   3.435
    1LIG    H51  142   2.502   2.642   3.337
    1LIG    H52  143   2.568   2.524   3.635
    1LIG    H53  144   2.493   2.661   3.714
    1LIG    H54  145   2.715   2.790   3.696
    1LIG    H55  146   2.785   2.658   3.609
    1LIG    H56  147   2.729   2.786   3.895
    1LIG    H57  148   2.808   2.648   3.972
    1LIG    H58  149   2.600   2.521   3.974
    1LIG    H59  150   2.508   2.639   3.887
    1LIG    H60  151   2.570   2.525   4.170
    1LIG    H61  152   2.496   2.668   4.240
    1LIG    H62  153   2.723   2.785   4.238
    1LIG    H63  154   2.793   2.651   4.149
    1LIG    H64  155   2.736   2.778   4.437
    1LIG    H65  156   2.802   2.633   4.515
    1LIG    H66  157   2.577   2.522   4.496
    1LIG    H67  158   2.509   2.662   4.415
    1LIG    H68  159   2.601   2.518   4.691
    1LIG    H69  160   2.506   2.638   4.774
    1LIG    H70  161   2.715   2.799   4.765
    1LIG    H71  162   2.808   2.673   4.689
    1LIG    H72  163   2.707   2.807   4.966
    1LIG    H73  164   2.788   2.686   5.066
    1LIG    H74  165   2.591   2.528   5.024
    1LIG    H75  166   2.501   2.656   4.946
    1LIG    H76  167   2.623   2.526   5.222
    1LIG    H77  168   2.506   2.614   5.321
    1LIG    H78  169   2.710   2.805   5.217
    1LIG    H79  170   2.788   2.668   5.298
    1LIG    H80  171   2.701   2.780   5.580
    1LIG    H81  172   2.800   2.665   5.496
    1LIG    H82  173   2.601   2.507   5.470
    1LIG    H83  174   2.499   2.620   5.562
    1LIG    H84  175   2.611   2.517   5.851
    1LIG    H85  176   2.503   2.626   5.768
    1LIG    H86  177   2.713   2.795   5.749
    1LIG    H87  178   2.803   2.679   5.841
    1LIG    H88  179   2.689   2.822   6.109
    1LIG    H89  180   2.784   2.692   6.038
    1LIG    H90  181   2.542   2.565   6.008
    1LIG    H91  182   2.486   2.683   6.117
    1LIG    H92  183   2.606   2.509   6.373
    1LIG    H93  184   2.491   2.626   6.305
    1LIG    H94  185   2.684   2.797   6.288
    1LIG    H95  186   2.792   2.674   6.355
    1LIG    H96  187   2.730   2.779   6.639
    1LIG    H97  188   2.802   2.648   6.548
    1LIG    H98  189   2.597   2.508   6.568
    1LIG    H99  190   2.515   2.635   6.657
    1LIG   H100  191   2.632   2.524   6.946
    1LIG   H101  192   2.516   2.620   6.854
    1LIG   H102  193   2.706   2.797   6.816
    1LIG   H103  194   2.806   2.699   6.921
    1LIG   H104  195   2.677   2.821   7.194
    1LIG   H105  196   2.783   2.702   7.119
    1LIG   H106  197   2.628   2.526   7.160
    1LIG   H107  198   2.490   2.627   7.109
    1LIG   H108  199   2.610   2.487   7.379
    1LIG   H109  200   2.511   2.606   7.461
    1LIG   H110  201   2.703   2.772   7.465
    1LIG   H111  202   2.801   2.666   7.362
    1LIG   H112  203   2.735   2.774   7.667
    1LIG   H113  204   2.814   2.643   7.757
    1LIG   H114  205   2.609   2.495   7.717
    1LIG   H115  206   2.531   2.626   7.633
    1LIG   H116  207   2.596   2.487   7.915
    1LIG   H117  208   2.478   2.592   7.997
    1LIG   H118  209   2.745   2.722   7.929
    1LIG   H119  210   2.631   2.748   8.057
    2MOL     C1  211   2.298   2.235   3.523
    2MOL     H1  212   2.294   2.127   3.537
    2MOL     O1  213   2.248   2.301   3.640
    2MOL     C2  214   2.246   2.447   3.637
    2MOL     H2  215   2.348   2.486   3.636
    2MOL     C3  216   2.175   2.493   3.764
    2MOL     H3  217   2.075   2.449   3.771
    2MOL     H4  218   2.166   2.602   3.765
    2MOL     O2  219   2.255   2.453   3.873
    2MOL     C4  220   2.197   2.490   3.997
    2MOL     C5  221   2.204   2.274   3.407
    2MOL     H5  222   2.102   2.244   3.434
    2MOL     O3  223   2.243   2.208   3.285
    2MOL     C6  224   2.208   2.069   3.279
    2MOL     C7  225   2.205   2.426   3.385
    2MOL     H6  226   2.306   2.458   3.355
    2MOL     O4  227   2.106   2.460   3.285
    2MOL     C8  228   2.164   2.504   3.162
    2MOL     C9  229   2.169   2.501   3.515
    2MOL     H7  230   2.061   2.490   3.533
    2MOL     O5  231   2.204   2.640   3.495
    2MOL    C10  232   2.103   2.738   3.529
    2MOL     H8  233   2.004   2.691   3.542
    2MOL     O6  234   2.138   2.804   3.650
    2MOL    C11  235   2.269   2.866   3.650
    2MOL     H9  236   2.345   2.792   3.629
    2MOL    C12  237   2.293   2.916   3.790
    2MOL    H10  238   2.227   2.999   3.815
    2MOL    H11  239   2.398   2.946   3.802
    2MOL     O7  240   2.262   2.803   3.872
    2MOL    C13  241   2.306   2.822   4.002
    2MOL    C14  242   2.095   2.848   3.422
    2MOL    H12  243   2.017   2.919   3.452
    2MOL     O8  244   2.062   2.790   3.295
    2MOL    C15  245   1.927   2.743   3.285
    2MOL    C16  246   2.227   2.927   3.409
    2MOL    H13  247   2.304   2.862   3.366
    2MOL     O9  248   2.199   3.041   3.326
    2MOL    C17  249   2.247   3.027   3.193
    2MOL    C18  250   2.279   2.978   3.545
    2MOL    H14  251   2.218   3.063   3.575
    2MOL    O10  252   2.418   3.016   3.529
    2MOL    C19  253   2.451   3.151   3.569
    2MOL    H15  254   2.361   3.208   3.594
    2MOL    O11  255   2.538   3.147   3.684
    2MOL    C20  256   2.666   3.080   3.667
    2MOL    H16  257   2.650   2.972   3.658
    2MOL    C21  258   2.752   3.116   3.788
    2MOL    H17  259   2.730   3.220   3.819
    2MOL    H18  260   2.857   3.111   3.762
    2MOL    O12  261   2.730   3.027   3.895
    2MOL    C22  262   2.801   3.069   4.012
    2MOL    C23  263   2.527   3.224   3.455
    2MOL    H19  264   2.551   3.326   3.490
    2MOL    O13  265   2.443   3.231   3.339
    2MOL    C24  266   2.335   3.325   3.351
    2MOL    C25  267   2.659   3.156   3.419
    2MOL    H20  268   2.638   3.060   3.369
    2MOL    O14  269   2.735   3.246   3.334
    2MOL    C26  270   2.737   3.210   3.195
    2MOL    C27  271   2.743   3.131   3.544
    2MOL    H21  272   2.787   3.227   3.572
    2MOL    O15  273   2.847   3.036   3.509
    2MOL    C28  274   2.984   3.073   3.540
    2MOL    H22  275   2.992   3.180   3.565
    2MOL    O16  276   3.030   2.997   3.653
    2MOL    C29  277   3.025   2.853   3.637
    2MOL    H23  278   2.921   2.823   3.621
    2MOL    C30  279   3.072   2.794   3.770
    2MOL    H24  280   3.042   2.689   3.781
    2MOL    H25  281   3.018   2.854   3.843
    2MOL    O17  282   3.215   2.811   3.785
    2MOL    C31  283   3.270   2.758   3.907
    2MOL    C32  284   3.078   3.041   3.422
    2MOL    H26  285   3.180   3.070   3.449
    2MOL    O18  286   3.034   3.113   3.305
    2MOL    C33  287   3.058   3.254   3.313
    2MOL    C34  288   3.077   2.890   3.391
    2MOL    H27  289   2.979   2.861   3.353
    2MOL    O19  290   3.182   2.865   3.295
    2MOL    C35  291   3.134   2.829   3.165
    2MOL    C36  292   3.109   2.807   3.516
    2MOL    H28  293   3.216   2.817   3.538
    2MOL    O20  294   3.073   2.670   3.485
    2MOL    C37  295   3.169   2.570   3.527
    2MOL    H29  296   3.265   2.616   3.552
    2MOL    O21  297   3.117   2.504   3.643
    2MOL    C38  298   2.990   2.436   3.627
    2MOL    H30  299   2.913   2.507   3.597
    2MOL    C39  300   2.952   2.378   3.761
    2MOL    H31  301   2.850   2.340   3.762
    2MOL    H32  302   2.957   2.459   3.833
    2MOL    O22  303   3.049   2.274   3.790
    2MOL    C40  304   3.016   2.190   3.900
    2MOL    C41  305   3.187   2.464   3.416
    2MOL    H33  306   3.264   2.393   3.448
    2MOL    O23  307   3.226   2.528   3.293
    2MOL    C42  308   3.358   2.582   3.293
    2MOL    C43  309   3.056   2.386   3.388
    2MOL    H34  310   2.981   2.456   3.347
    2MOL    O24  311   3.086   2.278   3.296
    2MOL    C44  312   3.033   2.299   3.164
    2MOL    C45  313   2.999   2.327   3.518
    2MOL    H35  314   3.064   2.245   3.551
    2MOL    O25  315   2.865   2.282   3.491
    2MOL    C46  316   2.832   2.149   3.536
    2MOL    H36  317   2.922   2.091   3.559
    2MOL    O26  318   2.749   2.157   3.653
    2MOL    C47  319   2.629   2.237   3.640
    2MOL    H37  320   2.654   2.342   3.622
    2MOL    C48  321   2.550   2.221   3.769
    2MOL    H38  322   2.569   2.120   3.808
    2MOL    H39  323   2.443   2.230   3.750
    2MOL    O27  324   2.586   2.316   3.867
    2MOL    C49  325   2.506   2.290   3.982
    2MOL    C50  326   2.750   2.078   3.426
    2MOL    H40  327   2.727   1.976   3.460
    2MOL    O28  328   2.826   2.075   3.304
    2MOL    C51  329   2.941   1.990   3.305
    2MOL    C52  330   2.618   2.153   3.398
    2MOL    H41  331   2.641   2.249   3.351
    2MOL    O29  332   2.535   2.069   3.313
    2MOL    C53  333   2.537   2.108   3.175
    2MOL    C54  334   2.539   2.182   3.527
    2MOL    H42  335   2.497   2.087   3.562
    2MOL    O30  336   2.435   2.278   3.497
    2MOL    H43  337   2.299   2.731   4.061
    2MOL    H44  338   2.410   2.847   3.996
    2MOL    H45  339   2.252   2.905   4.048
    2MOL    H46  340   2.274   2.480   4.072
    2MOL    H47  341   2.164   2.594   3.994
    2MOL    H48  342   2.112   2.426   4.022
    2MOL    H49  343   2.520   2.365   4.060
    2MOL    H50  344   2.401   2.291   3.954
    2MOL    H51  345   2.531   2.192   4.025
    2MOL    H52  346   3.086   2.106   3.906
    2MOL    H53  347   3.025   2.247   3.992
    2MOL    H54  348   2.914   2.150   3.889
    2MOL    H55  349   3.379   2.772   3.910
    2MOL    H56  350   3.227   2.807   3.995
    2MOL    H57  351   3.250   2.650   3.912
    2MOL    H58  352   2.775   3.006   4.097
    2MOL    H59  353   2.909   3.064   3.994
    2MOL    H60  354   2.774   3.172   4.038
    2MOL    H61  355   3.380   2.618   3.192
    2MOL    H62  356   3.366   2.667   3.361
    2MOL    H63  357   3.431   2.506   3.321
    2MOL    H64  358   3.220   2.815   3.098
    2MOL    H65  359   3.076   2.736   3.170
    2MOL    H66  360   3.070   2.909   3.125
    2MOL    H67  361   3.038   3.300   3.216
    2MOL    H68  362   2.991   3.301   3.386
    2MOL    H69  363   3.161   3.272   3.343
    2MOL    H70  364   2.795   3.283   3.138
    2MOL    H71  365   2.782   3.111   3.182
    2MOL    H72  366   2.635   3.208   3.155
    2MOL    H73  367   2.289   3.341   3.253
    2MOL    H74  368   2.259   3.288   3.420
    2MOL    H75  369   2.375   3.420   3.388
    2MOL    H76  370   2.222   3.116   3.135
    2MOL    H77  371   2.356   3.014   3.194
    2MOL    H78  372   2.202   2.939   3.144
    2MOL    H79  373   1.905   2.718   3.180
    2MOL    H80  374   1.912   2.653   3.346
    2MOL    H81  375   1.857   2.821   3.318
    2MOL    H82  376   2.086   2.538   3.094
    2MOL    H83  377   2.232   2.588   3.180
    2MOL    H84  378   2.220   2.422   3.116
    2MOL    H85  379   2.223   2.030   3.178
    2MOL    H86  380   2.269   2.010   3.348
    2MOL    H87  381   2.102   2.055   3.305
    2MOL    H88  382   2.476   2.037   3.116
    2MOL    H89  383   2.495   2.208   3.164
    2MOL    H90  384   2.639   2.107   3.136
    2MOL    H91  385   2.982   1.983   3.203
    2MOL    H92  386   3.019   2.031   3.371
    2MOL    H93  387   2.913   1.890   3.339
    2MOL    H94  388   3.056   2.213   3.101
    2MOL    H95  389   2.924   2.310   3.169
    2MOL    H96  390   3.076   2.389   3.120
    3MOL     C1  391   3.001   2.234   4.545
    3MOL     H1  392   3.005   2.126   4.527
    3MOL     O1  393   3.053   2.304   4.431
    3MOL     C2  394   3.050   2.449   4.437
    3MOL     H2  395   2.947   2.485   4.438
    3MOL     C3  396   3.121   2.498   4.312
    3MOL     H3  397   3.216   2.445   4.301
    3MOL     H4  398   3.139   2.605   4.314
    3MOL     O2  399   3.036   2.468   4.203
    3MOL     C4  400   3.101   2.493   4.081
    3MOL     C5  401   3.093   2.271   4.662
    3MOL     H5  402   3.196   2.243   4.636
    3MOL     O3  403   3.053   2.202   4.782
    3MOL     C6  404   3.088   2.063   4.786
    3MOL     C7  405   3.089   2.422   4.687
    3MOL     H6  406   2.988   2.451   4.720
    3MOL     O4  407   3.188   2.450   4.787
    3MOL     C8  408   3.136   2.519   4.900
    3MOL     C9  409   3.125   2.502   4.561
    3MOL     H7  410   3.233   2.490   4.544
    3MOL     O5  411   3.092   2.641   4.583
    3MOL    C10  412   3.192   2.739   4.544
    3MOL     H8  413   3.290   2.691   4.528
    3MOL     O6  414   3.153   2.804   4.423
    3MOL    C11  415   3.024   2.868   4.425
    3MOL     H9  416   2.948   2.795   4.451
    3MOL    C12  417   2.998   2.915   4.284
    3MOL    H10  418   3.073   2.988   4.253
    3MOL    H11  419   2.897   2.958   4.275
    3MOL     O7  420   3.009   2.796   4.207
    3MOL    C13  421   2.974   2.815   4.073
    3MOL    C14  422   3.206   2.851   4.649
    3MOL    H12  423   3.285   2.919   4.617
    3MOL     O8  424   3.238   2.795   4.777
    3MOL    C15  425   3.358   2.716   4.779
    3MOL    C16  426   3.075   2.930   4.664
    3MOL    H13  427   2.998   2.865   4.706
    3MOL     O9  428   3.102   3.044   4.747
    3MOL    C17  429   3.046   3.031   4.878
    3MOL    C18  430   3.022   2.982   4.529
    3MOL    H14  431   3.083   3.065   4.494
    3MOL    O10  432   2.884   3.020   4.552
    3MOL    C19  433   2.848   3.153   4.508
    3MOL    H15  434   2.936   3.210   4.478
    3MOL    O11  435   2.759   3.140   4.396
    3MOL    C20  436   2.628   3.077   4.416
    3MOL    H16  437   2.639   2.968   4.429
    3MOL    C21  438   2.547   3.111   4.292
    3MOL    H17  439   2.587   3.205   4.253
    3MOL    H18  440   2.441   3.126   4.316
    3MOL    O12  441   2.558   3.010   4.193
    3MOL    C22  442   2.498   3.060   4.074
    3MOL    C23  443   2.773   3.229   4.621
    3MOL    H19  444   2.750   3.331   4.586
    3MOL    O13  445   2.852   3.235   4.740
    3MOL    C24  446   2.962   3.327   4.736
    3MOL    C25  447   2.642   3.160   4.657
    3MOL    H20  448   2.667   3.060   4.698
    3MOL    O14  449   2.570   3.241   4.752
    3MOL    C26  450   2.553   3.175   4.878
    3MOL    C27  451   2.553   3.137   4.536
    3MOL    H21  452   2.510   3.235   4.506
    3MOL    O15  453   2.448   3.046   4.578
    3MOL    C28  454   2.311   3.081   4.547
    3MOL    H22  455   2.301   3.189   4.527
    3MOL    O16  456   2.268   3.006   4.433
    3MOL    C29  457   2.278   2.861   4.445
    3MOL    H23  458   2.383   2.834   4.463
    3MOL    C30  459   2.236   2.803   4.311
    3MOL    H24  460   2.265   2.697   4.304
    3MOL    H25  461   2.293   2.860   4.238
    3MOL    O17  462   2.094   2.820   4.292
    3MOL    C31  463   2.040   2.747   4.181
    3MOL    C32  464   2.219   3.041   4.665
    3MOL    H26  465   2.116   3.069   4.639
    3MOL    O18  466   2.259   3.107   4.787
    3MOL    C33  467   2.226   3.247   4.795
    3MOL    C34  468   2.222   2.889   4.691
    3MOL    H27  469   2.322   2.861   4.725
    3MOL    O19  470   2.120   2.857   4.788
    3MOL    C35  471   2.172   2.824   4.918
    3MOL    C36  472   2.192   2.810   4.563
    3MOL    H28  473   2.085   2.822   4.539
    3MOL    O20  474   2.225   2.671   4.589
    3MOL    C37  475   2.126   2.574   4.551
    3MOL    H29  476   2.029   2.623   4.531
    3MOL    O21  477   2.171   2.504   4.434
    3MOL    C38  478   2.299   2.436   4.448
    3MOL    H30  479   2.374   2.510   4.476
    3MOL    C39  480   2.338   2.377   4.314
    3MOL    H31  481   2.440   2.340   4.314
    3MOL    H32  482   2.334   2.459   4.243
    3MOL    O22  483   2.243   2.272   4.283
    3MOL    C40  484   2.271   2.193   4.168
    3MOL    C41  485   2.109   2.469   4.664
    3MOL    H33  486   2.032   2.397   4.633
    3MOL    O23  487   2.069   2.534   4.787
    3MOL    C42  488   1.935   2.583   4.789
    3MOL    C43  489   2.240   2.391   4.689
    3MOL    H34  490   2.315   2.460   4.729
    3MOL    O24  491   2.210   2.285   4.782
    3MOL    C44  492   2.253   2.309   4.916
    3MOL    C45  493   2.295   2.330   4.559
    3MOL    H35  494   2.231   2.245   4.529
    3MOL    O25  495   2.432   2.287   4.584
    3MOL    C46  496   2.468   2.154   4.539
    3MOL    H36  497   2.378   2.094   4.519
    3MOL    O26  498   2.549   2.161   4.420
    3MOL    C47  499   2.674   2.235   4.430
    3MOL    H37  500   2.655   2.341   4.447
    3MOL    C48  501   2.753   2.219   4.300
    3MOL    H38  502   2.746   2.116   4.263
    3MOL    H39  503   2.858   2.241   4.319
    3MOL    O27  504   2.703   2.312   4.205
    3MOL    C49  505   2.786   2.312   4.089
    3MOL    C50  506   2.553   2.084   4.649
    3MOL    H40  507   2.578   1.982   4.615
    3MOL    O28  508   2.480   2.079   4.773
    3MOL    C51  509   2.377   1.978   4.777
    3MOL    C52  510   2.684   2.161   4.674
    3MOL    H41  511   2.661   2.259   4.715
    3MOL    O29  512   2.768   2.083   4.760
    3MOL    C53  513   2.771   2.128   4.896
    3MOL    C54  514   2.762   2.181   4.544
    3MOL    H42  515   2.804   2.085   4.514
    3MOL    O30  516   2.866   2.278   4.572
    3MOL    H43  517   2.996   2.726   4.015
    3MOL    H44  518   2.867   2.833   4.065
    3MOL    H45  519   3.030   2.901   4.033
    3MOL    H46  520   3.029   2.480   4.002
    3MOL    H47  521   3.139   2.595   4.079
    3MOL    H48  522   3.185   2.423   4.067
    3MOL    H49  523   2.767   2.400   4.026
    3MOL    H50  524   2.891   2.315   4.119
    3MOL    H51  525   2.770   2.221   4.031
    3MOL    H52  526   2.208   2.103   4.167
    3MOL    H53  527   2.250   2.248   4.077
    3MOL    H54  528   2.377   2.162   4.170
    3MOL    H55  529   1.930   2.748   4.184
    3MOL    H56  530   2.072   2.791   4.086
    3MOL    H57  531   2.073   2.643   4.183
    3MOL    H58  532   2.523   2.996   3.989
    3MOL    H59  533   2.389   3.066   4.086
    3MOL    H60  534   2.536   3.160   4.049
    3MOL    H61  535   1.908   2.613   4.892
    3MOL    H62  536   1.924   2.671   4.724
    3MOL    H63  537   1.865   2.505   4.756
    3MOL    H64  538   2.088   2.801   4.985
    3MOL    H65  539   2.236   2.735   4.911
    3MOL    H66  540   2.229   2.907   4.959
    3MOL    H67  541   2.244   3.283   4.897
    3MOL    H68  542   2.289   3.303   4.727
    3MOL    H69  543   2.121   3.264   4.769
    3MOL    H70  544   2.487   3.233   4.943
    3MOL    H71  545   2.508   3.076   4.863
    3MOL    H72  546   2.651   3.163   4.925
    3MOL    H73  547   3.001   3.343   4.838
    3MOL    H74  548   3.043   3.287   4.674
    3MOL    H75  549   2.930   3.424   4.696
    3MOL    H76  550   3.070   3.121   4.934
    3MOL    H77  551   2.937   3.021   4.873
    3MOL    H78  552   3.088   2.943   4.930
    3MOL    H79  553   3.377   2.684   4.881
    3MOL    H80  554   3.348   2.625   4.718
    3MOL    H81  555   3.443   2.773   4.740
    3MOL    H82  556   3.219   2.545   4.965
    3MOL    H83  557   3.084   2.611   4.869
    3MOL    H84  558   3.064   2.456   4.953
    3MOL    H85  559   3.068   2.022   4.886
    3MOL    H86  560   3.029   2.005   4.714
    3MOL    H87  561   3.195   2.049   4.765
    3MOL    H88  562   2.854   2.080   4.949
    3MOL    H89  563   2.786   2.236   4.900
    3MOL    H90  564   2.678   2.100   4.946
    3MOL    H91  565   2.332   1.974   4.877
    3MOL    H92  566   2.300   2.003   4.704
    3MOL    H93  567   2.419   1.880   4.752
    3MOL    H94  568   2.232   2.222   4.979
    3MOL    H95  569   2.360   2.327   4.915
    3MOL    H96  570   2.204   2.397   4.958
    4SOL     OW  571   0.225   0.629   0.104
    4SOL    HW1  572   0.165   0.591   0.168
    4SOL    HW2  573   0.245   0.557   0.044
    5SOL     OW  574   0.232   0.281   0.990
    5SOL    HW1  575   0.251   0.244   1.077
    5SOL    HW2  576   0.152   0.235   0.963
    6SOL     OW  577   0.002   0.405   0.660
    6SOL    HW1  578   5.209   0.426   0.668
    6SOL    HW2  579   0.004   0.314   0.631
    7SOL     OW  580   0.572   1.281   1.179
    7SOL    HW1  581   0.489   1.289   1.132
    7SOL    HW2  582   0.589   1.369   1.214
    8SOL     OW  583   1.558   1.512   0.706
    8SOL    HW1  584   1.515   1.492   0.789
    8SOL    HW2  585   1.487   1.515   0.642
    9SOL     OW  586   1.130   0.698   0.703
    9SOL    HW1  587   1.180   0.779   0.688
    9SOL    HW2  588   1.083   0.714   0.785
   10SOL     OW  589   1.770   0.600   0.232
   10SOL    HW1  590   1.730   0.602   0.145
   10SOL    HW2  591   1.728   0.526   0.276
   11SOL     OW  592   0.758   1.143   1.038
   11SOL    HW1  593   0.690   1.176   1.096
   11SOL    HW2  594   0.792   1.221   0.994
   12SOL     OW  595   0.862   0.781   1.821
   12SOL    HW1  596   0.855   0.853   1.884
   12SOL    HW2  597   0.887   0.823   1.739
   13SOL     OW  598   0.685   1.004   0.650
   13SOL    HW1  599   0.750   0.991   0.718
   13SOL    HW2  600   0.617   1.057   0.692
   14SOL     OW  601   0.708   1.151   1.811
   14SOL    HW1  602   0.756   1.230   1.836
   14SOL    HW2  603   0.625   1.184   1.776
   15SOL     OW  604   0.358   1.407   1.060
   15SOL    HW1  605   0.271   1.402   1.020
   15SOL    HW2  606   0.406   1.469   1.006
   16SOL     OW  607   1.461   1.498   1.352
   16SOL    HW1  608   1.508   1.581   1.362
   16SOL    HW2  609   1.403   1.494   1.428
   17SOL     OW  610   0.447   0.400   1.494
   17SOL    HW1  611   0.526   0.346   1.486
   17SOL    HW2  612   0.375   0.337   1.499
   18SOL     OW  613   1.612   0.452   0.737
   18SOL    HW1  614   1.534   0.475   0.687
   18SOL    HW2  615   1.631   0.529   0.790
   19SOL     OW  616   0.217   1.728   0.468
   19SOL    HW1  617   0.262   1.783   0.532
   19SOL    HW2  618   0.285   1.707   0.404
   20SOL     OW  619   1.136   1.341   1.692
   20SOL    HW1  620   1.177   1.337   1.778
   20SOL    HW2  621   1.084   1.261   1.686
   21SOL     OW  622   0.221   1.447   0.535
   21SOL    HW1  623   0.203   1.540   0.541
   21SOL    HW2  624   0.158   1.405   0.593
   22SOL     OW  625   0.251   1.080   0.879
   22SOL    HW1  626   0.258   0.994   0.921
   22SOL    HW2  627   0.197   1.132   0.939
   23SOL     OW  628   0.616   1.790   1.433
   23SOL    HW1  629   0.531   1.773   1.475
   23SOL    HW2  630   0.636   1.881   1.455
   24SOL     OW  631   0.625   0.960   0.134
   24SOL    HW1  632   0.582   1.040   0.105
   24SOL    HW2  633   0.678   0.987   0.209
   25SOL     OW  634   1.586   0.133   1.458
   25SOL    HW1  635   1.604   0.218   1.418
   25SOL    HW2  636   1.586   0.151   1.552
   26SOL     OW  637   0.128   0.639   0.581
   26SOL    HW1  638   0.091   0.555   0.607
   26SOL    HW2  639   0.097   0.701   0.647
   27SOL     OW  640   1.844   1.760   0.334
   27SOL    HW1  641   1.906   1.729   0.400
   27SOL    HW2  642   1.870   1.850   0.316
   28SOL     OW  643   0.031   1.586   0.105
   28SOL    HW1  644   0.024   1.500   0.146
   28SOL    HW2  645   0.005   1.648   0.173
   29SOL     OW  646   1.689   0.919   0.642
   29SOL    HW1  647   1.772   0.877   0.621
   29SOL    HW2  648   1.667   0.970   0.564
   30SOL     OW  649   1.646   1.105   0.434
   30SOL    HW1  650   1.725   1.121   0.384
   30SOL    HW2  651   1.651   1.167   0.507
   31SOL     OW  652   0.128   0.748   1.589
   31SOL    HW1  653   0.223   0.763   1.592
   31SOL    HW2  654   0.090   0.835   1.599
   32SOL     OW  655   0.614   1.384   0.734
   32SOL    HW1  656   0.567   1.301   0.745
   32SOL    HW2  657   0.597   1.410   0.644
   33SOL     OW  658   1.290   1.239   1.424
   33SOL    HW1  659   1.322   1.171   1.364
   33SOL    HW2  660   1.346   1.231   1.501
   34SOL     OW  661   0.813   0.024   0.525
   34SOL    HW1  662   0.842   0.111   0.498
   34SOL    HW2  663   0.718   0.026   0.519
   35SOL     OW  664   0.179   0.949   1.277
   35SOL    HW1  665   0.269   0.920   1.266
   35SOL    HW2  666   0.134   0.921   1.197
   36SOL     OW  667   1.512   1.005   0.210
   36SOL    HW1  668   1.451   0.938   0.241
   36SOL    HW2  669   1.563   1.029   0.287
   37SOL     OW  670   1.186   1.805   1.621
   37SOL    HW1  671   1.198   1.863   1.546
   37SOL    HW2  672   1.201   1.717   1.586
   38SOL     OW  673   0.325   0.273   1.797
   38SOL    HW1  674   0.385   0.336   1.836
   38SOL    HW2  675   0.244   0.281   1.848
   39SOL     OW  676   1.466   1.419   0.953
   39SOL    HW1  677   1.398   1.434   1.018
   39SOL    HW2  678   1.454   1.329   0.925
   40SOL     OW  679   1.661   1.736   0.581
   40SOL    HW1  680   1.639   1.709   0.492
   40SOL    HW2  681   1.635   1.663   0.636
   41SOL     OW  682   0.595   0.715   0.278
   41SOL    HW1  683   0.617   0.793   0.228
   41SOL    HW2  684   0.534   0.746   0.345
   42SOL     OW  685   1.278   0.345   0.931
   42SOL    HW1  686   1.188   0.316   0.943
   42SOL    HW2  687   1.328   0.295   0.997
   43SOL     OW  688   1.586   1.670   0.318
   43SOL    HW1  689   1.677   1.701   0.312
   43SOL    HW2  690   1.560   1.653   0.227
   44SOL     OW  691   0.794   0.617   1.452
   44SOL    HW1  692   0.766   0.596   1.541
   44SOL    HW2  693   0.751   0.552   1.397
   45SOL     OW  694   1.395   0.475   1.678
   45SOL    HW1  695   1.396   0.519   1.763
   45SOL    HW2  696   1.459   0.404   1.687
   46SOL     OW  697   0.956   0.888   1.581
   46SOL    HW1  698   1.011   0.817   1.547
   46SOL    HW2  699   0.909   0.921   1.505
   47SOL     OW  700   0.994   0.417   1.236
   47SOL    HW1  701   0.910   0.439   1.277
   47SOL    HW2  702   0.970   0.367   1.158
   48SOL     OW  703   1.051   0.699   0.428
   48SOL    HW1  704   1.066   0.691   0.522
   48SOL    HW2  705   0.969   0.652   0.412
   49SOL     OW  706   0.069   0.789   0.818
   49SOL    HW1  707   0.154   0.793   0.861
   49SOL    HW2  708   0.062   0.872   0.771
   50SOL     OW  709   0.132   1.880   1.584
   50SOL    HW1  710   0.133   1.847   1.674
   50SOL    HW2  711   0.057   1.837   1.543
   51SOL     OW  712   0.885   0.358   0.202
   51SOL    HW1  713   0.929   0.404   0.131
   51SOL    HW2  714   0.868   0.271   0.166
   52SOL     OW  715   1.709   0.576   1.828
   52SOL    HW1  716   1.672   0.651   1.781
   52SOL    HW2  717   1.736   0.515   1.759
   53SOL     OW  718   1.375   1.142   0.542
   53SOL    HW1  719   1.453   1.127   0.488
   53SOL    HW2  720   1.323   1.204   0.492
   54SOL     OW  721   0.538   0.199   0.885
   54SOL    HW1  722   0.555   0.219   0.978
   54SOL    HW2  723   0.549   0.283   0.841
   55SOL     OW  724   1.007   1.445   0.474
   55SOL    HW1  725   0.967   1.517   0.424
   55SOL    HW2  726   0.990   1.468   0.565
   56SOL     OW  727   0.356   1.801   0.867
   56SOL    HW1  728   0.398   1.716   0.881
   56SOL    HW2  729   0.423   1.864   0.894
   57SOL     OW  730   1.799   1.059   0.868
   57SOL    HW1  731   1.743   1.041   0.792
   57SOL    HW2  732   1.738   1.064   0.941
   58SOL     OW  733   1.228   1.539   1.513
   58SOL    HW1  734   1.214   1.466   1.573
   58SOL    HW2  735   1.166   1.524   1.441
   59SOL     OW  736   0.326   0.948   0.244
   59SOL    HW1  737   0.409   0.967   0.199
   59SOL    HW2  738   0.318   0.853   0.240
   60SOL     OW  739   1.477   0.741   0.727
   60SOL    HW1  740   1.466   0.696   0.811
   60SOL    HW2  741   1.554   0.796   0.739
   61SOL     OW  742   0.464   1.262   1.737
   61SOL    HW1  743   0.437   1.269   1.646
   61SOL    HW2  744   0.382   1.264   1.787
   62SOL     OW  745   1.108   1.780   0.225
   62SOL    HW1  746   1.052   1.740   0.291
   62SOL    HW2  747   1.129   1.710   0.164
   63SOL     OW  748   0.197   0.278   1.491
   63SOL    HW1  749   0.155   0.364   1.489
   63SOL    HW2  750   0.205   0.257   1.584
   64SOL     OW  751   1.633   1.373   0.082
   64SOL    HW1  752   1.592   1.460   0.081
   64SOL    HW2  753   1.561   1.313   0.064
   65SOL     OW  754   0.470   1.735   0.325
   65SOL    HW1  755   0.512   1.795   0.387
   65SOL    HW2  756   0.541   1.711   0.265
   66SOL     OW  757   1.413   0.100   0.445
   66SOL    HW1  758   1.402   0.079   0.352
   66SOL    HW2  759   1.505   0.127   0.453
   67SOL     OW  760   0.275   1.801   1.217
   67SOL    HW1  761   0.307   1.726   1.266
   67SOL    HW2  762   0.226   1.763   1.144
   68SOL     OW  763   0.938   1.698   0.900
   68SOL    HW1  764   1.016   1.645   0.920
   68SOL    HW2  765   0.893   1.649   0.831
   69SOL     OW  766   0.381   0.698   0.475
   69SOL    HW1  767   0.414   0.609   0.485
   69SOL    HW2  768   0.289   0.693   0.503
   70SOL     OW  769   1.540   0.228   1.724
   70SOL    HW1  770   1.547   0.246   1.818
   70SOL    HW2  771   1.466   0.168   1.716
   71SOL     OW  772   0.625   0.137   0.122
   71SOL    HW1  773   0.715   0.107   0.135
   71SOL    HW2  774   0.597   0.097   0.040
   72SOL     OW  775   0.784   0.313   1.766
   72SOL    HW1  776   0.841   0.236   1.767
   72SOL    HW2  777   0.733   0.307   1.847
   73SOL     OW  778   0.877   1.521   1.193
   73SOL    HW1  779   0.862   1.485   1.106
   73SOL    HW2  780   0.947   1.466   1.230
   74SOL     OW  781   1.341   0.589   1.432
   74SOL    HW1  782   1.372   0.557   1.517
   74SOL    HW2  783   1.377   0.677   1.425
   75SOL     OW  784   0.814   1.396   0.937
   75SOL    HW1  785   0.898   1.386   0.893
   75SOL    HW2  786   0.749   1.396   0.867
   76SOL     OW  787   0.927   0.510   0.903
   76SOL    HW1  788   0.904   0.502   0.811
   76SOL    HW2  789   0.959   0.423   0.928
   77SOL     OW  790   0.548   0.059   0.508
   77SOL    HW1  791   0.468   0.059   0.559
   77SOL    HW2  792   0.536   0.130   0.445
   78SOL     OW  793   1.434   1.199   0.037
   78SOL    HW1  794   1.458   1.125   0.092
   78SOL    HW2  795   1.345   1.222   0.066
   79SOL     OW  796   0.314   0.069   0.198
   79SOL    HW1  797   0.374   0.137   0.169
   79SOL    HW2  798   0.366   5.288   0.195
   80SOL     OW  799   0.944   0.255   0.455
   80SOL    HW1  800   0.915   0.301   0.377
   80SOL    HW2  801   1.036   0.277   0.464
   81SOL     OW  802   1.080   0.680   1.460
   81SOL    HW1  803   1.011   0.615   1.465
   81SOL    HW2  804   1.161   0.629   1.452
   82SOL     OW  805   1.224   1.569   0.794
   82SOL    HW1  806   1.241   1.637   0.728
   82SOL    HW2  807   1.292   1.582   0.860
   83SOL     OW  808   0.467   1.149   0.734
   83SOL    HW1  809   0.397   1.130   0.797
   83SOL    HW2  810   0.427   1.133   0.649
   84SOL     OW  811   1.269   1.794   0.606
   84SOL    HW1  812   1.317   1.857   0.552
   84SOL    HW2  813   1.204   1.847   0.651
   85SOL     OW  814   1.031   0.532   0.029
   85SOL    HW1  815   0.990   0.613   0.000
   85SOL    HW2  816   1.094   0.559   0.096
   86SOL     OW  817   0.095   0.533   1.409
   86SOL    HW1  818   0.176   0.551   1.362
   86SOL    HW2  819   0.076   0.615   1.456
   87SOL     OW  820   0.560   0.239   1.158
   87SOL    HW1  821   0.590   0.151   1.183
   87SOL    HW2  822   0.468   0.240   1.182
   88SOL     OW  823   0.869   0.461   0.639
   88SOL    HW1  824   0.824   0.514   0.574
   88SOL    HW2  825   0.889   0.379   0.595
   89SOL     OW  826   0.978   0.061   0.761
   89SOL    HW1  827   0.915   0.054   0.690
   89SOL    HW2  828   0.986   5.272   0.795
   90SOL     OW  829   1.436   1.163   0.857
   90SOL    HW1  830   1.368   1.096   0.856
   90SOL    HW2  831   1.459   1.176   0.765
   91SOL     OW  832   1.467   0.604   0.980
   91SOL    HW1  833   1.419   0.521   0.984
   91SOL    HW2  834   1.528   0.600   1.053
   92SOL     OW  835   1.848   0.817   0.387
   92SOL    HW1  836   1.900   0.763   0.448
   92SOL    HW2  837   1.817   0.755   0.321
   93SOL     OW  838   0.484   1.439   0.173
   93SOL    HW1  839   0.411   1.398   0.221
   93SOL    HW2  840   0.486   1.393   0.089
   94SOL     OW  841   1.669   1.266   0.648
   94SOL    HW1  842   1.764   1.270   0.661
   94SOL    HW2  843   1.638   1.354   0.669
   95SOL     OW  844   1.398   0.580   0.086
   95SOL    HW1  845   1.335   0.560   0.156
   95SOL    HW2  846   1.457   0.505   0.084
   96SOL     OW  847   0.523   0.268   0.328
   96SOL    HW1  848   0.564   0.212   0.262
   96SOL    HW2  849   0.508   0.351   0.282
   97SOL     OW  850   1.753   1.237   1.575
   97SOL    HW1  851   1.841   1.198   1.572
   97SOL    HW2  852   1.768   1.327   1.605
   98SOL     OW  853   1.060   1.353   1.334
   98SOL    HW1  854   0.985   1.322   1.385
   98SOL    HW2  855   1.136   1.312   1.375
   99SOL     OW  856   1.606   1.625   1.652
   99SOL    HW1  857   1.602   1.659   1.563
   99SOL    HW2  858   1.690   1.578   1.656
  100SOL     OW  859   1.127   1.202   1.106
  100SOL    HW1  860   1.068   1.240   1.172
  100SOL    HW2  861   1.093   1.233   1.022
  101SOL     OW  862   1.630   1.099   1.078
  101SOL    HW1  863   1.626   1.161   1.151
  101SOL    HW2  864   1.550   1.115   1.028
  102SOL     OW  865   0.906   0.106   1.392
  102SOL    HW1  866   0.936   0.072   1.308
  102SOL    HW2  867   0.983   0.148   1.430
  103SOL     OW  868   0.984   1.114   1.722
  103SOL    HW1  869   0.892   1.130   1.741
  103SOL    HW2  870   0.984   1.037   1.666
  104SOL     OW  871   0.712   1.060   0.380
  104SOL    HW1  872   0.697   1.045   0.473
  104SOL    HW2  873   0.790   1.009   0.359
  105SOL     OW  874   0.420   0.818   1.252
  105SOL    HW1  875   0.489   0.824   1.317
  105SOL    HW2  876   0.385   0.730   1.262
  106SOL     OW  877   1.268   0.379   1.271
  106SOL    HW1  878   1.300   0.456   1.318
  106SOL    HW2  879   1.178   0.402   1.248
  107SOL     OW  880   0.100   1.623   1.368
  107SOL    HW1  881   0.076   1.632   1.275
  107SOL    HW2  882   0.186   1.581   1.366
  108SOL     OW  883   0.346   1.106   0.489
  108SOL    HW1  884   0.349   1.185   0.436
  108SOL    HW2  885   0.364   1.035   0.428
  109SOL     OW  886   0.557   0.538   0.861
  109SOL    HW1  887   0.573   0.596   0.786
  109SOL    HW2  888   0.621   0.566   0.926
  110SOL     OW  889   1.247   1.347   0.393
  110SOL    HW1  890   1.303   1.420   0.422
  110SOL    HW2  891   1.160   1.370   0.425
  111SOL     OW  892   1.279   1.456   1.146
  111SOL    HW1  893   1.334   1.459   1.224
  111SOL    HW2  894   1.223   1.379   1.158
  112SOL     OW  895   1.584   0.626   0.479
  112SOL    HW1  896   1.535   0.678   0.544
  112SOL    HW2  897   1.620   0.691   0.419
  113SOL     OW  898   0.351   1.519   1.312
  113SOL    HW1  899   0.342   1.475   1.227
  113SOL    HW2  900   0.445   1.537   1.319
  114SOL     OW  901   0.413   0.742   1.602
  114SOL    HW1  902   0.471   0.790   1.544
  114SOL    HW2  903   0.459   0.659   1.618
  115SOL     OW  904   1.599   0.778   1.680
  115SOL    HW1  905   1.513   0.818   1.673
  115SOL    HW2  906   1.651   0.820   1.612
  116SOL     OW  907   1.039   0.115   1.781
  116SOL    HW1  908   1.064   0.194   1.734
  116SOL    HW2  909   1.049   0.044   1.717
  117SOL     OW  910   0.483   0.058   1.739
  117SOL    HW1  911   0.430   5.290   1.697
  117SOL    HW2  912   0.421   0.129   1.757
  118SOL     OW  913   0.586   0.873   1.032
  118SOL    HW1  914   0.615   0.964   1.029
  118SOL    HW2  915   0.528   0.869   1.109
  119SOL     OW  916   1.360   0.859   1.032
  119SOL    HW1  917   1.278   0.851   0.983
  119SOL    HW2  918   1.398   0.771   1.028
  120SOL     OW  919   1.204   0.528   0.270
  120SOL    HW1  920   1.212   0.447   0.322
  120SOL    HW2  921   1.163   0.591   0.329
  121SOL     OW  922   0.304   0.207   1.244
  121SOL    HW1  923   0.266   0.237   1.327
  121SOL    HW2  924   0.298   0.111   1.248
  122SOL     OW  925   0.071   1.320   1.281
  122SOL    HW1  926   0.090   1.259   1.353
  122SOL    HW2  927   0.005   1.379   1.316
  123SOL     OW  928   0.728   0.633   1.062
  123SOL    HW1  929   0.799   0.614   1.001
  123SOL    HW2  930   0.699   0.721   1.038
  124SOL     OW  931   1.733   0.959   1.851
  124SOL    HW1  932   1.687   0.901   1.792
  124SOL    HW2  933   1.674   0.972   1.925
  125SOL     OW  934   0.318   0.067   0.651
  125SOL    HW1  935   0.299   0.160   0.661
  125SOL    HW2  936   0.316   0.032   0.741
  126SOL     OW  937   1.618   0.376   0.369
  126SOL    HW1  938   1.646   0.311   0.433
  126SOL    HW2  939   1.593   0.452   0.422
  127SOL     OW  940   1.027   0.760   0.961
  127SOL    HW1  941   1.026   0.777   1.056
  127SOL    HW2  942   1.000   0.668   0.954
  128SOL     OW  943   0.982   1.566   1.715
  128SOL    HW1  944   0.967   1.610   1.632
  128SOL    HW2  945   1.026   1.484   1.691
  129SOL     OW  946   1.855   1.508   1.606
  129SOL    HW1  947   1.873   1.534   1.515
  129SOL    HW2  948   1.936   1.527   1.652
  130SOL     OW  949   0.353   0.916   1.806
  130SOL    HW1  950   0.434   0.937   1.853
  130SOL    HW2  951   0.379   0.853   1.740
  131SOL     OW  952   1.524   0.297   0.126
  131SOL    HW1  953   1.483   0.212   0.143
  131SOL    HW2  954   1.562   0.322   0.210
  132SOL     OW  955   1.294   0.825   0.022
  132SOL    HW1  956   1.333   0.740   0.040
  132SOL    HW2  957   1.352   0.865   8.037
  133SOL     OW  958   1.065   1.335   0.853
  133SOL    HW1  959   1.068   1.262   0.791
  133SOL    HW2  960   1.127   1.399   0.818
  134SOL     OW  961   0.315   0.811   0.950
  134SOL    HW1  962   0.409   0.828   0.945
  134SOL    HW2  963   0.309   0.721   0.981
  135SOL     OW  964   0.337   0.525   1.015
  135SOL    HW1  965   0.299   0.439   0.998
  135SOL    HW2  966   0.412   0.530   0.955
  136SOL     OW  967   1.136   0.378   1.687
  136SOL    HW1  968   1.089   0.433   1.749
  136SOL    HW2  969   1.223   0.417   1.682
  137SOL     OW  970   1.135   0.223   1.465
  137SOL    HW1  971   1.140   0.281   1.541
  137SOL    HW2  972   1.190   0.265   1.399
  138SOL     OW  973   0.008   1.331   0.203
  138SOL    HW1  974   5.230   1.323   0.147
  138SOL    HW2  975   0.014   1.247   0.248
  139SOL     OW  976   0.091   1.783   0.947
  139SOL    HW1  977   0.058   1.709   0.895
  139SOL    HW2  978   0.179   1.798   0.913
  140SOL     OW  979   0.505   1.573   0.907
  140SOL    HW1  980   0.573   1.638   0.928
  140SOL    HW2  981   0.549   1.511   0.849
  141SOL     OW  982   0.986   0.794   1.228
  141SOL    HW1  983   1.040   0.769   1.303
  141SOL    HW2  984   0.900   0.756   1.246
  142SOL     OW  985   0.036   0.562   1.117
  142SOL    HW1  986   0.118   0.531   1.079
  142SOL    HW2  987   0.040   0.534   1.209
  143SOL     OW  988   0.169   0.513   1.714
  143SOL    HW1  989   0.252   0.494   1.669
  143SOL    HW2  990   0.137   0.593   1.671
  144SOL     OW  991   1.376   0.941   1.659
  144SOL    HW1  992   1.397   1.034   1.658
  144SOL    HW2  993   1.374   0.915   1.567
  145SOL     OW  994   0.817   0.571   0.363
  145SOL    HW1  995   0.827   0.498   0.301
  145SOL    HW2  996   0.740   0.618   0.332
  146SOL     OW  997   1.643   0.601   1.188
  146SOL    HW1  998   1.631   0.541   1.262
  146SOL    HW2  999   1.730   0.581   1.154
  147SOL     OW 1000   0.257   1.556   1.736
  147SOL    HW1 1001   0.233   1.618   1.804
  147SOL    HW2 1002   0.249   1.470   1.777
  148SOL     OW 1003   0.694   0.454   1.263
  148SOL    HW1 1004   0.647   0.379   1.228
  148SOL    HW2 1005   0.696   0.518   1.191
  149SOL     OW 1006   0.930   1.679   1.467
  149SOL    HW1 1007   0.903   1.646   1.381
  149SOL    HW2 1008   0.926   1.774   1.458
  150SOL     OW 1009   0.469   0.491   0.176
  150SOL    HW1 1010   0.535   0.558   0.196
  150SOL    HW2 1011   0.385   0.534   0.195
  151SOL     OW 1012   0.149   1.138   1.471
  151SOL    HW1 1013   0.148   1.088   1.553
  151SOL    HW2 1014   0.162   1.072   1.403
  152SOL     OW 1015   1.328   1.048   1.224
  152SOL    HW1 1016   1.352   0.985   1.156
  152SOL    HW2 1017   1.256   1.099   1.186
  153SOL     OW 1018   1.306   0.849   0.308
  153SOL    HW1 1019   1.228   0.820   0.356
  153SOL    HW2 1020   1.283   0.838   0.216
  154SOL     OW 1021   1.769   1.746   1.149
  154SOL    HW1 1022   1.830   1.771   1.079
  154SOL    HW2 1023   1.746   1.656   1.128
  155SOL     OW 1024   1.242   1.733   1.115
  155SOL    HW1 1025   1.323   1.752   1.069
  155SOL    HW2 1026   1.246   1.639   1.133
  156SOL     OW 1027   0.083   1.221   1.027
  156SOL    HW1 1028   0.069   1.245   1.119
  156SOL    HW2 1029   5.295   1.208   0.992
  157SOL     OW 1030   0.678   1.665   1.726
  157SOL    HW1 1031   0.624   1.744   1.722
  157SOL    HW2 1032   0.741   1.675   1.655
  158SOL     OW 1033   0.894   0.087   0.139
  158SOL    HW1 1034   0.942   0.079   0.056
  158SOL    HW2 1035   0.915   0.006   0.186
  159SOL     OW 1036   1.714   0.147   0.506
  159SOL    HW1 1037   1.788   0.125   0.449
  159SOL    HW2 1038   1.704   0.071   0.563
  160SOL     OW 1039   1.389   1.568   0.484
  160SOL    HW1 1040   1.452   1.600   0.420
  160SOL    HW2 1041   1.343   1.647   0.513
  161SOL     OW 1042   0.143   1.798   1.843
  161SOL    HW1 1043   0.089   1.734   1.889
  161SOL    HW2 1044   0.188   1.846   1.912
  162SOL     OW 1045   1.277   0.925   0.671
  162SOL    HW1 1046   1.350   0.864   0.676
  162SOL    HW2 1047   1.310   0.998   0.619
  163SOL     OW 1048   0.817   1.272   1.431
  163SOL    HW1 1049   0.789   1.312   1.514
  163SOL    HW2 1050   0.747   1.294   1.370
  164SOL     OW 1051   0.678   1.618   0.155
  164SOL    HW1 1052   0.680   1.625   0.060
  164SOL    HW2 1053   0.617   1.546   0.172
  165SOL     OW 1054   1.630   1.726   1.392
  165SOL    HW1 1055   1.678   1.734   1.310
  165SOL    HW2 1056   1.616   1.817   1.420
  166SOL     OW 1057   1.845   0.158   0.958
  166SOL    HW1 1058   1.848   0.065   0.938
  166SOL    HW2 1059   1.758   0.186   0.931
  167SOL     OW 1060   0.271   0.328   0.719
  167SOL    HW1 1061   0.185   0.366   0.700
  167SOL    HW2 1062   0.270   0.312   0.814
  168SOL     OW 1063   1.156   1.582   0.051
  168SOL    HW1 1064   1.174   1.490   0.069
  168SOL    HW2 1065   1.165   1.591   8.036
  169SOL     OW 1066   0.824   1.006   1.372
  169SOL    HW1 1067   0.867   1.001   1.287
  169SOL    HW2 1068   0.824   1.098   1.395
  170SOL     OW 1069   0.917   0.913   0.296
  170SOL    HW1 1070   0.972   0.939   0.222
  170SOL    HW2 1071   0.964   0.841   0.338
  171SOL     OW 1072   1.511   1.625   0.060
  171SOL    HW1 1073   1.415   1.626   0.050
  171SOL    HW2 1074   1.544   1.624   8.050
  172SOL     OW 1075   0.368   1.303   1.493
  172SOL    HW1 1076   0.359   1.378   1.435
  172SOL    HW2 1077   0.292   1.248   1.474
  173SOL     OW 1078   1.611   1.283   1.281
  173SOL    HW1 1079   1.671   1.274   1.355
  173SOL    HW2 1080   1.551   1.353   1.307
  174SOL     OW 1081   1.049   1.106   0.706
  174SOL    HW1 1082   0.979   1.054   0.746
  174SOL    HW2 1083   1.111   1.041   0.672
  175SOL     OW 1084   1.020   0.242   0.967
  175SOL    HW1 1085   1.000   0.196   0.885
  175SOL    HW2 1086   1.012   0.175   1.035
  176SOL     OW 1087   0.601   1.487   0.481
  176SOL    HW1 1088   0.643   1.438   0.410
  176SOL    HW2 1089   0.535   1.541   0.437
  177SOL     OW 1090   1.722   0.387   1.378
  177SOL    HW1 1091   1.792   0.453   1.378
  177SOL    HW2 1092   1.754   0.318   1.321
  178SOL     OW 1093   0.267   1.327   0.299
  178SOL    HW1 1094   0.181   1.338   0.258
  178SOL    HW2 1095   0.260   1.373   0.382
  179SOL     OW 1096   0.115   1.016   1.719
  179SOL    HW1 1097   0.043   0.981   1.772
  179SOL    HW2 1098   0.194   0.985   1.762
  180SOL     OW 1099   0.673   0.212   1.487
  180SOL    HW1 1100   0.757   0.194   1.444
  180SOL    HW2 1101   0.696   0.257   1.568
  181SOL     OW 1102   0.087   0.354   0.012
  181SOL    HW1 1103   0.000   0.320   0.033
  181SOL    HW2 1104   0.071   0.435   8.045
  182SOL     OW 1105   1.431   0.858   1.401
  182SOL    HW1 1106   1.383   0.919   1.345
  182SOL    HW2 1107   1.521   0.861   1.368
  183SOL     OW 1108   0.078   0.140   0.293
  183SOL    HW1 1109   0.076   0.235   0.280
  183SOL    HW2 1110   0.167   0.114   0.267
  184SOL     OW 1111   1.185   1.320   0.122
  184SOL    HW1 1112   1.090   1.309   0.122
  184SOL    HW2 1113   1.209   1.323   0.214
  185SOL     OW 1114   0.619   0.831   1.434
  185SOL    HW1 1115   0.674   0.908   1.419
  185SOL    HW2 1116   0.681   0.758   1.442
  186SOL     OW 1117   1.484   1.775   0.976
  186SOL    HW1 1118   1.510   1.833   0.905
  186SOL    HW2 1119   1.566   1.758   1.024
  187SOL     OW 1120   0.714   0.572   1.705
  187SOL    HW1 1121   0.754   0.636   1.763
  187SOL    HW2 1122   0.749   0.488   1.734
  188SOL     OW 1123   1.470   1.202   1.633
  188SOL    HW1 1124   1.458   1.215   1.727
  188SOL    HW2 1125   1.564   1.215   1.618
  189SOL     OW 1126   0.380   1.741   1.564
  189SOL    HW1 1127   0.297   1.787   1.549
  189SOL    HW2 1128   0.356   1.660   1.608
  190SOL     OW 1129   1.671   0.882   1.255
  190SOL    HW1 1130   1.663   0.796   1.213
  190SOL    HW2 1131   1.662   0.945   1.184
  191SOL     OW 1132   1.217   0.328   0.473
  191SOL    HW1 1133   1.275   0.254   0.457
  191SOL    HW2 1134   1.256   0.374   0.548
  192SOL     OW 1135   0.590   0.739   0.668
  192SOL    HW1 1136   0.629   0.824   0.652
  192SOL    HW2 1137   0.519   0.733   0.604
  193SOL     OW 1138   1.767   0.361   1.648
  193SOL    HW1 1139   1.747   0.375   1.556
  193SOL    HW2 1140   1.696   0.305   1.680
  194SOL     OW 1141   1.744   0.934   1.513
  194SOL    HW1 1142   1.744   1.028   1.525
  194SOL    HW2 1143   1.729   0.922   1.419
  195SOL     OW 1144   0.891   1.373   0.032
  195SOL    HW1 1145   0.827   1.366   0.103
  195SOL    HW2 1146   0.880   1.462   8.078
  196SOL     OW 1147   0.662   1.795   0.946
  196SOL    HW1 1148   0.640   1.885   0.922
  196SOL    HW2 1149   0.757   1.790   0.939
  197SOL     OW 1150   0.866   0.965   0.855
  197SOL    HW1 1151   0.917   0.895   0.895
  197SOL    HW2 1152   0.833   1.016   0.929
  198SOL     OW 1153   1.076   0.978   0.085
  198SOL    HW1 1154   1.067   1.041   0.013
  198SOL    HW2 1155   1.155   0.928   0.063
  199SOL     OW 1156   1.855   1.556   0.845
  199SOL    HW1 1157   1.778   1.544   0.790
  199SOL    HW2 1158   1.847   1.488   0.912
  200SOL     OW 1159   0.224   1.306   1.859
  200SOL    HW1 1160   0.156   1.243   1.833
  200SOL    HW2 1161   0.213   1.316   1.953
  201SOL     OW 1162   0.091   1.232   0.658
  201SOL    HW1 1163   0.096   1.189   0.743
  201SOL    HW2 1164   0.169   1.202   0.612
  202SOL     OW 1165   0.680   1.401   1.627
  202SOL    HW1 1166   0.600   1.358   1.657
  202SOL    HW2 1167   0.675   1.489   1.663
  203SOL     OW 1168   1.817   0.179   1.234
  203SOL    HW1 1169   1.786   0.089   1.243
  203SOL    HW2 1170   1.831   0.190   1.140
  204SOL     OW 1171   0.430   0.438   0.521
  204SOL    HW1 1172   0.464   0.365   0.470
  204SOL    HW2 1173   0.386   0.397   0.596
  205SOL     OW 1174   1.701   1.491   1.099
  205SOL    HW1 1175   1.620   1.466   1.054
  205SOL    HW2 1176   1.715   1.422   1.164
  206SOL     OW 1177   0.334   0.558   1.288
  206SOL    HW1 1178   0.391   0.501   1.340
  206SOL    HW2 1179   0.349   0.532   1.198
  207SOL     OW 1180   0.827   1.577   0.679
  207SOL    HW1 1181   0.817   1.627   0.598
  207SOL    HW2 1182   0.749   1.522   0.682
  208SOL     OW 1183   1.428   0.218   1.117
  208SOL    HW1 1184   1.465   0.143   1.164
  208SOL    HW2 1185   1.380   0.267   1.183
  209SOL     OW 1186   1.001   0.022   1.143
  209SOL    HW1 1187   0.951   5.253   1.100
  209SOL    HW2 1188   1.089   5.285   1.155
  210SOL     OW 1189   0.770   1.327   0.307
  210SOL    HW1 1190   0.738   1.238   0.321
  210SOL    HW2 1191   0.852   1.331   0.356
  211SOL     OW 1192   0.622   1.557   1.286
  211SOL    HW1 1193   0.624   1.639   1.336
  211SOL    HW2 1194   0.709   1.551   1.246
  212SOL     OW 1195   1.391   0.040   0.171
  212SOL    HW1 1196   1.387   0.026   0.076
  212SOL    HW2 1197   1.302   0.064   0.196
  213SOL     OW 1198   1.307   0.467   0.690
  213SOL    HW1 1199   1.248   0.541   0.693
  213SOL    HW2 1200   1.297   0.424   0.775
  214SOL     OW 1201   1.595   0.216   0.882
  214SOL    HW1 1202   1.526   0.227   0.947
  214SOL    HW2 1203   1.587   0.294   0.827
  215SOL     OW 1204   0.044   1.076   0.309
  215SOL    HW1 1205   0.134   1.050   0.290
  215SOL    HW2 1206   5.298   0.993   0.322
  216SOL     OW 1207   0.882   1.651   0.347
  216SOL    HW1 1208   0.814   1.634   0.282
  216SOL    HW2 1209   0.851   1.727   0.396
  217SOL     OW 1210   0.233   0.634   1.978
  217SOL    HW1 1211   0.155   0.609   2.028
  217SOL    HW2 1212   0.217   0.599   1.890
  218SOL     OW 1213   0.232   0.280   2.852
  218SOL    HW1 1214   0.252   0.245   2.939
  218SOL    HW2 1215   0.152   0.235   2.825
  219SOL     OW 1216   0.001   0.405   2.524
  219SOL    HW1 1217   5.207   0.426   2.530
  219SOL    HW2 1218   0.003   0.315   2.494
  220SOL     OW 1219   0.572   1.281   3.040
  220SOL    HW1 1220   0.489   1.290   2.994
  220SOL    HW2 1221   0.589   1.368   3.076
  221SOL     OW 1222   1.559   1.511   2.568
  221SOL    HW1 1223   1.515   1.493   2.651
  221SOL    HW2 1224   1.488   1.516   2.504
  222SOL     OW 1225   1.130   0.698   2.565
  222SOL    HW1 1226   1.180   0.779   2.550
  222SOL    HW2 1227   1.083   0.714   2.647
  223SOL     OW 1228   1.765   0.607   2.092
  223SOL    HW1 1229   1.746   0.598   1.998
  223SOL    HW2 1230   1.731   0.527   2.131
  224SOL     OW 1231   0.758   1.143   2.899
  224SOL    HW1 1232   0.689   1.176   2.958
  224SOL    HW2 1233   0.792   1.221   2.856
  225SOL     OW 1234   0.861   0.781   3.683
  225SOL    HW1 1235   0.855   0.853   3.746
  225SOL    HW2 1236   0.887   0.823   3.601
  226SOL     OW 1237   0.686   1.005   2.510
  226SOL    HW1 1238   0.751   0.991   2.579
  226SOL    HW2 1239   0.617   1.057   2.552
  227SOL     OW 1240   0.708   1.151   3.673
  227SOL    HW1 1241   0.756   1.230   3.698
  227SOL    HW2 1242   0.625   1.184   3.638
  228SOL     OW 1243   0.358   1.406   2.921
  228SOL    HW1 1244   0.270   1.405   2.883
  228SOL    HW2 1245   0.406   1.469   2.868
  229SOL     OW 1246   1.461   1.499   3.214
  229SOL    HW1 1247   1.509   1.581   3.223
  229SOL    HW2 1248   1.404   1.495   3.290
  230SOL     OW 1249   0.447   0.400   3.356
  230SOL    HW1 1250   0.526   0.346   3.348
  230SOL    HW2 1251   0.375   0.337   3.361
  231SOL     OW 1252   1.611   0.452   2.599
  231SOL    HW1 1253   1.536   0.477   2.547
  231SOL    HW2 1254   1.632   0.529   2.651
  232SOL     OW 1255   0.229   1.715   2.339
  232SOL    HW1 1256   0.265   1.782   2.397
  232SOL    HW2 1257   0.290   1.710   2.266
  233SOL     OW 1258   1.136   1.341   3.554
  233SOL    HW1 1259   1.177   1.337   3.640
  233SOL    HW2 1260   1.084   1.261   3.548
  234SOL     OW 1261   0.223   1.443   2.400
  234SOL    HW1 1262   0.213   1.538   2.400
  234SOL    HW2 1263   0.153   1.412   2.459
  235SOL     OW 1264   0.248   1.079   2.739
  235SOL    HW1 1265   0.259   0.994   2.782
  235SOL    HW2 1266   0.197   1.131   2.800
  236SOL     OW 1267   0.616   1.790   3.295
  236SOL    HW1 1268   0.531   1.773   3.337
  236SOL    HW2 1269   0.636   1.881   3.317
  237SOL     OW 1270   0.585   0.982   1.996
  237SOL    HW1 1271   0.630   1.031   1.927
  237SOL    HW2 1272   0.628   1.010   2.077
  238SOL     OW 1273   1.586   0.133   3.320
  238SOL    HW1 1274   1.604   0.218   3.280
  238SOL    HW2 1275   1.586   0.151   3.414
  239SOL     OW 1276   0.124   0.637   2.438
  239SOL    HW1 1277   0.089   0.554   2.470
  239SOL    HW2 1278   0.098   0.701   2.505
  240SOL     OW 1279   1.842   1.760   2.199
  240SOL    HW1 1280   1.904   1.731   2.265
  240SOL    HW2 1281   1.868   1.850   2.179
  241SOL     OW 1282   0.037   1.598   1.992
  241SOL    HW1 1283   0.024   1.507   2.017
  241SOL    HW2 1284   5.284   1.648   2.054
  242SOL     OW 1285   1.689   0.919   2.501
  242SOL    HW1 1286   1.774   0.878   2.482
  242SOL    HW2 1287   1.668   0.969   2.422
  243SOL     OW 1288   1.645   1.108   2.292
  243SOL    HW1 1289   1.731   1.115   2.249
  243SOL    HW2 1290   1.650   1.168   2.365
  244SOL     OW 1291   0.128   0.748   3.450
  244SOL    HW1 1292   0.223   0.763   3.454
  244SOL    HW2 1293   0.090   0.835   3.462
  245SOL     OW 1294   0.614   1.383   2.597
  245SOL    HW1 1295   0.567   1.301   2.607
  245SOL    HW2 1296   0.597   1.410   2.507
  246SOL     OW 1297   1.289   1.238   3.286
  246SOL    HW1 1298   1.322   1.171   3.226
  246SOL    HW2 1299   1.346   1.231   3.363
  247SOL     OW 1300   0.812   0.024   2.386
  247SOL    HW1 1301   0.840   0.112   2.364
  247SOL    HW2 1302   0.717   0.026   2.379
  248SOL     OW 1303   0.179   0.949   3.139
  248SOL    HW1 1304   0.269   0.920   3.128
  248SOL    HW2 1305   0.134   0.920   3.060
  249SOL     OW 1306   1.532   0.992   2.059
  249SOL    HW1 1307   1.462   0.935   2.090
  249SOL    HW2 1308   1.572   1.026   2.139
  250SOL     OW 1309   1.185   1.805   3.483
  250SOL    HW1 1310   1.198   1.863   3.408
  250SOL    HW2 1311   1.201   1.717   3.448
  251SOL     OW 1312   0.325   0.273   3.659
  251SOL    HW1 1313   0.385   0.336   3.698
  251SOL    HW2 1314   0.244   0.281   3.710
  252SOL     OW 1315   1.466   1.420   2.814
  252SOL    HW1 1316   1.398   1.434   2.880
  252SOL    HW2 1317   1.454   1.329   2.787
  253SOL     OW 1318   1.660   1.736   2.440
  253SOL    HW1 1319   1.639   1.707   2.351
  253SOL    HW2 1320   1.634   1.662   2.496
  254SOL     OW 1321   0.595   0.722   2.126
  254SOL    HW1 1322   0.604   0.802   2.075
  254SOL    HW2 1323   0.530   0.744   2.194
  255SOL     OW 1324   1.279   0.344   2.792
  255SOL    HW1 1325   1.188   0.316   2.805
  255SOL    HW2 1326   1.328   0.295   2.858
  256SOL     OW 1327   1.581   1.669   2.171
  256SOL    HW1 1328   1.671   1.702   2.165
  256SOL    HW2 1329   1.555   1.652   2.080
  257SOL     OW 1330   0.794   0.617   3.314
  257SOL    HW1 1331   0.766   0.596   3.403
  257SOL    HW2 1332   0.750   0.552   3.259
  258SOL     OW 1333   1.395   0.475   3.540
  258SOL    HW1 1334   1.396   0.519   3.625
  258SOL    HW2 1335   1.459   0.404   3.549
  259SOL     OW 1336   0.956   0.888   3.443
  259SOL    HW1 1337   1.011   0.817   3.409
  259SOL    HW2 1338   0.909   0.921   3.367
  260SOL     OW 1339   0.994   0.416   3.098
  260SOL    HW1 1340   0.910   0.439   3.139
  260SOL    HW2 1341   0.970   0.367   3.020
  261SOL     OW 1342   1.050   0.699   2.289
  261SOL    HW1 1343   1.065   0.691   2.383
  261SOL    HW2 1344   0.968   0.652   2.274
  262SOL     OW 1345   0.072   0.787   2.675
  262SOL    HW1 1346   0.156   0.793   2.722
  262SOL    HW2 1347   0.060   0.875   2.638
  263SOL     OW 1348   0.132   1.880   3.445
  263SOL    HW1 1349   0.133   1.847   3.536
  263SOL    HW2 1350   0.057   1.837   3.405
  264SOL     OW 1351   0.870   0.361   2.050
  264SOL    HW1 1352   0.917   0.421   1.992
  264SOL    HW2 1353   0.919   0.279   2.046
  265SOL     OW 1354   1.709   0.576   3.690
  265SOL    HW1 1355   1.672   0.651   3.643
  265SOL    HW2 1356   1.736   0.516   3.621
  266SOL     OW 1357   1.375   1.142   2.404
  266SOL    HW1 1358   1.454   1.129   2.351
  266SOL    HW2 1359   1.323   1.204   2.353
  267SOL     OW 1360   0.538   0.201   2.746
  267SOL    HW1 1361   0.554   0.218   2.839
  267SOL    HW2 1362   0.550   0.285   2.703
  268SOL     OW 1363   1.007   1.444   2.335
  268SOL    HW1 1364   0.968   1.517   2.286
  268SOL    HW2 1365   0.992   1.467   2.427
  269SOL     OW 1366   0.356   1.801   2.730
  269SOL    HW1 1367   0.397   1.716   2.743
  269SOL    HW2 1368   0.423   1.865   2.756
  270SOL     OW 1369   1.798   1.058   2.730
  270SOL    HW1 1370   1.743   1.042   2.653
  270SOL    HW2 1371   1.738   1.064   2.803
  271SOL     OW 1372   1.228   1.539   3.375
  271SOL    HW1 1373   1.214   1.466   3.435
  271SOL    HW2 1374   1.166   1.524   3.303
  272SOL     OW 1375   0.317   0.952   2.108
  272SOL    HW1 1376   0.399   0.976   2.065
  272SOL    HW2 1377   0.295   0.867   2.071
  273SOL     OW 1378   1.477   0.741   2.590
  273SOL    HW1 1379   1.467   0.696   2.674
  273SOL    HW2 1380   1.554   0.796   2.601
  274SOL     OW 1381   0.464   1.262   3.599
  274SOL    HW1 1382   0.437   1.269   3.508
  274SOL    HW2 1383   0.382   1.264   3.649
  275SOL     OW 1384   1.121   1.777   2.094
  275SOL    HW1 1385   1.049   1.734   2.140
  275SOL    HW2 1386   1.143   1.717   2.023
  276SOL     OW 1387   0.198   0.278   3.354
  276SOL    HW1 1388   0.155   0.364   3.352
  276SOL    HW2 1389   0.205   0.257   3.447
  277SOL     OW 1390   1.629   1.379   1.949
  277SOL    HW1 1391   1.588   1.464   1.934
  277SOL    HW2 1392   1.560   1.316   1.930
  278SOL     OW 1393   0.471   1.735   2.183
  278SOL    HW1 1394   0.512   1.793   2.246
  278SOL    HW2 1395   0.543   1.707   2.126
  279SOL     OW 1396   1.406   0.099   2.293
  279SOL    HW1 1397   1.397   0.082   2.199
  279SOL    HW2 1398   1.498   0.122   2.304
  280SOL     OW 1399   0.274   1.801   3.079
  280SOL    HW1 1400   0.307   1.725   3.128
  280SOL    HW2 1401   0.226   1.763   3.005
  281SOL     OW 1402   0.939   1.698   2.762
  281SOL    HW1 1403   1.016   1.646   2.782
  281SOL    HW2 1404   0.893   1.649   2.693
  282SOL     OW 1405   0.385   0.696   2.341
  282SOL    HW1 1406   0.415   0.605   2.349
  282SOL    HW2 1407   0.292   0.692   2.363
  283SOL     OW 1408   1.541   0.228   3.586
  283SOL    HW1 1409   1.547   0.246   3.680
  283SOL    HW2 1410   1.466   0.168   3.579
  284SOL     OW 1411   0.621   0.133   1.969
  284SOL    HW1 1412   0.691   0.072   1.992
  284SOL    HW2 1413   0.575   0.091   1.897
  285SOL     OW 1414   0.784   0.313   3.628
  285SOL    HW1 1415   0.841   0.236   3.629
  285SOL    HW2 1416   0.734   0.307   3.709
  286SOL     OW 1417   0.877   1.521   3.055
  286SOL    HW1 1418   0.862   1.485   2.968
  286SOL    HW2 1419   0.947   1.466   3.092
  287SOL     OW 1420   1.341   0.589   3.294
  287SOL    HW1 1421   1.372   0.557   3.379
  287SOL    HW2 1422   1.377   0.677   3.287
  288SOL     OW 1423   0.814   1.396   2.799
  288SOL    HW1 1424   0.898   1.386   2.755
  288SOL    HW2 1425   0.749   1.396   2.729
  289SOL     OW 1426   0.927   0.510   2.766
  289SOL    HW1 1427   0.904   0.502   2.673
  289SOL    HW2 1428   0.959   0.423   2.790
  290SOL     OW 1429   0.547   0.059   2.367
  290SOL    HW1 1430   0.468   0.060   2.420
  290SOL    HW2 1431   0.536   0.132   2.306
  291SOL     OW 1432   1.428   1.198   1.903
  291SOL    HW1 1433   1.459   1.122   1.953
  291SOL    HW2 1434   1.343   1.218   1.941
  292SOL     OW 1435   0.312   0.061   2.046
  292SOL    HW1 1436   0.378   0.127   2.022
  292SOL    HW2 1437   0.363   5.282   2.064
  293SOL     OW 1438   0.939   0.259   2.325
  293SOL    HW1 1439   0.910   0.298   2.242
  293SOL    HW2 1440   1.034   0.271   2.325
  294SOL     OW 1441   1.080   0.680   3.322
  294SOL    HW1 1442   1.011   0.614   3.327
  294SOL    HW2 1443   1.161   0.629   3.315
  295SOL     OW 1444   1.224   1.569   2.655
  295SOL    HW1 1445   1.241   1.637   2.590
  295SOL    HW2 1446   1.292   1.582   2.722
  296SOL     OW 1447   0.466   1.149   2.596
  296SOL    HW1 1448   0.397   1.130   2.658
  296SOL    HW2 1449   0.427   1.131   2.510
  297SOL     OW 1450   1.270   1.795   2.469
  297SOL    HW1 1451   1.315   1.856   2.410
  297SOL    HW2 1452   1.204   1.848   2.513
  298SOL     OW 1453   1.027   0.548   1.883
  298SOL    HW1 1454   0.985   0.631   1.864
  298SOL    HW2 1455   1.090   0.568   1.952
  299SOL     OW 1456   0.095   0.534   3.271
  299SOL    HW1 1457   0.176   0.551   3.224
  299SOL    HW2 1458   0.076   0.615   3.318
  300SOL     OW 1459   0.560   0.238   3.019
  300SOL    HW1 1460   0.591   0.151   3.045
  300SOL    HW2 1461   0.468   0.240   3.044
  301SOL     OW 1462   0.868   0.462   2.503
  301SOL    HW1 1463   0.822   0.515   2.438
  301SOL    HW2 1464   0.890   0.381   2.457
  302SOL     OW 1465   0.980   0.060   2.623
  302SOL    HW1 1466   0.914   0.054   2.554
  302SOL    HW2 1467   0.987   5.271   2.658
  303SOL     OW 1468   1.436   1.163   2.720
  303SOL    HW1 1469   1.368   1.096   2.718
  303SOL    HW2 1470   1.460   1.176   2.628
  304SOL     OW 1471   1.467   0.604   2.842
  304SOL    HW1 1472   1.419   0.521   2.846
  304SOL    HW2 1473   1.528   0.600   2.915
  305SOL     OW 1474   1.846   0.818   2.244
  305SOL    HW1 1475   1.902   0.766   2.302
  305SOL    HW2 1476   1.817   0.756   2.177
  306SOL     OW 1477   0.492   1.415   2.022
  306SOL    HW1 1478   0.417   1.387   2.074
  306SOL    HW2 1479   0.473   1.386   1.933
  307SOL     OW 1480   1.669   1.265   2.510
  307SOL    HW1 1481   1.764   1.269   2.522
  307SOL    HW2 1482   1.638   1.353   2.531
  308SOL     OW 1483   1.394   0.572   1.933
  308SOL    HW1 1484   1.333   0.553   2.005
  308SOL    HW2 1485   1.479   0.540   1.964
  309SOL     OW 1486   0.523   0.264   2.183
  309SOL    HW1 1487   0.568   0.215   2.114
  309SOL    HW2 1488   0.505   0.350   2.144
  310SOL     OW 1489   1.753   1.237   3.438
  310SOL    HW1 1490   1.841   1.199   3.434
  310SOL    HW2 1491   1.768   1.327   3.466
  311SOL     OW 1492   1.060   1.353   3.196
  311SOL    HW1 1493   0.985   1.322   3.247
  311SOL    HW2 1494   1.136   1.312   3.237
  312SOL     OW 1495   1.606   1.625   3.514
  312SOL    HW1 1496   1.603   1.659   3.425
  312SOL    HW2 1497   1.690   1.578   3.518
  313SOL     OW 1498   1.126   1.201   2.968
  313SOL    HW1 1499   1.068   1.240   3.034
  313SOL    HW2 1500   1.093   1.234   2.885
  314SOL     OW 1501   1.630   1.099   2.940
  314SOL    HW1 1502   1.626   1.161   3.013
  314SOL    HW2 1503   1.550   1.115   2.890
  315SOL     OW 1504   0.906   0.106   3.254
  315SOL    HW1 1505   0.936   0.072   3.170
  315SOL    HW2 1506   0.983   0.148   3.292
  316SOL     OW 1507   0.984   1.114   3.584
  316SOL    HW1 1508   0.892   1.130   3.603
  316SOL    HW2 1509   0.984   1.037   3.528
  317SOL     OW 1510   0.707   1.059   2.235
  317SOL    HW1 1511   0.696   1.045   2.329
  317SOL    HW2 1512   0.784   1.007   2.211
  318SOL     OW 1513   0.420   0.818   3.114
  318SOL    HW1 1514   0.489   0.824   3.179
  318SOL    HW2 1515   0.385   0.730   3.125
  319SOL     OW 1516   1.268   0.380   3.133
  319SOL    HW1 1517   1.300   0.456   3.180
  319SOL    HW2 1518   1.178   0.402   3.110
  320SOL     OW 1519   0.100   1.622   3.230
  320SOL    HW1 1520   0.077   1.634   3.138
  320SOL    HW2 1521   0.186   1.581   3.228
  321SOL     OW 1522   0.345   1.104   2.351
  321SOL    HW1 1523   0.355   1.183   2.298
  321SOL    HW2 1524   0.357   1.032   2.289
  322SOL     OW 1525   0.556   0.538   2.722
  322SOL    HW1 1526   0.572   0.596   2.648
  322SOL    HW2 1527   0.620   0.566   2.788
  323SOL     OW 1528   1.248   1.348   2.251
  323SOL    HW1 1529   1.303   1.420   2.282
  323SOL    HW2 1530   1.161   1.369   2.285
  324SOL     OW 1531   1.279   1.456   3.008
  324SOL    HW1 1532   1.334   1.459   3.086
  324SOL    HW2 1533   1.223   1.379   3.021
  325SOL     OW 1534   1.583   0.624   2.339
  325SOL    HW1 1535   1.538   0.680   2.403
  325SOL    HW2 1536   1.628   0.685   2.281
  326SOL     OW 1537   0.351   1.519   3.174
  326SOL    HW1 1538   0.342   1.475   3.089
  326SOL    HW2 1539   0.445   1.537   3.181
  327SOL     OW 1540   0.413   0.741   3.464
  327SOL    HW1 1541   0.471   0.790   3.406
  327SOL    HW2 1542   0.459   0.659   3.480
  328SOL     OW 1543   1.599   0.778   3.542
  328SOL    HW1 1544   1.513   0.819   3.535
  328SOL    HW2 1545   1.651   0.820   3.474
  329SOL     OW 1546   1.039   0.115   3.643
  329SOL    HW1 1547   1.064   0.194   3.595
  329SOL    HW2 1548   1.049   0.044   3.578
  330SOL     OW 1549   0.483   0.058   3.601
  330SOL    HW1 1550   0.430   5.290   3.559
  330SOL    HW2 1551   0.421   0.129   3.619
  331SOL     OW 1552   0.585   0.873   2.894
  331SOL    HW1 1553   0.616   0.964   2.891
  331SOL    HW2 1554   0.528   0.869   2.971
  332SOL     OW 1555   1.360   0.859   2.894
  332SOL    HW1 1556   1.278   0.851   2.845
  332SOL    HW2 1557   1.398   0.771   2.890
  333SOL     OW 1558   1.207   0.529   2.131
  333SOL    HW1 1559   1.211   0.448   2.181
  333SOL    HW2 1560   1.165   0.592   2.189
  334SOL     OW 1561   0.304   0.207   3.106
  334SOL    HW1 1562   0.266   0.237   3.188
  334SOL    HW2 1563   0.296   0.112   3.110
  335SOL     OW 1564   0.071   1.319   3.143
  335SOL    HW1 1565   0.090   1.259   3.215
  335SOL    HW2 1566   0.005   1.379   3.179
  336SOL     OW 1567   0.727   0.633   2.923
  336SOL    HW1 1568   0.799   0.614   2.863
  336SOL    HW2 1569   0.699   0.721   2.900
  337SOL     OW 1570   1.734   0.959   3.713
  337SOL    HW1 1571   1.686   0.901   3.654
  337SOL    HW2 1572   1.674   0.971   3.787
  338SOL     OW 1573   0.317   0.068   2.513
  338SOL    HW1 1574   0.299   0.161   2.524
  338SOL    HW2 1575   0.317   0.032   2.602
  339SOL     OW 1576   1.610   0.373   2.229
  339SOL    HW1 1577   1.644   0.310   2.293
  339SOL    HW2 1578   1.591   0.451   2.280
  340SOL     OW 1579   1.027   0.760   2.823
  340SOL    HW1 1580   1.026   0.777   2.917
  340SOL    HW2 1581   1.000   0.668   2.816
  341SOL     OW 1582   0.982   1.566   3.577
  341SOL    HW1 1583   0.967   1.610   3.494
  341SOL    HW2 1584   1.026   1.484   3.553
  342SOL     OW 1585   1.856   1.508   3.467
  342SOL    HW1 1586   1.872   1.534   3.377
  342SOL    HW2 1587   1.937   1.528   3.514
  343SOL     OW 1588   0.353   0.916   3.668
  343SOL    HW1 1589   0.434   0.937   3.715
  343SOL    HW2 1590   0.379   0.853   3.602
  344SOL     OW 1591   1.528   0.273   1.988
  344SOL    HW1 1592   1.464   0.208   2.019
  344SOL    HW2 1593   1.563   0.311   2.069
  345SOL     OW 1594   1.293   0.827   1.894
  345SOL    HW1 1595   1.335   0.741   1.898
  345SOL    HW2 1596   1.324   0.866   1.813
  346SOL     OW 1597   1.065   1.335   2.715
  346SOL    HW1 1598   1.068   1.262   2.653
  346SOL    HW2 1599   1.128   1.399   2.681
  347SOL     OW 1600   0.315   0.811   2.812
  347SOL    HW1 1601   0.409   0.829   2.808
  347SOL    HW2 1602   0.309   0.721   2.844
  348SOL     OW 1603   0.337   0.525   2.876
  348SOL    HW1 1604   0.299   0.439   2.860
  348SOL    HW2 1605   0.412   0.530   2.817
  349SOL     OW 1606   1.136   0.378   3.549
  349SOL    HW1 1607   1.089   0.433   3.611
  349SOL    HW2 1608   1.223   0.417   3.544
  350SOL     OW 1609   1.135   0.223   3.327
  350SOL    HW1 1610   1.140   0.281   3.403
  350SOL    HW2 1611   1.190   0.265   3.261
  351SOL     OW 1612   0.001   1.331   2.072
  351SOL    HW1 1613   5.225   1.323   2.015
  351SOL    HW2 1614   0.012   1.244   2.111
  352SOL     OW 1615   0.091   1.782   2.811
  352SOL    HW1 1616   0.058   1.710   2.757
  352SOL    HW2 1617   0.179   1.799   2.776
  353SOL     OW 1618   0.505   1.573   2.769
  353SOL    HW1 1619   0.573   1.638   2.789
  353SOL    HW2 1620   0.549   1.511   2.711
  354SOL     OW 1621   0.986   0.794   3.090
  354SOL    HW1 1622   1.040   0.769   3.165
  354SOL    HW2 1623   0.900   0.757   3.109
  355SOL     OW 1624   0.036   0.562   2.978
  355SOL    HW1 1625   0.119   0.532   2.942
  355SOL    HW2 1626   0.039   0.535   3.070
  356SOL     OW 1627   0.169   0.513   3.575
  356SOL    HW1 1628   0.252   0.494   3.532
  356SOL    HW2 1629   0.137   0.593   3.533
  357SOL     OW 1630   1.376   0.941   3.521
  357SOL    HW1 1631   1.397   1.034   3.520
  357SOL    HW2 1632   1.374   0.916   3.429
  358SOL     OW 1633   0.814   0.571   2.221
  358SOL    HW1 1634   0.818   0.496   2.161
  358SOL    HW2 1635   0.740   0.623   2.190
  359SOL     OW 1636   1.643   0.601   3.050
  359SOL    HW1 1637   1.631   0.542   3.124
  359SOL    HW2 1638   1.730   0.581   3.015
  360SOL     OW 1639   0.257   1.556   3.598
  360SOL    HW1 1640   0.233   1.619   3.666
  360SOL    HW2 1641   0.249   1.470   3.639
  361SOL     OW 1642   0.694   0.454   3.125
  361SOL    HW1 1643   0.646   0.379   3.089
  361SOL    HW2 1644   0.696   0.517   3.053
  362SOL     OW 1645   0.930   1.679   3.329
  362SOL    HW1 1646   0.903   1.647   3.243
  362SOL    HW2 1647   0.927   1.774   3.321
  363SOL     OW 1648   0.465   0.493   2.044
  363SOL    HW1 1649   0.527   0.563   2.066
  363SOL    HW2 1650   0.380   0.537   2.039
  364SOL     OW 1651   0.149   1.138   3.333
  364SOL    HW1 1652   0.148   1.088   3.415
  364SOL    HW2 1653   0.162   1.072   3.265
  365SOL     OW 1654   1.328   1.048   3.086
  365SOL    HW1 1655   1.352   0.985   3.018
  365SOL    HW2 1656   1.256   1.099   3.048
  366SOL     OW 1657   1.309   0.857   2.169
  366SOL    HW1 1658   1.233   0.826   2.218
  366SOL    HW2 1659   1.286   0.843   2.077
  367SOL     OW 1660   1.766   1.747   3.008
  367SOL    HW1 1661   1.830   1.771   2.942
  367SOL    HW2 1662   1.745   1.655   2.989
  368SOL     OW 1663   1.242   1.733   2.977
  368SOL    HW1 1664   1.323   1.752   2.931
  368SOL    HW2 1665   1.246   1.639   2.995
  369SOL     OW 1666   0.083   1.220   2.889
  369SOL    HW1 1667   0.069   1.245   2.981
  369SOL    HW2 1668   5.295   1.208   2.854
  370SOL     OW 1669   0.678   1.665   3.588
  370SOL    HW1 1670   0.624   1.744   3.584
  370SOL    HW2 1671   0.741   1.675   3.517
  371SOL     OW 1672   1.713   0.146   2.366
  371SOL    HW1 1673   1.789   0.126   2.312
  371SOL    HW2 1674   1.705   0.071   2.425
  372SOL     OW 1675   1.390   1.568   2.345
  372SOL    HW1 1676   1.451   1.599   2.278
  372SOL    HW2 1677   1.342   1.646   2.373
  373SOL     OW 1678   0.143   1.798   3.705
  373SOL    HW1 1679   0.089   1.734   3.751
  373SOL    HW2 1680   0.188   1.846   3.774
  374SOL     OW 1681   1.277   0.925   2.533
  374SOL    HW1 1682   1.350   0.864   2.539
  374SOL    HW2 1683   1.310   0.998   2.481
  375SOL     OW 1684   0.817   1.272   3.293
  375SOL    HW1 1685   0.789   1.312   3.376
  375SOL    HW2 1686   0.747   1.294   3.232
  376SOL     OW 1687   0.673   1.618   2.017
  376SOL    HW1 1688   0.682   1.629   1.923
  376SOL    HW2 1689   0.618   1.539   2.026
  377SOL     OW 1690   1.629   1.726   3.253
  377SOL    HW1 1691   1.678   1.734   3.171
  377SOL    HW2 1692   1.616   1.817   3.282
  378SOL     OW 1693   1.845   0.159   2.820
  378SOL    HW1 1694   1.848   0.065   2.801
  378SOL    HW2 1695   1.757   0.186   2.793
  379SOL     OW 1696   0.270   0.328   2.581
  379SOL    HW1 1697   0.184   0.366   2.563
  379SOL    HW2 1698   0.270   0.312   2.675
  380SOL     OW 1699   1.206   1.607   1.893
  380SOL    HW1 1700   1.198   1.516   1.920
  380SOL    HW2 1701   1.141   1.618   1.824
  381SOL     OW 1702   0.824   1.006   3.234
  381SOL    HW1 1703   0.868   1.002   3.149
  381SOL    HW2 1704   0.824   1.098   3.257
  382SOL     OW 1705   0.915   0.910   2.152
  382SOL    HW1 1706   0.976   0.942   2.085
  382SOL    HW2 1707   0.962   0.840   2.197
  383SOL     OW 1708   1.493   1.624   1.904
  383SOL    HW1 1709   1.399   1.620   1.891
  383SOL    HW2 1710   1.529   1.631   1.816
  384SOL     OW 1711   0.368   1.303   3.355
  384SOL    HW1 1712   0.359   1.378   3.297
  384SOL    HW2 1713   0.292   1.248   3.335
  385SOL     OW 1714   1.611   1.283   3.143
  385SOL    HW1 1715   1.671   1.274   3.216
  385SOL    HW2 1716   1.551   1.353   3.169
  386SOL     OW 1717   1.049   1.106   2.567
  386SOL    HW1 1718   0.979   1.054   2.607
  386SOL    HW2 1719   1.111   1.041   2.534
  387SOL     OW 1720   1.020   0.242   2.829
  387SOL    HW1 1721   1.000   0.196   2.747
  387SOL    HW2 1722   1.012   0.175   2.897
  388SOL     OW 1723   0.600   1.487   2.344
  388SOL    HW1 1724   0.644   1.439   2.274
  388SOL    HW2 1725   0.536   1.542   2.299
  389SOL     OW 1726   1.722   0.387   3.240
  389SOL    HW1 1727   1.792   0.453   3.240
  389SOL    HW2 1728   1.755   0.318   3.183
  390SOL     OW 1729   0.259   1.348   2.153
  390SOL    HW1 1730   0.166   1.351   2.131
  390SOL    HW2 1731   0.264   1.385   2.241
  391SOL     OW 1732   0.115   1.015   3.580
  391SOL    HW1 1733   0.043   0.982   3.634
  391SOL    HW2 1734   0.194   0.984   3.624
  392SOL     OW 1735   0.673   0.212   3.349
  392SOL    HW1 1736   0.757   0.194   3.306
  392SOL    HW2 1737   0.696   0.257   3.430
  393SOL     OW 1738   0.078   0.339   1.900
  393SOL    HW1 1739   5.288   0.311   1.884
  393SOL    HW2 1740   0.093   0.406   1.833
  394SOL     OW 1741   1.431   0.858   3.263
  394SOL    HW1 1742   1.383   0.919   3.207
  394SOL    HW2 1743   1.521   0.861   3.230
  395SOL     OW 1744   0.082   0.140   2.158
  395SOL    HW1 1745   0.076   0.234   2.139
  395SOL    HW2 1746   0.169   0.116   2.126
  396SOL     OW 1747   1.180   1.341   1.979
  396SOL    HW1 1748   1.089   1.311   1.982
  396SOL    HW2 1749   1.208   1.341   2.070
  397SOL     OW 1750   0.619   0.831   3.296
  397SOL    HW1 1751   0.674   0.908   3.281
  397SOL    HW2 1752   0.681   0.758   3.304
  398SOL     OW 1753   1.485   1.775   2.839
  398SOL    HW1 1754   1.510   1.832   2.767
  398SOL    HW2 1755   1.567   1.758   2.886
  399SOL     OW 1756   0.714   0.572   3.567
  399SOL    HW1 1757   0.754   0.636   3.625
  399SOL    HW2 1758   0.749   0.488   3.596
  400SOL     OW 1759   1.470   1.202   3.495
  400SOL    HW1 1760   1.458   1.215   3.589
  400SOL    HW2 1761   1.564   1.215   3.480
  401SOL     OW 1762   0.380   1.741   3.425
  401SOL    HW1 1763   0.297   1.787   3.411
  401SOL    HW2 1764   0.356   1.660   3.470
  402SOL     OW 1765   1.671   0.882   3.117
  402SOL    HW1 1766   1.663   0.796   3.074
  402SOL    HW2 1767   1.662   0.945   3.046
  403SOL     OW 1768   1.221   0.320   2.328
  403SOL    HW1 1769   1.284   0.249   2.320
  403SOL    HW2 1770   1.252   0.371   2.403
  404SOL     OW 1771   0.591   0.739   2.530
  404SOL    HW1 1772   0.630   0.825   2.513
  404SOL    HW2 1773   0.521   0.732   2.465
  405SOL     OW 1774   1.767   0.361   3.510
  405SOL    HW1 1775   1.748   0.375   3.418
  405SOL    HW2 1776   1.696   0.305   3.542
  406SOL     OW 1777   1.743   0.934   3.375
  406SOL    HW1 1778   1.745   1.028   3.388
  406SOL    HW2 1779   1.729   0.923   3.281
  407SOL     OW 1780   0.862   1.368   1.894
  407SOL    HW1 1781   0.823   1.396   1.976
  407SOL    HW2 1782   0.882   1.449   1.847
  408SOL     OW 1783   0.662   1.795   2.808
  408SOL    HW1 1784   0.640   1.885   2.784
  408SOL    HW2 1785   0.757   1.791   2.801
  409SOL     OW 1786   0.866   0.965   2.717
  409SOL    HW1 1787   0.917   0.895   2.758
  409SOL    HW2 1788   0.833   1.016   2.791
  410SOL     OW 1789   1.078   0.987   1.950
  410SOL    HW1 1790   1.058   1.038   1.872
  410SOL    HW2 1791   1.154   0.935   1.925
  411SOL     OW 1792   1.855   1.556   2.707
  411SOL    HW1 1793   1.778   1.544   2.652
  411SOL    HW2 1794   1.847   1.489   2.775
  412SOL     OW 1795   0.224   1.306   3.721
  412SOL    HW1 1796   0.156   1.244   3.695
  412SOL    HW2 1797   0.213   1.317   3.815
  413SOL     OW 1798   0.086   1.222   2.516
  413SOL    HW1 1799   0.097   1.189   2.605
  413SOL    HW2 1800   0.172   1.210   2.475
  414SOL     OW 1801   0.680   1.401   3.489
  414SOL    HW1 1802   0.600   1.358   3.519
  414SOL    HW2 1803   0.676   1.489   3.525
  415SOL     OW 1804   1.817   0.179   3.096
  415SOL    HW1 1805   1.786   0.089   3.105
  415SOL    HW2 1806   1.831   0.190   3.002
  416SOL     OW 1807   0.432   0.435   2.384
  416SOL    HW1 1808   0.463   0.361   2.331
  416SOL    HW2 1809   0.387   0.395   2.458
  417SOL     OW 1810   1.701   1.490   2.960
  417SOL    HW1 1811   1.620   1.465   2.916
  417SOL    HW2 1812   1.715   1.422   3.026
  418SOL     OW 1813   0.334   0.558   3.150
  418SOL    HW1 1814   0.391   0.501   3.202
  418SOL    HW2 1815   0.349   0.532   3.060
  419SOL     OW 1816   0.827   1.577   2.541
  419SOL    HW1 1817   0.818   1.627   2.460
  419SOL    HW2 1818   0.749   1.522   2.544
  420SOL     OW 1819   1.428   0.218   2.978
  420SOL    HW1 1820   1.465   0.144   3.027
  420SOL    HW2 1821   1.380   0.267   3.044
  421SOL     OW 1822   1.002   0.022   3.004
  421SOL    HW1 1823   0.951   5.252   2.963
  421SOL    HW2 1824   1.089   5.285   3.017
  422SOL     OW 1825   0.771   1.332   2.175
  422SOL    HW1 1826   0.740   1.242   2.181
  422SOL    HW2 1827   0.854   1.332   2.223
  423SOL     OW 1828   0.622   1.557   3.148
  423SOL    HW1 1829   0.624   1.639   3.198
  423SOL    HW2 1830   0.709   1.551   3.109
  424SOL     OW 1831   1.355   0.041   2.023
  424SOL    HW1 1832   1.385   5.297   1.943
  424SOL    HW2 1833   1.275   5.293   2.047
  425SOL     OW 1834   1.301   0.463   2.548
  425SOL    HW1 1835   1.246   0.541   2.554
  425SOL    HW2 1836   1.295   0.422   2.634
  426SOL     OW 1837   1.594   0.216   2.743
  426SOL    HW1 1838   1.526   0.227   2.810
  426SOL    HW2 1839   1.588   0.294   2.689
  427SOL     OW 1840   0.047   1.070   2.153
  427SOL    HW1 1841   0.137   1.039   2.142
  427SOL    HW2 1842   5.300   0.993   2.186
  428SOL     OW 1843   0.883   1.650   2.205
  428SOL    HW1 1844   0.811   1.634   2.144
  428SOL    HW2 1845   0.855   1.726   2.256
  429SOL     OW 1846   0.233   0.633   3.840
  429SOL    HW1 1847   0.155   0.609   3.890
  429SOL    HW2 1848   0.217   0.599   3.752
  430SOL     OW 1849   0.232   0.280   4.714
  430SOL    HW1 1850   0.252   0.245   4.801
  430SOL    HW2 1851   0.152   0.235   4.687
  431SOL     OW 1852   0.001   0.405   4.386
  431SOL    HW1 1853   5.207   0.426   4.392
  431SOL    HW2 1854   0.003   0.314   4.356
  432SOL     OW 1855   0.572   1.281   4.902
  432SOL    HW1 1856   0.489   1.290   4.856
  432SOL    HW2 1857   0.589   1.368   4.938
  433SOL     OW 1858   1.559   1.511   4.430
  433SOL    HW1 1859   1.515   1.493   4.513
  433SOL    HW2 1860   1.487   1.517   4.366
  434SOL     OW 1861   1.130   0.698   4.427
  434SOL    HW1 1862   1.180   0.779   4.412
  434SOL    HW2 1863   1.083   0.714   4.509
  435SOL     OW 1864   1.765   0.607   3.953
  435SOL    HW1 1865   1.746   0.598   3.860
  435SOL    HW2 1866   1.731   0.527   3.993
  436SOL     OW 1867   0.757   1.143   4.761
  436SOL    HW1 1868   0.689   1.176   4.820
  436SOL    HW2 1869   0.792   1.221   4.718
  437SOL     OW 1870   0.861   0.781   5.545
  437SOL    HW1 1871   0.855   0.853   5.608
  437SOL    HW2 1872   0.887   0.823   5.463
  438SOL     OW 1873   0.686   1.005   4.372
  438SOL    HW1 1874   0.751   0.991   4.441
  438SOL    HW2 1875   0.617   1.057   4.414
  439SOL     OW 1876   0.708   1.151   5.535
  439SOL    HW1 1877   0.756   1.230   5.560
  439SOL    HW2 1878   0.625   1.184   5.500
  440SOL     OW 1879   0.358   1.406   4.783
  440SOL    HW1 1880   0.270   1.405   4.745
  440SOL    HW2 1881   0.407   1.469   4.730
  441SOL     OW 1882   1.461   1.499   5.075
  441SOL    HW1 1883   1.509   1.581   5.085
  441SOL    HW2 1884   1.405   1.495   5.152
  442SOL     OW 1885   0.447   0.400   5.218
  442SOL    HW1 1886   0.526   0.346   5.210
  442SOL    HW2 1887   0.375   0.337   5.223
  443SOL     OW 1888   1.611   0.452   4.461
  443SOL    HW1 1889   1.536   0.478   4.409
  443SOL    HW2 1890   1.632   0.529   4.513
  444SOL     OW 1891   0.229   1.715   4.201
  444SOL    HW1 1892   0.265   1.782   4.259
  444SOL    HW2 1893   0.290   1.710   4.128
  445SOL     OW 1894   1.136   1.341   5.416
  445SOL    HW1 1895   1.177   1.337   5.502
  445SOL    HW2 1896   1.084   1.261   5.410
  446SOL     OW 1897   0.222   1.443   4.262
  446SOL    HW1 1898   0.213   1.538   4.261
  446SOL    HW2 1899   0.153   1.412   4.321
  447SOL     OW 1900   0.248   1.079   4.600
  447SOL    HW1 1901   0.259   0.994   4.644
  447SOL    HW2 1902   0.197   1.131   4.662
  448SOL     OW 1903   0.616   1.790   5.157
  448SOL    HW1 1904   0.531   1.773   5.199
  448SOL    HW2 1905   0.636   1.881   5.179
  449SOL     OW 1906   0.585   0.982   3.858
  449SOL    HW1 1907   0.630   1.031   3.789
  449SOL    HW2 1908   0.628   1.010   3.939
  450SOL     OW 1909   1.586   0.133   5.182
  450SOL    HW1 1910   1.604   0.218   5.142
  450SOL    HW2 1911   1.586   0.151   5.276
  451SOL     OW 1912   0.124   0.637   4.300
  451SOL    HW1 1913   0.089   0.554   4.332
  451SOL    HW2 1914   0.098   0.701   4.367
  452SOL     OW 1915   1.842   1.761   4.060
  452SOL    HW1 1916   1.902   1.732   4.128
  452SOL    HW2 1917   1.868   1.851   4.041
  453SOL     OW 1918   0.037   1.598   3.854
  453SOL    HW1 1919   0.024   1.507   3.879
  453SOL    HW2 1920   5.284   1.648   3.916
  454SOL     OW 1921   1.689   0.918   4.363
  454SOL    HW1 1922   1.774   0.878   4.344
  454SOL    HW2 1923   1.668   0.969   4.284
  455SOL     OW 1924   1.645   1.108   4.154
  455SOL    HW1 1925   1.731   1.115   4.111
  455SOL    HW2 1926   1.650   1.168   4.228
  456SOL     OW 1927   0.128   0.748   5.313
  456SOL    HW1 1928   0.223   0.763   5.316
  456SOL    HW2 1929   0.090   0.835   5.324
  457SOL     OW 1930   0.614   1.383   4.459
  457SOL    HW1 1931   0.567   1.301   4.469
  457SOL    HW2 1932   0.597   1.410   4.369
  458SOL     OW 1933   1.289   1.238   5.148
  458SOL    HW1 1934   1.322   1.171   5.088
  458SOL    HW2 1935   1.346   1.231   5.225
  459SOL     OW 1936   0.812   0.023   4.248
  459SOL    HW1 1937   0.840   0.112   4.226
  459SOL    HW2 1938   0.717   0.026   4.241
  460SOL     OW 1939   0.179   0.949   5.001
  460SOL    HW1 1940   0.269   0.920   4.990
  460SOL    HW2 1941   0.134   0.920   4.922
  461SOL     OW 1942   1.532   0.992   3.921
  461SOL    HW1 1943   1.462   0.935   3.952
  461SOL    HW2 1944   1.572   1.026   4.001
  462SOL     OW 1945   1.185   1.804   5.345
  462SOL    HW1 1946   1.199   1.863   5.270
  462SOL    HW2 1947   1.201   1.717   5.310
  463SOL     OW 1948   0.325   0.273   5.521
  463SOL    HW1 1949   0.385   0.336   5.560
  463SOL    HW2 1950   0.244   0.281   5.572
  464SOL     OW 1951   1.465   1.420   4.676
  464SOL    HW1 1952   1.397   1.434   4.742
  464SOL    HW2 1953   1.454   1.328   4.650
  465SOL     OW 1954   1.661   1.735   4.301
  465SOL    HW1 1955   1.638   1.706   4.213
  465SOL    HW2 1956   1.635   1.662   4.358
  466SOL     OW 1957   0.595   0.722   3.988
  466SOL    HW1 1958   0.604   0.802   3.937
  466SOL    HW2 1959   0.531   0.744   4.056
  467SOL     OW 1960   1.279   0.344   4.654
  467SOL    HW1 1961   1.188   0.316   4.667
  467SOL    HW2 1962   1.328   0.295   4.720
  468SOL     OW 1963   1.581   1.668   4.033
  468SOL    HW1 1964   1.670   1.703   4.027
  468SOL    HW2 1965   1.555   1.652   3.942
  469SOL     OW 1966   0.794   0.617   5.176
  469SOL    HW1 1967   0.766   0.596   5.265
  469SOL    HW2 1968   0.750   0.552   5.121
  470SOL     OW 1969   1.394   0.474   5.402
  470SOL    HW1 1970   1.396   0.519   5.487
  470SOL    HW2 1971   1.459   0.404   5.411
  471SOL     OW 1972   0.956   0.888   5.305
  471SOL    HW1 1973   1.011   0.817   5.271
  471SOL    HW2 1974   0.909   0.921   5.229
  472SOL     OW 1975   0.994   0.416   4.960
  472SOL    HW1 1976   0.910   0.439   5.001
  472SOL    HW2 1977   0.970   0.367   4.882
  473SOL     OW 1978   1.050   0.699   4.151
  473SOL    HW1 1979   1.065   0.692   4.245
  473SOL    HW2 1980   0.968   0.652   4.136
  474SOL     OW 1981   0.072   0.787   4.537
  474SOL    HW1 1982   0.156   0.793   4.584
  474SOL    HW2 1983   0.060   0.875   4.500
  475SOL     OW 1984   0.132   1.880   5.308
  475SOL    HW1 1985   0.133   1.847   5.398
  475SOL    HW2 1986   0.057   1.837   5.267
  476SOL     OW 1987   0.870   0.361   3.912
  476SOL    HW1 1988   0.917   0.421   3.854
  476SOL    HW2 1989   0.919   0.279   3.908
  477SOL     OW 1990   1.709   0.576   5.552
  477SOL    HW1 1991   1.672   0.651   5.505
  477SOL    HW2 1992   1.737   0.516   5.483
  478SOL     OW 1993   1.375   1.142   4.265
  478SOL    HW1 1994   1.454   1.129   4.213
  478SOL    HW2 1995   1.323   1.204   4.215
  479SOL     OW 1996   0.538   0.201   4.608
  479SOL    HW1 1997   0.554   0.218   4.701
  479SOL    HW2 1998   0.550   0.286   4.565
  480SOL     OW 1999   1.007   1.444   4.197
  480SOL    HW1 2000   0.968   1.516   4.148
  480SOL    HW2 2001   0.993   1.467   4.289
  481SOL     OW 2002   0.356   1.801   4.592
  481SOL    HW1 2003   0.398   1.716   4.605
  481SOL    HW2 2004   0.423   1.865   4.618
  482SOL     OW 2005   1.798   1.058   4.591
  482SOL    HW1 2006   1.742   1.042   4.515
  482SOL    HW2 2007   1.738   1.064   4.665
  483SOL     OW 2008   1.228   1.539   5.237
  483SOL    HW1 2009   1.214   1.466   5.297
  483SOL    HW2 2010   1.167   1.524   5.165
  484SOL     OW 2011   0.317   0.952   3.970
  484SOL    HW1 2012   0.399   0.976   3.928
  484SOL    HW2 2013   0.295   0.867   3.933
  485SOL     OW 2014   1.477   0.740   4.452
  485SOL    HW1 2015   1.467   0.696   4.536
  485SOL    HW2 2016   1.554   0.796   4.462
  486SOL     OW 2017   0.464   1.262   5.461
  486SOL    HW1 2018   0.437   1.269   5.370
  486SOL    HW2 2019   0.382   1.264   5.511
  487SOL     OW 2020   1.121   1.778   3.955
  487SOL    HW1 2021   1.049   1.734   4.002
  487SOL    HW2 2022   1.143   1.717   3.884
  488SOL     OW 2023   0.198   0.278   5.216
  488SOL    HW1 2024   0.155   0.364   5.214
  488SOL    HW2 2025   0.205   0.257   5.309
  489SOL     OW 2026   1.629   1.379   3.811
  489SOL    HW1 2027   1.588   1.464   3.796
  489SOL    HW2 2028   1.560   1.316   3.792
  490SOL     OW 2029   0.471   1.735   4.045
  490SOL    HW1 2030   0.512   1.793   4.108
  490SOL    HW2 2031   0.543   1.707   3.988
  491SOL     OW 2032   1.406   0.099   4.155
  491SOL    HW1 2033   1.397   0.082   4.061
  491SOL    HW2 2034   1.498   0.122   4.166
  492SOL     OW 2035   0.274   1.801   4.941
  492SOL    HW1 2036   0.307   1.725   4.989
  492SOL    HW2 2037   0.226   1.763   4.867
  493SOL     OW 2038   0.939   1.698   4.624
  493SOL    HW1 2039   1.016   1.646   4.644
  493SOL    HW2 2040   0.893   1.649   4.556
  494SOL     OW 2041   0.385   0.696   4.203
  494SOL    HW1 2042   0.415   0.605   4.211
  494SOL    HW2 2043   0.292   0.693   4.225
  495SOL     OW 2044   1.541   0.228   5.448
  495SOL    HW1 2045   1.547   0.246   5.542
  495SOL    HW2 2046   1.466   0.168   5.441
  496SOL     OW 2047   0.621   0.133   3.831
  496SOL    HW1 2048   0.691   0.072   3.854
  496SOL    HW2 2049   0.575   0.090   3.759
  497SOL     OW 2050   0.784   0.313   5.490
  497SOL    HW1 2051   0.841   0.236   5.491
  497SOL    HW2 2052   0.734   0.307   5.571
  498SOL     OW 2053   0.877   1.521   4.918
  498SOL    HW1 2054   0.862   1.485   4.830
  498SOL    HW2 2055   0.947   1.466   4.954
  499SOL     OW 2056   1.341   0.589   5.156
  499SOL    HW1 2057   1.372   0.557   5.241
  499SOL    HW2 2058   1.377   0.677   5.149
  500SOL     OW 2059   0.814   1.396   4.662
  500SOL    HW1 2060   0.898   1.386   4.617
  500SOL    HW2 2061   0.749   1.396   4.591
  501SOL     OW 2062   0.927   0.510   4.628
  501SOL    HW1 2063   0.904   0.502   4.535
  501SOL    HW2 2064   0.959   0.423   4.652
  502SOL     OW 2065   0.547   0.059   4.229
  502SOL    HW1 2066   0.468   0.060   4.282
  502SOL    HW2 2067   0.536   0.132   4.168
  503SOL     OW 2068   1.428   1.198   3.765
  503SOL    HW1 2069   1.459   1.122   3.815
  503SOL    HW2 2070   1.343   1.218   3.803
  504SOL     OW 2071   0.312   0.061   3.908
  504SOL    HW1 2072   0.378   0.127   3.885
  504SOL    HW2 2073   0.363   5.282   3.926
  505SOL     OW 2074   0.939   0.259   4.187
  505SOL    HW1 2075   0.910   0.298   4.104
  505SOL    HW2 2076   1.034   0.271   4.188
  506SOL     OW 2077   1.080   0.680   5.184
  506SOL    HW1 2078   1.011   0.614   5.189
  506SOL    HW2 2079   1.161   0.629   5.177
  507SOL     OW 2080   1.224   1.569   4.517
  507SOL    HW1 2081   1.241   1.637   4.452
  507SOL    HW2 2082   1.292   1.582   4.584
  508SOL     OW 2083   0.466   1.149   4.458
  508SOL    HW1 2084   0.397   1.130   4.520
  508SOL    HW2 2085   0.427   1.131   4.372
  509SOL     OW 2086   1.270   1.794   4.330
  509SOL    HW1 2087   1.315   1.855   4.272
  509SOL    HW2 2088   1.205   1.848   4.376
  510SOL     OW 2089   1.027   0.548   3.745
  510SOL    HW1 2090   0.985   0.631   3.726
  510SOL    HW2 2091   1.090   0.567   3.814
  511SOL     OW 2092   0.095   0.534   5.133
  511SOL    HW1 2093   0.176   0.551   5.086
  511SOL    HW2 2094   0.076   0.615   5.180
  512SOL     OW 2095   0.560   0.238   4.881
  512SOL    HW1 2096   0.591   0.151   4.907
  512SOL    HW2 2097   0.468   0.240   4.906
  513SOL     OW 2098   0.868   0.462   4.365
  513SOL    HW1 2099   0.822   0.515   4.300
  513SOL    HW2 2100   0.890   0.381   4.319
  514SOL     OW 2101   0.980   0.060   4.485
  514SOL    HW1 2102   0.914   0.053   4.416
  514SOL    HW2 2103   0.987   5.271   4.520
  515SOL     OW 2104   1.436   1.163   4.582
  515SOL    HW1 2105   1.368   1.096   4.579
  515SOL    HW2 2106   1.460   1.176   4.490
  516SOL     OW 2107   1.467   0.604   4.704
  516SOL    HW1 2108   1.419   0.521   4.708
  516SOL    HW2 2109   1.528   0.600   4.777
  517SOL     OW 2110   1.846   0.818   4.106
  517SOL    HW1 2111   1.902   0.766   4.164
  517SOL    HW2 2112   1.818   0.756   4.039
  518SOL     OW 2113   0.492   1.415   3.884
  518SOL    HW1 2114   0.417   1.387   3.936
  518SOL    HW2 2115   0.472   1.386   3.795
  519SOL     OW 2116   1.669   1.265   4.372
  519SOL    HW1 2117   1.764   1.269   4.384
  519SOL    HW2 2118   1.638   1.353   4.393
  520SOL     OW 2119   1.394   0.572   3.795
  520SOL    HW1 2120   1.333   0.553   3.867
  520SOL    HW2 2121   1.479   0.541   3.826
  521SOL     OW 2122   0.523   0.264   4.045
  521SOL    HW1 2123   0.568   0.215   3.976
  521SOL    HW2 2124   0.505   0.350   4.006
  522SOL     OW 2125   1.753   1.238   5.300
  522SOL    HW1 2126   1.841   1.199   5.295
  522SOL    HW2 2127   1.768   1.328   5.328
  523SOL     OW 2128   1.060   1.353   5.058
  523SOL    HW1 2129   0.985   1.322   5.109
  523SOL    HW2 2130   1.136   1.312   5.099
  524SOL     OW 2131   1.606   1.625   5.376
  524SOL    HW1 2132   1.602   1.659   5.287
  524SOL    HW2 2133   1.690   1.579   5.380
  525SOL     OW 2134   1.126   1.201   4.830
  525SOL    HW1 2135   1.069   1.241   4.896
  525SOL    HW2 2136   1.093   1.234   4.747
  526SOL     OW 2137   1.630   1.099   4.802
  526SOL    HW1 2138   1.626   1.161   4.875
  526SOL    HW2 2139   1.550   1.116   4.752
  527SOL     OW 2140   0.906   0.106   5.116
  527SOL    HW1 2141   0.936   0.072   5.032
  527SOL    HW2 2142   0.983   0.148   5.154
  528SOL     OW 2143   0.984   1.114   5.446
  528SOL    HW1 2144   0.892   1.130   5.465
  528SOL    HW2 2145   0.984   1.037   5.390
  529SOL     OW 2146   0.707   1.059   4.097
  529SOL    HW1 2147   0.696   1.045   4.191
  529SOL    HW2 2148   0.784   1.007   4.073
  530SOL     OW 2149   0.420   0.818   4.976
  530SOL    HW1 2150   0.489   0.824   5.041
  530SOL    HW2 2151   0.385   0.730   4.987
  531SOL     OW 2152   1.268   0.380   4.995
  531SOL    HW1 2153   1.300   0.456   5.042
  531SOL    HW2 2154   1.178   0.402   4.972
  532SOL     OW 2155   0.100   1.622   5.092
  532SOL    HW1 2156   0.077   1.634   5.000
  532SOL    HW2 2157   0.186   1.581   5.090
  533SOL     OW 2158   0.345   1.104   4.213
  533SOL    HW1 2159   0.356   1.183   4.160
  533SOL    HW2 2160   0.357   1.032   4.151
  534SOL     OW 2161   0.556   0.538   4.584
  534SOL    HW1 2162   0.572   0.596   4.510
  534SOL    HW2 2163   0.620   0.566   4.650
  535SOL     OW 2164   1.248   1.348   4.113
  535SOL    HW1 2165   1.303   1.420   4.144
  535SOL    HW2 2166   1.161   1.369   4.147
  536SOL     OW 2167   1.278   1.456   4.870
  536SOL    HW1 2168   1.334   1.459   4.948
  536SOL    HW2 2169   1.223   1.379   4.883
  537SOL     OW 2170   1.583   0.624   4.201
  537SOL    HW1 2171   1.538   0.680   4.265
  537SOL    HW2 2172   1.628   0.685   4.143
  538SOL     OW 2173   0.351   1.519   5.036
  538SOL    HW1 2174   0.342   1.475   4.951
  538SOL    HW2 2175   0.445   1.537   5.043
  539SOL     OW 2176   0.413   0.742   5.326
  539SOL    HW1 2177   0.471   0.790   5.268
  539SOL    HW2 2178   0.459   0.659   5.342
  540SOL     OW 2179   1.599   0.778   5.404
  540SOL    HW1 2180   1.513   0.819   5.397
  540SOL    HW2 2181   1.651   0.820   5.336
  541SOL     OW 2182   1.039   0.115   5.504
  541SOL    HW1 2183   1.064   0.194   5.457
  541SOL    HW2 2184   1.049   0.044   5.440
  542SOL     OW 2185   0.483   0.057   5.463
  542SOL    HW1 2186   0.429   5.290   5.421
  542SOL    HW2 2187   0.421   0.129   5.481
  543SOL     OW 2188   0.585   0.873   4.756
  543SOL    HW1 2189   0.616   0.964   4.753
  543SOL    HW2 2190   0.528   0.869   4.833
  544SOL     OW 2191   1.360   0.859   4.756
  544SOL    HW1 2192   1.278   0.851   4.707
  544SOL    HW2 2193   1.398   0.771   4.752
  545SOL     OW 2194   1.207   0.529   3.993
  545SOL    HW1 2195   1.211   0.448   4.044
  545SOL    HW2 2196   1.165   0.592   4.051
  546SOL     OW 2197   0.304   0.207   4.968
  546SOL    HW1 2198   0.266   0.238   5.050
  546SOL    HW2 2199   0.295   0.112   4.972
  547SOL     OW 2200   0.071   1.319   5.005
  547SOL    HW1 2201   0.090   1.259   5.077
  547SOL    HW2 2202   0.005   1.379   5.041
  548SOL     OW 2203   0.727   0.633   4.785
  548SOL    HW1 2204   0.799   0.614   4.726
  548SOL    HW2 2205   0.699   0.721   4.762
  549SOL     OW 2206   1.734   0.959   5.576
  549SOL    HW1 2207   1.686   0.901   5.516
  549SOL    HW2 2208   1.674   0.971   5.649
  550SOL     OW 2209   0.317   0.068   4.375
  550SOL    HW1 2210   0.299   0.161   4.386
  550SOL    HW2 2211   0.317   0.032   4.464
  551SOL     OW 2212   1.610   0.373   4.091
  551SOL    HW1 2213   1.644   0.310   4.155
  551SOL    HW2 2214   1.590   0.451   4.142
  552SOL     OW 2215   1.027   0.760   4.685
  552SOL    HW1 2216   1.026   0.777   4.779
  552SOL    HW2 2217   1.000   0.668   4.678
  553SOL     OW 2218   0.981   1.565   5.439
  553SOL    HW1 2219   0.967   1.610   5.356
  553SOL    HW2 2220   1.026   1.484   5.415
  554SOL     OW 2221   1.855   1.508   5.329
  554SOL    HW1 2222   1.873   1.533   5.239
  554SOL    HW2 2223   1.937   1.528   5.376
  555SOL     OW 2224   0.353   0.916   5.531
  555SOL    HW1 2225   0.434   0.937   5.577
  555SOL    HW2 2226   0.379   0.853   5.464
  556SOL     OW 2227   1.528   0.273   3.850
  556SOL    HW1 2228   1.464   0.208   3.881
  556SOL    HW2 2229   1.563   0.311   3.931
  557SOL     OW 2230   1.293   0.827   3.756
  557SOL    HW1 2231   1.336   0.741   3.760
  557SOL    HW2 2232   1.324   0.866   3.675
  558SOL     OW 2233   1.065   1.335   4.577
  558SOL    HW1 2234   1.068   1.263   4.515
  558SOL    HW2 2235   1.128   1.399   4.543
  559SOL     OW 2236   0.315   0.811   4.674
  559SOL    HW1 2237   0.409   0.829   4.670
  559SOL    HW2 2238   0.309   0.721   4.706
  560SOL     OW 2239   0.337   0.525   4.738
  560SOL    HW1 2240   0.299   0.439   4.722
  560SOL    HW2 2241   0.412   0.530   4.679
  561SOL     OW 2242   1.136   0.378   5.411
  561SOL    HW1 2243   1.089   0.433   5.473
  561SOL    HW2 2244   1.223   0.417   5.406
  562SOL     OW 2245   1.135   0.223   5.189
  562SOL    HW1 2246   1.140   0.281   5.265
  562SOL    HW2 2247   1.190   0.265   5.123
  563SOL     OW 2248   0.001   1.331   3.934
  563SOL    HW1 2249   5.225   1.323   3.877
  563SOL    HW2 2250   0.012   1.244   3.973
  564SOL     OW 2251   0.091   1.782   4.673
  564SOL    HW1 2252   0.058   1.710   4.619
  564SOL    HW2 2253   0.179   1.799   4.638
  565SOL     OW 2254   0.505   1.573   4.631
  565SOL    HW1 2255   0.573   1.638   4.652
  565SOL    HW2 2256   0.549   1.511   4.573
  566SOL     OW 2257   0.986   0.794   4.952
  566SOL    HW1 2258   1.040   0.769   5.027
  566SOL    HW2 2259   0.900   0.757   4.971
  567SOL     OW 2260   0.036   0.561   4.840
  567SOL    HW1 2261   0.120   0.532   4.804
  567SOL    HW2 2262   0.039   0.535   4.932
  568SOL     OW 2263   0.169   0.513   5.437
  568SOL    HW1 2264   0.252   0.494   5.394
  568SOL    HW2 2265   0.137   0.593   5.395
  569SOL     OW 2266   1.376   0.941   5.383
  569SOL    HW1 2267   1.397   1.034   5.382
  569SOL    HW2 2268   1.374   0.916   5.291
  570SOL     OW 2269   0.814   0.571   4.083
  570SOL    HW1 2270   0.818   0.496   4.023
  570SOL    HW2 2271   0.740   0.623   4.052
  571SOL     OW 2272   1.643   0.601   4.912
  571SOL    HW1 2273   1.631   0.542   4.986
  571SOL    HW2 2274   1.730   0.580   4.877
  572SOL     OW 2275   0.257   1.556   5.460
  572SOL    HW1 2276   0.233   1.619   5.528
  572SOL    HW2 2277   0.249   1.470   5.501
  573SOL     OW 2278   0.694   0.454   4.987
  573SOL    HW1 2279   0.646   0.379   4.951
  573SOL    HW2 2280   0.695   0.517   4.915
  574SOL     OW 2281   0.929   1.679   5.191
  574SOL    HW1 2282   0.903   1.647   5.105
  574SOL    HW2 2283   0.927   1.774   5.183
  575SOL     OW 2284   0.465   0.493   3.906
  575SOL    HW1 2285   0.527   0.563   3.928
  575SOL    HW2 2286   0.380   0.537   3.901
  576SOL     OW 2287   0.149   1.138   5.195
  576SOL    HW1 2288   0.148   1.088   5.277
  576SOL    HW2 2289   0.162   1.072   5.127
  577SOL     OW 2290   1.327   1.048   4.948
  577SOL    HW1 2291   1.352   0.985   4.880
  577SOL    HW2 2292   1.256   1.099   4.910
  578SOL     OW 2293   1.309   0.856   4.031
  578SOL    HW1 2294   1.233   0.826   4.080
  578SOL    HW2 2295   1.286   0.843   3.939
  579SOL     OW 2296   1.762   1.745   4.871
  579SOL    HW1 2297   1.827   1.773   4.806
  579SOL    HW2 2298   1.745   1.654   4.849
  580SOL     OW 2299   1.242   1.733   4.839
  580SOL    HW1 2300   1.324   1.752   4.794
  580SOL    HW2 2301   1.246   1.639   4.857
  581SOL     OW 2302   0.083   1.220   4.751
  581SOL    HW1 2303   0.069   1.245   4.843
  581SOL    HW2 2304   5.295   1.208   4.716
  582SOL     OW 2305   0.678   1.664   5.450
  582SOL    HW1 2306   0.624   1.744   5.446
  582SOL    HW2 2307   0.741   1.675   5.379
  583SOL     OW 2308   1.713   0.146   4.228
  583SOL    HW1 2309   1.789   0.126   4.174
  583SOL    HW2 2310   1.705   0.071   4.287
  584SOL     OW 2311   1.390   1.568   4.207
  584SOL    HW1 2312   1.451   1.599   4.140
  584SOL    HW2 2313   1.342   1.646   4.235
  585SOL     OW 2314   0.143   1.798   5.567
  585SOL    HW1 2315   0.089   1.734   5.614
  585SOL    HW2 2316   0.188   1.846   5.636
  586SOL     OW 2317   1.277   0.925   4.395
  586SOL    HW1 2318   1.351   0.864   4.401
  586SOL    HW2 2319   1.310   0.998   4.343
  587SOL     OW 2320   0.817   1.272   5.155
  587SOL    HW1 2321   0.789   1.312   5.238
  587SOL    HW2 2322   0.747   1.294   5.094
  588SOL     OW 2323   0.672   1.618   3.879
  588SOL    HW1 2324   0.682   1.629   3.785
  588SOL    HW2 2325   0.619   1.539   3.888
  589SOL     OW 2326   1.629   1.726   5.115
  589SOL    HW1 2327   1.677   1.734   5.033
  589SOL    HW2 2328   1.616   1.817   5.144
  590SOL     OW 2329   1.845   0.159   4.682
  590SOL    HW1 2330   1.848   0.065   4.663
  590SOL    HW2 2331   1.757   0.186   4.655
  591SOL     OW 2332   0.270   0.328   4.443
  591SOL    HW1 2333   0.184   0.366   4.425
  591SOL    HW2 2334   0.270   0.312   4.537
  592SOL     OW 2335   1.206   1.607   3.755
  592SOL    HW1 2336   1.198   1.516   3.782
  592SOL    HW2 2337   1.141   1.618   3.685
  593SOL     OW 2338   0.824   1.006   5.096
  593SOL    HW1 2339   0.868   1.002   5.011
  593SOL    HW2 2340   0.824   1.098   5.119
  594SOL     OW 2341   0.915   0.910   4.013
  594SOL    HW1 2342   0.976   0.942   3.947
  594SOL    HW2 2343   0.962   0.840   4.059
  595SOL     OW 2344   1.494   1.624   3.766
  595SOL    HW1 2345   1.399   1.620   3.753
  595SOL    HW2 2346   1.529   1.630   3.678
  596SOL     OW 2347   0.368   1.303   5.217
  596SOL    HW1 2348   0.359   1.378   5.159
  596SOL    HW2 2349   0.292   1.248   5.197
  597SOL     OW 2350   1.611   1.283   5.005
  597SOL    HW1 2351   1.672   1.275   5.078
  597SOL    HW2 2352   1.551   1.353   5.031
  598SOL     OW 2353   1.049   1.106   4.429
  598SOL    HW1 2354   0.979   1.054   4.469
  598SOL    HW2 2355   1.111   1.041   4.397
  599SOL     OW 2356   1.020   0.242   4.691
  599SOL    HW1 2357   1.000   0.196   4.609
  599SOL    HW2 2358   1.012   0.175   4.759
  600SOL     OW 2359   0.600   1.487   4.206
  600SOL    HW1 2360   0.644   1.439   4.135
  600SOL    HW2 2361   0.536   1.542   4.161
  601SOL     OW 2362   1.722   0.387   5.102
  601SOL    HW1 2363   1.792   0.453   5.102
  601SOL    HW2 2364   1.755   0.318   5.045
  602SOL     OW 2365   0.259   1.348   4.015
  602SOL    HW1 2366   0.166   1.351   3.993
  602SOL    HW2 2367   0.264   1.385   4.103
  603SOL     OW 2368   0.115   1.015   5.442
  603SOL    HW1 2369   0.043   0.982   5.496
  603SOL    HW2 2370   0.194   0.984   5.486
  604SOL     OW 2371   0.673   0.212   5.211
  604SOL    HW1 2372   0.757   0.194   5.168
  604SOL    HW2 2373   0.696   0.257   5.292
  605SOL     OW 2374   0.078   0.339   3.761
  605SOL    HW1 2375   5.287   0.311   3.747
  605SOL    HW2 2376   0.093   0.406   3.695
  606SOL     OW 2377   1.431   0.858   5.125
  606SOL    HW1 2378   1.383   0.919   5.069
  606SOL    HW2 2379   1.521   0.861   5.092
  607SOL     OW 2380   0.082   0.140   4.019
  607SOL    HW1 2381   0.076   0.234   4.001
  607SOL    HW2 2382   0.169   0.116   3.988
  608SOL     OW 2383   1.180   1.341   3.841
  608SOL    HW1 2384   1.089   1.311   3.844
  608SOL    HW2 2385   1.208   1.341   3.932
  609SOL     OW 2386   0.619   0.831   5.158
  609SOL    HW1 2387   0.674   0.908   5.143
  609SOL    HW2 2388   0.681   0.759   5.166
  610SOL     OW 2389   1.486   1.775   4.701
  610SOL    HW1 2390   1.509   1.834   4.630
  610SOL    HW2 2391   1.567   1.760   4.749
  611SOL     OW 2392   0.714   0.572   5.429
  611SOL    HW1 2393   0.754   0.636   5.487
  611SOL    HW2 2394   0.749   0.488   5.458
  612SOL     OW 2395   1.470   1.202   5.356
  612SOL    HW1 2396   1.458   1.215   5.450
  612SOL    HW2 2397   1.564   1.215   5.342
  613SOL     OW 2398   0.380   1.741   5.288
  613SOL    HW1 2399   0.297   1.787   5.273
  613SOL    HW2 2400   0.356   1.660   5.332
  614SOL     OW 2401   1.671   0.882   4.979
  614SOL    HW1 2402   1.663   0.797   4.936
  614SOL    HW2 2403   1.662   0.945   4.909
  615SOL     OW 2404   1.221   0.320   4.190
  615SOL    HW1 2405   1.284   0.249   4.182
  615SOL    HW2 2406   1.251   0.371   4.265
  616SOL     OW 2407   0.591   0.739   4.392
  616SOL    HW1 2408   0.630   0.825   4.376
  616SOL    HW2 2409   0.521   0.732   4.327
  617SOL     OW 2410   1.767   0.360   5.372
  617SOL    HW1 2411   1.748   0.375   5.280
  617SOL    HW2 2412   1.696   0.305   5.404
  618SOL     OW 2413   1.743   0.933   5.237
  618SOL    HW1 2414   1.745   1.028   5.250
  618SOL    HW2 2415   1.729   0.923   5.143
  619SOL     OW 2416   0.862   1.368   3.755
  619SOL    HW1 2417   0.823   1.396   3.839
  619SOL    HW2 2418   0.882   1.449   3.709
  620SOL     OW 2419   0.662   1.795   4.670
  620SOL    HW1 2420   0.640   1.885   4.646
  620SOL    HW2 2421   0.757   1.790   4.663
  621SOL     OW 2422   0.866   0.965   4.579
  621SOL    HW1 2423   0.917   0.895   4.620
  621SOL    HW2 2424   0.833   1.016   4.653
  622SOL     OW 2425   1.078   0.987   3.812
  622SOL    HW1 2426   1.058   1.038   3.734
  622SOL    HW2 2427   1.154   0.935   3.787
  623SOL     OW 2428   1.858   1.552   4.567
  623SOL    HW1 2429   1.778   1.544   4.514
  623SOL    HW2 2430   1.846   1.489   4.638
  624SOL     OW 2431   0.224   1.306   5.583
  624SOL    HW1 2432   0.156   1.244   5.557
  624SOL    HW2 2433   0.213   1.317   5.677
  625SOL     OW 2434   0.086   1.222   4.378
  625SOL    HW1 2435   0.097   1.189   4.467
  625SOL    HW2 2436   0.172   1.210   4.337
  626SOL     OW 2437   0.680   1.401   5.351
  626SOL    HW1 2438   0.600   1.359   5.381
  626SOL    HW2 2439   0.676   1.489   5.387
  627SOL     OW 2440   1.817   0.179   4.958
  627SOL    HW1 2441   1.786   0.089   4.967
  627SOL    HW2 2442   1.831   0.190   4.864
  628SOL     OW 2443   0.431   0.435   4.245
  628SOL    HW1 2444   0.463   0.361   4.193
  628SOL    HW2 2445   0.387   0.395   4.320
  629SOL     OW 2446   1.703   1.488   4.819
  629SOL    HW1 2447   1.620   1.464   4.778
  629SOL    HW2 2448   1.716   1.421   4.887
  630SOL     OW 2449   0.334   0.558   5.012
  630SOL    HW1 2450   0.391   0.501   5.064
  630SOL    HW2 2451   0.349   0.532   4.922
  631SOL     OW 2452   0.827   1.577   4.403
  631SOL    HW1 2453   0.818   1.628   4.322
  631SOL    HW2 2454   0.749   1.522   4.405
  632SOL     OW 2455   1.428   0.218   4.840
  632SOL    HW1 2456   1.466   0.144   4.889
  632SOL    HW2 2457   1.380   0.267   4.906
  633SOL     OW 2458   1.002   0.022   4.866
  633SOL    HW1 2459   0.951   5.252   4.825
  633SOL    HW2 2460   1.089   5.285   4.879
  634SOL     OW 2461   0.771   1.332   4.037
  634SOL    HW1 2462   0.740   1.242   4.043
  634SOL    HW2 2463   0.854   1.332   4.085
  635SOL     OW 2464   0.622   1.557   5.010
  635SOL    HW1 2465   0.624   1.639   5.060
  635SOL    HW2 2466   0.709   1.551   4.971
  636SOL     OW 2467   1.354   0.041   3.885
  636SOL    HW1 2468   1.385   5.298   3.805
  636SOL    HW2 2469   1.275   5.292   3.909
  637SOL     OW 2470   1.301   0.463   4.410
  637SOL    HW1 2471   1.246   0.541   4.416
  637SOL    HW2 2472   1.295   0.422   4.496
  638SOL     OW 2473   1.594   0.216   4.605
  638SOL    HW1 2474   1.526   0.227   4.672
  638SOL    HW2 2475   1.588   0.294   4.551
  639SOL     OW 2476   0.047   1.069   4.014
  639SOL    HW1 2477   0.137   1.039   4.004
  639SOL    HW2 2478   5.300   0.993   4.048
  640SOL     OW 2479   0.882   1.650   4.067
  640SOL    HW1 2480   0.811   1.634   4.006
  640SOL    HW2 2481   0.855   1.726   4.118
  641SOL     OW 2482   0.233   0.633   5.702
  641SOL    HW1 2483   0.155   0.609   5.752
  641SOL    HW2 2484   0.217   0.599   5.614
  642SOL     OW 2485   0.232   0.280   6.576
  642SOL    HW1 2486   0.252   0.245   6.662
  642SOL    HW2 2487   0.152   0.235   6.549
  643SOL     OW 2488   0.000   0.405   6.249
  643SOL    HW1 2489   5.207   0.426   6.254
  643SOL    HW2 2490   0.003   0.315   6.218
  644SOL     OW 2491   0.572   1.281   6.765
  644SOL    HW1 2492   0.489   1.290   6.718
  644SOL    HW2 2493   0.589   1.368   6.800
  645SOL     OW 2494   1.559   1.511   6.292
  645SOL    HW1 2495   1.515   1.493   6.375
  645SOL    HW2 2496   1.488   1.516   6.228
  646SOL     OW 2497   1.130   0.698   6.289
  646SOL    HW1 2498   1.180   0.779   6.274
  646SOL    HW2 2499   1.083   0.714   6.371
  647SOL     OW 2500   1.765   0.607   5.816
  647SOL    HW1 2501   1.746   0.599   5.722
  647SOL    HW2 2502   1.731   0.526   5.854
  648SOL     OW 2503   0.757   1.143   6.623
  648SOL    HW1 2504   0.689   1.176   6.682
  648SOL    HW2 2505   0.792   1.220   6.580
  649SOL     OW 2506   0.861   0.782   7.406
  649SOL    HW1 2507   0.854   0.857   7.465
  649SOL    HW2 2508   0.888   0.821   7.322
  650SOL     OW 2509   0.686   1.005   6.234
  650SOL    HW1 2510   0.751   0.991   6.303
  650SOL    HW2 2511   0.617   1.057   6.276
  651SOL     OW 2512   0.708   1.151   7.397
  651SOL    HW1 2513   0.756   1.230   7.422
  651SOL    HW2 2514   0.625   1.185   7.362
  652SOL     OW 2515   0.358   1.406   6.645
  652SOL    HW1 2516   0.270   1.405   6.607
  652SOL    HW2 2517   0.407   1.469   6.592
  653SOL     OW 2518   1.461   1.499   6.938
  653SOL    HW1 2519   1.508   1.581   6.947
  653SOL    HW2 2520   1.404   1.495   7.014
  654SOL     OW 2521   0.447   0.400   7.082
  654SOL    HW1 2522   0.526   0.347   7.073
  654SOL    HW2 2523   0.375   0.336   7.084
  655SOL     OW 2524   1.611   0.452   6.323
  655SOL    HW1 2525   1.536   0.478   6.271
  655SOL    HW2 2526   1.632   0.530   6.375
  656SOL     OW 2527   0.229   1.714   6.063
  656SOL    HW1 2528   0.265   1.782   6.121
  656SOL    HW2 2529   0.290   1.710   5.990
  657SOL     OW 2530   1.136   1.341   7.276
  657SOL    HW1 2531   1.176   1.338   7.363
  657SOL    HW2 2532   1.084   1.261   7.271
  658SOL     OW 2533   0.222   1.443   6.124
  658SOL    HW1 2534   0.213   1.538   6.123
  658SOL    HW2 2535   0.153   1.412   6.183
  659SOL     OW 2536   0.248   1.079   6.462
  659SOL    HW1 2537   0.259   0.994   6.506
  659SOL    HW2 2538   0.197   1.131   6.524
  660SOL     OW 2539   0.615   1.790   7.018
  660SOL    HW1 2540   0.531   1.773   7.061
  660SOL    HW2 2541   0.636   1.881   7.041
  661SOL     OW 2542   0.585   0.982   5.720
  661SOL    HW1 2543   0.630   1.031   5.651
  661SOL    HW2 2544   0.628   1.010   5.801
  662SOL     OW 2545   1.586   0.133   7.044
  662SOL    HW1 2546   1.604   0.219   7.004
  662SOL    HW2 2547   1.586   0.151   7.138
  663SOL     OW 2548   0.124   0.637   6.162
  663SOL    HW1 2549   0.089   0.554   6.194
  663SOL    HW2 2550   0.098   0.701   6.228
  664SOL     OW 2551   1.842   1.760   5.923
  664SOL    HW1 2552   1.904   1.731   5.989
  664SOL    HW2 2553   1.868   1.850   5.903
  665SOL     OW 2554   0.037   1.598   5.716
  665SOL    HW1 2555   0.024   1.507   5.741
  665SOL    HW2 2556   5.284   1.648   5.778
  666SOL     OW 2557   1.689   0.918   6.225
  666SOL    HW1 2558   1.774   0.878   6.205
  666SOL    HW2 2559   1.668   0.969   6.146
  667SOL     OW 2560   1.645   1.108   6.016
  667SOL    HW1 2561   1.730   1.115   5.973
  667SOL    HW2 2562   1.650   1.168   6.090
  668SOL     OW 2563   0.128   0.747   7.175
  668SOL    HW1 2564   0.223   0.763   7.178
  668SOL    HW2 2565   0.090   0.834   7.187
  669SOL     OW 2566   0.614   1.383   6.321
  669SOL    HW1 2567   0.567   1.301   6.331
  669SOL    HW2 2568   0.597   1.410   6.231
  670SOL     OW 2569   1.290   1.238   7.010
  670SOL    HW1 2570   1.322   1.171   6.950
  670SOL    HW2 2571   1.346   1.231   7.087
  671SOL     OW 2572   0.812   0.023   6.110
  671SOL    HW1 2573   0.840   0.112   6.088
  671SOL    HW2 2574   0.717   0.026   6.103
  672SOL     OW 2575   0.179   0.948   6.864
  672SOL    HW1 2576   0.269   0.920   6.852
  672SOL    HW2 2577   0.134   0.921   6.783
  673SOL     OW 2578   1.532   0.992   5.783
  673SOL    HW1 2579   1.462   0.935   5.814
  673SOL    HW2 2580   1.572   1.026   5.863
  674SOL     OW 2581   1.185   1.805   7.207
  674SOL    HW1 2582   1.198   1.863   7.132
  674SOL    HW2 2583   1.201   1.717   7.172
  675SOL     OW 2584   0.323   0.270   7.387
  675SOL    HW1 2585   0.385   0.335   7.421
  675SOL    HW2 2586   0.243   0.284   7.438
  676SOL     OW 2587   1.466   1.420   6.539
  676SOL    HW1 2588   1.398   1.434   6.604
  676SOL    HW2 2589   1.454   1.329   6.511
  677SOL     OW 2590   1.659   1.736   6.164
  677SOL    HW1 2591   1.639   1.707   6.075
  677SOL    HW2 2592   1.634   1.662   6.220
  678SOL     OW 2593   0.595   0.722   5.850
  678SOL    HW1 2594   0.604   0.802   5.799
  678SOL    HW2 2595   0.531   0.744   5.918
  679SOL     OW 2596   1.279   0.344   6.516
  679SOL    HW1 2597   1.188   0.316   6.529
  679SOL    HW2 2598   1.328   0.295   6.582
  680SOL     OW 2599   1.581   1.669   5.895
  680SOL    HW1 2600   1.671   1.702   5.889
  680SOL    HW2 2601   1.556   1.652   5.804
  681SOL     OW 2602   0.794   0.617   7.038
  681SOL    HW1 2603   0.766   0.596   7.127
  681SOL    HW2 2604   0.750   0.552   6.983
  682SOL     OW 2605   1.395   0.475   7.264
  682SOL    HW1 2606   1.396   0.519   7.348
  682SOL    HW2 2607   1.459   0.404   7.273
  683SOL     OW 2608   0.956   0.888   7.167
  683SOL    HW1 2609   1.011   0.817   7.132
  683SOL    HW2 2610   0.909   0.922   7.091
  684SOL     OW 2611   0.994   0.416   6.822
  684SOL    HW1 2612   0.910   0.439   6.863
  684SOL    HW2 2613   0.970   0.367   6.744
  685SOL     OW 2614   1.050   0.698   6.013
  685SOL    HW1 2615   1.065   0.691   6.107
  685SOL    HW2 2616   0.968   0.652   5.998
  686SOL     OW 2617   0.072   0.787   6.399
  686SOL    HW1 2618   0.156   0.793   6.446
  686SOL    HW2 2619   0.060   0.874   6.362
  687SOL     OW 2620   0.131   1.880   7.170
  687SOL    HW1 2621   0.131   1.848   7.260
  687SOL    HW2 2622   0.057   1.836   7.128
  688SOL     OW 2623   0.870   0.361   5.774
  688SOL    HW1 2624   0.917   0.421   5.716
  688SOL    HW2 2625   0.920   0.280   5.770
  689SOL     OW 2626   1.710   0.577   7.415
  689SOL    HW1 2627   1.672   0.652   7.369
  689SOL    HW2 2628   1.736   0.516   7.346
  690SOL     OW 2629   1.375   1.142   6.127
  690SOL    HW1 2630   1.454   1.129   6.075
  690SOL    HW2 2631   1.323   1.204   6.077
  691SOL     OW 2632   0.538   0.201   6.470
  691SOL    HW1 2633   0.555   0.218   6.563
  691SOL    HW2 2634   0.550   0.285   6.427
  692SOL     OW 2635   1.007   1.444   6.059
  692SOL    HW1 2636   0.968   1.516   6.010
  692SOL    HW2 2637   0.992   1.467   6.151
  693SOL     OW 2638   0.356   1.801   6.454
  693SOL    HW1 2639   0.398   1.716   6.467
  693SOL    HW2 2640   0.423   1.865   6.480
  694SOL     OW 2641   1.798   1.058   6.454
  694SOL    HW1 2642   1.743   1.042   6.378
  694SOL    HW2 2643   1.737   1.064   6.527
  695SOL     OW 2644   1.228   1.539   7.099
  695SOL    HW1 2645   1.214   1.466   7.159
  695SOL    HW2 2646   1.166   1.524   7.028
  696SOL     OW 2647   0.317   0.952   5.832
  696SOL    HW1 2648   0.399   0.976   5.790
  696SOL    HW2 2649   0.295   0.867   5.795
  697SOL     OW 2650   1.477   0.740   6.314
  697SOL    HW1 2651   1.467   0.696   6.398
  697SOL    HW2 2652   1.554   0.796   6.324
  698SOL     OW 2653   0.464   1.261   7.323
  698SOL    HW1 2654   0.436   1.269   7.232
  698SOL    HW2 2655   0.382   1.264   7.373
  699SOL     OW 2656   1.121   1.778   5.817
  699SOL    HW1 2657   1.049   1.734   5.864
  699SOL    HW2 2658   1.143   1.717   5.746
  700SOL     OW 2659   0.198   0.278   7.077
  700SOL    HW1 2660   0.155   0.364   7.075
  700SOL    HW2 2661   0.205   0.258   7.170
  701SOL     OW 2662   1.628   1.379   5.674
  701SOL    HW1 2663   1.588   1.464   5.658
  701SOL    HW2 2664   1.559   1.316   5.654
  702SOL     OW 2665   0.471   1.735   5.907
  702SOL    HW1 2666   0.512   1.793   5.970
  702SOL    HW2 2667   0.543   1.707   5.850
  703SOL     OW 2668   1.406   0.099   6.017
  703SOL    HW1 2669   1.397   0.082   5.923
  703SOL    HW2 2670   1.498   0.122   6.028
  704SOL     OW 2671   0.274   1.801   6.803
  704SOL    HW1 2672   0.307   1.726   6.852
  704SOL    HW2 2673   0.226   1.763   6.729
  705SOL     OW 2674   0.939   1.698   6.486
  705SOL    HW1 2675   1.016   1.646   6.506
  705SOL    HW2 2676   0.893   1.649   6.417
  706SOL     OW 2677   0.385   0.696   6.065
  706SOL    HW1 2678   0.415   0.605   6.073
  706SOL    HW2 2679   0.292   0.692   6.087
  707SOL     OW 2680   1.540   0.228   7.311
  707SOL    HW1 2681   1.546   0.246   7.405
  707SOL    HW2 2682   1.466   0.168   7.303
  708SOL     OW 2683   0.621   0.133   5.693
  708SOL    HW1 2684   0.691   0.072   5.716
  708SOL    HW2 2685   0.575   0.090   5.621
  709SOL     OW 2686   0.782   0.312   7.349
  709SOL    HW1 2687   0.843   0.238   7.352
  709SOL    HW2 2688   0.739   0.312   7.434
  710SOL     OW 2689   0.877   1.521   6.779
  710SOL    HW1 2690   0.862   1.485   6.692
  710SOL    HW2 2691   0.947   1.466   6.816
  711SOL     OW 2692   1.341   0.589   7.018
  711SOL    HW1 2693   1.372   0.557   7.103
  711SOL    HW2 2694   1.377   0.677   7.011
  712SOL     OW 2695   0.814   1.396   6.523
  712SOL    HW1 2696   0.898   1.386   6.479
  712SOL    HW2 2697   0.749   1.396   6.453
  713SOL     OW 2698   0.927   0.510   6.490
  713SOL    HW1 2699   0.903   0.502   6.397
  713SOL    HW2 2700   0.959   0.423   6.514
  714SOL     OW 2701   0.547   0.059   6.091
  714SOL    HW1 2702   0.468   0.060   6.144
  714SOL    HW2 2703   0.536   0.132   6.030
  715SOL     OW 2704   1.428   1.198   5.627
  715SOL    HW1 2705   1.459   1.122   5.677
  715SOL    HW2 2706   1.343   1.218   5.665
  716SOL     OW 2707   0.312   0.061   5.770
  716SOL    HW1 2708   0.378   0.127   5.747
  716SOL    HW2 2709   0.363   5.282   5.788
  717SOL     OW 2710   0.939   0.259   6.049
  717SOL    HW1 2711   0.910   0.298   5.966
  717SOL    HW2 2712   1.034   0.271   6.050
  718SOL     OW 2713   1.080   0.680   7.046
  718SOL    HW1 2714   1.011   0.614   7.052
  718SOL    HW2 2715   1.161   0.629   7.039
  719SOL     OW 2716   1.224   1.569   6.379
  719SOL    HW1 2717   1.241   1.637   6.314
  719SOL    HW2 2718   1.292   1.582   6.446
  720SOL     OW 2719   0.466   1.149   6.320
  720SOL    HW1 2720   0.397   1.130   6.382
  720SOL    HW2 2721   0.427   1.131   6.234
  721SOL     OW 2722   1.270   1.795   6.193
  721SOL    HW1 2723   1.315   1.856   6.134
  721SOL    HW2 2724   1.205   1.848   6.238
  722SOL     OW 2725   1.027   0.548   5.607
  722SOL    HW1 2726   0.985   0.631   5.588
  722SOL    HW2 2727   1.091   0.567   5.676
  723SOL     OW 2728   0.095   0.533   6.995
  723SOL    HW1 2729   0.176   0.551   6.948
  723SOL    HW2 2730   0.076   0.614   7.042
  724SOL     OW 2731   0.560   0.238   6.744
  724SOL    HW1 2732   0.591   0.151   6.769
  724SOL    HW2 2733   0.468   0.239   6.767
  725SOL     OW 2734   0.868   0.462   6.227
  725SOL    HW1 2735   0.822   0.515   6.162
  725SOL    HW2 2736   0.890   0.381   6.181
  726SOL     OW 2737   0.979   0.060   6.347
  726SOL    HW1 2738   0.914   0.053   6.278
  726SOL    HW2 2739   0.987   5.271   6.382
  727SOL     OW 2740   1.436   1.163   6.444
  727SOL    HW1 2741   1.368   1.096   6.441
  727SOL    HW2 2742   1.461   1.176   6.352
  728SOL     OW 2743   1.467   0.604   6.566
  728SOL    HW1 2744   1.419   0.521   6.570
  728SOL    HW2 2745   1.528   0.600   6.639
  729SOL     OW 2746   1.846   0.818   5.968
  729SOL    HW1 2747   1.902   0.766   6.026
  729SOL    HW2 2748   1.818   0.756   5.901
  730SOL     OW 2749   0.492   1.415   5.746
  730SOL    HW1 2750   0.417   1.387   5.798
  730SOL    HW2 2751   0.473   1.386   5.657
  731SOL     OW 2752   1.669   1.264   6.234
  731SOL    HW1 2753   1.763   1.269   6.246
  731SOL    HW2 2754   1.638   1.353   6.254
  732SOL     OW 2755   1.394   0.572   5.657
  732SOL    HW1 2756   1.333   0.553   5.729
  732SOL    HW2 2757   1.479   0.541   5.688
  733SOL     OW 2758   0.523   0.264   5.907
  733SOL    HW1 2759   0.568   0.215   5.838
  733SOL    HW2 2760   0.505   0.350   5.868
  734SOL     OW 2761   1.753   1.237   7.161
  734SOL    HW1 2762   1.841   1.199   7.157
  734SOL    HW2 2763   1.768   1.327   7.191
  735SOL     OW 2764   1.060   1.353   6.920
  735SOL    HW1 2765   0.985   1.322   6.971
  735SOL    HW2 2766   1.136   1.312   6.961
  736SOL     OW 2767   1.606   1.625   7.237
  736SOL    HW1 2768   1.603   1.659   7.148
  736SOL    HW2 2769   1.690   1.578   7.242
  737SOL     OW 2770   1.126   1.201   6.692
  737SOL    HW1 2771   1.069   1.241   6.758
  737SOL    HW2 2772   1.093   1.234   6.609
  738SOL     OW 2773   1.630   1.099   6.664
  738SOL    HW1 2774   1.625   1.161   6.737
  738SOL    HW2 2775   1.550   1.116   6.614
  739SOL     OW 2776   0.906   0.106   6.978
  739SOL    HW1 2777   0.936   0.072   6.894
  739SOL    HW2 2778   0.983   0.148   7.016
  740SOL     OW 2779   0.984   1.114   7.310
  740SOL    HW1 2780   0.892   1.131   7.327
  740SOL    HW2 2781   0.984   1.037   7.253
  741SOL     OW 2782   0.707   1.059   5.959
  741SOL    HW1 2783   0.696   1.045   6.053
  741SOL    HW2 2784   0.784   1.007   5.935
  742SOL     OW 2785   0.420   0.818   6.838
  742SOL    HW1 2786   0.489   0.824   6.903
  742SOL    HW2 2787   0.385   0.730   6.849
  743SOL     OW 2788   1.268   0.380   6.857
  743SOL    HW1 2789   1.300   0.456   6.904
  743SOL    HW2 2790   1.178   0.402   6.834
  744SOL     OW 2791   0.100   1.623   6.954
  744SOL    HW1 2792   0.077   1.634   6.862
  744SOL    HW2 2793   0.186   1.581   6.952
  745SOL     OW 2794   0.345   1.104   6.075
  745SOL    HW1 2795   0.356   1.183   6.022
  745SOL    HW2 2796   0.357   1.032   6.013
  746SOL     OW 2797   0.556   0.538   6.446
  746SOL    HW1 2798   0.572   0.596   6.372
  746SOL    HW2 2799   0.620   0.566   6.512
  747SOL     OW 2800   1.248   1.348   5.975
  747SOL    HW1 2801   1.303   1.420   6.006
  747SOL    HW2 2802   1.161   1.369   6.009
  748SOL     OW 2803   1.279   1.456   6.732
  748SOL    HW1 2804   1.334   1.459   6.810
  748SOL    HW2 2805   1.223   1.379   6.745
  749SOL     OW 2806   1.583   0.624   6.063
  749SOL    HW1 2807   1.538   0.680   6.126
  749SOL    HW2 2808   1.629   0.685   6.005
  750SOL     OW 2809   0.352   1.518   6.898
  750SOL    HW1 2810   0.342   1.475   6.813
  750SOL    HW2 2811   0.445   1.537   6.905
  751SOL     OW 2812   0.413   0.742   7.188
  751SOL    HW1 2813   0.471   0.791   7.130
  751SOL    HW2 2814   0.460   0.659   7.203
  752SOL     OW 2815   1.599   0.777   7.266
  752SOL    HW1 2816   1.513   0.818   7.259
  752SOL    HW2 2817   1.651   0.820   7.198
  753SOL     OW 2818   1.038   0.114   7.367
  753SOL    HW1 2819   1.065   0.194   7.321
  753SOL    HW2 2820   1.049   0.044   7.302
  754SOL     OW 2821   0.482   0.058   7.325
  754SOL    HW1 2822   0.430   5.290   7.283
  754SOL    HW2 2823   0.420   0.129   7.343
  755SOL     OW 2824   0.585   0.873   6.618
  755SOL    HW1 2825   0.616   0.964   6.615
  755SOL    HW2 2826   0.528   0.869   6.695
  756SOL     OW 2827   1.360   0.859   6.618
  756SOL    HW1 2828   1.278   0.851   6.569
  756SOL    HW2 2829   1.398   0.771   6.614
  757SOL     OW 2830   1.207   0.529   5.855
  757SOL    HW1 2831   1.211   0.448   5.906
  757SOL    HW2 2832   1.165   0.592   5.913
  758SOL     OW 2833   0.305   0.207   6.830
  758SOL    HW1 2834   0.265   0.237   6.912
  758SOL    HW2 2835   0.296   0.111   6.833
  759SOL     OW 2836   0.071   1.319   6.867
  759SOL    HW1 2837   0.090   1.259   6.939
  759SOL    HW2 2838   0.005   1.379   6.902
  760SOL     OW 2839   0.727   0.632   6.648
  760SOL    HW1 2840   0.799   0.614   6.588
  760SOL    HW2 2841   0.699   0.721   6.624
  761SOL     OW 2842   1.734   0.959   7.437
  761SOL    HW1 2843   1.685   0.902   7.379
  761SOL    HW2 2844   1.676   0.972   7.512
  762SOL     OW 2845   0.317   0.068   6.237
  762SOL    HW1 2846   0.299   0.161   6.248
  762SOL    HW2 2847   0.317   0.032   6.326
  763SOL     OW 2848   1.610   0.373   5.953
  763SOL    HW1 2849   1.644   0.310   6.017
  763SOL    HW2 2850   1.590   0.451   6.004
  764SOL     OW 2851   1.027   0.760   6.547
  764SOL    HW1 2852   1.026   0.777   6.641
  764SOL    HW2 2853   1.000   0.668   6.540
  765SOL     OW 2854   0.982   1.565   7.301
  765SOL    HW1 2855   0.967   1.610   7.218
  765SOL    HW2 2856   1.026   1.484   7.277
  766SOL     OW 2857   1.855   1.508   7.192
  766SOL    HW1 2858   1.873   1.534   7.101
  766SOL    HW2 2859   1.937   1.527   7.238
  767SOL     OW 2860   0.353   0.914   7.395
  767SOL    HW1 2861   0.435   0.937   7.438
  767SOL    HW2 2862   0.379   0.852   7.326
  768SOL     OW 2863   1.528   0.273   5.712
  768SOL    HW1 2864   1.464   0.208   5.743
  768SOL    HW2 2865   1.563   0.311   5.793
  769SOL     OW 2866   1.293   0.827   5.618
  769SOL    HW1 2867   1.336   0.741   5.621
  769SOL    HW2 2868   1.324   0.866   5.537
  770SOL     OW 2869   1.065   1.335   6.439
  770SOL    HW1 2870   1.068   1.262   6.377
  770SOL    HW2 2871   1.128   1.399   6.405
  771SOL     OW 2872   0.315   0.811   6.536
  771SOL    HW1 2873   0.409   0.829   6.532
  771SOL    HW2 2874   0.310   0.721   6.567
  772SOL     OW 2875   0.337   0.525   6.601
  772SOL    HW1 2876   0.299   0.439   6.584
  772SOL    HW2 2877   0.412   0.531   6.541
  773SOL     OW 2878   1.136   0.378   7.272
  773SOL    HW1 2879   1.089   0.433   7.335
  773SOL    HW2 2880   1.224   0.416   7.267
  774SOL     OW 2881   1.135   0.223   7.051
  774SOL    HW1 2882   1.140   0.281   7.127
  774SOL    HW2 2883   1.190   0.265   6.985
  775SOL     OW 2884   0.001   1.331   5.796
  775SOL    HW1 2885   5.225   1.323   5.739
  775SOL    HW2 2886   0.012   1.244   5.835
  776SOL     OW 2887   0.091   1.782   6.535
  776SOL    HW1 2888   0.058   1.710   6.481
  776SOL    HW2 2889   0.179   1.800   6.500
  777SOL     OW 2890   0.505   1.573   6.493
  777SOL    HW1 2891   0.573   1.638   6.513
  777SOL    HW2 2892   0.549   1.511   6.435
  778SOL     OW 2893   0.986   0.794   6.813
  778SOL    HW1 2894   1.040   0.769   6.888
  778SOL    HW2 2895   0.900   0.757   6.833
  779SOL     OW 2896   0.036   0.561   6.702
  779SOL    HW1 2897   0.120   0.532   6.666
  779SOL    HW2 2898   0.040   0.535   6.794
  780SOL     OW 2899   0.171   0.512   7.298
  780SOL    HW1 2900   0.253   0.494   7.253
  780SOL    HW2 2901   0.138   0.592   7.257
  781SOL     OW 2902   1.376   0.940   7.245
  781SOL    HW1 2903   1.397   1.034   7.245
  781SOL    HW2 2904   1.374   0.916   7.153
  782SOL     OW 2905   0.814   0.571   5.945
  782SOL    HW1 2906   0.818   0.496   5.885
  782SOL    HW2 2907   0.740   0.623   5.914
  783SOL     OW 2908   1.643   0.601   6.774
  783SOL    HW1 2909   1.631   0.542   6.848
  783SOL    HW2 2910   1.730   0.580   6.739
  784SOL     OW 2911   0.256   1.556   7.322
  784SOL    HW1 2912   0.232   1.617   7.392
  784SOL    HW2 2913   0.249   1.470   7.363
  785SOL     OW 2914   0.693   0.454   6.849
  785SOL    HW1 2915   0.646   0.379   6.813
  785SOL    HW2 2916   0.695   0.518   6.777
  786SOL     OW 2917   0.930   1.679   7.052
  786SOL    HW1 2918   0.902   1.647   6.966
  786SOL    HW2 2919   0.927   1.774   7.045
  787SOL     OW 2920   0.465   0.493   5.768
  787SOL    HW1 2921   0.527   0.563   5.790
  787SOL    HW2 2922   0.380   0.537   5.763
  788SOL     OW 2923   0.149   1.138   7.057
  788SOL    HW1 2924   0.148   1.087   7.139
  788SOL    HW2 2925   0.162   1.072   6.989
  789SOL     OW 2926   1.328   1.048   6.810
  789SOL    HW1 2927   1.352   0.985   6.742
  789SOL    HW2 2928   1.256   1.099   6.772
  790SOL     OW 2929   1.309   0.856   5.893
  790SOL    HW1 2930   1.233   0.826   5.942
  790SOL    HW2 2931   1.286   0.843   5.801
  791SOL     OW 2932   1.769   1.746   6.735
  791SOL    HW1 2933   1.830   1.772   6.665
  791SOL    HW2 2934   1.746   1.656   6.714
  792SOL     OW 2935   1.241   1.733   6.701
  792SOL    HW1 2936   1.323   1.752   6.655
  792SOL    HW2 2937   1.246   1.639   6.719
  793SOL     OW 2938   0.083   1.220   6.613
  793SOL    HW1 2939   0.069   1.245   6.705
  793SOL    HW2 2940   5.295   1.208   6.578
  794SOL     OW 2941   0.677   1.663   7.311
  794SOL    HW1 2942   0.625   1.744   7.309
  794SOL    HW2 2943   0.742   1.675   7.241
  795SOL     OW 2944   1.713   0.146   6.090
  795SOL    HW1 2945   1.789   0.126   6.036
  795SOL    HW2 2946   1.705   0.071   6.149
  796SOL     OW 2947   1.390   1.568   6.069
  796SOL    HW1 2948   1.451   1.599   6.002
  796SOL    HW2 2949   1.342   1.646   6.097
  797SOL     OW 2950   0.140   1.799   7.429
  797SOL    HW1 2951   0.088   1.735   7.478
  797SOL    HW2 2952   0.192   1.843   7.497
  798SOL     OW 2953   1.277   0.925   6.257
  798SOL    HW1 2954   1.351   0.864   6.263
  798SOL    HW2 2955   1.310   0.998   6.205
  799SOL     OW 2956   0.817   1.272   7.017
  799SOL    HW1 2957   0.789   1.312   7.100
  799SOL    HW2 2958   0.747   1.294   6.956
  800SOL     OW 2959   0.672   1.618   5.741
  800SOL    HW1 2960   0.682   1.629   5.647
  800SOL    HW2 2961   0.619   1.539   5.750
  801SOL     OW 2962   1.630   1.726   6.977
  801SOL    HW1 2963   1.678   1.734   6.895
  801SOL    HW2 2964   1.616   1.817   7.006
  802SOL     OW 2965   1.845   0.159   6.544
  802SOL    HW1 2966   1.848   0.065   6.525
  802SOL    HW2 2967   1.757   0.186   6.517
  803SOL     OW 2968   0.270   0.328   6.305
  803SOL    HW1 2969   0.184   0.366   6.287
  803SOL    HW2 2970   0.270   0.312   6.399
  804SOL     OW 2971   1.206   1.607   5.617
  804SOL    HW1 2972   1.198   1.516   5.644
  804SOL    HW2 2973   1.141   1.618   5.547
  805SOL     OW 2974   0.824   1.006   6.958
  805SOL    HW1 2975   0.868   1.002   6.873
  805SOL    HW2 2976   0.824   1.098   6.981
  806SOL     OW 2977   0.915   0.910   5.876
  806SOL    HW1 2978   0.976   0.942   5.809
  806SOL    HW2 2979   0.962   0.840   5.921
  807SOL     OW 2980   1.494   1.624   5.628
  807SOL    HW1 2981   1.399   1.620   5.615
  807SOL    HW2 2982   1.530   1.631   5.540
  808SOL     OW 2983   0.368   1.303   7.079
  808SOL    HW1 2984   0.359   1.378   7.021
  808SOL    HW2 2985   0.292   1.249   7.059
  809SOL     OW 2986   1.611   1.283   6.867
  809SOL    HW1 2987   1.671   1.274   6.941
  809SOL    HW2 2988   1.551   1.353   6.893
  810SOL     OW 2989   1.049   1.106   6.291
  810SOL    HW1 2990   0.979   1.054   6.331
  810SOL    HW2 2991   1.111   1.041   6.258
  811SOL     OW 2992   1.020   0.242   6.553
  811SOL    HW1 2993   1.000   0.196   6.472
  811SOL    HW2 2994   1.012   0.175   6.621
  812SOL     OW 2995   0.600   1.487   6.068
  812SOL    HW1 2996   0.644   1.439   5.998
  812SOL    HW2 2997   0.536   1.542   6.023
  813SOL     OW 2998   1.722   0.387   6.965
  813SOL    HW1 2999   1.792   0.453   6.964
  813SOL    HW2 3000   1.755   0.318   6.907
  814SOL     OW 3001   0.259   1.348   5.877
  814SOL    HW1 3002   0.166   1.351   5.855
  814SOL    HW2 3003   0.264   1.385   5.965
  815SOL     OW 3004   0.115   1.014   7.303
  815SOL    HW1 3005   0.042   0.985   7.358
  815SOL    HW2 3006   0.194   0.983   7.349
  816SOL     OW 3007   0.673   0.212   7.074
  816SOL    HW1 3008   0.757   0.195   7.031
  816SOL    HW2 3009   0.697   0.258   7.155
  817SOL     OW 3010   0.078   0.339   5.623
  817SOL    HW1 3011   5.287   0.311   5.609
  817SOL    HW2 3012   0.093   0.406   5.557
  818SOL     OW 3013   1.431   0.858   6.987
  818SOL    HW1 3014   1.383   0.919   6.931
  818SOL    HW2 3015   1.521   0.861   6.954
  819SOL     OW 3016   0.082   0.140   5.881
  819SOL    HW1 3017   0.076   0.234   5.863
  819SOL    HW2 3018   0.169   0.116   5.850
  820SOL     OW 3019   1.180   1.341   5.703
  820SOL    HW1 3020   1.089   1.311   5.706
  820SOL    HW2 3021   1.208   1.341   5.794
  821SOL     OW 3022   0.619   0.831   7.020
  821SOL    HW1 3023   0.673   0.908   7.005
  821SOL    HW2 3024   0.681   0.759   7.028
  822SOL     OW 3025   1.485   1.775   6.563
  822SOL    HW1 3026   1.509   1.833   6.491
  822SOL    HW2 3027   1.566   1.758   6.609
  823SOL     OW 3028   0.713   0.572   7.291
  823SOL    HW1 3029   0.754   0.636   7.350
  823SOL    HW2 3030   0.748   0.488   7.319
  824SOL     OW 3031   1.470   1.202   7.219
  824SOL    HW1 3032   1.457   1.215   7.313
  824SOL    HW2 3033   1.563   1.215   7.204
  825SOL     OW 3034   0.380   1.742   7.149
  825SOL    HW1 3035   0.297   1.787   7.135
  825SOL    HW2 3036   0.356   1.660   7.194
  826SOL     OW 3037   1.671   0.882   6.841
  826SOL    HW1 3038   1.663   0.797   6.798
  826SOL    HW2 3039   1.662   0.945   6.771
  827SOL     OW 3040   1.221   0.320   6.052
  827SOL    HW1 3041   1.284   0.249   6.044
  827SOL    HW2 3042   1.251   0.371   6.127
  828SOL     OW 3043   0.591   0.739   6.254
  828SOL    HW1 3044   0.630   0.825   6.238
  828SOL    HW2 3045   0.521   0.732   6.189
  829SOL     OW 3046   1.767   0.360   7.235
  829SOL    HW1 3047   1.748   0.375   7.142
  829SOL    HW2 3048   1.696   0.305   7.266
  830SOL     OW 3049   1.743   0.933   7.099
  830SOL    HW1 3050   1.744   1.028   7.112
  830SOL    HW2 3051   1.729   0.923   7.005
  831SOL     OW 3052   0.862   1.368   5.617
  831SOL    HW1 3053   0.823   1.396   5.700
  831SOL    HW2 3054   0.882   1.449   5.571
  832SOL     OW 3055   0.662   1.795   6.532
  832SOL    HW1 3056   0.640   1.885   6.508
  832SOL    HW2 3057   0.757   1.790   6.525
  833SOL     OW 3058   0.866   0.965   6.441
  833SOL    HW1 3059   0.917   0.895   6.482
  833SOL    HW2 3060   0.833   1.016   6.515
  834SOL     OW 3061   1.078   0.986   5.674
  834SOL    HW1 3062   1.058   1.038   5.596
  834SOL    HW2 3063   1.154   0.935   5.649
  835SOL     OW 3064   1.855   1.556   6.431
  835SOL    HW1 3065   1.778   1.544   6.375
  835SOL    HW2 3066   1.847   1.488   6.498
  836SOL     OW 3067   0.224   1.305   7.445
  836SOL    HW1 3068   0.154   1.245   7.419
  836SOL    HW2 3069   0.212   1.317   7.539
  837SOL     OW 3070   0.086   1.222   6.240
  837SOL    HW1 3071   0.097   1.189   6.329
  837SOL    HW2 3072   0.172   1.210   6.199
  838SOL     OW 3073   0.680   1.400   7.213
  838SOL    HW1 3074   0.599   1.359   7.243
  838SOL    HW2 3075   0.676   1.489   7.248
  839SOL     OW 3076   1.817   0.179   6.820
  839SOL    HW1 3077   1.786   0.089   6.829
  839SOL    HW2 3078   1.831   0.191   6.726
  840SOL     OW 3079   0.432   0.435   6.108
  840SOL    HW1 3080   0.463   0.361   6.055
  840SOL    HW2 3081   0.387   0.395   6.182
  841SOL     OW 3082   1.701   1.491   6.685
  841SOL    HW1 3083   1.620   1.466   6.640
  841SOL    HW2 3084   1.715   1.422   6.750
  842SOL     OW 3085   0.334   0.558   6.874
  842SOL    HW1 3086   0.392   0.501   6.926
  842SOL    HW2 3087   0.349   0.532   6.784
  843SOL     OW 3088   0.827   1.577   6.265
  843SOL    HW1 3089   0.818   1.628   6.184
  843SOL    HW2 3090   0.749   1.522   6.267
  844SOL     OW 3091   1.428   0.218   6.702
  844SOL    HW1 3092   1.466   0.144   6.751
  844SOL    HW2 3093   1.380   0.267   6.769
  845SOL     OW 3094   1.002   0.022   6.729
  845SOL    HW1 3095   0.951   5.252   6.686
  845SOL    HW2 3096   1.089   5.285   6.741
  846SOL     OW 3097   0.771   1.332   5.899
  846SOL    HW1 3098   0.740   1.242   5.905
  846SOL    HW2 3099   0.854   1.332   5.947
  847SOL     OW 3100   0.622   1.557   6.872
  847SOL    HW1 3101   0.624   1.639   6.922
  847SOL    HW2 3102   0.709   1.551   6.833
  848SOL     OW 3103   1.354   0.041   5.747
  848SOL    HW1 3104   1.385   5.298   5.667
  848SOL    HW2 3105   1.275   5.292   5.771
  849SOL     OW 3106   1.301   0.463   6.272
  849SOL    HW1 3107   1.246   0.541   6.278
  849SOL    HW2 3108   1.295   0.422   6.358
  850SOL     OW 3109   1.594   0.216   6.467
  850SOL    HW1 3110   1.526   0.227   6.534
  850SOL    HW2 3111   1.588   0.294   6.413
  851SOL     OW 3112   0.047   1.069   5.877
  851SOL    HW1 3113   0.137   1.039   5.866
  851SOL    HW2 3114   5.300   0.993   5.910
  852SOL     OW 3115   0.882   1.650   5.930
  852SOL    HW1 3116   0.811   1.634   5.868
  852SOL    HW2 3117   0.855   1.726   5.980
  853SOL     OW 3118   0.229   0.631   7.566
  853SOL    HW1 3119   0.149   0.600   7.607
  853SOL    HW2 3120   0.223   0.602   7.475
  854SOL     OW 3121   1.767   0.600   7.680
  854SOL    HW1 3122   1.747   0.595   7.586
  854SOL    HW2 3123   1.725   0.522   7.718
  855SOL     OW 3124   0.227   1.710   7.920
  855SOL    HW1 3125   0.264   1.753   7.997
  855SOL    HW2 3126   0.298   1.713   7.855
  856SOL     OW 3127   0.218   1.436   7.990
  856SOL    HW1 3128   0.207   1.531   7.986
  856SOL    HW2 3129   0.155   1.407   8.055
  857SOL     OW 3130   0.585   0.982   7.579
  857SOL    HW1 3131   0.629   1.032   7.510
  857SOL    HW2 3132   0.627   1.012   7.660
  858SOL     OW 3133   1.836   1.760   7.798
  858SOL    HW1 3134   1.906   1.729   7.856
  858SOL    HW2 3135   1.864   1.848   7.773
  859SOL     OW 3136   0.037   1.601   7.580
  859SOL    HW1 3137   0.026   1.508   7.600
  859SOL    HW2 3138   5.279   1.645   7.643
  860SOL     OW 3139   1.684   0.870   8.037
  860SOL    HW1 3140   1.766   0.882   0.004
  860SOL    HW2 3141   1.671   0.953   7.991
  861SOL     OW 3142   1.654   1.100   7.876
  861SOL    HW1 3143   1.741   1.125   7.844
  861SOL    HW2 3144   1.629   1.170   7.936
  862SOL     OW 3145   0.809   5.292   7.944
  862SOL    HW1 3146   0.850   0.078   7.931
  862SOL    HW2 3147   0.715   0.010   7.943
  863SOL     OW 3148   1.533   0.993   7.647
  863SOL    HW1 3149   1.466   0.934   7.680
  863SOL    HW2 3150   1.575   1.028   7.726
  864SOL     OW 3151   0.589   0.723   7.707
  864SOL    HW1 3152   0.599   0.804   7.657
  864SOL    HW2 3153   0.533   0.748   7.781
  865SOL     OW 3154   1.575   1.670   7.757
  865SOL    HW1 3155   1.665   1.700   7.765
  865SOL    HW2 3156   1.563   1.656   7.663
  866SOL     OW 3157   0.052   0.816   0.203
  866SOL    HW1 3158   0.126   0.770   0.163
  866SOL    HW2 3159   0.029   0.884   0.140
  867SOL     OW 3160   0.865   0.354   7.630
  867SOL    HW1 3161   0.914   0.418   7.580
  867SOL    HW2 3162   0.924   0.279   7.638
  868SOL     OW 3163   0.320   0.949   7.694
  868SOL    HW1 3164   0.401   0.976   7.650
  868SOL    HW2 3165   0.297   0.866   7.652
  869SOL     OW 3166   1.122   1.776   7.682
  869SOL    HW1 3167   1.047   1.735   7.724
  869SOL    HW2 3168   1.145   1.716   7.611
  870SOL     OW 3169   1.629   1.379   7.533
  870SOL    HW1 3170   1.587   1.465   7.520
  870SOL    HW2 3171   1.560   1.316   7.516
  871SOL     OW 3172   0.469   1.737   7.769
  871SOL    HW1 3173   0.514   1.791   7.834
  871SOL    HW2 3174   0.540   1.705   7.712
  872SOL     OW 3175   1.407   0.106   7.881
  872SOL    HW1 3176   1.401   0.083   7.788
  872SOL    HW2 3177   1.501   0.112   7.898
  873SOL     OW 3178   0.378   0.698   7.921
  873SOL    HW1 3179   0.404   0.605   7.924
  873SOL    HW2 3180   0.289   0.699   7.956
  874SOL     OW 3181   0.616   0.131   7.559
  874SOL    HW1 3182   0.693   0.078   7.577
  874SOL    HW2 3183   0.574   0.088   7.484
  875SOL     OW 3184   0.545   0.062   7.953
  875SOL    HW1 3185   0.453   0.048   7.977
  875SOL    HW2 3186   0.542   0.135   7.891
  876SOL     OW 3187   1.428   1.197   7.489
  876SOL    HW1 3188   1.459   1.123   7.541
  876SOL    HW2 3189   1.344   1.220   7.528
  877SOL     OW 3190   0.312   0.067   7.650
  877SOL    HW1 3191   0.371   0.123   7.600
  877SOL    HW2 3192   0.359   5.284   7.659
  878SOL     OW 3193   0.950   0.229   7.909
  878SOL    HW1 3194   0.899   0.298   7.866
  878SOL    HW2 3195   1.038   0.265   7.917
  879SOL     OW 3196   0.447   1.156   0.093
  879SOL    HW1 3197   0.374   1.177   0.151
  879SOL    HW2 3198   0.406   1.139   0.008
  880SOL     OW 3199   1.289   1.810   8.015
  880SOL    HW1 3200   1.324   1.879   7.959
  880SOL    HW2 3201   1.209   1.847   8.051
  881SOL     OW 3202   1.028   0.548   7.465
  881SOL    HW1 3203   0.985   0.632   7.450
  881SOL    HW2 3204   1.088   0.565   7.538
  882SOL     OW 3205   1.869   0.819   7.802
  882SOL    HW1 3206   1.873   0.785   7.892
  882SOL    HW2 3207   1.828   0.748   7.752
  883SOL     OW 3208   0.491   1.413   7.608
  883SOL    HW1 3209   0.416   1.385   7.660
  883SOL    HW2 3210   0.470   1.386   7.518
  884SOL     OW 3211   1.393   0.571   7.519
  884SOL    HW1 3212   1.332   0.552   7.591
  884SOL    HW2 3213   1.478   0.539   7.550
  885SOL     OW 3214   0.524   0.269   7.773
  885SOL    HW1 3215   0.565   0.216   7.705
  885SOL    HW2 3216   0.505   0.352   7.730
  886SOL     OW 3217   0.708   1.059   7.814
  886SOL    HW1 3218   0.694   1.051   7.909
  886SOL    HW2 3219   0.787   1.008   7.798
  887SOL     OW 3220   0.348   1.093   7.931
  887SOL    HW1 3221   0.349   1.178   7.885
  887SOL    HW2 3222   0.352   1.028   7.860
  888SOL     OW 3223   1.226   1.356   7.821
  888SOL    HW1 3224   1.289   1.422   7.848
  888SOL    HW2 3225   1.180   1.333   7.902
  889SOL     OW 3226   1.589   0.629   7.921
  889SOL    HW1 3227   1.570   0.687   7.995
  889SOL    HW2 3228   1.628   0.686   7.855
  890SOL     OW 3229   1.204   0.527   7.717
  890SOL    HW1 3230   1.207   0.440   7.757
  890SOL    HW2 3231   1.181   0.586   7.789
  891SOL     OW 3232   1.615   0.375   7.815
  891SOL    HW1 3233   1.636   0.308   7.880
  891SOL    HW2 3234   1.591   0.451   7.868
  892SOL     OW 3235   1.529   0.273   7.575
  892SOL    HW1 3236   1.466   0.208   7.605
  892SOL    HW2 3237   1.565   0.311   7.656
  893SOL     OW 3238   1.295   0.828   7.482
  893SOL    HW1 3239   1.336   0.741   7.484
  893SOL    HW2 3240   1.325   0.867   7.400
  894SOL     OW 3241   0.003   1.333   7.656
  894SOL    HW1 3242   5.219   1.332   7.610
  894SOL    HW2 3243   0.013   1.244   7.690
  895SOL     OW 3244   0.834   0.595   7.767
  895SOL    HW1 3245   0.825   0.506   7.734
  895SOL    HW2 3246   0.745   0.631   7.765
  896SOL     OW 3247   0.462   0.493   7.634
  896SOL    HW1 3248   0.524   0.564   7.651
  896SOL    HW2 3249   0.378   0.537   7.625
  897SOL     OW 3250   1.311   0.851   7.755
  897SOL    HW1 3251   1.224   0.849   7.795
  897SOL    HW2 3252   1.294   0.841   7.662
  898SOL     OW 3253   1.708   0.129   7.946
  898SOL    HW1 3254   1.784   0.130   7.888
  898SOL    HW2 3255   1.738   0.082   8.024
  899SOL     OW 3256   1.366   1.576   7.898
  899SOL    HW1 3257   1.440   1.597   7.841
  899SOL    HW2 3258   1.334   1.661   7.928
  900SOL     OW 3259   0.668   1.618   7.604
  900SOL    HW1 3260   0.680   1.629   7.509
  900SOL    HW2 3261   0.617   1.537   7.613
  901SOL     OW 3262   1.208   1.608   7.478
  901SOL    HW1 3263   1.198   1.517   7.506
  901SOL    HW2 3264   1.141   1.619   7.410
  902SOL     OW 3265   0.924   0.912   7.753
  902SOL    HW1 3266   0.979   0.937   7.679
  902SOL    HW2 3267   0.926   0.816   7.754
  903SOL     OW 3268   1.495   1.625   7.489
  903SOL    HW1 3269   1.400   1.620   7.478
  903SOL    HW2 3270   1.529   1.631   7.399
  904SOL     OW 3271   0.602   1.503   7.936
  904SOL    HW1 3272   0.646   1.444   7.876
  904SOL    HW2 3273   0.534   1.545   7.883
  905SOL     OW 3274   0.259   1.347   7.740
  905SOL    HW1 3275   0.166   1.351   7.717
  905SOL    HW2 3276   0.263   1.383   7.829
  906SOL     OW 3277   0.076   0.345   7.487
  906SOL    HW1 3278   5.290   0.308   7.467
  906SOL    HW2 3279   0.093   0.408   7.418
  907SOL     OW 3280   0.067   0.142   7.737
  907SOL    HW1 3281   0.069   0.237   7.723
  907SOL    HW2 3282   0.155   0.113   7.716
  908SOL     OW 3283   1.178   1.339   7.557
  908SOL    HW1 3284   1.086   1.314   7.559
  908SOL    HW2 3285   1.204   1.345   7.649
  909SOL     OW 3286   1.223   0.320   7.915
  909SOL    HW1 3287   1.289   0.251   7.909
  909SOL    HW2 3288   1.247   0.368   7.995
  910SOL     OW 3289   0.620   0.738   8.050
  910SOL    HW1 3290   0.629   0.818   0.023
  910SOL    HW2 3291   0.529   0.738   8.023
  911SOL     OW 3292   0.862   1.368   7.479
  911SOL    HW1 3293   0.824   1.396   7.563
  911SOL    HW2 3294   0.882   1.449   7.434
  912SOL     OW 3295   1.073   0.979   7.536
  912SOL    HW1 3296   1.055   1.036   7.462
  912SOL    HW2 3297   1.153   0.931   7.512
  913SOL     OW 3298   0.397   0.425   7.980
  913SOL    HW1 3299   0.447   0.367   7.923
  913SOL    HW2 3300   0.437   0.415   8.066
  914SOL     OW 3301   0.766   1.334   7.758
  914SOL    HW1 3302   0.735   1.244   7.761
  914SOL    HW2 3303   0.847   1.333   7.809
  915SOL     OW 3304   1.361   0.039   7.609
  915SOL    HW1 3305   1.378   5.293   7.527
  915SOL    HW2 3306   1.281   5.300   7.643
  916SOL     OW 3307   0.047   1.070   7.722
  916SOL    HW1 3308   0.137   1.039   7.724
  916SOL    HW2 3309   5.299   1.009   7.779
  917SOL     OW 3310   0.891   1.650   7.782
  917SOL    HW1 3311   0.815   1.627   7.729
  917SOL    HW2 3312   0.858   1.714   7.845
  918SOL     OW 3313   0.226   2.489   0.112
  918SOL    HW1 3314   0.155   2.450   0.163
  918SOL    HW2 3315   0.232   2.434   0.034
  919SOL     OW 3316   0.239   2.137   0.990
  919SOL    HW1 3317   0.255   2.104   1.078
  919SOL    HW2 3318   0.156   2.098   0.964
  920SOL     OW 3319   5.298   2.257   0.649
  920SOL    HW1 3320   5.207   2.284   0.660
  920SOL    HW2 3321   5.292   2.164   0.626
  921SOL     OW 3322   0.572   3.143   1.178
  921SOL    HW1 3323   0.489   3.151   1.132
  921SOL    HW2 3324   0.589   3.231   1.214
  922SOL     OW 3325   1.558   3.373   0.706
  922SOL    HW1 3326   1.515   3.355   0.789
  922SOL    HW2 3327   1.487   3.378   0.642
  923SOL     OW 3328   1.130   2.560   0.703
  923SOL    HW1 3329   1.180   2.641   0.688
  923SOL    HW2 3330   1.083   2.576   0.785
  924SOL     OW 3331   1.770   2.462   0.233
  924SOL    HW1 3332   1.731   2.465   0.146
  924SOL    HW2 3333   1.728   2.387   0.275
  925SOL     OW 3334   0.758   3.005   1.038
  925SOL    HW1 3335   0.690   3.038   1.096
  925SOL    HW2 3336   0.792   3.083   0.994
  926SOL     OW 3337   0.863   2.641   1.821
  926SOL    HW1 3338   0.854   2.713   1.883
  926SOL    HW2 3339   0.887   2.683   1.739
  927SOL     OW 3340   0.685   2.866   0.650
  927SOL    HW1 3341   0.750   2.853   0.719
  927SOL    HW2 3342   0.616   2.919   0.692
  928SOL     OW 3343   0.708   3.013   1.811
  928SOL    HW1 3344   0.756   3.092   1.836
  928SOL    HW2 3345   0.625   3.046   1.776
  929SOL     OW 3346   0.358   3.268   1.060
  929SOL    HW1 3347   0.271   3.265   1.020
  929SOL    HW2 3348   0.406   3.331   1.006
  930SOL     OW 3349   1.461   3.361   1.352
  930SOL    HW1 3350   1.508   3.443   1.361
  930SOL    HW2 3351   1.403   3.357   1.428
  931SOL     OW 3352   0.450   2.262   1.495
  931SOL    HW1 3353   0.523   2.201   1.495
  931SOL    HW2 3354   0.372   2.206   1.502
  932SOL     OW 3355   1.613   2.311   0.739
  932SOL    HW1 3356   1.537   2.335   0.687
  932SOL    HW2 3357   1.630   2.388   0.794
  933SOL     OW 3358   0.217   3.589   0.468
  933SOL    HW1 3359   0.262   3.645   0.532
  933SOL    HW2 3360   0.285   3.569   0.404
  934SOL     OW 3361   1.136   3.203   1.692
  934SOL    HW1 3362   1.176   3.199   1.778
  934SOL    HW2 3363   1.083   3.123   1.686
  935SOL     OW 3364   0.221   3.308   0.535
  935SOL    HW1 3365   0.203   3.402   0.541
  935SOL    HW2 3366   0.157   3.267   0.593
  936SOL     OW 3367   0.251   2.942   0.879
  936SOL    HW1 3368   0.258   2.856   0.921
  936SOL    HW2 3369   0.197   2.994   0.939
  937SOL     OW 3370   0.616   3.652   1.433
  937SOL    HW1 3371   0.531   3.635   1.475
  937SOL    HW2 3372   0.636   3.743   1.455
  938SOL     OW 3373   0.626   2.823   0.134
  938SOL    HW1 3374   0.582   2.903   0.105
  938SOL    HW2 3375   0.678   2.850   0.209
  939SOL     OW 3376   1.596   1.984   1.469
  939SOL    HW1 3377   1.597   2.064   1.417
  939SOL    HW2 3378   1.584   2.014   1.559
  940SOL     OW 3379   0.130   2.497   0.581
  940SOL    HW1 3380   0.087   2.415   0.605
  940SOL    HW2 3381   0.099   2.560   0.647
  941SOL     OW 3382   1.844   3.622   0.334
  941SOL    HW1 3383   1.906   3.591   0.400
  941SOL    HW2 3384   1.870   3.712   0.316
  942SOL     OW 3385   0.031   3.448   0.105
  942SOL    HW1 3386   0.024   3.362   0.146
  942SOL    HW2 3387   0.005   3.510   0.173
  943SOL     OW 3388   1.687   2.780   0.641
  943SOL    HW1 3389   1.772   2.740   0.620
  943SOL    HW2 3390   1.666   2.832   0.564
  944SOL     OW 3391   1.646   2.967   0.435
  944SOL    HW1 3392   1.725   2.984   0.383
  944SOL    HW2 3393   1.651   3.029   0.507
  945SOL     OW 3394   0.129   2.609   1.587
  945SOL    HW1 3395   0.223   2.623   1.593
  945SOL    HW2 3396   0.091   2.696   1.599
  946SOL     OW 3397   0.614   3.246   0.734
  946SOL    HW1 3398   0.566   3.163   0.745
  946SOL    HW2 3399   0.597   3.272   0.644
  947SOL     OW 3400   1.290   3.100   1.424
  947SOL    HW1 3401   1.322   3.033   1.364
  947SOL    HW2 3402   1.346   3.093   1.501
  948SOL     OW 3403   0.821   1.862   0.510
  948SOL    HW1 3404   0.860   1.947   0.490
  948SOL    HW2 3405   0.727   1.879   0.516
  949SOL     OW 3406   0.180   2.811   1.277
  949SOL    HW1 3407   0.270   2.782   1.266
  949SOL    HW2 3408   0.134   2.781   1.198
  950SOL     OW 3409   1.512   2.867   0.210
  950SOL    HW1 3410   1.452   2.800   0.242
  950SOL    HW2 3411   1.563   2.892   0.288
  951SOL     OW 3412   1.185   3.667   1.621
  951SOL    HW1 3413   1.198   3.725   1.546
  951SOL    HW2 3414   1.201   3.579   1.586
  952SOL     OW 3415   0.333   2.115   1.812
  952SOL    HW1 3416   0.382   2.196   1.825
  952SOL    HW2 3417   0.247   2.132   1.850
  953SOL     OW 3418   1.466   3.281   0.953
  953SOL    HW1 3419   1.398   3.296   1.018
  953SOL    HW2 3420   1.454   3.190   0.925
  954SOL     OW 3421   1.660   3.598   0.581
  954SOL    HW1 3422   1.639   3.571   0.492
  954SOL    HW2 3423   1.635   3.524   0.636
  955SOL     OW 3424   0.597   2.577   0.280
  955SOL    HW1 3425   0.617   2.654   0.226
  955SOL    HW2 3426   0.533   2.609   0.344
  956SOL     OW 3427   1.280   2.211   0.932
  956SOL    HW1 3428   1.190   2.179   0.940
  956SOL    HW2 3429   1.330   2.159   0.995
  957SOL     OW 3430   1.586   3.532   0.318
  957SOL    HW1 3431   1.677   3.563   0.312
  957SOL    HW2 3432   1.561   3.515   0.227
  958SOL     OW 3433   0.793   2.479   1.453
  958SOL    HW1 3434   0.765   2.456   1.541
  958SOL    HW2 3435   0.751   2.413   1.397
  959SOL     OW 3436   1.394   2.336   1.678
  959SOL    HW1 3437   1.395   2.380   1.762
  959SOL    HW2 3438   1.456   2.264   1.687
  960SOL     OW 3439   0.956   2.750   1.581
  960SOL    HW1 3440   1.010   2.679   1.547
  960SOL    HW2 3441   0.909   2.784   1.505
  961SOL     OW 3442   0.992   2.274   1.240
  961SOL    HW1 3443   0.908   2.298   1.279
  961SOL    HW2 3444   0.970   2.228   1.159
  962SOL     OW 3445   1.051   2.561   0.427
  962SOL    HW1 3446   1.066   2.554   0.522
  962SOL    HW2 3447   0.969   2.514   0.412
  963SOL     OW 3448   0.069   2.650   0.817
  963SOL    HW1 3449   0.154   2.654   0.861
  963SOL    HW2 3450   0.061   2.733   0.771
  964SOL     OW 3451   0.132   3.741   1.583
  964SOL    HW1 3452   0.133   3.709   1.674
  964SOL    HW2 3453   0.057   3.699   1.543
  965SOL     OW 3454   0.883   2.219   0.201
  965SOL    HW1 3455   0.928   2.267   0.132
  965SOL    HW2 3456   0.884   2.128   0.170
  966SOL     OW 3457   1.711   2.438   1.828
  966SOL    HW1 3458   1.673   2.513   1.782
  966SOL    HW2 3459   1.735   2.377   1.758
  967SOL     OW 3460   1.375   3.004   0.542
  967SOL    HW1 3461   1.453   2.990   0.488
  967SOL    HW2 3462   1.323   3.066   0.492
  968SOL     OW 3463   0.553   2.046   0.892
  968SOL    HW1 3464   0.551   2.073   0.984
  968SOL    HW2 3465   0.552   2.129   0.844
  969SOL     OW 3466   1.007   3.307   0.474
  969SOL    HW1 3467   0.967   3.379   0.424
  969SOL    HW2 3468   0.990   3.330   0.565
  970SOL     OW 3469   0.356   3.663   0.867
  970SOL    HW1 3470   0.398   3.578   0.881
  970SOL    HW2 3471   0.423   3.726   0.894
  971SOL     OW 3472   1.798   2.919   0.868
  971SOL    HW1 3473   1.741   2.904   0.792
  971SOL    HW2 3474   1.737   2.925   0.942
  972SOL     OW 3475   1.228   3.401   1.513
  972SOL    HW1 3476   1.214   3.328   1.573
  972SOL    HW2 3477   1.166   3.386   1.441
  973SOL     OW 3478   0.329   2.813   0.247
  973SOL    HW1 3479   0.411   2.827   0.199
  973SOL    HW2 3480   0.314   2.718   0.240
  974SOL     OW 3481   1.477   2.601   0.727
  974SOL    HW1 3482   1.467   2.558   0.812
  974SOL    HW2 3483   1.553   2.658   0.738
  975SOL     OW 3484   0.464   3.125   1.737
  975SOL    HW1 3485   0.437   3.131   1.646
  975SOL    HW2 3486   0.382   3.126   1.787
  976SOL     OW 3487   1.108   3.642   0.225
  976SOL    HW1 3488   1.053   3.602   0.291
  976SOL    HW2 3489   1.128   3.572   0.164
  977SOL     OW 3490   0.204   2.145   1.497
  977SOL    HW1 3491   0.124   2.195   1.482
  977SOL    HW2 3492   0.175   2.068   1.547
  978SOL     OW 3493   1.633   3.235   0.082
  978SOL    HW1 3494   1.593   3.322   0.080
  978SOL    HW2 3495   1.561   3.175   0.064
  979SOL     OW 3496   0.470   3.597   0.325
  979SOL    HW1 3497   0.512   3.657   0.387
  979SOL    HW2 3498   0.541   3.573   0.265
  980SOL     OW 3499   1.406   1.973   0.441
  980SOL    HW1 3500   1.396   1.952   0.348
  980SOL    HW2 3501   1.501   1.980   0.454
  981SOL     OW 3502   0.275   3.663   1.217
  981SOL    HW1 3503   0.307   3.587   1.266
  981SOL    HW2 3504   0.226   3.625   1.144
  982SOL     OW 3505   0.938   3.560   0.900
  982SOL    HW1 3506   1.016   3.507   0.920
  982SOL    HW2 3507   0.893   3.511   0.831
  983SOL     OW 3508   0.382   2.561   0.476
  983SOL    HW1 3509   0.415   2.471   0.485
  983SOL    HW2 3510   0.290   2.555   0.502
  984SOL     OW 3511   1.537   2.088   1.725
  984SOL    HW1 3512   1.546   2.109   1.818
  984SOL    HW2 3513   1.468   2.021   1.722
  985SOL     OW 3514   0.628   1.974   0.135
  985SOL    HW1 3515   0.723   1.962   0.140
  985SOL    HW2 3516   0.606   1.955   0.043
  986SOL     OW 3517   0.768   2.139   1.753
  986SOL    HW1 3518   0.841   2.078   1.758
  986SOL    HW2 3519   0.717   2.122   1.832
  987SOL     OW 3520   0.877   3.383   1.193
  987SOL    HW1 3521   0.862   3.347   1.106
  987SOL    HW2 3522   0.947   3.328   1.230
  988SOL     OW 3523   1.342   2.450   1.432
  988SOL    HW1 3524   1.372   2.419   1.517
  988SOL    HW2 3525   1.377   2.539   1.425
  989SOL     OW 3526   0.814   3.258   0.937
  989SOL    HW1 3527   0.898   3.248   0.893
  989SOL    HW2 3528   0.749   3.258   0.867
  990SOL     OW 3529   0.927   2.371   0.903
  990SOL    HW1 3530   0.904   2.363   0.811
  990SOL    HW2 3531   0.959   2.284   0.928
  991SOL     OW 3532   0.559   1.924   0.501
  991SOL    HW1 3533   0.484   1.924   0.560
  991SOL    HW2 3534   0.549   2.003   0.449
  992SOL     OW 3535   1.433   3.061   0.037
  992SOL    HW1 3536   1.458   2.987   0.092
  992SOL    HW2 3537   1.345   3.084   0.066
  993SOL     OW 3538   0.312   1.906   0.172
  993SOL    HW1 3539   0.374   1.979   0.176
  993SOL    HW2 3540   0.357   1.834   0.217
  994SOL     OW 3541   0.939   2.108   0.461
  994SOL    HW1 3542   0.910   2.150   0.379
  994SOL    HW2 3543   1.033   2.123   0.464
  995SOL     OW 3544   1.080   2.542   1.460
  995SOL    HW1 3545   1.010   2.477   1.465
  995SOL    HW2 3546   1.160   2.490   1.452
  996SOL     OW 3547   1.225   3.431   0.794
  996SOL    HW1 3548   1.241   3.499   0.728
  996SOL    HW2 3549   1.292   3.445   0.860
  997SOL     OW 3550   0.467   3.011   0.734
  997SOL    HW1 3551   0.397   2.992   0.797
  997SOL    HW2 3552   0.427   2.994   0.648
  998SOL     OW 3553   1.269   3.656   0.605
  998SOL    HW1 3554   1.317   3.719   0.552
  998SOL    HW2 3555   1.204   3.709   0.651
  999SOL     OW 3556   1.032   2.394   0.029
  999SOL    HW1 3557   0.990   2.474   8.078
  999SOL    HW2 3558   1.094   2.424   0.096
 1000SOL     OW 3559   0.086   2.409   1.397
 1000SOL    HW1 3560   0.174   2.415   1.360
 1000SOL    HW2 3561   0.079   2.484   1.456
 1001SOL     OW 3562   0.561   2.089   1.165
 1001SOL    HW1 3563   0.598   2.008   1.201
 1001SOL    HW2 3564   0.469   2.088   1.193
 1002SOL     OW 3565   0.868   2.321   0.639
 1002SOL    HW1 3566   0.825   2.376   0.574
 1002SOL    HW2 3567   0.889   2.240   0.592
 1003SOL     OW 3568   1.015   1.914   0.752
 1003SOL    HW1 3569   0.956   1.907   0.677
 1003SOL    HW2 3570   0.994   1.839   0.807
 1004SOL     OW 3571   1.437   3.025   0.858
 1004SOL    HW1 3572   1.368   2.958   0.856
 1004SOL    HW2 3573   1.460   3.038   0.766
 1005SOL     OW 3574   1.467   2.465   0.979
 1005SOL    HW1 3575   1.418   2.383   0.983
 1005SOL    HW2 3576   1.527   2.461   1.053
 1006SOL     OW 3577   1.850   2.678   0.389
 1006SOL    HW1 3578   1.901   2.623   0.448
 1006SOL    HW2 3579   1.818   2.618   0.322
 1007SOL     OW 3580   0.484   3.301   0.173
 1007SOL    HW1 3581   0.411   3.260   0.221
 1007SOL    HW2 3582   0.486   3.255   0.089
 1008SOL     OW 3583   1.669   3.127   0.649
 1008SOL    HW1 3584   1.764   3.132   0.661
 1008SOL    HW2 3585   1.638   3.215   0.669
 1009SOL     OW 3586   1.398   2.443   0.086
 1009SOL    HW1 3587   1.336   2.422   0.156
 1009SOL    HW2 3588   1.457   2.367   0.083
 1010SOL     OW 3589   0.517   2.125   0.324
 1010SOL    HW1 3590   0.565   2.073   0.260
 1010SOL    HW2 3591   0.504   2.210   0.281
 1011SOL     OW 3592   1.753   3.099   1.576
 1011SOL    HW1 3593   1.841   3.061   1.571
 1011SOL    HW2 3594   1.768   3.189   1.605
 1012SOL     OW 3595   1.060   3.215   1.334
 1012SOL    HW1 3596   0.985   3.184   1.385
 1012SOL    HW2 3597   1.136   3.174   1.375
 1013SOL     OW 3598   1.606   3.487   1.652
 1013SOL    HW1 3599   1.602   3.521   1.563
 1013SOL    HW2 3600   1.690   3.440   1.656
 1014SOL     OW 3601   1.127   3.063   1.106
 1014SOL    HW1 3602   1.068   3.102   1.172
 1014SOL    HW2 3603   1.093   3.096   1.023
 1015SOL     OW 3604   1.630   2.961   1.078
 1015SOL    HW1 3605   1.625   3.023   1.151
 1015SOL    HW2 3606   1.550   2.977   1.028
 1016SOL     OW 3607   0.919   1.959   1.399
 1016SOL    HW1 3608   0.940   1.941   1.307
 1016SOL    HW2 3609   0.998   1.999   1.435
 1017SOL     OW 3610   0.984   2.976   1.722
 1017SOL    HW1 3611   0.892   2.992   1.742
 1017SOL    HW2 3612   0.984   2.899   1.666
 1018SOL     OW 3613   0.712   2.922   0.380
 1018SOL    HW1 3614   0.696   2.907   0.473
 1018SOL    HW2 3615   0.790   2.871   0.359
 1019SOL     OW 3616   0.420   2.679   1.251
 1019SOL    HW1 3617   0.489   2.686   1.317
 1019SOL    HW2 3618   0.384   2.591   1.263
 1020SOL     OW 3619   1.266   2.240   1.273
 1020SOL    HW1 3620   1.299   2.317   1.320
 1020SOL    HW2 3621   1.176   2.262   1.249
 1021SOL     OW 3622   0.100   3.484   1.368
 1021SOL    HW1 3623   0.077   3.495   1.275
 1021SOL    HW2 3624   0.186   3.443   1.366
 1022SOL     OW 3625   0.347   2.968   0.489
 1022SOL    HW1 3626   0.349   3.047   0.436
 1022SOL    HW2 3627   0.362   2.897   0.427
 1023SOL     OW 3628   0.556   2.398   0.859
 1023SOL    HW1 3629   0.572   2.457   0.786
 1023SOL    HW2 3630   0.618   2.426   0.926
 1024SOL     OW 3631   1.247   3.209   0.393
 1024SOL    HW1 3632   1.303   3.282   0.422
 1024SOL    HW2 3633   1.160   3.232   0.425
 1025SOL     OW 3634   1.279   3.318   1.146
 1025SOL    HW1 3635   1.334   3.321   1.224
 1025SOL    HW2 3636   1.223   3.241   1.159
 1026SOL     OW 3637   1.584   2.487   0.480
 1026SOL    HW1 3638   1.536   2.539   0.544
 1026SOL    HW2 3639   1.620   2.552   0.419
 1027SOL     OW 3640   0.351   3.381   1.312
 1027SOL    HW1 3641   0.342   3.337   1.227
 1027SOL    HW2 3642   0.445   3.399   1.319
 1028SOL     OW 3643   0.412   2.605   1.602
 1028SOL    HW1 3644   0.472   2.652   1.544
 1028SOL    HW2 3645   0.453   2.519   1.615
 1029SOL     OW 3646   1.599   2.640   1.680
 1029SOL    HW1 3647   1.513   2.680   1.673
 1029SOL    HW2 3648   1.651   2.682   1.612
 1030SOL     OW 3649   0.996   1.982   1.756
 1030SOL    HW1 3650   1.049   2.055   1.725
 1030SOL    HW2 3651   1.045   1.904   1.730
 1031SOL     OW 3652   0.498   1.905   1.747
 1031SOL    HW1 3653   0.457   1.850   1.680
 1031SOL    HW2 3654   0.437   1.978   1.759
 1032SOL     OW 3655   0.585   2.735   1.032
 1032SOL    HW1 3656   0.614   2.826   1.029
 1032SOL    HW2 3657   0.528   2.730   1.109
 1033SOL     OW 3658   1.360   2.721   1.032
 1033SOL    HW1 3659   1.278   2.714   0.983
 1033SOL    HW2 3660   1.398   2.633   1.028
 1034SOL     OW 3661   1.206   2.390   0.271
 1034SOL    HW1 3662   1.212   2.311   0.325
 1034SOL    HW2 3663   1.163   2.454   0.328
 1035SOL     OW 3664   0.302   2.066   1.248
 1035SOL    HW1 3665   0.267   2.091   1.333
 1035SOL    HW2 3666   0.288   1.971   1.244
 1036SOL     OW 3667   0.071   3.181   1.281
 1036SOL    HW1 3668   0.090   3.121   1.353
 1036SOL    HW2 3669   0.006   3.242   1.317
 1037SOL     OW 3670   0.725   2.494   1.059
 1037SOL    HW1 3671   0.799   2.477   1.000
 1037SOL    HW2 3672   0.697   2.583   1.038
 1038SOL     OW 3673   1.734   2.821   1.852
 1038SOL    HW1 3674   1.686   2.763   1.792
 1038SOL    HW2 3675   1.674   2.834   1.925
 1039SOL     OW 3676   0.326   1.925   0.635
 1039SOL    HW1 3677   0.309   2.015   0.665
 1039SOL    HW2 3678   0.330   1.874   0.716
 1040SOL     OW 3679   1.618   2.236   0.371
 1040SOL    HW1 3680   1.643   2.171   0.437
 1040SOL    HW2 3681   1.593   2.313   0.421
 1041SOL     OW 3682   1.027   2.621   0.961
 1041SOL    HW1 3683   1.026   2.639   1.056
 1041SOL    HW2 3684   1.001   2.530   0.954
 1042SOL     OW 3685   0.982   3.428   1.715
 1042SOL    HW1 3686   0.967   3.473   1.632
 1042SOL    HW2 3687   1.025   3.346   1.691
 1043SOL     OW 3688   1.855   3.370   1.605
 1043SOL    HW1 3689   1.873   3.396   1.515
 1043SOL    HW2 3690   1.937   3.390   1.652
 1044SOL     OW 3691   0.353   2.779   1.806
 1044SOL    HW1 3692   0.435   2.799   1.852
 1044SOL    HW2 3693   0.378   2.715   1.740
 1045SOL     OW 3694   1.523   2.158   0.126
 1045SOL    HW1 3695   1.471   2.079   0.142
 1045SOL    HW2 3696   1.560   2.181   0.211
 1046SOL     OW 3697   1.294   2.688   0.022
 1046SOL    HW1 3698   1.333   2.602   0.040
 1046SOL    HW2 3699   1.352   2.728   8.038
 1047SOL     OW 3700   1.065   3.197   0.853
 1047SOL    HW1 3701   1.068   3.124   0.791
 1047SOL    HW2 3702   1.127   3.261   0.818
 1048SOL     OW 3703   0.315   2.672   0.950
 1048SOL    HW1 3704   0.409   2.691   0.946
 1048SOL    HW2 3705   0.309   2.583   0.983
 1049SOL     OW 3706   0.336   2.386   1.014
 1049SOL    HW1 3707   0.300   2.299   1.000
 1049SOL    HW2 3708   0.410   2.392   0.954
 1050SOL     OW 3709   1.134   2.239   1.681
 1050SOL    HW1 3710   1.088   2.294   1.743
 1050SOL    HW2 3711   1.222   2.277   1.677
 1051SOL     OW 3712   1.161   2.066   1.470
 1051SOL    HW1 3713   1.151   2.128   1.541
 1051SOL    HW2 3714   1.199   2.117   1.398
 1052SOL     OW 3715   0.008   3.193   0.203
 1052SOL    HW1 3716   5.231   3.184   0.147
 1052SOL    HW2 3717   0.014   3.110   0.249
 1053SOL     OW 3718   0.091   3.644   0.947
 1053SOL    HW1 3719   0.058   3.571   0.895
 1053SOL    HW2 3720   0.179   3.660   0.913
 1054SOL     OW 3721   0.505   3.435   0.907
 1054SOL    HW1 3722   0.573   3.500   0.927
 1054SOL    HW2 3723   0.549   3.373   0.849
 1055SOL     OW 3724   0.986   2.655   1.227
 1055SOL    HW1 3725   1.040   2.631   1.303
 1055SOL    HW2 3726   0.900   2.619   1.247
 1056SOL     OW 3727   0.034   2.418   1.114
 1056SOL    HW1 3728   0.121   2.395   1.082
 1056SOL    HW2 3729   0.038   2.404   1.209
 1057SOL     OW 3730   0.175   2.374   1.712
 1057SOL    HW1 3731   0.242   2.341   1.653
 1057SOL    HW2 3732   0.145   2.455   1.670
 1058SOL     OW 3733   1.376   2.802   1.659
 1058SOL    HW1 3734   1.397   2.896   1.658
 1058SOL    HW2 3735   1.374   2.778   1.567
 1059SOL     OW 3736   0.818   2.432   0.363
 1059SOL    HW1 3737   0.827   2.360   0.301
 1059SOL    HW2 3738   0.741   2.480   0.333
 1060SOL     OW 3739   1.642   2.463   1.188
 1060SOL    HW1 3740   1.631   2.404   1.262
 1060SOL    HW2 3741   1.729   2.442   1.153
 1061SOL     OW 3742   0.257   3.418   1.736
 1061SOL    HW1 3743   0.233   3.480   1.804
 1061SOL    HW2 3744   0.249   3.332   1.777
 1062SOL     OW 3745   0.698   2.314   1.261
 1062SOL    HW1 3746   0.646   2.239   1.231
 1062SOL    HW2 3747   0.695   2.376   1.189
 1063SOL     OW 3748   0.930   3.541   1.467
 1063SOL    HW1 3749   0.903   3.509   1.381
 1063SOL    HW2 3750   0.927   3.636   1.459
 1064SOL     OW 3751   0.467   2.352   0.182
 1064SOL    HW1 3752   0.532   2.420   0.200
 1064SOL    HW2 3753   0.383   2.398   0.186
 1065SOL     OW 3754   0.149   3.000   1.471
 1065SOL    HW1 3755   0.149   2.949   1.553
 1065SOL    HW2 3756   0.162   2.935   1.403
 1066SOL     OW 3757   1.328   2.910   1.224
 1066SOL    HW1 3758   1.352   2.847   1.156
 1066SOL    HW2 3759   1.256   2.961   1.186
 1067SOL     OW 3760   1.306   2.710   0.308
 1067SOL    HW1 3761   1.227   2.684   0.356
 1067SOL    HW2 3762   1.283   2.701   0.216
 1068SOL     OW 3763   1.769   3.608   1.148
 1068SOL    HW1 3764   1.830   3.634   1.079
 1068SOL    HW2 3765   1.746   3.517   1.128
 1069SOL     OW 3766   1.242   3.595   1.115
 1069SOL    HW1 3767   1.323   3.614   1.069
 1069SOL    HW2 3768   1.246   3.501   1.133
 1070SOL     OW 3769   0.083   3.083   1.027
 1070SOL    HW1 3770   0.069   3.107   1.119
 1070SOL    HW2 3771   5.295   3.070   0.992
 1071SOL     OW 3772   0.678   3.527   1.726
 1071SOL    HW1 3773   0.624   3.606   1.723
 1071SOL    HW2 3774   0.741   3.537   1.655
 1072SOL     OW 3775   0.904   1.953   0.134
 1072SOL    HW1 3776   0.928   1.939   0.042
 1072SOL    HW2 3777   0.967   1.900   0.183
 1073SOL     OW 3778   1.719   2.005   0.512
 1073SOL    HW1 3779   1.792   1.990   0.451
 1073SOL    HW2 3780   1.703   1.920   0.553
 1074SOL     OW 3781   1.389   3.430   0.484
 1074SOL    HW1 3782   1.453   3.462   0.420
 1074SOL    HW2 3783   1.343   3.509   0.513
 1075SOL     OW 3784   0.143   3.659   1.843
 1075SOL    HW1 3785   0.089   3.596   1.890
 1075SOL    HW2 3786   0.188   3.708   1.912
 1076SOL     OW 3787   1.277   2.787   0.671
 1076SOL    HW1 3788   1.351   2.725   0.676
 1076SOL    HW2 3789   1.310   2.860   0.619
 1077SOL     OW 3790   0.817   3.134   1.431
 1077SOL    HW1 3791   0.789   3.174   1.514
 1077SOL    HW2 3792   0.747   3.156   1.370
 1078SOL     OW 3793   0.678   3.480   0.155
 1078SOL    HW1 3794   0.680   3.487   0.060
 1078SOL    HW2 3795   0.617   3.408   0.172
 1079SOL     OW 3796   1.629   3.588   1.391
 1079SOL    HW1 3797   1.678   3.596   1.310
 1079SOL    HW2 3798   1.616   3.679   1.420
 1080SOL     OW 3799   1.840   2.035   0.967
 1080SOL    HW1 3800   1.868   1.948   0.939
 1080SOL    HW2 3801   1.753   2.046   0.927
 1081SOL     OW 3802   0.270   2.179   0.717
 1081SOL    HW1 3803   0.188   2.222   0.697
 1081SOL    HW2 3804   0.268   2.168   0.812
 1082SOL     OW 3805   1.156   3.444   0.051
 1082SOL    HW1 3806   1.175   3.352   0.069
 1082SOL    HW2 3807   1.165   3.453   8.037
 1083SOL     OW 3808   0.824   2.868   1.372
 1083SOL    HW1 3809   0.867   2.864   1.286
 1083SOL    HW2 3810   0.824   2.960   1.395
 1084SOL     OW 3811   0.917   2.776   0.297
 1084SOL    HW1 3812   0.972   2.801   0.222
 1084SOL    HW2 3813   0.964   2.703   0.337
 1085SOL     OW 3814   1.511   3.487   0.060
 1085SOL    HW1 3815   1.415   3.488   0.049
 1085SOL    HW2 3816   1.544   3.486   8.050
 1086SOL     OW 3817   0.368   3.165   1.493
 1086SOL    HW1 3818   0.359   3.240   1.435
 1086SOL    HW2 3819   0.292   3.110   1.474
 1087SOL     OW 3820   1.611   3.144   1.281
 1087SOL    HW1 3821   1.672   3.137   1.354
 1087SOL    HW2 3822   1.551   3.215   1.307
 1088SOL     OW 3823   1.049   2.968   0.706
 1088SOL    HW1 3824   0.979   2.916   0.746
 1088SOL    HW2 3825   1.111   2.903   0.672
 1089SOL     OW 3826   1.021   2.102   0.966
 1089SOL    HW1 3827   1.015   2.054   0.883
 1089SOL    HW2 3828   1.015   2.034   1.033
 1090SOL     OW 3829   0.601   3.350   0.481
 1090SOL    HW1 3830   0.643   3.300   0.410
 1090SOL    HW2 3831   0.535   3.403   0.437
 1091SOL     OW 3832   1.721   2.254   1.380
 1091SOL    HW1 3833   1.792   2.317   1.378
 1091SOL    HW2 3834   1.750   2.182   1.324
 1092SOL     OW 3835   0.267   3.189   0.299
 1092SOL    HW1 3836   0.181   3.200   0.258
 1092SOL    HW2 3837   0.260   3.235   0.383
 1093SOL     OW 3838   0.115   2.878   1.719
 1093SOL    HW1 3839   0.043   2.842   1.772
 1093SOL    HW2 3840   0.194   2.847   1.762
 1094SOL     OW 3841   0.673   2.058   1.499
 1094SOL    HW1 3842   0.757   2.039   1.457
 1094SOL    HW2 3843   0.697   2.088   1.586
 1095SOL     OW 3844   0.041   2.257   0.029
 1095SOL    HW1 3845   0.019   2.167   0.053
 1095SOL    HW2 3846   0.119   2.249   8.055
 1096SOL     OW 3847   1.431   2.720   1.401
 1096SOL    HW1 3848   1.383   2.781   1.345
 1096SOL    HW2 3849   1.521   2.723   1.368
 1097SOL     OW 3850   0.051   1.997   0.222
 1097SOL    HW1 3851   0.052   2.086   0.256
 1097SOL    HW2 3852   0.143   1.974   0.212
 1098SOL     OW 3853   1.185   3.182   0.122
 1098SOL    HW1 3854   1.089   3.171   0.122
 1098SOL    HW2 3855   1.209   3.185   0.214
 1099SOL     OW 3856   0.619   2.693   1.434
 1099SOL    HW1 3857   0.674   2.769   1.419
 1099SOL    HW2 3858   0.680   2.620   1.442
 1100SOL     OW 3859   1.485   3.636   0.976
 1100SOL    HW1 3860   1.510   3.695   0.905
 1100SOL    HW2 3861   1.566   3.621   1.024
 1101SOL     OW 3862   0.717   2.427   1.706
 1101SOL    HW1 3863   0.756   2.490   1.766
 1101SOL    HW2 3864   0.749   2.342   1.736
 1102SOL     OW 3865   1.470   3.064   1.633
 1102SOL    HW1 3866   1.458   3.077   1.726
 1102SOL    HW2 3867   1.564   3.077   1.618
 1103SOL     OW 3868   0.380   3.603   1.563
 1103SOL    HW1 3869   0.297   3.649   1.549
 1103SOL    HW2 3870   0.356   3.522   1.608
 1104SOL     OW 3871   1.671   2.744   1.255
 1104SOL    HW1 3872   1.663   2.659   1.212
 1104SOL    HW2 3873   1.662   2.807   1.185
 1105SOL     OW 3874   1.218   2.180   0.459
 1105SOL    HW1 3875   1.283   2.110   0.452
 1105SOL    HW2 3876   1.245   2.230   0.536
 1106SOL     OW 3877   0.590   2.600   0.667
 1106SOL    HW1 3878   0.630   2.686   0.653
 1106SOL    HW2 3879   0.519   2.595   0.603
 1107SOL     OW 3880   1.764   2.222   1.649
 1107SOL    HW1 3881   1.746   2.237   1.556
 1107SOL    HW2 3882   1.693   2.166   1.679
 1108SOL     OW 3883   1.744   2.795   1.513
 1108SOL    HW1 3884   1.745   2.890   1.526
 1108SOL    HW2 3885   1.729   2.785   1.419
 1109SOL     OW 3886   0.891   3.235   0.032
 1109SOL    HW1 3887   0.828   3.228   0.103
 1109SOL    HW2 3888   0.879   3.324   8.078
 1110SOL     OW 3889   0.662   3.657   0.946
 1110SOL    HW1 3890   0.640   3.747   0.922
 1110SOL    HW2 3891   0.757   3.653   0.939
 1111SOL     OW 3892   0.866   2.827   0.855
 1111SOL    HW1 3893   0.917   2.757   0.896
 1111SOL    HW2 3894   0.833   2.878   0.929
 1112SOL     OW 3895   1.076   2.839   0.085
 1112SOL    HW1 3896   1.067   2.903   0.015
 1112SOL    HW2 3897   1.155   2.790   0.063
 1113SOL     OW 3898   1.856   3.417   0.844
 1113SOL    HW1 3899   1.778   3.406   0.790
 1113SOL    HW2 3900   1.847   3.351   0.913
 1114SOL     OW 3901   0.224   3.168   1.859
 1114SOL    HW1 3902   0.156   3.105   1.833
 1114SOL    HW2 3903   0.212   3.178   1.953
 1115SOL     OW 3904   0.090   3.094   0.659
 1115SOL    HW1 3905   0.097   3.050   0.744
 1115SOL    HW2 3906   0.168   3.065   0.611
 1116SOL     OW 3907   0.681   3.263   1.627
 1116SOL    HW1 3908   0.600   3.220   1.657
 1116SOL    HW2 3909   0.675   3.351   1.663
 1117SOL     OW 3910   1.814   2.047   1.238
 1117SOL    HW1 3911   1.823   1.953   1.253
 1117SOL    HW2 3912   1.823   2.057   1.143
 1118SOL     OW 3913   0.431   2.300   0.523
 1118SOL    HW1 3914   0.461   2.227   0.468
 1118SOL    HW2 3915   0.387   2.258   0.597
 1119SOL     OW 3916   1.701   3.352   1.098
 1119SOL    HW1 3917   1.620   3.327   1.054
 1119SOL    HW2 3918   1.715   3.284   1.164
 1120SOL     OW 3919   0.334   2.420   1.291
 1120SOL    HW1 3920   0.387   2.360   1.344
 1120SOL    HW2 3921   0.349   2.390   1.201
 1121SOL     OW 3922   0.827   3.439   0.679
 1121SOL    HW1 3923   0.818   3.489   0.598
 1121SOL    HW2 3924   0.749   3.384   0.682
 1122SOL     OW 3925   1.432   2.086   1.118
 1122SOL    HW1 3926   1.458   2.007   1.166
 1122SOL    HW2 3927   1.380   2.136   1.181
 1123SOL     OW 3928   1.008   1.882   1.144
 1123SOL    HW1 3929   0.954   1.814   1.105
 1123SOL    HW2 3930   1.096   1.844   1.146
 1124SOL     OW 3931   0.770   3.189   0.307
 1124SOL    HW1 3932   0.738   3.100   0.321
 1124SOL    HW2 3933   0.852   3.193   0.356
 1125SOL     OW 3934   0.622   3.419   1.286
 1125SOL    HW1 3935   0.624   3.501   1.336
 1125SOL    HW2 3936   0.709   3.413   1.246
 1126SOL     OW 3937   1.356   1.917   0.183
 1126SOL    HW1 3938   1.379   1.868   0.103
 1126SOL    HW2 3939   1.271   1.882   0.208
 1127SOL     OW 3940   1.297   2.322   0.682
 1127SOL    HW1 3941   1.244   2.401   0.690
 1127SOL    HW2 3942   1.293   2.282   0.769
 1128SOL     OW 3943   1.587   2.066   0.877
 1128SOL    HW1 3944   1.524   2.085   0.947
 1128SOL    HW2 3945   1.586   2.145   0.822
 1129SOL     OW 3946   0.044   2.939   0.313
 1129SOL    HW1 3947   0.134   2.915   0.290
 1129SOL    HW2 3948   5.298   2.856   0.321
 1130SOL     OW 3949   0.882   3.513   0.347
 1130SOL    HW1 3950   0.814   3.496   0.282
 1130SOL    HW2 3951   0.851   3.589   0.396
 1131SOL     OW 3952   0.233   2.495   1.977
 1131SOL    HW1 3953   0.157   2.465   2.027
 1131SOL    HW2 3954   0.221   2.458   1.890
 1132SOL     OW 3955   0.240   2.138   2.853
 1132SOL    HW1 3956   0.255   2.104   2.941
 1132SOL    HW2 3957   0.157   2.099   2.826
 1133SOL     OW 3958   5.299   2.258   2.514
 1133SOL    HW1 3959   5.206   2.281   2.522
 1133SOL    HW2 3960   5.299   2.167   2.484
 1134SOL     OW 3961   0.572   3.143   3.040
 1134SOL    HW1 3962   0.489   3.151   2.994
 1134SOL    HW2 3963   0.589   3.231   3.076
 1135SOL     OW 3964   1.559   3.373   2.568
 1135SOL    HW1 3965   1.515   3.355   2.651
 1135SOL    HW2 3966   1.488   3.378   2.504
 1136SOL     OW 3967   1.130   2.560   2.565
 1136SOL    HW1 3968   1.179   2.641   2.550
 1136SOL    HW2 3969   1.083   2.576   2.647
 1137SOL     OW 3970   1.766   2.468   2.092
 1137SOL    HW1 3971   1.746   2.460   1.998
 1137SOL    HW2 3972   1.730   2.389   2.131
 1138SOL     OW 3973   0.758   3.005   2.900
 1138SOL    HW1 3974   0.689   3.038   2.958
 1138SOL    HW2 3975   0.792   3.083   2.856
 1139SOL     OW 3976   0.863   2.641   3.683
 1139SOL    HW1 3977   0.854   2.713   3.746
 1139SOL    HW2 3978   0.887   2.683   3.601
 1140SOL     OW 3979   0.686   2.867   2.511
 1140SOL    HW1 3980   0.751   2.853   2.579
 1140SOL    HW2 3981   0.617   2.919   2.552
 1141SOL     OW 3982   0.708   3.013   3.673
 1141SOL    HW1 3983   0.756   3.092   3.698
 1141SOL    HW2 3984   0.625   3.046   3.638
 1142SOL     OW 3985   0.358   3.268   2.921
 1142SOL    HW1 3986   0.270   3.267   2.883
 1142SOL    HW2 3987   0.406   3.331   2.868
 1143SOL     OW 3988   1.461   3.361   3.214
 1143SOL    HW1 3989   1.507   3.444   3.224
 1143SOL    HW2 3990   1.403   3.356   3.290
 1144SOL     OW 3991   0.450   2.262   3.357
 1144SOL    HW1 3992   0.523   2.201   3.357
 1144SOL    HW2 3993   0.372   2.206   3.364
 1145SOL     OW 3994   1.613   2.312   2.601
 1145SOL    HW1 3995   1.537   2.334   2.548
 1145SOL    HW2 3996   1.630   2.390   2.653
 1146SOL     OW 3997   0.229   3.576   2.340
 1146SOL    HW1 3998   0.265   3.644   2.397
 1146SOL    HW2 3999   0.290   3.572   2.266
 1147SOL     OW 4000   1.136   3.203   3.554
 1147SOL    HW1 4001   1.177   3.199   3.640
 1147SOL    HW2 4002   1.083   3.123   3.548
 1148SOL     OW 4003   0.223   3.305   2.400
 1148SOL    HW1 4004   0.213   3.400   2.400
 1148SOL    HW2 4005   0.153   3.274   2.459
 1149SOL     OW 4006   0.248   2.941   2.739
 1149SOL    HW1 4007   0.259   2.856   2.782
 1149SOL    HW2 4008   0.197   2.993   2.800
 1150SOL     OW 4009   0.616   3.652   3.296
 1150SOL    HW1 4010   0.532   3.635   3.337
 1150SOL    HW2 4011   0.636   3.743   3.317
 1151SOL     OW 4012   0.586   2.843   1.996
 1151SOL    HW1 4013   0.630   2.893   1.927
 1151SOL    HW2 4014   0.628   2.872   2.077
 1152SOL     OW 4015   1.596   1.984   3.332
 1152SOL    HW1 4016   1.596   2.064   3.279
 1152SOL    HW2 4017   1.584   2.014   3.422
 1153SOL     OW 4018   0.126   2.497   2.440
 1153SOL    HW1 4019   0.089   2.414   2.468
 1153SOL    HW2 4020   0.098   2.560   2.507
 1154SOL     OW 4021   1.842   3.622   2.199
 1154SOL    HW1 4022   1.904   3.593   2.265
 1154SOL    HW2 4023   1.867   3.712   2.179
 1155SOL     OW 4024   0.037   3.460   1.992
 1155SOL    HW1 4025   0.024   3.369   2.017
 1155SOL    HW2 4026   5.284   3.510   2.055
 1156SOL     OW 4027   1.688   2.780   2.500
 1156SOL    HW1 4028   1.774   2.741   2.481
 1156SOL    HW2 4029   1.667   2.831   2.422
 1157SOL     OW 4030   1.645   2.969   2.292
 1157SOL    HW1 4031   1.731   2.977   2.249
 1157SOL    HW2 4032   1.650   3.030   2.365
 1158SOL     OW 4033   0.129   2.609   3.449
 1158SOL    HW1 4034   0.223   2.623   3.455
 1158SOL    HW2 4035   0.091   2.696   3.461
 1159SOL     OW 4036   0.614   3.245   2.597
 1159SOL    HW1 4037   0.567   3.163   2.607
 1159SOL    HW2 4038   0.597   3.272   2.507
 1160SOL     OW 4039   1.290   3.101   3.286
 1160SOL    HW1 4040   1.322   3.033   3.226
 1160SOL    HW2 4041   1.346   3.093   3.363
 1161SOL     OW 4042   0.820   1.860   2.370
 1161SOL    HW1 4043   0.860   1.945   2.352
 1161SOL    HW2 4044   0.727   1.879   2.377
 1162SOL     OW 4045   0.180   2.812   3.139
 1162SOL    HW1 4046   0.270   2.782   3.128
 1162SOL    HW2 4047   0.134   2.780   3.061
 1163SOL     OW 4048   1.532   2.854   2.059
 1163SOL    HW1 4049   1.462   2.796   2.090
 1163SOL    HW2 4050   1.572   2.888   2.139
 1164SOL     OW 4051   1.186   3.667   3.483
 1164SOL    HW1 4052   1.198   3.725   3.408
 1164SOL    HW2 4053   1.201   3.579   3.448
 1165SOL     OW 4054   0.333   2.115   3.674
 1165SOL    HW1 4055   0.382   2.196   3.687
 1165SOL    HW2 4056   0.247   2.132   3.712
 1166SOL     OW 4057   1.466   3.282   2.815
 1166SOL    HW1 4058   1.398   3.296   2.880
 1166SOL    HW2 4059   1.455   3.191   2.787
 1167SOL     OW 4060   1.660   3.598   2.440
 1167SOL    HW1 4061   1.639   3.569   2.351
 1167SOL    HW2 4062   1.634   3.524   2.496
 1168SOL     OW 4063   0.596   2.584   2.126
 1168SOL    HW1 4064   0.604   2.664   2.075
 1168SOL    HW2 4065   0.531   2.606   2.194
 1169SOL     OW 4066   1.280   2.212   2.794
 1169SOL    HW1 4067   1.190   2.179   2.802
 1169SOL    HW2 4068   1.330   2.159   2.857
 1170SOL     OW 4069   1.581   3.531   2.171
 1170SOL    HW1 4070   1.671   3.564   2.165
 1170SOL    HW2 4071   1.556   3.514   2.080
 1171SOL     OW 4072   0.793   2.479   3.315
 1171SOL    HW1 4073   0.765   2.456   3.403
 1171SOL    HW2 4074   0.751   2.413   3.259
 1172SOL     OW 4075   1.395   2.337   3.540
 1172SOL    HW1 4076   1.395   2.379   3.626
 1172SOL    HW2 4077   1.456   2.263   3.549
 1173SOL     OW 4078   0.957   2.750   3.443
 1173SOL    HW1 4079   1.010   2.679   3.409
 1173SOL    HW2 4080   0.909   2.784   3.367
 1174SOL     OW 4081   0.992   2.275   3.102
 1174SOL    HW1 4082   0.908   2.298   3.141
 1174SOL    HW2 4083   0.970   2.228   3.021
 1175SOL     OW 4084   1.050   2.561   2.289
 1175SOL    HW1 4085   1.065   2.554   2.383
 1175SOL    HW2 4086   0.968   2.513   2.274
 1176SOL     OW 4087   0.073   2.648   2.675
 1176SOL    HW1 4088   0.156   2.654   2.722
 1176SOL    HW2 4089   0.060   2.736   2.639
 1177SOL     OW 4090   0.132   3.742   3.445
 1177SOL    HW1 4091   0.133   3.709   3.536
 1177SOL    HW2 4092   0.057   3.699   3.405
 1178SOL     OW 4093   0.890   2.209   2.056
 1178SOL    HW1 4094   0.931   2.271   1.996
 1178SOL    HW2 4095   0.907   2.123   2.019
 1179SOL     OW 4096   1.713   2.444   3.690
 1179SOL    HW1 4097   1.677   2.518   3.641
 1179SOL    HW2 4098   1.732   2.378   3.623
 1180SOL     OW 4099   1.375   3.004   2.403
 1180SOL    HW1 4100   1.454   2.991   2.351
 1180SOL    HW2 4101   1.323   3.066   2.353
 1181SOL     OW 4102   0.554   2.046   2.755
 1181SOL    HW1 4103   0.552   2.073   2.846
 1181SOL    HW2 4104   0.551   2.128   2.705
 1182SOL     OW 4105   1.007   3.307   2.335
 1182SOL    HW1 4106   0.968   3.379   2.286
 1182SOL    HW2 4107   0.992   3.329   2.427
 1183SOL     OW 4108   0.356   3.663   2.730
 1183SOL    HW1 4109   0.397   3.578   2.743
 1183SOL    HW2 4110   0.423   3.727   2.756
 1184SOL     OW 4111   1.797   2.919   2.729
 1184SOL    HW1 4112   1.741   2.905   2.653
 1184SOL    HW2 4113   1.737   2.925   2.803
 1185SOL     OW 4114   1.228   3.401   3.375
 1185SOL    HW1 4115   1.214   3.328   3.435
 1185SOL    HW2 4116   1.166   3.386   3.303
 1186SOL     OW 4117   0.317   2.814   2.109
 1186SOL    HW1 4118   0.399   2.838   2.065
 1186SOL    HW2 4119   0.294   2.729   2.071
 1187SOL     OW 4120   1.477   2.602   2.589
 1187SOL    HW1 4121   1.467   2.558   2.674
 1187SOL    HW2 4122   1.553   2.658   2.600
 1188SOL     OW 4123   0.464   3.125   3.599
 1188SOL    HW1 4124   0.437   3.131   3.508
 1188SOL    HW2 4125   0.382   3.126   3.649
 1189SOL     OW 4126   1.121   3.639   2.094
 1189SOL    HW1 4127   1.049   3.596   2.140
 1189SOL    HW2 4128   1.143   3.579   2.022
 1190SOL     OW 4129   0.204   2.145   3.359
 1190SOL    HW1 4130   0.124   2.195   3.344
 1190SOL    HW2 4131   0.175   2.069   3.409
 1191SOL     OW 4132   1.629   3.241   1.949
 1191SOL    HW1 4133   1.588   3.326   1.934
 1191SOL    HW2 4134   1.559   3.178   1.930
 1192SOL     OW 4135   0.471   3.597   2.183
 1192SOL    HW1 4136   0.512   3.655   2.246
 1192SOL    HW2 4137   0.543   3.569   2.126
 1193SOL     OW 4138   1.401   1.970   2.293
 1193SOL    HW1 4139   1.390   1.945   2.201
 1193SOL    HW2 4140   1.496   1.976   2.305
 1194SOL     OW 4141   0.274   3.663   3.079
 1194SOL    HW1 4142   0.307   3.587   3.128
 1194SOL    HW2 4143   0.226   3.625   3.005
 1195SOL     OW 4144   0.939   3.560   2.762
 1195SOL    HW1 4145   1.016   3.507   2.782
 1195SOL    HW2 4146   0.893   3.511   2.693
 1196SOL     OW 4147   0.386   2.558   2.341
 1196SOL    HW1 4148   0.416   2.468   2.349
 1196SOL    HW2 4149   0.292   2.555   2.362
 1197SOL     OW 4150   1.536   2.087   3.587
 1197SOL    HW1 4151   1.545   2.108   3.680
 1197SOL    HW2 4152   1.468   2.020   3.585
 1198SOL     OW 4153   0.630   1.986   1.969
 1198SOL    HW1 4154   0.704   1.926   1.979
 1198SOL    HW2 4155   0.584   1.954   1.891
 1199SOL     OW 4156   0.768   2.139   3.615
 1199SOL    HW1 4157   0.841   2.078   3.620
 1199SOL    HW2 4158   0.718   2.122   3.695
 1200SOL     OW 4159   0.877   3.383   3.055
 1200SOL    HW1 4160   0.862   3.347   2.968
 1200SOL    HW2 4161   0.947   3.328   3.092
 1201SOL     OW 4162   1.342   2.450   3.293
 1201SOL    HW1 4163   1.372   2.419   3.379
 1201SOL    HW2 4164   1.377   2.539   3.287
 1202SOL     OW 4165   0.814   3.258   2.799
 1202SOL    HW1 4166   0.898   3.248   2.755
 1202SOL    HW2 4167   0.749   3.258   2.729
 1203SOL     OW 4168   0.927   2.371   2.766
 1203SOL    HW1 4169   0.904   2.363   2.673
 1203SOL    HW2 4170   0.959   2.284   2.790
 1204SOL     OW 4171   0.559   1.923   2.359
 1204SOL    HW1 4172   0.484   1.924   2.419
 1204SOL    HW2 4173   0.549   2.003   2.308
 1205SOL     OW 4174   1.428   3.060   1.903
 1205SOL    HW1 4175   1.459   2.984   1.953
 1205SOL    HW2 4176   1.343   3.080   1.941
 1206SOL     OW 4177   0.305   1.909   2.042
 1206SOL    HW1 4178   0.367   1.972   2.007
 1206SOL    HW2 4179   0.360   1.843   2.086
 1207SOL     OW 4180   0.938   2.107   2.324
 1207SOL    HW1 4181   0.910   2.150   2.243
 1207SOL    HW2 4182   1.033   2.121   2.327
 1208SOL     OW 4183   1.080   2.541   3.322
 1208SOL    HW1 4184   1.009   2.477   3.327
 1208SOL    HW2 4185   1.159   2.489   3.314
 1209SOL     OW 4186   1.224   3.431   2.655
 1209SOL    HW1 4187   1.241   3.499   2.590
 1209SOL    HW2 4188   1.292   3.445   2.722
 1210SOL     OW 4189   0.466   3.011   2.596
 1210SOL    HW1 4190   0.397   2.992   2.658
 1210SOL    HW2 4191   0.427   2.992   2.510
 1211SOL     OW 4192   1.270   3.657   2.469
 1211SOL    HW1 4193   1.315   3.718   2.410
 1211SOL    HW2 4194   1.204   3.710   2.513
 1212SOL     OW 4195   1.024   2.406   1.883
 1212SOL    HW1 4196   0.983   2.489   1.862
 1212SOL    HW2 4197   1.089   2.427   1.950
 1213SOL     OW 4198   0.086   2.409   3.259
 1213SOL    HW1 4199   0.174   2.415   3.222
 1213SOL    HW2 4200   0.079   2.484   3.318
 1214SOL     OW 4201   0.561   2.089   3.027
 1214SOL    HW1 4202   0.598   2.009   3.063
 1214SOL    HW2 4203   0.469   2.088   3.055
 1215SOL     OW 4204   0.869   2.321   2.502
 1215SOL    HW1 4205   0.823   2.375   2.438
 1215SOL    HW2 4206   0.889   2.240   2.455
 1216SOL     OW 4207   1.015   1.915   2.614
 1216SOL    HW1 4208   0.956   1.907   2.539
 1216SOL    HW2 4209   0.994   1.839   2.669
 1217SOL     OW 4210   1.436   3.026   2.720
 1217SOL    HW1 4211   1.368   2.958   2.718
 1217SOL    HW2 4212   1.460   3.038   2.628
 1218SOL     OW 4213   1.467   2.466   2.841
 1218SOL    HW1 4214   1.418   2.384   2.845
 1218SOL    HW2 4215   1.528   2.461   2.915
 1219SOL     OW 4216   1.847   2.679   2.244
 1219SOL    HW1 4217   1.903   2.628   2.302
 1219SOL    HW2 4218   1.818   2.617   2.177
 1220SOL     OW 4219   0.492   3.277   2.022
 1220SOL    HW1 4220   0.417   3.249   2.074
 1220SOL    HW2 4221   0.472   3.248   1.933
 1221SOL     OW 4222   1.669   3.126   2.510
 1221SOL    HW1 4223   1.764   3.130   2.522
 1221SOL    HW2 4224   1.638   3.214   2.530
 1222SOL     OW 4225   1.394   2.434   1.933
 1222SOL    HW1 4226   1.333   2.415   2.005
 1222SOL    HW2 4227   1.478   2.401   1.964
 1223SOL     OW 4228   0.524   2.125   2.181
 1223SOL    HW1 4229   0.567   2.077   2.111
 1223SOL    HW2 4230   0.504   2.211   2.143
 1224SOL     OW 4231   1.738   3.112   3.438
 1224SOL    HW1 4232   1.812   3.052   3.450
 1224SOL    HW2 4233   1.772   3.197   3.464
 1225SOL     OW 4234   1.060   3.215   3.196
 1225SOL    HW1 4235   0.985   3.184   3.247
 1225SOL    HW2 4236   1.136   3.174   3.237
 1226SOL     OW 4237   1.607   3.488   3.514
 1226SOL    HW1 4238   1.604   3.521   3.425
 1226SOL    HW2 4239   1.689   3.439   3.519
 1227SOL     OW 4240   1.126   3.064   2.968
 1227SOL    HW1 4241   1.068   3.102   3.034
 1227SOL    HW2 4242   1.093   3.096   2.884
 1228SOL     OW 4243   1.631   2.962   2.940
 1228SOL    HW1 4244   1.627   3.023   3.014
 1228SOL    HW2 4245   1.550   2.977   2.891
 1229SOL     OW 4246   0.918   1.959   3.261
 1229SOL    HW1 4247   0.940   1.941   3.169
 1229SOL    HW2 4248   0.998   1.999   3.297
 1230SOL     OW 4249   0.984   2.976   3.584
 1230SOL    HW1 4250   0.892   2.992   3.604
 1230SOL    HW2 4251   0.984   2.899   3.528
 1231SOL     OW 4252   0.707   2.921   2.235
 1231SOL    HW1 4253   0.696   2.907   2.329
 1231SOL    HW2 4254   0.784   2.869   2.211
 1232SOL     OW 4255   0.420   2.679   3.113
 1232SOL    HW1 4256   0.489   2.686   3.179
 1232SOL    HW2 4257   0.384   2.591   3.125
 1233SOL     OW 4258   1.266   2.240   3.135
 1233SOL    HW1 4259   1.298   2.317   3.182
 1233SOL    HW2 4260   1.176   2.262   3.111
 1234SOL     OW 4261   0.100   3.484   3.230
 1234SOL    HW1 4262   0.077   3.496   3.138
 1234SOL    HW2 4263   0.186   3.443   3.228
 1235SOL     OW 4264   0.345   2.966   2.351
 1235SOL    HW1 4265   0.355   3.045   2.298
 1235SOL    HW2 4266   0.356   2.894   2.289
 1236SOL     OW 4267   0.556   2.399   2.721
 1236SOL    HW1 4268   0.572   2.457   2.647
 1236SOL    HW2 4269   0.619   2.427   2.788
 1237SOL     OW 4270   1.248   3.210   2.252
 1237SOL    HW1 4271   1.303   3.282   2.282
 1237SOL    HW2 4272   1.161   3.231   2.285
 1238SOL     OW 4273   1.279   3.318   3.008
 1238SOL    HW1 4274   1.334   3.321   3.086
 1238SOL    HW2 4275   1.223   3.241   3.020
 1239SOL     OW 4276   1.583   2.486   2.339
 1239SOL    HW1 4277   1.537   2.541   2.403
 1239SOL    HW2 4278   1.628   2.548   2.282
 1240SOL     OW 4279   0.351   3.381   3.174
 1240SOL    HW1 4280   0.342   3.337   3.089
 1240SOL    HW2 4281   0.445   3.399   3.181
 1241SOL     OW 4282   0.412   2.605   3.464
 1241SOL    HW1 4283   0.473   2.652   3.406
 1241SOL    HW2 4284   0.453   2.519   3.477
 1242SOL     OW 4285   1.607   2.649   3.533
 1242SOL    HW1 4286   1.518   2.685   3.539
 1242SOL    HW2 4287   1.636   2.673   3.445
 1243SOL     OW 4288   0.996   1.982   3.618
 1243SOL    HW1 4289   1.049   2.055   3.587
 1243SOL    HW2 4290   1.045   1.904   3.592
 1244SOL     OW 4291   0.498   1.905   3.609
 1244SOL    HW1 4292   0.457   1.850   3.542
 1244SOL    HW2 4293   0.437   1.978   3.621
 1245SOL     OW 4294   0.585   2.735   2.894
 1245SOL    HW1 4295   0.615   2.826   2.892
 1245SOL    HW2 4296   0.528   2.730   2.971
 1246SOL     OW 4297   1.359   2.721   2.894
 1246SOL    HW1 4298   1.277   2.713   2.845
 1246SOL    HW2 4299   1.398   2.634   2.890
 1247SOL     OW 4300   1.206   2.391   2.130
 1247SOL    HW1 4301   1.214   2.312   2.185
 1247SOL    HW2 4302   1.164   2.455   2.187
 1248SOL     OW 4303   0.302   2.066   3.110
 1248SOL    HW1 4304   0.267   2.091   3.195
 1248SOL    HW2 4305   0.288   1.971   3.106
 1249SOL     OW 4306   0.071   3.181   3.143
 1249SOL    HW1 4307   0.090   3.121   3.215
 1249SOL    HW2 4308   0.006   3.241   3.179
 1250SOL     OW 4309   0.725   2.494   2.921
 1250SOL    HW1 4310   0.799   2.477   2.862
 1250SOL    HW2 4311   0.698   2.583   2.900
 1251SOL     OW 4312   1.726   2.829   3.714
 1251SOL    HW1 4313   1.688   2.765   3.655
 1251SOL    HW2 4314   1.663   2.836   3.786
 1252SOL     OW 4315   0.328   1.924   2.497
 1252SOL    HW1 4316   0.307   2.013   2.525
 1252SOL    HW2 4317   0.330   1.873   2.578
 1253SOL     OW 4318   1.614   2.235   2.230
 1253SOL    HW1 4319   1.642   2.172   2.297
 1253SOL    HW2 4320   1.592   2.314   2.280
 1254SOL     OW 4321   1.027   2.621   2.823
 1254SOL    HW1 4322   1.026   2.639   2.917
 1254SOL    HW2 4323   1.001   2.530   2.816
 1255SOL     OW 4324   0.982   3.428   3.577
 1255SOL    HW1 4325   0.967   3.473   3.494
 1255SOL    HW2 4326   1.025   3.346   3.553
 1256SOL     OW 4327   1.858   3.368   3.466
 1256SOL    HW1 4328   1.875   3.394   3.376
 1256SOL    HW2 4329   1.937   3.392   3.514
 1257SOL     OW 4330   0.353   2.779   3.668
 1257SOL    HW1 4331   0.435   2.799   3.715
 1257SOL    HW2 4332   0.378   2.715   3.602
 1258SOL     OW 4333   1.530   2.135   1.989
 1258SOL    HW1 4334   1.466   2.070   2.015
 1258SOL    HW2 4335   1.563   2.171   2.072
 1259SOL     OW 4336   1.293   2.689   1.894
 1259SOL    HW1 4337   1.336   2.603   1.897
 1259SOL    HW2 4338   1.324   2.728   1.812
 1260SOL     OW 4339   1.065   3.197   2.715
 1260SOL    HW1 4340   1.068   3.124   2.653
 1260SOL    HW2 4341   1.128   3.261   2.680
 1261SOL     OW 4342   0.315   2.673   2.812
 1261SOL    HW1 4343   0.409   2.691   2.808
 1261SOL    HW2 4344   0.309   2.583   2.844
 1262SOL     OW 4345   0.336   2.387   2.876
 1262SOL    HW1 4346   0.300   2.299   2.862
 1262SOL    HW2 4347   0.411   2.392   2.816
 1263SOL     OW 4348   1.135   2.240   3.542
 1263SOL    HW1 4349   1.088   2.294   3.605
 1263SOL    HW2 4350   1.223   2.277   3.539
 1264SOL     OW 4351   1.161   2.066   3.332
 1264SOL    HW1 4352   1.151   2.128   3.404
 1264SOL    HW2 4353   1.199   2.117   3.260
 1265SOL     OW 4354   0.001   3.193   2.072
 1265SOL    HW1 4355   5.225   3.184   2.015
 1265SOL    HW2 4356   0.012   3.106   2.111
 1266SOL     OW 4357   0.091   3.644   2.811
 1266SOL    HW1 4358   0.058   3.572   2.757
 1266SOL    HW2 4359   0.179   3.662   2.776
 1267SOL     OW 4360   0.505   3.435   2.769
 1267SOL    HW1 4361   0.573   3.500   2.789
 1267SOL    HW2 4362   0.549   3.373   2.711
 1268SOL     OW 4363   0.986   2.655   3.089
 1268SOL    HW1 4364   1.040   2.631   3.165
 1268SOL    HW2 4365   0.900   2.619   3.109
 1269SOL     OW 4366   0.034   2.421   2.976
 1269SOL    HW1 4367   0.120   2.394   2.944
 1269SOL    HW2 4368   0.038   2.404   3.070
 1270SOL     OW 4369   0.176   2.374   3.574
 1270SOL    HW1 4370   0.242   2.341   3.515
 1270SOL    HW2 4371   0.145   2.455   3.532
 1271SOL     OW 4372   1.377   2.802   3.523
 1271SOL    HW1 4373   1.397   2.896   3.523
 1271SOL    HW2 4374   1.374   2.778   3.430
 1272SOL     OW 4375   0.816   2.431   2.219
 1272SOL    HW1 4376   0.819   2.356   2.160
 1272SOL    HW2 4377   0.741   2.482   2.188
 1273SOL     OW 4378   1.644   2.458   3.048
 1273SOL    HW1 4379   1.626   2.399   3.121
 1273SOL    HW2 4380   1.732   2.435   3.019
 1274SOL     OW 4381   0.257   3.418   3.598
 1274SOL    HW1 4382   0.233   3.480   3.666
 1274SOL    HW2 4383   0.249   3.332   3.639
 1275SOL     OW 4384   0.698   2.314   3.124
 1275SOL    HW1 4385   0.646   2.239   3.093
 1275SOL    HW2 4386   0.695   2.376   3.051
 1276SOL     OW 4387   0.930   3.541   3.328
 1276SOL    HW1 4388   0.903   3.508   3.243
 1276SOL    HW2 4389   0.926   3.636   3.320
 1277SOL     OW 4390   0.466   2.355   2.049
 1277SOL    HW1 4391   0.525   2.428   2.069
 1277SOL    HW2 4392   0.380   2.396   2.039
 1278SOL     OW 4393   0.149   3.000   3.333
 1278SOL    HW1 4394   0.148   2.950   3.415
 1278SOL    HW2 4395   0.162   2.935   3.265
 1279SOL     OW 4396   1.326   2.910   3.088
 1279SOL    HW1 4397   1.352   2.847   3.020
 1279SOL    HW2 4398   1.255   2.960   3.048
 1280SOL     OW 4399   1.310   2.718   2.169
 1280SOL    HW1 4400   1.233   2.689   2.218
 1280SOL    HW2 4401   1.286   2.705   2.077
 1281SOL     OW 4402   1.769   3.606   3.011
 1281SOL    HW1 4403   1.830   3.633   2.942
 1281SOL    HW2 4404   1.745   3.517   2.988
 1282SOL     OW 4405   1.242   3.595   2.978
 1282SOL    HW1 4406   1.323   3.614   2.931
 1282SOL    HW2 4407   1.246   3.501   2.995
 1283SOL     OW 4408   0.083   3.083   2.889
 1283SOL    HW1 4409   0.070   3.107   2.981
 1283SOL    HW2 4410   5.295   3.070   2.854
 1284SOL     OW 4411   0.678   3.527   3.588
 1284SOL    HW1 4412   0.624   3.606   3.585
 1284SOL    HW2 4413   0.741   3.537   3.517
 1285SOL     OW 4414   1.719   2.006   2.374
 1285SOL    HW1 4415   1.792   1.991   2.313
 1285SOL    HW2 4416   1.703   1.921   2.413
 1286SOL     OW 4417   1.390   3.430   2.345
 1286SOL    HW1 4418   1.451   3.461   2.278
 1286SOL    HW2 4419   1.342   3.508   2.373
 1287SOL     OW 4420   0.143   3.660   3.705
 1287SOL    HW1 4421   0.089   3.596   3.751
 1287SOL    HW2 4422   0.188   3.708   3.774
 1288SOL     OW 4423   1.277   2.787   2.533
 1288SOL    HW1 4424   1.351   2.726   2.538
 1288SOL    HW2 4425   1.310   2.860   2.481
 1289SOL     OW 4426   0.817   3.134   3.293
 1289SOL    HW1 4427   0.789   3.174   3.376
 1289SOL    HW2 4428   0.747   3.156   3.232
 1290SOL     OW 4429   0.673   3.479   2.017
 1290SOL    HW1 4430   0.682   3.491   1.923
 1290SOL    HW2 4431   0.618   3.401   2.026
 1291SOL     OW 4432   1.632   3.589   3.254
 1291SOL    HW1 4433   1.677   3.598   3.170
 1291SOL    HW2 4434   1.617   3.679   3.283
 1292SOL     OW 4435   1.843   2.037   2.826
 1292SOL    HW1 4436   1.870   1.949   2.801
 1292SOL    HW2 4437   1.755   2.047   2.789
 1293SOL     OW 4438   0.272   2.179   2.580
 1293SOL    HW1 4439   0.188   2.218   2.558
 1293SOL    HW2 4440   0.269   2.168   2.675
 1294SOL     OW 4441   1.206   3.469   1.893
 1294SOL    HW1 4442   1.197   3.378   1.920
 1294SOL    HW2 4443   1.141   3.480   1.824
 1295SOL     OW 4444   0.824   2.868   3.234
 1295SOL    HW1 4445   0.867   2.864   3.148
 1295SOL    HW2 4446   0.824   2.960   3.257
 1296SOL     OW 4447   0.915   2.772   2.152
 1296SOL    HW1 4448   0.976   2.804   2.085
 1296SOL    HW2 4449   0.962   2.702   2.196
 1297SOL     OW 4450   1.494   3.486   1.904
 1297SOL    HW1 4451   1.399   3.482   1.892
 1297SOL    HW2 4452   1.529   3.493   1.816
 1298SOL     OW 4453   0.368   3.165   3.355
 1298SOL    HW1 4454   0.359   3.240   3.297
 1298SOL    HW2 4455   0.292   3.110   3.336
 1299SOL     OW 4456   1.614   3.147   3.142
 1299SOL    HW1 4457   1.668   3.132   3.220
 1299SOL    HW2 4458   1.552   3.215   3.169
 1300SOL     OW 4459   1.049   2.968   2.567
 1300SOL    HW1 4460   0.979   2.916   2.607
 1300SOL    HW2 4461   1.111   2.902   2.535
 1301SOL     OW 4462   1.021   2.102   2.828
 1301SOL    HW1 4463   1.015   2.054   2.745
 1301SOL    HW2 4464   1.015   2.034   2.895
 1302SOL     OW 4465   0.600   3.349   2.344
 1302SOL    HW1 4466   0.643   3.301   2.273
 1302SOL    HW2 4467   0.535   3.404   2.299
 1303SOL     OW 4468   1.722   2.251   3.244
 1303SOL    HW1 4469   1.793   2.314   3.236
 1303SOL    HW2 4470   1.749   2.177   3.189
 1304SOL     OW 4471   0.260   3.210   2.153
 1304SOL    HW1 4472   0.166   3.213   2.131
 1304SOL    HW2 4473   0.264   3.247   2.241
 1305SOL     OW 4474   0.115   2.878   3.581
 1305SOL    HW1 4475   0.043   2.842   3.634
 1305SOL    HW2 4476   0.194   2.847   3.624
 1306SOL     OW 4477   0.673   2.058   3.361
 1306SOL    HW1 4478   0.757   2.039   3.319
 1306SOL    HW2 4479   0.697   2.088   3.449
 1307SOL     OW 4480   0.080   2.215   1.903
 1307SOL    HW1 4481   0.002   2.165   1.879
 1307SOL    HW2 4482   0.097   2.270   1.828
 1308SOL     OW 4483   1.433   2.722   3.266
 1308SOL    HW1 4484   1.380   2.780   3.212
 1308SOL    HW2 4485   1.520   2.725   3.225
 1309SOL     OW 4486   0.055   1.996   2.104
 1309SOL    HW1 4487   0.054   2.091   2.101
 1309SOL    HW2 4488   0.146   1.971   2.086
 1310SOL     OW 4489   1.180   3.202   1.979
 1310SOL    HW1 4490   1.089   3.173   1.982
 1310SOL    HW2 4491   1.208   3.202   2.070
 1311SOL     OW 4492   0.619   2.693   3.296
 1311SOL    HW1 4493   0.674   2.769   3.281
 1311SOL    HW2 4494   0.680   2.620   3.304
 1312SOL     OW 4495   1.485   3.637   2.839
 1312SOL    HW1 4496   1.509   3.695   2.766
 1312SOL    HW2 4497   1.567   3.621   2.885
 1313SOL     OW 4498   0.717   2.427   3.568
 1313SOL    HW1 4499   0.756   2.490   3.628
 1313SOL    HW2 4500   0.749   2.342   3.598
 1314SOL     OW 4501   1.468   3.063   3.495
 1314SOL    HW1 4502   1.458   3.077   3.589
 1314SOL    HW2 4503   1.560   3.080   3.477
 1315SOL     OW 4504   0.380   3.603   3.426
 1315SOL    HW1 4505   0.297   3.649   3.411
 1315SOL    HW2 4506   0.356   3.522   3.470
 1316SOL     OW 4507   1.658   2.738   3.119
 1316SOL    HW1 4508   1.658   2.656   3.070
 1316SOL    HW2 4509   1.660   2.806   3.051
 1317SOL     OW 4510   1.218   2.181   2.320
 1317SOL    HW1 4511   1.281   2.110   2.311
 1317SOL    HW2 4512   1.247   2.230   2.397
 1318SOL     OW 4513   0.591   2.601   2.530
 1318SOL    HW1 4514   0.630   2.687   2.514
 1318SOL    HW2 4515   0.521   2.594   2.465
 1319SOL     OW 4516   1.761   2.228   3.518
 1319SOL    HW1 4517   1.754   2.232   3.423
 1319SOL    HW2 4518   1.691   2.169   3.545
 1320SOL     OW 4519   0.863   3.230   1.894
 1320SOL    HW1 4520   0.823   3.258   1.976
 1320SOL    HW2 4521   0.882   3.311   1.847
 1321SOL     OW 4522   0.662   3.657   2.808
 1321SOL    HW1 4523   0.640   3.747   2.785
 1321SOL    HW2 4524   0.757   3.653   2.801
 1322SOL     OW 4525   0.866   2.827   2.717
 1322SOL    HW1 4526   0.917   2.757   2.758
 1322SOL    HW2 4527   0.833   2.878   2.791
 1323SOL     OW 4528   1.079   2.849   1.950
 1323SOL    HW1 4529   1.057   2.900   1.872
 1323SOL    HW2 4530   1.154   2.797   1.925
 1324SOL     OW 4531   1.854   3.419   2.707
 1324SOL    HW1 4532   1.778   3.405   2.652
 1324SOL    HW2 4533   1.849   3.349   2.773
 1325SOL     OW 4534   0.224   3.168   3.721
 1325SOL    HW1 4535   0.156   3.105   3.695
 1325SOL    HW2 4536   0.212   3.178   3.815
 1326SOL     OW 4537   0.086   3.084   2.516
 1326SOL    HW1 4538   0.097   3.051   2.606
 1326SOL    HW2 4539   0.171   3.072   2.475
 1327SOL     OW 4540   0.681   3.263   3.489
 1327SOL    HW1 4541   0.600   3.220   3.519
 1327SOL    HW2 4542   0.675   3.351   3.525
 1328SOL     OW 4543   1.814   2.047   3.098
 1328SOL    HW1 4544   1.829   1.954   3.115
 1328SOL    HW2 4545   1.822   2.055   3.003
 1329SOL     OW 4546   0.434   2.297   2.386
 1329SOL    HW1 4547   0.461   2.225   2.330
 1329SOL    HW2 4548   0.387   2.256   2.458
 1330SOL     OW 4549   1.700   3.351   2.962
 1330SOL    HW1 4550   1.620   3.329   2.915
 1330SOL    HW2 4551   1.709   3.282   3.027
 1331SOL     OW 4552   0.335   2.420   3.153
 1331SOL    HW1 4553   0.387   2.360   3.206
 1331SOL    HW2 4554   0.349   2.390   3.063
 1332SOL     OW 4555   0.827   3.439   2.541
 1332SOL    HW1 4556   0.818   3.490   2.460
 1332SOL    HW2 4557   0.749   3.384   2.543
 1333SOL     OW 4558   1.433   2.086   2.981
 1333SOL    HW1 4559   1.459   2.007   3.027
 1333SOL    HW2 4560   1.380   2.135   3.044
 1334SOL     OW 4561   1.009   1.882   3.006
 1334SOL    HW1 4562   0.954   1.814   2.967
 1334SOL    HW2 4563   1.096   1.844   3.008
 1335SOL     OW 4564   0.771   3.194   2.175
 1335SOL    HW1 4565   0.739   3.104   2.181
 1335SOL    HW2 4566   0.854   3.194   2.223
 1336SOL     OW 4567   0.622   3.419   3.149
 1336SOL    HW1 4568   0.624   3.501   3.198
 1336SOL    HW2 4569   0.709   3.413   3.108
 1337SOL     OW 4570   1.352   1.916   2.026
 1337SOL    HW1 4571   1.379   1.855   1.958
 1337SOL    HW2 4572   1.265   1.885   2.053
 1338SOL     OW 4573   1.297   2.322   2.544
 1338SOL    HW1 4574   1.244   2.401   2.552
 1338SOL    HW2 4575   1.293   2.282   2.631
 1339SOL     OW 4576   1.589   2.067   2.740
 1339SOL    HW1 4577   1.524   2.085   2.809
 1339SOL    HW2 4578   1.586   2.145   2.685
 1340SOL     OW 4579   0.047   2.931   2.153
 1340SOL    HW1 4580   0.137   2.901   2.142
 1340SOL    HW2 4581   5.300   2.855   2.186
 1341SOL     OW 4582   0.883   3.512   2.205
 1341SOL    HW1 4583   0.811   3.496   2.144
 1341SOL    HW2 4584   0.855   3.588   2.256
 1342SOL     OW 4585   0.233   2.496   3.839
 1342SOL    HW1 4586   0.157   2.465   3.889
 1342SOL    HW2 4587   0.221   2.458   3.752
 1343SOL     OW 4588   0.240   2.138   4.715
 1343SOL    HW1 4589   0.255   2.104   4.803
 1343SOL    HW2 4590   0.157   2.099   4.688
 1344SOL     OW 4591   5.299   2.258   4.376
 1344SOL    HW1 4592   5.206   2.281   4.384
 1344SOL    HW2 4593   5.299   2.167   4.346
 1345SOL     OW 4594   0.572   3.143   4.902
 1345SOL    HW1 4595   0.489   3.151   4.856
 1345SOL    HW2 4596   0.589   3.231   4.938
 1346SOL     OW 4597   1.558   3.373   4.430
 1346SOL    HW1 4598   1.515   3.355   4.513
 1346SOL    HW2 4599   1.487   3.379   4.366
 1347SOL     OW 4600   1.129   2.561   4.427
 1347SOL    HW1 4601   1.179   2.641   4.412
 1347SOL    HW2 4602   1.083   2.576   4.509
 1348SOL     OW 4603   1.740   2.476   3.964
 1348SOL    HW1 4604   1.741   2.469   3.868
 1348SOL    HW2 4605   1.732   2.386   3.995
 1349SOL     OW 4606   0.758   3.005   4.762
 1349SOL    HW1 4607   0.690   3.038   4.820
 1349SOL    HW2 4608   0.792   3.083   4.718
 1350SOL     OW 4609   0.863   2.641   5.545
 1350SOL    HW1 4610   0.854   2.713   5.608
 1350SOL    HW2 4611   0.887   2.683   5.463
 1351SOL     OW 4612   0.686   2.867   4.372
 1351SOL    HW1 4613   0.751   2.853   4.441
 1351SOL    HW2 4614   0.617   2.919   4.414
 1352SOL     OW 4615   0.708   3.013   5.535
 1352SOL    HW1 4616   0.756   3.092   5.560
 1352SOL    HW2 4617   0.625   3.046   5.500
 1353SOL     OW 4618   0.358   3.268   4.784
 1353SOL    HW1 4619   0.270   3.267   4.745
 1353SOL    HW2 4620   0.406   3.331   4.730
 1354SOL     OW 4621   1.461   3.359   5.077
 1354SOL    HW1 4622   1.508   3.442   5.085
 1354SOL    HW2 4623   1.403   3.357   5.152
 1355SOL     OW 4624   0.449   2.262   5.219
 1355SOL    HW1 4625   0.523   2.202   5.219
 1355SOL    HW2 4626   0.372   2.206   5.226
 1356SOL     OW 4627   1.610   2.310   4.464
 1356SOL    HW1 4628   1.538   2.333   4.405
 1356SOL    HW2 4629   1.637   2.393   4.502
 1357SOL     OW 4630   0.229   3.577   4.202
 1357SOL    HW1 4631   0.265   3.644   4.259
 1357SOL    HW2 4632   0.290   3.572   4.128
 1358SOL     OW 4633   1.136   3.203   5.416
 1358SOL    HW1 4634   1.176   3.199   5.503
 1358SOL    HW2 4635   1.084   3.123   5.410
 1359SOL     OW 4636   0.223   3.305   4.262
 1359SOL    HW1 4637   0.213   3.400   4.262
 1359SOL    HW2 4638   0.153   3.274   4.321
 1360SOL     OW 4639   0.248   2.941   4.601
 1360SOL    HW1 4640   0.259   2.856   4.644
 1360SOL    HW2 4641   0.197   2.993   4.662
 1361SOL     OW 4642   0.616   3.652   5.158
 1361SOL    HW1 4643   0.532   3.635   5.199
 1361SOL    HW2 4644   0.636   3.743   5.179
 1362SOL     OW 4645   0.586   2.844   3.858
 1362SOL    HW1 4646   0.630   2.893   3.789
 1362SOL    HW2 4647   0.628   2.872   3.939
 1363SOL     OW 4648   1.595   1.983   5.194
 1363SOL    HW1 4649   1.598   2.062   5.140
 1363SOL    HW2 4650   1.583   2.016   5.283
 1364SOL     OW 4651   0.126   2.497   4.302
 1364SOL    HW1 4652   0.089   2.414   4.330
 1364SOL    HW2 4653   0.098   2.560   4.369
 1365SOL     OW 4654   1.842   3.622   4.061
 1365SOL    HW1 4655   1.903   3.593   4.128
 1365SOL    HW2 4656   1.868   3.713   4.042
 1366SOL     OW 4657   0.037   3.460   3.854
 1366SOL    HW1 4658   0.024   3.369   3.879
 1366SOL    HW2 4659   5.284   3.510   3.916
 1367SOL     OW 4660   1.692   2.778   4.366
 1367SOL    HW1 4661   1.773   2.733   4.340
 1367SOL    HW2 4662   1.670   2.832   4.290
 1368SOL     OW 4663   1.643   2.967   4.158
 1368SOL    HW1 4664   1.724   2.983   4.109
 1368SOL    HW2 4665   1.647   3.029   4.230
 1369SOL     OW 4666   0.129   2.609   5.311
 1369SOL    HW1 4667   0.223   2.623   5.317
 1369SOL    HW2 4668   0.091   2.696   5.323
 1370SOL     OW 4669   0.614   3.245   4.459
 1370SOL    HW1 4670   0.567   3.163   4.469
 1370SOL    HW2 4671   0.597   3.272   4.369
 1371SOL     OW 4672   1.289   3.100   5.148
 1371SOL    HW1 4673   1.322   3.034   5.088
 1371SOL    HW2 4674   1.346   3.093   5.225
 1372SOL     OW 4675   0.820   1.860   4.232
 1372SOL    HW1 4676   0.860   1.945   4.214
 1372SOL    HW2 4677   0.727   1.879   4.239
 1373SOL     OW 4678   0.180   2.812   5.001
 1373SOL    HW1 4679   0.270   2.782   4.990
 1373SOL    HW2 4680   0.134   2.780   4.923
 1374SOL     OW 4681   1.531   2.854   3.923
 1374SOL    HW1 4682   1.461   2.795   3.951
 1374SOL    HW2 4683   1.567   2.889   4.005
 1375SOL     OW 4684   1.186   3.667   5.345
 1375SOL    HW1 4685   1.198   3.725   5.270
 1375SOL    HW2 4686   1.201   3.579   5.310
 1376SOL     OW 4687   0.333   2.115   5.536
 1376SOL    HW1 4688   0.382   2.196   5.549
 1376SOL    HW2 4689   0.247   2.132   5.574
 1377SOL     OW 4690   1.465   3.282   4.675
 1377SOL    HW1 4691   1.398   3.296   4.742
 1377SOL    HW2 4692   1.455   3.191   4.650
 1378SOL     OW 4693   1.660   3.598   4.302
 1378SOL    HW1 4694   1.638   3.569   4.213
 1378SOL    HW2 4695   1.635   3.524   4.358
 1379SOL     OW 4696   0.595   2.584   3.988
 1379SOL    HW1 4697   0.604   2.664   3.937
 1379SOL    HW2 4698   0.531   2.606   4.056
 1380SOL     OW 4699   1.279   2.213   4.657
 1380SOL    HW1 4700   1.190   2.180   4.664
 1380SOL    HW2 4701   1.330   2.160   4.719
 1381SOL     OW 4702   1.581   3.531   4.033
 1381SOL    HW1 4703   1.671   3.564   4.027
 1381SOL    HW2 4704   1.556   3.514   3.942
 1382SOL     OW 4705   0.793   2.479   5.177
 1382SOL    HW1 4706   0.765   2.456   5.265
 1382SOL    HW2 4707   0.751   2.413   5.121
 1383SOL     OW 4708   1.394   2.336   5.402
 1383SOL    HW1 4709   1.395   2.380   5.487
 1383SOL    HW2 4710   1.456   2.264   5.411
 1384SOL     OW 4711   0.957   2.750   5.305
 1384SOL    HW1 4712   1.011   2.679   5.271
 1384SOL    HW2 4713   0.909   2.783   5.229
 1385SOL     OW 4714   0.992   2.275   4.964
 1385SOL    HW1 4715   0.908   2.297   5.002
 1385SOL    HW2 4716   0.970   2.228   4.883
 1386SOL     OW 4717   1.050   2.561   4.151
 1386SOL    HW1 4718   1.065   2.554   4.245
 1386SOL    HW2 4719   0.968   2.514   4.136
 1387SOL     OW 4720   0.072   2.648   4.537
 1387SOL    HW1 4721   0.156   2.654   4.584
 1387SOL    HW2 4722   0.060   2.736   4.500
 1388SOL     OW 4723   0.132   3.742   5.307
 1388SOL    HW1 4724   0.133   3.709   5.398
 1388SOL    HW2 4725   0.057   3.699   5.267
 1389SOL     OW 4726   0.889   2.209   3.918
 1389SOL    HW1 4727   0.932   2.271   3.858
 1389SOL    HW2 4728   0.907   2.123   3.881
 1390SOL     OW 4729   1.711   2.439   5.552
 1390SOL    HW1 4730   1.672   2.513   5.504
 1390SOL    HW2 4731   1.735   2.377   5.484
 1391SOL     OW 4732   1.375   3.004   4.266
 1391SOL    HW1 4733   1.453   2.990   4.213
 1391SOL    HW2 4734   1.322   3.067   4.216
 1392SOL     OW 4735   0.554   2.046   4.617
 1392SOL    HW1 4736   0.552   2.073   4.708
 1392SOL    HW2 4737   0.551   2.128   4.567
 1393SOL     OW 4738   1.007   3.307   4.197
 1393SOL    HW1 4739   0.968   3.379   4.148
 1393SOL    HW2 4740   0.992   3.329   4.289
 1394SOL     OW 4741   0.356   3.663   4.592
 1394SOL    HW1 4742   0.397   3.578   4.605
 1394SOL    HW2 4743   0.423   3.727   4.618
 1395SOL     OW 4744   1.799   2.930   4.589
 1395SOL    HW1 4745   1.746   2.898   4.516
 1395SOL    HW2 4746   1.740   2.929   4.664
 1396SOL     OW 4747   1.228   3.401   5.237
 1396SOL    HW1 4748   1.214   3.328   5.297
 1396SOL    HW2 4749   1.166   3.386   5.165
 1397SOL     OW 4750   0.317   2.814   3.970
 1397SOL    HW1 4751   0.399   2.838   3.927
 1397SOL    HW2 4752   0.294   2.729   3.933
 1398SOL     OW 4753   1.474   2.605   4.455
 1398SOL    HW1 4754   1.466   2.557   4.537
 1398SOL    HW2 4755   1.554   2.657   4.464
 1399SOL     OW 4756   0.464   3.125   5.461
 1399SOL    HW1 4757   0.437   3.131   5.370
 1399SOL    HW2 4758   0.382   3.126   5.511
 1400SOL     OW 4759   1.121   3.639   3.956
 1400SOL    HW1 4760   1.049   3.596   4.002
 1400SOL    HW2 4761   1.143   3.579   3.884
 1401SOL     OW 4762   0.204   2.145   5.221
 1401SOL    HW1 4763   0.124   2.195   5.206
 1401SOL    HW2 4764   0.175   2.068   5.271
 1402SOL     OW 4765   1.625   3.243   3.809
 1402SOL    HW1 4766   1.584   3.328   3.794
 1402SOL    HW2 4767   1.557   3.179   3.790
 1403SOL     OW 4768   0.471   3.597   4.045
 1403SOL    HW1 4769   0.512   3.655   4.108
 1403SOL    HW2 4770   0.543   3.569   3.988
 1404SOL     OW 4771   1.401   1.969   4.155
 1404SOL    HW1 4772   1.390   1.945   4.063
 1404SOL    HW2 4773   1.495   1.979   4.167
 1405SOL     OW 4774   0.274   3.663   4.941
 1405SOL    HW1 4775   0.307   3.587   4.989
 1405SOL    HW2 4776   0.226   3.625   4.867
 1406SOL     OW 4777   0.939   3.560   4.624
 1406SOL    HW1 4778   1.016   3.508   4.644
 1406SOL    HW2 4779   0.893   3.511   4.555
 1407SOL     OW 4780   0.386   2.558   4.203
 1407SOL    HW1 4781   0.416   2.468   4.211
 1407SOL    HW2 4782   0.292   2.555   4.224
 1408SOL     OW 4783   1.536   2.088   5.449
 1408SOL    HW1 4784   1.545   2.109   5.542
 1408SOL    HW2 4785   1.469   2.020   5.446
 1409SOL     OW 4786   0.630   1.985   3.831
 1409SOL    HW1 4787   0.704   1.926   3.841
 1409SOL    HW2 4788   0.584   1.953   3.753
 1410SOL     OW 4789   0.768   2.139   5.477
 1410SOL    HW1 4790   0.842   2.078   5.481
 1410SOL    HW2 4791   0.718   2.122   5.556
 1411SOL     OW 4792   0.877   3.383   4.917
 1411SOL    HW1 4793   0.862   3.347   4.830
 1411SOL    HW2 4794   0.947   3.328   4.954
 1412SOL     OW 4795   1.343   2.450   5.155
 1412SOL    HW1 4796   1.372   2.419   5.241
 1412SOL    HW2 4797   1.376   2.540   5.150
 1413SOL     OW 4798   0.814   3.258   4.661
 1413SOL    HW1 4799   0.898   3.248   4.617
 1413SOL    HW2 4800   0.749   3.258   4.591
 1414SOL     OW 4801   0.927   2.371   4.628
 1414SOL    HW1 4802   0.904   2.363   4.535
 1414SOL    HW2 4803   0.959   2.285   4.652
 1415SOL     OW 4804   0.559   1.923   4.221
 1415SOL    HW1 4805   0.484   1.924   4.281
 1415SOL    HW2 4806   0.549   2.003   4.170
 1416SOL     OW 4807   1.427   3.060   3.765
 1416SOL    HW1 4808   1.458   2.984   3.816
 1416SOL    HW2 4809   1.342   3.080   3.803
 1417SOL     OW 4810   0.305   1.909   3.904
 1417SOL    HW1 4811   0.367   1.973   3.869
 1417SOL    HW2 4812   0.360   1.843   3.948
 1418SOL     OW 4813   0.938   2.107   4.186
 1418SOL    HW1 4814   0.910   2.150   4.105
 1418SOL    HW2 4815   1.033   2.121   4.189
 1419SOL     OW 4816   1.080   2.541   5.184
 1419SOL    HW1 4817   1.009   2.477   5.189
 1419SOL    HW2 4818   1.160   2.489   5.176
 1420SOL     OW 4819   1.224   3.431   4.517
 1420SOL    HW1 4820   1.241   3.499   4.452
 1420SOL    HW2 4821   1.292   3.444   4.583
 1421SOL     OW 4822   0.466   3.011   4.458
 1421SOL    HW1 4823   0.397   2.992   4.520
 1421SOL    HW2 4824   0.427   2.992   4.372
 1422SOL     OW 4825   1.270   3.656   4.331
 1422SOL    HW1 4826   1.315   3.718   4.272
 1422SOL    HW2 4827   1.205   3.710   4.376
 1423SOL     OW 4828   1.025   2.406   3.745
 1423SOL    HW1 4829   0.983   2.489   3.725
 1423SOL    HW2 4830   1.089   2.427   3.813
 1424SOL     OW 4831   0.086   2.409   5.121
 1424SOL    HW1 4832   0.174   2.415   5.084
 1424SOL    HW2 4833   0.079   2.484   5.180
 1425SOL     OW 4834   0.561   2.089   4.889
 1425SOL    HW1 4835   0.598   2.009   4.925
 1425SOL    HW2 4836   0.469   2.088   4.917
 1426SOL     OW 4837   0.868   2.321   4.364
 1426SOL    HW1 4838   0.823   2.375   4.299
 1426SOL    HW2 4839   0.889   2.240   4.317
 1427SOL     OW 4840   1.014   1.915   4.477
 1427SOL    HW1 4841   0.956   1.907   4.401
 1427SOL    HW2 4842   0.994   1.839   4.532
 1428SOL     OW 4843   1.436   3.025   4.582
 1428SOL    HW1 4844   1.368   2.958   4.580
 1428SOL    HW2 4845   1.460   3.038   4.490
 1429SOL     OW 4846   1.467   2.467   4.707
 1429SOL    HW1 4847   1.419   2.384   4.706
 1429SOL    HW2 4848   1.529   2.458   4.780
 1430SOL     OW 4849   0.492   3.277   3.884
 1430SOL    HW1 4850   0.417   3.249   3.936
 1430SOL    HW2 4851   0.472   3.248   3.795
 1431SOL     OW 4852   1.668   3.128   4.370
 1431SOL    HW1 4853   1.762   3.133   4.386
 1431SOL    HW2 4854   1.635   3.215   4.393
 1432SOL     OW 4855   1.395   2.434   3.795
 1432SOL    HW1 4856   1.335   2.414   3.867
 1432SOL    HW2 4857   1.481   2.406   3.828
 1433SOL     OW 4858   0.524   2.125   4.043
 1433SOL    HW1 4859   0.567   2.077   3.973
 1433SOL    HW2 4860   0.504   2.211   4.005
 1434SOL     OW 4861   1.753   3.098   5.299
 1434SOL    HW1 4862   1.839   3.057   5.308
 1434SOL    HW2 4863   1.767   3.189   5.326
 1435SOL     OW 4864   1.060   3.215   5.058
 1435SOL    HW1 4865   0.985   3.184   5.109
 1435SOL    HW2 4866   1.136   3.174   5.099
 1436SOL     OW 4867   1.606   3.487   5.376
 1436SOL    HW1 4868   1.603   3.521   5.287
 1436SOL    HW2 4869   1.690   3.439   5.381
 1437SOL     OW 4870   1.127   3.064   4.830
 1437SOL    HW1 4871   1.068   3.102   4.896
 1437SOL    HW2 4872   1.093   3.096   4.747
 1438SOL     OW 4873   1.628   2.956   4.803
 1438SOL    HW1 4874   1.625   3.021   4.874
 1438SOL    HW2 4875   1.551   2.976   4.750
 1439SOL     OW 4876   0.918   1.959   5.122
 1439SOL    HW1 4877   0.940   1.941   5.031
 1439SOL    HW2 4878   0.998   1.999   5.159
 1440SOL     OW 4879   0.984   2.976   5.446
 1440SOL    HW1 4880   0.892   2.992   5.466
 1440SOL    HW2 4881   0.984   2.899   5.390
 1441SOL     OW 4882   0.707   2.921   4.097
 1441SOL    HW1 4883   0.696   2.907   4.191
 1441SOL    HW2 4884   0.784   2.869   4.073
 1442SOL     OW 4885   0.420   2.679   4.976
 1442SOL    HW1 4886   0.489   2.686   5.041
 1442SOL    HW2 4887   0.385   2.591   4.987
 1443SOL     OW 4888   1.266   2.240   4.998
 1443SOL    HW1 4889   1.298   2.317   5.044
 1443SOL    HW2 4890   1.177   2.262   4.973
 1444SOL     OW 4891   0.100   3.484   5.092
 1444SOL    HW1 4892   0.077   3.496   4.999
 1444SOL    HW2 4893   0.186   3.443   5.090
 1445SOL     OW 4894   0.345   2.966   4.213
 1445SOL    HW1 4895   0.355   3.045   4.160
 1445SOL    HW2 4896   0.356   2.894   4.151
 1446SOL     OW 4897   0.556   2.399   4.583
 1446SOL    HW1 4898   0.572   2.458   4.510
 1446SOL    HW2 4899   0.619   2.427   4.650
 1447SOL     OW 4900   1.248   3.210   4.114
 1447SOL    HW1 4901   1.303   3.282   4.144
 1447SOL    HW2 4902   1.161   3.231   4.147
 1448SOL     OW 4903   1.279   3.318   4.870
 1448SOL    HW1 4904   1.334   3.320   4.948
 1448SOL    HW2 4905   1.223   3.241   4.882
 1449SOL     OW 4906   1.577   2.478   4.203
 1449SOL    HW1 4907   1.541   2.548   4.257
 1449SOL    HW2 4908   1.630   2.523   4.137
 1450SOL     OW 4909   0.351   3.381   5.036
 1450SOL    HW1 4910   0.342   3.337   4.951
 1450SOL    HW2 4911   0.445   3.399   5.043
 1451SOL     OW 4912   0.412   2.605   5.326
 1451SOL    HW1 4913   0.473   2.652   5.268
 1451SOL    HW2 4914   0.453   2.519   5.339
 1452SOL     OW 4915   1.600   2.641   5.404
 1452SOL    HW1 4916   1.514   2.681   5.397
 1452SOL    HW2 4917   1.652   2.683   5.335
 1453SOL     OW 4918   0.996   1.982   5.480
 1453SOL    HW1 4919   1.049   2.055   5.449
 1453SOL    HW2 4920   1.045   1.904   5.454
 1454SOL     OW 4921   0.498   1.905   5.471
 1454SOL    HW1 4922   0.457   1.850   5.404
 1454SOL    HW2 4923   0.437   1.978   5.483
 1455SOL     OW 4924   0.585   2.735   4.756
 1455SOL    HW1 4925   0.615   2.826   4.754
 1455SOL    HW2 4926   0.528   2.730   4.833
 1456SOL     OW 4927   1.360   2.720   4.757
 1456SOL    HW1 4928   1.278   2.714   4.707
 1456SOL    HW2 4929   1.398   2.632   4.751
 1457SOL     OW 4930   1.205   2.391   3.991
 1457SOL    HW1 4931   1.215   2.313   4.046
 1457SOL    HW2 4932   1.164   2.455   4.049
 1458SOL     OW 4933   0.302   2.066   4.972
 1458SOL    HW1 4934   0.267   2.091   5.057
 1458SOL    HW2 4935   0.288   1.971   4.968
 1459SOL     OW 4936   0.071   3.181   5.005
 1459SOL    HW1 4937   0.090   3.121   5.077
 1459SOL    HW2 4938   0.006   3.242   5.041
 1460SOL     OW 4939   0.725   2.494   4.783
 1460SOL    HW1 4940   0.799   2.476   4.725
 1460SOL    HW2 4941   0.698   2.583   4.761
 1461SOL     OW 4942   1.733   2.823   5.573
 1461SOL    HW1 4943   1.686   2.762   5.516
 1461SOL    HW2 4944   1.675   2.835   5.649
 1462SOL     OW 4945   0.327   1.924   4.359
 1462SOL    HW1 4946   0.307   2.013   4.387
 1462SOL    HW2 4947   0.330   1.873   4.440
 1463SOL     OW 4948   1.611   2.230   4.093
 1463SOL    HW1 4949   1.642   2.170   4.161
 1463SOL    HW2 4950   1.590   2.310   4.141
 1464SOL     OW 4951   1.027   2.622   4.685
 1464SOL    HW1 4952   1.026   2.639   4.780
 1464SOL    HW2 4953   1.001   2.530   4.678
 1465SOL     OW 4954   0.982   3.428   5.439
 1465SOL    HW1 4955   0.967   3.473   5.356
 1465SOL    HW2 4956   1.025   3.346   5.415
 1466SOL     OW 4957   1.856   3.368   5.327
 1466SOL    HW1 4958   1.875   3.396   5.238
 1466SOL    HW2 4959   1.935   3.390   5.376
 1467SOL     OW 4960   0.353   2.780   5.530
 1467SOL    HW1 4961   0.435   2.799   5.577
 1467SOL    HW2 4962   0.378   2.715   5.464
 1468SOL     OW 4963   1.530   2.135   3.851
 1468SOL    HW1 4964   1.465   2.069   3.878
 1468SOL    HW2 4965   1.563   2.171   3.932
 1469SOL     OW 4966   1.293   2.689   3.757
 1469SOL    HW1 4967   1.336   2.603   3.760
 1469SOL    HW2 4968   1.324   2.727   3.675
 1470SOL     OW 4969   1.065   3.197   4.577
 1470SOL    HW1 4970   1.068   3.124   4.515
 1470SOL    HW2 4971   1.128   3.261   4.543
 1471SOL     OW 4972   0.315   2.673   4.674
 1471SOL    HW1 4973   0.409   2.691   4.670
 1471SOL    HW2 4974   0.309   2.583   4.706
 1472SOL     OW 4975   0.336   2.387   4.738
 1472SOL    HW1 4976   0.300   2.299   4.724
 1472SOL    HW2 4977   0.411   2.392   4.678
 1473SOL     OW 4978   1.134   2.239   5.404
 1473SOL    HW1 4979   1.088   2.294   5.468
 1473SOL    HW2 4980   1.223   2.277   5.401
 1474SOL     OW 4981   1.161   2.066   5.194
 1474SOL    HW1 4982   1.151   2.129   5.265
 1474SOL    HW2 4983   1.199   2.117   5.122
 1475SOL     OW 4984   0.001   3.193   3.934
 1475SOL    HW1 4985   5.225   3.184   3.877
 1475SOL    HW2 4986   0.012   3.106   3.973
 1476SOL     OW 4987   0.091   3.644   4.673
 1476SOL    HW1 4988   0.058   3.572   4.619
 1476SOL    HW2 4989   0.179   3.661   4.638
 1477SOL     OW 4990   0.505   3.435   4.631
 1477SOL    HW1 4991   0.573   3.500   4.651
 1477SOL    HW2 4992   0.549   3.373   4.573
 1478SOL     OW 4993   0.986   2.655   4.952
 1478SOL    HW1 4994   1.040   2.631   5.027
 1478SOL    HW2 4995   0.900   2.618   4.971
 1479SOL     OW 4996   0.034   2.421   4.838
 1479SOL    HW1 4997   0.120   2.394   4.806
 1479SOL    HW2 4998   0.038   2.404   4.933
 1480SOL     OW 4999   0.176   2.374   5.436
 1480SOL    HW1 5000   0.242   2.341   5.377
 1480SOL    HW2 5001   0.145   2.455   5.394
 1481SOL     OW 5002   1.376   2.802   5.383
 1481SOL    HW1 5003   1.396   2.896   5.382
 1481SOL    HW2 5004   1.373   2.778   5.291
 1482SOL     OW 5005   0.816   2.430   4.081
 1482SOL    HW1 5006   0.819   2.356   4.022
 1482SOL    HW2 5007   0.741   2.482   4.050
 1483SOL     OW 5008   1.649   2.459   4.915
 1483SOL    HW1 5009   1.622   2.408   4.991
 1483SOL    HW2 5010   1.740   2.434   4.901
 1484SOL     OW 5011   0.257   3.418   5.460
 1484SOL    HW1 5012   0.233   3.480   5.528
 1484SOL    HW2 5013   0.249   3.332   5.501
 1485SOL     OW 5014   0.698   2.314   4.986
 1485SOL    HW1 5015   0.646   2.239   4.955
 1485SOL    HW2 5016   0.695   2.376   4.913
 1486SOL     OW 5017   0.930   3.541   5.190
 1486SOL    HW1 5018   0.903   3.508   5.105
 1486SOL    HW2 5019   0.926   3.636   5.182
 1487SOL     OW 5020   0.466   2.355   3.911
 1487SOL    HW1 5021   0.525   2.428   3.931
 1487SOL    HW2 5022   0.380   2.396   3.901
 1488SOL     OW 5023   0.149   3.000   5.195
 1488SOL    HW1 5024   0.149   2.949   5.277
 1488SOL    HW2 5025   0.162   2.935   5.127
 1489SOL     OW 5026   1.327   2.910   4.949
 1489SOL    HW1 5027   1.352   2.847   4.881
 1489SOL    HW2 5028   1.256   2.961   4.910
 1490SOL     OW 5029   1.309   2.720   4.031
 1490SOL    HW1 5030   1.233   2.688   4.081
 1490SOL    HW2 5031   1.285   2.705   3.940
 1491SOL     OW 5032   1.770   3.610   4.874
 1491SOL    HW1 5033   1.831   3.633   4.804
 1491SOL    HW2 5034   1.742   3.521   4.853
 1492SOL     OW 5035   1.242   3.595   4.840
 1492SOL    HW1 5036   1.323   3.614   4.793
 1492SOL    HW2 5037   1.246   3.501   4.857
 1493SOL     OW 5038   0.083   3.083   4.751
 1493SOL    HW1 5039   0.070   3.106   4.843
 1493SOL    HW2 5040   5.295   3.070   4.716
 1494SOL     OW 5041   0.678   3.527   5.450
 1494SOL    HW1 5042   0.624   3.606   5.447
 1494SOL    HW2 5043   0.741   3.537   5.379
 1495SOL     OW 5044   1.720   2.005   4.236
 1495SOL    HW1 5045   1.791   1.990   4.174
 1495SOL    HW2 5046   1.703   1.919   4.275
 1496SOL     OW 5047   1.390   3.430   4.207
 1496SOL    HW1 5048   1.451   3.461   4.140
 1496SOL    HW2 5049   1.342   3.508   4.235
 1497SOL     OW 5050   0.143   3.660   5.567
 1497SOL    HW1 5051   0.089   3.596   5.613
 1497SOL    HW2 5052   0.188   3.708   5.636
 1498SOL     OW 5053   1.275   2.787   4.395
 1498SOL    HW1 5054   1.349   2.726   4.402
 1498SOL    HW2 5055   1.310   2.860   4.343
 1499SOL     OW 5056   0.817   3.134   5.155
 1499SOL    HW1 5057   0.789   3.174   5.238
 1499SOL    HW2 5058   0.747   3.156   5.094
 1500SOL     OW 5059   0.673   3.479   3.879
 1500SOL    HW1 5060   0.682   3.491   3.784
 1500SOL    HW2 5061   0.618   3.401   3.888
 1501SOL     OW 5062   1.634   3.589   5.117
 1501SOL    HW1 5063   1.677   3.598   5.032
 1501SOL    HW2 5064   1.618   3.679   5.145
 1502SOL     OW 5065   1.814   2.029   4.698
 1502SOL    HW1 5066   1.851   1.947   4.666
 1502SOL    HW2 5067   1.732   2.039   4.650
 1503SOL     OW 5068   0.272   2.179   4.442
 1503SOL    HW1 5069   0.188   2.218   4.420
 1503SOL    HW2 5070   0.269   2.168   4.537
 1504SOL     OW 5071   1.206   3.469   3.755
 1504SOL    HW1 5072   1.197   3.378   3.782
 1504SOL    HW2 5073   1.141   3.480   3.685
 1505SOL     OW 5074   0.824   2.868   5.096
 1505SOL    HW1 5075   0.867   2.864   5.011
 1505SOL    HW2 5076   0.824   2.960   5.119
 1506SOL     OW 5077   0.915   2.772   4.013
 1506SOL    HW1 5078   0.976   2.804   3.947
 1506SOL    HW2 5079   0.962   2.703   4.059
 1507SOL     OW 5080   1.493   3.487   3.766
 1507SOL    HW1 5081   1.398   3.482   3.753
 1507SOL    HW2 5082   1.529   3.493   3.677
 1508SOL     OW 5083   0.368   3.165   5.217
 1508SOL    HW1 5084   0.359   3.240   5.159
 1508SOL    HW2 5085   0.292   3.110   5.198
 1509SOL     OW 5086   1.611   3.141   5.007
 1509SOL    HW1 5087   1.671   3.136   5.082
 1509SOL    HW2 5088   1.552   3.213   5.028
 1510SOL     OW 5089   1.049   2.968   4.429
 1510SOL    HW1 5090   0.979   2.916   4.469
 1510SOL    HW2 5091   1.111   2.903   4.397
 1511SOL     OW 5092   1.021   2.102   4.690
 1511SOL    HW1 5093   1.015   2.054   4.607
 1511SOL    HW2 5094   1.015   2.034   4.757
 1512SOL     OW 5095   0.601   3.349   4.206
 1512SOL    HW1 5096   0.643   3.301   4.136
 1512SOL    HW2 5097   0.535   3.404   4.161
 1513SOL     OW 5098   1.719   2.253   5.107
 1513SOL    HW1 5099   1.791   2.316   5.105
 1513SOL    HW2 5100   1.749   2.180   5.052
 1514SOL     OW 5101   0.260   3.210   4.015
 1514SOL    HW1 5102   0.166   3.213   3.993
 1514SOL    HW2 5103   0.264   3.247   4.103
 1515SOL     OW 5104   0.115   2.878   5.443
 1515SOL    HW1 5105   0.043   2.842   5.496
 1515SOL    HW2 5106   0.194   2.847   5.486
 1516SOL     OW 5107   0.673   2.058   5.223
 1516SOL    HW1 5108   0.757   2.039   5.181
 1516SOL    HW2 5109   0.697   2.088   5.310
 1517SOL     OW 5110   0.080   2.215   3.765
 1517SOL    HW1 5111   0.002   2.165   3.741
 1517SOL    HW2 5112   0.097   2.270   3.690
 1518SOL     OW 5113   1.431   2.721   5.125
 1518SOL    HW1 5114   1.381   2.780   5.069
 1518SOL    HW2 5115   1.520   2.724   5.090
 1519SOL     OW 5116   0.055   1.996   3.967
 1519SOL    HW1 5117   0.054   2.091   3.963
 1519SOL    HW2 5118   0.146   1.971   3.948
 1520SOL     OW 5119   1.180   3.202   3.841
 1520SOL    HW1 5120   1.088   3.173   3.844
 1520SOL    HW2 5121   1.208   3.202   3.932
 1521SOL     OW 5122   0.619   2.693   5.158
 1521SOL    HW1 5123   0.674   2.769   5.143
 1521SOL    HW2 5124   0.680   2.620   5.166
 1522SOL     OW 5125   1.484   3.638   4.701
 1522SOL    HW1 5126   1.509   3.695   4.628
 1522SOL    HW2 5127   1.566   3.618   4.746
 1523SOL     OW 5128   0.717   2.427   5.430
 1523SOL    HW1 5129   0.756   2.490   5.490
 1523SOL    HW2 5130   0.749   2.342   5.460
 1524SOL     OW 5131   1.469   3.064   5.357
 1524SOL    HW1 5132   1.457   3.077   5.451
 1524SOL    HW2 5133   1.563   3.078   5.342
 1525SOL     OW 5134   0.380   3.603   5.288
 1525SOL    HW1 5135   0.297   3.649   5.273
 1525SOL    HW2 5136   0.356   3.522   5.332
 1526SOL     OW 5137   1.669   2.744   4.980
 1526SOL    HW1 5138   1.660   2.660   4.935
 1526SOL    HW2 5139   1.660   2.809   4.911
 1527SOL     OW 5140   1.218   2.181   4.181
 1527SOL    HW1 5141   1.281   2.110   4.172
 1527SOL    HW2 5142   1.246   2.230   4.258
 1528SOL     OW 5143   0.591   2.601   4.392
 1528SOL    HW1 5144   0.630   2.687   4.376
 1528SOL    HW2 5145   0.521   2.594   4.327
 1529SOL     OW 5146   1.762   2.225   5.376
 1529SOL    HW1 5147   1.746   2.238   5.282
 1529SOL    HW2 5148   1.692   2.167   5.404
 1530SOL     OW 5149   1.747   2.798   5.235
 1530SOL    HW1 5150   1.737   2.892   5.248
 1530SOL    HW2 5151   1.728   2.784   5.142
 1531SOL     OW 5152   0.863   3.230   3.756
 1531SOL    HW1 5153   0.823   3.258   3.838
 1531SOL    HW2 5154   0.882   3.311   3.709
 1532SOL     OW 5155   0.662   3.657   4.670
 1532SOL    HW1 5156   0.640   3.747   4.646
 1532SOL    HW2 5157   0.757   3.653   4.663
 1533SOL     OW 5158   0.866   2.827   4.579
 1533SOL    HW1 5159   0.917   2.757   4.620
 1533SOL    HW2 5160   0.833   2.878   4.653
 1534SOL     OW 5161   1.079   2.849   3.812
 1534SOL    HW1 5162   1.058   2.900   3.734
 1534SOL    HW2 5163   1.154   2.797   3.787
 1535SOL     OW 5164   1.855   3.415   4.575
 1535SOL    HW1 5165   1.779   3.399   4.520
 1535SOL    HW2 5166   1.862   3.337   4.630
 1536SOL     OW 5167   0.224   3.168   5.583
 1536SOL    HW1 5168   0.157   3.105   5.557
 1536SOL    HW2 5169   0.212   3.178   5.677
 1537SOL     OW 5170   0.086   3.085   4.379
 1537SOL    HW1 5171   0.097   3.051   4.468
 1537SOL    HW2 5172   0.171   3.071   4.337
 1538SOL     OW 5173   0.680   3.263   5.351
 1538SOL    HW1 5174   0.600   3.220   5.381
 1538SOL    HW2 5175   0.675   3.351   5.387
 1539SOL     OW 5176   1.812   2.048   4.966
 1539SOL    HW1 5177   1.840   1.959   4.988
 1539SOL    HW2 5178   1.811   2.050   4.870
 1540SOL     OW 5179   0.433   2.297   4.248
 1540SOL    HW1 5180   0.461   2.225   4.192
 1540SOL    HW2 5181   0.387   2.256   4.320
 1541SOL     OW 5182   1.690   3.361   4.834
 1541SOL    HW1 5183   1.618   3.332   4.778
 1541SOL    HW2 5184   1.718   3.282   4.880
 1542SOL     OW 5185   0.335   2.420   5.015
 1542SOL    HW1 5186   0.387   2.360   5.068
 1542SOL    HW2 5187   0.349   2.390   4.925
 1543SOL     OW 5188   0.827   3.439   4.403
 1543SOL    HW1 5189   0.818   3.490   4.322
 1543SOL    HW2 5190   0.749   3.384   4.405
 1544SOL     OW 5191   1.433   2.087   4.842
 1544SOL    HW1 5192   1.461   2.008   4.888
 1544SOL    HW2 5193   1.380   2.135   4.906
 1545SOL     OW 5194   1.008   1.882   4.868
 1545SOL    HW1 5195   0.954   1.814   4.829
 1545SOL    HW2 5196   1.096   1.844   4.870
 1546SOL     OW 5197   0.771   3.194   4.037
 1546SOL    HW1 5198   0.739   3.104   4.043
 1546SOL    HW2 5199   0.854   3.194   4.085
 1547SOL     OW 5200   0.622   3.419   5.010
 1547SOL    HW1 5201   0.624   3.501   5.060
 1547SOL    HW2 5202   0.709   3.413   4.970
 1548SOL     OW 5203   1.352   1.916   3.888
 1548SOL    HW1 5204   1.378   1.854   3.820
 1548SOL    HW2 5205   1.265   1.885   3.915
 1549SOL     OW 5206   1.295   2.321   4.406
 1549SOL    HW1 5207   1.243   2.401   4.414
 1549SOL    HW2 5208   1.293   2.282   4.493
 1550SOL     OW 5209   1.572   2.064   4.592
 1550SOL    HW1 5210   1.516   2.085   4.666
 1550SOL    HW2 5211   1.577   2.145   4.541
 1551SOL     OW 5212   0.047   2.931   4.015
 1551SOL    HW1 5213   0.137   2.901   4.004
 1551SOL    HW2 5214   5.300   2.855   4.048
 1552SOL     OW 5215   0.883   3.512   4.067
 1552SOL    HW1 5216   0.811   3.496   4.006
 1552SOL    HW2 5217   0.855   3.588   4.118
 1553SOL     OW 5218   0.233   2.496   5.701
 1553SOL    HW1 5219   0.157   2.465   5.751
 1553SOL    HW2 5220   0.221   2.458   5.614
 1554SOL     OW 5221   0.240   2.138   6.577
 1554SOL    HW1 5222   0.255   2.104   6.665
 1554SOL    HW2 5223   0.157   2.099   6.550
 1555SOL     OW 5224   5.299   2.258   6.238
 1555SOL    HW1 5225   5.206   2.281   6.246
 1555SOL    HW2 5226   5.299   2.167   6.208
 1556SOL     OW 5227   0.572   3.143   6.764
 1556SOL    HW1 5228   0.489   3.152   6.718
 1556SOL    HW2 5229   0.589   3.231   6.800
 1557SOL     OW 5230   1.559   3.373   6.292
 1557SOL    HW1 5231   1.516   3.355   6.375
 1557SOL    HW2 5232   1.487   3.378   6.228
 1558SOL     OW 5233   1.129   2.561   6.288
 1558SOL    HW1 5234   1.179   2.641   6.274
 1558SOL    HW2 5235   1.083   2.576   6.371
 1559SOL     OW 5236   1.765   2.469   5.816
 1559SOL    HW1 5237   1.746   2.460   5.723
 1559SOL    HW2 5238   1.731   2.388   5.855
 1560SOL     OW 5239   0.757   3.005   6.623
 1560SOL    HW1 5240   0.689   3.038   6.682
 1560SOL    HW2 5241   0.792   3.083   6.580
 1561SOL     OW 5242   0.863   2.642   7.406
 1561SOL    HW1 5243   0.852   2.717   7.465
 1561SOL    HW2 5244   0.888   2.681   7.322
 1562SOL     OW 5245   0.686   2.867   6.234
 1562SOL    HW1 5246   0.751   2.853   6.303
 1562SOL    HW2 5247   0.617   2.919   6.276
 1563SOL     OW 5248   0.708   3.013   7.397
 1563SOL    HW1 5249   0.756   3.092   7.422
 1563SOL    HW2 5250   0.625   3.046   7.362
 1564SOL     OW 5251   0.358   3.268   6.646
 1564SOL    HW1 5252   0.270   3.267   6.607
 1564SOL    HW2 5253   0.406   3.331   6.592
 1565SOL     OW 5254   1.461   3.361   6.938
 1565SOL    HW1 5255   1.509   3.443   6.947
 1565SOL    HW2 5256   1.404   3.357   7.014
 1566SOL     OW 5257   0.450   2.263   7.081
 1566SOL    HW1 5258   0.524   2.202   7.082
 1566SOL    HW2 5259   0.372   2.206   7.089
 1567SOL     OW 5260   1.613   2.311   6.325
 1567SOL    HW1 5261   1.537   2.335   6.272
 1567SOL    HW2 5262   1.631   2.389   6.379
 1568SOL     OW 5263   0.229   3.577   6.063
 1568SOL    HW1 5264   0.265   3.644   6.121
 1568SOL    HW2 5265   0.290   3.572   5.990
 1569SOL     OW 5266   1.136   3.203   7.276
 1569SOL    HW1 5267   1.176   3.200   7.363
 1569SOL    HW2 5268   1.084   3.123   7.271
 1570SOL     OW 5269   0.223   3.305   6.124
 1570SOL    HW1 5270   0.213   3.400   6.124
 1570SOL    HW2 5271   0.153   3.274   6.183
 1571SOL     OW 5272   0.248   2.941   6.463
 1571SOL    HW1 5273   0.259   2.856   6.506
 1571SOL    HW2 5274   0.197   2.993   6.524
 1572SOL     OW 5275   0.615   3.652   7.018
 1572SOL    HW1 5276   0.531   3.635   7.061
 1572SOL    HW2 5277   0.636   3.743   7.041
 1573SOL     OW 5278   0.586   2.844   5.720
 1573SOL    HW1 5279   0.630   2.893   5.651
 1573SOL    HW2 5280   0.628   2.872   5.801
 1574SOL     OW 5281   1.596   1.984   7.055
 1574SOL    HW1 5282   1.597   2.064   7.003
 1574SOL    HW2 5283   1.584   2.014   7.145
 1575SOL     OW 5284   0.126   2.497   6.164
 1575SOL    HW1 5285   0.089   2.414   6.192
 1575SOL    HW2 5286   0.098   2.560   6.231
 1576SOL     OW 5287   1.842   3.622   5.922
 1576SOL    HW1 5288   1.903   3.593   5.989
 1576SOL    HW2 5289   1.867   3.712   5.903
 1577SOL     OW 5290   0.037   3.460   5.716
 1577SOL    HW1 5291   0.024   3.369   5.741
 1577SOL    HW2 5292   5.284   3.510   5.779
 1578SOL     OW 5293   1.689   2.780   6.224
 1578SOL    HW1 5294   1.774   2.740   6.206
 1578SOL    HW2 5295   1.668   2.831   6.146
 1579SOL     OW 5296   1.646   2.970   6.015
 1579SOL    HW1 5297   1.731   2.977   5.973
 1579SOL    HW2 5298   1.650   3.030   6.089
 1580SOL     OW 5299   0.129   2.608   7.174
 1580SOL    HW1 5300   0.223   2.622   7.178
 1580SOL    HW2 5301   0.091   2.695   7.186
 1581SOL     OW 5302   0.614   3.245   6.321
 1581SOL    HW1 5303   0.567   3.163   6.331
 1581SOL    HW2 5304   0.597   3.272   6.231
 1582SOL     OW 5305   1.290   3.100   7.010
 1582SOL    HW1 5306   1.322   3.033   6.950
 1582SOL    HW2 5307   1.346   3.094   7.087
 1583SOL     OW 5308   0.820   1.860   6.094
 1583SOL    HW1 5309   0.860   1.945   6.076
 1583SOL    HW2 5310   0.727   1.879   6.101
 1584SOL     OW 5311   0.180   2.811   6.863
 1584SOL    HW1 5312   0.270   2.782   6.852
 1584SOL    HW2 5313   0.134   2.780   6.785
 1585SOL     OW 5314   1.532   2.854   5.783
 1585SOL    HW1 5315   1.462   2.796   5.814
 1585SOL    HW2 5316   1.572   2.888   5.863
 1586SOL     OW 5317   1.185   3.667   7.207
 1586SOL    HW1 5318   1.199   3.724   7.131
 1586SOL    HW2 5319   1.201   3.579   7.173
 1587SOL     OW 5320   0.333   2.114   7.398
 1587SOL    HW1 5321   0.383   2.195   7.410
 1587SOL    HW2 5322   0.247   2.133   7.435
 1588SOL     OW 5323   1.466   3.282   6.538
 1588SOL    HW1 5324   1.398   3.296   6.604
 1588SOL    HW2 5325   1.454   3.191   6.511
 1589SOL     OW 5326   1.660   3.598   6.164
 1589SOL    HW1 5327   1.638   3.569   6.075
 1589SOL    HW2 5328   1.635   3.524   6.220
 1590SOL     OW 5329   0.596   2.584   5.850
 1590SOL    HW1 5330   0.604   2.664   5.799
 1590SOL    HW2 5331   0.531   2.606   5.918
 1591SOL     OW 5332   1.280   2.212   6.518
 1591SOL    HW1 5333   1.190   2.179   6.526
 1591SOL    HW2 5334   1.330   2.159   6.580
 1592SOL     OW 5335   1.581   3.531   5.895
 1592SOL    HW1 5336   1.671   3.564   5.889
 1592SOL    HW2 5337   1.556   3.514   5.804
 1593SOL     OW 5338   0.792   2.479   7.039
 1593SOL    HW1 5339   0.765   2.456   7.128
 1593SOL    HW2 5340   0.751   2.413   6.983
 1594SOL     OW 5341   1.394   2.336   7.263
 1594SOL    HW1 5342   1.395   2.380   7.348
 1594SOL    HW2 5343   1.456   2.264   7.273
 1595SOL     OW 5344   0.956   2.750   7.167
 1595SOL    HW1 5345   1.011   2.679   7.132
 1595SOL    HW2 5346   0.909   2.783   7.091
 1596SOL     OW 5347   0.992   2.275   6.826
 1596SOL    HW1 5348   0.908   2.297   6.865
 1596SOL    HW2 5349   0.970   2.228   6.745
 1597SOL     OW 5350   1.050   2.561   6.013
 1597SOL    HW1 5351   1.065   2.554   6.107
 1597SOL    HW2 5352   0.968   2.513   5.998
 1598SOL     OW 5353   0.072   2.648   6.399
 1598SOL    HW1 5354   0.156   2.654   6.446
 1598SOL    HW2 5355   0.060   2.736   6.362
 1599SOL     OW 5356   0.131   3.743   7.170
 1599SOL    HW1 5357   0.131   3.710   7.260
 1599SOL    HW2 5358   0.057   3.698   7.128
 1600SOL     OW 5359   0.889   2.209   5.780
 1600SOL    HW1 5360   0.932   2.271   5.720
 1600SOL    HW2 5361   0.907   2.123   5.743
 1601SOL     OW 5362   1.710   2.439   7.415
 1601SOL    HW1 5363   1.673   2.514   7.369
 1601SOL    HW2 5364   1.735   2.378   7.346
 1602SOL     OW 5365   1.375   3.004   6.128
 1602SOL    HW1 5366   1.454   2.991   6.075
 1602SOL    HW2 5367   1.323   3.066   6.077
 1603SOL     OW 5368   0.554   2.046   6.479
 1603SOL    HW1 5369   0.552   2.073   6.570
 1603SOL    HW2 5370   0.551   2.128   6.429
 1604SOL     OW 5371   1.007   3.306   6.059
 1604SOL    HW1 5372   0.968   3.379   6.010
 1604SOL    HW2 5373   0.992   3.329   6.151
 1605SOL     OW 5374   0.356   3.663   6.454
 1605SOL    HW1 5375   0.397   3.578   6.467
 1605SOL    HW2 5376   0.423   3.727   6.480
 1606SOL     OW 5377   1.797   2.920   6.454
 1606SOL    HW1 5378   1.741   2.905   6.378
 1606SOL    HW2 5379   1.737   2.926   6.528
 1607SOL     OW 5380   1.228   3.401   7.099
 1607SOL    HW1 5381   1.214   3.328   7.159
 1607SOL    HW2 5382   1.166   3.386   7.027
 1608SOL     OW 5383   0.317   2.814   5.832
 1608SOL    HW1 5384   0.399   2.838   5.789
 1608SOL    HW2 5385   0.294   2.729   5.795
 1609SOL     OW 5386   1.476   2.602   6.314
 1609SOL    HW1 5387   1.467   2.558   6.398
 1609SOL    HW2 5388   1.554   2.658   6.325
 1610SOL     OW 5389   0.464   3.124   7.323
 1610SOL    HW1 5390   0.437   3.131   7.232
 1610SOL    HW2 5391   0.382   3.126   7.373
 1611SOL     OW 5392   1.121   3.639   5.817
 1611SOL    HW1 5393   1.049   3.597   5.864
 1611SOL    HW2 5394   1.143   3.579   5.746
 1612SOL     OW 5395   0.204   2.145   7.084
 1612SOL    HW1 5396   0.124   2.195   7.067
 1612SOL    HW2 5397   0.175   2.067   7.132
 1613SOL     OW 5398   1.629   3.241   5.672
 1613SOL    HW1 5399   1.588   3.326   5.658
 1613SOL    HW2 5400   1.559   3.178   5.654
 1614SOL     OW 5401   0.471   3.597   5.907
 1614SOL    HW1 5402   0.512   3.655   5.970
 1614SOL    HW2 5403   0.543   3.569   5.850
 1615SOL     OW 5404   1.401   1.970   6.017
 1615SOL    HW1 5405   1.390   1.945   5.925
 1615SOL    HW2 5406   1.496   1.976   6.029
 1616SOL     OW 5407   0.274   3.663   6.803
 1616SOL    HW1 5408   0.307   3.588   6.852
 1616SOL    HW2 5409   0.226   3.626   6.729
 1617SOL     OW 5410   0.939   3.560   6.486
 1617SOL    HW1 5411   1.016   3.508   6.506
 1617SOL    HW2 5412   0.893   3.511   6.417
 1618SOL     OW 5413   0.386   2.558   6.065
 1618SOL    HW1 5414   0.416   2.468   6.073
 1618SOL    HW2 5415   0.292   2.555   6.086
 1619SOL     OW 5416   1.537   2.087   7.312
 1619SOL    HW1 5417   1.546   2.109   7.405
 1619SOL    HW2 5418   1.468   2.021   7.308
 1620SOL     OW 5419   0.630   1.985   5.693
 1620SOL    HW1 5420   0.704   1.926   5.703
 1620SOL    HW2 5421   0.584   1.954   5.615
 1621SOL     OW 5422   0.767   2.137   7.338
 1621SOL    HW1 5423   0.842   2.078   7.343
 1621SOL    HW2 5424   0.722   2.128   7.422
 1622SOL     OW 5425   0.877   3.383   6.779
 1622SOL    HW1 5426   0.862   3.347   6.692
 1622SOL    HW2 5427   0.947   3.328   6.816
 1623SOL     OW 5428   1.341   2.451   7.018
 1623SOL    HW1 5429   1.372   2.419   7.103
 1623SOL    HW2 5430   1.377   2.539   7.011
 1624SOL     OW 5431   0.814   3.258   6.523
 1624SOL    HW1 5432   0.898   3.248   6.479
 1624SOL    HW2 5433   0.749   3.258   6.453
 1625SOL     OW 5434   0.927   2.371   6.490
 1625SOL    HW1 5435   0.904   2.363   6.397
 1625SOL    HW2 5436   0.959   2.285   6.514
 1626SOL     OW 5437   0.559   1.923   6.083
 1626SOL    HW1 5438   0.484   1.924   6.143
 1626SOL    HW2 5439   0.549   2.003   6.032
 1627SOL     OW 5440   1.428   3.060   5.627
 1627SOL    HW1 5441   1.459   2.984   5.677
 1627SOL    HW2 5442   1.342   3.080   5.665
 1628SOL     OW 5443   0.305   1.909   5.766
 1628SOL    HW1 5444   0.367   1.972   5.731
 1628SOL    HW2 5445   0.360   1.843   5.810
 1629SOL     OW 5446   0.938   2.107   6.048
 1629SOL    HW1 5447   0.910   2.150   5.967
 1629SOL    HW2 5448   1.033   2.121   6.051
 1630SOL     OW 5449   1.080   2.542   7.046
 1630SOL    HW1 5450   1.010   2.476   7.051
 1630SOL    HW2 5451   1.160   2.491   7.039
 1631SOL     OW 5452   1.224   3.431   6.379
 1631SOL    HW1 5453   1.241   3.499   6.314
 1631SOL    HW2 5454   1.292   3.444   6.446
 1632SOL     OW 5455   0.466   3.011   6.320
 1632SOL    HW1 5456   0.397   2.992   6.382
 1632SOL    HW2 5457   0.427   2.992   6.234
 1633SOL     OW 5458   1.270   3.656   6.193
 1633SOL    HW1 5459   1.315   3.718   6.134
 1633SOL    HW2 5460   1.205   3.710   6.238
 1634SOL     OW 5461   1.025   2.406   5.607
 1634SOL    HW1 5462   0.983   2.489   5.587
 1634SOL    HW2 5463   1.090   2.427   5.674
 1635SOL     OW 5464   0.086   2.409   6.984
 1635SOL    HW1 5465   0.174   2.415   6.946
 1635SOL    HW2 5466   0.079   2.484   7.042
 1636SOL     OW 5467   0.561   2.089   6.751
 1636SOL    HW1 5468   0.598   2.009   6.787
 1636SOL    HW2 5469   0.469   2.088   6.779
 1637SOL     OW 5470   0.868   2.321   6.226
 1637SOL    HW1 5471   0.823   2.375   6.161
 1637SOL    HW2 5472   0.889   2.240   6.179
 1638SOL     OW 5473   1.015   1.915   6.339
 1638SOL    HW1 5474   0.956   1.907   6.263
 1638SOL    HW2 5475   0.994   1.839   6.393
 1639SOL     OW 5476   1.436   3.025   6.444
 1639SOL    HW1 5477   1.368   2.958   6.442
 1639SOL    HW2 5478   1.460   3.038   6.352
 1640SOL     OW 5479   1.467   2.465   6.565
 1640SOL    HW1 5480   1.418   2.383   6.569
 1640SOL    HW2 5481   1.527   2.461   6.639
 1641SOL     OW 5482   1.847   2.680   5.968
 1641SOL    HW1 5483   1.903   2.628   6.026
 1641SOL    HW2 5484   1.817   2.617   5.901
 1642SOL     OW 5485   0.492   3.277   5.746
 1642SOL    HW1 5486   0.417   3.249   5.798
 1642SOL    HW2 5487   0.472   3.248   5.657
 1643SOL     OW 5488   1.669   3.126   6.233
 1643SOL    HW1 5489   1.763   3.131   6.247
 1643SOL    HW2 5490   1.638   3.214   6.255
 1644SOL     OW 5491   1.394   2.434   5.657
 1644SOL    HW1 5492   1.333   2.415   5.729
 1644SOL    HW2 5493   1.478   2.401   5.688
 1645SOL     OW 5494   0.524   2.125   5.905
 1645SOL    HW1 5495   0.567   2.076   5.835
 1645SOL    HW2 5496   0.504   2.211   5.867
 1646SOL     OW 5497   1.753   3.099   7.161
 1646SOL    HW1 5498   1.841   3.061   7.157
 1646SOL    HW2 5499   1.768   3.189   7.191
 1647SOL     OW 5500   1.060   3.215   6.920
 1647SOL    HW1 5501   0.985   3.184   6.971
 1647SOL    HW2 5502   1.136   3.174   6.961
 1648SOL     OW 5503   1.606   3.487   7.237
 1648SOL    HW1 5504   1.603   3.521   7.148
 1648SOL    HW2 5505   1.689   3.440   7.242
 1649SOL     OW 5506   1.126   3.063   6.692
 1649SOL    HW1 5507   1.069   3.102   6.758
 1649SOL    HW2 5508   1.093   3.096   6.609
 1650SOL     OW 5509   1.629   2.961   6.664
 1650SOL    HW1 5510   1.625   3.023   6.737
 1650SOL    HW2 5511   1.550   2.977   6.614
 1651SOL     OW 5512   0.918   1.959   6.984
 1651SOL    HW1 5513   0.940   1.941   6.893
 1651SOL    HW2 5514   0.997   1.999   7.021
 1652SOL     OW 5515   0.984   2.976   7.310
 1652SOL    HW1 5516   0.891   2.993   7.327
 1652SOL    HW2 5517   0.984   2.899   7.253
 1653SOL     OW 5518   0.707   2.921   5.959
 1653SOL    HW1 5519   0.696   2.907   6.053
 1653SOL    HW2 5520   0.784   2.869   5.935
 1654SOL     OW 5521   0.420   2.679   6.838
 1654SOL    HW1 5522   0.489   2.686   6.903
 1654SOL    HW2 5523   0.385   2.591   6.849
 1655SOL     OW 5524   1.266   2.240   6.859
 1655SOL    HW1 5525   1.299   2.317   6.906
 1655SOL    HW2 5526   1.176   2.262   6.835
 1656SOL     OW 5527   0.100   3.485   6.954
 1656SOL    HW1 5528   0.077   3.495   6.862
 1656SOL    HW2 5529   0.186   3.443   6.952
 1657SOL     OW 5530   0.345   2.966   6.075
 1657SOL    HW1 5531   0.355   3.045   6.022
 1657SOL    HW2 5532   0.356   2.894   6.013
 1658SOL     OW 5533   0.556   2.399   6.445
 1658SOL    HW1 5534   0.572   2.458   6.371
 1658SOL    HW2 5535   0.619   2.427   6.512
 1659SOL     OW 5536   1.248   3.210   5.975
 1659SOL    HW1 5537   1.303   3.282   6.006
 1659SOL    HW2 5538   1.161   3.231   6.009
 1660SOL     OW 5539   1.279   3.318   6.732
 1660SOL    HW1 5540   1.334   3.321   6.810
 1660SOL    HW2 5541   1.223   3.241   6.745
 1661SOL     OW 5542   1.583   2.486   6.064
 1661SOL    HW1 5543   1.537   2.542   6.127
 1661SOL    HW2 5544   1.628   2.548   6.006
 1662SOL     OW 5545   0.351   3.381   6.898
 1662SOL    HW1 5546   0.342   3.337   6.813
 1662SOL    HW2 5547   0.445   3.399   6.905
 1663SOL     OW 5548   0.412   2.605   7.188
 1663SOL    HW1 5549   0.472   2.652   7.130
 1663SOL    HW2 5550   0.453   2.519   7.200
 1664SOL     OW 5551   1.598   2.639   7.266
 1664SOL    HW1 5552   1.512   2.681   7.259
 1664SOL    HW2 5553   1.651   2.682   7.199
 1665SOL     OW 5554   0.996   1.982   7.342
 1665SOL    HW1 5555   1.050   2.055   7.311
 1665SOL    HW2 5556   1.045   1.904   7.316
 1666SOL     OW 5557   0.498   1.904   7.332
 1666SOL    HW1 5558   0.457   1.850   7.265
 1666SOL    HW2 5559   0.438   1.977   7.344
 1667SOL     OW 5560   0.585   2.735   6.618
 1667SOL    HW1 5561   0.615   2.826   6.616
 1667SOL    HW2 5562   0.528   2.730   6.695
 1668SOL     OW 5563   1.360   2.721   6.618
 1668SOL    HW1 5564   1.278   2.713   6.569
 1668SOL    HW2 5565   1.398   2.633   6.614
 1669SOL     OW 5566   1.206   2.391   5.854
 1669SOL    HW1 5567   1.214   2.313   5.908
 1669SOL    HW2 5568   1.164   2.455   5.911
 1670SOL     OW 5569   0.302   2.066   6.834
 1670SOL    HW1 5570   0.267   2.091   6.920
 1670SOL    HW2 5571   0.288   1.971   6.830
 1671SOL     OW 5572   0.071   3.181   6.867
 1671SOL    HW1 5573   0.090   3.121   6.939
 1671SOL    HW2 5574   0.005   3.241   6.903
 1672SOL     OW 5575   0.725   2.494   6.645
 1672SOL    HW1 5576   0.799   2.476   6.587
 1672SOL    HW2 5577   0.698   2.583   6.623
 1673SOL     OW 5578   1.734   2.821   7.437
 1673SOL    HW1 5579   1.685   2.764   7.379
 1673SOL    HW2 5580   1.676   2.834   7.512
 1674SOL     OW 5581   0.327   1.924   6.221
 1674SOL    HW1 5582   0.307   2.013   6.249
 1674SOL    HW2 5583   0.330   1.873   6.302
 1675SOL     OW 5584   1.614   2.235   5.954
 1675SOL    HW1 5585   1.642   2.171   6.021
 1675SOL    HW2 5586   1.592   2.313   6.004
 1676SOL     OW 5587   1.027   2.621   6.547
 1676SOL    HW1 5588   1.026   2.639   6.641
 1676SOL    HW2 5589   1.001   2.530   6.540
 1677SOL     OW 5590   0.982   3.427   7.301
 1677SOL    HW1 5591   0.967   3.472   7.218
 1677SOL    HW2 5592   1.026   3.346   7.277
 1678SOL     OW 5593   1.855   3.371   7.192
 1678SOL    HW1 5594   1.873   3.395   7.101
 1678SOL    HW2 5595   1.937   3.389   7.238
 1679SOL     OW 5596   0.353   2.777   7.394
 1679SOL    HW1 5597   0.435   2.799   7.438
 1679SOL    HW2 5598   0.377   2.715   7.326
 1680SOL     OW 5599   1.530   2.136   5.713
 1680SOL    HW1 5600   1.466   2.070   5.740
 1680SOL    HW2 5601   1.563   2.171   5.796
 1681SOL     OW 5602   1.293   2.689   5.618
 1681SOL    HW1 5603   1.336   2.603   5.622
 1681SOL    HW2 5604   1.324   2.728   5.536
 1682SOL     OW 5605   1.065   3.197   6.439
 1682SOL    HW1 5606   1.068   3.124   6.377
 1682SOL    HW2 5607   1.128   3.261   6.405
 1683SOL     OW 5608   0.315   2.673   6.536
 1683SOL    HW1 5609   0.409   2.691   6.532
 1683SOL    HW2 5610   0.309   2.583   6.568
 1684SOL     OW 5611   0.336   2.387   6.600
 1684SOL    HW1 5612   0.300   2.299   6.586
 1684SOL    HW2 5613   0.411   2.392   6.540
 1685SOL     OW 5614   1.135   2.239   7.266
 1685SOL    HW1 5615   1.088   2.294   7.329
 1685SOL    HW2 5616   1.223   2.276   7.262
 1686SOL     OW 5617   1.161   2.066   7.055
 1686SOL    HW1 5618   1.151   2.128   7.127
 1686SOL    HW2 5619   1.199   2.117   6.984
 1687SOL     OW 5620   0.001   3.193   5.796
 1687SOL    HW1 5621   5.225   3.184   5.739
 1687SOL    HW2 5622   0.012   3.106   5.835
 1688SOL     OW 5623   0.091   3.644   6.535
 1688SOL    HW1 5624   0.058   3.572   6.481
 1688SOL    HW2 5625   0.179   3.661   6.500
 1689SOL     OW 5626   0.505   3.435   6.493
 1689SOL    HW1 5627   0.573   3.500   6.513
 1689SOL    HW2 5628   0.549   3.373   6.435
 1690SOL     OW 5629   0.986   2.655   6.814
 1690SOL    HW1 5630   1.040   2.631   6.889
 1690SOL    HW2 5631   0.900   2.618   6.833
 1691SOL     OW 5632   0.034   2.421   6.700
 1691SOL    HW1 5633   0.120   2.394   6.667
 1691SOL    HW2 5634   0.038   2.404   6.795
 1692SOL     OW 5635   0.176   2.374   7.302
 1692SOL    HW1 5636   0.241   2.338   7.241
 1692SOL    HW2 5637   0.144   2.454   7.259
 1693SOL     OW 5638   1.376   2.802   7.246
 1693SOL    HW1 5639   1.397   2.896   7.245
 1693SOL    HW2 5640   1.374   2.778   7.153
 1694SOL     OW 5641   0.816   2.430   5.943
 1694SOL    HW1 5642   0.819   2.356   5.884
 1694SOL    HW2 5643   0.741   2.482   5.912
 1695SOL     OW 5644   1.642   2.463   6.774
 1695SOL    HW1 5645   1.631   2.404   6.848
 1695SOL    HW2 5646   1.729   2.442   6.739
 1696SOL     OW 5647   0.256   3.418   7.322
 1696SOL    HW1 5648   0.232   3.479   7.392
 1696SOL    HW2 5649   0.249   3.332   7.362
 1697SOL     OW 5650   0.697   2.314   6.848
 1697SOL    HW1 5651   0.646   2.239   6.817
 1697SOL    HW2 5652   0.695   2.376   6.775
 1698SOL     OW 5653   0.930   3.541   7.052
 1698SOL    HW1 5654   0.902   3.509   6.966
 1698SOL    HW2 5655   0.927   3.636   7.045
 1699SOL     OW 5656   0.466   2.355   5.773
 1699SOL    HW1 5657   0.525   2.428   5.793
 1699SOL    HW2 5658   0.380   2.396   5.763
 1700SOL     OW 5659   0.149   3.000   7.057
 1700SOL    HW1 5660   0.148   2.949   7.138
 1700SOL    HW2 5661   0.162   2.934   6.988
 1701SOL     OW 5662   1.328   2.910   6.810
 1701SOL    HW1 5663   1.352   2.847   6.742
 1701SOL    HW2 5664   1.256   2.961   6.772
 1702SOL     OW 5665   1.310   2.718   5.893
 1702SOL    HW1 5666   1.233   2.689   5.942
 1702SOL    HW2 5667   1.286   2.705   5.801
 1703SOL     OW 5668   1.769   3.608   6.734
 1703SOL    HW1 5669   1.830   3.634   6.665
 1703SOL    HW2 5670   1.746   3.518   6.714
 1704SOL     OW 5671   1.241   3.595   6.701
 1704SOL    HW1 5672   1.323   3.614   6.655
 1704SOL    HW2 5673   1.246   3.501   6.719
 1705SOL     OW 5674   0.083   3.083   6.613
 1705SOL    HW1 5675   0.070   3.107   6.705
 1705SOL    HW2 5676   5.295   3.070   6.578
 1706SOL     OW 5677   0.677   3.526   7.311
 1706SOL    HW1 5678   0.625   3.606   7.309
 1706SOL    HW2 5679   0.742   3.537   7.241
 1707SOL     OW 5680   1.719   2.006   6.097
 1707SOL    HW1 5681   1.792   1.992   6.037
 1707SOL    HW2 5682   1.703   1.921   6.137
 1708SOL     OW 5683   1.390   3.430   6.069
 1708SOL    HW1 5684   1.451   3.461   6.002
 1708SOL    HW2 5685   1.342   3.508   6.097
 1709SOL     OW 5686   0.140   3.662   7.429
 1709SOL    HW1 5687   0.088   3.597   7.477
 1709SOL    HW2 5688   0.192   3.705   7.497
 1710SOL     OW 5689   1.277   2.787   6.257
 1710SOL    HW1 5690   1.350   2.726   6.263
 1710SOL    HW2 5691   1.311   2.860   6.205
 1711SOL     OW 5692   0.817   3.134   7.017
 1711SOL    HW1 5693   0.789   3.174   7.100
 1711SOL    HW2 5694   0.747   3.156   6.956
 1712SOL     OW 5695   0.672   3.480   5.741
 1712SOL    HW1 5696   0.682   3.491   5.646
 1712SOL    HW2 5697   0.618   3.401   5.750
 1713SOL     OW 5698   1.629   3.588   6.977
 1713SOL    HW1 5699   1.678   3.596   6.895
 1713SOL    HW2 5700   1.616   3.679   7.005
 1714SOL     OW 5701   1.840   2.035   6.553
 1714SOL    HW1 5702   1.869   1.948   6.525
 1714SOL    HW2 5703   1.754   2.046   6.513
 1715SOL     OW 5704   0.272   2.179   6.304
 1715SOL    HW1 5705   0.188   2.218   6.282
 1715SOL    HW2 5706   0.269   2.168   6.399
 1716SOL     OW 5707   1.206   3.469   5.617
 1716SOL    HW1 5708   1.197   3.378   5.644
 1716SOL    HW2 5709   1.142   3.480   5.548
 1717SOL     OW 5710   0.824   2.868   6.958
 1717SOL    HW1 5711   0.868   2.864   6.873
 1717SOL    HW2 5712   0.824   2.960   6.981
 1718SOL     OW 5713   0.915   2.772   5.875
 1718SOL    HW1 5714   0.976   2.804   5.809
 1718SOL    HW2 5715   0.962   2.702   5.920
 1719SOL     OW 5716   1.493   3.486   5.628
 1719SOL    HW1 5717   1.399   3.482   5.616
 1719SOL    HW2 5718   1.529   3.493   5.540
 1720SOL     OW 5719   0.368   3.165   7.079
 1720SOL    HW1 5720   0.359   3.240   7.021
 1720SOL    HW2 5721   0.292   3.110   7.059
 1721SOL     OW 5722   1.611   3.144   6.867
 1721SOL    HW1 5723   1.671   3.136   6.940
 1721SOL    HW2 5724   1.551   3.215   6.893
 1722SOL     OW 5725   1.049   2.968   6.291
 1722SOL    HW1 5726   0.979   2.916   6.331
 1722SOL    HW2 5727   1.112   2.902   6.259
 1723SOL     OW 5728   1.021   2.102   6.552
 1723SOL    HW1 5729   1.015   2.054   6.469
 1723SOL    HW2 5730   1.015   2.035   6.619
 1724SOL     OW 5731   0.600   3.349   6.068
 1724SOL    HW1 5732   0.643   3.301   5.997
 1724SOL    HW2 5733   0.535   3.404   6.023
 1725SOL     OW 5734   1.721   2.254   6.966
 1725SOL    HW1 5735   1.792   2.317   6.964
 1725SOL    HW2 5736   1.750   2.182   6.910
 1726SOL     OW 5737   0.259   3.210   5.877
 1726SOL    HW1 5738   0.166   3.213   5.855
 1726SOL    HW2 5739   0.264   3.247   5.965
 1727SOL     OW 5740   0.115   2.877   7.304
 1727SOL    HW1 5741   0.043   2.845   7.358
 1727SOL    HW2 5742   0.194   2.846   7.348
 1728SOL     OW 5743   0.673   2.058   7.085
 1728SOL    HW1 5744   0.757   2.039   7.043
 1728SOL    HW2 5745   0.696   2.087   7.173
 1729SOL     OW 5746   0.080   2.215   5.627
 1729SOL    HW1 5747   0.002   2.165   5.603
 1729SOL    HW2 5748   0.097   2.270   5.552
 1730SOL     OW 5749   1.431   2.720   6.987
 1730SOL    HW1 5750   1.383   2.781   6.931
 1730SOL    HW2 5751   1.521   2.723   6.954
 1731SOL     OW 5752   0.055   1.996   5.828
 1731SOL    HW1 5753   0.054   2.091   5.825
 1731SOL    HW2 5754   0.146   1.972   5.810
 1732SOL     OW 5755   1.180   3.203   5.703
 1732SOL    HW1 5756   1.089   3.173   5.706
 1732SOL    HW2 5757   1.208   3.203   5.794
 1733SOL     OW 5758   0.618   2.693   7.020
 1733SOL    HW1 5759   0.674   2.769   7.005
 1733SOL    HW2 5760   0.679   2.620   7.028
 1734SOL     OW 5761   1.485   3.637   6.563
 1734SOL    HW1 5762   1.510   3.695   6.491
 1734SOL    HW2 5763   1.566   3.620   6.610
 1735SOL     OW 5764   0.717   2.427   7.292
 1735SOL    HW1 5765   0.756   2.490   7.353
 1735SOL    HW2 5766   0.750   2.342   7.322
 1736SOL     OW 5767   1.470   3.064   7.219
 1736SOL    HW1 5768   1.458   3.077   7.313
 1736SOL    HW2 5769   1.563   3.077   7.204
 1737SOL     OW 5770   0.380   3.604   7.149
 1737SOL    HW1 5771   0.297   3.649   7.135
 1737SOL    HW2 5772   0.356   3.522   7.194
 1738SOL     OW 5773   1.671   2.744   6.841
 1738SOL    HW1 5774   1.663   2.659   6.798
 1738SOL    HW2 5775   1.662   2.807   6.771
 1739SOL     OW 5776   1.218   2.181   6.043
 1739SOL    HW1 5777   1.281   2.110   6.035
 1739SOL    HW2 5778   1.247   2.230   6.121
 1740SOL     OW 5779   0.591   2.601   6.254
 1740SOL    HW1 5780   0.630   2.687   6.238
 1740SOL    HW2 5781   0.521   2.594   6.189
 1741SOL     OW 5782   1.764   2.222   7.236
 1741SOL    HW1 5783   1.747   2.237   7.143
 1741SOL    HW2 5784   1.693   2.166   7.265
 1742SOL     OW 5785   1.743   2.795   7.099
 1742SOL    HW1 5786   1.745   2.890   7.112
 1742SOL    HW2 5787   1.729   2.785   7.005
 1743SOL     OW 5788   0.863   3.230   5.618
 1743SOL    HW1 5789   0.823   3.257   5.701
 1743SOL    HW2 5790   0.882   3.311   5.572
 1744SOL     OW 5791   0.662   3.657   6.532
 1744SOL    HW1 5792   0.640   3.747   6.508
 1744SOL    HW2 5793   0.757   3.652   6.525
 1745SOL     OW 5794   0.866   2.827   6.441
 1745SOL    HW1 5795   0.917   2.757   6.482
 1745SOL    HW2 5796   0.833   2.878   6.515
 1746SOL     OW 5797   1.079   2.849   5.674
 1746SOL    HW1 5798   1.058   2.900   5.596
 1746SOL    HW2 5799   1.154   2.797   5.649
 1747SOL     OW 5800   1.855   3.418   6.431
 1747SOL    HW1 5801   1.777   3.405   6.376
 1747SOL    HW2 5802   1.849   3.350   6.498
 1748SOL     OW 5803   0.224   3.167   7.445
 1748SOL    HW1 5804   0.155   3.106   7.419
 1748SOL    HW2 5805   0.211   3.179   7.539
 1749SOL     OW 5806   0.086   3.085   6.241
 1749SOL    HW1 5807   0.097   3.051   6.330
 1749SOL    HW2 5808   0.171   3.072   6.199
 1750SOL     OW 5809   0.680   3.262   7.213
 1750SOL    HW1 5810   0.599   3.221   7.243
 1750SOL    HW2 5811   0.676   3.351   7.249
 1751SOL     OW 5812   1.814   2.047   6.824
 1751SOL    HW1 5813   1.823   1.953   6.839
 1751SOL    HW2 5814   1.823   2.057   6.729
 1752SOL     OW 5815   0.433   2.297   6.110
 1752SOL    HW1 5816   0.461   2.225   6.054
 1752SOL    HW2 5817   0.387   2.256   6.182
 1753SOL     OW 5818   1.701   3.353   6.685
 1753SOL    HW1 5819   1.620   3.327   6.641
 1753SOL    HW2 5820   1.716   3.284   6.750
 1754SOL     OW 5821   0.334   2.419   6.877
 1754SOL    HW1 5822   0.388   2.360   6.930
 1754SOL    HW2 5823   0.349   2.390   6.787
 1755SOL     OW 5824   0.827   3.439   6.265
 1755SOL    HW1 5825   0.818   3.489   6.184
 1755SOL    HW2 5826   0.749   3.384   6.268
 1756SOL     OW 5827   1.432   2.086   6.704
 1756SOL    HW1 5828   1.459   2.007   6.752
 1756SOL    HW2 5829   1.380   2.135   6.768
 1757SOL     OW 5830   1.008   1.882   6.730
 1757SOL    HW1 5831   0.954   1.814   6.691
 1757SOL    HW2 5832   1.096   1.844   6.732
 1758SOL     OW 5833   0.771   3.194   5.898
 1758SOL    HW1 5834   0.740   3.104   5.905
 1758SOL    HW2 5835   0.854   3.194   5.947
 1759SOL     OW 5836   0.622   3.419   6.872
 1759SOL    HW1 5837   0.624   3.501   6.922
 1759SOL    HW2 5838   0.709   3.413   6.833
 1760SOL     OW 5839   1.352   1.916   5.750
 1760SOL    HW1 5840   1.379   1.855   5.682
 1760SOL    HW2 5841   1.265   1.885   5.777
 1761SOL     OW 5842   1.297   2.322   6.268
 1761SOL    HW1 5843   1.243   2.401   6.276
 1761SOL    HW2 5844   1.294   2.282   6.355
 1762SOL     OW 5845   1.587   2.066   6.463
 1762SOL    HW1 5846   1.524   2.085   6.533
 1762SOL    HW2 5847   1.587   2.145   6.408
 1763SOL     OW 5848   0.047   2.931   5.877
 1763SOL    HW1 5849   0.137   2.901   5.866
 1763SOL    HW2 5850   5.300   2.855   5.910
 1764SOL     OW 5851   0.883   3.512   5.929
 1764SOL    HW1 5852   0.811   3.496   5.868
 1764SOL    HW2 5853   0.855   3.588   5.980
 1765SOL     OW 5854   0.230   2.494   7.566
 1765SOL    HW1 5855   0.152   2.458   7.608
 1765SOL    HW2 5856   0.225   2.462   7.475
 1766SOL     OW 5857   1.767   2.462   7.680
 1766SOL    HW1 5858   1.747   2.457   7.586
 1766SOL    HW2 5859   1.725   2.384   7.717
 1767SOL     OW 5860   0.227   3.573   7.920
 1767SOL    HW1 5861   0.264   3.615   7.998
 1767SOL    HW2 5862   0.298   3.575   7.855
 1768SOL     OW 5863   0.218   3.298   7.990
 1768SOL    HW1 5864   0.207   3.393   7.987
 1768SOL    HW2 5865   0.155   3.269   8.055
 1769SOL     OW 5866   0.586   2.844   7.579
 1769SOL    HW1 5867   0.629   2.894   7.510
 1769SOL    HW2 5868   0.627   2.874   7.660
 1770SOL     OW 5869   1.836   3.622   7.798
 1770SOL    HW1 5870   1.906   3.591   7.856
 1770SOL    HW2 5871   1.864   3.710   7.773
 1771SOL     OW 5872   0.036   3.463   7.580
 1771SOL    HW1 5873   0.026   3.370   7.600
 1771SOL    HW2 5874   5.279   3.507   7.643
 1772SOL     OW 5875   1.682   2.733   8.039
 1772SOL    HW1 5876   1.767   2.743   0.003
 1772SOL    HW2 5877   1.671   2.814   7.990
 1773SOL     OW 5878   1.654   2.961   7.876
 1773SOL    HW1 5879   1.741   2.986   7.844
 1773SOL    HW2 5880   1.629   3.032   7.935
 1774SOL     OW 5881   0.800   1.856   7.938
 1774SOL    HW1 5882   0.849   1.937   7.924
 1774SOL    HW2 5883   0.709   1.884   7.949
 1775SOL     OW 5884   1.532   2.856   7.647
 1775SOL    HW1 5885   1.466   2.795   7.681
 1775SOL    HW2 5886   1.575   2.890   7.726
 1776SOL     OW 5887   0.590   2.586   7.708
 1776SOL    HW1 5888   0.599   2.666   7.657
 1776SOL    HW2 5889   0.532   2.610   7.780
 1777SOL     OW 5890   1.575   3.532   7.757
 1777SOL    HW1 5891   1.665   3.562   7.765
 1777SOL    HW2 5892   1.563   3.518   7.663
 1778SOL     OW 5893   0.058   2.683   0.206
 1778SOL    HW1 5894   0.126   2.628   0.168
 1778SOL    HW2 5895   0.031   2.741   0.135
 1779SOL     OW 5896   0.878   2.207   7.636
 1779SOL    HW1 5897   0.926   2.268   7.580
 1779SOL    HW2 5898   0.914   2.121   7.613
 1780SOL     OW 5899   0.320   2.810   7.694
 1780SOL    HW1 5900   0.400   2.838   7.650
 1780SOL    HW2 5901   0.296   2.728   7.651
 1781SOL     OW 5902   1.122   3.638   7.682
 1781SOL    HW1 5903   1.047   3.597   7.724
 1781SOL    HW2 5904   1.145   3.578   7.611
 1782SOL     OW 5905   1.629   3.241   7.533
 1782SOL    HW1 5906   1.587   3.326   7.520
 1782SOL    HW2 5907   1.559   3.178   7.515
 1783SOL     OW 5908   0.469   3.599   7.769
 1783SOL    HW1 5909   0.514   3.653   7.834
 1783SOL    HW2 5910   0.540   3.567   7.713
 1784SOL     OW 5911   1.414   1.992   7.864
 1784SOL    HW1 5912   1.401   1.957   7.776
 1784SOL    HW2 5913   1.509   1.989   7.877
 1785SOL     OW 5914   0.380   2.562   7.922
 1785SOL    HW1 5915   0.403   2.469   7.926
 1785SOL    HW2 5916   0.287   2.564   7.944
 1786SOL     OW 5917   0.625   1.982   7.560
 1786SOL    HW1 5918   0.704   1.930   7.567
 1786SOL    HW2 5919   0.584   1.952   7.479
 1787SOL     OW 5920   0.528   1.934   7.960
 1787SOL    HW1 5921   0.442   1.940   8.002
 1787SOL    HW2 5922   0.528   2.005   7.896
 1788SOL     OW 5923   1.428   3.059   7.489
 1788SOL    HW1 5924   1.459   2.985   7.541
 1788SOL    HW2 5925   1.344   3.082   7.528
 1789SOL     OW 5926   0.305   1.907   7.621
 1789SOL    HW1 5927   0.367   1.971   7.586
 1789SOL    HW2 5928   0.360   1.843   7.667
 1790SOL     OW 5929   0.944   2.088   7.912
 1790SOL    HW1 5930   0.899   2.153   7.858
 1790SOL    HW2 5931   1.035   2.117   7.914
 1791SOL     OW 5932   0.448   3.019   0.092
 1791SOL    HW1 5933   0.375   3.037   0.152
 1791SOL    HW2 5934   0.406   3.001   0.008
 1792SOL     OW 5935   1.289   3.672   8.015
 1792SOL    HW1 5936   1.324   3.741   7.959
 1792SOL    HW2 5937   1.209   3.709   8.051
 1793SOL     OW 5938   1.026   2.406   7.466
 1793SOL    HW1 5939   0.983   2.489   7.448
 1793SOL    HW2 5940   1.088   2.426   7.536
 1794SOL     OW 5941   1.865   2.682   7.802
 1794SOL    HW1 5942   1.878   2.645   7.890
 1794SOL    HW2 5943   1.827   2.611   7.751
 1795SOL     OW 5944   0.491   3.275   7.608
 1795SOL    HW1 5945   0.416   3.247   7.659
 1795SOL    HW2 5946   0.471   3.247   7.518
 1796SOL     OW 5947   1.394   2.433   7.519
 1796SOL    HW1 5948   1.334   2.414   7.591
 1796SOL    HW2 5949   1.478   2.401   7.549
 1797SOL     OW 5950   0.527   2.127   7.771
 1797SOL    HW1 5951   0.568   2.076   7.702
 1797SOL    HW2 5952   0.505   2.211   7.730
 1798SOL     OW 5953   0.709   2.922   7.814
 1798SOL    HW1 5954   0.693   2.913   7.908
 1798SOL    HW2 5955   0.788   2.870   7.798
 1799SOL     OW 5956   0.348   2.955   7.930
 1799SOL    HW1 5957   0.349   3.039   7.885
 1799SOL    HW2 5958   0.352   2.890   7.860
 1800SOL     OW 5959   1.226   3.217   7.821
 1800SOL    HW1 5960   1.290   3.284   7.848
 1800SOL    HW2 5961   1.179   3.195   7.902
 1801SOL     OW 5962   1.588   2.492   7.921
 1801SOL    HW1 5963   1.571   2.551   7.995
 1801SOL    HW2 5964   1.629   2.547   7.855
 1802SOL     OW 5965   1.205   2.389   7.716
 1802SOL    HW1 5966   1.208   2.306   7.764
 1802SOL    HW2 5967   1.181   2.453   7.783
 1803SOL     OW 5968   1.617   2.239   7.816
 1803SOL    HW1 5969   1.638   2.173   7.881
 1803SOL    HW2 5970   1.592   2.316   7.867
 1804SOL     OW 5971   1.531   2.136   7.575
 1804SOL    HW1 5972   1.466   2.071   7.601
 1804SOL    HW2 5973   1.563   2.172   7.658
 1805SOL     OW 5974   1.295   2.690   7.482
 1805SOL    HW1 5975   1.337   2.604   7.483
 1805SOL    HW2 5976   1.325   2.730   7.400
 1806SOL     OW 5977   0.003   3.195   7.656
 1806SOL    HW1 5978   5.219   3.194   7.609
 1806SOL    HW2 5979   0.013   3.107   7.690
 1807SOL     OW 5980   0.835   2.455   7.765
 1807SOL    HW1 5981   0.826   2.365   7.734
 1807SOL    HW2 5982   0.746   2.490   7.764
 1808SOL     OW 5983   0.464   2.354   7.639
 1808SOL    HW1 5984   0.524   2.427   7.654
 1808SOL    HW2 5985   0.378   2.396   7.627
 1809SOL     OW 5986   1.309   2.710   7.756
 1809SOL    HW1 5987   1.222   2.716   7.794
 1809SOL    HW2 5988   1.294   2.703   7.662
 1810SOL     OW 5989   1.712   2.007   7.950
 1810SOL    HW1 5990   1.790   1.998   7.895
 1810SOL    HW2 5991   1.712   1.928   8.005
 1811SOL     OW 5992   1.366   3.438   7.898
 1811SOL    HW1 5993   1.440   3.459   7.841
 1811SOL    HW2 5994   1.334   3.523   7.928
 1812SOL     OW 5995   0.668   3.480   7.604
 1812SOL    HW1 5996   0.680   3.491   7.509
 1812SOL    HW2 5997   0.617   3.399   7.613
 1813SOL     OW 5998   1.208   3.470   7.478
 1813SOL    HW1 5999   1.199   3.379   7.506
 1813SOL    HW2 6000   1.141   3.481   7.410
 1814SOL     OW 6001   0.925   2.774   7.754
 1814SOL    HW1 6002   0.979   2.799   7.679
 1814SOL    HW2 6003   0.925   2.678   7.753
 1815SOL     OW 6004   1.495   3.487   7.488
 1815SOL    HW1 6005   1.400   3.482   7.477
 1815SOL    HW2 6006   1.529   3.492   7.399
 1816SOL     OW 6007   0.603   3.366   7.936
 1816SOL    HW1 6008   0.646   3.306   7.876
 1816SOL    HW2 6009   0.534   3.407   7.884
 1817SOL     OW 6010   0.259   3.209   7.740
 1817SOL    HW1 6011   0.167   3.213   7.717
 1817SOL    HW2 6012   0.263   3.245   7.829
 1818SOL     OW 6013   0.078   2.207   7.489
 1818SOL    HW1 6014   5.297   2.165   7.462
 1818SOL    HW2 6015   0.099   2.268   7.418
 1819SOL     OW 6016   0.079   1.997   7.736
 1819SOL    HW1 6017   0.065   2.086   7.704
 1819SOL    HW2 6018   0.153   1.965   7.684
 1820SOL     OW 6019   1.178   3.201   7.557
 1820SOL    HW1 6020   1.086   3.176   7.559
 1820SOL    HW2 6021   1.204   3.207   7.649
 1821SOL     OW 6022   1.216   2.180   7.904
 1821SOL    HW1 6023   1.288   2.119   7.892
 1821SOL    HW2 6024   1.238   2.228   7.983
 1822SOL     OW 6025   0.620   2.598   8.054
 1822SOL    HW1 6026   0.629   2.680   0.023
 1822SOL    HW2 6027   0.530   2.598   8.022
 1823SOL     OW 6028   0.862   3.230   7.480
 1823SOL    HW1 6029   0.824   3.258   7.563
 1823SOL    HW2 6030   0.882   3.311   7.434
 1824SOL     OW 6031   1.074   2.841   7.537
 1824SOL    HW1 6032   1.055   2.898   7.462
 1824SOL    HW2 6033   1.153   2.794   7.511
 1825SOL     OW 6034   0.393   2.291   7.976
 1825SOL    HW1 6035   0.440   2.233   7.916
 1825SOL    HW2 6036   0.432   2.272   8.062
 1826SOL     OW 6037   0.766   3.196   7.758
 1826SOL    HW1 6038   0.735   3.106   7.761
 1826SOL    HW2 6039   0.847   3.195   7.809
 1827SOL     OW 6040   1.351   1.915   7.610
 1827SOL    HW1 6041   1.379   1.852   7.544
 1827SOL    HW2 6042   1.265   1.884   7.638
 1828SOL     OW 6043   0.047   2.933   7.723
 1828SOL    HW1 6044   0.137   2.900   7.724
 1828SOL    HW2 6045   5.299   2.871   7.778
 1829SOL     OW 6046   0.891   3.512   7.782
 1829SOL    HW1 6047   0.815   3.488   7.729
 1829SOL    HW2 6048   0.858   3.576   7.845
 1830SOL     OW 6049   0.228   4.351   0.111
 1830SOL    HW1 6050   0.155   4.316   0.163
 1830SOL    HW2 6051   0.232   4.294   0.034
 1831SOL     OW 6052   0.240   3.999   0.990
 1831SOL    HW1 6053   0.255   3.966   1.078
 1831SOL    HW2 6054   0.156   3.960   0.964
 1832SOL     OW 6055   5.297   4.119   0.650
 1832SOL    HW1 6056   5.206   4.146   0.660
 1832SOL    HW2 6057   5.292   4.026   0.627
 1833SOL     OW 6058   0.571   4.998   1.181
 1833SOL    HW1 6059   0.492   5.004   1.127
 1833SOL    HW2 6060   0.590   5.088   1.208
 1834SOL     OW 6061   1.554   5.232   0.688
 1834SOL    HW1 6062   1.529   5.229   0.781
 1834SOL    HW2 6063   1.477   5.268   0.643
 1835SOL     OW 6064   1.130   4.422   0.703
 1835SOL    HW1 6065   1.179   4.503   0.688
 1835SOL    HW2 6066   1.083   4.437   0.785
 1836SOL     OW 6067   1.768   4.325   0.233
 1836SOL    HW1 6068   1.732   4.324   0.144
 1836SOL    HW2 6069   1.729   4.250   0.276
 1837SOL     OW 6070   0.760   4.869   1.036
 1837SOL    HW1 6071   0.691   4.898   1.096
 1837SOL    HW2 6072   0.787   4.948   0.990
 1838SOL     OW 6073   0.864   4.503   1.821
 1838SOL    HW1 6074   0.853   4.575   1.883
 1838SOL    HW2 6075   0.887   4.545   1.739
 1839SOL     OW 6076   0.685   4.727   0.651
 1839SOL    HW1 6077   0.750   4.716   0.720
 1839SOL    HW2 6078   0.617   4.782   0.691
 1840SOL     OW 6079   0.707   4.873   1.810
 1840SOL    HW1 6080   0.755   4.953   1.834
 1840SOL    HW2 6081   0.624   4.905   1.776
 1841SOL     OW 6082   0.376   5.144   1.052
 1841SOL    HW1 6083   0.281   5.151   1.039
 1841SOL    HW2 6084   0.413   5.201   0.986
 1842SOL     OW 6085   1.456   5.220   1.346
 1842SOL    HW1 6086   1.508   5.293   1.378
 1842SOL    HW2 6087   1.390   5.206   1.414
 1843SOL     OW 6088   0.450   4.124   1.495
 1843SOL    HW1 6089   0.523   4.063   1.495
 1843SOL    HW2 6090   0.372   4.068   1.502
 1844SOL     OW 6091   1.613   4.173   0.740
 1844SOL    HW1 6092   1.537   4.197   0.687
 1844SOL    HW2 6093   1.630   4.250   0.793
 1845SOL     OW 6094   1.133   5.071   1.699
 1845SOL    HW1 6095   1.165   5.071   1.789
 1845SOL    HW2 6096   1.080   4.992   1.692
 1846SOL     OW 6097   0.211   5.150   0.528
 1846SOL    HW1 6098   0.249   5.231   0.562
 1846SOL    HW2 6099   0.133   5.136   0.583
 1847SOL     OW 6100   0.252   4.801   0.878
 1847SOL    HW1 6101   0.261   4.715   0.917
 1847SOL    HW2 6102   0.196   4.850   0.938
 1848SOL     OW 6103   0.626   4.685   0.133
 1848SOL    HW1 6104   0.581   4.765   0.104
 1848SOL    HW2 6105   0.676   4.712   0.209
 1849SOL     OW 6106   1.596   3.846   1.469
 1849SOL    HW1 6107   1.598   3.926   1.417
 1849SOL    HW2 6108   1.584   3.876   1.559
 1850SOL     OW 6109   0.132   4.356   0.581
 1850SOL    HW1 6110   0.086   4.276   0.607
 1850SOL    HW2 6111   0.100   4.423   0.641
 1851SOL     OW 6112   0.016   5.296   0.071
 1851SOL    HW1 6113   0.022   5.212   0.116
 1851SOL    HW2 6114   0.041   0.060   0.138
 1852SOL     OW 6115   1.687   4.642   0.641
 1852SOL    HW1 6116   1.772   4.602   0.621
 1852SOL    HW2 6117   1.666   4.694   0.563
 1853SOL     OW 6118   1.646   4.830   0.434
 1853SOL    HW1 6119   1.727   4.844   0.385
 1853SOL    HW2 6120   1.651   4.891   0.507
 1854SOL     OW 6121   0.129   4.471   1.588
 1854SOL    HW1 6122   0.223   4.485   1.593
 1854SOL    HW2 6123   0.090   4.558   1.597
 1855SOL     OW 6124   0.626   5.095   0.733
 1855SOL    HW1 6125   0.568   5.019   0.735
 1855SOL    HW2 6126   0.600   5.144   0.655
 1856SOL     OW 6127   1.289   4.956   1.426
 1856SOL    HW1 6128   1.324   4.890   1.365
 1856SOL    HW2 6129   1.348   4.952   1.501
 1857SOL     OW 6130   0.821   3.724   0.510
 1857SOL    HW1 6131   0.860   3.809   0.490
 1857SOL    HW2 6132   0.727   3.741   0.516
 1858SOL     OW 6133   0.179   4.670   1.280
 1858SOL    HW1 6134   0.269   4.641   1.265
 1858SOL    HW2 6135   0.134   4.651   1.198
 1859SOL     OW 6136   1.512   4.732   0.209
 1859SOL    HW1 6137   1.452   4.664   0.239
 1859SOL    HW2 6138   1.563   4.755   0.286
 1860SOL     OW 6139   0.333   3.976   1.813
 1860SOL    HW1 6140   0.382   4.058   1.825
 1860SOL    HW2 6141   0.247   3.994   1.849
 1861SOL     OW 6142   1.475   5.145   0.963
 1861SOL    HW1 6143   1.402   5.158   1.023
 1861SOL    HW2 6144   1.463   5.057   0.928
 1862SOL     OW 6145   0.596   4.439   0.279
 1862SOL    HW1 6146   0.618   4.517   0.228
 1862SOL    HW2 6147   0.535   4.470   0.345
 1863SOL     OW 6148   1.280   4.073   0.932
 1863SOL    HW1 6149   1.190   4.041   0.940
 1863SOL    HW2 6150   1.330   4.021   0.994
 1864SOL     OW 6151   0.793   4.341   1.453
 1864SOL    HW1 6152   0.765   4.318   1.541
 1864SOL    HW2 6153   0.751   4.275   1.397
 1865SOL     OW 6154   1.394   4.198   1.678
 1865SOL    HW1 6155   1.395   4.242   1.763
 1865SOL    HW2 6156   1.456   4.126   1.687
 1866SOL     OW 6157   0.957   4.612   1.582
 1866SOL    HW1 6158   1.011   4.541   1.547
 1866SOL    HW2 6159   0.909   4.646   1.505
 1867SOL     OW 6160   0.992   4.136   1.240
 1867SOL    HW1 6161   0.908   4.160   1.279
 1867SOL    HW2 6162   0.969   4.090   1.159
 1868SOL     OW 6163   1.051   4.423   0.427
 1868SOL    HW1 6164   1.066   4.416   0.522
 1868SOL    HW2 6165   0.969   4.376   0.412
 1869SOL     OW 6166   0.069   4.511   0.818
 1869SOL    HW1 6167   0.155   4.516   0.860
 1869SOL    HW2 6168   0.059   4.595   0.774
 1870SOL     OW 6169   0.883   4.081   0.200
 1870SOL    HW1 6170   0.929   4.129   0.131
 1870SOL    HW2 6171   0.884   3.990   0.170
 1871SOL     OW 6172   1.710   4.300   1.828
 1871SOL    HW1 6173   1.672   4.375   1.781
 1871SOL    HW2 6174   1.736   4.239   1.759
 1872SOL     OW 6175   1.375   4.864   0.541
 1872SOL    HW1 6176   1.455   4.850   0.490
 1872SOL    HW2 6177   1.324   4.926   0.489
 1873SOL     OW 6178   0.554   3.908   0.892
 1873SOL    HW1 6179   0.551   3.935   0.984
 1873SOL    HW2 6180   0.552   3.991   0.844
 1874SOL     OW 6181   1.021   5.167   0.469
 1874SOL    HW1 6182   0.945   5.225   0.462
 1874SOL    HW2 6183   1.039   5.161   0.563
 1875SOL     OW 6184   1.799   4.782   0.866
 1875SOL    HW1 6185   1.741   4.766   0.792
 1875SOL    HW2 6186   1.741   4.789   0.942
 1876SOL     OW 6187   1.249   5.240   1.523
 1876SOL    HW1 6188   1.213   5.173   1.581
 1876SOL    HW2 6189   1.180   5.256   1.459
 1877SOL     OW 6190   0.328   4.673   0.243
 1877SOL    HW1 6191   0.411   4.688   0.199
 1877SOL    HW2 6192   0.317   4.578   0.241
 1878SOL     OW 6193   1.477   4.463   0.727
 1878SOL    HW1 6194   1.467   4.420   0.812
 1878SOL    HW2 6195   1.553   4.520   0.738
 1879SOL     OW 6196   0.463   4.988   1.741
 1879SOL    HW1 6197   0.437   4.991   1.649
 1879SOL    HW2 6198   0.381   4.987   1.789
 1880SOL     OW 6199   1.155   0.163   0.238
 1880SOL    HW1 6200   1.069   0.174   0.280
 1880SOL    HW2 6201   1.135   0.145   0.146
 1881SOL     OW 6202   0.204   4.007   1.497
 1881SOL    HW1 6203   0.125   4.058   1.482
 1881SOL    HW2 6204   0.175   3.931   1.547
 1882SOL     OW 6205   1.631   5.095   0.076
 1882SOL    HW1 6206   1.592   5.181   0.091
 1882SOL    HW2 6207   1.555   5.037   0.062
 1883SOL     OW 6208   1.406   3.835   0.441
 1883SOL    HW1 6209   1.396   3.814   0.348
 1883SOL    HW2 6210   1.501   3.842   0.454
 1884SOL     OW 6211   0.382   4.423   0.476
 1884SOL    HW1 6212   0.414   4.333   0.485
 1884SOL    HW2 6213   0.290   4.418   0.502
 1885SOL     OW 6214   1.537   3.950   1.725
 1885SOL    HW1 6215   1.546   3.971   1.818
 1885SOL    HW2 6216   1.468   3.883   1.722
 1886SOL     OW 6217   0.628   3.836   0.135
 1886SOL    HW1 6218   0.723   3.823   0.140
 1886SOL    HW2 6219   0.606   3.817   0.043
 1887SOL     OW 6220   0.768   4.001   1.753
 1887SOL    HW1 6221   0.841   3.940   1.758
 1887SOL    HW2 6222   0.717   3.984   1.832
 1888SOL     OW 6223   1.341   4.312   1.432
 1888SOL    HW1 6224   1.372   4.281   1.517
 1888SOL    HW2 6225   1.377   4.401   1.424
 1889SOL     OW 6226   0.812   5.122   0.934
 1889SOL    HW1 6227   0.892   5.106   0.885
 1889SOL    HW2 6228   0.744   5.127   0.867
 1890SOL     OW 6229   0.927   4.233   0.903
 1890SOL    HW1 6230   0.904   4.225   0.811
 1890SOL    HW2 6231   0.959   4.147   0.928
 1891SOL     OW 6232   0.559   3.786   0.501
 1891SOL    HW1 6233   0.484   3.786   0.560
 1891SOL    HW2 6234   0.549   3.865   0.449
 1892SOL     OW 6235   1.427   4.925   0.036
 1892SOL    HW1 6236   1.457   4.850   0.089
 1892SOL    HW2 6237   1.340   4.945   0.072
 1893SOL     OW 6238   0.313   3.768   0.172
 1893SOL    HW1 6239   0.374   3.841   0.176
 1893SOL    HW2 6240   0.357   3.696   0.217
 1894SOL     OW 6241   0.939   3.970   0.461
 1894SOL    HW1 6242   0.910   4.012   0.379
 1894SOL    HW2 6243   1.033   3.985   0.464
 1895SOL     OW 6244   1.080   4.404   1.460
 1895SOL    HW1 6245   1.010   4.339   1.465
 1895SOL    HW2 6246   1.160   4.352   1.452
 1896SOL     OW 6247   1.263   5.267   0.781
 1896SOL    HW1 6248   1.227   0.048   0.746
 1896SOL    HW2 6249   1.305   5.293   0.863
 1897SOL     OW 6250   0.465   4.873   0.732
 1897SOL    HW1 6251   0.396   4.853   0.795
 1897SOL    HW2 6252   0.425   4.854   0.647
 1898SOL     OW 6253   1.033   4.256   0.028
 1898SOL    HW1 6254   0.989   4.336   8.080
 1898SOL    HW2 6255   1.094   4.285   0.096
 1899SOL     OW 6256   0.086   4.271   1.397
 1899SOL    HW1 6257   0.174   4.278   1.360
 1899SOL    HW2 6258   0.078   4.346   1.455
 1900SOL     OW 6259   0.561   3.951   1.165
 1900SOL    HW1 6260   0.598   3.870   1.201
 1900SOL    HW2 6261   0.469   3.950   1.193
 1901SOL     OW 6262   0.868   4.183   0.639
 1901SOL    HW1 6263   0.824   4.238   0.575
 1901SOL    HW2 6264   0.889   4.102   0.592
 1902SOL     OW 6265   1.015   3.776   0.752
 1902SOL    HW1 6266   0.955   3.769   0.677
 1902SOL    HW2 6267   0.994   3.701   0.807
 1903SOL     OW 6268   1.436   4.889   0.859
 1903SOL    HW1 6269   1.370   4.820   0.855
 1903SOL    HW2 6270   1.460   4.905   0.767
 1904SOL     OW 6271   1.467   4.327   0.979
 1904SOL    HW1 6272   1.418   4.245   0.983
 1904SOL    HW2 6273   1.527   4.323   1.053
 1905SOL     OW 6274   1.849   4.540   0.388
 1905SOL    HW1 6275   1.900   4.487   0.448
 1905SOL    HW2 6276   1.817   4.479   0.321
 1906SOL     OW 6277   0.475   5.158   0.161
 1906SOL    HW1 6278   0.421   5.106   0.220
 1906SOL    HW2 6279   0.498   5.099   0.089
 1907SOL     OW 6280   1.669   4.988   0.649
 1907SOL    HW1 6281   1.763   4.996   0.666
 1907SOL    HW2 6282   1.634   5.076   0.666
 1908SOL     OW 6283   1.398   4.305   0.086
 1908SOL    HW1 6284   1.336   4.284   0.156
 1908SOL    HW2 6285   1.457   4.230   0.083
 1909SOL     OW 6286   0.516   3.987   0.324
 1909SOL    HW1 6287   0.565   3.935   0.260
 1909SOL    HW2 6288   0.504   4.072   0.281
 1910SOL     OW 6289   1.752   4.959   1.578
 1910SOL    HW1 6290   1.839   4.918   1.577
 1910SOL    HW2 6291   1.770   5.052   1.593
 1911SOL     OW 6292   1.065   5.076   1.333
 1911SOL    HW1 6293   0.987   5.049   1.381
 1911SOL    HW2 6294   1.137   5.035   1.380
 1912SOL     OW 6295   1.125   4.925   1.108
 1912SOL    HW1 6296   1.073   4.966   1.177
 1912SOL    HW2 6297   1.082   4.952   1.027
 1913SOL     OW 6298   1.630   4.823   1.077
 1913SOL    HW1 6299   1.625   4.885   1.151
 1913SOL    HW2 6300   1.551   4.841   1.026
 1914SOL     OW 6301   0.919   3.821   1.399
 1914SOL    HW1 6302   0.940   3.803   1.307
 1914SOL    HW2 6303   0.998   3.861   1.435
 1915SOL     OW 6304   0.984   4.839   1.724
 1915SOL    HW1 6305   0.892   4.854   1.742
 1915SOL    HW2 6306   0.985   4.762   1.667
 1916SOL     OW 6307   0.706   4.779   0.380
 1916SOL    HW1 6308   0.694   4.766   0.474
 1916SOL    HW2 6309   0.787   4.732   0.360
 1917SOL     OW 6310   0.421   4.541   1.251
 1917SOL    HW1 6311   0.489   4.548   1.317
 1917SOL    HW2 6312   0.384   4.453   1.263
 1918SOL     OW 6313   1.266   4.102   1.273
 1918SOL    HW1 6314   1.299   4.179   1.320
 1918SOL    HW2 6315   1.176   4.124   1.249
 1919SOL     OW 6316   0.113   5.284   1.322
 1919SOL    HW1 6317   0.057   0.056   1.351
 1919SOL    HW2 6318   0.192   5.293   1.376
 1920SOL     OW 6319   0.347   4.828   0.489
 1920SOL    HW1 6320   0.346   4.907   0.435
 1920SOL    HW2 6321   0.362   4.756   0.427
 1921SOL     OW 6322   0.556   4.260   0.859
 1921SOL    HW1 6323   0.572   4.319   0.785
 1921SOL    HW2 6324   0.618   4.289   0.926
 1922SOL     OW 6325   1.258   5.071   0.387
 1922SOL    HW1 6326   1.312   5.146   0.413
 1922SOL    HW2 6327   1.169   5.095   0.413
 1923SOL     OW 6328   1.268   5.181   1.142
 1923SOL    HW1 6329   1.327   5.193   1.216
 1923SOL    HW2 6330   1.223   5.098   1.160
 1924SOL     OW 6331   1.584   4.349   0.479
 1924SOL    HW1 6332   1.536   4.401   0.544
 1924SOL    HW2 6333   1.621   4.414   0.419
 1925SOL     OW 6334   0.379   5.234   1.316
 1925SOL    HW1 6335   0.361   5.192   1.232
 1925SOL    HW2 6336   0.472   5.256   1.312
 1926SOL     OW 6337   0.412   4.467   1.602
 1926SOL    HW1 6338   0.472   4.514   1.544
 1926SOL    HW2 6339   0.453   4.381   1.615
 1927SOL     OW 6340   1.599   4.502   1.681
 1927SOL    HW1 6341   1.513   4.543   1.673
 1927SOL    HW2 6342   1.651   4.544   1.612
 1928SOL     OW 6343   0.996   3.844   1.757
 1928SOL    HW1 6344   1.049   3.917   1.725
 1928SOL    HW2 6345   1.045   3.766   1.730
 1929SOL     OW 6346   0.498   3.767   1.747
 1929SOL    HW1 6347   0.457   3.712   1.680
 1929SOL    HW2 6348   0.437   3.840   1.759
 1930SOL     OW 6349   0.586   4.596   1.032
 1930SOL    HW1 6350   0.613   4.688   1.028
 1930SOL    HW2 6351   0.528   4.592   1.108
 1931SOL     OW 6352   1.360   4.582   1.031
 1931SOL    HW1 6353   1.277   4.575   0.983
 1931SOL    HW2 6354   1.398   4.495   1.027
 1932SOL     OW 6355   1.205   4.252   0.271
 1932SOL    HW1 6356   1.212   4.173   0.325
 1932SOL    HW2 6357   1.163   4.316   0.328
 1933SOL     OW 6358   0.302   3.928   1.248
 1933SOL    HW1 6359   0.267   3.953   1.333
 1933SOL    HW2 6360   0.288   3.833   1.244
 1934SOL     OW 6361   0.045   5.022   1.277
 1934SOL    HW1 6362   0.076   4.972   1.352
 1934SOL    HW2 6363   0.045   5.113   1.307
 1935SOL     OW 6364   0.725   4.356   1.059
 1935SOL    HW1 6365   0.799   4.339   1.000
 1935SOL    HW2 6366   0.697   4.445   1.038
 1936SOL     OW 6367   1.734   4.683   1.851
 1936SOL    HW1 6368   1.687   4.625   1.792
 1936SOL    HW2 6369   1.674   4.696   1.925
 1937SOL     OW 6370   0.326   3.787   0.635
 1937SOL    HW1 6371   0.308   3.877   0.665
 1937SOL    HW2 6372   0.330   3.736   0.716
 1938SOL     OW 6373   1.618   4.098   0.371
 1938SOL    HW1 6374   1.643   4.033   0.437
 1938SOL    HW2 6375   1.593   4.175   0.421
 1939SOL     OW 6376   1.027   4.483   0.962
 1939SOL    HW1 6377   1.026   4.501   1.056
 1939SOL    HW2 6378   1.001   4.392   0.954
 1940SOL     OW 6379   1.855   5.214   1.587
 1940SOL    HW1 6380   1.853   5.287   1.524
 1940SOL    HW2 6381   1.924   5.238   1.649
 1941SOL     OW 6382   0.354   4.642   1.806
 1941SOL    HW1 6383   0.435   4.660   1.853
 1941SOL    HW2 6384   0.378   4.577   1.740
 1942SOL     OW 6385   1.522   4.021   0.126
 1942SOL    HW1 6386   1.471   3.941   0.142
 1942SOL    HW2 6387   1.560   4.043   0.211
 1943SOL     OW 6388   1.294   4.549   0.021
 1943SOL    HW1 6389   1.333   4.464   0.040
 1943SOL    HW2 6390   1.352   4.588   8.035
 1944SOL     OW 6391   1.059   5.075   0.831
 1944SOL    HW1 6392   1.064   4.992   0.785
 1944SOL    HW2 6393   1.144   5.116   0.815
 1945SOL     OW 6394   0.316   4.534   0.949
 1945SOL    HW1 6395   0.410   4.552   0.946
 1945SOL    HW2 6396   0.309   4.445   0.983
 1946SOL     OW 6397   0.336   4.248   1.014
 1946SOL    HW1 6398   0.300   4.161   1.000
 1946SOL    HW2 6399   0.410   4.254   0.954
 1947SOL     OW 6400   1.134   4.101   1.681
 1947SOL    HW1 6401   1.088   4.156   1.743
 1947SOL    HW2 6402   1.222   4.139   1.677
 1948SOL     OW 6403   1.161   3.928   1.470
 1948SOL    HW1 6404   1.151   3.990   1.542
 1948SOL    HW2 6405   1.199   3.979   1.398
 1949SOL     OW 6406   0.011   5.053   0.196
 1949SOL    HW1 6407   5.220   5.059   0.168
 1949SOL    HW2 6408   0.016   4.968   0.241
 1950SOL     OW 6409   0.986   4.517   1.228
 1950SOL    HW1 6410   1.040   4.493   1.303
 1950SOL    HW2 6411   0.900   4.480   1.247
 1951SOL     OW 6412   0.033   4.277   1.114
 1951SOL    HW1 6413   0.122   4.258   1.082
 1951SOL    HW2 6414   0.038   4.266   1.209
 1952SOL     OW 6415   0.175   4.236   1.712
 1952SOL    HW1 6416   0.242   4.203   1.653
 1952SOL    HW2 6417   0.145   4.317   1.671
 1953SOL     OW 6418   1.376   4.664   1.659
 1953SOL    HW1 6419   1.396   4.758   1.657
 1953SOL    HW2 6420   1.373   4.639   1.567
 1954SOL     OW 6421   0.818   4.294   0.363
 1954SOL    HW1 6422   0.827   4.222   0.301
 1954SOL    HW2 6423   0.741   4.342   0.332
 1955SOL     OW 6424   1.643   4.325   1.188
 1955SOL    HW1 6425   1.632   4.266   1.262
 1955SOL    HW2 6426   1.729   4.305   1.153
 1956SOL     OW 6427   0.211   5.281   1.733
 1956SOL    HW1 6428   0.181   0.024   1.812
 1956SOL    HW2 6429   0.214   5.188   1.756
 1957SOL     OW 6430   0.698   4.176   1.261
 1957SOL    HW1 6431   0.646   4.101   1.231
 1957SOL    HW2 6432   0.695   4.238   1.189
 1958SOL     OW 6433   0.467   4.214   0.182
 1958SOL    HW1 6434   0.532   4.282   0.201
 1958SOL    HW2 6435   0.383   4.259   0.186
 1959SOL     OW 6436   0.152   4.862   1.472
 1959SOL    HW1 6437   0.149   4.811   1.553
 1959SOL    HW2 6438   0.163   4.796   1.403
 1960SOL     OW 6439   1.329   4.771   1.224
 1960SOL    HW1 6440   1.352   4.709   1.155
 1960SOL    HW2 6441   1.256   4.822   1.187
 1961SOL     OW 6442   1.306   4.573   0.308
 1961SOL    HW1 6443   1.229   4.546   0.357
 1961SOL    HW2 6444   1.282   4.563   0.216
 1962SOL     OW 6445   0.077   4.924   1.030
 1962SOL    HW1 6446   0.065   4.962   1.117
 1962SOL    HW2 6447   5.291   4.928   0.989
 1963SOL     OW 6448   0.750   0.042   1.709
 1963SOL    HW1 6449   0.657   0.064   1.718
 1963SOL    HW2 6450   0.770   0.061   1.617
 1964SOL     OW 6451   0.904   3.815   0.134
 1964SOL    HW1 6452   0.928   3.801   0.042
 1964SOL    HW2 6453   0.967   3.762   0.183
 1965SOL     OW 6454   1.718   3.867   0.511
 1965SOL    HW1 6455   1.791   3.852   0.451
 1965SOL    HW2 6456   1.703   3.782   0.552
 1966SOL     OW 6457   1.277   4.648   0.671
 1966SOL    HW1 6458   1.351   4.587   0.677
 1966SOL    HW2 6459   1.311   4.721   0.619
 1967SOL     OW 6460   0.820   4.994   1.424
 1967SOL    HW1 6461   0.792   5.030   1.508
 1967SOL    HW2 6462   0.744   5.004   1.367
 1968SOL     OW 6463   1.840   3.897   0.967
 1968SOL    HW1 6464   1.869   3.810   0.939
 1968SOL    HW2 6465   1.754   3.908   0.927
 1969SOL     OW 6466   0.270   4.040   0.717
 1969SOL    HW1 6467   0.188   4.085   0.696
 1969SOL    HW2 6468   0.268   4.030   0.812
 1970SOL     OW 6469   1.142   0.021   0.007
 1970SOL    HW1 6470   1.157   5.231   0.036
 1970SOL    HW2 6471   1.142   0.015   7.992
 1971SOL     OW 6472   0.825   4.728   1.371
 1971SOL    HW1 6473   0.868   4.723   1.286
 1971SOL    HW2 6474   0.828   4.821   1.394
 1972SOL     OW 6475   0.917   4.638   0.297
 1972SOL    HW1 6476   0.973   4.665   0.224
 1972SOL    HW2 6477   0.964   4.565   0.338
 1973SOL     OW 6478   0.366   5.028   1.499
 1973SOL    HW1 6479   0.363   5.099   1.435
 1973SOL    HW2 6480   0.292   4.973   1.476
 1974SOL     OW 6481   1.613   5.004   1.283
 1974SOL    HW1 6482   1.670   4.999   1.359
 1974SOL    HW2 6483   1.551   5.074   1.303
 1975SOL     OW 6484   1.052   4.832   0.710
 1975SOL    HW1 6485   0.980   4.781   0.747
 1975SOL    HW2 6486   1.112   4.767   0.674
 1976SOL     OW 6487   1.021   3.964   0.966
 1976SOL    HW1 6488   1.015   3.916   0.883
 1976SOL    HW2 6489   1.015   3.896   1.033
 1977SOL     OW 6490   1.720   4.116   1.380
 1977SOL    HW1 6491   1.792   4.179   1.379
 1977SOL    HW2 6492   1.750   4.044   1.324
 1978SOL     OW 6493   0.268   5.037   0.293
 1978SOL    HW1 6494   0.185   5.052   0.248
 1978SOL    HW2 6495   0.258   5.084   0.377
 1979SOL     OW 6496   0.115   4.741   1.720
 1979SOL    HW1 6497   0.043   4.704   1.771
 1979SOL    HW2 6498   0.194   4.708   1.762
 1980SOL     OW 6499   0.673   3.920   1.499
 1980SOL    HW1 6500   0.757   3.901   1.457
 1980SOL    HW2 6501   0.697   3.950   1.586
 1981SOL     OW 6502   0.041   4.119   0.029
 1981SOL    HW1 6503   0.019   4.029   0.054
 1981SOL    HW2 6504   0.119   4.109   8.054
 1982SOL     OW 6505   1.431   4.582   1.401
 1982SOL    HW1 6506   1.383   4.642   1.345
 1982SOL    HW2 6507   1.521   4.585   1.368
 1983SOL     OW 6508   0.051   3.859   0.222
 1983SOL    HW1 6509   0.051   3.948   0.256
 1983SOL    HW2 6510   0.143   3.836   0.212
 1984SOL     OW 6511   1.181   5.065   0.114
 1984SOL    HW1 6512   1.087   5.048   0.113
 1984SOL    HW2 6513   1.206   5.061   0.206
 1985SOL     OW 6514   0.619   4.555   1.435
 1985SOL    HW1 6515   0.675   4.631   1.418
 1985SOL    HW2 6516   0.680   4.482   1.442
 1986SOL     OW 6517   0.717   4.289   1.706
 1986SOL    HW1 6518   0.756   4.352   1.766
 1986SOL    HW2 6519   0.749   4.204   1.736
 1987SOL     OW 6520   1.472   4.925   1.632
 1987SOL    HW1 6521   1.459   4.937   1.726
 1987SOL    HW2 6522   1.566   4.937   1.619
 1988SOL     OW 6523   1.671   4.606   1.255
 1988SOL    HW1 6524   1.663   4.521   1.212
 1988SOL    HW2 6525   1.661   4.669   1.184
 1989SOL     OW 6526   1.218   4.042   0.459
 1989SOL    HW1 6527   1.283   3.972   0.451
 1989SOL    HW2 6528   1.245   4.092   0.536
 1990SOL     OW 6529   0.591   4.462   0.667
 1990SOL    HW1 6530   0.629   4.548   0.653
 1990SOL    HW2 6531   0.519   4.457   0.604
 1991SOL     OW 6532   1.764   4.084   1.649
 1991SOL    HW1 6533   1.747   4.099   1.557
 1991SOL    HW2 6534   1.693   4.028   1.679
 1992SOL     OW 6535   1.744   4.657   1.512
 1992SOL    HW1 6536   1.743   4.752   1.525
 1992SOL    HW2 6537   1.729   4.646   1.419
 1993SOL     OW 6538   0.905   5.096   0.033
 1993SOL    HW1 6539   0.846   5.080   0.107
 1993SOL    HW2 6540   0.860   5.162   8.061
 1994SOL     OW 6541   0.867   4.690   0.856
 1994SOL    HW1 6542   0.917   4.619   0.897
 1994SOL    HW2 6543   0.833   4.741   0.929
 1995SOL     OW 6544   1.079   4.704   0.088
 1995SOL    HW1 6545   1.062   4.759   0.012
 1995SOL    HW2 6546   1.157   4.653   0.063
 1996SOL     OW 6547   0.221   5.027   1.854
 1996SOL    HW1 6548   0.155   4.961   1.834
 1996SOL    HW2 6549   0.216   5.038   1.949
 1997SOL     OW 6550   0.080   4.932   0.657
 1997SOL    HW1 6551   0.101   4.907   0.747
 1997SOL    HW2 6552   0.165   4.939   0.613
 1998SOL     OW 6553   0.670   5.109   1.609
 1998SOL    HW1 6554   0.594   5.073   1.656
 1998SOL    HW2 6555   0.699   5.182   1.664
 1999SOL     OW 6556   1.813   3.909   1.238
 1999SOL    HW1 6557   1.824   3.815   1.253
 1999SOL    HW2 6558   1.822   3.919   1.143
 2000SOL     OW 6559   0.432   4.162   0.523
 2000SOL    HW1 6560   0.461   4.089   0.468
 2000SOL    HW2 6561   0.386   4.120   0.596
 2001SOL     OW 6562   1.707   5.222   1.119
 2001SOL    HW1 6563   1.633   5.206   1.061
 2001SOL    HW2 6564   1.714   5.143   1.172
 2002SOL     OW 6565   0.335   4.282   1.291
 2002SOL    HW1 6566   0.387   4.222   1.344
 2002SOL    HW2 6567   0.349   4.252   1.201
 2003SOL     OW 6568   1.432   3.948   1.118
 2003SOL    HW1 6569   1.460   3.870   1.166
 2003SOL    HW2 6570   1.380   3.997   1.181
 2004SOL     OW 6571   1.008   3.744   1.144
 2004SOL    HW1 6572   0.954   3.676   1.105
 2004SOL    HW2 6573   1.096   3.706   1.146
 2005SOL     OW 6574   0.796   5.040   0.282
 2005SOL    HW1 6575   0.736   4.970   0.308
 2005SOL    HW2 6576   0.851   5.053   0.359
 2006SOL     OW 6577   0.637   0.001   1.285
 2006SOL    HW1 6578   0.642   0.057   1.363
 2006SOL    HW2 6579   0.728   5.284   1.262
 2007SOL     OW 6580   1.356   3.779   0.183
 2007SOL    HW1 6581   1.379   3.730   0.104
 2007SOL    HW2 6582   1.271   3.744   0.208
 2008SOL     OW 6583   1.297   4.184   0.682
 2008SOL    HW1 6584   1.243   4.263   0.690
 2008SOL    HW2 6585   1.293   4.144   0.769
 2009SOL     OW 6586   1.587   3.928   0.877
 2009SOL    HW1 6587   1.524   3.947   0.947
 2009SOL    HW2 6588   1.586   4.006   0.822
 2010SOL     OW 6589   0.040   4.801   0.303
 2010SOL    HW1 6590   0.133   4.778   0.292
 2010SOL    HW2 6591   5.297   4.718   0.324
 2011SOL     OW 6592   0.234   4.357   1.977
 2011SOL    HW1 6593   0.157   4.328   2.027
 2011SOL    HW2 6594   0.221   4.320   1.890
 2012SOL     OW 6595   0.240   3.999   2.853
 2012SOL    HW1 6596   0.255   3.966   2.941
 2012SOL    HW2 6597   0.157   3.961   2.826
 2013SOL     OW 6598   5.299   4.120   2.514
 2013SOL    HW1 6599   5.206   4.143   2.522
 2013SOL    HW2 6600   5.299   4.029   2.484
 2014SOL     OW 6601   0.572   4.998   3.043
 2014SOL    HW1 6602   0.492   5.005   2.989
 2014SOL    HW2 6603   0.589   5.087   3.071
 2015SOL     OW 6604   1.554   5.232   2.551
 2015SOL    HW1 6605   1.531   5.229   2.644
 2015SOL    HW2 6606   1.476   5.267   2.508
 2016SOL     OW 6607   1.129   4.422   2.565
 2016SOL    HW1 6608   1.179   4.503   2.550
 2016SOL    HW2 6609   1.083   4.437   2.647
 2017SOL     OW 6610   1.765   4.331   2.092
 2017SOL    HW1 6611   1.745   4.322   1.998
 2017SOL    HW2 6612   1.730   4.250   2.131
 2018SOL     OW 6613   0.760   4.869   2.898
 2018SOL    HW1 6614   0.691   4.898   2.958
 2018SOL    HW2 6615   0.787   4.949   2.853
 2019SOL     OW 6616   0.864   4.503   3.683
 2019SOL    HW1 6617   0.853   4.575   3.745
 2019SOL    HW2 6618   0.887   4.545   3.601
 2020SOL     OW 6619   0.686   4.729   2.511
 2020SOL    HW1 6620   0.751   4.716   2.581
 2020SOL    HW2 6621   0.618   4.782   2.552
 2021SOL     OW 6622   0.707   4.873   3.672
 2021SOL    HW1 6623   0.755   4.953   3.696
 2021SOL    HW2 6624   0.624   4.905   3.638
 2022SOL     OW 6625   0.376   5.144   2.914
 2022SOL    HW1 6626   0.281   5.151   2.901
 2022SOL    HW2 6627   0.413   5.202   2.848
 2023SOL     OW 6628   1.456   5.220   3.208
 2023SOL    HW1 6629   1.508   5.293   3.240
 2023SOL    HW2 6630   1.390   5.206   3.276
 2024SOL     OW 6631   0.450   4.124   3.357
 2024SOL    HW1 6632   0.523   4.063   3.357
 2024SOL    HW2 6633   0.372   4.068   3.364
 2025SOL     OW 6634   1.613   4.173   2.601
 2025SOL    HW1 6635   1.537   4.197   2.548
 2025SOL    HW2 6636   1.631   4.251   2.654
 2026SOL     OW 6637   1.133   5.071   3.561
 2026SOL    HW1 6638   1.165   5.071   3.651
 2026SOL    HW2 6639   1.080   4.992   3.554
 2027SOL     OW 6640   0.212   5.151   2.392
 2027SOL    HW1 6641   0.248   5.232   2.427
 2027SOL    HW2 6642   0.135   5.133   2.446
 2028SOL     OW 6643   0.251   4.801   2.738
 2028SOL    HW1 6644   0.262   4.715   2.780
 2028SOL    HW2 6645   0.196   4.850   2.799
 2029SOL     OW 6646   0.585   4.705   1.995
 2029SOL    HW1 6647   0.631   4.755   1.927
 2029SOL    HW2 6648   0.627   4.734   2.077
 2030SOL     OW 6649   1.596   3.846   3.331
 2030SOL    HW1 6650   1.598   3.925   3.279
 2030SOL    HW2 6651   1.583   3.876   3.421
 2031SOL     OW 6652   0.126   4.357   2.439
 2031SOL    HW1 6653   0.088   4.275   2.469
 2031SOL    HW2 6654   0.099   4.422   2.505
 2032SOL     OW 6655   0.000   0.000   1.945
 2032SOL    HW1 6656   0.017   5.213   1.979
 2032SOL    HW2 6657   0.025   0.059   2.016
 2033SOL     OW 6658   1.689   4.642   2.500
 2033SOL    HW1 6659   1.773   4.602   2.481
 2033SOL    HW2 6660   1.668   4.693   2.422
 2034SOL     OW 6661   1.645   4.832   2.292
 2034SOL    HW1 6662   1.730   4.838   2.248
 2034SOL    HW2 6663   1.651   4.892   2.366
 2035SOL     OW 6664   0.129   4.471   3.450
 2035SOL    HW1 6665   0.223   4.485   3.455
 2035SOL    HW2 6666   0.091   4.558   3.460
 2036SOL     OW 6667   0.626   5.095   2.595
 2036SOL    HW1 6668   0.568   5.018   2.597
 2036SOL    HW2 6669   0.599   5.142   2.516
 2037SOL     OW 6670   1.289   4.956   3.288
 2037SOL    HW1 6671   1.324   4.890   3.227
 2037SOL    HW2 6672   1.348   4.952   3.363
 2038SOL     OW 6673   0.820   3.722   2.370
 2038SOL    HW1 6674   0.860   3.807   2.352
 2038SOL    HW2 6675   0.727   3.741   2.377
 2039SOL     OW 6676   0.179   4.671   3.142
 2039SOL    HW1 6677   0.269   4.641   3.128
 2039SOL    HW2 6678   0.134   4.650   3.061
 2040SOL     OW 6679   1.531   4.717   2.058
 2040SOL    HW1 6680   1.462   4.659   2.089
 2040SOL    HW2 6681   1.572   4.751   2.138
 2041SOL     OW 6682   0.333   3.977   3.675
 2041SOL    HW1 6683   0.382   4.058   3.687
 2041SOL    HW2 6684   0.247   3.994   3.711
 2042SOL     OW 6685   1.475   5.146   2.825
 2042SOL    HW1 6686   1.402   5.158   2.885
 2042SOL    HW2 6687   1.462   5.057   2.790
 2043SOL     OW 6688   0.596   4.446   2.127
 2043SOL    HW1 6689   0.604   4.526   2.075
 2043SOL    HW2 6690   0.531   4.468   2.194
 2044SOL     OW 6691   1.280   4.074   2.794
 2044SOL    HW1 6692   1.190   4.041   2.802
 2044SOL    HW2 6693   1.330   4.021   2.856
 2045SOL     OW 6694   0.793   4.341   3.315
 2045SOL    HW1 6695   0.765   4.318   3.403
 2045SOL    HW2 6696   0.751   4.275   3.259
 2046SOL     OW 6697   1.394   4.198   3.540
 2046SOL    HW1 6698   1.395   4.242   3.625
 2046SOL    HW2 6699   1.456   4.126   3.549
 2047SOL     OW 6700   0.957   4.612   3.444
 2047SOL    HW1 6701   1.011   4.541   3.409
 2047SOL    HW2 6702   0.909   4.645   3.367
 2048SOL     OW 6703   0.992   4.137   3.102
 2048SOL    HW1 6704   0.908   4.159   3.141
 2048SOL    HW2 6705   0.970   4.090   3.021
 2049SOL     OW 6706   1.050   4.423   2.289
 2049SOL    HW1 6707   1.065   4.416   2.383
 2049SOL    HW2 6708   0.968   4.376   2.274
 2050SOL     OW 6709   0.073   4.510   2.674
 2050SOL    HW1 6710   0.156   4.515   2.722
 2050SOL    HW2 6711   0.058   4.598   2.642
 2051SOL     OW 6712   0.890   4.071   2.056
 2051SOL    HW1 6713   0.931   4.133   1.996
 2051SOL    HW2 6714   0.907   3.985   2.018
 2052SOL     OW 6715   1.710   4.300   3.690
 2052SOL    HW1 6716   1.672   4.375   3.644
 2052SOL    HW2 6717   1.736   4.239   3.620
 2053SOL     OW 6718   1.376   4.864   2.402
 2053SOL    HW1 6719   1.457   4.850   2.353
 2053SOL    HW2 6720   1.325   4.925   2.349
 2054SOL     OW 6721   0.554   3.908   2.755
 2054SOL    HW1 6722   0.552   3.935   2.846
 2054SOL    HW2 6723   0.551   3.990   2.705
 2055SOL     OW 6724   1.024   5.171   2.331
 2055SOL    HW1 6725   0.945   5.225   2.322
 2055SOL    HW2 6726   1.037   5.162   2.426
 2056SOL     OW 6727   1.799   4.782   2.728
 2056SOL    HW1 6728   1.742   4.766   2.653
 2056SOL    HW2 6729   1.740   4.789   2.803
 2057SOL     OW 6730   1.249   5.240   3.384
 2057SOL    HW1 6731   1.213   5.173   3.443
 2057SOL    HW2 6732   1.180   5.256   3.321
 2058SOL     OW 6733   0.317   4.676   2.108
 2058SOL    HW1 6734   0.399   4.699   2.065
 2058SOL    HW2 6735   0.293   4.591   2.071
 2059SOL     OW 6736   1.476   4.464   2.590
 2059SOL    HW1 6737   1.467   4.420   2.674
 2059SOL    HW2 6738   1.554   4.520   2.601
 2060SOL     OW 6739   0.463   4.988   3.603
 2060SOL    HW1 6740   0.437   4.991   3.511
 2060SOL    HW2 6741   0.381   4.987   3.651
 2061SOL     OW 6742   1.075   0.183   2.072
 2061SOL    HW1 6743   1.076   0.108   2.131
 2061SOL    HW2 6744   1.112   0.150   1.990
 2062SOL     OW 6745   0.204   4.007   3.359
 2062SOL    HW1 6746   0.125   4.058   3.344
 2062SOL    HW2 6747   0.175   3.931   3.409
 2063SOL     OW 6748   1.624   5.099   1.967
 2063SOL    HW1 6749   1.616   5.179   1.915
 2063SOL    HW2 6750   1.555   5.042   1.934
 2064SOL     OW 6751   1.401   3.832   2.293
 2064SOL    HW1 6752   1.390   3.807   2.201
 2064SOL    HW2 6753   1.496   3.839   2.305
 2065SOL     OW 6754   0.386   4.420   2.341
 2065SOL    HW1 6755   0.415   4.329   2.350
 2065SOL    HW2 6756   0.293   4.417   2.362
 2066SOL     OW 6757   1.537   3.949   3.587
 2066SOL    HW1 6758   1.546   3.971   3.680
 2066SOL    HW2 6759   1.468   3.884   3.584
 2067SOL     OW 6760   0.630   3.847   1.969
 2067SOL    HW1 6761   0.704   3.788   1.979
 2067SOL    HW2 6762   0.584   3.816   1.891
 2068SOL     OW 6763   0.768   4.001   3.615
 2068SOL    HW1 6764   0.841   3.940   3.620
 2068SOL    HW2 6765   0.717   3.984   3.694
 2069SOL     OW 6766   1.341   4.312   3.294
 2069SOL    HW1 6767   1.372   4.281   3.379
 2069SOL    HW2 6768   1.377   4.401   3.286
 2070SOL     OW 6769   0.812   5.122   2.796
 2070SOL    HW1 6770   0.892   5.106   2.747
 2070SOL    HW2 6771   0.744   5.127   2.729
 2071SOL     OW 6772   0.928   4.233   2.765
 2071SOL    HW1 6773   0.904   4.225   2.673
 2071SOL    HW2 6774   0.959   4.147   2.790
 2072SOL     OW 6775   0.559   3.785   2.359
 2072SOL    HW1 6776   0.484   3.786   2.419
 2072SOL    HW2 6777   0.549   3.865   2.308
 2073SOL     OW 6778   1.428   4.923   1.901
 2073SOL    HW1 6779   1.459   4.848   1.951
 2073SOL    HW2 6780   1.340   4.940   1.935
 2074SOL     OW 6781   0.305   3.771   2.042
 2074SOL    HW1 6782   0.366   3.835   2.007
 2074SOL    HW2 6783   0.360   3.705   2.085
 2075SOL     OW 6784   0.938   3.969   2.324
 2075SOL    HW1 6785   0.910   4.012   2.243
 2075SOL    HW2 6786   1.033   3.983   2.326
 2076SOL     OW 6787   1.080   4.404   3.322
 2076SOL    HW1 6788   1.010   4.339   3.327
 2076SOL    HW2 6789   1.160   4.352   3.314
 2077SOL     OW 6790   1.264   5.268   2.641
 2077SOL    HW1 6791   1.225   0.050   2.611
 2077SOL    HW2 6792   1.306   5.291   2.724
 2078SOL     OW 6793   0.465   4.873   2.593
 2078SOL    HW1 6794   0.396   4.853   2.657
 2078SOL    HW2 6795   0.425   4.852   2.508
 2079SOL     OW 6796   1.024   4.268   1.883
 2079SOL    HW1 6797   0.983   4.351   1.862
 2079SOL    HW2 6798   1.089   4.289   1.950
 2080SOL     OW 6799   0.086   4.271   3.259
 2080SOL    HW1 6800   0.174   4.278   3.222
 2080SOL    HW2 6801   0.078   4.346   3.317
 2081SOL     OW 6802   0.561   3.951   3.027
 2081SOL    HW1 6803   0.598   3.870   3.063
 2081SOL    HW2 6804   0.469   3.950   3.055
 2082SOL     OW 6805   0.869   4.183   2.502
 2082SOL    HW1 6806   0.822   4.237   2.438
 2082SOL    HW2 6807   0.889   4.102   2.455
 2083SOL     OW 6808   1.015   3.777   2.614
 2083SOL    HW1 6809   0.956   3.769   2.539
 2083SOL    HW2 6810   0.994   3.701   2.669
 2084SOL     OW 6811   1.436   4.890   2.721
 2084SOL    HW1 6812   1.370   4.820   2.717
 2084SOL    HW2 6813   1.461   4.904   2.630
 2085SOL     OW 6814   1.467   4.327   2.841
 2085SOL    HW1 6815   1.418   4.245   2.845
 2085SOL    HW2 6816   1.527   4.323   2.915
 2086SOL     OW 6817   1.847   4.541   2.244
 2086SOL    HW1 6818   1.903   4.489   2.302
 2086SOL    HW2 6819   1.817   4.479   2.177
 2087SOL     OW 6820   0.485   5.141   2.019
 2087SOL    HW1 6821   0.420   5.093   2.069
 2087SOL    HW2 6822   0.477   5.107   1.930
 2088SOL     OW 6823   1.669   4.987   2.510
 2088SOL    HW1 6824   1.763   4.994   2.527
 2088SOL    HW2 6825   1.634   5.075   2.527
 2089SOL     OW 6826   1.394   4.296   1.933
 2089SOL    HW1 6827   1.334   4.277   2.005
 2089SOL    HW2 6828   1.478   4.263   1.964
 2090SOL     OW 6829   0.524   3.987   2.181
 2090SOL    HW1 6830   0.567   3.939   2.111
 2090SOL    HW2 6831   0.504   4.073   2.143
 2091SOL     OW 6832   1.752   4.959   3.440
 2091SOL    HW1 6833   1.839   4.918   3.439
 2091SOL    HW2 6834   1.770   5.052   3.455
 2092SOL     OW 6835   1.065   5.076   3.194
 2092SOL    HW1 6836   0.987   5.049   3.243
 2092SOL    HW2 6837   1.137   5.035   3.242
 2093SOL     OW 6838   1.125   4.925   2.970
 2093SOL    HW1 6839   1.073   4.966   3.039
 2093SOL    HW2 6840   1.081   4.952   2.889
 2094SOL     OW 6841   1.630   4.823   2.939
 2094SOL    HW1 6842   1.626   4.885   3.013
 2094SOL    HW2 6843   1.551   4.840   2.889
 2095SOL     OW 6844   0.919   3.821   3.261
 2095SOL    HW1 6845   0.940   3.803   3.169
 2095SOL    HW2 6846   0.998   3.861   3.297
 2096SOL     OW 6847   0.984   4.839   3.586
 2096SOL    HW1 6848   0.892   4.854   3.604
 2096SOL    HW2 6849   0.985   4.762   3.529
 2097SOL     OW 6850   0.703   4.780   2.235
 2097SOL    HW1 6851   0.694   4.767   2.330
 2097SOL    HW2 6852   0.782   4.730   2.212
 2098SOL     OW 6853   0.421   4.541   3.113
 2098SOL    HW1 6854   0.489   4.548   3.179
 2098SOL    HW2 6855   0.384   4.453   3.124
 2099SOL     OW 6856   1.266   4.102   3.136
 2099SOL    HW1 6857   1.299   4.179   3.182
 2099SOL    HW2 6858   1.176   4.124   3.111
 2100SOL     OW 6859   0.114   5.288   3.181
 2100SOL    HW1 6860   0.054   0.053   3.217
 2100SOL    HW2 6861   0.190   5.292   3.238
 2101SOL     OW 6862   0.345   4.827   2.350
 2101SOL    HW1 6863   0.354   4.905   2.297
 2101SOL    HW2 6864   0.355   4.754   2.289
 2102SOL     OW 6865   0.556   4.261   2.721
 2102SOL    HW1 6866   0.572   4.319   2.647
 2102SOL    HW2 6867   0.619   4.289   2.788
 2103SOL     OW 6868   1.259   5.075   2.248
 2103SOL    HW1 6869   1.315   5.143   2.286
 2103SOL    HW2 6870   1.171   5.097   2.277
 2104SOL     OW 6871   1.268   5.181   3.004
 2104SOL    HW1 6872   1.327   5.193   3.078
 2104SOL    HW2 6873   1.223   5.098   3.022
 2105SOL     OW 6874   1.582   4.348   2.339
 2105SOL    HW1 6875   1.537   4.404   2.403
 2105SOL    HW2 6876   1.628   4.409   2.282
 2106SOL     OW 6877   0.380   5.232   3.179
 2106SOL    HW1 6878   0.361   5.192   3.094
 2106SOL    HW2 6879   0.473   5.256   3.174
 2107SOL     OW 6880   0.412   4.467   3.464
 2107SOL    HW1 6881   0.472   4.513   3.406
 2107SOL    HW2 6882   0.453   4.381   3.477
 2108SOL     OW 6883   1.599   4.502   3.543
 2108SOL    HW1 6884   1.513   4.543   3.535
 2108SOL    HW2 6885   1.651   4.544   3.474
 2109SOL     OW 6886   0.996   3.844   3.619
 2109SOL    HW1 6887   1.049   3.917   3.587
 2109SOL    HW2 6888   1.045   3.766   3.592
 2110SOL     OW 6889   0.498   3.767   3.609
 2110SOL    HW1 6890   0.457   3.712   3.542
 2110SOL    HW2 6891   0.437   3.840   3.621
 2111SOL     OW 6892   0.585   4.597   2.894
 2111SOL    HW1 6893   0.613   4.688   2.891
 2111SOL    HW2 6894   0.528   4.591   2.970
 2112SOL     OW 6895   1.359   4.582   2.893
 2112SOL    HW1 6896   1.277   4.574   2.845
 2112SOL    HW2 6897   1.398   4.495   2.890
 2113SOL     OW 6898   1.206   4.253   2.130
 2113SOL    HW1 6899   1.214   4.174   2.185
 2113SOL    HW2 6900   1.164   4.317   2.187
 2114SOL     OW 6901   0.302   3.928   3.110
 2114SOL    HW1 6902   0.267   3.953   3.195
 2114SOL    HW2 6903   0.288   3.833   3.106
 2115SOL     OW 6904   0.046   5.022   3.139
 2115SOL    HW1 6905   0.076   4.972   3.214
 2115SOL    HW2 6906   0.045   5.113   3.169
 2116SOL     OW 6907   0.726   4.356   2.922
 2116SOL    HW1 6908   0.799   4.339   2.862
 2116SOL    HW2 6909   0.697   4.445   2.900
 2117SOL     OW 6910   1.734   4.683   3.713
 2117SOL    HW1 6911   1.687   4.625   3.654
 2117SOL    HW2 6912   1.674   4.696   3.787
 2118SOL     OW 6913   0.328   3.786   2.497
 2118SOL    HW1 6914   0.306   3.875   2.524
 2118SOL    HW2 6915   0.330   3.735   2.578
 2119SOL     OW 6916   1.614   4.097   2.230
 2119SOL    HW1 6917   1.642   4.033   2.297
 2119SOL    HW2 6918   1.592   4.175   2.280
 2120SOL     OW 6919   1.027   4.483   2.824
 2120SOL    HW1 6920   1.026   4.501   2.918
 2120SOL    HW2 6921   1.001   4.392   2.816
 2121SOL     OW 6922   1.855   5.215   3.449
 2121SOL    HW1 6923   1.853   5.287   3.386
 2121SOL    HW2 6924   1.924   5.238   3.511
 2122SOL     OW 6925   0.354   4.642   3.668
 2122SOL    HW1 6926   0.435   4.660   3.715
 2122SOL    HW2 6927   0.378   4.577   3.602
 2123SOL     OW 6928   1.530   3.997   1.989
 2123SOL    HW1 6929   1.466   3.932   2.016
 2123SOL    HW2 6930   1.563   4.033   2.072
 2124SOL     OW 6931   1.294   4.551   1.894
 2124SOL    HW1 6932   1.336   4.465   1.897
 2124SOL    HW2 6933   1.324   4.590   1.812
 2125SOL     OW 6934   1.059   5.076   2.692
 2125SOL    HW1 6935   1.064   4.992   2.647
 2125SOL    HW2 6936   1.145   5.116   2.677
 2126SOL     OW 6937   0.315   4.534   2.811
 2126SOL    HW1 6938   0.410   4.552   2.808
 2126SOL    HW2 6939   0.309   4.445   2.845
 2127SOL     OW 6940   0.336   4.248   2.876
 2127SOL    HW1 6941   0.300   4.161   2.862
 2127SOL    HW2 6942   0.410   4.254   2.816
 2128SOL     OW 6943   1.134   4.101   3.543
 2128SOL    HW1 6944   1.088   4.156   3.605
 2128SOL    HW2 6945   1.222   4.139   3.539
 2129SOL     OW 6946   1.161   3.928   3.332
 2129SOL    HW1 6947   1.151   3.990   3.404
 2129SOL    HW2 6948   1.199   3.979   3.260
 2130SOL     OW 6949   0.003   5.050   2.070
 2130SOL    HW1 6950   5.224   5.042   2.016
 2130SOL    HW2 6951   0.013   4.964   2.110
 2131SOL     OW 6952   0.986   4.517   3.090
 2131SOL    HW1 6953   1.040   4.493   3.165
 2131SOL    HW2 6954   0.900   4.480   3.109
 2132SOL     OW 6955   0.034   4.281   2.976
 2132SOL    HW1 6956   0.121   4.256   2.944
 2132SOL    HW2 6957   0.038   4.266   3.070
 2133SOL     OW 6958   0.176   4.236   3.574
 2133SOL    HW1 6959   0.242   4.203   3.515
 2133SOL    HW2 6960   0.145   4.317   3.533
 2134SOL     OW 6961   1.376   4.664   3.521
 2134SOL    HW1 6962   1.396   4.758   3.519
 2134SOL    HW2 6963   1.373   4.639   3.429
 2135SOL     OW 6964   0.816   4.293   2.219
 2135SOL    HW1 6965   0.819   4.218   2.160
 2135SOL    HW2 6966   0.741   4.345   2.188
 2136SOL     OW 6967   1.643   4.325   3.050
 2136SOL    HW1 6968   1.631   4.266   3.124
 2136SOL    HW2 6969   1.729   4.305   3.015
 2137SOL     OW 6970   0.211   5.281   3.595
 2137SOL    HW1 6971   0.182   0.024   3.674
 2137SOL    HW2 6972   0.214   5.188   3.618
 2138SOL     OW 6973   0.698   4.176   3.124
 2138SOL    HW1 6974   0.646   4.101   3.093
 2138SOL    HW2 6975   0.695   4.238   3.051
 2139SOL     OW 6976   0.466   4.217   2.049
 2139SOL    HW1 6977   0.525   4.290   2.069
 2139SOL    HW2 6978   0.380   4.258   2.039
 2140SOL     OW 6979   0.152   4.862   3.334
 2140SOL    HW1 6980   0.149   4.811   3.415
 2140SOL    HW2 6981   0.163   4.796   3.265
 2141SOL     OW 6982   1.329   4.771   3.086
 2141SOL    HW1 6983   1.352   4.709   3.017
 2141SOL    HW2 6984   1.256   4.822   3.049
 2142SOL     OW 6985   1.309   4.581   2.169
 2142SOL    HW1 6986   1.233   4.550   2.218
 2142SOL    HW2 6987   1.286   4.567   2.077
 2143SOL     OW 6988   0.077   4.924   2.891
 2143SOL    HW1 6989   0.066   4.962   2.978
 2143SOL    HW2 6990   5.290   4.928   2.852
 2144SOL     OW 6991   0.750   0.041   3.571
 2144SOL    HW1 6992   0.657   0.064   3.580
 2144SOL    HW2 6993   0.770   0.061   3.479
 2145SOL     OW 6994   1.719   3.868   2.373
 2145SOL    HW1 6995   1.792   3.854   2.313
 2145SOL    HW2 6996   1.703   3.782   2.413
 2146SOL     OW 6997   1.277   4.649   2.533
 2146SOL    HW1 6998   1.350   4.587   2.539
 2146SOL    HW2 6999   1.311   4.721   2.481
 2147SOL     OW 7000   0.820   4.994   3.286
 2147SOL    HW1 7001   0.792   5.030   3.370
 2147SOL    HW2 7002   0.744   5.003   3.229
 2148SOL     OW 7003   1.840   3.897   2.830
 2148SOL    HW1 7004   1.869   3.811   2.801
 2148SOL    HW2 7005   1.754   3.908   2.789
 2149SOL     OW 7006   0.272   4.041   2.580
 2149SOL    HW1 7007   0.188   4.081   2.558
 2149SOL    HW2 7008   0.269   4.030   2.675
 2150SOL     OW 7009   0.825   4.728   3.233
 2150SOL    HW1 7010   0.869   4.723   3.148
 2150SOL    HW2 7011   0.828   4.821   3.256
 2151SOL     OW 7012   0.915   4.635   2.152
 2151SOL    HW1 7013   0.977   4.667   2.086
 2151SOL    HW2 7014   0.963   4.565   2.196
 2152SOL     OW 7015   0.366   5.028   3.361
 2152SOL    HW1 7016   0.364   5.099   3.297
 2152SOL    HW2 7017   0.291   4.972   3.338
 2153SOL     OW 7018   1.613   5.004   3.144
 2153SOL    HW1 7019   1.670   4.999   3.221
 2153SOL    HW2 7020   1.551   5.074   3.165
 2154SOL     OW 7021   1.051   4.832   2.571
 2154SOL    HW1 7022   0.980   4.781   2.609
 2154SOL    HW2 7023   1.112   4.767   2.537
 2155SOL     OW 7024   1.021   3.964   2.828
 2155SOL    HW1 7025   1.015   3.916   2.745
 2155SOL    HW2 7026   1.015   3.897   2.895
 2156SOL     OW 7027   1.720   4.116   3.242
 2156SOL    HW1 7028   1.792   4.179   3.241
 2156SOL    HW2 7029   1.750   4.044   3.186
 2157SOL     OW 7030   0.259   5.061   2.147
 2157SOL    HW1 7031   0.166   5.064   2.123
 2157SOL    HW2 7032   0.262   5.097   2.235
 2158SOL     OW 7033   0.115   4.741   3.582
 2158SOL    HW1 7034   0.043   4.704   3.633
 2158SOL    HW2 7035   0.194   4.708   3.624
 2159SOL     OW 7036   0.673   3.920   3.361
 2159SOL    HW1 7037   0.757   3.901   3.319
 2159SOL    HW2 7038   0.697   3.950   3.448
 2160SOL     OW 7039   0.080   4.076   1.903
 2160SOL    HW1 7040   0.001   4.027   1.879
 2160SOL    HW2 7041   0.097   4.132   1.828
 2161SOL     OW 7042   1.431   4.582   3.263
 2161SOL    HW1 7043   1.383   4.642   3.207
 2161SOL    HW2 7044   1.521   4.585   3.230
 2162SOL     OW 7045   0.055   3.857   2.105
 2162SOL    HW1 7046   0.054   3.953   2.101
 2162SOL    HW2 7047   0.146   3.833   2.086
 2163SOL     OW 7048   1.182   5.065   1.982
 2163SOL    HW1 7049   1.091   5.037   1.982
 2163SOL    HW2 7050   1.210   5.057   2.073
 2164SOL     OW 7051   0.619   4.555   3.297
 2164SOL    HW1 7052   0.675   4.631   3.280
 2164SOL    HW2 7053   0.679   4.482   3.304
 2165SOL     OW 7054   0.717   4.289   3.568
 2165SOL    HW1 7055   0.756   4.352   3.628
 2165SOL    HW2 7056   0.749   4.204   3.598
 2166SOL     OW 7057   1.472   4.925   3.494
 2166SOL    HW1 7058   1.458   4.937   3.588
 2166SOL    HW2 7059   1.566   4.938   3.481
 2167SOL     OW 7060   1.671   4.606   3.117
 2167SOL    HW1 7061   1.663   4.521   3.075
 2167SOL    HW2 7062   1.661   4.669   3.046
 2168SOL     OW 7063   1.218   4.043   2.320
 2168SOL    HW1 7064   1.281   3.972   2.311
 2168SOL    HW2 7065   1.247   4.092   2.397
 2169SOL     OW 7066   0.592   4.463   2.530
 2169SOL    HW1 7067   0.630   4.549   2.514
 2169SOL    HW2 7068   0.521   4.456   2.465
 2170SOL     OW 7069   1.764   4.084   3.511
 2170SOL    HW1 7070   1.747   4.098   3.418
 2170SOL    HW2 7071   1.692   4.028   3.541
 2171SOL     OW 7072   1.744   4.657   3.374
 2171SOL    HW1 7073   1.743   4.752   3.388
 2171SOL    HW2 7074   1.729   4.646   3.281
 2172SOL     OW 7075   0.850   5.095   1.881
 2172SOL    HW1 7076   0.829   5.096   1.974
 2172SOL    HW2 7077   0.870   5.186   1.859
 2173SOL     OW 7078   0.867   4.690   2.717
 2173SOL    HW1 7079   0.917   4.619   2.758
 2173SOL    HW2 7080   0.833   4.741   2.791
 2174SOL     OW 7081   1.080   4.713   1.951
 2174SOL    HW1 7082   1.058   4.762   1.872
 2174SOL    HW2 7083   1.155   4.659   1.925
 2175SOL     OW 7084   0.221   5.027   3.716
 2175SOL    HW1 7085   0.155   4.960   3.696
 2175SOL    HW2 7086   0.216   5.038   3.811
 2176SOL     OW 7087   0.081   4.933   2.518
 2176SOL    HW1 7088   0.098   4.910   2.609
 2176SOL    HW2 7089   0.167   4.935   2.476
 2177SOL     OW 7090   0.669   5.109   3.471
 2177SOL    HW1 7091   0.594   5.073   3.518
 2177SOL    HW2 7092   0.699   5.182   3.526
 2178SOL     OW 7093   1.814   3.909   3.100
 2178SOL    HW1 7094   1.823   3.815   3.115
 2178SOL    HW2 7095   1.822   3.919   3.005
 2179SOL     OW 7096   0.434   4.159   2.386
 2179SOL    HW1 7097   0.461   4.087   2.330
 2179SOL    HW2 7098   0.387   4.118   2.458
 2180SOL     OW 7099   1.707   5.222   2.981
 2180SOL    HW1 7100   1.633   5.206   2.923
 2180SOL    HW2 7101   1.714   5.143   3.034
 2181SOL     OW 7102   0.335   4.282   3.153
 2181SOL    HW1 7103   0.387   4.222   3.206
 2181SOL    HW2 7104   0.349   4.252   3.063
 2182SOL     OW 7105   1.432   3.948   2.980
 2182SOL    HW1 7106   1.459   3.869   3.028
 2182SOL    HW2 7107   1.380   3.997   3.044
 2183SOL     OW 7108   1.008   3.744   3.006
 2183SOL    HW1 7109   0.954   3.676   2.967
 2183SOL    HW2 7110   1.096   3.706   3.008
 2184SOL     OW 7111   0.802   5.047   2.146
 2184SOL    HW1 7112   0.738   4.978   2.165
 2184SOL    HW2 7113   0.855   5.052   2.225
 2185SOL     OW 7114   0.637   0.002   3.147
 2185SOL    HW1 7115   0.642   0.057   3.225
 2185SOL    HW2 7116   0.728   5.284   3.125
 2186SOL     OW 7117   1.352   3.778   2.026
 2186SOL    HW1 7118   1.379   3.717   1.957
 2186SOL    HW2 7119   1.265   3.747   2.053
 2187SOL     OW 7120   1.297   4.184   2.544
 2187SOL    HW1 7121   1.243   4.263   2.552
 2187SOL    HW2 7122   1.294   4.144   2.631
 2188SOL     OW 7123   1.587   3.928   2.739
 2188SOL    HW1 7124   1.524   3.947   2.809
 2188SOL    HW2 7125   1.587   4.006   2.684
 2189SOL     OW 7126   0.046   4.792   2.153
 2189SOL    HW1 7127   0.137   4.762   2.143
 2189SOL    HW2 7128   0.000   4.716   2.188
 2190SOL     OW 7129   0.234   4.357   3.839
 2190SOL    HW1 7130   0.157   4.328   3.889
 2190SOL    HW2 7131   0.221   4.320   3.752
 2191SOL     OW 7132   0.240   3.999   4.715
 2191SOL    HW1 7133   0.255   3.966   4.803
 2191SOL    HW2 7134   0.157   3.961   4.688
 2192SOL     OW 7135   5.299   4.120   4.376
 2192SOL    HW1 7136   5.206   4.143   4.384
 2192SOL    HW2 7137   5.299   4.029   4.346
 2193SOL     OW 7138   0.572   4.998   4.905
 2193SOL    HW1 7139   0.492   5.005   4.851
 2193SOL    HW2 7140   0.590   5.087   4.933
 2194SOL     OW 7141   1.554   5.232   4.413
 2194SOL    HW1 7142   1.531   5.229   4.506
 2194SOL    HW2 7143   1.476   5.267   4.370
 2195SOL     OW 7144   1.129   4.422   4.427
 2195SOL    HW1 7145   1.179   4.503   4.412
 2195SOL    HW2 7146   1.083   4.437   4.509
 2196SOL     OW 7147   1.765   4.330   3.954
 2196SOL    HW1 7148   1.745   4.322   3.860
 2196SOL    HW2 7149   1.730   4.251   3.993
 2197SOL     OW 7150   0.760   4.869   4.760
 2197SOL    HW1 7151   0.691   4.898   4.820
 2197SOL    HW2 7152   0.787   4.949   4.715
 2198SOL     OW 7153   0.864   4.503   5.545
 2198SOL    HW1 7154   0.853   4.575   5.607
 2198SOL    HW2 7155   0.887   4.545   5.463
 2199SOL     OW 7156   0.686   4.729   4.373
 2199SOL    HW1 7157   0.751   4.716   4.443
 2199SOL    HW2 7158   0.618   4.782   4.414
 2200SOL     OW 7159   0.707   4.873   5.534
 2200SOL    HW1 7160   0.755   4.953   5.558
 2200SOL    HW2 7161   0.624   4.905   5.500
 2201SOL     OW 7162   0.376   5.144   4.776
 2201SOL    HW1 7163   0.281   5.151   4.763
 2201SOL    HW2 7164   0.413   5.202   4.710
 2202SOL     OW 7165   1.456   5.220   5.070
 2202SOL    HW1 7166   1.508   5.293   5.102
 2202SOL    HW2 7167   1.390   5.206   5.138
 2203SOL     OW 7168   0.450   4.124   5.219
 2203SOL    HW1 7169   0.523   4.063   5.219
 2203SOL    HW2 7170   0.372   4.068   5.226
 2204SOL     OW 7171   1.613   4.173   4.463
 2204SOL    HW1 7172   1.537   4.197   4.410
 2204SOL    HW2 7173   1.631   4.251   4.516
 2205SOL     OW 7174   1.133   5.071   5.423
 2205SOL    HW1 7175   1.165   5.071   5.513
 2205SOL    HW2 7176   1.080   4.992   5.416
 2206SOL     OW 7177   0.212   5.151   4.254
 2206SOL    HW1 7178   0.248   5.232   4.289
 2206SOL    HW2 7179   0.135   5.133   4.308
 2207SOL     OW 7180   0.251   4.801   4.600
 2207SOL    HW1 7181   0.262   4.715   4.642
 2207SOL    HW2 7182   0.196   4.850   4.661
 2208SOL     OW 7183   0.585   4.706   3.857
 2208SOL    HW1 7184   0.631   4.755   3.789
 2208SOL    HW2 7185   0.627   4.734   3.939
 2209SOL     OW 7186   1.596   3.846   5.193
 2209SOL    HW1 7187   1.597   3.925   5.141
 2209SOL    HW2 7188   1.583   3.876   5.283
 2210SOL     OW 7189   0.126   4.357   4.301
 2210SOL    HW1 7190   0.088   4.275   4.331
 2210SOL    HW2 7191   0.099   4.422   4.367
 2211SOL     OW 7192   5.300   0.000   3.807
 2211SOL    HW1 7193   0.017   5.213   3.841
 2211SOL    HW2 7194   0.025   0.059   3.878
 2212SOL     OW 7195   1.689   4.642   4.362
 2212SOL    HW1 7196   1.773   4.602   4.343
 2212SOL    HW2 7197   1.668   4.693   4.284
 2213SOL     OW 7198   1.645   4.832   4.154
 2213SOL    HW1 7199   1.730   4.838   4.110
 2213SOL    HW2 7200   1.651   4.892   4.228
 2214SOL     OW 7201   0.129   4.471   5.312
 2214SOL    HW1 7202   0.223   4.485   5.316
 2214SOL    HW2 7203   0.091   4.558   5.322
 2215SOL     OW 7204   0.626   5.095   4.457
 2215SOL    HW1 7205   0.568   5.018   4.459
 2215SOL    HW2 7206   0.599   5.142   4.378
 2216SOL     OW 7207   1.289   4.956   5.150
 2216SOL    HW1 7208   1.324   4.890   5.089
 2216SOL    HW2 7209   1.348   4.952   5.225
 2217SOL     OW 7210   0.820   3.722   4.232
 2217SOL    HW1 7211   0.860   3.807   4.214
 2217SOL    HW2 7212   0.727   3.741   4.239
 2218SOL     OW 7213   0.179   4.671   5.004
 2218SOL    HW1 7214   0.269   4.641   4.990
 2218SOL    HW2 7215   0.134   4.650   4.923
 2219SOL     OW 7216   1.531   4.717   3.920
 2219SOL    HW1 7217   1.462   4.659   3.951
 2219SOL    HW2 7218   1.572   4.751   4.000
 2220SOL     OW 7219   0.333   3.977   5.536
 2220SOL    HW1 7220   0.382   4.058   5.549
 2220SOL    HW2 7221   0.247   3.994   5.573
 2221SOL     OW 7222   1.475   5.146   4.687
 2221SOL    HW1 7223   1.402   5.158   4.747
 2221SOL    HW2 7224   1.462   5.057   4.652
 2222SOL     OW 7225   0.596   4.446   3.989
 2222SOL    HW1 7226   0.604   4.526   3.937
 2222SOL    HW2 7227   0.531   4.468   4.056
 2223SOL     OW 7228   1.280   4.074   4.656
 2223SOL    HW1 7229   1.190   4.041   4.664
 2223SOL    HW2 7230   1.330   4.021   4.718
 2224SOL     OW 7231   0.793   4.341   5.177
 2224SOL    HW1 7232   0.765   4.318   5.265
 2224SOL    HW2 7233   0.751   4.275   5.121
 2225SOL     OW 7234   1.394   4.198   5.402
 2225SOL    HW1 7235   1.395   4.242   5.487
 2225SOL    HW2 7236   1.456   4.126   5.411
 2226SOL     OW 7237   0.957   4.612   5.306
 2226SOL    HW1 7238   1.011   4.541   5.271
 2226SOL    HW2 7239   0.909   4.645   5.229
 2227SOL     OW 7240   0.992   4.137   4.964
 2227SOL    HW1 7241   0.908   4.159   5.003
 2227SOL    HW2 7242   0.970   4.090   4.883
 2228SOL     OW 7243   1.050   4.423   4.151
 2228SOL    HW1 7244   1.065   4.416   4.245
 2228SOL    HW2 7245   0.968   4.376   4.136
 2229SOL     OW 7246   0.073   4.510   4.536
 2229SOL    HW1 7247   0.156   4.515   4.584
 2229SOL    HW2 7248   0.058   4.599   4.504
 2230SOL     OW 7249   0.890   4.071   3.918
 2230SOL    HW1 7250   0.931   4.133   3.858
 2230SOL    HW2 7251   0.907   3.985   3.881
 2231SOL     OW 7252   1.710   4.300   5.552
 2231SOL    HW1 7253   1.672   4.375   5.506
 2231SOL    HW2 7254   1.736   4.239   5.482
 2232SOL     OW 7255   1.376   4.864   4.264
 2232SOL    HW1 7256   1.457   4.850   4.215
 2232SOL    HW2 7257   1.325   4.925   4.211
 2233SOL     OW 7258   0.554   3.908   4.617
 2233SOL    HW1 7259   0.552   3.935   4.708
 2233SOL    HW2 7260   0.551   3.990   4.567
 2234SOL     OW 7261   1.024   5.171   4.193
 2234SOL    HW1 7262   0.946   5.225   4.184
 2234SOL    HW2 7263   1.037   5.162   4.288
 2235SOL     OW 7264   1.799   4.782   4.590
 2235SOL    HW1 7265   1.742   4.766   4.515
 2235SOL    HW2 7266   1.740   4.789   4.665
 2236SOL     OW 7267   1.249   5.239   5.246
 2236SOL    HW1 7268   1.213   5.173   5.305
 2236SOL    HW2 7269   1.180   5.256   5.183
 2237SOL     OW 7270   0.317   4.676   3.970
 2237SOL    HW1 7271   0.399   4.699   3.927
 2237SOL    HW2 7272   0.293   4.591   3.933
 2238SOL     OW 7273   1.476   4.464   4.452
 2238SOL    HW1 7274   1.467   4.420   4.536
 2238SOL    HW2 7275   1.554   4.520   4.463
 2239SOL     OW 7276   0.463   4.988   5.465
 2239SOL    HW1 7277   0.437   4.991   5.373
 2239SOL    HW2 7278   0.381   4.987   5.514
 2240SOL     OW 7279   1.074   0.183   3.933
 2240SOL    HW1 7280   1.076   0.109   3.994
 2240SOL    HW2 7281   1.113   0.150   3.853
 2241SOL     OW 7282   0.204   4.007   5.221
 2241SOL    HW1 7283   0.125   4.058   5.206
 2241SOL    HW2 7284   0.175   3.931   5.271
 2242SOL     OW 7285   1.624   5.099   3.829
 2242SOL    HW1 7286   1.616   5.179   3.777
 2242SOL    HW2 7287   1.555   5.042   3.796
 2243SOL     OW 7288   1.401   3.832   4.155
 2243SOL    HW1 7289   1.390   3.807   4.063
 2243SOL    HW2 7290   1.496   3.838   4.167
 2244SOL     OW 7291   0.386   4.420   4.203
 2244SOL    HW1 7292   0.415   4.329   4.212
 2244SOL    HW2 7293   0.293   4.417   4.224
 2245SOL     OW 7294   1.537   3.949   5.449
 2245SOL    HW1 7295   1.546   3.971   5.542
 2245SOL    HW2 7296   1.468   3.884   5.446
 2246SOL     OW 7297   0.630   3.848   3.831
 2246SOL    HW1 7298   0.704   3.788   3.841
 2246SOL    HW2 7299   0.584   3.816   3.753
 2247SOL     OW 7300   0.768   4.001   5.477
 2247SOL    HW1 7301   0.841   3.940   5.482
 2247SOL    HW2 7302   0.717   3.984   5.556
 2248SOL     OW 7303   1.341   4.312   5.156
 2248SOL    HW1 7304   1.372   4.281   5.241
 2248SOL    HW2 7305   1.377   4.401   5.148
 2249SOL     OW 7306   0.812   5.122   4.658
 2249SOL    HW1 7307   0.892   5.106   4.609
 2249SOL    HW2 7308   0.744   5.127   4.591
 2250SOL     OW 7309   0.928   4.233   4.627
 2250SOL    HW1 7310   0.904   4.225   4.535
 2250SOL    HW2 7311   0.959   4.147   4.652
 2251SOL     OW 7312   0.559   3.785   4.221
 2251SOL    HW1 7313   0.484   3.786   4.281
 2251SOL    HW2 7314   0.549   3.865   4.170
 2252SOL     OW 7315   1.428   4.923   3.763
 2252SOL    HW1 7316   1.459   4.848   3.813
 2252SOL    HW2 7317   1.340   4.940   3.798
 2253SOL     OW 7318   0.305   3.771   3.904
 2253SOL    HW1 7319   0.366   3.834   3.869
 2253SOL    HW2 7320   0.360   3.706   3.948
 2254SOL     OW 7321   0.938   3.969   4.186
 2254SOL    HW1 7322   0.910   4.012   4.105
 2254SOL    HW2 7323   1.033   3.983   4.188
 2255SOL     OW 7324   1.080   4.404   5.184
 2255SOL    HW1 7325   1.010   4.339   5.189
 2255SOL    HW2 7326   1.160   4.352   5.176
 2256SOL     OW 7327   1.264   5.268   4.503
 2256SOL    HW1 7328   1.225   0.050   4.473
 2256SOL    HW2 7329   1.306   5.291   4.586
 2257SOL     OW 7330   0.465   4.873   4.455
 2257SOL    HW1 7331   0.396   4.853   4.519
 2257SOL    HW2 7332   0.425   4.852   4.370
 2258SOL     OW 7333   1.024   4.268   3.745
 2258SOL    HW1 7334   0.983   4.351   3.724
 2258SOL    HW2 7335   1.089   4.289   3.812
 2259SOL     OW 7336   0.086   4.271   5.121
 2259SOL    HW1 7337   0.174   4.277   5.084
 2259SOL    HW2 7338   0.078   4.346   5.179
 2260SOL     OW 7339   0.561   3.951   4.889
 2260SOL    HW1 7340   0.598   3.870   4.925
 2260SOL    HW2 7341   0.469   3.950   4.917
 2261SOL     OW 7342   0.869   4.183   4.364
 2261SOL    HW1 7343   0.822   4.237   4.300
 2261SOL    HW2 7344   0.889   4.102   4.317
 2262SOL     OW 7345   1.015   3.777   4.476
 2262SOL    HW1 7346   0.956   3.769   4.401
 2262SOL    HW2 7347   0.994   3.701   4.531
 2263SOL     OW 7348   1.436   4.889   4.583
 2263SOL    HW1 7349   1.370   4.820   4.579
 2263SOL    HW2 7350   1.461   4.904   4.492
 2264SOL     OW 7351   1.467   4.327   4.703
 2264SOL    HW1 7352   1.418   4.245   4.707
 2264SOL    HW2 7353   1.527   4.323   4.777
 2265SOL     OW 7354   1.847   4.541   4.106
 2265SOL    HW1 7355   1.903   4.489   4.164
 2265SOL    HW2 7356   1.818   4.479   4.039
 2266SOL     OW 7357   0.485   5.141   3.881
 2266SOL    HW1 7358   0.420   5.092   3.931
 2266SOL    HW2 7359   0.477   5.107   3.792
 2267SOL     OW 7360   1.668   4.987   4.372
 2267SOL    HW1 7361   1.762   4.994   4.389
 2267SOL    HW2 7362   1.634   5.075   4.389
 2268SOL     OW 7363   1.394   4.296   3.795
 2268SOL    HW1 7364   1.333   4.277   3.867
 2268SOL    HW2 7365   1.478   4.263   3.826
 2269SOL     OW 7366   0.524   3.987   4.043
 2269SOL    HW1 7367   0.567   3.939   3.973
 2269SOL    HW2 7368   0.504   4.073   4.005
 2270SOL     OW 7369   1.752   4.959   5.302
 2270SOL    HW1 7370   1.839   4.918   5.301
 2270SOL    HW2 7371   1.770   5.052   5.317
 2271SOL     OW 7372   1.065   5.076   5.056
 2271SOL    HW1 7373   0.987   5.049   5.105
 2271SOL    HW2 7374   1.137   5.035   5.104
 2272SOL     OW 7375   1.125   4.925   4.832
 2272SOL    HW1 7376   1.073   4.966   4.901
 2272SOL    HW2 7377   1.081   4.952   4.751
 2273SOL     OW 7378   1.630   4.823   4.801
 2273SOL    HW1 7379   1.626   4.885   4.875
 2273SOL    HW2 7380   1.551   4.840   4.751
 2274SOL     OW 7381   0.919   3.821   5.123
 2274SOL    HW1 7382   0.940   3.803   5.031
 2274SOL    HW2 7383   0.998   3.861   5.159
 2275SOL     OW 7384   0.984   4.839   5.448
 2275SOL    HW1 7385   0.892   4.854   5.466
 2275SOL    HW2 7386   0.985   4.762   5.391
 2276SOL     OW 7387   0.703   4.780   4.097
 2276SOL    HW1 7388   0.694   4.767   4.192
 2276SOL    HW2 7389   0.782   4.730   4.074
 2277SOL     OW 7390   0.421   4.541   4.975
 2277SOL    HW1 7391   0.489   4.548   5.041
 2277SOL    HW2 7392   0.384   4.453   4.986
 2278SOL     OW 7393   1.266   4.102   4.998
 2278SOL    HW1 7394   1.299   4.179   5.044
 2278SOL    HW2 7395   1.176   4.124   4.973
 2279SOL     OW 7396   0.114   5.289   5.043
 2279SOL    HW1 7397   0.053   0.053   5.079
 2279SOL    HW2 7398   0.190   5.292   5.100
 2280SOL     OW 7399   0.345   4.827   4.212
 2280SOL    HW1 7400   0.354   4.905   4.159
 2280SOL    HW2 7401   0.355   4.754   4.151
 2281SOL     OW 7402   0.556   4.261   4.583
 2281SOL    HW1 7403   0.572   4.319   4.509
 2281SOL    HW2 7404   0.619   4.289   4.650
 2282SOL     OW 7405   1.259   5.075   4.110
 2282SOL    HW1 7406   1.315   5.143   4.148
 2282SOL    HW2 7407   1.171   5.097   4.139
 2283SOL     OW 7408   1.268   5.181   4.866
 2283SOL    HW1 7409   1.327   5.194   4.940
 2283SOL    HW2 7410   1.223   5.098   4.884
 2284SOL     OW 7411   1.582   4.348   4.201
 2284SOL    HW1 7412   1.537   4.404   4.265
 2284SOL    HW2 7413   1.628   4.410   4.144
 2285SOL     OW 7414   0.380   5.232   5.041
 2285SOL    HW1 7415   0.361   5.192   4.956
 2285SOL    HW2 7416   0.473   5.256   5.036
 2286SOL     OW 7417   0.412   4.467   5.326
 2286SOL    HW1 7418   0.472   4.513   5.268
 2286SOL    HW2 7419   0.453   4.381   5.339
 2287SOL     OW 7420   1.599   4.502   5.405
 2287SOL    HW1 7421   1.513   4.542   5.397
 2287SOL    HW2 7422   1.651   4.544   5.336
 2288SOL     OW 7423   0.996   3.844   5.480
 2288SOL    HW1 7424   1.049   3.917   5.449
 2288SOL    HW2 7425   1.045   3.766   5.454
 2289SOL     OW 7426   0.498   3.767   5.471
 2289SOL    HW1 7427   0.457   3.712   5.404
 2289SOL    HW2 7428   0.437   3.840   5.483
 2290SOL     OW 7429   0.585   4.597   4.756
 2290SOL    HW1 7430   0.613   4.688   4.753
 2290SOL    HW2 7431   0.528   4.591   4.832
 2291SOL     OW 7432   1.359   4.582   4.755
 2291SOL    HW1 7433   1.277   4.574   4.707
 2291SOL    HW2 7434   1.398   4.495   4.752
 2292SOL     OW 7435   1.206   4.253   3.992
 2292SOL    HW1 7436   1.214   4.174   4.047
 2292SOL    HW2 7437   1.164   4.317   4.049
 2293SOL     OW 7438   0.302   3.928   4.972
 2293SOL    HW1 7439   0.267   3.953   5.057
 2293SOL    HW2 7440   0.288   3.833   4.968
 2294SOL     OW 7441   0.046   5.022   5.001
 2294SOL    HW1 7442   0.076   4.972   5.077
 2294SOL    HW2 7443   0.045   5.113   5.031
 2295SOL     OW 7444   0.726   4.356   4.784
 2295SOL    HW1 7445   0.799   4.339   4.724
 2295SOL    HW2 7446   0.697   4.445   4.762
 2296SOL     OW 7447   1.734   4.683   5.575
 2296SOL    HW1 7448   1.687   4.625   5.516
 2296SOL    HW2 7449   1.674   4.696   5.649
 2297SOL     OW 7450   0.328   3.786   4.359
 2297SOL    HW1 7451   0.306   3.875   4.386
 2297SOL    HW2 7452   0.330   3.735   4.440
 2298SOL     OW 7453   1.614   4.097   4.092
 2298SOL    HW1 7454   1.642   4.033   4.159
 2298SOL    HW2 7455   1.592   4.175   4.142
 2299SOL     OW 7456   1.027   4.483   4.686
 2299SOL    HW1 7457   1.026   4.501   4.780
 2299SOL    HW2 7458   1.001   4.392   4.678
 2300SOL     OW 7459   1.855   5.215   5.311
 2300SOL    HW1 7460   1.853   5.287   5.249
 2300SOL    HW2 7461   1.924   5.238   5.373
 2301SOL     OW 7462   0.354   4.642   5.530
 2301SOL    HW1 7463   0.435   4.660   5.577
 2301SOL    HW2 7464   0.378   4.577   5.464
 2302SOL     OW 7465   1.530   3.997   3.851
 2302SOL    HW1 7466   1.466   3.932   3.878
 2302SOL    HW2 7467   1.563   4.033   3.934
 2303SOL     OW 7468   1.294   4.551   3.756
 2303SOL    HW1 7469   1.336   4.465   3.759
 2303SOL    HW2 7470   1.324   4.590   3.674
 2304SOL     OW 7471   1.059   5.076   4.554
 2304SOL    HW1 7472   1.064   4.992   4.509
 2304SOL    HW2 7473   1.145   5.116   4.539
 2305SOL     OW 7474   0.315   4.534   4.673
 2305SOL    HW1 7475   0.410   4.552   4.670
 2305SOL    HW2 7476   0.309   4.445   4.707
 2306SOL     OW 7477   0.336   4.249   4.738
 2306SOL    HW1 7478   0.300   4.161   4.724
 2306SOL    HW2 7479   0.410   4.254   4.678
 2307SOL     OW 7480   1.134   4.101   5.405
 2307SOL    HW1 7481   1.088   4.156   5.467
 2307SOL    HW2 7482   1.222   4.139   5.401
 2308SOL     OW 7483   1.161   3.928   5.194
 2308SOL    HW1 7484   1.151   3.990   5.266
 2308SOL    HW2 7485   1.199   3.979   5.122
 2309SOL     OW 7486   0.003   5.050   3.932
 2309SOL    HW1 7487   5.224   5.042   3.879
 2309SOL    HW2 7488   0.013   4.964   3.972
 2310SOL     OW 7489   0.986   4.517   4.952
 2310SOL    HW1 7490   1.040   4.493   5.027
 2310SOL    HW2 7491   0.900   4.480   4.971
 2311SOL     OW 7492   0.034   4.281   4.838
 2311SOL    HW1 7493   0.121   4.256   4.806
 2311SOL    HW2 7494   0.038   4.266   4.933
 2312SOL     OW 7495   0.176   4.236   5.436
 2312SOL    HW1 7496   0.242   4.203   5.377
 2312SOL    HW2 7497   0.145   4.317   5.395
 2313SOL     OW 7498   1.376   4.664   5.383
 2313SOL    HW1 7499   1.396   4.758   5.381
 2313SOL    HW2 7500   1.373   4.639   5.291
 2314SOL     OW 7501   0.816   4.293   4.081
 2314SOL    HW1 7502   0.819   4.218   4.022
 2314SOL    HW2 7503   0.741   4.344   4.050
 2315SOL     OW 7504   1.643   4.325   4.912
 2315SOL    HW1 7505   1.631   4.266   4.986
 2315SOL    HW2 7506   1.729   4.305   4.877
 2316SOL     OW 7507   0.211   5.280   5.456
 2316SOL    HW1 7508   0.182   0.024   5.536
 2316SOL    HW2 7509   0.214   5.188   5.480
 2317SOL     OW 7510   0.698   4.176   4.986
 2317SOL    HW1 7511   0.646   4.101   4.955
 2317SOL    HW2 7512   0.695   4.238   4.913
 2318SOL     OW 7513   0.466   4.217   3.911
 2318SOL    HW1 7514   0.525   4.290   3.931
 2318SOL    HW2 7515   0.380   4.258   3.901
 2319SOL     OW 7516   0.152   4.862   5.196
 2319SOL    HW1 7517   0.149   4.811   5.277
 2319SOL    HW2 7518   0.163   4.796   5.127
 2320SOL     OW 7519   1.329   4.771   4.948
 2320SOL    HW1 7520   1.352   4.709   4.879
 2320SOL    HW2 7521   1.256   4.822   4.911
 2321SOL     OW 7522   1.309   4.581   4.031
 2321SOL    HW1 7523   1.233   4.550   4.080
 2321SOL    HW2 7524   1.286   4.567   3.939
 2322SOL     OW 7525   0.077   4.924   4.753
 2322SOL    HW1 7526   0.066   4.962   4.840
 2322SOL    HW2 7527   5.290   4.928   4.714
 2323SOL     OW 7528   0.750   0.041   5.433
 2323SOL    HW1 7529   0.657   0.064   5.442
 2323SOL    HW2 7530   0.770   0.061   5.342
 2324SOL     OW 7531   1.719   3.868   4.235
 2324SOL    HW1 7532   1.792   3.854   4.175
 2324SOL    HW2 7533   1.703   3.783   4.275
 2325SOL     OW 7534   1.277   4.649   4.395
 2325SOL    HW1 7535   1.350   4.587   4.401
 2325SOL    HW2 7536   1.311   4.721   4.343
 2326SOL     OW 7537   0.820   4.994   5.148
 2326SOL    HW1 7538   0.792   5.030   5.232
 2326SOL    HW2 7539   0.744   5.004   5.091
 2327SOL     OW 7540   1.840   3.897   4.691
 2327SOL    HW1 7541   1.869   3.810   4.663
 2327SOL    HW2 7542   1.754   3.908   4.652
 2328SOL     OW 7543   0.272   4.041   4.442
 2328SOL    HW1 7544   0.188   4.081   4.420
 2328SOL    HW2 7545   0.269   4.030   4.537
 2329SOL     OW 7546   0.825   4.728   5.095
 2329SOL    HW1 7547   0.869   4.723   5.010
 2329SOL    HW2 7548   0.828   4.821   5.118
 2330SOL     OW 7549   0.915   4.635   4.014
 2330SOL    HW1 7550   0.977   4.667   3.948
 2330SOL    HW2 7551   0.962   4.565   4.058
 2331SOL     OW 7552   0.366   5.027   5.223
 2331SOL    HW1 7553   0.364   5.099   5.159
 2331SOL    HW2 7554   0.291   4.972   5.200
 2332SOL     OW 7555   1.613   5.004   5.006
 2332SOL    HW1 7556   1.670   4.999   5.083
 2332SOL    HW2 7557   1.551   5.074   5.027
 2333SOL     OW 7558   1.051   4.832   4.433
 2333SOL    HW1 7559   0.980   4.781   4.471
 2333SOL    HW2 7560   1.112   4.766   4.399
 2334SOL     OW 7561   1.021   3.964   4.690
 2334SOL    HW1 7562   1.015   3.916   4.607
 2334SOL    HW2 7563   1.015   3.897   4.757
 2335SOL     OW 7564   1.720   4.115   5.104
 2335SOL    HW1 7565   1.792   4.179   5.103
 2335SOL    HW2 7566   1.751   4.044   5.048
 2336SOL     OW 7567   0.259   5.061   4.009
 2336SOL    HW1 7568   0.166   5.064   3.985
 2336SOL    HW2 7569   0.262   5.097   4.097
 2337SOL     OW 7570   0.115   4.741   5.444
 2337SOL    HW1 7571   0.043   4.704   5.495
 2337SOL    HW2 7572   0.194   4.708   5.486
 2338SOL     OW 7573   0.673   3.920   5.223
 2338SOL    HW1 7574   0.757   3.901   5.181
 2338SOL    HW2 7575   0.697   3.950   5.310
 2339SOL     OW 7576   0.080   4.076   3.765
 2339SOL    HW1 7577   0.001   4.027   3.741
 2339SOL    HW2 7578   0.097   4.132   3.690
 2340SOL     OW 7579   1.431   4.582   5.125
 2340SOL    HW1 7580   1.383   4.642   5.069
 2340SOL    HW2 7581   1.521   4.585   5.092
 2341SOL     OW 7582   0.055   3.858   3.967
 2341SOL    HW1 7583   0.054   3.953   3.963
 2341SOL    HW2 7584   0.146   3.833   3.948
 2342SOL     OW 7585   1.182   5.065   3.844
 2342SOL    HW1 7586   1.091   5.037   3.844
 2342SOL    HW2 7587   1.210   5.057   3.935
 2343SOL     OW 7588   0.619   4.555   5.159
 2343SOL    HW1 7589   0.675   4.631   5.142
 2343SOL    HW2 7590   0.679   4.482   5.166
 2344SOL     OW 7591   0.717   4.289   5.430
 2344SOL    HW1 7592   0.756   4.352   5.490
 2344SOL    HW2 7593   0.749   4.204   5.460
 2345SOL     OW 7594   1.472   4.925   5.356
 2345SOL    HW1 7595   1.458   4.937   5.450
 2345SOL    HW2 7596   1.566   4.938   5.343
 2346SOL     OW 7597   1.671   4.606   4.979
 2346SOL    HW1 7598   1.663   4.521   4.936
 2346SOL    HW2 7599   1.661   4.669   4.908
 2347SOL     OW 7600   1.218   4.043   4.181
 2347SOL    HW1 7601   1.281   3.972   4.173
 2347SOL    HW2 7602   1.247   4.092   4.259
 2348SOL     OW 7603   0.592   4.463   4.392
 2348SOL    HW1 7604   0.630   4.549   4.376
 2348SOL    HW2 7605   0.521   4.456   4.327
 2349SOL     OW 7606   1.765   4.083   5.373
 2349SOL    HW1 7607   1.747   4.098   5.280
 2349SOL    HW2 7608   1.693   4.028   5.403
 2350SOL     OW 7609   1.744   4.657   5.236
 2350SOL    HW1 7610   1.743   4.752   5.250
 2350SOL    HW2 7611   1.729   4.646   5.143
 2351SOL     OW 7612   0.850   5.095   3.743
 2351SOL    HW1 7613   0.829   5.096   3.836
 2351SOL    HW2 7614   0.870   5.186   3.721
 2352SOL     OW 7615   0.867   4.690   4.579
 2352SOL    HW1 7616   0.917   4.619   4.620
 2352SOL    HW2 7617   0.833   4.741   4.653
 2353SOL     OW 7618   1.080   4.713   3.813
 2353SOL    HW1 7619   1.058   4.762   3.734
 2353SOL    HW2 7620   1.155   4.659   3.787
 2354SOL     OW 7621   0.221   5.027   5.578
 2354SOL    HW1 7622   0.155   4.961   5.558
 2354SOL    HW2 7623   0.216   5.038   5.673
 2355SOL     OW 7624   0.081   4.933   4.380
 2355SOL    HW1 7625   0.098   4.910   4.471
 2355SOL    HW2 7626   0.167   4.935   4.338
 2356SOL     OW 7627   0.669   5.109   5.333
 2356SOL    HW1 7628   0.594   5.073   5.380
 2356SOL    HW2 7629   0.699   5.182   5.388
 2357SOL     OW 7630   1.815   3.908   4.962
 2357SOL    HW1 7631   1.821   3.814   4.976
 2357SOL    HW2 7632   1.823   3.919   4.867
 2358SOL     OW 7633   0.434   4.159   4.248
 2358SOL    HW1 7634   0.461   4.087   4.192
 2358SOL    HW2 7635   0.387   4.118   4.320
 2359SOL     OW 7636   1.707   5.222   4.843
 2359SOL    HW1 7637   1.633   5.206   4.785
 2359SOL    HW2 7638   1.714   5.143   4.896
 2360SOL     OW 7639   0.335   4.282   5.015
 2360SOL    HW1 7640   0.387   4.222   5.068
 2360SOL    HW2 7641   0.349   4.252   4.925
 2361SOL     OW 7642   1.432   3.949   4.842
 2361SOL    HW1 7643   1.458   3.869   4.889
 2361SOL    HW2 7644   1.380   3.997   4.906
 2362SOL     OW 7645   1.009   3.744   4.868
 2362SOL    HW1 7646   0.954   3.676   4.829
 2362SOL    HW2 7647   1.096   3.706   4.870
 2363SOL     OW 7648   0.802   5.047   4.008
 2363SOL    HW1 7649   0.738   4.978   4.027
 2363SOL    HW2 7650   0.855   5.052   4.087
 2364SOL     OW 7651   0.637   0.002   5.009
 2364SOL    HW1 7652   0.642   0.057   5.087
 2364SOL    HW2 7653   0.728   5.284   4.987
 2365SOL     OW 7654   1.352   3.778   3.888
 2365SOL    HW1 7655   1.378   3.717   3.819
 2365SOL    HW2 7656   1.265   3.747   3.915
 2366SOL     OW 7657   1.297   4.184   4.406
 2366SOL    HW1 7658   1.243   4.263   4.414
 2366SOL    HW2 7659   1.294   4.144   4.493
 2367SOL     OW 7660   1.588   3.928   4.601
 2367SOL    HW1 7661   1.524   3.947   4.670
 2367SOL    HW2 7662   1.587   4.007   4.546
 2368SOL     OW 7663   0.046   4.792   4.014
 2368SOL    HW1 7664   0.137   4.762   4.005
 2368SOL    HW2 7665   0.000   4.716   4.050
 2369SOL     OW 7666   0.233   4.357   5.701
 2369SOL    HW1 7667   0.157   4.328   5.751
 2369SOL    HW2 7668   0.221   4.320   5.614
 2370SOL     OW 7669   0.240   4.000   6.577
 2370SOL    HW1 7670   0.255   3.966   6.665
 2370SOL    HW2 7671   0.157   3.961   6.550
 2371SOL     OW 7672   5.299   4.120   6.238
 2371SOL    HW1 7673   5.206   4.143   6.246
 2371SOL    HW2 7674   5.299   4.029   6.208
 2372SOL     OW 7675   0.571   4.998   6.767
 2372SOL    HW1 7676   0.492   5.005   6.713
 2372SOL    HW2 7677   0.590   5.088   6.794
 2373SOL     OW 7678   1.554   5.232   6.275
 2373SOL    HW1 7679   1.531   5.229   6.368
 2373SOL    HW2 7680   1.476   5.267   6.232
 2374SOL     OW 7681   1.129   4.423   6.288
 2374SOL    HW1 7682   1.179   4.503   6.274
 2374SOL    HW2 7683   1.083   4.437   6.371
 2375SOL     OW 7684   1.765   4.330   5.816
 2375SOL    HW1 7685   1.745   4.322   5.722
 2375SOL    HW2 7686   1.730   4.251   5.855
 2376SOL     OW 7687   0.760   4.869   6.622
 2376SOL    HW1 7688   0.691   4.898   6.682
 2376SOL    HW2 7689   0.787   4.949   6.577
 2377SOL     OW 7690   0.863   4.504   7.406
 2377SOL    HW1 7691   0.850   4.580   7.464
 2377SOL    HW2 7692   0.889   4.543   7.322
 2378SOL     OW 7693   0.686   4.729   6.235
 2378SOL    HW1 7694   0.751   4.716   6.304
 2378SOL    HW2 7695   0.618   4.782   6.276
 2379SOL     OW 7696   0.707   4.874   7.397
 2379SOL    HW1 7697   0.756   4.953   7.419
 2379SOL    HW2 7698   0.624   4.906   7.362
 2380SOL     OW 7699   0.376   5.144   6.639
 2380SOL    HW1 7700   0.281   5.151   6.625
 2380SOL    HW2 7701   0.413   5.202   6.572
 2381SOL     OW 7702   1.456   5.220   6.932
 2381SOL    HW1 7703   1.508   5.293   6.964
 2381SOL    HW2 7704   1.390   5.206   7.000
 2382SOL     OW 7705   0.450   4.125   7.082
 2382SOL    HW1 7706   0.524   4.064   7.082
 2382SOL    HW2 7707   0.372   4.068   7.089
 2383SOL     OW 7708   1.613   4.173   6.325
 2383SOL    HW1 7709   1.537   4.197   6.272
 2383SOL    HW2 7710   1.631   4.250   6.379
 2384SOL     OW 7711   1.133   5.071   7.284
 2384SOL    HW1 7712   1.166   5.070   7.373
 2384SOL    HW2 7713   1.079   4.992   7.277
 2385SOL     OW 7714   0.212   5.151   6.116
 2385SOL    HW1 7715   0.248   5.232   6.151
 2385SOL    HW2 7716   0.135   5.133   6.170
 2386SOL     OW 7717   0.251   4.801   6.462
 2386SOL    HW1 7718   0.262   4.715   6.503
 2386SOL    HW2 7719   0.196   4.850   6.523
 2387SOL     OW 7720   0.585   4.706   5.719
 2387SOL    HW1 7721   0.631   4.755   5.651
 2387SOL    HW2 7722   0.627   4.734   5.801
 2388SOL     OW 7723   1.596   3.846   7.055
 2388SOL    HW1 7724   1.598   3.926   7.003
 2388SOL    HW2 7725   1.584   3.876   7.145
 2389SOL     OW 7726   0.126   4.358   6.163
 2389SOL    HW1 7727   0.088   4.275   6.193
 2389SOL    HW2 7728   0.099   4.422   6.229
 2390SOL     OW 7729   5.300   0.000   5.669
 2390SOL    HW1 7730   0.018   5.213   5.703
 2390SOL    HW2 7731   0.025   0.059   5.740
 2391SOL     OW 7732   1.689   4.642   6.224
 2391SOL    HW1 7733   1.774   4.602   6.206
 2391SOL    HW2 7734   1.668   4.693   6.146
 2392SOL     OW 7735   1.645   4.832   6.016
 2392SOL    HW1 7736   1.730   4.838   5.972
 2392SOL    HW2 7737   1.651   4.892   6.090
 2393SOL     OW 7738   0.129   4.470   7.175
 2393SOL    HW1 7739   0.223   4.484   7.178
 2393SOL    HW2 7740   0.091   4.557   7.184
 2394SOL     OW 7741   0.626   5.095   6.319
 2394SOL    HW1 7742   0.568   5.018   6.321
 2394SOL    HW2 7743   0.599   5.142   6.240
 2395SOL     OW 7744   1.289   4.956   7.012
 2395SOL    HW1 7745   1.324   4.890   6.951
 2395SOL    HW2 7746   1.348   4.952   7.087
 2396SOL     OW 7747   0.820   3.722   6.094
 2396SOL    HW1 7748   0.860   3.807   6.076
 2396SOL    HW2 7749   0.727   3.741   6.101
 2397SOL     OW 7750   0.179   4.671   6.866
 2397SOL    HW1 7751   0.269   4.641   6.852
 2397SOL    HW2 7752   0.134   4.650   6.784
 2398SOL     OW 7753   1.531   4.717   5.782
 2398SOL    HW1 7754   1.462   4.659   5.813
 2398SOL    HW2 7755   1.572   4.751   5.862
 2399SOL     OW 7756   0.333   3.976   7.398
 2399SOL    HW1 7757   0.383   4.057   7.410
 2399SOL    HW2 7758   0.247   3.995   7.435
 2400SOL     OW 7759   1.475   5.146   6.548
 2400SOL    HW1 7760   1.402   5.158   6.609
 2400SOL    HW2 7761   1.462   5.057   6.514
 2401SOL     OW 7762   0.596   4.446   5.851
 2401SOL    HW1 7763   0.604   4.526   5.799
 2401SOL    HW2 7764   0.531   4.468   5.918
 2402SOL     OW 7765   1.280   4.074   6.518
 2402SOL    HW1 7766   1.190   4.041   6.526
 2402SOL    HW2 7767   1.330   4.021   6.580
 2403SOL     OW 7768   0.792   4.341   7.039
 2403SOL    HW1 7769   0.765   4.318   7.128
 2403SOL    HW2 7770   0.751   4.275   6.983
 2404SOL     OW 7771   1.394   4.198   7.263
 2404SOL    HW1 7772   1.395   4.242   7.348
 2404SOL    HW2 7773   1.456   4.126   7.273
 2405SOL     OW 7774   0.957   4.612   7.167
 2405SOL    HW1 7775   1.011   4.541   7.133
 2405SOL    HW2 7776   0.909   4.645   7.091
 2406SOL     OW 7777   0.992   4.137   6.825
 2406SOL    HW1 7778   0.908   4.159   6.865
 2406SOL    HW2 7779   0.970   4.089   6.746
 2407SOL     OW 7780   1.050   4.423   6.013
 2407SOL    HW1 7781   1.065   4.416   6.107
 2407SOL    HW2 7782   0.968   4.376   5.998
 2408SOL     OW 7783   0.073   4.510   6.398
 2408SOL    HW1 7784   0.156   4.515   6.446
 2408SOL    HW2 7785   0.058   4.598   6.365
 2409SOL     OW 7786   0.890   4.071   5.780
 2409SOL    HW1 7787   0.931   4.133   5.720
 2409SOL    HW2 7788   0.907   3.985   5.743
 2410SOL     OW 7789   1.710   4.301   7.415
 2410SOL    HW1 7790   1.672   4.376   7.368
 2410SOL    HW2 7791   1.735   4.240   7.346
 2411SOL     OW 7792   1.376   4.864   6.126
 2411SOL    HW1 7793   1.457   4.850   6.077
 2411SOL    HW2 7794   1.325   4.925   6.073
 2412SOL     OW 7795   0.554   3.908   6.479
 2412SOL    HW1 7796   0.552   3.935   6.570
 2412SOL    HW2 7797   0.551   3.990   6.429
 2413SOL     OW 7798   1.024   5.171   6.055
 2413SOL    HW1 7799   0.946   5.225   6.046
 2413SOL    HW2 7800   1.037   5.162   6.150
 2414SOL     OW 7801   1.799   4.782   6.452
 2414SOL    HW1 7802   1.742   4.766   6.378
 2414SOL    HW2 7803   1.740   4.789   6.527
 2415SOL     OW 7804   1.249   5.240   7.109
 2415SOL    HW1 7805   1.213   5.173   7.167
 2415SOL    HW2 7806   1.180   5.256   7.045
 2416SOL     OW 7807   0.317   4.676   5.832
 2416SOL    HW1 7808   0.399   4.699   5.789
 2416SOL    HW2 7809   0.293   4.591   5.795
 2417SOL     OW 7810   1.476   4.464   6.314
 2417SOL    HW1 7811   1.467   4.420   6.398
 2417SOL    HW2 7812   1.554   4.519   6.325
 2418SOL     OW 7813   0.463   4.988   7.328
 2418SOL    HW1 7814   0.436   4.991   7.236
 2418SOL    HW2 7815   0.380   4.987   7.376
 2419SOL     OW 7816   1.074   0.183   5.795
 2419SOL    HW1 7817   1.077   0.109   5.856
 2419SOL    HW2 7818   1.113   0.150   5.715
 2420SOL     OW 7819   0.204   4.007   7.084
 2420SOL    HW1 7820   0.124   4.056   7.067
 2420SOL    HW2 7821   0.175   3.929   7.132
 2421SOL     OW 7822   1.624   5.099   5.691
 2421SOL    HW1 7823   1.616   5.179   5.639
 2421SOL    HW2 7824   1.555   5.042   5.658
 2422SOL     OW 7825   1.401   3.832   6.017
 2422SOL    HW1 7826   1.390   3.807   5.925
 2422SOL    HW2 7827   1.496   3.839   6.029
 2423SOL     OW 7828   0.386   4.420   6.065
 2423SOL    HW1 7829   0.415   4.329   6.074
 2423SOL    HW2 7830   0.293   4.417   6.086
 2424SOL     OW 7831   1.537   3.950   7.312
 2424SOL    HW1 7832   1.545   3.971   7.405
 2424SOL    HW2 7833   1.469   3.882   7.308
 2425SOL     OW 7834   0.630   3.848   5.693
 2425SOL    HW1 7835   0.704   3.788   5.703
 2425SOL    HW2 7836   0.584   3.816   5.615
 2426SOL     OW 7837   0.767   4.000   7.338
 2426SOL    HW1 7838   0.842   3.940   7.343
 2426SOL    HW2 7839   0.722   3.989   7.422
 2427SOL     OW 7840   1.341   4.313   7.018
 2427SOL    HW1 7841   1.372   4.281   7.103
 2427SOL    HW2 7842   1.377   4.401   7.011
 2428SOL     OW 7843   0.812   5.122   6.520
 2428SOL    HW1 7844   0.892   5.106   6.471
 2428SOL    HW2 7845   0.743   5.127   6.453
 2429SOL     OW 7846   0.927   4.233   6.489
 2429SOL    HW1 7847   0.904   4.225   6.397
 2429SOL    HW2 7848   0.959   4.147   6.514
 2430SOL     OW 7849   0.559   3.785   6.083
 2430SOL    HW1 7850   0.484   3.786   6.143
 2430SOL    HW2 7851   0.549   3.865   6.032
 2431SOL     OW 7852   1.428   4.923   5.625
 2431SOL    HW1 7853   1.459   4.848   5.675
 2431SOL    HW2 7854   1.340   4.940   5.660
 2432SOL     OW 7855   0.305   3.771   5.766
 2432SOL    HW1 7856   0.366   3.834   5.731
 2432SOL    HW2 7857   0.360   3.705   5.810
 2433SOL     OW 7858   0.938   3.969   6.048
 2433SOL    HW1 7859   0.910   4.012   5.967
 2433SOL    HW2 7860   1.033   3.983   6.051
 2434SOL     OW 7861   1.079   4.404   7.046
 2434SOL    HW1 7862   1.010   4.338   7.051
 2434SOL    HW2 7863   1.160   4.353   7.039
 2435SOL     OW 7864   1.264   5.268   6.366
 2435SOL    HW1 7865   1.226   0.050   6.335
 2435SOL    HW2 7866   1.307   5.291   6.448
 2436SOL     OW 7867   0.465   4.873   6.317
 2436SOL    HW1 7868   0.396   4.853   6.381
 2436SOL    HW2 7869   0.425   4.852   6.232
 2437SOL     OW 7870   1.024   4.268   5.607
 2437SOL    HW1 7871   0.983   4.351   5.586
 2437SOL    HW2 7872   1.089   4.289   5.674
 2438SOL     OW 7873   0.086   4.270   6.984
 2438SOL    HW1 7874   0.174   4.277   6.946
 2438SOL    HW2 7875   0.078   4.346   7.042
 2439SOL     OW 7876   0.561   3.951   6.751
 2439SOL    HW1 7877   0.598   3.871   6.787
 2439SOL    HW2 7878   0.469   3.950   6.779
 2440SOL     OW 7879   0.869   4.183   6.226
 2440SOL    HW1 7880   0.822   4.237   6.162
 2440SOL    HW2 7881   0.889   4.102   6.179
 2441SOL     OW 7882   1.015   3.777   6.338
 2441SOL    HW1 7883   0.956   3.769   6.263
 2441SOL    HW2 7884   0.994   3.701   6.393
 2442SOL     OW 7885   1.436   4.890   6.445
 2442SOL    HW1 7886   1.370   4.820   6.441
 2442SOL    HW2 7887   1.461   4.904   6.354
 2443SOL     OW 7888   1.467   4.327   6.565
 2443SOL    HW1 7889   1.418   4.245   6.569
 2443SOL    HW2 7890   1.527   4.323   6.639
 2444SOL     OW 7891   1.847   4.541   5.968
 2444SOL    HW1 7892   1.902   4.489   6.026
 2444SOL    HW2 7893   1.818   4.479   5.901
 2445SOL     OW 7894   0.485   5.141   5.743
 2445SOL    HW1 7895   0.420   5.092   5.793
 2445SOL    HW2 7896   0.477   5.107   5.654
 2446SOL     OW 7897   1.668   4.987   6.234
 2446SOL    HW1 7898   1.762   4.994   6.251
 2446SOL    HW2 7899   1.634   5.075   6.251
 2447SOL     OW 7900   1.394   4.296   5.657
 2447SOL    HW1 7901   1.333   4.277   5.729
 2447SOL    HW2 7902   1.478   4.263   5.688
 2448SOL     OW 7903   0.524   3.987   5.905
 2448SOL    HW1 7904   0.567   3.939   5.835
 2448SOL    HW2 7905   0.504   4.073   5.867
 2449SOL     OW 7906   1.752   4.959   7.164
 2449SOL    HW1 7907   1.838   4.918   7.162
 2449SOL    HW2 7908   1.769   5.052   7.179
 2450SOL     OW 7909   1.065   5.076   6.918
 2450SOL    HW1 7910   0.987   5.049   6.967
 2450SOL    HW2 7911   1.138   5.035   6.966
 2451SOL     OW 7912   1.125   4.925   6.694
 2451SOL    HW1 7913   1.073   4.966   6.763
 2451SOL    HW2 7914   1.081   4.952   6.613
 2452SOL     OW 7915   1.630   4.823   6.663
 2452SOL    HW1 7916   1.626   4.885   6.737
 2452SOL    HW2 7917   1.551   4.840   6.613
 2453SOL     OW 7918   0.918   3.821   6.984
 2453SOL    HW1 7919   0.940   3.803   6.893
 2453SOL    HW2 7920   0.997   3.861   7.021
 2454SOL     OW 7921   0.984   4.838   7.312
 2454SOL    HW1 7922   0.891   4.854   7.327
 2454SOL    HW2 7923   0.986   4.762   7.254
 2455SOL     OW 7924   0.703   4.780   5.959
 2455SOL    HW1 7925   0.694   4.767   6.054
 2455SOL    HW2 7926   0.782   4.730   5.936
 2456SOL     OW 7927   0.420   4.541   6.837
 2456SOL    HW1 7928   0.489   4.548   6.903
 2456SOL    HW2 7929   0.385   4.453   6.848
 2457SOL     OW 7930   1.266   4.102   6.859
 2457SOL    HW1 7931   1.299   4.179   6.906
 2457SOL    HW2 7932   1.176   4.124   6.835
 2458SOL     OW 7933   0.114   5.288   6.905
 2458SOL    HW1 7934   0.054   0.054   6.940
 2458SOL    HW2 7935   0.191   5.292   6.962
 2459SOL     OW 7936   0.345   4.827   6.074
 2459SOL    HW1 7937   0.354   4.905   6.021
 2459SOL    HW2 7938   0.356   4.754   6.013
 2460SOL     OW 7939   0.556   4.261   6.445
 2460SOL    HW1 7940   0.572   4.319   6.371
 2460SOL    HW2 7941   0.619   4.289   6.512
 2461SOL     OW 7942   1.259   5.075   5.972
 2461SOL    HW1 7943   1.315   5.143   6.010
 2461SOL    HW2 7944   1.171   5.097   6.001
 2462SOL     OW 7945   1.268   5.181   6.728
 2462SOL    HW1 7946   1.327   5.194   6.802
 2462SOL    HW2 7947   1.224   5.098   6.746
 2463SOL     OW 7948   1.582   4.348   6.063
 2463SOL    HW1 7949   1.537   4.404   6.127
 2463SOL    HW2 7950   1.628   4.410   6.006
 2464SOL     OW 7951   0.380   5.232   6.903
 2464SOL    HW1 7952   0.361   5.192   6.818
 2464SOL    HW2 7953   0.473   5.256   6.898
 2465SOL     OW 7954   0.413   4.467   7.188
 2465SOL    HW1 7955   0.472   4.514   7.130
 2465SOL    HW2 7956   0.453   4.381   7.200
 2466SOL     OW 7957   1.599   4.502   7.267
 2466SOL    HW1 7958   1.513   4.543   7.259
 2466SOL    HW2 7959   1.651   4.544   7.198
 2467SOL     OW 7960   0.996   3.844   7.342
 2467SOL    HW1 7961   1.050   3.917   7.311
 2467SOL    HW2 7962   1.045   3.766   7.316
 2468SOL     OW 7963   0.498   3.766   7.332
 2468SOL    HW1 7964   0.457   3.712   7.265
 2468SOL    HW2 7965   0.438   3.840   7.344
 2469SOL     OW 7966   0.585   4.597   6.618
 2469SOL    HW1 7967   0.613   4.688   6.615
 2469SOL    HW2 7968   0.528   4.591   6.694
 2470SOL     OW 7969   1.359   4.583   6.617
 2470SOL    HW1 7970   1.277   4.574   6.569
 2470SOL    HW2 7971   1.398   4.495   6.614
 2471SOL     OW 7972   1.206   4.253   5.854
 2471SOL    HW1 7973   1.214   4.174   5.909
 2471SOL    HW2 7974   1.164   4.317   5.911
 2472SOL     OW 7975   0.302   3.928   6.834
 2472SOL    HW1 7976   0.267   3.953   6.920
 2472SOL    HW2 7977   0.288   3.833   6.830
 2473SOL     OW 7978   0.045   5.022   6.863
 2473SOL    HW1 7979   0.076   4.972   6.939
 2473SOL    HW2 7980   0.045   5.113   6.893
 2474SOL     OW 7981   0.726   4.356   6.646
 2474SOL    HW1 7982   0.799   4.338   6.586
 2474SOL    HW2 7983   0.698   4.445   6.624
 2475SOL     OW 7984   1.734   4.684   7.437
 2475SOL    HW1 7985   1.686   4.625   7.379
 2475SOL    HW2 7986   1.676   4.696   7.512
 2476SOL     OW 7987   0.328   3.786   6.221
 2476SOL    HW1 7988   0.307   3.875   6.249
 2476SOL    HW2 7989   0.330   3.735   6.302
 2477SOL     OW 7990   1.614   4.097   5.954
 2477SOL    HW1 7991   1.642   4.033   6.020
 2477SOL    HW2 7992   1.592   4.175   6.004
 2478SOL     OW 7993   1.027   4.484   6.548
 2478SOL    HW1 7994   1.026   4.501   6.642
 2478SOL    HW2 7995   1.001   4.392   6.540
 2479SOL     OW 7996   1.855   5.214   7.173
 2479SOL    HW1 7997   1.853   5.287   7.110
 2479SOL    HW2 7998   1.924   5.238   7.234
 2480SOL     OW 7999   0.353   4.640   7.393
 2480SOL    HW1 8000   0.436   4.660   7.438
 2480SOL    HW2 8001   0.377   4.577   7.326
 2481SOL     OW 8002   1.530   3.997   5.713
 2481SOL    HW1 8003   1.466   3.932   5.740
 2481SOL    HW2 8004   1.563   4.033   5.796
 2482SOL     OW 8005   1.293   4.551   5.618
 2482SOL    HW1 8006   1.336   4.465   5.621
 2482SOL    HW2 8007   1.324   4.590   5.536
 2483SOL     OW 8008   1.059   5.076   6.416
 2483SOL    HW1 8009   1.064   4.992   6.371
 2483SOL    HW2 8010   1.145   5.116   6.401
 2484SOL     OW 8011   0.315   4.534   6.536
 2484SOL    HW1 8012   0.410   4.551   6.532
 2484SOL    HW2 8013   0.309   4.445   6.568
 2485SOL     OW 8014   0.336   4.249   6.600
 2485SOL    HW1 8015   0.300   4.161   6.586
 2485SOL    HW2 8016   0.410   4.254   6.540
 2486SOL     OW 8017   1.135   4.101   7.266
 2486SOL    HW1 8018   1.088   4.156   7.329
 2486SOL    HW2 8019   1.223   4.138   7.262
 2487SOL     OW 8020   1.161   3.928   7.055
 2487SOL    HW1 8021   1.151   3.990   7.127
 2487SOL    HW2 8022   1.199   3.979   6.984
 2488SOL     OW 8023   0.003   5.050   5.794
 2488SOL    HW1 8024   5.224   5.042   5.741
 2488SOL    HW2 8025   0.013   4.964   5.834
 2489SOL     OW 8026   0.985   4.518   6.814
 2489SOL    HW1 8027   1.040   4.493   6.889
 2489SOL    HW2 8028   0.900   4.479   6.833
 2490SOL     OW 8029   0.034   4.282   6.700
 2490SOL    HW1 8030   0.120   4.256   6.668
 2490SOL    HW2 8031   0.038   4.266   6.795
 2491SOL     OW 8032   0.176   4.236   7.302
 2491SOL    HW1 8033   0.241   4.200   7.241
 2491SOL    HW2 8034   0.145   4.315   7.259
 2492SOL     OW 8035   1.375   4.665   7.245
 2492SOL    HW1 8036   1.396   4.758   7.244
 2492SOL    HW2 8037   1.373   4.639   7.153
 2493SOL     OW 8038   0.816   4.293   5.943
 2493SOL    HW1 8039   0.819   4.218   5.884
 2493SOL    HW2 8040   0.741   4.344   5.912
 2494SOL     OW 8041   1.643   4.325   6.774
 2494SOL    HW1 8042   1.632   4.266   6.848
 2494SOL    HW2 8043   1.729   4.305   6.739
 2495SOL     OW 8044   0.212   5.280   7.319
 2495SOL    HW1 8045   0.170   0.021   7.395
 2495SOL    HW2 8046   0.216   5.187   7.341
 2496SOL     OW 8047   0.697   4.176   6.848
 2496SOL    HW1 8048   0.646   4.101   6.817
 2496SOL    HW2 8049   0.695   4.238   6.775
 2497SOL     OW 8050   0.466   4.217   5.773
 2497SOL    HW1 8051   0.525   4.290   5.793
 2497SOL    HW2 8052   0.380   4.258   5.763
 2498SOL     OW 8053   0.152   4.862   7.058
 2498SOL    HW1 8054   0.149   4.810   7.139
 2498SOL    HW2 8055   0.163   4.796   6.989
 2499SOL     OW 8056   1.329   4.771   6.810
 2499SOL    HW1 8057   1.352   4.708   6.741
 2499SOL    HW2 8058   1.256   4.822   6.773
 2500SOL     OW 8059   1.309   4.581   5.893
 2500SOL    HW1 8060   1.233   4.550   5.942
 2500SOL    HW2 8061   1.286   4.567   5.801
 2501SOL     OW 8062   0.077   4.924   6.615
 2501SOL    HW1 8063   0.066   4.962   6.702
 2501SOL    HW2 8064   5.290   4.928   6.576
 2502SOL     OW 8065   0.749   0.039   7.296
 2502SOL    HW1 8066   0.657   0.064   7.304
 2502SOL    HW2 8067   0.772   0.062   7.206
 2503SOL     OW 8068   1.718   3.868   6.097
 2503SOL    HW1 8069   1.792   3.854   6.037
 2503SOL    HW2 8070   1.703   3.782   6.137
 2504SOL     OW 8071   1.277   4.649   6.257
 2504SOL    HW1 8072   1.350   4.587   6.263
 2504SOL    HW2 8073   1.311   4.721   6.205
 2505SOL     OW 8074   0.821   4.994   7.010
 2505SOL    HW1 8075   0.792   5.030   7.094
 2505SOL    HW2 8076   0.745   5.003   6.953
 2506SOL     OW 8077   1.840   3.897   6.553
 2506SOL    HW1 8078   1.869   3.811   6.525
 2506SOL    HW2 8079   1.754   3.908   6.513
 2507SOL     OW 8080   0.272   4.041   6.304
 2507SOL    HW1 8081   0.188   4.081   6.282
 2507SOL    HW2 8082   0.269   4.030   6.399
 2508SOL     OW 8083   0.824   4.728   6.957
 2508SOL    HW1 8084   0.869   4.722   6.872
 2508SOL    HW2 8085   0.828   4.821   6.980
 2509SOL     OW 8086   0.915   4.635   5.876
 2509SOL    HW1 8087   0.977   4.667   5.810
 2509SOL    HW2 8088   0.962   4.565   5.920
 2510SOL     OW 8089   0.366   5.028   7.086
 2510SOL    HW1 8090   0.364   5.099   7.021
 2510SOL    HW2 8091   0.292   4.972   7.062
 2511SOL     OW 8092   1.612   5.004   6.868
 2511SOL    HW1 8093   1.670   4.999   6.945
 2511SOL    HW2 8094   1.551   5.074   6.889
 2512SOL     OW 8095   1.051   4.832   6.295
 2512SOL    HW1 8096   0.980   4.781   6.333
 2512SOL    HW2 8097   1.112   4.767   6.261
 2513SOL     OW 8098   1.021   3.964   6.552
 2513SOL    HW1 8099   1.015   3.916   6.469
 2513SOL    HW2 8100   1.015   3.896   6.619
 2514SOL     OW 8101   1.720   4.116   6.967
 2514SOL    HW1 8102   1.792   4.179   6.965
 2514SOL    HW2 8103   1.750   4.044   6.911
 2515SOL     OW 8104   0.259   5.061   5.871
 2515SOL    HW1 8105   0.166   5.064   5.847
 2515SOL    HW2 8106   0.262   5.097   5.959
 2516SOL     OW 8107   0.115   4.741   7.306
 2516SOL    HW1 8108   0.043   4.705   7.357
 2516SOL    HW2 8109   0.194   4.708   7.349
 2517SOL     OW 8110   0.673   3.920   7.085
 2517SOL    HW1 8111   0.757   3.901   7.043
 2517SOL    HW2 8112   0.696   3.949   7.173
 2518SOL     OW 8113   0.080   4.076   5.627
 2518SOL    HW1 8114   0.001   4.027   5.603
 2518SOL    HW2 8115   0.097   4.132   5.552
 2519SOL     OW 8116   1.431   4.582   6.988
 2519SOL    HW1 8117   1.383   4.642   6.931
 2519SOL    HW2 8118   1.521   4.585   6.954
 2520SOL     OW 8119   0.055   3.858   5.828
 2520SOL    HW1 8120   0.054   3.953   5.825
 2520SOL    HW2 8121   0.146   3.833   5.810
 2521SOL     OW 8122   1.182   5.065   5.706
 2521SOL    HW1 8123   1.091   5.037   5.706
 2521SOL    HW2 8124   1.210   5.057   5.797
 2522SOL     OW 8125   0.619   4.555   7.021
 2522SOL    HW1 8126   0.675   4.631   7.004
 2522SOL    HW2 8127   0.679   4.482   7.028
 2523SOL     OW 8128   0.717   4.289   7.292
 2523SOL    HW1 8129   0.756   4.351   7.353
 2523SOL    HW2 8130   0.749   4.203   7.321
 2524SOL     OW 8131   1.471   4.925   7.218
 2524SOL    HW1 8132   1.459   4.937   7.313
 2524SOL    HW2 8133   1.565   4.937   7.205
 2525SOL     OW 8134   1.671   4.606   6.841
 2525SOL    HW1 8135   1.663   4.520   6.799
 2525SOL    HW2 8136   1.661   4.669   6.770
 2526SOL     OW 8137   1.218   4.043   6.043
 2526SOL    HW1 8138   1.281   3.972   6.035
 2526SOL    HW2 8139   1.247   4.092   6.121
 2527SOL     OW 8140   0.591   4.463   6.254
 2527SOL    HW1 8141   0.630   4.549   6.238
 2527SOL    HW2 8142   0.521   4.456   6.189
 2528SOL     OW 8143   1.764   4.085   7.236
 2528SOL    HW1 8144   1.747   4.099   7.143
 2528SOL    HW2 8145   1.692   4.028   7.265
 2529SOL     OW 8146   1.744   4.657   7.098
 2529SOL    HW1 8147   1.743   4.752   7.112
 2529SOL    HW2 8148   1.729   4.646   7.005
 2530SOL     OW 8149   0.850   5.095   5.605
 2530SOL    HW1 8150   0.829   5.096   5.698
 2530SOL    HW2 8151   0.870   5.186   5.583
 2531SOL     OW 8152   0.867   4.690   6.441
 2531SOL    HW1 8153   0.917   4.619   6.482
 2531SOL    HW2 8154   0.833   4.741   6.515
 2532SOL     OW 8155   1.080   4.713   5.675
 2532SOL    HW1 8156   1.058   4.762   5.596
 2532SOL    HW2 8157   1.155   4.659   5.649
 2533SOL     OW 8158   0.221   5.026   7.442
 2533SOL    HW1 8159   0.155   4.961   7.419
 2533SOL    HW2 8160   0.210   5.038   7.537
 2534SOL     OW 8161   0.081   4.933   6.242
 2534SOL    HW1 8162   0.098   4.910   6.333
 2534SOL    HW2 8163   0.167   4.935   6.200
 2535SOL     OW 8164   0.669   5.108   7.195
 2535SOL    HW1 8165   0.593   5.074   7.242
 2535SOL    HW2 8166   0.699   5.182   7.248
 2536SOL     OW 8167   1.813   3.909   6.824
 2536SOL    HW1 8168   1.824   3.815   6.839
 2536SOL    HW2 8169   1.822   3.919   6.729
 2537SOL     OW 8170   0.434   4.159   6.110
 2537SOL    HW1 8171   0.461   4.087   6.054
 2537SOL    HW2 8172   0.387   4.118   6.182
 2538SOL     OW 8173   1.707   5.223   6.705
 2538SOL    HW1 8174   1.633   5.206   6.647
 2538SOL    HW2 8175   1.714   5.143   6.758
 2539SOL     OW 8176   0.335   4.282   6.877
 2539SOL    HW1 8177   0.387   4.222   6.930
 2539SOL    HW2 8178   0.349   4.252   6.787
 2540SOL     OW 8179   1.432   3.948   6.704
 2540SOL    HW1 8180   1.460   3.870   6.751
 2540SOL    HW2 8181   1.380   3.997   6.768
 2541SOL     OW 8182   1.008   3.744   6.730
 2541SOL    HW1 8183   0.954   3.676   6.691
 2541SOL    HW2 8184   1.096   3.706   6.732
 2542SOL     OW 8185   0.802   5.047   5.870
 2542SOL    HW1 8186   0.738   4.978   5.889
 2542SOL    HW2 8187   0.855   5.052   5.949
 2543SOL     OW 8188   0.637   0.002   6.871
 2543SOL    HW1 8189   0.642   0.057   6.950
 2543SOL    HW2 8190   0.728   5.284   6.848
 2544SOL     OW 8191   1.352   3.778   5.750
 2544SOL    HW1 8192   1.378   3.717   5.681
 2544SOL    HW2 8193   1.265   3.747   5.777
 2545SOL     OW 8194   1.297   4.184   6.268
 2545SOL    HW1 8195   1.243   4.263   6.276
 2545SOL    HW2 8196   1.294   4.144   6.355
 2546SOL     OW 8197   1.587   3.928   6.463
 2546SOL    HW1 8198   1.524   3.947   6.533
 2546SOL    HW2 8199   1.586   4.006   6.408
 2547SOL     OW 8200   0.046   4.792   5.877
 2547SOL    HW1 8201   0.137   4.762   5.867
 2547SOL    HW2 8202   0.000   4.716   5.912
 2548SOL     OW 8203   0.230   4.356   7.565
 2548SOL    HW1 8204   0.153   4.320   7.609
 2548SOL    HW2 8205   0.225   4.324   7.475
 2549SOL     OW 8206   1.766   4.324   7.680
 2549SOL    HW1 8207   1.747   4.319   7.586
 2549SOL    HW2 8208   1.725   4.246   7.717
 2550SOL     OW 8209   0.279   0.133   7.956
 2550SOL    HW1 8210   0.246   0.213   7.997
 2550SOL    HW2 8211   0.287   0.155   7.863
 2551SOL     OW 8212   0.225   5.157   7.990
 2551SOL    HW1 8213   0.229   5.252   7.995
 2551SOL    HW2 8214   0.157   5.132   8.053
 2552SOL     OW 8215   0.585   4.706   7.579
 2552SOL    HW1 8216   0.630   4.756   7.511
 2552SOL    HW2 8217   0.626   4.735   7.661
 2553SOL     OW 8218   0.003   5.298   7.525
 2553SOL    HW1 8219   0.019   5.212   7.563
 2553SOL    HW2 8220   0.019   0.059   7.597
 2554SOL     OW 8221   1.683   4.595   8.037
 2554SOL    HW1 8222   1.766   4.605   0.004
 2554SOL    HW2 8223   1.672   4.678   7.990
 2555SOL     OW 8224   1.654   4.826   7.875
 2555SOL    HW1 8225   1.742   4.845   7.842
 2555SOL    HW2 8226   1.637   4.895   7.939
 2556SOL     OW 8227   0.800   3.718   7.938
 2556SOL    HW1 8228   0.849   3.799   7.924
 2556SOL    HW2 8229   0.709   3.746   7.950
 2557SOL     OW 8230   1.532   4.719   7.646
 2557SOL    HW1 8231   1.466   4.658   7.679
 2557SOL    HW2 8232   1.575   4.753   7.725
 2558SOL     OW 8233   0.589   4.448   7.708
 2558SOL    HW1 8234   0.599   4.529   7.658
 2558SOL    HW2 8235   0.533   4.472   7.781
 2559SOL     OW 8236   0.054   4.540   0.206
 2559SOL    HW1 8237   0.127   4.492   0.166
 2559SOL    HW2 8238   0.031   4.606   0.141
 2560SOL     OW 8239   0.879   4.069   7.637
 2560SOL    HW1 8240   0.926   4.130   7.580
 2560SOL    HW2 8241   0.913   3.983   7.614
 2561SOL     OW 8242   0.319   4.673   7.693
 2561SOL    HW1 8243   0.401   4.699   7.650
 2561SOL    HW2 8244   0.295   4.590   7.652
 2562SOL     OW 8245   1.086   0.193   7.650
 2562SOL    HW1 8246   1.065   0.127   7.716
 2562SOL    HW2 8247   1.105   0.143   7.571
 2563SOL     OW 8248   1.627   5.099   7.549
 2563SOL    HW1 8249   1.610   5.181   7.502
 2563SOL    HW2 8250   1.557   5.041   7.520
 2564SOL     OW 8251   1.414   3.854   7.864
 2564SOL    HW1 8252   1.401   3.819   7.776
 2564SOL    HW2 8253   1.509   3.850   7.878
 2565SOL     OW 8254   0.380   4.424   7.922
 2565SOL    HW1 8255   0.403   4.331   7.926
 2565SOL    HW2 8256   0.287   4.427   7.946
 2566SOL     OW 8257   0.625   3.844   7.559
 2566SOL    HW1 8258   0.704   3.791   7.568
 2566SOL    HW2 8259   0.584   3.814   7.479
 2567SOL     OW 8260   0.528   3.796   7.960
 2567SOL    HW1 8261   0.442   3.802   8.002
 2567SOL    HW2 8262   0.528   3.867   7.896
 2568SOL     OW 8263   1.428   4.924   7.488
 2568SOL    HW1 8264   1.459   4.849   7.539
 2568SOL    HW2 8265   1.340   4.941   7.522
 2569SOL     OW 8266   0.305   3.769   7.621
 2569SOL    HW1 8267   0.368   3.833   7.586
 2569SOL    HW2 8268   0.360   3.705   7.667
 2570SOL     OW 8269   0.943   3.950   7.912
 2570SOL    HW1 8270   0.899   4.014   7.857
 2570SOL    HW2 8271   1.035   3.979   7.914
 2571SOL     OW 8272   0.448   4.883   0.092
 2571SOL    HW1 8273   0.375   4.898   0.152
 2571SOL    HW2 8274   0.406   4.862   0.008
 2572SOL     OW 8275   1.027   4.268   7.465
 2572SOL    HW1 8276   0.982   4.351   7.448
 2572SOL    HW2 8277   1.087   4.288   7.537
 2573SOL     OW 8278   1.867   4.543   7.803
 2573SOL    HW1 8279   1.876   4.507   7.891
 2573SOL    HW2 8280   1.827   4.472   7.752
 2574SOL     OW 8281   0.480   5.145   7.605
 2574SOL    HW1 8282   0.417   5.094   7.657
 2574SOL    HW2 8283   0.476   5.104   7.518
 2575SOL     OW 8284   1.394   4.296   7.519
 2575SOL    HW1 8285   1.334   4.276   7.591
 2575SOL    HW2 8286   1.478   4.261   7.549
 2576SOL     OW 8287   0.527   3.989   7.771
 2576SOL    HW1 8288   0.569   3.938   7.702
 2576SOL    HW2 8289   0.505   4.073   7.730
 2577SOL     OW 8290   0.705   4.779   7.816
 2577SOL    HW1 8291   0.692   4.772   7.910
 2577SOL    HW2 8292   0.786   4.731   7.799
 2578SOL     OW 8293   0.349   4.817   7.930
 2578SOL    HW1 8294   0.347   4.901   7.884
 2578SOL    HW2 8295   0.352   4.752   7.860
 2579SOL     OW 8296   1.226   5.114   7.830
 2579SOL    HW1 8297   1.310   5.125   7.874
 2579SOL    HW2 8298   1.175   5.061   7.891
 2580SOL     OW 8299   1.587   4.354   7.921
 2580SOL    HW1 8300   1.571   4.413   7.995
 2580SOL    HW2 8301   1.629   4.409   7.855
 2581SOL     OW 8302   1.205   4.251   7.717
 2581SOL    HW1 8303   1.209   4.167   7.763
 2581SOL    HW2 8304   1.177   4.314   7.784
 2582SOL     OW 8305   1.617   4.101   7.816
 2582SOL    HW1 8306   1.639   4.034   7.881
 2582SOL    HW2 8307   1.592   4.178   7.868
 2583SOL     OW 8308   1.530   3.999   7.575
 2583SOL    HW1 8309   1.466   3.933   7.601
 2583SOL    HW2 8310   1.563   4.034   7.658
 2584SOL     OW 8311   1.296   4.552   7.482
 2584SOL    HW1 8312   1.337   4.465   7.484
 2584SOL    HW2 8313   1.325   4.591   7.400
 2585SOL     OW 8314   0.004   5.053   7.655
 2585SOL    HW1 8315   5.223   5.048   7.606
 2585SOL    HW2 8316   0.016   4.965   7.691
 2586SOL     OW 8317   0.835   4.318   7.764
 2586SOL    HW1 8318   0.827   4.228   7.734
 2586SOL    HW2 8319   0.746   4.352   7.764
 2587SOL     OW 8320   0.464   4.216   7.639
 2587SOL    HW1 8321   0.524   4.289   7.654
 2587SOL    HW2 8322   0.378   4.258   7.627
 2588SOL     OW 8323   1.309   4.577   7.756
 2588SOL    HW1 8324   1.222   4.572   7.795
 2588SOL    HW2 8325   1.294   4.566   7.662
 2589SOL     OW 8326   1.712   3.868   7.950
 2589SOL    HW1 8327   1.790   3.860   7.895
 2589SOL    HW2 8328   1.712   3.790   8.005
 2590SOL     OW 8329   0.927   4.637   7.755
 2590SOL    HW1 8330   0.980   4.662   7.680
 2590SOL    HW2 8331   0.925   4.541   7.752
 2591SOL     OW 8332   0.259   5.063   7.743
 2591SOL    HW1 8333   0.166   5.069   7.719
 2591SOL    HW2 8334   0.264   5.100   7.831
 2592SOL     OW 8335   0.078   4.070   7.489
 2592SOL    HW1 8336   5.297   4.027   7.461
 2592SOL    HW2 8337   0.098   4.130   7.417
 2593SOL     OW 8338   0.079   3.859   7.736
 2593SOL    HW1 8339   0.065   3.948   7.704
 2593SOL    HW2 8340   0.153   3.827   7.684
 2594SOL     OW 8341   1.182   5.060   7.563
 2594SOL    HW1 8342   1.090   5.035   7.562
 2594SOL    HW2 8343   1.202   5.073   7.656
 2595SOL     OW 8344   1.216   4.042   7.903
 2595SOL    HW1 8345   1.288   3.981   7.892
 2595SOL    HW2 8346   1.237   4.090   7.983
 2596SOL     OW 8347   0.621   4.462   8.052
 2596SOL    HW1 8348   0.629   4.542   0.023
 2596SOL    HW2 8349   0.530   4.460   8.023
 2597SOL     OW 8350   0.851   5.095   7.465
 2597SOL    HW1 8351   0.831   5.095   7.559
 2597SOL    HW2 8352   0.870   5.186   7.444
 2598SOL     OW 8353   1.075   4.705   7.538
 2598SOL    HW1 8354   1.055   4.760   7.462
 2598SOL    HW2 8355   1.153   4.656   7.511
 2599SOL     OW 8356   0.394   4.153   7.976
 2599SOL    HW1 8357   0.440   4.095   7.916
 2599SOL    HW2 8358   0.432   4.134   8.062
 2600SOL     OW 8359   0.804   5.046   7.730
 2600SOL    HW1 8360   0.742   4.976   7.749
 2600SOL    HW2 8361   0.830   5.078   7.816
 2601SOL     OW 8362   1.351   3.777   7.610
 2601SOL    HW1 8363   1.380   3.713   7.544
 2601SOL    HW2 8364   1.266   3.746   7.638
 2602SOL     OW 8365   0.048   4.793   7.725
 2602SOL    HW1 8366   0.138   4.761   7.725
 2602SOL    HW2 8367   5.300   4.730   7.779
 2603SOL     OW 8368   2.083   0.625   0.119
 2603SOL    HW1 8369   2.003   0.592   0.160
 2603SOL    HW2 8370   2.106   0.558   0.054
 2604SOL     OW 8371   2.081   0.283   0.992
 2604SOL    HW1 8372   2.110   0.249   1.077
 2604SOL    HW2 8373   1.995   0.242   0.979
 2605SOL     OW 8374   1.867   0.385   0.638
 2605SOL    HW1 8375   1.783   0.406   0.678
 2605SOL    HW2 8376   1.849   0.306   0.586
 2606SOL     OW 8377   2.429   1.285   1.173
 2606SOL    HW1 8378   2.341   1.287   1.135
 2606SOL    HW2 8379   2.443   1.373   1.207
 2607SOL     OW 8380   3.421   1.512   0.706
 2607SOL    HW1 8381   3.377   1.492   0.789
 2607SOL    HW2 8382   3.349   1.515   0.642
 2608SOL     OW 8383   2.993   0.698   0.704
 2608SOL    HW1 8384   3.042   0.779   0.688
 2608SOL    HW2 8385   2.945   0.714   0.785
 2609SOL     OW 8386   3.632   0.600   0.232
 2609SOL    HW1 8387   3.591   0.603   0.145
 2609SOL    HW2 8388   3.590   0.526   0.276
 2610SOL     OW 8389   2.620   1.144   1.039
 2610SOL    HW1 8390   2.550   1.177   1.095
 2610SOL    HW2 8391   2.654   1.221   0.994
 2611SOL     OW 8392   2.725   0.780   1.822
 2611SOL    HW1 8393   2.715   0.852   1.884
 2611SOL    HW2 8394   2.749   0.823   1.740
 2612SOL     OW 8395   2.547   1.005   0.650
 2612SOL    HW1 8396   2.612   0.991   0.719
 2612SOL    HW2 8397   2.478   1.056   0.692
 2613SOL     OW 8398   2.571   1.151   1.810
 2613SOL    HW1 8399   2.618   1.230   1.836
 2613SOL    HW2 8400   2.487   1.184   1.776
 2614SOL     OW 8401   2.192   1.428   1.068
 2614SOL    HW1 8402   2.121   1.390   1.017
 2614SOL    HW2 8403   2.244   1.478   1.004
 2615SOL     OW 8404   3.323   1.499   1.352
 2615SOL    HW1 8405   3.371   1.581   1.362
 2615SOL    HW2 8406   3.266   1.494   1.428
 2616SOL     OW 8407   2.305   0.399   1.489
 2616SOL    HW1 8408   2.380   0.339   1.486
 2616SOL    HW2 8409   2.230   0.341   1.502
 2617SOL     OW 8410   3.474   0.452   0.737
 2617SOL    HW1 8411   3.396   0.476   0.687
 2617SOL    HW2 8412   3.493   0.529   0.790
 2618SOL     OW 8413   2.082   1.715   0.473
 2618SOL    HW1 8414   2.105   1.791   0.526
 2618SOL    HW2 8415   2.154   1.705   0.411
 2619SOL     OW 8416   2.998   1.341   1.692
 2619SOL    HW1 8417   3.038   1.337   1.778
 2619SOL    HW2 8418   2.945   1.262   1.686
 2620SOL     OW 8419   2.089   1.441   0.531
 2620SOL    HW1 8420   2.074   1.535   0.537
 2620SOL    HW2 8421   2.029   1.403   0.596
 2621SOL     OW 8422   2.117   1.090   0.890
 2621SOL    HW1 8423   2.115   1.004   0.932
 2621SOL    HW2 8424   2.059   1.144   0.944
 2622SOL     OW 8425   2.475   1.791   1.429
 2622SOL    HW1 8426   2.393   1.773   1.476
 2622SOL    HW2 8427   2.498   1.880   1.455
 2623SOL     OW 8428   2.493   0.962   0.131
 2623SOL    HW1 8429   2.443   1.040   0.105
 2623SOL    HW2 8430   2.541   0.989   0.209
 2624SOL     OW 8431   3.448   0.133   1.458
 2624SOL    HW1 8432   3.466   0.219   1.418
 2624SOL    HW2 8433   3.448   0.151   1.552
 2625SOL     OW 8434   1.976   0.650   0.561
 2625SOL    HW1 8435   1.948   0.561   0.582
 2625SOL    HW2 8436   1.968   0.698   0.644
 2626SOL     OW 8437   3.706   1.760   0.334
 2626SOL    HW1 8438   3.768   1.729   0.400
 2626SOL    HW2 8439   3.732   1.850   0.316
 2627SOL     OW 8440   1.888   1.597   0.112
 2627SOL    HW1 8441   1.876   1.508   0.145
 2627SOL    HW2 8442   1.873   1.653   0.188
 2628SOL     OW 8443   3.551   0.919   0.642
 2628SOL    HW1 8444   3.634   0.877   0.621
 2628SOL    HW2 8445   3.529   0.970   0.564
 2629SOL     OW 8446   3.508   1.105   0.434
 2629SOL    HW1 8447   3.587   1.121   0.384
 2629SOL    HW2 8448   3.513   1.167   0.507
 2630SOL     OW 8449   1.984   0.743   1.585
 2630SOL    HW1 8450   2.076   0.766   1.597
 2630SOL    HW2 8451   1.937   0.826   1.593
 2631SOL     OW 8452   2.474   1.384   0.735
 2631SOL    HW1 8453   2.429   1.301   0.744
 2631SOL    HW2 8454   2.459   1.410   0.644
 2632SOL     OW 8455   3.152   1.239   1.424
 2632SOL    HW1 8456   3.184   1.171   1.364
 2632SOL    HW2 8457   3.208   1.231   1.501
 2633SOL     OW 8458   2.671   0.024   0.527
 2633SOL    HW1 8459   2.701   0.111   0.498
 2633SOL    HW2 8460   2.576   0.028   0.521
 2634SOL     OW 8461   2.053   0.968   1.269
 2634SOL    HW1 8462   2.137   0.925   1.254
 2634SOL    HW2 8463   1.989   0.911   1.226
 2635SOL     OW 8464   3.375   1.005   0.210
 2635SOL    HW1 8465   3.313   0.938   0.241
 2635SOL    HW2 8466   3.425   1.029   0.288
 2636SOL     OW 8467   3.047   1.805   1.621
 2636SOL    HW1 8468   3.061   1.863   1.546
 2636SOL    HW2 8469   3.063   1.717   1.586
 2637SOL     OW 8470   2.187   0.264   1.809
 2637SOL    HW1 8471   2.239   0.340   1.834
 2637SOL    HW2 8472   2.101   0.280   1.848
 2638SOL     OW 8473   3.328   1.420   0.952
 2638SOL    HW1 8474   3.259   1.434   1.018
 2638SOL    HW2 8475   3.316   1.329   0.925
 2639SOL     OW 8476   3.522   1.737   0.581
 2639SOL    HW1 8477   3.501   1.709   0.492
 2639SOL    HW2 8478   3.497   1.663   0.636
 2640SOL     OW 8479   2.459   0.716   0.282
 2640SOL    HW1 8480   2.478   0.791   0.225
 2640SOL    HW2 8481   2.394   0.748   0.344
 2641SOL     OW 8482   3.140   0.344   0.931
 2641SOL    HW1 8483   3.050   0.316   0.943
 2641SOL    HW2 8484   3.190   0.295   0.997
 2642SOL     OW 8485   3.448   1.670   0.318
 2642SOL    HW1 8486   3.539   1.701   0.312
 2642SOL    HW2 8487   3.422   1.653   0.227
 2643SOL     OW 8488   2.657   0.617   1.451
 2643SOL    HW1 8489   2.629   0.597   1.541
 2643SOL    HW2 8490   2.613   0.552   1.397
 2644SOL     OW 8491   3.257   0.475   1.678
 2644SOL    HW1 8492   3.258   0.519   1.763
 2644SOL    HW2 8493   3.321   0.404   1.687
 2645SOL     OW 8494   2.819   0.888   1.581
 2645SOL    HW1 8495   2.873   0.817   1.547
 2645SOL    HW2 8496   2.771   0.921   1.505
 2646SOL     OW 8497   2.856   0.417   1.236
 2646SOL    HW1 8498   2.772   0.439   1.277
 2646SOL    HW2 8499   2.832   0.367   1.158
 2647SOL     OW 8500   2.913   0.698   0.427
 2647SOL    HW1 8501   2.928   0.691   0.522
 2647SOL    HW2 8502   2.831   0.652   0.412
 2648SOL     OW 8503   1.951   0.821   0.776
 2648SOL    HW1 8504   2.032   0.813   0.826
 2648SOL    HW2 8505   1.908   0.899   0.811
 2649SOL     OW 8506   1.989   1.843   1.577
 2649SOL    HW1 8507   1.989   1.824   1.670
 2649SOL    HW2 8508   1.897   1.841   1.551
 2650SOL     OW 8509   2.747   0.358   0.202
 2650SOL    HW1 8510   2.791   0.405   0.131
 2650SOL    HW2 8511   2.730   0.271   0.166
 2651SOL     OW 8512   3.571   0.576   1.828
 2651SOL    HW1 8513   3.534   0.651   1.781
 2651SOL    HW2 8514   3.598   0.515   1.759
 2652SOL     OW 8515   3.237   1.142   0.542
 2652SOL    HW1 8516   3.315   1.127   0.488
 2652SOL    HW2 8517   3.185   1.204   0.491
 2653SOL     OW 8518   2.390   0.200   0.884
 2653SOL    HW1 8519   2.412   0.216   0.976
 2653SOL    HW2 8520   2.412   0.282   0.840
 2654SOL     OW 8521   2.869   1.446   0.474
 2654SOL    HW1 8522   2.829   1.517   0.424
 2654SOL    HW2 8523   2.853   1.468   0.565
 2655SOL     OW 8524   2.217   1.807   0.859
 2655SOL    HW1 8525   2.260   1.722   0.868
 2655SOL    HW2 8526   2.286   1.871   0.876
 2656SOL     OW 8527   3.661   1.059   0.868
 2656SOL    HW1 8528   3.605   1.041   0.792
 2656SOL    HW2 8529   3.600   1.064   0.941
 2657SOL     OW 8530   3.090   1.539   1.513
 2657SOL    HW1 8531   3.076   1.466   1.573
 2657SOL    HW2 8532   3.028   1.523   1.441
 2658SOL     OW 8533   2.190   0.943   0.251
 2658SOL    HW1 8534   2.264   0.980   0.203
 2658SOL    HW2 8535   2.185   0.852   0.220
 2659SOL     OW 8536   3.339   0.741   0.727
 2659SOL    HW1 8537   3.328   0.696   0.811
 2659SOL    HW2 8538   3.416   0.796   0.739
 2660SOL     OW 8539   2.327   1.264   1.737
 2660SOL    HW1 8540   2.299   1.269   1.646
 2660SOL    HW2 8541   2.245   1.262   1.787
 2661SOL     OW 8542   2.969   1.781   0.225
 2661SOL    HW1 8543   2.914   1.739   0.291
 2661SOL    HW2 8544   2.991   1.710   0.164
 2662SOL     OW 8545   2.059   0.278   1.501
 2662SOL    HW1 8546   1.980   0.332   1.495
 2662SOL    HW2 8547   2.050   0.231   1.584
 2663SOL     OW 8548   3.495   1.373   0.082
 2663SOL    HW1 8549   3.454   1.460   0.081
 2663SOL    HW2 8550   3.423   1.313   0.064
 2664SOL     OW 8551   2.327   1.739   0.323
 2664SOL    HW1 8552   2.369   1.796   0.387
 2664SOL    HW2 8553   2.398   1.712   0.264
 2665SOL     OW 8554   3.275   0.099   0.445
 2665SOL    HW1 8555   3.264   0.079   0.352
 2665SOL    HW2 8556   3.367   0.127   0.453
 2666SOL     OW 8557   2.117   1.792   1.232
 2666SOL    HW1 8558   2.169   1.728   1.280
 2666SOL    HW2 8559   2.107   1.754   1.145
 2667SOL     OW 8560   2.800   1.698   0.900
 2667SOL    HW1 8561   2.877   1.646   0.920
 2667SOL    HW2 8562   2.755   1.649   0.831
 2668SOL     OW 8563   2.247   0.698   0.477
 2668SOL    HW1 8564   2.274   0.606   0.486
 2668SOL    HW2 8565   2.154   0.698   0.501
 2669SOL     OW 8566   3.403   0.228   1.724
 2669SOL    HW1 8567   3.409   0.246   1.818
 2669SOL    HW2 8568   3.328   0.168   1.716
 2670SOL     OW 8569   2.487   0.136   0.124
 2670SOL    HW1 8570   2.577   0.107   0.135
 2670SOL    HW2 8571   2.459   0.098   0.040
 2671SOL     OW 8572   2.646   0.313   1.767
 2671SOL    HW1 8573   2.702   0.235   1.768
 2671SOL    HW2 8574   2.594   0.307   1.847
 2672SOL     OW 8575   2.738   1.521   1.194
 2672SOL    HW1 8576   2.723   1.485   1.106
 2672SOL    HW2 8577   2.808   1.467   1.230
 2673SOL     OW 8578   3.204   0.589   1.432
 2673SOL    HW1 8579   3.234   0.557   1.517
 2673SOL    HW2 8580   3.239   0.677   1.425
 2674SOL     OW 8581   2.676   1.397   0.937
 2674SOL    HW1 8582   2.760   1.386   0.893
 2674SOL    HW2 8583   2.611   1.396   0.866
 2675SOL     OW 8584   2.789   0.510   0.903
 2675SOL    HW1 8585   2.765   0.501   0.811
 2675SOL    HW2 8586   2.821   0.423   0.927
 2676SOL     OW 8587   2.403   0.062   0.512
 2676SOL    HW1 8588   2.316   0.061   0.552
 2676SOL    HW2 8589   2.399   0.132   0.447
 2677SOL     OW 8590   3.296   1.199   0.037
 2677SOL    HW1 8591   3.320   1.124   0.092
 2677SOL    HW2 8592   3.207   1.222   0.066
 2678SOL     OW 8593   2.161   0.066   0.203
 2678SOL    HW1 8594   2.218   0.136   0.169
 2678SOL    HW2 8595   2.215   5.287   0.199
 2679SOL     OW 8596   2.805   0.254   0.455
 2679SOL    HW1 8597   2.777   0.301   0.377
 2679SOL    HW2 8598   2.898   0.276   0.464
 2680SOL     OW 8599   2.942   0.680   1.460
 2680SOL    HW1 8600   2.873   0.615   1.466
 2680SOL    HW2 8601   3.023   0.629   1.453
 2681SOL     OW 8602   3.085   1.570   0.794
 2681SOL    HW1 8603   3.104   1.637   0.728
 2681SOL    HW2 8604   3.154   1.582   0.860
 2682SOL     OW 8605   2.329   1.149   0.736
 2682SOL    HW1 8606   2.259   1.130   0.798
 2682SOL    HW2 8607   2.289   1.132   0.650
 2683SOL     OW 8608   3.131   1.795   0.605
 2683SOL    HW1 8609   3.180   1.857   0.551
 2683SOL    HW2 8610   3.067   1.848   0.652
 2684SOL     OW 8611   2.893   0.532   0.029
 2684SOL    HW1 8612   2.851   0.613   8.079
 2684SOL    HW2 8613   2.955   0.560   0.096
 2685SOL     OW 8614   1.939   0.554   1.392
 2685SOL    HW1 8615   2.031   0.553   1.364
 2685SOL    HW2 8616   1.935   0.624   1.457
 2686SOL     OW 8617   2.419   0.237   1.158
 2686SOL    HW1 8618   2.450   0.151   1.185
 2686SOL    HW2 8619   2.327   0.240   1.184
 2687SOL     OW 8620   2.730   0.460   0.639
 2687SOL    HW1 8621   2.687   0.514   0.573
 2687SOL    HW2 8622   2.751   0.379   0.594
 2688SOL     OW 8623   2.839   0.061   0.762
 2688SOL    HW1 8624   2.776   0.054   0.691
 2688SOL    HW2 8625   2.850   5.272   0.794
 2689SOL     OW 8626   3.298   1.163   0.857
 2689SOL    HW1 8627   3.230   1.096   0.856
 2689SOL    HW2 8628   3.322   1.176   0.765
 2690SOL     OW 8629   3.329   0.604   0.980
 2690SOL    HW1 8630   3.281   0.521   0.984
 2690SOL    HW2 8631   3.390   0.600   1.054
 2691SOL     OW 8632   3.710   0.817   0.387
 2691SOL    HW1 8633   3.762   0.763   0.448
 2691SOL    HW2 8634   3.679   0.755   0.321
 2692SOL     OW 8635   2.344   1.438   0.172
 2692SOL    HW1 8636   2.273   1.395   0.219
 2692SOL    HW2 8637   2.349   1.392   0.089
 2693SOL     OW 8638   3.531   1.266   0.649
 2693SOL    HW1 8639   3.626   1.270   0.661
 2693SOL    HW2 8640   3.500   1.354   0.669
 2694SOL     OW 8641   3.261   0.581   0.087
 2694SOL    HW1 8642   3.198   0.560   0.156
 2694SOL    HW2 8643   3.319   0.505   0.084
 2695SOL     OW 8644   2.385   0.267   0.329
 2695SOL    HW1 8645   2.425   0.211   0.262
 2695SOL    HW2 8646   2.371   0.351   0.284
 2696SOL     OW 8647   3.615   1.237   1.575
 2696SOL    HW1 8648   3.703   1.198   1.572
 2696SOL    HW2 8649   3.630   1.327   1.605
 2697SOL     OW 8650   2.922   1.354   1.334
 2697SOL    HW1 8651   2.847   1.322   1.386
 2697SOL    HW2 8652   2.998   1.312   1.375
 2698SOL     OW 8653   3.468   1.625   1.652
 2698SOL    HW1 8654   3.464   1.659   1.563
 2698SOL    HW2 8655   3.552   1.578   1.656
 2699SOL     OW 8656   2.989   1.202   1.107
 2699SOL    HW1 8657   2.930   1.240   1.172
 2699SOL    HW2 8658   2.955   1.233   1.023
 2700SOL     OW 8659   3.492   1.099   1.078
 2700SOL    HW1 8660   3.487   1.161   1.151
 2700SOL    HW2 8661   3.412   1.115   1.028
 2701SOL     OW 8662   2.768   0.105   1.392
 2701SOL    HW1 8663   2.797   0.072   1.308
 2701SOL    HW2 8664   2.845   0.147   1.430
 2702SOL     OW 8665   2.846   1.115   1.722
 2702SOL    HW1 8666   2.754   1.130   1.742
 2702SOL    HW2 8667   2.846   1.037   1.666
 2703SOL     OW 8668   2.575   1.062   0.379
 2703SOL    HW1 8669   2.558   1.045   0.472
 2703SOL    HW2 8670   2.652   1.010   0.359
 2704SOL     OW 8671   2.279   0.814   1.252
 2704SOL    HW1 8672   2.348   0.824   1.317
 2704SOL    HW2 8673   2.244   0.726   1.266
 2705SOL     OW 8674   3.130   0.379   1.271
 2705SOL    HW1 8675   3.162   0.456   1.318
 2705SOL    HW2 8676   3.040   0.402   1.248
 2706SOL     OW 8677   1.931   1.573   1.351
 2706SOL    HW1 8678   1.900   1.646   1.298
 2706SOL    HW2 8679   2.027   1.578   1.346
 2707SOL     OW 8680   2.209   1.109   0.492
 2707SOL    HW1 8681   2.216   1.182   0.431
 2707SOL    HW2 8682   2.218   1.030   0.438
 2708SOL     OW 8683   2.417   0.539   0.861
 2708SOL    HW1 8684   2.433   0.596   0.787
 2708SOL    HW2 8685   2.481   0.566   0.927
 2709SOL     OW 8686   3.109   1.347   0.393
 2709SOL    HW1 8687   3.165   1.419   0.422
 2709SOL    HW2 8688   3.022   1.369   0.425
 2710SOL     OW 8689   3.141   1.456   1.146
 2710SOL    HW1 8690   3.196   1.459   1.224
 2710SOL    HW2 8691   3.086   1.379   1.158
 2711SOL     OW 8692   3.446   0.626   0.479
 2711SOL    HW1 8693   3.397   0.678   0.544
 2711SOL    HW2 8694   3.482   0.691   0.419
 2712SOL     OW 8695   2.209   1.526   1.317
 2712SOL    HW1 8696   2.196   1.483   1.232
 2712SOL    HW2 8697   2.303   1.538   1.324
 2713SOL     OW 8698   2.275   0.744   1.602
 2713SOL    HW1 8699   2.336   0.790   1.544
 2713SOL    HW2 8700   2.317   0.660   1.619
 2714SOL     OW 8701   3.461   0.778   1.680
 2714SOL    HW1 8702   3.375   0.818   1.673
 2714SOL    HW2 8703   3.513   0.820   1.612
 2715SOL     OW 8704   2.901   0.114   1.782
 2715SOL    HW1 8705   2.926   0.194   1.734
 2715SOL    HW2 8706   2.910   0.044   1.717
 2716SOL     OW 8707   2.344   0.056   1.740
 2716SOL    HW1 8708   2.289   5.292   1.695
 2716SOL    HW2 8709   2.285   0.128   1.761
 2717SOL     OW 8710   2.445   0.872   1.031
 2717SOL    HW1 8711   2.476   0.963   1.029
 2717SOL    HW2 8712   2.388   0.868   1.108
 2718SOL     OW 8713   3.222   0.859   1.032
 2718SOL    HW1 8714   3.140   0.852   0.982
 2718SOL    HW2 8715   3.260   0.771   1.028
 2719SOL     OW 8716   3.067   0.527   0.271
 2719SOL    HW1 8717   3.073   0.447   0.322
 2719SOL    HW2 8718   3.025   0.591   0.329
 2720SOL     OW 8719   2.160   0.205   1.246
 2720SOL    HW1 8720   2.122   0.244   1.325
 2720SOL    HW2 8721   2.156   0.111   1.261
 2721SOL     OW 8722   1.908   1.310   1.277
 2721SOL    HW1 8723   1.941   1.257   1.348
 2721SOL    HW2 8724   1.915   1.400   1.309
 2722SOL     OW 8725   2.589   0.632   1.061
 2722SOL    HW1 8726   2.661   0.614   1.001
 2722SOL    HW2 8727   2.560   0.721   1.037
 2723SOL     OW 8728   3.595   0.959   1.851
 2723SOL    HW1 8729   3.549   0.901   1.792
 2723SOL    HW2 8730   3.536   0.971   1.925
 2724SOL     OW 8731   2.160   0.073   0.647
 2724SOL    HW1 8732   2.148   0.167   0.658
 2724SOL    HW2 8733   2.201   0.044   0.729
 2725SOL     OW 8734   3.480   0.376   0.369
 2725SOL    HW1 8735   3.508   0.311   0.433
 2725SOL    HW2 8736   3.455   0.452   0.422
 2726SOL     OW 8737   2.889   0.760   0.962
 2726SOL    HW1 8738   2.888   0.777   1.056
 2726SOL    HW2 8739   2.862   0.668   0.954
 2727SOL     OW 8740   2.844   1.566   1.715
 2727SOL    HW1 8741   2.829   1.610   1.632
 2727SOL    HW2 8742   2.887   1.484   1.692
 2728SOL     OW 8743   3.717   1.508   1.606
 2728SOL    HW1 8744   3.735   1.534   1.515
 2728SOL    HW2 8745   3.798   1.528   1.652
 2729SOL     OW 8746   2.215   0.916   1.808
 2729SOL    HW1 8747   2.297   0.935   1.853
 2729SOL    HW2 8748   2.239   0.854   1.739
 2730SOL     OW 8749   3.386   0.297   0.126
 2730SOL    HW1 8750   3.345   0.212   0.143
 2730SOL    HW2 8751   3.424   0.322   0.210
 2731SOL     OW 8752   3.156   0.826   0.023
 2731SOL    HW1 8753   3.195   0.740   0.040
 2731SOL    HW2 8754   3.213   0.865   8.037
 2732SOL     OW 8755   2.926   1.335   0.853
 2732SOL    HW1 8756   2.930   1.262   0.791
 2732SOL    HW2 8757   2.989   1.399   0.818
 2733SOL     OW 8758   2.172   0.809   0.948
 2733SOL    HW1 8759   2.265   0.831   0.941
 2733SOL    HW2 8760   2.170   0.720   0.981
 2734SOL     OW 8761   2.195   0.524   1.012
 2734SOL    HW1 8762   2.159   0.437   0.996
 2734SOL    HW2 8763   2.271   0.530   0.954
 2735SOL     OW 8764   2.998   0.378   1.687
 2735SOL    HW1 8765   2.950   0.433   1.749
 2735SOL    HW2 8766   3.085   0.417   1.682
 2736SOL     OW 8767   2.997   0.223   1.465
 2736SOL    HW1 8768   3.002   0.281   1.541
 2736SOL    HW2 8769   3.052   0.265   1.399
 2737SOL     OW 8770   1.872   1.325   0.191
 2737SOL    HW1 8771   1.785   1.339   0.154
 2737SOL    HW2 8772   1.871   1.235   0.222
 2738SOL     OW 8773   1.952   1.789   0.937
 2738SOL    HW1 8774   1.922   1.709   0.894
 2738SOL    HW2 8775   2.042   1.800   0.906
 2739SOL     OW 8776   2.360   1.573   0.905
 2739SOL    HW1 8777   2.429   1.635   0.930
 2739SOL    HW2 8778   2.404   1.509   0.850
 2740SOL     OW 8779   2.848   0.794   1.228
 2740SOL    HW1 8780   2.902   0.769   1.303
 2740SOL    HW2 8781   2.762   0.757   1.247
 2741SOL     OW 8782   1.898   0.543   1.117
 2741SOL    HW1 8783   1.978   0.527   1.067
 2741SOL    HW2 8784   1.926   0.548   1.208
 2742SOL     OW 8785   2.050   0.520   1.726
 2742SOL    HW1 8786   2.112   0.486   1.661
 2742SOL    HW2 8787   2.007   0.593   1.681
 2743SOL     OW 8788   3.238   0.941   1.659
 2743SOL    HW1 8789   3.259   1.034   1.658
 2743SOL    HW2 8790   3.236   0.915   1.567
 2744SOL     OW 8791   2.680   0.570   0.364
 2744SOL    HW1 8792   2.688   0.499   0.301
 2744SOL    HW2 8793   2.603   0.619   0.334
 2745SOL     OW 8794   3.505   0.601   1.188
 2745SOL    HW1 8795   3.493   0.541   1.262
 2745SOL    HW2 8796   3.592   0.581   1.154
 2746SOL     OW 8797   2.106   1.552   1.729
 2746SOL    HW1 8798   2.084   1.616   1.797
 2746SOL    HW2 8799   2.107   1.468   1.774
 2747SOL     OW 8800   2.557   0.453   1.262
 2747SOL    HW1 8801   2.508   0.379   1.228
 2747SOL    HW2 8802   2.558   0.517   1.191
 2748SOL     OW 8803   2.791   1.679   1.467
 2748SOL    HW1 8804   2.765   1.647   1.380
 2748SOL    HW2 8805   2.789   1.774   1.459
 2749SOL     OW 8806   2.330   0.492   0.178
 2749SOL    HW1 8807   2.397   0.558   0.197
 2749SOL    HW2 8808   2.247   0.537   0.192
 2750SOL     OW 8809   2.009   1.140   1.471
 2750SOL    HW1 8810   2.013   1.087   1.551
 2750SOL    HW2 8811   2.026   1.078   1.401
 2751SOL     OW 8812   3.190   1.048   1.224
 2751SOL    HW1 8813   3.214   0.985   1.156
 2751SOL    HW2 8814   3.118   1.099   1.186
 2752SOL     OW 8815   3.168   0.849   0.308
 2752SOL    HW1 8816   3.090   0.821   0.356
 2752SOL    HW2 8817   3.145   0.839   0.216
 2753SOL     OW 8818   3.631   1.746   1.148
 2753SOL    HW1 8819   3.692   1.772   1.079
 2753SOL    HW2 8820   3.608   1.655   1.128
 2754SOL     OW 8821   3.103   1.733   1.115
 2754SOL    HW1 8822   3.185   1.752   1.069
 2754SOL    HW2 8823   3.108   1.639   1.133
 2755SOL     OW 8824   1.945   1.267   1.013
 2755SOL    HW1 8825   1.932   1.278   1.107
 2755SOL    HW2 8826   1.872   1.212   0.984
 2756SOL     OW 8827   2.538   1.664   1.725
 2756SOL    HW1 8828   2.489   1.746   1.725
 2756SOL    HW2 8829   2.604   1.676   1.656
 2757SOL     OW 8830   2.756   0.087   0.139
 2757SOL    HW1 8831   2.802   0.080   0.055
 2757SOL    HW2 8832   2.779   0.006   0.185
 2758SOL     OW 8833   3.576   0.147   0.506
 2758SOL    HW1 8834   3.650   0.126   0.449
 2758SOL    HW2 8835   3.567   0.071   0.563
 2759SOL     OW 8836   3.251   1.568   0.484
 2759SOL    HW1 8837   3.315   1.600   0.420
 2759SOL    HW2 8838   3.205   1.647   0.513
 2760SOL     OW 8839   1.997   1.798   1.843
 2760SOL    HW1 8840   1.947   1.732   1.892
 2760SOL    HW2 8841   2.046   1.844   1.911
 2761SOL     OW 8842   3.139   0.925   0.671
 2761SOL    HW1 8843   3.212   0.864   0.676
 2761SOL    HW2 8844   3.172   0.998   0.619
 2762SOL     OW 8845   2.679   1.272   1.431
 2762SOL    HW1 8846   2.652   1.311   1.514
 2762SOL    HW2 8847   2.609   1.294   1.370
 2763SOL     OW 8848   2.538   1.619   0.156
 2763SOL    HW1 8849   2.543   1.625   0.060
 2763SOL    HW2 8850   2.478   1.547   0.173
 2764SOL     OW 8851   3.491   1.726   1.391
 2764SOL    HW1 8852   3.540   1.734   1.309
 2764SOL    HW2 8853   3.478   1.817   1.420
 2765SOL     OW 8854   3.707   0.159   0.958
 2765SOL    HW1 8855   3.710   0.065   0.938
 2765SOL    HW2 8856   3.619   0.186   0.931
 2766SOL     OW 8857   2.126   0.329   0.721
 2766SOL    HW1 8858   2.038   0.360   0.697
 2766SOL    HW2 8859   2.122   0.316   0.815
 2767SOL     OW 8860   3.018   1.583   0.052
 2767SOL    HW1 8861   3.036   1.491   0.070
 2767SOL    HW2 8862   3.027   1.591   8.037
 2768SOL     OW 8863   2.686   1.006   1.372
 2768SOL    HW1 8864   2.730   1.002   1.287
 2768SOL    HW2 8865   2.687   1.099   1.395
 2769SOL     OW 8866   2.781   0.915   0.298
 2769SOL    HW1 8867   2.835   0.939   0.223
 2769SOL    HW2 8868   2.827   0.841   0.337
 2770SOL     OW 8869   3.372   1.625   0.060
 2770SOL    HW1 8870   3.277   1.625   0.050
 2770SOL    HW2 8871   3.406   1.624   8.050
 2771SOL     OW 8872   2.231   1.302   1.492
 2771SOL    HW1 8873   2.218   1.379   1.437
 2771SOL    HW2 8874   2.154   1.247   1.475
 2772SOL     OW 8875   3.473   1.283   1.281
 2772SOL    HW1 8876   3.533   1.274   1.355
 2772SOL    HW2 8877   3.413   1.353   1.307
 2773SOL     OW 8878   2.911   1.106   0.706
 2773SOL    HW1 8879   2.841   1.054   0.745
 2773SOL    HW2 8880   2.973   1.042   0.671
 2774SOL     OW 8881   2.882   0.242   0.967
 2774SOL    HW1 8882   2.862   0.196   0.886
 2774SOL    HW2 8883   2.874   0.175   1.035
 2775SOL     OW 8884   2.464   1.488   0.481
 2775SOL    HW1 8885   2.507   1.437   0.412
 2775SOL    HW2 8886   2.396   1.537   0.436
 2776SOL     OW 8887   3.584   0.387   1.378
 2776SOL    HW1 8888   3.654   0.453   1.378
 2776SOL    HW2 8889   3.616   0.318   1.321
 2777SOL     OW 8890   2.127   1.322   0.294
 2777SOL    HW1 8891   2.041   1.334   0.254
 2777SOL    HW2 8892   2.121   1.368   0.378
 2778SOL     OW 8893   1.974   1.020   1.719
 2778SOL    HW1 8894   1.898   0.997   1.773
 2778SOL    HW2 8895   2.049   0.983   1.767
 2779SOL     OW 8896   2.534   0.209   1.487
 2779SOL    HW1 8897   2.618   0.192   1.444
 2779SOL    HW2 8898   2.556   0.258   1.565
 2780SOL     OW 8899   1.930   0.362   0.035
 2780SOL    HW1 8900   1.858   0.300   0.021
 2780SOL    HW2 8901   1.947   0.399   8.029
 2781SOL     OW 8902   3.293   0.858   1.401
 2781SOL    HW1 8903   3.245   0.919   1.345
 2781SOL    HW2 8904   3.383   0.861   1.368
 2782SOL     OW 8905   1.931   0.165   0.314
 2782SOL    HW1 8906   1.936   0.252   0.275
 2782SOL    HW2 8907   2.016   0.125   0.296
 2783SOL     OW 8908   3.047   1.321   0.121
 2783SOL    HW1 8909   2.952   1.308   0.121
 2783SOL    HW2 8910   3.071   1.322   0.214
 2784SOL     OW 8911   2.481   0.831   1.433
 2784SOL    HW1 8912   2.536   0.908   1.418
 2784SOL    HW2 8913   2.542   0.758   1.441
 2785SOL     OW 8914   3.347   1.775   0.976
 2785SOL    HW1 8915   3.372   1.833   0.905
 2785SOL    HW2 8916   3.428   1.758   1.024
 2786SOL     OW 8917   2.578   0.571   1.704
 2786SOL    HW1 8918   2.616   0.635   1.764
 2786SOL    HW2 8919   2.612   0.487   1.734
 2787SOL     OW 8920   3.332   1.202   1.633
 2787SOL    HW1 8921   3.320   1.215   1.727
 2787SOL    HW2 8922   3.426   1.215   1.618
 2788SOL     OW 8923   2.242   1.739   1.562
 2788SOL    HW1 8924   2.156   1.779   1.550
 2788SOL    HW2 8925   2.224   1.655   1.605
 2789SOL     OW 8926   3.533   0.882   1.255
 2789SOL    HW1 8927   3.525   0.796   1.213
 2789SOL    HW2 8928   3.524   0.945   1.184
 2790SOL     OW 8929   3.078   0.328   0.474
 2790SOL    HW1 8930   3.137   0.254   0.456
 2790SOL    HW2 8931   3.118   0.374   0.548
 2791SOL     OW 8932   2.451   0.739   0.669
 2791SOL    HW1 8933   2.492   0.824   0.652
 2791SOL    HW2 8934   2.382   0.733   0.602
 2792SOL     OW 8935   3.629   0.361   1.648
 2792SOL    HW1 8936   3.609   0.375   1.556
 2792SOL    HW2 8937   3.559   0.305   1.680
 2793SOL     OW 8938   3.606   0.934   1.513
 2793SOL    HW1 8939   3.606   1.028   1.525
 2793SOL    HW2 8940   3.591   0.922   1.419
 2794SOL     OW 8941   2.755   1.374   0.033
 2794SOL    HW1 8942   2.689   1.366   0.103
 2794SOL    HW2 8943   2.741   1.461   8.077
 2795SOL     OW 8944   2.522   1.793   0.947
 2795SOL    HW1 8945   2.502   1.883   0.921
 2795SOL    HW2 8946   2.617   1.786   0.939
 2796SOL     OW 8947   2.728   0.965   0.856
 2796SOL    HW1 8948   2.779   0.895   0.896
 2796SOL    HW2 8949   2.695   1.016   0.930
 2797SOL     OW 8950   2.939   0.979   0.086
 2797SOL    HW1 8951   2.927   1.039   0.013
 2797SOL    HW2 8952   3.017   0.928   0.063
 2798SOL     OW 8953   3.718   1.555   0.845
 2798SOL    HW1 8954   3.640   1.544   0.790
 2798SOL    HW2 8955   3.709   1.488   0.913
 2799SOL     OW 8956   2.086   1.304   1.856
 2799SOL    HW1 8957   2.019   1.243   1.828
 2799SOL    HW2 8958   2.070   1.316   1.949
 2800SOL     OW 8959   1.946   1.234   0.664
 2800SOL    HW1 8960   1.948   1.185   0.746
 2800SOL    HW2 8961   2.018   1.198   0.612
 2801SOL     OW 8962   2.541   1.402   1.625
 2801SOL    HW1 8963   2.462   1.358   1.657
 2801SOL    HW2 8964   2.537   1.489   1.663
 2802SOL     OW 8965   3.679   0.179   1.234
 2802SOL    HW1 8966   3.648   0.089   1.243
 2802SOL    HW2 8967   3.693   0.190   1.140
 2803SOL     OW 8968   2.287   0.437   0.522
 2803SOL    HW1 8969   2.324   0.365   0.470
 2803SOL    HW2 8970   2.245   0.395   0.596
 2804SOL     OW 8971   3.563   1.490   1.098
 2804SOL    HW1 8972   3.482   1.465   1.054
 2804SOL    HW2 8973   3.577   1.422   1.164
 2805SOL     OW 8974   2.189   0.554   1.290
 2805SOL    HW1 8975   2.245   0.500   1.345
 2805SOL    HW2 8976   2.210   0.527   1.200
 2806SOL     OW 8977   2.687   1.578   0.679
 2806SOL    HW1 8978   2.679   1.625   0.596
 2806SOL    HW2 8979   2.610   1.522   0.682
 2807SOL     OW 8980   3.290   0.218   1.117
 2807SOL    HW1 8981   3.328   0.144   1.165
 2807SOL    HW2 8982   3.242   0.267   1.183
 2808SOL     OW 8983   2.864   0.022   1.142
 2808SOL    HW1 8984   2.814   5.252   1.101
 2808SOL    HW2 8985   2.952   5.285   1.154
 2809SOL     OW 8986   2.630   1.328   0.308
 2809SOL    HW1 8987   2.599   1.239   0.321
 2809SOL    HW2 8988   2.714   1.330   0.355
 2810SOL     OW 8989   2.481   1.558   1.284
 2810SOL    HW1 8990   2.484   1.639   1.334
 2810SOL    HW2 8991   2.569   1.550   1.246
 2811SOL     OW 8992   3.253   0.041   0.171
 2811SOL    HW1 8993   3.249   0.026   0.076
 2811SOL    HW2 8994   3.164   0.064   0.196
 2812SOL     OW 8995   3.169   0.466   0.690
 2812SOL    HW1 8996   3.110   0.542   0.693
 2812SOL    HW2 8997   3.159   0.424   0.775
 2813SOL     OW 8998   3.456   0.216   0.881
 2813SOL    HW1 8999   3.388   0.227   0.948
 2813SOL    HW2 9000   3.449   0.294   0.827
 2814SOL     OW 9001   1.904   1.068   0.302
 2814SOL    HW1 9002   2.000   1.067   0.304
 2814SOL    HW2 9003   1.878   0.986   0.344
 2815SOL     OW 9004   2.743   1.652   0.348
 2815SOL    HW1 9005   2.676   1.634   0.283
 2815SOL    HW2 9006   2.710   1.728   0.396
 2816SOL     OW 9007   2.091   0.625   1.984
 2816SOL    HW1 9008   2.002   0.623   2.018
 2816SOL    HW2 9009   2.082   0.598   1.892
 2817SOL     OW 9010   2.081   0.282   2.854
 2817SOL    HW1 9011   2.110   0.249   2.939
 2817SOL    HW2 9012   1.995   0.242   2.841
 2818SOL     OW 9013   1.867   0.384   2.501
 2818SOL    HW1 9014   1.783   0.406   2.541
 2818SOL    HW2 9015   1.850   0.307   2.447
 2819SOL     OW 9016   2.429   1.284   3.035
 2819SOL    HW1 9017   2.341   1.287   2.997
 2819SOL    HW2 9018   2.443   1.373   3.069
 2820SOL     OW 9019   3.421   1.511   2.568
 2820SOL    HW1 9020   3.377   1.492   2.651
 2820SOL    HW2 9021   3.350   1.516   2.504
 2821SOL     OW 9022   2.992   0.698   2.565
 2821SOL    HW1 9023   3.042   0.779   2.550
 2821SOL    HW2 9024   2.945   0.714   2.647
 2822SOL     OW 9025   3.627   0.607   2.092
 2822SOL    HW1 9026   3.608   0.599   1.998
 2822SOL    HW2 9027   3.593   0.527   2.131
 2823SOL     OW 9028   2.620   1.144   2.901
 2823SOL    HW1 9029   2.550   1.177   2.957
 2823SOL    HW2 9030   2.654   1.221   2.856
 2824SOL     OW 9031   2.725   0.780   3.684
 2824SOL    HW1 9032   2.715   0.852   3.746
 2824SOL    HW2 9033   2.749   0.823   3.602
 2825SOL     OW 9034   2.548   1.005   2.510
 2825SOL    HW1 9035   2.613   0.992   2.580
 2825SOL    HW2 9036   2.478   1.056   2.551
 2826SOL     OW 9037   2.571   1.151   3.672
 2826SOL    HW1 9038   2.618   1.230   3.698
 2826SOL    HW2 9039   2.487   1.184   3.638
 2827SOL     OW 9040   2.193   1.428   2.930
 2827SOL    HW1 9041   2.121   1.391   2.879
 2827SOL    HW2 9042   2.244   1.478   2.866
 2828SOL     OW 9043   3.324   1.499   3.213
 2828SOL    HW1 9044   3.371   1.581   3.224
 2828SOL    HW2 9045   3.268   1.493   3.291
 2829SOL     OW 9046   2.305   0.399   3.351
 2829SOL    HW1 9047   2.380   0.339   3.348
 2829SOL    HW2 9048   2.230   0.341   3.364
 2830SOL     OW 9049   3.473   0.452   2.599
 2830SOL    HW1 9050   3.398   0.477   2.547
 2830SOL    HW2 9051   3.494   0.529   2.651
 2831SOL     OW 9052   2.081   1.714   2.335
 2831SOL    HW1 9053   2.105   1.791   2.388
 2831SOL    HW2 9054   2.153   1.705   2.272
 2832SOL     OW 9055   2.998   1.341   3.554
 2832SOL    HW1 9056   3.039   1.336   3.641
 2832SOL    HW2 9057   2.945   1.261   3.549
 2833SOL     OW 9058   2.091   1.440   2.396
 2833SOL    HW1 9059   2.075   1.534   2.401
 2833SOL    HW2 9060   2.030   1.402   2.459
 2834SOL     OW 9061   2.117   1.090   2.752
 2834SOL    HW1 9062   2.114   1.004   2.794
 2834SOL    HW2 9063   2.059   1.144   2.806
 2835SOL     OW 9064   2.485   1.788   3.302
 2835SOL    HW1 9065   2.398   1.776   3.339
 2835SOL    HW2 9066   2.500   1.882   3.308
 2836SOL     OW 9067   2.449   0.981   1.995
 2836SOL    HW1 9068   2.493   1.031   1.926
 2836SOL    HW2 9069   2.490   1.010   2.076
 2837SOL     OW 9070   3.448   0.133   3.320
 2837SOL    HW1 9071   3.466   0.219   3.280
 2837SOL    HW2 9072   3.448   0.150   3.414
 2838SOL     OW 9073   1.976   0.652   2.421
 2838SOL    HW1 9074   1.948   0.563   2.442
 2838SOL    HW2 9075   1.968   0.700   2.504
 2839SOL     OW 9076   3.704   1.760   2.198
 2839SOL    HW1 9077   3.766   1.731   2.265
 2839SOL    HW2 9078   3.729   1.850   2.179
 2840SOL     OW 9079   1.892   1.596   1.986
 2840SOL    HW1 9080   1.876   1.504   2.006
 2840SOL    HW2 9081   1.868   1.642   2.066
 2841SOL     OW 9082   3.551   0.919   2.501
 2841SOL    HW1 9083   3.636   0.878   2.481
 2841SOL    HW2 9084   3.530   0.969   2.422
 2842SOL     OW 9085   3.507   1.107   2.292
 2842SOL    HW1 9086   3.592   1.115   2.249
 2842SOL    HW2 9087   3.512   1.168   2.366
 2843SOL     OW 9088   1.984   0.743   3.447
 2843SOL    HW1 9089   2.076   0.766   3.459
 2843SOL    HW2 9090   1.937   0.826   3.456
 2844SOL     OW 9091   2.474   1.384   2.597
 2844SOL    HW1 9092   2.428   1.300   2.606
 2844SOL    HW2 9093   2.458   1.410   2.507
 2845SOL     OW 9094   3.152   1.238   3.286
 2845SOL    HW1 9095   3.184   1.171   3.226
 2845SOL    HW2 9096   3.208   1.231   3.363
 2846SOL     OW 9097   2.671   0.023   2.386
 2846SOL    HW1 9098   2.700   0.112   2.364
 2846SOL    HW2 9099   2.575   0.028   2.382
 2847SOL     OW 9100   2.053   0.968   3.131
 2847SOL    HW1 9101   2.137   0.925   3.116
 2847SOL    HW2 9102   1.989   0.911   3.088
 2848SOL     OW 9103   3.394   0.992   2.059
 2848SOL    HW1 9104   3.324   0.935   2.090
 2848SOL    HW2 9105   3.434   1.026   2.139
 2849SOL     OW 9106   3.084   1.784   3.493
 2849SOL    HW1 9107   3.094   1.837   3.414
 2849SOL    HW2 9108   3.084   1.694   3.462
 2850SOL     OW 9109   2.187   0.264   3.671
 2850SOL    HW1 9110   2.239   0.340   3.696
 2850SOL    HW2 9111   2.101   0.280   3.709
 2851SOL     OW 9112   3.328   1.420   2.814
 2851SOL    HW1 9113   3.259   1.434   2.880
 2851SOL    HW2 9114   3.316   1.329   2.787
 2852SOL     OW 9115   3.522   1.736   2.440
 2852SOL    HW1 9116   3.501   1.707   2.351
 2852SOL    HW2 9117   3.496   1.662   2.495
 2853SOL     OW 9118   2.457   0.722   2.127
 2853SOL    HW1 9119   2.464   0.803   2.075
 2853SOL    HW2 9120   2.392   0.742   2.194
 2854SOL     OW 9121   3.141   0.344   2.792
 2854SOL    HW1 9122   3.050   0.317   2.805
 2854SOL    HW2 9123   3.190   0.295   2.858
 2855SOL     OW 9124   3.443   1.669   2.171
 2855SOL    HW1 9125   3.533   1.702   2.165
 2855SOL    HW2 9126   3.418   1.652   2.080
 2856SOL     OW 9127   2.657   0.617   3.313
 2856SOL    HW1 9128   2.629   0.597   3.403
 2856SOL    HW2 9129   2.613   0.552   3.259
 2857SOL     OW 9130   3.257   0.475   3.540
 2857SOL    HW1 9131   3.258   0.519   3.625
 2857SOL    HW2 9132   3.321   0.404   3.549
 2858SOL     OW 9133   2.819   0.888   3.443
 2858SOL    HW1 9134   2.873   0.817   3.409
 2858SOL    HW2 9135   2.771   0.921   3.367
 2859SOL     OW 9136   2.856   0.416   3.098
 2859SOL    HW1 9137   2.772   0.439   3.139
 2859SOL    HW2 9138   2.831   0.367   3.020
 2860SOL     OW 9139   2.912   0.698   2.289
 2860SOL    HW1 9140   2.927   0.691   2.383
 2860SOL    HW2 9141   2.830   0.652   2.274
 2861SOL     OW 9142   1.950   0.820   2.638
 2861SOL    HW1 9143   2.032   0.813   2.688
 2861SOL    HW2 9144   1.908   0.899   2.673
 2862SOL     OW 9145   1.991   1.832   3.438
 2862SOL    HW1 9146   1.986   1.819   3.533
 2862SOL    HW2 9147   1.901   1.851   3.412
 2863SOL     OW 9148   2.732   0.361   2.051
 2863SOL    HW1 9149   2.779   0.421   1.993
 2863SOL    HW2 9150   2.780   0.278   2.045
 2864SOL     OW 9151   3.571   0.576   3.690
 2864SOL    HW1 9152   3.534   0.651   3.643
 2864SOL    HW2 9153   3.598   0.516   3.621
 2865SOL     OW 9154   3.237   1.142   2.404
 2865SOL    HW1 9155   3.316   1.128   2.351
 2865SOL    HW2 9156   3.185   1.204   2.353
 2866SOL     OW 9157   2.391   0.201   2.745
 2866SOL    HW1 9158   2.413   0.216   2.837
 2866SOL    HW2 9159   2.412   0.284   2.702
 2867SOL     OW 9160   2.870   1.445   2.335
 2867SOL    HW1 9161   2.830   1.517   2.286
 2867SOL    HW2 9162   2.854   1.467   2.427
 2868SOL     OW 9163   2.217   1.807   2.722
 2868SOL    HW1 9164   2.258   1.721   2.730
 2868SOL    HW2 9165   2.288   1.869   2.738
 2869SOL     OW 9166   3.661   1.059   2.730
 2869SOL    HW1 9167   3.605   1.042   2.653
 2869SOL    HW2 9168   3.600   1.064   2.803
 2870SOL     OW 9169   3.087   1.534   3.373
 2870SOL    HW1 9170   3.074   1.462   3.434
 2870SOL    HW2 9171   3.029   1.514   3.299
 2871SOL     OW 9172   2.183   0.956   2.111
 2871SOL    HW1 9173   2.265   0.975   2.066
 2871SOL    HW2 9174   2.152   0.874   2.072
 2872SOL     OW 9175   3.339   0.741   2.590
 2872SOL    HW1 9176   3.329   0.696   2.674
 2872SOL    HW2 9177   3.416   0.796   2.601
 2873SOL     OW 9178   2.327   1.264   3.600
 2873SOL    HW1 9179   2.299   1.269   3.508
 2873SOL    HW2 9180   2.245   1.262   3.649
 2874SOL     OW 9181   2.983   1.778   2.093
 2874SOL    HW1 9182   2.911   1.735   2.140
 2874SOL    HW2 9183   3.005   1.717   2.022
 2875SOL     OW 9184   2.059   0.278   3.363
 2875SOL    HW1 9185   1.980   0.332   3.358
 2875SOL    HW2 9186   2.050   0.231   3.446
 2876SOL     OW 9187   3.491   1.379   1.949
 2876SOL    HW1 9188   3.450   1.464   1.934
 2876SOL    HW2 9189   3.422   1.316   1.930
 2877SOL     OW 9190   2.329   1.736   2.185
 2877SOL    HW1 9191   2.370   1.795   2.248
 2877SOL    HW2 9192   2.400   1.710   2.126
 2878SOL     OW 9193   3.268   0.099   2.293
 2878SOL    HW1 9194   3.259   0.082   2.199
 2878SOL    HW2 9195   3.360   0.122   2.304
 2879SOL     OW 9196   2.107   1.784   3.096
 2879SOL    HW1 9197   2.167   1.724   3.141
 2879SOL    HW2 9198   2.109   1.755   3.004
 2880SOL     OW 9199   2.798   1.696   2.761
 2880SOL    HW1 9200   2.877   1.645   2.780
 2880SOL    HW2 9201   2.754   1.647   2.691
 2881SOL     OW 9202   2.253   0.696   2.339
 2881SOL    HW1 9203   2.276   0.603   2.349
 2881SOL    HW2 9204   2.159   0.700   2.357
 2882SOL     OW 9205   3.403   0.228   3.586
 2882SOL    HW1 9206   3.409   0.246   3.680
 2882SOL    HW2 9207   3.328   0.168   3.579
 2883SOL     OW 9208   2.485   0.133   1.969
 2883SOL    HW1 9209   2.553   0.069   1.991
 2883SOL    HW2 9210   2.435   0.091   1.899
 2884SOL     OW 9211   2.646   0.313   3.628
 2884SOL    HW1 9212   2.702   0.235   3.630
 2884SOL    HW2 9213   2.594   0.307   3.709
 2885SOL     OW 9214   2.738   1.521   3.057
 2885SOL    HW1 9215   2.724   1.487   2.969
 2885SOL    HW2 9216   2.808   1.466   3.092
 2886SOL     OW 9217   3.204   0.588   3.294
 2886SOL    HW1 9218   3.234   0.557   3.379
 2886SOL    HW2 9219   3.239   0.677   3.287
 2887SOL     OW 9220   2.675   1.397   2.799
 2887SOL    HW1 9221   2.760   1.386   2.755
 2887SOL    HW2 9222   2.611   1.396   2.729
 2888SOL     OW 9223   2.789   0.510   2.766
 2888SOL    HW1 9224   2.765   0.502   2.673
 2888SOL    HW2 9225   2.822   0.423   2.790
 2889SOL     OW 9226   2.404   0.063   2.371
 2889SOL    HW1 9227   2.318   0.063   2.414
 2889SOL    HW2 9228   2.398   0.134   2.307
 2890SOL     OW 9229   3.290   1.198   1.903
 2890SOL    HW1 9230   3.321   1.122   1.953
 2890SOL    HW2 9231   3.204   1.218   1.941
 2891SOL     OW 9232   2.163   0.060   2.051
 2891SOL    HW1 9233   2.222   0.129   2.020
 2891SOL    HW2 9234   2.219   5.284   2.067
 2892SOL     OW 9235   2.801   0.258   2.324
 2892SOL    HW1 9236   2.772   0.298   2.242
 2892SOL    HW2 9237   2.895   0.270   2.325
 2893SOL     OW 9238   2.942   0.680   3.322
 2893SOL    HW1 9239   2.873   0.615   3.328
 2893SOL    HW2 9240   3.023   0.629   3.315
 2894SOL     OW 9241   3.086   1.570   2.656
 2894SOL    HW1 9242   3.103   1.637   2.590
 2894SOL    HW2 9243   3.154   1.582   2.721
 2895SOL     OW 9244   2.329   1.148   2.598
 2895SOL    HW1 9245   2.259   1.129   2.660
 2895SOL    HW2 9246   2.291   1.131   2.512
 2896SOL     OW 9247   3.132   1.795   2.469
 2896SOL    HW1 9248   3.177   1.856   2.411
 2896SOL    HW2 9249   3.066   1.847   2.513
 2897SOL     OW 9250   2.889   0.548   1.882
 2897SOL    HW1 9251   2.846   0.631   1.864
 2897SOL    HW2 9252   2.952   0.568   1.952
 2898SOL     OW 9253   1.939   0.554   3.255
 2898SOL    HW1 9254   2.031   0.553   3.226
 2898SOL    HW2 9255   1.935   0.624   3.319
 2899SOL     OW 9256   2.419   0.237   3.020
 2899SOL    HW1 9257   2.450   0.151   3.047
 2899SOL    HW2 9258   2.327   0.240   3.046
 2900SOL     OW 9259   2.730   0.461   2.503
 2900SOL    HW1 9260   2.684   0.515   2.438
 2900SOL    HW2 9261   2.752   0.381   2.456
 2901SOL     OW 9262   2.841   0.061   2.624
 2901SOL    HW1 9263   2.776   0.053   2.554
 2901SOL    HW2 9264   2.850   5.271   2.657
 2902SOL     OW 9265   3.298   1.163   2.720
 2902SOL    HW1 9266   3.230   1.096   2.718
 2902SOL    HW2 9267   3.322   1.176   2.628
 2903SOL     OW 9268   3.329   0.604   2.842
 2903SOL    HW1 9269   3.281   0.521   2.846
 2903SOL    HW2 9270   3.390   0.600   2.915
 2904SOL     OW 9271   3.709   0.818   2.244
 2904SOL    HW1 9272   3.764   0.766   2.302
 2904SOL    HW2 9273   3.679   0.756   2.177
 2905SOL     OW 9274   2.353   1.416   2.021
 2905SOL    HW1 9275   2.279   1.386   2.073
 2905SOL    HW2 9276   2.336   1.383   1.933
 2906SOL     OW 9277   3.531   1.265   2.510
 2906SOL    HW1 9278   3.626   1.269   2.522
 2906SOL    HW2 9279   3.500   1.353   2.530
 2907SOL     OW 9280   3.256   0.572   1.933
 2907SOL    HW1 9281   3.195   0.553   2.005
 2907SOL    HW2 9282   3.341   0.540   1.964
 2908SOL     OW 9283   2.386   0.264   2.184
 2908SOL    HW1 9284   2.429   0.215   2.114
 2908SOL    HW2 9285   2.367   0.349   2.145
 2909SOL     OW 9286   3.615   1.237   3.437
 2909SOL    HW1 9287   3.703   1.199   3.434
 2909SOL    HW2 9288   3.630   1.327   3.467
 2910SOL     OW 9289   2.922   1.354   3.197
 2910SOL    HW1 9290   2.847   1.322   3.248
 2910SOL    HW2 9291   2.998   1.311   3.237
 2911SOL     OW 9292   3.467   1.623   3.513
 2911SOL    HW1 9293   3.465   1.659   3.424
 2911SOL    HW2 9294   3.552   1.578   3.518
 2912SOL     OW 9295   2.989   1.203   2.969
 2912SOL    HW1 9296   2.929   1.240   3.033
 2912SOL    HW2 9297   2.956   1.233   2.884
 2913SOL     OW 9298   3.492   1.099   2.940
 2913SOL    HW1 9299   3.487   1.161   3.013
 2913SOL    HW2 9300   3.412   1.115   2.890
 2914SOL     OW 9301   2.768   0.105   3.254
 2914SOL    HW1 9302   2.798   0.072   3.169
 2914SOL    HW2 9303   2.845   0.147   3.292
 2915SOL     OW 9304   2.846   1.115   3.584
 2915SOL    HW1 9305   2.753   1.130   3.604
 2915SOL    HW2 9306   2.846   1.037   3.528
 2916SOL     OW 9307   2.570   1.061   2.234
 2916SOL    HW1 9308   2.557   1.045   2.327
 2916SOL    HW2 9309   2.646   1.007   2.211
 2917SOL     OW 9310   2.279   0.814   3.113
 2917SOL    HW1 9311   2.348   0.823   3.179
 2917SOL    HW2 9312   2.244   0.726   3.128
 2918SOL     OW 9313   3.130   0.380   3.133
 2918SOL    HW1 9314   3.162   0.456   3.180
 2918SOL    HW2 9315   3.040   0.402   3.110
 2919SOL     OW 9316   1.930   1.571   3.212
 2919SOL    HW1 9317   1.899   1.647   3.162
 2919SOL    HW2 9318   2.026   1.579   3.209
 2920SOL     OW 9319   2.213   1.107   2.354
 2920SOL    HW1 9320   2.219   1.181   2.292
 2920SOL    HW2 9321   2.212   1.029   2.298
 2921SOL     OW 9322   2.417   0.538   2.723
 2921SOL    HW1 9323   2.433   0.596   2.648
 2921SOL    HW2 9324   2.481   0.566   2.789
 2922SOL     OW 9325   3.110   1.348   2.251
 2922SOL    HW1 9326   3.165   1.420   2.282
 2922SOL    HW2 9327   3.023   1.369   2.285
 2923SOL     OW 9328   3.140   1.456   3.008
 2923SOL    HW1 9329   3.196   1.458   3.086
 2923SOL    HW2 9330   3.086   1.378   3.020
 2924SOL     OW 9331   3.445   0.624   2.340
 2924SOL    HW1 9332   3.399   0.680   2.403
 2924SOL    HW2 9333   3.490   0.685   2.281
 2925SOL     OW 9334   2.211   1.522   3.180
 2925SOL    HW1 9335   2.197   1.482   3.094
 2925SOL    HW2 9336   2.306   1.536   3.184
 2926SOL     OW 9337   2.275   0.744   3.464
 2926SOL    HW1 9338   2.336   0.790   3.406
 2926SOL    HW2 9339   2.317   0.660   3.481
 2927SOL     OW 9340   3.461   0.778   3.542
 2927SOL    HW1 9341   3.375   0.818   3.535
 2927SOL    HW2 9342   3.513   0.820   3.474
 2928SOL     OW 9343   2.901   0.114   3.644
 2928SOL    HW1 9344   2.926   0.194   3.597
 2928SOL    HW2 9345   2.910   0.045   3.579
 2929SOL     OW 9346   2.344   0.056   3.602
 2929SOL    HW1 9347   2.289   5.292   3.557
 2929SOL    HW2 9348   2.285   0.128   3.623
 2930SOL     OW 9349   2.445   0.872   2.893
 2930SOL    HW1 9350   2.475   0.963   2.891
 2930SOL    HW2 9351   2.388   0.868   2.970
 2931SOL     OW 9352   3.222   0.859   2.894
 2931SOL    HW1 9353   3.140   0.851   2.845
 2931SOL    HW2 9354   3.260   0.771   2.890
 2932SOL     OW 9355   3.069   0.529   2.131
 2932SOL    HW1 9356   3.073   0.448   2.181
 2932SOL    HW2 9357   3.027   0.592   2.189
 2933SOL     OW 9358   2.160   0.205   3.108
 2933SOL    HW1 9359   2.122   0.244   3.187
 2933SOL    HW2 9360   2.156   0.111   3.124
 2934SOL     OW 9361   1.907   1.310   3.139
 2934SOL    HW1 9362   1.941   1.257   3.211
 2934SOL    HW2 9363   1.915   1.400   3.170
 2935SOL     OW 9364   2.588   0.632   2.923
 2935SOL    HW1 9365   2.661   0.614   2.863
 2935SOL    HW2 9366   2.560   0.721   2.900
 2936SOL     OW 9367   3.596   0.959   3.713
 2936SOL    HW1 9368   3.548   0.901   3.654
 2936SOL    HW2 9369   3.536   0.972   3.787
 2937SOL     OW 9370   2.162   0.073   2.508
 2937SOL    HW1 9371   2.149   0.167   2.520
 2937SOL    HW2 9372   2.199   0.044   2.591
 2938SOL     OW 9373   3.472   0.373   2.229
 2938SOL    HW1 9374   3.506   0.310   2.293
 2938SOL    HW2 9375   3.453   0.451   2.281
 2939SOL     OW 9376   2.889   0.760   2.824
 2939SOL    HW1 9377   2.888   0.777   2.918
 2939SOL    HW2 9378   2.862   0.668   2.816
 2940SOL     OW 9379   2.843   1.565   3.577
 2940SOL    HW1 9380   2.825   1.605   3.492
 2940SOL    HW2 9381   2.888   1.483   3.555
 2941SOL     OW 9382   3.718   1.508   3.467
 2941SOL    HW1 9383   3.735   1.534   3.377
 2941SOL    HW2 9384   3.799   1.528   3.514
 2942SOL     OW 9385   2.215   0.916   3.670
 2942SOL    HW1 9386   2.297   0.935   3.715
 2942SOL    HW2 9387   2.239   0.854   3.601
 2943SOL     OW 9388   3.390   0.273   1.988
 2943SOL    HW1 9389   3.326   0.208   2.019
 2943SOL    HW2 9390   3.425   0.311   2.069
 2944SOL     OW 9391   3.155   0.827   1.894
 2944SOL    HW1 9392   3.197   0.741   1.898
 2944SOL    HW2 9393   3.186   0.866   1.813
 2945SOL     OW 9394   2.927   1.335   2.715
 2945SOL    HW1 9395   2.930   1.262   2.653
 2945SOL    HW2 9396   2.989   1.399   2.680
 2946SOL     OW 9397   2.172   0.810   2.810
 2946SOL    HW1 9398   2.265   0.831   2.803
 2946SOL    HW2 9399   2.170   0.720   2.843
 2947SOL     OW 9400   2.195   0.524   2.874
 2947SOL    HW1 9401   2.159   0.437   2.858
 2947SOL    HW2 9402   2.271   0.529   2.816
 2948SOL     OW 9403   2.998   0.378   3.549
 2948SOL    HW1 9404   2.950   0.433   3.611
 2948SOL    HW2 9405   3.085   0.417   3.544
 2949SOL     OW 9406   2.997   0.223   3.327
 2949SOL    HW1 9407   3.002   0.281   3.403
 2949SOL    HW2 9408   3.052   0.265   3.261
 2950SOL     OW 9409   1.866   1.322   2.057
 2950SOL    HW1 9410   1.780   1.336   2.019
 2950SOL    HW2 9411   1.865   1.232   2.090
 2951SOL     OW 9412   1.952   1.790   2.797
 2951SOL    HW1 9413   1.921   1.709   2.756
 2951SOL    HW2 9414   2.042   1.799   2.767
 2952SOL     OW 9415   2.360   1.573   2.767
 2952SOL    HW1 9416   2.428   1.635   2.790
 2952SOL    HW2 9417   2.403   1.508   2.712
 2953SOL     OW 9418   2.848   0.794   3.090
 2953SOL    HW1 9419   2.902   0.769   3.165
 2953SOL    HW2 9420   2.762   0.757   3.109
 2954SOL     OW 9421   1.897   0.543   2.979
 2954SOL    HW1 9422   1.978   0.528   2.929
 2954SOL    HW2 9423   1.926   0.548   3.070
 2955SOL     OW 9424   2.049   0.520   3.588
 2955SOL    HW1 9425   2.112   0.487   3.523
 2955SOL    HW2 9426   2.007   0.593   3.543
 2956SOL     OW 9427   3.238   0.940   3.521
 2956SOL    HW1 9428   3.259   1.034   3.520
 2956SOL    HW2 9429   3.236   0.916   3.429
 2957SOL     OW 9430   2.676   0.571   2.221
 2957SOL    HW1 9431   2.679   0.497   2.161
 2957SOL    HW2 9432   2.602   0.624   2.191
 2958SOL     OW 9433   3.505   0.601   3.050
 2958SOL    HW1 9434   3.493   0.542   3.124
 2958SOL    HW2 9435   3.592   0.581   3.015
 2959SOL     OW 9436   2.109   1.552   3.592
 2959SOL    HW1 9437   2.083   1.615   3.659
 2959SOL    HW2 9438   2.108   1.467   3.636
 2960SOL     OW 9439   2.557   0.453   3.124
 2960SOL    HW1 9440   2.508   0.379   3.089
 2960SOL    HW2 9441   2.558   0.517   3.053
 2961SOL     OW 9442   2.786   1.670   3.326
 2961SOL    HW1 9443   2.761   1.636   3.240
 2961SOL    HW2 9444   2.801   1.763   3.311
 2962SOL     OW 9445   2.327   0.493   2.047
 2962SOL    HW1 9446   2.386   0.565   2.069
 2962SOL    HW2 9447   2.241   0.534   2.038
 2963SOL     OW 9448   2.009   1.140   3.334
 2963SOL    HW1 9449   2.013   1.087   3.413
 2963SOL    HW2 9450   2.026   1.078   3.263
 2964SOL     OW 9451   3.190   1.048   3.086
 2964SOL    HW1 9452   3.214   0.985   3.018
 2964SOL    HW2 9453   3.118   1.099   3.048
 2965SOL     OW 9454   3.171   0.857   2.169
 2965SOL    HW1 9455   3.095   0.826   2.218
 2965SOL    HW2 9456   3.148   0.843   2.077
 2966SOL     OW 9457   3.630   1.746   3.010
 2966SOL    HW1 9458   3.692   1.772   2.941
 2966SOL    HW2 9459   3.608   1.655   2.990
 2967SOL     OW 9460   3.105   1.732   2.981
 2967SOL    HW1 9461   3.186   1.753   2.933
 2967SOL    HW2 9462   3.109   1.638   2.996
 2968SOL     OW 9463   1.945   1.267   2.875
 2968SOL    HW1 9464   1.932   1.278   2.969
 2968SOL    HW2 9465   1.872   1.212   2.846
 2969SOL     OW 9466   2.540   1.663   3.587
 2969SOL    HW1 9467   2.487   1.743   3.586
 2969SOL    HW2 9468   2.599   1.672   3.513
 2970SOL     OW 9469   3.575   0.146   2.367
 2970SOL    HW1 9470   3.651   0.126   2.312
 2970SOL    HW2 9471   3.567   0.071   2.425
 2971SOL     OW 9472   3.252   1.568   2.346
 2971SOL    HW1 9473   3.313   1.599   2.278
 2971SOL    HW2 9474   3.204   1.646   2.373
 2972SOL     OW 9475   2.001   1.798   3.708
 2972SOL    HW1 9476   1.948   1.732   3.753
 2972SOL    HW2 9477   2.045   1.846   3.778
 2973SOL     OW 9478   3.139   0.925   2.533
 2973SOL    HW1 9479   3.213   0.864   2.538
 2973SOL    HW2 9480   3.173   0.998   2.481
 2974SOL     OW 9481   2.679   1.272   3.292
 2974SOL    HW1 9482   2.652   1.311   3.376
 2974SOL    HW2 9483   2.608   1.294   3.232
 2975SOL     OW 9484   2.535   1.617   2.018
 2975SOL    HW1 9485   2.543   1.630   1.924
 2975SOL    HW2 9486   2.480   1.539   2.027
 2976SOL     OW 9487   3.491   1.727   3.253
 2976SOL    HW1 9488   3.540   1.734   3.172
 2976SOL    HW2 9489   3.477   1.818   3.281
 2977SOL     OW 9490   3.707   0.159   2.820
 2977SOL    HW1 9491   3.710   0.065   2.801
 2977SOL    HW2 9492   3.619   0.186   2.793
 2978SOL     OW 9493   2.126   0.328   2.582
 2978SOL    HW1 9494   2.038   0.360   2.559
 2978SOL    HW2 9495   2.122   0.316   2.677
 2979SOL     OW 9496   3.068   1.607   1.893
 2979SOL    HW1 9497   3.059   1.516   1.920
 2979SOL    HW2 9498   3.003   1.618   1.824
 2980SOL     OW 9499   2.686   1.006   3.234
 2980SOL    HW1 9500   2.730   1.002   3.149
 2980SOL    HW2 9501   2.687   1.098   3.257
 2981SOL     OW 9502   2.778   0.911   2.152
 2981SOL    HW1 9503   2.839   0.942   2.085
 2981SOL    HW2 9504   2.825   0.840   2.196
 2982SOL     OW 9505   3.355   1.624   1.904
 2982SOL    HW1 9506   3.261   1.620   1.892
 2982SOL    HW2 9507   3.391   1.631   1.816
 2983SOL     OW 9508   2.231   1.301   3.354
 2983SOL    HW1 9509   2.219   1.378   3.299
 2983SOL    HW2 9510   2.154   1.247   3.337
 2984SOL     OW 9511   3.473   1.283   3.143
 2984SOL    HW1 9512   3.533   1.274   3.217
 2984SOL    HW2 9513   3.413   1.353   3.168
 2985SOL     OW 9514   2.912   1.106   2.568
 2985SOL    HW1 9515   2.841   1.054   2.607
 2985SOL    HW2 9516   2.973   1.041   2.534
 2986SOL     OW 9517   2.882   0.242   2.829
 2986SOL    HW1 9518   2.862   0.196   2.748
 2986SOL    HW2 9519   2.874   0.175   2.897
 2987SOL     OW 9520   2.463   1.488   2.344
 2987SOL    HW1 9521   2.507   1.438   2.275
 2987SOL    HW2 9522   2.398   1.540   2.298
 2988SOL     OW 9523   3.584   0.387   3.240
 2988SOL    HW1 9524   3.654   0.453   3.240
 2988SOL    HW2 9525   3.617   0.318   3.183
 2989SOL     OW 9526   2.120   1.346   2.149
 2989SOL    HW1 9527   2.027   1.344   2.127
 2989SOL    HW2 9528   2.123   1.382   2.237
 2990SOL     OW 9529   1.974   1.019   3.581
 2990SOL    HW1 9530   1.898   0.997   3.635
 2990SOL    HW2 9531   2.049   0.983   3.629
 2991SOL     OW 9532   2.534   0.209   3.349
 2991SOL    HW1 9533   2.618   0.192   3.306
 2991SOL    HW2 9534   2.556   0.258   3.427
 2992SOL     OW 9535   1.939   0.340   1.903
 2992SOL    HW1 9536   1.855   0.307   1.869
 2992SOL    HW2 9537   1.961   0.413   1.845
 2993SOL     OW 9538   3.293   0.858   3.263
 2993SOL    HW1 9539   3.245   0.919   3.207
 2993SOL    HW2 9540   3.383   0.861   3.230
 2994SOL     OW 9541   1.934   0.167   2.178
 2994SOL    HW1 9542   1.933   0.250   2.130
 2994SOL    HW2 9543   2.019   0.128   2.158
 2995SOL     OW 9544   3.041   1.341   1.979
 2995SOL    HW1 9545   2.951   1.310   1.982
 2995SOL    HW2 9546   3.070   1.341   2.070
 2996SOL     OW 9547   2.481   0.831   3.295
 2996SOL    HW1 9548   2.536   0.908   3.280
 2996SOL    HW2 9549   2.542   0.758   3.303
 2997SOL     OW 9550   3.347   1.777   2.841
 2997SOL    HW1 9551   3.372   1.832   2.766
 2997SOL    HW2 9552   3.429   1.757   2.885
 2998SOL     OW 9553   2.578   0.571   3.566
 2998SOL    HW1 9554   2.616   0.635   3.626
 2998SOL    HW2 9555   2.612   0.487   3.596
 2999SOL     OW 9556   3.332   1.202   3.494
 2999SOL    HW1 9557   3.320   1.215   3.588
 2999SOL    HW2 9558   3.425   1.215   3.480
 3000SOL     OW 9559   2.243   1.736   3.421
 3000SOL    HW1 9560   2.156   1.774   3.407
 3000SOL    HW2 9561   2.226   1.651   3.461
 3001SOL     OW 9562   3.533   0.882   3.117
 3001SOL    HW1 9563   3.525   0.796   3.075
 3001SOL    HW2 9564   3.524   0.945   3.046
 3002SOL     OW 9565   3.082   0.320   2.328
 3002SOL    HW1 9566   3.146   0.249   2.320
 3002SOL    HW2 9567   3.114   0.371   2.403
 3003SOL     OW 9568   2.452   0.739   2.531
 3003SOL    HW1 9569   2.492   0.825   2.514
 3003SOL    HW2 9570   2.384   0.731   2.465
 3004SOL     OW 9571   3.629   0.361   3.510
 3004SOL    HW1 9572   3.609   0.375   3.418
 3004SOL    HW2 9573   3.559   0.305   3.542
 3005SOL     OW 9574   3.606   0.934   3.375
 3005SOL    HW1 9575   3.606   1.028   3.388
 3005SOL    HW2 9576   3.591   0.923   3.281
 3006SOL     OW 9577   2.723   1.368   1.893
 3006SOL    HW1 9578   2.685   1.395   1.977
 3006SOL    HW2 9579   2.743   1.450   1.848
 3007SOL     OW 9580   2.522   1.791   2.806
 3007SOL    HW1 9581   2.504   1.883   2.786
 3007SOL    HW2 9582   2.617   1.784   2.802
 3008SOL     OW 9583   2.728   0.965   2.718
 3008SOL    HW1 9584   2.779   0.895   2.758
 3008SOL    HW2 9585   2.695   1.016   2.792
 3009SOL     OW 9586   2.941   0.988   1.950
 3009SOL    HW1 9587   2.920   1.038   1.872
 3009SOL    HW2 9588   3.017   0.935   1.925
 3010SOL     OW 9589   3.717   1.555   2.707
 3010SOL    HW1 9590   3.640   1.544   2.651
 3010SOL    HW2 9591   3.709   1.488   2.774
 3011SOL     OW 9592   2.086   1.304   3.718
 3011SOL    HW1 9593   2.019   1.243   3.689
 3011SOL    HW2 9594   2.070   1.316   3.811
 3012SOL     OW 9595   1.945   1.235   2.526
 3012SOL    HW1 9596   1.949   1.185   2.608
 3012SOL    HW2 9597   2.014   1.196   2.472
 3013SOL     OW 9598   2.541   1.401   3.487
 3013SOL    HW1 9599   2.462   1.357   3.519
 3013SOL    HW2 9600   2.538   1.488   3.527
 3014SOL     OW 9601   3.679   0.179   3.096
 3014SOL    HW1 9602   3.648   0.089   3.105
 3014SOL    HW2 9603   3.693   0.190   3.002
 3015SOL     OW 9604   2.291   0.435   2.385
 3015SOL    HW1 9605   2.323   0.362   2.332
 3015SOL    HW2 9606   2.246   0.393   2.458
 3016SOL     OW 9607   3.563   1.490   2.960
 3016SOL    HW1 9608   3.482   1.465   2.916
 3016SOL    HW2 9609   3.577   1.422   3.026
 3017SOL     OW 9610   2.189   0.554   3.152
 3017SOL    HW1 9611   2.245   0.500   3.207
 3017SOL    HW2 9612   2.210   0.527   3.062
 3018SOL     OW 9613   2.688   1.577   2.540
 3018SOL    HW1 9614   2.679   1.627   2.459
 3018SOL    HW2 9615   2.610   1.522   2.542
 3019SOL     OW 9616   3.290   0.218   2.978
 3019SOL    HW1 9617   3.328   0.144   3.027
 3019SOL    HW2 9618   3.242   0.267   3.044
 3020SOL     OW 9619   2.864   0.022   3.004
 3020SOL    HW1 9620   2.814   5.252   2.964
 3020SOL    HW2 9621   2.952   5.285   3.017
 3021SOL     OW 9622   2.633   1.332   2.174
 3021SOL    HW1 9623   2.601   1.242   2.181
 3021SOL    HW2 9624   2.716   1.331   2.223
 3022SOL     OW 9625   2.482   1.559   3.147
 3022SOL    HW1 9626   2.487   1.639   3.200
 3022SOL    HW2 9627   2.569   1.550   3.107
 3023SOL     OW 9628   3.218   0.040   2.023
 3023SOL    HW1 9629   3.247   5.297   1.943
 3023SOL    HW2 9630   3.137   5.295   2.047
 3024SOL     OW 9631   3.163   0.463   2.548
 3024SOL    HW1 9632   3.108   0.541   2.554
 3024SOL    HW2 9633   3.157   0.422   2.634
 3025SOL     OW 9634   3.456   0.216   2.743
 3025SOL    HW1 9635   3.388   0.227   2.810
 3025SOL    HW2 9636   3.450   0.294   2.689
 3026SOL     OW 9637   1.905   1.072   2.167
 3026SOL    HW1 9638   1.999   1.064   2.150
 3026SOL    HW2 9639   1.877   0.984   2.190
 3027SOL     OW 9640   2.744   1.650   2.205
 3027SOL    HW1 9641   2.673   1.633   2.144
 3027SOL    HW2 9642   2.715   1.726   2.256
 3028SOL     OW 9643   2.091   0.625   3.846
 3028SOL    HW1 9644   2.002   0.623   3.880
 3028SOL    HW2 9645   2.082   0.598   3.754
 3029SOL     OW 9646   2.081   0.282   4.716
 3029SOL    HW1 9647   2.110   0.249   4.801
 3029SOL    HW2 9648   1.995   0.242   4.703
 3030SOL     OW 9649   1.867   0.384   4.363
 3030SOL    HW1 9650   1.783   0.406   4.403
 3030SOL    HW2 9651   1.849   0.307   4.309
 3031SOL     OW 9652   2.428   1.284   4.896
 3031SOL    HW1 9653   2.340   1.288   4.860
 3031SOL    HW2 9654   2.444   1.372   4.931
 3032SOL     OW 9655   3.420   1.512   4.430
 3032SOL    HW1 9656   3.377   1.494   4.513
 3032SOL    HW2 9657   3.349   1.517   4.366
 3033SOL     OW 9658   2.992   0.698   4.427
 3033SOL    HW1 9659   3.042   0.778   4.412
 3033SOL    HW2 9660   2.945   0.714   4.509
 3034SOL     OW 9661   3.627   0.607   3.953
 3034SOL    HW1 9662   3.608   0.598   3.860
 3034SOL    HW2 9663   3.593   0.527   3.993
 3035SOL     OW 9664   2.619   1.143   4.762
 3035SOL    HW1 9665   2.550   1.177   4.819
 3035SOL    HW2 9666   2.654   1.221   4.718
 3036SOL     OW 9667   2.725   0.780   5.545
 3036SOL    HW1 9668   2.714   0.852   5.608
 3036SOL    HW2 9669   2.749   0.823   5.464
 3037SOL     OW 9670   2.548   1.005   4.372
 3037SOL    HW1 9671   2.613   0.992   4.442
 3037SOL    HW2 9672   2.478   1.055   4.414
 3038SOL     OW 9673   2.571   1.151   5.534
 3038SOL    HW1 9674   2.619   1.230   5.560
 3038SOL    HW2 9675   2.487   1.184   5.500
 3039SOL     OW 9676   2.195   1.429   4.790
 3039SOL    HW1 9677   2.121   1.392   4.742
 3039SOL    HW2 9678   2.243   1.479   4.724
 3040SOL     OW 9679   3.323   1.499   5.076
 3040SOL    HW1 9680   3.370   1.582   5.086
 3040SOL    HW2 9681   3.264   1.496   5.151
 3041SOL     OW 9682   2.305   0.398   5.213
 3041SOL    HW1 9683   2.380   0.339   5.210
 3041SOL    HW2 9684   2.230   0.341   5.226
 3042SOL     OW 9685   3.473   0.452   4.461
 3042SOL    HW1 9686   3.398   0.477   4.409
 3042SOL    HW2 9687   3.494   0.529   4.513
 3043SOL     OW 9688   2.082   1.716   4.198
 3043SOL    HW1 9689   2.107   1.792   4.251
 3043SOL    HW2 9690   2.154   1.703   4.138
 3044SOL     OW 9691   2.998   1.341   5.415
 3044SOL    HW1 9692   3.038   1.337   5.502
 3044SOL    HW2 9693   2.945   1.261   5.410
 3045SOL     OW 9694   2.091   1.441   4.259
 3045SOL    HW1 9695   2.073   1.535   4.265
 3045SOL    HW2 9696   2.030   1.401   4.321
 3046SOL     OW 9697   2.117   1.090   4.614
 3046SOL    HW1 9698   2.115   1.004   4.656
 3046SOL    HW2 9699   2.059   1.144   4.668
 3047SOL     OW 9700   2.477   1.786   5.157
 3047SOL    HW1 9701   2.393   1.774   5.203
 3047SOL    HW2 9702   2.500   1.878   5.175
 3048SOL     OW 9703   2.449   0.981   3.857
 3048SOL    HW1 9704   2.494   1.031   3.788
 3048SOL    HW2 9705   2.490   1.010   3.938
 3049SOL     OW 9706   3.448   0.133   5.182
 3049SOL    HW1 9707   3.466   0.219   5.142
 3049SOL    HW2 9708   3.448   0.150   5.276
 3050SOL     OW 9709   1.976   0.652   4.283
 3050SOL    HW1 9710   1.948   0.563   4.305
 3050SOL    HW2 9711   1.968   0.700   4.366
 3051SOL     OW 9712   3.704   1.761   4.060
 3051SOL    HW1 9713   3.766   1.732   4.127
 3051SOL    HW2 9714   3.730   1.851   4.041
 3052SOL     OW 9715   1.892   1.596   3.847
 3052SOL    HW1 9716   1.875   1.504   3.867
 3052SOL    HW2 9717   1.868   1.643   3.928
 3053SOL     OW 9718   3.551   0.918   4.363
 3053SOL    HW1 9719   3.636   0.878   4.343
 3053SOL    HW2 9720   3.530   0.969   4.284
 3054SOL     OW 9721   3.507   1.107   4.154
 3054SOL    HW1 9722   3.592   1.115   4.111
 3054SOL    HW2 9723   3.512   1.168   4.227
 3055SOL     OW 9724   1.984   0.743   5.309
 3055SOL    HW1 9725   2.076   0.766   5.321
 3055SOL    HW2 9726   1.937   0.826   5.318
 3056SOL     OW 9727   2.470   1.383   4.458
 3056SOL    HW1 9728   2.427   1.298   4.466
 3056SOL    HW2 9729   2.456   1.409   4.367
 3057SOL     OW 9730   3.152   1.238   5.148
 3057SOL    HW1 9731   3.185   1.171   5.088
 3057SOL    HW2 9732   3.208   1.231   5.225
 3058SOL     OW 9733   2.671   0.023   4.248
 3058SOL    HW1 9734   2.700   0.112   4.225
 3058SOL    HW2 9735   2.575   0.028   4.243
 3059SOL     OW 9736   2.053   0.968   4.993
 3059SOL    HW1 9737   2.137   0.925   4.978
 3059SOL    HW2 9738   1.990   0.911   4.949
 3060SOL     OW 9739   3.394   0.992   3.921
 3060SOL    HW1 9740   3.324   0.935   3.952
 3060SOL    HW2 9741   3.434   1.026   4.001
 3061SOL     OW 9742   3.049   1.802   5.347
 3061SOL    HW1 9743   3.055   1.863   5.274
 3061SOL    HW2 9744   3.065   1.716   5.309
 3062SOL     OW 9745   2.187   0.264   5.533
 3062SOL    HW1 9746   2.239   0.340   5.558
 3062SOL    HW2 9747   2.101   0.280   5.571
 3063SOL     OW 9748   3.329   1.419   4.677
 3063SOL    HW1 9749   3.261   1.434   4.742
 3063SOL    HW2 9750   3.317   1.328   4.649
 3064SOL     OW 9751   3.522   1.736   4.302
 3064SOL    HW1 9752   3.500   1.708   4.213
 3064SOL    HW2 9753   3.496   1.663   4.358
 3065SOL     OW 9754   2.457   0.722   3.989
 3065SOL    HW1 9755   2.465   0.803   3.937
 3065SOL    HW2 9756   2.392   0.742   4.056
 3066SOL     OW 9757   3.141   0.344   4.654
 3066SOL    HW1 9758   3.050   0.317   4.667
 3066SOL    HW2 9759   3.190   0.295   4.720
 3067SOL     OW 9760   3.444   1.668   4.033
 3067SOL    HW1 9761   3.533   1.702   4.026
 3067SOL    HW2 9762   3.417   1.652   3.943
 3068SOL     OW 9763   2.657   0.617   5.175
 3068SOL    HW1 9764   2.629   0.596   5.265
 3068SOL    HW2 9765   2.613   0.552   5.121
 3069SOL     OW 9766   3.257   0.475   5.402
 3069SOL    HW1 9767   3.258   0.519   5.487
 3069SOL    HW2 9768   3.321   0.404   5.411
 3070SOL     OW 9769   2.818   0.888   5.305
 3070SOL    HW1 9770   2.873   0.817   5.271
 3070SOL    HW2 9771   2.771   0.922   5.229
 3071SOL     OW 9772   2.856   0.416   4.961
 3071SOL    HW1 9773   2.773   0.440   5.001
 3071SOL    HW2 9774   2.831   0.368   4.882
 3072SOL     OW 9775   2.912   0.698   4.151
 3072SOL    HW1 9776   2.927   0.691   4.245
 3072SOL    HW2 9777   2.829   0.652   4.136
 3073SOL     OW 9778   1.950   0.820   4.500
 3073SOL    HW1 9779   2.032   0.813   4.550
 3073SOL    HW2 9780   1.908   0.899   4.535
 3074SOL     OW 9781   1.989   1.845   5.302
 3074SOL    HW1 9782   1.988   1.824   5.395
 3074SOL    HW2 9783   1.897   1.840   5.275
 3075SOL     OW 9784   2.732   0.361   3.913
 3075SOL    HW1 9785   2.779   0.421   3.855
 3075SOL    HW2 9786   2.781   0.279   3.907
 3076SOL     OW 9787   3.571   0.576   5.552
 3076SOL    HW1 9788   3.534   0.651   5.505
 3076SOL    HW2 9789   3.598   0.516   5.483
 3077SOL     OW 9790   3.237   1.142   4.266
 3077SOL    HW1 9791   3.316   1.129   4.213
 3077SOL    HW2 9792   3.185   1.205   4.215
 3078SOL     OW 9793   2.392   0.201   4.607
 3078SOL    HW1 9794   2.413   0.216   4.699
 3078SOL    HW2 9795   2.412   0.284   4.564
 3079SOL     OW 9796   2.869   1.443   4.197
 3079SOL    HW1 9797   2.829   1.516   4.148
 3079SOL    HW2 9798   2.860   1.469   4.289
 3080SOL     OW 9799   2.208   1.789   4.574
 3080SOL    HW1 9800   2.256   1.707   4.583
 3080SOL    HW2 9801   2.265   1.855   4.612
 3081SOL     OW 9802   3.660   1.058   4.591
 3081SOL    HW1 9803   3.604   1.042   4.515
 3081SOL    HW2 9804   3.600   1.064   4.665
 3082SOL     OW 9805   3.092   1.538   5.236
 3082SOL    HW1 9806   3.075   1.465   5.296
 3082SOL    HW2 9807   3.026   1.528   5.167
 3083SOL     OW 9808   2.183   0.956   3.973
 3083SOL    HW1 9809   2.265   0.975   3.928
 3083SOL    HW2 9810   2.152   0.875   3.934
 3084SOL     OW 9811   3.339   0.740   4.452
 3084SOL    HW1 9812   3.329   0.696   4.536
 3084SOL    HW2 9813   3.416   0.796   4.462
 3085SOL     OW 9814   2.327   1.263   5.462
 3085SOL    HW1 9815   2.299   1.268   5.370
 3085SOL    HW2 9816   2.245   1.263   5.511
 3086SOL     OW 9817   2.983   1.778   3.954
 3086SOL    HW1 9818   2.912   1.734   4.001
 3086SOL    HW2 9819   3.006   1.717   3.884
 3087SOL     OW 9820   2.059   0.277   5.225
 3087SOL    HW1 9821   1.981   0.333   5.219
 3087SOL    HW2 9822   2.049   0.231   5.308
 3088SOL     OW 9823   3.491   1.379   3.811
 3088SOL    HW1 9824   3.450   1.464   3.796
 3088SOL    HW2 9825   3.421   1.316   3.792
 3089SOL     OW 9826   2.327   1.728   4.051
 3089SOL    HW1 9827   2.367   1.790   4.113
 3089SOL    HW2 9828   2.393   1.716   3.983
 3090SOL     OW 9829   3.268   0.099   4.155
 3090SOL    HW1 9830   3.259   0.082   4.061
 3090SOL    HW2 9831   3.360   0.122   4.166
 3091SOL     OW 9832   2.097   1.778   4.961
 3091SOL    HW1 9833   2.167   1.728   5.004
 3091SOL    HW2 9834   2.108   1.759   4.868
 3092SOL     OW 9835   2.805   1.694   4.631
 3092SOL    HW1 9836   2.882   1.639   4.644
 3092SOL    HW2 9837   2.755   1.650   4.562
 3093SOL     OW 9838   2.253   0.696   4.201
 3093SOL    HW1 9839   2.276   0.603   4.211
 3093SOL    HW2 9840   2.159   0.700   4.219
 3094SOL     OW 9841   3.403   0.228   5.448
 3094SOL    HW1 9842   3.409   0.246   5.542
 3094SOL    HW2 9843   3.328   0.168   5.441
 3095SOL     OW 9844   2.485   0.133   3.831
 3095SOL    HW1 9845   2.554   0.069   3.853
 3095SOL    HW2 9846   2.435   0.091   3.761
 3096SOL     OW 9847   2.646   0.313   5.490
 3096SOL    HW1 9848   2.702   0.235   5.493
 3096SOL    HW2 9849   2.594   0.307   5.570
 3097SOL     OW 9850   2.731   1.509   4.921
 3097SOL    HW1 9851   2.725   1.482   4.829
 3097SOL    HW2 9852   2.808   1.464   4.955
 3098SOL     OW 9853   3.204   0.588   5.156
 3098SOL    HW1 9854   3.234   0.557   5.241
 3098SOL    HW2 9855   3.239   0.677   5.149
 3099SOL     OW 9856   2.673   1.397   4.658
 3099SOL    HW1 9857   2.759   1.387   4.616
 3099SOL    HW2 9858   2.611   1.393   4.586
 3100SOL     OW 9859   2.789   0.510   4.628
 3100SOL    HW1 9860   2.765   0.502   4.535
 3100SOL    HW2 9861   2.822   0.423   4.652
 3101SOL     OW 9862   2.404   0.063   4.233
 3101SOL    HW1 9863   2.318   0.063   4.276
 3101SOL    HW2 9864   2.398   0.134   4.169
 3102SOL     OW 9865   3.290   1.197   3.765
 3102SOL    HW1 9866   3.321   1.122   3.815
 3102SOL    HW2 9867   3.205   1.218   3.803
 3103SOL     OW 9868   2.163   0.060   3.913
 3103SOL    HW1 9869   2.222   0.129   3.883
 3103SOL    HW2 9870   2.220   5.285   3.929
 3104SOL     OW 9871   2.801   0.257   4.186
 3104SOL    HW1 9872   2.772   0.298   4.104
 3104SOL    HW2 9873   2.895   0.270   4.187
 3105SOL     OW 9874   2.942   0.680   5.184
 3105SOL    HW1 9875   2.873   0.615   5.190
 3105SOL    HW2 9876   3.023   0.629   5.177
 3106SOL     OW 9877   3.087   1.568   4.516
 3106SOL    HW1 9878   3.101   1.638   4.453
 3106SOL    HW2 9879   3.152   1.584   4.585
 3107SOL     OW 9880   2.329   1.148   4.459
 3107SOL    HW1 9881   2.259   1.129   4.522
 3107SOL    HW2 9882   2.290   1.131   4.374
 3108SOL     OW 9883   3.137   1.791   4.329
 3108SOL    HW1 9884   3.177   1.859   4.274
 3108SOL    HW2 9885   3.060   1.834   4.367
 3109SOL     OW 9886   2.889   0.548   3.744
 3109SOL    HW1 9887   2.846   0.631   3.726
 3109SOL    HW2 9888   2.952   0.568   3.814
 3110SOL     OW 9889   1.939   0.554   5.117
 3110SOL    HW1 9890   2.031   0.553   5.088
 3110SOL    HW2 9891   1.934   0.625   5.181
 3111SOL     OW 9892   2.419   0.237   4.881
 3111SOL    HW1 9893   2.449   0.151   4.909
 3111SOL    HW2 9894   2.327   0.240   4.908
 3112SOL     OW 9895   2.730   0.461   4.365
 3112SOL    HW1 9896   2.684   0.515   4.300
 3112SOL    HW2 9897   2.751   0.381   4.318
 3113SOL     OW 9898   2.841   0.061   4.485
 3113SOL    HW1 9899   2.776   0.053   4.416
 3113SOL    HW2 9900   2.850   5.271   4.519
 3114SOL     OW 9901   3.299   1.163   4.582
 3114SOL    HW1 9902   3.230   1.096   4.580
 3114SOL    HW2 9903   3.322   1.176   4.490
 3115SOL     OW 9904   3.329   0.604   4.704
 3115SOL    HW1 9905   3.281   0.521   4.708
 3115SOL    HW2 9906   3.390   0.600   4.777
 3116SOL     OW 9907   3.709   0.818   4.106
 3116SOL    HW1 9908   3.764   0.766   4.164
 3116SOL    HW2 9909   3.680   0.756   4.039
 3117SOL     OW 9910   2.353   1.416   3.882
 3117SOL    HW1 9911   2.279   1.386   3.935
 3117SOL    HW2 9912   2.335   1.382   3.794
 3118SOL     OW 9913   3.531   1.265   4.372
 3118SOL    HW1 9914   3.625   1.270   4.384
 3118SOL    HW2 9915   3.499   1.353   4.392
 3119SOL     OW 9916   3.256   0.572   3.795
 3119SOL    HW1 9917   3.195   0.553   3.867
 3119SOL    HW2 9918   3.341   0.541   3.826
 3120SOL     OW 9919   2.386   0.264   4.046
 3120SOL    HW1 9920   2.429   0.215   3.976
 3120SOL    HW2 9921   2.367   0.349   4.007
 3121SOL     OW 9922   3.615   1.237   5.299
 3121SOL    HW1 9923   3.703   1.199   5.296
 3121SOL    HW2 9924   3.630   1.327   5.328
 3122SOL     OW 9925   2.923   1.351   5.056
 3122SOL    HW1 9926   2.848   1.323   5.108
 3122SOL    HW2 9927   2.999   1.312   5.099
 3123SOL     OW 9928   3.469   1.625   5.377
 3123SOL    HW1 9929   3.464   1.659   5.288
 3123SOL    HW2 9930   3.552   1.578   5.380
 3124SOL     OW 9931   2.987   1.199   4.830
 3124SOL    HW1 9932   2.932   1.240   4.896
 3124SOL    HW2 9933   2.954   1.234   4.747
 3125SOL     OW 9934   3.492   1.099   4.802
 3125SOL    HW1 9935   3.488   1.161   4.875
 3125SOL    HW2 9936   3.412   1.115   4.752
 3126SOL     OW 9937   2.768   0.105   5.116
 3126SOL    HW1 9938   2.798   0.072   5.031
 3126SOL    HW2 9939   2.845   0.147   5.154
 3127SOL     OW 9940   2.846   1.114   5.447
 3127SOL    HW1 9941   2.754   1.130   5.466
 3127SOL    HW2 9942   2.846   1.037   5.390
 3128SOL     OW 9943   2.570   1.060   4.096
 3128SOL    HW1 9944   2.557   1.045   4.189
 3128SOL    HW2 9945   2.646   1.007   4.073
 3129SOL     OW 9946   2.279   0.814   4.975
 3129SOL    HW1 9947   2.348   0.824   5.041
 3129SOL    HW2 9948   2.244   0.726   4.990
 3130SOL     OW 9949   3.130   0.379   4.995
 3130SOL    HW1 9950   3.162   0.456   5.042
 3130SOL    HW2 9951   3.040   0.402   4.972
 3131SOL     OW 9952   1.930   1.571   5.074
 3131SOL    HW1 9953   1.899   1.646   5.024
 3131SOL    HW2 9954   2.025   1.579   5.073
 3132SOL     OW 9955   2.213   1.107   4.215
 3132SOL    HW1 9956   2.219   1.181   4.154
 3132SOL    HW2 9957   2.212   1.030   4.160
 3133SOL     OW 9958   2.417   0.538   4.585
 3133SOL    HW1 9959   2.433   0.596   4.510
 3133SOL    HW2 9960   2.481   0.566   4.651
 3134SOL     OW 9961   3.110   1.348   4.113
 3134SOL    HW1 9962   3.165   1.420   4.143
 3134SOL    HW2 9963   3.023   1.369   4.147
 3135SOL     OW 9964   3.142   1.454   4.870
 3135SOL    HW1 9965   3.197   1.458   4.949
 3135SOL    HW2 9966   3.084   1.379   4.885
 3136SOL     OW 9967   3.445   0.624   4.201
 3136SOL    HW1 9968   3.400   0.679   4.265
 3136SOL    HW2 9969   3.490   0.685   4.143
 3137SOL     OW 9970   2.211   1.518   5.043
 3137SOL    HW1 9971   2.198   1.480   4.956
 3137SOL    HW2 9972   2.305   1.536   5.047
 3138SOL     OW 9973   2.275   0.744   5.325
 3138SOL    HW1 9974   2.336   0.790   5.268
 3138SOL    HW2 9975   2.318   0.661   5.343
 3139SOL     OW 9976   3.461   0.778   5.404
 3139SOL    HW1 9977   3.375   0.819   5.397
 3139SOL    HW2 9978   3.513   0.820   5.336
 3140SOL     OW 9979   2.901   0.114   5.506
 3140SOL    HW1 9980   2.926   0.194   5.459
 3140SOL    HW2 9981   2.910   0.045   5.441
 3141SOL     OW 9982   2.344   0.056   5.464
 3141SOL    HW1 9983   2.289   5.292   5.419
 3141SOL    HW2 9984   2.285   0.128   5.485
 3142SOL     OW 9985   2.445   0.872   4.755
 3142SOL    HW1 9986   2.476   0.963   4.753
 3142SOL    HW2 9987   2.388   0.868   4.832
 3143SOL     OW 9988   3.222   0.859   4.756
 3143SOL    HW1 9989   3.140   0.852   4.707
 3143SOL    HW2 9990   3.260   0.771   4.752
 3144SOL     OW 9991   3.069   0.529   3.993
 3144SOL    HW1 9992   3.073   0.448   4.043
 3144SOL    HW2 9993   3.027   0.592   4.051
 3145SOL     OW 9994   2.160   0.205   4.970
 3145SOL    HW1 9995   2.122   0.244   5.049
 3145SOL    HW2 9996   2.156   0.111   4.986
 3146SOL     OW 9997   1.906   1.310   5.001
 3146SOL    HW1 9998   1.941   1.257   5.073
 3146SOL    HW2 9999   1.915   1.401   5.031
 3147SOL     OW10000   2.588   0.632   4.785
 3147SOL    HW110001   2.661   0.614   4.725
 3147SOL    HW210002   2.560   0.721   4.762
 3148SOL     OW10003   3.596   0.959   5.575
 3148SOL    HW110004   3.548   0.901   5.516
 3148SOL    HW210005   3.536   0.972   5.649
 3149SOL     OW10006   2.162   0.073   4.370
 3149SOL    HW110007   2.149   0.167   4.382
 3149SOL    HW210008   2.199   0.044   4.453
 3150SOL     OW10009   3.472   0.373   4.091
 3150SOL    HW110010   3.506   0.310   4.155
 3150SOL    HW210011   3.452   0.451   4.142
 3151SOL     OW10012   2.889   0.759   4.685
 3151SOL    HW110013   2.888   0.777   4.779
 3151SOL    HW210014   2.862   0.668   4.678
 3152SOL     OW10015   2.844   1.565   5.440
 3152SOL    HW110016   2.828   1.609   5.356
 3152SOL    HW210017   2.888   1.483   5.416
 3153SOL     OW10018   3.718   1.507   5.330
 3153SOL    HW110019   3.734   1.533   5.239
 3153SOL    HW210020   3.799   1.528   5.376
 3154SOL     OW10021   2.215   0.915   5.533
 3154SOL    HW110022   2.297   0.935   5.577
 3154SOL    HW210023   2.239   0.853   5.464
 3155SOL     OW10024   3.390   0.273   3.850
 3155SOL    HW110025   3.326   0.208   3.881
 3155SOL    HW210026   3.425   0.311   3.931
 3156SOL     OW10027   3.155   0.827   3.756
 3156SOL    HW110028   3.197   0.741   3.760
 3156SOL    HW210029   3.186   0.866   3.675
 3157SOL     OW10030   2.926   1.336   4.577
 3157SOL    HW110031   2.930   1.263   4.515
 3157SOL    HW210032   2.990   1.399   4.543
 3158SOL     OW10033   2.172   0.810   4.672
 3158SOL    HW110034   2.265   0.831   4.665
 3158SOL    HW210035   2.170   0.720   4.705
 3159SOL     OW10036   2.195   0.524   4.736
 3159SOL    HW110037   2.159   0.437   4.719
 3159SOL    HW210038   2.271   0.530   4.678
 3160SOL     OW10039   2.998   0.378   5.411
 3160SOL    HW110040   2.950   0.433   5.473
 3160SOL    HW210041   3.085   0.417   5.406
 3161SOL     OW10042   2.997   0.222   5.189
 3161SOL    HW110043   3.002   0.281   5.265
 3161SOL    HW210044   3.052   0.265   5.123
 3162SOL     OW10045   1.867   1.322   3.919
 3162SOL    HW110046   1.780   1.336   3.881
 3162SOL    HW210047   1.865   1.232   3.952
 3163SOL     OW10048   1.942   1.790   4.658
 3163SOL    HW110049   1.917   1.707   4.616
 3163SOL    HW210050   2.032   1.805   4.629
 3164SOL     OW10051   2.373   1.578   4.626
 3164SOL    HW110052   2.455   1.607   4.667
 3164SOL    HW210053   2.399   1.506   4.568
 3165SOL     OW10054   2.848   0.793   4.951
 3165SOL    HW110055   2.902   0.769   5.026
 3165SOL    HW210056   2.762   0.758   4.972
 3166SOL     OW10057   1.897   0.542   4.841
 3166SOL    HW110058   1.978   0.528   4.791
 3166SOL    HW210059   1.926   0.548   4.932
 3167SOL     OW10060   2.049   0.520   5.449
 3167SOL    HW110061   2.113   0.487   5.385
 3167SOL    HW210062   2.007   0.593   5.405
 3168SOL     OW10063   3.238   0.940   5.383
 3168SOL    HW110064   3.259   1.034   5.382
 3168SOL    HW210065   3.236   0.915   5.291
 3169SOL     OW10066   2.676   0.571   4.083
 3169SOL    HW110067   2.679   0.497   4.023
 3169SOL    HW210068   2.602   0.624   4.053
 3170SOL     OW10069   3.505   0.601   4.912
 3170SOL    HW110070   3.493   0.542   4.986
 3170SOL    HW210071   3.592   0.580   4.877
 3171SOL     OW10072   2.106   1.552   5.453
 3171SOL    HW110073   2.084   1.616   5.521
 3171SOL    HW210074   2.107   1.468   5.499
 3172SOL     OW10075   2.557   0.453   4.986
 3172SOL    HW110076   2.508   0.379   4.951
 3172SOL    HW210077   2.558   0.517   4.915
 3173SOL     OW10078   2.793   1.670   5.190
 3173SOL    HW110079   2.772   1.644   5.100
 3173SOL    HW210080   2.788   1.766   5.189
 3174SOL     OW10081   2.327   0.493   3.909
 3174SOL    HW110082   2.386   0.565   3.931
 3174SOL    HW210083   2.241   0.534   3.900
 3175SOL     OW10084   2.008   1.140   5.196
 3175SOL    HW110085   2.013   1.087   5.275
 3175SOL    HW210086   2.026   1.078   5.125
 3176SOL     OW10087   3.190   1.048   4.948
 3176SOL    HW110088   3.214   0.985   4.880
 3176SOL    HW210089   3.118   1.098   4.910
 3177SOL     OW10090   3.172   0.856   4.031
 3177SOL    HW110091   3.095   0.826   4.080
 3177SOL    HW210092   3.148   0.843   3.939
 3178SOL     OW10093   3.631   1.746   4.872
 3178SOL    HW110094   3.693   1.771   4.803
 3178SOL    HW210095   3.608   1.655   4.852
 3179SOL     OW10096   3.111   1.727   4.833
 3179SOL    HW110097   3.194   1.747   4.790
 3179SOL    HW210098   3.116   1.634   4.852
 3180SOL     OW10099   1.947   1.266   4.738
 3180SOL    HW110100   1.932   1.278   4.832
 3180SOL    HW210101   1.872   1.213   4.709
 3181SOL     OW10102   2.539   1.664   5.449
 3181SOL    HW110103   2.487   1.745   5.449
 3181SOL    HW210104   2.602   1.676   5.378
 3182SOL     OW10105   3.575   0.146   4.228
 3182SOL    HW110106   3.651   0.126   4.173
 3182SOL    HW210107   3.567   0.071   4.287
 3183SOL     OW10108   3.252   1.567   4.207
 3183SOL    HW110109   3.313   1.599   4.140
 3183SOL    HW210110   3.206   1.646   4.237
 3184SOL     OW10111   1.995   1.798   5.568
 3184SOL    HW110112   1.946   1.732   5.617
 3184SOL    HW210113   2.045   1.845   5.635
 3185SOL     OW10114   3.139   0.924   4.395
 3185SOL    HW110115   3.213   0.864   4.400
 3185SOL    HW210116   3.172   0.998   4.343
 3186SOL     OW10117   2.680   1.271   5.156
 3186SOL    HW110118   2.652   1.311   5.239
 3186SOL    HW210119   2.613   1.297   5.093
 3187SOL     OW10120   2.540   1.611   3.879
 3187SOL    HW110121   2.545   1.625   3.785
 3187SOL    HW210122   2.482   1.536   3.889
 3188SOL     OW10123   3.493   1.726   5.116
 3188SOL    HW110124   3.540   1.734   5.033
 3188SOL    HW210125   3.480   1.816   5.145
 3189SOL     OW10126   3.707   0.159   4.682
 3189SOL    HW110127   3.710   0.065   4.663
 3189SOL    HW210128   3.619   0.186   4.655
 3190SOL     OW10129   2.126   0.328   4.444
 3190SOL    HW110130   2.038   0.360   4.421
 3190SOL    HW210131   2.122   0.316   4.539
 3191SOL     OW10132   3.069   1.606   3.758
 3191SOL    HW110133   3.058   1.514   3.782
 3191SOL    HW210134   3.007   1.620   3.687
 3192SOL     OW10135   2.686   1.006   5.095
 3192SOL    HW110136   2.730   1.003   5.010
 3192SOL    HW210137   2.687   1.098   5.120
 3193SOL     OW10138   2.778   0.910   4.014
 3193SOL    HW110139   2.839   0.942   3.947
 3193SOL    HW210140   2.825   0.840   4.058
 3194SOL     OW10141   3.356   1.623   3.766
 3194SOL    HW110142   3.261   1.620   3.755
 3194SOL    HW210143   3.391   1.630   3.677
 3195SOL     OW10144   2.231   1.300   5.217
 3195SOL    HW110145   2.220   1.378   5.162
 3195SOL    HW210146   2.153   1.247   5.199
 3196SOL     OW10147   3.474   1.283   5.005
 3196SOL    HW110148   3.533   1.274   5.079
 3196SOL    HW210149   3.413   1.353   5.031
 3197SOL     OW10150   2.911   1.106   4.430
 3197SOL    HW110151   2.841   1.054   4.469
 3197SOL    HW210152   2.973   1.041   4.396
 3198SOL     OW10153   2.882   0.242   4.691
 3198SOL    HW110154   2.862   0.196   4.610
 3198SOL    HW210155   2.874   0.175   4.759
 3199SOL     OW10156   2.463   1.489   4.205
 3199SOL    HW110157   2.507   1.438   4.137
 3199SOL    HW210158   2.400   1.543   4.158
 3200SOL     OW10159   3.584   0.387   5.102
 3200SOL    HW110160   3.654   0.453   5.102
 3200SOL    HW210161   3.617   0.318   5.045
 3201SOL     OW10162   2.120   1.346   4.011
 3201SOL    HW110163   2.027   1.344   3.990
 3201SOL    HW210164   2.124   1.383   4.100
 3202SOL     OW10165   1.974   1.019   5.443
 3202SOL    HW110166   1.898   0.997   5.497
 3202SOL    HW210167   2.049   0.983   5.491
 3203SOL     OW10168   2.534   0.209   5.211
 3203SOL    HW110169   2.618   0.192   5.168
 3203SOL    HW210170   2.556   0.258   5.289
 3204SOL     OW10171   1.939   0.340   3.764
 3204SOL    HW110172   1.855   0.308   3.731
 3204SOL    HW210173   1.961   0.413   3.707
 3205SOL     OW10174   3.293   0.858   5.125
 3205SOL    HW110175   3.244   0.919   5.069
 3205SOL    HW210176   3.383   0.861   5.092
 3206SOL     OW10177   1.934   0.167   4.040
 3206SOL    HW110178   1.933   0.250   3.993
 3206SOL    HW210179   2.019   0.128   4.020
 3207SOL     OW10180   3.041   1.339   3.841
 3207SOL    HW110181   2.950   1.310   3.845
 3207SOL    HW210182   3.070   1.340   3.932
 3208SOL     OW10183   2.481   0.831   5.156
 3208SOL    HW110184   2.535   0.908   5.142
 3208SOL    HW210185   2.543   0.758   5.165
 3209SOL     OW10186   3.350   1.774   4.698
 3209SOL    HW110187   3.379   1.826   4.623
 3209SOL    HW210188   3.428   1.764   4.752
 3210SOL     OW10189   2.578   0.571   5.428
 3210SOL    HW110190   2.616   0.636   5.488
 3210SOL    HW210191   2.612   0.487   5.458
 3211SOL     OW10192   3.332   1.201   5.357
 3211SOL    HW110193   3.320   1.215   5.450
 3211SOL    HW210194   3.426   1.215   5.342
 3212SOL     OW10195   2.242   1.739   5.287
 3212SOL    HW110196   2.157   1.780   5.273
 3212SOL    HW210197   2.222   1.656   5.329
 3213SOL     OW10198   3.533   0.882   4.979
 3213SOL    HW110199   3.525   0.797   4.936
 3213SOL    HW210200   3.524   0.946   4.909
 3214SOL     OW10201   3.082   0.320   4.190
 3214SOL    HW110202   3.146   0.249   4.182
 3214SOL    HW210203   3.113   0.371   4.265
 3215SOL     OW10204   2.453   0.739   4.392
 3215SOL    HW110205   2.492   0.825   4.376
 3215SOL    HW210206   2.384   0.732   4.326
 3216SOL     OW10207   3.629   0.361   5.372
 3216SOL    HW110208   3.609   0.375   5.280
 3216SOL    HW210209   3.559   0.305   5.404
 3217SOL     OW10210   3.606   0.934   5.237
 3217SOL    HW110211   3.606   1.028   5.250
 3217SOL    HW210212   3.591   0.923   5.143
 3218SOL     OW10213   2.722   1.369   3.755
 3218SOL    HW110214   2.684   1.396   3.839
 3218SOL    HW210215   2.744   1.450   3.711
 3219SOL     OW10216   2.728   0.965   4.580
 3219SOL    HW110217   2.779   0.895   4.620
 3219SOL    HW210218   2.695   1.016   4.654
 3220SOL     OW10219   2.941   0.987   3.812
 3220SOL    HW110220   2.920   1.038   3.734
 3220SOL    HW210221   3.017   0.935   3.787
 3221SOL     OW10222   3.717   1.555   4.569
 3221SOL    HW110223   3.640   1.544   4.514
 3221SOL    HW210224   3.708   1.489   4.637
 3222SOL     OW10225   2.086   1.304   5.580
 3222SOL    HW110226   2.018   1.243   5.552
 3222SOL    HW210227   2.070   1.316   5.674
 3223SOL     OW10228   1.946   1.234   4.387
 3223SOL    HW110229   1.949   1.186   4.470
 3223SOL    HW210230   2.015   1.195   4.334
 3224SOL     OW10231   2.542   1.401   5.350
 3224SOL    HW110232   2.462   1.359   5.382
 3224SOL    HW210233   2.538   1.490   5.386
 3225SOL     OW10234   3.679   0.179   4.958
 3225SOL    HW110235   3.648   0.089   4.967
 3225SOL    HW210236   3.693   0.190   4.864
 3226SOL     OW10237   2.291   0.435   4.247
 3226SOL    HW110238   2.323   0.362   4.194
 3226SOL    HW210239   2.246   0.393   4.320
 3227SOL     OW10240   3.564   1.490   4.822
 3227SOL    HW110241   3.482   1.466   4.778
 3227SOL    HW210242   3.576   1.422   4.888
 3228SOL     OW10243   2.189   0.554   5.014
 3228SOL    HW110244   2.245   0.500   5.069
 3228SOL    HW210245   2.210   0.527   4.924
 3229SOL     OW10246   2.683   1.581   4.405
 3229SOL    HW110247   2.682   1.624   4.320
 3229SOL    HW210248   2.607   1.522   4.403
 3230SOL     OW10249   3.290   0.218   4.841
 3230SOL    HW110250   3.328   0.144   4.889
 3230SOL    HW210251   3.242   0.267   4.906
 3231SOL     OW10252   2.864   0.022   4.866
 3231SOL    HW110253   2.814   5.252   4.826
 3231SOL    HW210254   2.952   5.285   4.879
 3232SOL     OW10255   2.633   1.332   4.038
 3232SOL    HW110256   2.601   1.241   4.044
 3232SOL    HW210257   2.716   1.331   4.085
 3233SOL     OW10258   2.480   1.562   5.003
 3233SOL    HW110259   2.485   1.641   5.057
 3233SOL    HW210260   2.569   1.548   4.973
 3234SOL     OW10261   3.218   0.040   3.885
 3234SOL    HW110262   3.247   5.297   3.805
 3234SOL    HW210263   3.137   5.295   3.909
 3235SOL     OW10264   3.163   0.463   4.410
 3235SOL    HW110265   3.108   0.541   4.416
 3235SOL    HW210266   3.157   0.422   4.496
 3236SOL     OW10267   3.456   0.216   4.605
 3236SOL    HW110268   3.388   0.227   4.672
 3236SOL    HW210269   3.450   0.294   4.551
 3237SOL     OW10270   1.905   1.072   4.029
 3237SOL    HW110271   1.999   1.064   4.012
 3237SOL    HW210272   1.877   0.984   4.052
 3238SOL     OW10273   2.744   1.649   4.069
 3238SOL    HW110274   2.673   1.632   4.007
 3238SOL    HW210275   2.714   1.726   4.118
 3239SOL     OW10276   2.091   0.624   5.708
 3239SOL    HW110277   2.002   0.623   5.742
 3239SOL    HW210278   2.082   0.598   5.616
 3240SOL     OW10279   2.081   0.282   6.578
 3240SOL    HW110280   2.110   0.249   6.663
 3240SOL    HW210281   1.995   0.243   6.565
 3241SOL     OW10282   1.867   0.384   6.225
 3241SOL    HW110283   1.783   0.406   6.265
 3241SOL    HW210284   1.850   0.307   6.171
 3242SOL     OW10285   2.428   1.284   6.759
 3242SOL    HW110286   2.341   1.288   6.721
 3242SOL    HW210287   2.444   1.373   6.793
 3243SOL     OW10288   3.421   1.511   6.292
 3243SOL    HW110289   3.377   1.493   6.375
 3243SOL    HW210290   3.350   1.516   6.228
 3244SOL     OW10291   2.992   0.698   6.290
 3244SOL    HW110292   3.042   0.778   6.274
 3244SOL    HW210293   2.945   0.714   6.371
 3245SOL     OW10294   3.627   0.607   5.816
 3245SOL    HW110295   3.608   0.599   5.722
 3245SOL    HW210296   3.593   0.527   5.855
 3246SOL     OW10297   2.620   1.143   6.625
 3246SOL    HW110298   2.550   1.177   6.681
 3246SOL    HW210299   2.654   1.221   6.580
 3247SOL     OW10300   2.724   0.782   7.407
 3247SOL    HW110301   2.712   0.856   7.465
 3247SOL    HW210302   2.750   0.821   7.323
 3248SOL     OW10303   2.548   1.005   6.234
 3248SOL    HW110304   2.613   0.992   6.304
 3248SOL    HW210305   2.478   1.056   6.275
 3249SOL     OW10306   2.570   1.152   7.396
 3249SOL    HW110307   2.618   1.230   7.422
 3249SOL    HW210308   2.487   1.184   7.362
 3250SOL     OW10309   2.192   1.428   6.654
 3250SOL    HW110310   2.121   1.391   6.602
 3250SOL    HW210311   2.244   1.478   6.590
 3251SOL     OW10312   3.323   1.499   6.938
 3251SOL    HW110313   3.370   1.581   6.948
 3251SOL    HW210314   3.266   1.495   7.014
 3252SOL     OW10315   2.305   0.399   7.076
 3252SOL    HW110316   2.380   0.340   7.072
 3252SOL    HW210317   2.230   0.341   7.088
 3253SOL     OW10318   3.473   0.452   6.323
 3253SOL    HW110319   3.398   0.477   6.271
 3253SOL    HW210320   3.494   0.530   6.375
 3254SOL     OW10321   2.082   1.714   6.059
 3254SOL    HW110322   2.104   1.790   6.112
 3254SOL    HW210323   2.153   1.706   5.996
 3255SOL     OW10324   2.998   1.341   7.276
 3255SOL    HW110325   3.038   1.338   7.363
 3255SOL    HW210326   2.946   1.261   7.271
 3256SOL     OW10327   2.091   1.440   6.120
 3256SOL    HW110328   2.075   1.535   6.125
 3256SOL    HW210329   2.030   1.402   6.183
 3257SOL     OW10330   2.117   1.090   6.476
 3257SOL    HW110331   2.114   1.004   6.518
 3257SOL    HW210332   2.059   1.144   6.530
 3258SOL     OW10333   2.475   1.791   7.015
 3258SOL    HW110334   2.393   1.773   7.062
 3258SOL    HW210335   2.499   1.880   7.040
 3259SOL     OW10336   2.450   0.981   5.719
 3259SOL    HW110337   2.493   1.031   5.650
 3259SOL    HW210338   2.490   1.010   5.800
 3260SOL     OW10339   3.448   0.133   7.044
 3260SOL    HW110340   3.466   0.219   7.004
 3260SOL    HW210341   3.448   0.150   7.138
 3261SOL     OW10342   1.976   0.652   6.145
 3261SOL    HW110343   1.948   0.563   6.167
 3261SOL    HW210344   1.968   0.700   6.228
 3262SOL     OW10345   3.704   1.760   5.922
 3262SOL    HW110346   3.765   1.731   5.989
 3262SOL    HW210347   3.730   1.850   5.903
 3263SOL     OW10348   1.892   1.596   5.711
 3263SOL    HW110349   1.876   1.504   5.730
 3263SOL    HW210350   1.868   1.642   5.791
 3264SOL     OW10351   3.551   0.919   6.225
 3264SOL    HW110352   3.635   0.878   6.205
 3264SOL    HW210353   3.530   0.969   6.146
 3265SOL     OW10354   3.507   1.107   6.016
 3265SOL    HW110355   3.592   1.115   5.973
 3265SOL    HW210356   3.512   1.168   6.090
 3266SOL     OW10357   1.984   0.742   7.172
 3266SOL    HW110358   2.076   0.766   7.183
 3266SOL    HW210359   1.937   0.825   7.180
 3267SOL     OW10360   2.474   1.384   6.321
 3267SOL    HW110361   2.428   1.300   6.330
 3267SOL    HW210362   2.458   1.410   6.231
 3268SOL     OW10363   3.152   1.239   7.010
 3268SOL    HW110364   3.184   1.171   6.950
 3268SOL    HW210365   3.208   1.232   7.087
 3269SOL     OW10366   2.671   0.023   6.110
 3269SOL    HW110367   2.700   0.112   6.087
 3269SOL    HW210368   2.575   0.028   6.105
 3270SOL     OW10369   2.053   0.968   6.856
 3270SOL    HW110370   2.137   0.925   6.840
 3270SOL    HW210371   1.989   0.912   6.811
 3271SOL     OW10372   3.394   0.992   5.783
 3271SOL    HW110373   3.324   0.934   5.814
 3271SOL    HW210374   3.433   1.026   5.863
 3272SOL     OW10375   3.047   1.805   7.206
 3272SOL    HW110376   3.060   1.863   7.132
 3272SOL    HW210377   3.063   1.717   7.172
 3273SOL     OW10378   2.186   0.261   7.399
 3273SOL    HW110379   2.239   0.339   7.418
 3273SOL    HW210380   2.100   0.282   7.435
 3274SOL     OW10381   3.328   1.419   6.539
 3274SOL    HW110382   3.260   1.434   6.604
 3274SOL    HW210383   3.316   1.329   6.511
 3275SOL     OW10384   3.522   1.736   6.164
 3275SOL    HW110385   3.501   1.707   6.075
 3275SOL    HW210386   3.496   1.662   6.219
 3276SOL     OW10387   2.457   0.722   5.851
 3276SOL    HW110388   2.465   0.803   5.799
 3276SOL    HW210389   2.392   0.743   5.918
 3277SOL     OW10390   3.141   0.344   6.516
 3277SOL    HW110391   3.050   0.317   6.529
 3277SOL    HW210392   3.190   0.295   6.582
 3278SOL     OW10393   3.443   1.669   5.895
 3278SOL    HW110394   3.533   1.702   5.888
 3278SOL    HW210395   3.417   1.652   5.804
 3279SOL     OW10396   2.657   0.617   7.038
 3279SOL    HW110397   2.629   0.596   7.127
 3279SOL    HW210398   2.612   0.552   6.983
 3280SOL     OW10399   3.257   0.475   7.264
 3280SOL    HW110400   3.257   0.519   7.348
 3280SOL    HW210401   3.321   0.404   7.273
 3281SOL     OW10402   2.818   0.888   7.167
 3281SOL    HW110403   2.873   0.817   7.132
 3281SOL    HW210404   2.771   0.922   7.091
 3282SOL     OW10405   2.856   0.416   6.822
 3282SOL    HW110406   2.772   0.439   6.863
 3282SOL    HW210407   2.831   0.368   6.744
 3283SOL     OW10408   2.912   0.698   6.013
 3283SOL    HW110409   2.927   0.691   6.107
 3283SOL    HW210410   2.829   0.652   5.998
 3284SOL     OW10411   1.950   0.820   6.363
 3284SOL    HW110412   2.032   0.813   6.412
 3284SOL    HW210413   1.908   0.899   6.397
 3285SOL     OW10414   1.989   1.844   7.163
 3285SOL    HW110415   1.988   1.823   7.257
 3285SOL    HW210416   1.897   1.841   7.137
 3286SOL     OW10417   2.732   0.361   5.775
 3286SOL    HW110418   2.779   0.421   5.717
 3286SOL    HW210419   2.781   0.279   5.768
 3287SOL     OW10420   3.572   0.577   7.415
 3287SOL    HW110421   3.535   0.652   7.369
 3287SOL    HW210422   3.598   0.516   7.346
 3288SOL     OW10423   3.237   1.142   6.128
 3288SOL    HW110424   3.316   1.129   6.075
 3288SOL    HW210425   3.185   1.204   6.077
 3289SOL     OW10426   2.391   0.201   6.469
 3289SOL    HW110427   2.413   0.216   6.561
 3289SOL    HW210428   2.412   0.284   6.426
 3290SOL     OW10429   2.870   1.445   6.059
 3290SOL    HW110430   2.830   1.517   6.010
 3290SOL    HW210431   2.854   1.468   6.151
 3291SOL     OW10432   2.216   1.807   6.446
 3291SOL    HW110433   2.260   1.723   6.454
 3291SOL    HW210434   2.286   1.872   6.462
 3292SOL     OW10435   3.661   1.058   6.454
 3292SOL    HW110436   3.605   1.042   6.377
 3292SOL    HW210437   3.600   1.064   6.527
 3293SOL     OW10438   3.090   1.539   7.098
 3293SOL    HW110439   3.076   1.466   7.159
 3293SOL    HW210440   3.028   1.523   7.027
 3294SOL     OW10441   2.183   0.956   5.835
 3294SOL    HW110442   2.265   0.976   5.790
 3294SOL    HW210443   2.153   0.875   5.795
 3295SOL     OW10444   3.339   0.740   6.314
 3295SOL    HW110445   3.329   0.696   6.398
 3295SOL    HW210446   3.416   0.796   6.324
 3296SOL     OW10447   2.327   1.263   7.323
 3296SOL    HW110448   2.299   1.268   7.232
 3296SOL    HW210449   2.245   1.262   7.373
 3297SOL     OW10450   2.984   1.777   5.819
 3297SOL    HW110451   2.910   1.735   5.864
 3297SOL    HW210452   3.005   1.718   5.747
 3298SOL     OW10453   2.059   0.278   7.087
 3298SOL    HW110454   1.981   0.333   7.080
 3298SOL    HW210455   2.048   0.230   7.169
 3299SOL     OW10456   3.491   1.379   5.673
 3299SOL    HW110457   3.450   1.465   5.658
 3299SOL    HW210458   3.422   1.316   5.654
 3300SOL     OW10459   2.329   1.736   5.909
 3300SOL    HW110460   2.370   1.795   5.972
 3300SOL    HW210461   2.400   1.710   5.850
 3301SOL     OW10462   3.268   0.099   6.017
 3301SOL    HW110463   3.259   0.082   5.923
 3301SOL    HW210464   3.360   0.122   6.028
 3302SOL     OW10465   2.117   1.792   6.818
 3302SOL    HW110466   2.169   1.728   6.866
 3302SOL    HW210467   2.107   1.755   6.731
 3303SOL     OW10468   2.799   1.698   6.486
 3303SOL    HW110469   2.877   1.646   6.506
 3303SOL    HW210470   2.755   1.649   6.417
 3304SOL     OW10471   2.253   0.696   6.063
 3304SOL    HW110472   2.276   0.603   6.073
 3304SOL    HW210473   2.159   0.700   6.081
 3305SOL     OW10474   3.402   0.228   7.311
 3305SOL    HW110475   3.409   0.246   7.405
 3305SOL    HW210476   3.328   0.168   7.303
 3306SOL     OW10477   2.485   0.133   5.693
 3306SOL    HW110478   2.554   0.069   5.715
 3306SOL    HW210479   2.435   0.091   5.623
 3307SOL     OW10480   2.644   0.312   7.349
 3307SOL    HW110481   2.703   0.237   7.353
 3307SOL    HW210482   2.599   0.311   7.434
 3308SOL     OW10483   2.738   1.520   6.780
 3308SOL    HW110484   2.723   1.485   6.692
 3308SOL    HW210485   2.808   1.466   6.816
 3309SOL     OW10486   3.204   0.588   7.018
 3309SOL    HW110487   3.234   0.557   7.103
 3309SOL    HW210488   3.239   0.677   7.011
 3310SOL     OW10489   2.676   1.396   6.523
 3310SOL    HW110490   2.760   1.386   6.479
 3310SOL    HW210491   2.611   1.396   6.452
 3311SOL     OW10492   2.789   0.510   6.490
 3311SOL    HW110493   2.765   0.502   6.397
 3311SOL    HW210494   2.822   0.423   6.514
 3312SOL     OW10495   2.404   0.063   6.095
 3312SOL    HW110496   2.318   0.063   6.138
 3312SOL    HW210497   2.398   0.134   6.031
 3313SOL     OW10498   3.290   1.198   5.627
 3313SOL    HW110499   3.320   1.122   5.677
 3313SOL    HW210500   3.205   1.219   5.664
 3314SOL     OW10501   2.163   0.060   5.775
 3314SOL    HW110502   2.222   0.129   5.745
 3314SOL    HW210503   2.220   5.285   5.791
 3315SOL     OW10504   2.801   0.257   6.048
 3315SOL    HW110505   2.772   0.298   5.966
 3315SOL    HW210506   2.895   0.270   6.049
 3316SOL     OW10507   2.942   0.680   7.046
 3316SOL    HW110508   2.873   0.615   7.052
 3316SOL    HW210509   3.023   0.629   7.039
 3317SOL     OW10510   3.086   1.570   6.380
 3317SOL    HW110511   3.103   1.637   6.314
 3317SOL    HW210512   3.154   1.583   6.446
 3318SOL     OW10513   2.329   1.148   6.322
 3318SOL    HW110514   2.259   1.129   6.384
 3318SOL    HW210515   2.291   1.131   6.236
 3319SOL     OW10516   3.132   1.795   6.193
 3319SOL    HW110517   3.177   1.856   6.134
 3319SOL    HW210518   3.067   1.848   6.238
 3320SOL     OW10519   2.889   0.548   5.606
 3320SOL    HW110520   2.846   0.631   5.588
 3320SOL    HW210521   2.952   0.568   5.675
 3321SOL     OW10522   1.940   0.554   6.979
 3321SOL    HW110523   2.031   0.553   6.950
 3321SOL    HW210524   1.935   0.624   7.043
 3322SOL     OW10525   2.419   0.237   6.744
 3322SOL    HW110526   2.450   0.151   6.771
 3322SOL    HW210527   2.327   0.239   6.770
 3323SOL     OW10528   2.730   0.461   6.227
 3323SOL    HW110529   2.684   0.515   6.162
 3323SOL    HW210530   2.751   0.381   6.180
 3324SOL     OW10531   2.841   0.061   6.348
 3324SOL    HW110532   2.776   0.053   6.278
 3324SOL    HW210533   2.850   5.271   6.381
 3325SOL     OW10534   3.298   1.163   6.444
 3325SOL    HW110535   3.230   1.096   6.442
 3325SOL    HW210536   3.322   1.176   6.352
 3326SOL     OW10537   3.329   0.604   6.566
 3326SOL    HW110538   3.281   0.521   6.570
 3326SOL    HW210539   3.390   0.600   6.639
 3327SOL     OW10540   3.709   0.818   5.968
 3327SOL    HW110541   3.764   0.766   6.026
 3327SOL    HW210542   3.680   0.756   5.901
 3328SOL     OW10543   2.354   1.416   5.745
 3328SOL    HW110544   2.279   1.386   5.797
 3328SOL    HW210545   2.336   1.383   5.657
 3329SOL     OW10546   3.531   1.264   6.234
 3329SOL    HW110547   3.626   1.269   6.246
 3329SOL    HW210548   3.499   1.353   6.254
 3330SOL     OW10549   3.256   0.572   5.657
 3330SOL    HW110550   3.195   0.553   5.729
 3330SOL    HW210551   3.341   0.541   5.688
 3331SOL     OW10552   2.386   0.264   5.908
 3331SOL    HW110553   2.429   0.215   5.838
 3331SOL    HW210554   2.367   0.349   5.869
 3332SOL     OW10555   3.615   1.237   7.161
 3332SOL    HW110556   3.703   1.199   7.157
 3332SOL    HW210557   3.629   1.327   7.191
 3333SOL     OW10558   2.922   1.353   6.920
 3333SOL    HW110559   2.847   1.322   6.971
 3333SOL    HW210560   2.998   1.312   6.961
 3334SOL     OW10561   3.468   1.625   7.237
 3334SOL    HW110562   3.465   1.659   7.148
 3334SOL    HW210563   3.552   1.578   7.242
 3335SOL     OW10564   2.988   1.201   6.692
 3335SOL    HW110565   2.930   1.240   6.758
 3335SOL    HW210566   2.955   1.233   6.609
 3336SOL     OW10567   3.492   1.099   6.664
 3336SOL    HW110568   3.487   1.161   6.737
 3336SOL    HW210569   3.412   1.115   6.614
 3337SOL     OW10570   2.767   0.105   6.978
 3337SOL    HW110571   2.797   0.072   6.893
 3337SOL    HW210572   2.845   0.147   7.016
 3338SOL     OW10573   2.846   1.114   7.310
 3338SOL    HW110574   2.753   1.130   7.327
 3338SOL    HW210575   2.846   1.037   7.253
 3339SOL     OW10576   2.570   1.060   5.958
 3339SOL    HW110577   2.557   1.045   6.051
 3339SOL    HW210578   2.646   1.007   5.935
 3340SOL     OW10579   2.279   0.814   6.838
 3340SOL    HW110580   2.349   0.824   6.903
 3340SOL    HW210581   2.244   0.726   6.852
 3341SOL     OW10582   3.130   0.380   6.857
 3341SOL    HW110583   3.162   0.456   6.904
 3341SOL    HW210584   3.040   0.402   6.834
 3342SOL     OW10585   1.931   1.573   6.937
 3342SOL    HW110586   1.900   1.646   6.883
 3342SOL    HW210587   2.027   1.578   6.932
 3343SOL     OW10588   2.213   1.107   6.078
 3343SOL    HW110589   2.219   1.181   6.017
 3343SOL    HW210590   2.212   1.030   6.022
 3344SOL     OW10591   2.417   0.539   6.447
 3344SOL    HW110592   2.432   0.596   6.372
 3344SOL    HW210593   2.481   0.566   6.513
 3345SOL     OW10594   3.110   1.348   5.976
 3345SOL    HW110595   3.165   1.420   6.006
 3345SOL    HW210596   3.023   1.369   6.009
 3346SOL     OW10597   3.141   1.456   6.732
 3346SOL    HW110598   3.196   1.459   6.810
 3346SOL    HW210599   3.085   1.379   6.745
 3347SOL     OW10600   3.445   0.624   6.064
 3347SOL    HW110601   3.399   0.680   6.127
 3347SOL    HW210602   3.490   0.685   6.005
 3348SOL     OW10603   2.209   1.525   6.903
 3348SOL    HW110604   2.197   1.483   6.818
 3348SOL    HW210605   2.304   1.538   6.909
 3349SOL     OW10606   2.275   0.745   7.188
 3349SOL    HW110607   2.336   0.791   7.130
 3349SOL    HW210608   2.318   0.661   7.205
 3350SOL     OW10609   3.461   0.777   7.266
 3350SOL    HW110610   3.375   0.818   7.259
 3350SOL    HW210611   3.513   0.820   7.198
 3351SOL     OW10612   2.900   0.114   7.369
 3351SOL    HW110613   2.926   0.194   7.322
 3351SOL    HW210614   2.910   0.045   7.304
 3352SOL     OW10615   2.345   0.056   7.325
 3352SOL    HW110616   2.289   5.292   7.281
 3352SOL    HW210617   2.285   0.128   7.347
 3353SOL     OW10618   2.445   0.872   6.618
 3353SOL    HW110619   2.475   0.963   6.614
 3353SOL    HW210620   2.388   0.868   6.694
 3354SOL     OW10621   3.222   0.859   6.618
 3354SOL    HW110622   3.140   0.852   6.569
 3354SOL    HW210623   3.260   0.771   6.614
 3355SOL     OW10624   3.069   0.529   5.855
 3355SOL    HW110625   3.073   0.448   5.905
 3355SOL    HW210626   3.027   0.592   5.913
 3356SOL     OW10627   2.160   0.205   6.832
 3356SOL    HW110628   2.122   0.244   6.911
 3356SOL    HW210629   2.156   0.111   6.847
 3357SOL     OW10630   1.907   1.310   6.863
 3357SOL    HW110631   1.941   1.257   6.935
 3357SOL    HW210632   1.915   1.400   6.894
 3358SOL     OW10633   2.588   0.632   6.647
 3358SOL    HW110634   2.661   0.614   6.587
 3358SOL    HW210635   2.560   0.721   6.624
 3359SOL     OW10636   3.596   0.959   7.437
 3359SOL    HW110637   3.547   0.901   7.379
 3359SOL    HW210638   3.538   0.972   7.512
 3360SOL     OW10639   2.162   0.073   6.232
 3360SOL    HW110640   2.149   0.167   6.244
 3360SOL    HW210641   2.199   0.044   6.315
 3361SOL     OW10642   3.472   0.373   5.953
 3361SOL    HW110643   3.506   0.310   6.017
 3361SOL    HW210644   3.453   0.451   6.004
 3362SOL     OW10645   2.889   0.759   6.548
 3362SOL    HW110646   2.888   0.777   6.642
 3362SOL    HW210647   2.862   0.668   6.540
 3363SOL     OW10648   2.843   1.565   7.301
 3363SOL    HW110649   2.829   1.610   7.218
 3363SOL    HW210650   2.888   1.484   7.277
 3364SOL     OW10651   3.718   1.508   7.192
 3364SOL    HW110652   3.735   1.534   7.101
 3364SOL    HW210653   3.799   1.528   7.238
 3365SOL     OW10654   2.215   0.914   7.396
 3365SOL    HW110655   2.298   0.935   7.438
 3365SOL    HW210656   2.239   0.853   7.326
 3366SOL     OW10657   3.390   0.273   5.712
 3366SOL    HW110658   3.326   0.208   5.743
 3366SOL    HW210659   3.425   0.311   5.793
 3367SOL     OW10660   3.156   0.827   5.618
 3367SOL    HW110661   3.198   0.741   5.621
 3367SOL    HW210662   3.186   0.866   5.537
 3368SOL     OW10663   2.927   1.335   6.439
 3368SOL    HW110664   2.930   1.262   6.377
 3368SOL    HW210665   2.989   1.399   6.405
 3369SOL     OW10666   2.172   0.810   6.534
 3369SOL    HW110667   2.265   0.831   6.527
 3369SOL    HW210668   2.170   0.720   6.567
 3370SOL     OW10669   2.195   0.524   6.598
 3370SOL    HW110670   2.159   0.437   6.582
 3370SOL    HW210671   2.271   0.530   6.541
 3371SOL     OW10672   2.998   0.378   7.272
 3371SOL    HW110673   2.951   0.433   7.335
 3371SOL    HW210674   3.086   0.416   7.267
 3372SOL     OW10675   2.997   0.222   7.051
 3372SOL    HW110676   3.001   0.281   7.127
 3372SOL    HW210677   3.052   0.265   6.985
 3373SOL     OW10678   1.866   1.322   5.782
 3373SOL    HW110679   1.780   1.336   5.744
 3373SOL    HW210680   1.865   1.232   5.814
 3374SOL     OW10681   1.952   1.789   6.523
 3374SOL    HW110682   1.922   1.709   6.480
 3374SOL    HW210683   2.042   1.800   6.492
 3375SOL     OW10684   2.360   1.573   6.492
 3375SOL    HW110685   2.429   1.635   6.516
 3375SOL    HW210686   2.404   1.509   6.436
 3376SOL     OW10687   2.848   0.794   6.814
 3376SOL    HW110688   2.902   0.769   6.889
 3376SOL    HW210689   2.762   0.757   6.834
 3377SOL     OW10690   1.897   0.542   6.703
 3377SOL    HW110691   1.978   0.528   6.653
 3377SOL    HW210692   1.927   0.548   6.794
 3378SOL     OW10693   2.051   0.519   7.312
 3378SOL    HW110694   2.113   0.487   7.246
 3378SOL    HW210695   2.007   0.592   7.268
 3379SOL     OW10696   3.238   0.940   7.245
 3379SOL    HW110697   3.259   1.034   7.245
 3379SOL    HW210698   3.236   0.916   7.153
 3380SOL     OW10699   2.676   0.571   5.946
 3380SOL    HW110700   2.679   0.497   5.885
 3380SOL    HW210701   2.602   0.624   5.915
 3381SOL     OW10702   3.505   0.601   6.774
 3381SOL    HW110703   3.493   0.542   6.848
 3381SOL    HW210704   3.592   0.580   6.740
 3382SOL     OW10705   2.106   1.552   7.315
 3382SOL    HW110706   2.084   1.616   7.383
 3382SOL    HW210707   2.107   1.468   7.360
 3383SOL     OW10708   2.556   0.453   6.848
 3383SOL    HW110709   2.508   0.379   6.813
 3383SOL    HW210710   2.558   0.517   6.777
 3384SOL     OW10711   2.791   1.679   7.053
 3384SOL    HW110712   2.765   1.647   6.966
 3384SOL    HW210713   2.789   1.774   7.045
 3385SOL     OW10714   2.327   0.493   5.771
 3385SOL    HW110715   2.386   0.565   5.793
 3385SOL    HW210716   2.241   0.534   5.762
 3386SOL     OW10717   2.009   1.140   7.058
 3386SOL    HW110718   2.013   1.087   7.137
 3386SOL    HW210719   2.026   1.078   6.987
 3387SOL     OW10720   3.190   1.048   6.810
 3387SOL    HW110721   3.214   0.985   6.742
 3387SOL    HW210722   3.118   1.099   6.772
 3388SOL     OW10723   3.172   0.856   5.893
 3388SOL    HW110724   3.095   0.826   5.942
 3388SOL    HW210725   3.149   0.843   5.801
 3389SOL     OW10726   3.631   1.746   6.735
 3389SOL    HW110727   3.692   1.772   6.665
 3389SOL    HW210728   3.608   1.655   6.714
 3390SOL     OW10729   3.103   1.733   6.701
 3390SOL    HW110730   3.185   1.752   6.655
 3390SOL    HW210731   3.108   1.639   6.719
 3391SOL     OW10732   1.945   1.267   6.599
 3391SOL    HW110733   1.932   1.278   6.693
 3391SOL    HW210734   1.872   1.212   6.570
 3392SOL     OW10735   2.538   1.663   7.311
 3392SOL    HW110736   2.489   1.746   7.311
 3392SOL    HW210737   2.604   1.675   7.242
 3393SOL     OW10738   3.575   0.146   6.091
 3393SOL    HW110739   3.651   0.126   6.036
 3393SOL    HW210740   3.567   0.071   6.149
 3394SOL     OW10741   3.252   1.568   6.070
 3394SOL    HW110742   3.313   1.599   6.002
 3394SOL    HW210743   3.204   1.646   6.097
 3395SOL     OW10744   1.997   1.797   7.430
 3395SOL    HW110745   1.946   1.732   7.480
 3395SOL    HW210746   2.046   1.845   7.497
 3396SOL     OW10747   3.139   0.924   6.257
 3396SOL    HW110748   3.213   0.864   6.262
 3396SOL    HW210749   3.172   0.998   6.205
 3397SOL     OW10750   2.679   1.272   7.017
 3397SOL    HW110751   2.652   1.311   7.100
 3397SOL    HW210752   2.609   1.295   6.956
 3398SOL     OW10753   2.535   1.617   5.742
 3398SOL    HW110754   2.543   1.630   5.648
 3398SOL    HW210755   2.480   1.539   5.750
 3399SOL     OW10756   3.492   1.727   6.977
 3399SOL    HW110757   3.540   1.734   6.895
 3399SOL    HW210758   3.478   1.817   7.006
 3400SOL     OW10759   3.707   0.159   6.544
 3400SOL    HW110760   3.710   0.065   6.525
 3400SOL    HW210761   3.619   0.186   6.517
 3401SOL     OW10762   2.126   0.328   6.306
 3401SOL    HW110763   2.038   0.360   6.283
 3401SOL    HW210764   2.122   0.316   6.401
 3402SOL     OW10765   3.069   1.607   5.618
 3402SOL    HW110766   3.059   1.516   5.644
 3402SOL    HW210767   3.005   1.619   5.547
 3403SOL     OW10768   2.686   1.006   6.958
 3403SOL    HW110769   2.730   1.002   6.872
 3403SOL    HW210770   2.687   1.098   6.981
 3404SOL     OW10771   2.778   0.910   5.876
 3404SOL    HW110772   2.839   0.942   5.810
 3404SOL    HW210773   2.825   0.840   5.920
 3405SOL     OW10774   3.356   1.624   5.628
 3405SOL    HW110775   3.261   1.620   5.616
 3405SOL    HW210776   3.391   1.631   5.540
 3406SOL     OW10777   2.231   1.302   7.078
 3406SOL    HW110778   2.218   1.379   7.023
 3406SOL    HW210779   2.154   1.247   7.061
 3407SOL     OW10780   3.473   1.283   6.867
 3407SOL    HW110781   3.533   1.274   6.941
 3407SOL    HW210782   3.413   1.353   6.892
 3408SOL     OW10783   2.912   1.106   6.292
 3408SOL    HW110784   2.841   1.054   6.331
 3408SOL    HW210785   2.973   1.041   6.258
 3409SOL     OW10786   2.882   0.242   6.553
 3409SOL    HW110787   2.862   0.196   6.472
 3409SOL    HW210788   2.874   0.175   6.621
 3410SOL     OW10789   2.463   1.488   6.068
 3410SOL    HW110790   2.507   1.438   5.999
 3410SOL    HW210791   2.398   1.541   6.022
 3411SOL     OW10792   3.584   0.387   6.965
 3411SOL    HW110793   3.654   0.453   6.964
 3411SOL    HW210794   3.617   0.318   6.907
 3412SOL     OW10795   2.120   1.346   5.873
 3412SOL    HW110796   2.027   1.344   5.851
 3412SOL    HW210797   2.124   1.382   5.961
 3413SOL     OW10798   1.974   1.019   7.305
 3413SOL    HW110799   1.898   0.997   7.358
 3413SOL    HW210800   2.049   0.982   7.353
 3414SOL     OW10801   2.534   0.209   7.074
 3414SOL    HW110802   2.618   0.192   7.031
 3414SOL    HW210803   2.557   0.258   7.152
 3415SOL     OW10804   1.939   0.340   5.626
 3415SOL    HW110805   1.855   0.308   5.593
 3415SOL    HW210806   1.961   0.413   5.569
 3416SOL     OW10807   3.293   0.858   6.987
 3416SOL    HW110808   3.245   0.919   6.931
 3416SOL    HW210809   3.383   0.861   6.954
 3417SOL     OW10810   1.934   0.167   5.902
 3417SOL    HW110811   1.933   0.250   5.854
 3417SOL    HW210812   2.019   0.128   5.882
 3418SOL     OW10813   3.042   1.340   5.703
 3418SOL    HW110814   2.950   1.311   5.705
 3418SOL    HW210815   3.070   1.340   5.794
 3419SOL     OW10816   2.481   0.831   7.019
 3419SOL    HW110817   2.536   0.908   7.004
 3419SOL    HW210818   2.543   0.758   7.027
 3420SOL     OW10819   3.347   1.775   6.563
 3420SOL    HW110820   3.371   1.833   6.491
 3420SOL    HW210821   3.428   1.759   6.610
 3421SOL     OW10822   2.577   0.572   7.290
 3421SOL    HW110823   2.616   0.635   7.351
 3421SOL    HW210824   2.611   0.487   7.319
 3422SOL     OW10825   3.332   1.202   7.219
 3422SOL    HW110826   3.319   1.215   7.313
 3422SOL    HW210827   3.425   1.215   7.205
 3423SOL     OW10828   2.243   1.739   7.149
 3423SOL    HW110829   2.157   1.779   7.137
 3423SOL    HW210830   2.225   1.655   7.191
 3424SOL     OW10831   3.533   0.882   6.841
 3424SOL    HW110832   3.525   0.797   6.798
 3424SOL    HW210833   3.524   0.945   6.771
 3425SOL     OW10834   3.082   0.320   6.053
 3425SOL    HW110835   3.146   0.249   6.044
 3425SOL    HW210836   3.114   0.371   6.127
 3426SOL     OW10837   2.452   0.739   6.255
 3426SOL    HW110838   2.492   0.825   6.238
 3426SOL    HW210839   2.384   0.731   6.188
 3427SOL     OW10840   3.629   0.360   7.235
 3427SOL    HW110841   3.610   0.375   7.142
 3427SOL    HW210842   3.558   0.304   7.266
 3428SOL     OW10843   3.606   0.933   7.099
 3428SOL    HW110844   3.606   1.028   7.112
 3428SOL    HW210845   3.591   0.923   7.005
 3429SOL     OW10846   2.725   1.368   5.618
 3429SOL    HW110847   2.685   1.397   5.700
 3429SOL    HW210848   2.744   1.449   5.571
 3430SOL     OW10849   2.522   1.792   6.534
 3430SOL    HW110850   2.501   1.882   6.507
 3430SOL    HW210851   2.617   1.786   6.525
 3431SOL     OW10852   2.728   0.965   6.442
 3431SOL    HW110853   2.779   0.895   6.482
 3431SOL    HW210854   2.695   1.016   6.516
 3432SOL     OW10855   2.941   0.987   5.675
 3432SOL    HW110856   2.920   1.038   5.597
 3432SOL    HW210857   3.017   0.935   5.649
 3433SOL     OW10858   3.717   1.555   6.431
 3433SOL    HW110859   3.640   1.544   6.376
 3433SOL    HW210860   3.709   1.488   6.499
 3434SOL     OW10861   2.087   1.304   7.443
 3434SOL    HW110862   2.018   1.244   7.413
 3434SOL    HW210863   2.069   1.317   7.536
 3435SOL     OW10864   1.945   1.235   6.250
 3435SOL    HW110865   1.950   1.185   6.332
 3435SOL    HW210866   2.014   1.197   6.195
 3436SOL     OW10867   2.541   1.401   7.211
 3436SOL    HW110868   2.462   1.358   7.243
 3436SOL    HW210869   2.538   1.489   7.249
 3437SOL     OW10870   3.679   0.179   6.820
 3437SOL    HW110871   3.648   0.089   6.829
 3437SOL    HW210872   3.693   0.190   6.726
 3438SOL     OW10873   2.291   0.435   6.109
 3438SOL    HW110874   2.323   0.362   6.056
 3438SOL    HW210875   2.246   0.393   6.182
 3439SOL     OW10876   3.563   1.490   6.684
 3439SOL    HW110877   3.482   1.466   6.640
 3439SOL    HW210878   3.576   1.422   6.750
 3440SOL     OW10879   2.189   0.554   6.876
 3440SOL    HW110880   2.246   0.500   6.931
 3440SOL    HW210881   2.210   0.528   6.786
 3441SOL     OW10882   2.688   1.578   6.265
 3441SOL    HW110883   2.680   1.628   6.184
 3441SOL    HW210884   2.610   1.522   6.266
 3442SOL     OW10885   3.290   0.218   6.703
 3442SOL    HW110886   3.328   0.144   6.751
 3442SOL    HW210887   3.242   0.267   6.768
 3443SOL     OW10888   2.864   0.022   6.728
 3443SOL    HW110889   2.814   5.252   6.688
 3443SOL    HW210890   2.952   5.285   6.741
 3444SOL     OW10891   2.633   1.332   5.899
 3444SOL    HW110892   2.601   1.242   5.905
 3444SOL    HW210893   2.716   1.331   5.946
 3445SOL     OW10894   2.481   1.558   6.870
 3445SOL    HW110895   2.484   1.639   6.920
 3445SOL    HW210896   2.569   1.549   6.832
 3446SOL     OW10897   3.219   0.040   5.747
 3446SOL    HW110898   3.247   5.297   5.667
 3446SOL    HW210899   3.137   5.296   5.771
 3447SOL     OW10900   3.163   0.463   6.272
 3447SOL    HW110901   3.108   0.541   6.278
 3447SOL    HW210902   3.157   0.422   6.358
 3448SOL     OW10903   3.456   0.216   6.467
 3448SOL    HW110904   3.388   0.227   6.534
 3448SOL    HW210905   3.450   0.294   6.413
 3449SOL     OW10906   1.905   1.072   5.891
 3449SOL    HW110907   1.999   1.064   5.874
 3449SOL    HW210908   1.877   0.984   5.914
 3450SOL     OW10909   2.744   1.650   5.930
 3450SOL    HW110910   2.673   1.633   5.868
 3450SOL    HW210911   2.714   1.726   5.980
 3451SOL     OW10912   2.090   0.619   7.571
 3451SOL    HW110913   1.999   0.628   7.601
 3451SOL    HW210914   2.083   0.597   7.478
 3452SOL     OW10915   3.629   0.600   7.680
 3452SOL    HW110916   3.609   0.595   7.586
 3452SOL    HW210917   3.587   0.523   7.718
 3453SOL     OW10918   2.082   1.719   7.919
 3453SOL    HW110919   2.113   1.762   7.998
 3453SOL    HW210920   2.159   1.715   7.862
 3454SOL     OW10921   2.081   1.438   7.989
 3454SOL    HW110922   2.065   1.532   7.991
 3454SOL    HW210923   2.021   1.402   8.055
 3455SOL     OW10924   2.450   0.981   7.578
 3455SOL    HW110925   2.493   1.032   7.510
 3455SOL    HW210926   2.489   1.012   7.660
 3456SOL     OW10927   3.698   1.760   7.798
 3456SOL    HW110928   3.768   1.729   7.856
 3456SOL    HW210929   3.726   1.849   7.773
 3457SOL     OW10930   1.891   1.600   7.577
 3457SOL    HW110931   1.876   1.506   7.592
 3457SOL    HW210932   1.864   1.642   7.659
 3458SOL     OW10933   3.547   0.870   8.036
 3458SOL    HW110934   3.629   0.882   0.004
 3458SOL    HW210935   3.533   0.953   7.991
 3459SOL     OW10936   3.516   1.099   7.876
 3459SOL    HW110937   3.603   1.125   7.845
 3459SOL    HW210938   3.490   1.170   7.936
 3460SOL     OW10939   2.672   5.292   7.945
 3460SOL    HW110940   2.712   0.078   7.931
 3460SOL    HW210941   2.578   0.010   7.943
 3461SOL     OW10942   3.395   0.993   7.647
 3461SOL    HW110943   3.328   0.934   7.680
 3461SOL    HW210944   3.437   1.028   7.726
 3462SOL     OW10945   2.453   0.725   7.708
 3462SOL    HW110946   2.460   0.805   7.657
 3462SOL    HW210947   2.392   0.746   7.779
 3463SOL     OW10948   3.437   1.670   7.757
 3463SOL    HW110949   3.527   1.700   7.765
 3463SOL    HW210950   3.425   1.656   7.663
 3464SOL     OW10951   1.925   0.861   0.093
 3464SOL    HW110952   1.990   0.798   0.123
 3464SOL    HW210953   1.915   0.922   0.166
 3465SOL     OW10954   2.728   0.354   7.631
 3465SOL    HW110955   2.778   0.418   7.581
 3465SOL    HW210956   2.785   0.277   7.636
 3466SOL     OW10957   2.186   0.956   7.697
 3466SOL    HW110958   2.266   0.974   7.648
 3466SOL    HW210959   2.151   0.876   7.656
 3467SOL     OW10960   2.984   1.775   7.682
 3467SOL    HW110961   2.909   1.734   7.724
 3467SOL    HW210962   3.007   1.716   7.611
 3468SOL     OW10963   3.491   1.379   7.533
 3468SOL    HW110964   3.449   1.465   7.520
 3468SOL    HW210965   3.422   1.316   7.516
 3469SOL     OW10966   2.329   1.737   7.770
 3469SOL    HW110967   2.377   1.791   7.833
 3469SOL    HW210968   2.396   1.704   7.710
 3470SOL     OW10969   3.269   0.106   7.881
 3470SOL    HW110970   3.263   0.083   7.788
 3470SOL    HW210971   3.363   0.113   7.897
 3471SOL     OW10972   2.251   0.697   7.918
 3471SOL    HW110973   2.262   0.602   7.925
 3471SOL    HW210974   2.160   0.712   7.945
 3472SOL     OW10975   2.481   0.132   7.559
 3472SOL    HW110976   2.555   0.074   7.577
 3472SOL    HW210977   2.435   0.089   7.487
 3473SOL     OW10978   2.407   0.064   7.953
 3473SOL    HW110979   2.316   0.048   7.976
 3473SOL    HW210980   2.405   0.136   7.891
 3474SOL     OW10981   3.291   1.197   7.489
 3474SOL    HW110982   3.321   1.123   7.541
 3474SOL    HW210983   3.206   1.220   7.528
 3475SOL     OW10984   2.166   0.070   7.657
 3475SOL    HW110985   2.219   0.126   7.600
 3475SOL    HW210986   2.215   5.288   7.660
 3476SOL     OW10987   2.812   0.228   7.908
 3476SOL    HW110988   2.761   0.298   7.866
 3476SOL    HW210989   2.900   0.265   7.916
 3477SOL     OW10990   2.305   1.152   0.099
 3477SOL    HW110991   2.228   1.179   0.148
 3477SOL    HW210992   2.274   1.136   0.011
 3478SOL     OW10993   3.152   1.810   8.015
 3478SOL    HW110994   3.186   1.880   7.958
 3478SOL    HW210995   3.070   1.847   8.050
 3479SOL     OW10996   2.891   0.548   7.465
 3479SOL    HW110997   2.846   0.631   7.450
 3479SOL    HW210998   2.950   0.566   7.538
 3480SOL     OW10999   3.732   0.818   7.802
 3480SOL    HW111000   3.734   0.785   7.892
 3480SOL    HW211001   3.690   0.748   7.752
 3481SOL     OW11002   2.352   1.414   7.607
 3481SOL    HW111003   2.277   1.385   7.659
 3481SOL    HW211004   2.333   1.382   7.519
 3482SOL     OW11005   3.255   0.572   7.519
 3482SOL    HW111006   3.194   0.552   7.590
 3482SOL    HW211007   3.340   0.539   7.551
 3483SOL     OW11008   2.387   0.269   7.773
 3483SOL    HW111009   2.427   0.216   7.704
 3483SOL    HW211010   2.367   0.353   7.730
 3484SOL     OW11011   2.572   1.062   7.812
 3484SOL    HW111012   2.550   1.049   7.904
 3484SOL    HW211013   2.651   1.009   7.799
 3485SOL     OW11014   2.228   1.099   7.929
 3485SOL    HW111015   2.211   1.179   7.879
 3485SOL    HW211016   2.215   1.028   7.867
 3486SOL     OW11017   3.088   1.356   7.821
 3486SOL    HW111018   3.152   1.422   7.848
 3486SOL    HW211019   3.042   1.332   7.901
 3487SOL     OW11020   3.451   0.629   7.922
 3487SOL    HW111021   3.432   0.687   7.995
 3487SOL    HW211022   3.490   0.686   7.855
 3488SOL     OW11023   3.067   0.527   7.717
 3488SOL    HW111024   3.069   0.440   7.757
 3488SOL    HW211025   3.042   0.586   7.788
 3489SOL     OW11026   3.478   0.375   7.815
 3489SOL    HW111027   3.498   0.307   7.880
 3489SOL    HW211028   3.453   0.451   7.868
 3490SOL     OW11029   3.392   0.273   7.575
 3490SOL    HW111030   3.328   0.208   7.605
 3490SOL    HW211031   3.427   0.311   7.656
 3491SOL     OW11032   3.157   0.828   7.482
 3491SOL    HW111033   3.198   0.741   7.484
 3491SOL    HW211034   3.187   0.867   7.400
 3492SOL     OW11035   1.867   1.325   7.641
 3492SOL    HW111036   1.780   1.337   7.603
 3492SOL    HW211037   1.867   1.235   7.674
 3493SOL     OW11038   2.696   0.595   7.768
 3493SOL    HW111039   2.686   0.506   7.735
 3493SOL    HW211040   2.607   0.632   7.765
 3494SOL     OW11041   2.324   0.494   7.638
 3494SOL    HW111042   2.384   0.567   7.654
 3494SOL    HW211043   2.239   0.535   7.623
 3495SOL     OW11044   3.172   0.850   7.756
 3495SOL    HW111045   3.085   0.850   7.795
 3495SOL    HW211046   3.156   0.841   7.662
 3496SOL     OW11047   3.570   0.129   7.946
 3496SOL    HW111048   3.647   0.130   7.888
 3496SOL    HW211049   3.600   0.082   8.024
 3497SOL     OW11050   3.228   1.576   7.898
 3497SOL    HW111051   3.302   1.597   7.841
 3497SOL    HW211052   3.196   1.661   7.928
 3498SOL     OW11053   2.530   1.618   7.604
 3498SOL    HW111054   2.541   1.629   7.510
 3498SOL    HW211055   2.479   1.537   7.613
 3499SOL     OW11056   3.070   1.608   7.478
 3499SOL    HW111057   3.060   1.517   7.506
 3499SOL    HW211058   3.003   1.619   7.410
 3500SOL     OW11059   2.789   0.912   7.755
 3500SOL    HW111060   2.842   0.936   7.679
 3500SOL    HW211061   2.787   0.816   7.753
 3501SOL     OW11062   3.357   1.625   7.489
 3501SOL    HW111063   3.262   1.620   7.478
 3501SOL    HW211064   3.391   1.630   7.399
 3502SOL     OW11065   2.466   1.506   7.936
 3502SOL    HW111066   2.509   1.443   7.878
 3502SOL    HW211067   2.395   1.543   7.884
 3503SOL     OW11068   2.119   1.347   7.739
 3503SOL    HW111069   2.027   1.345   7.714
 3503SOL    HW211070   2.120   1.383   7.828
 3504SOL     OW11071   1.937   0.339   7.489
 3504SOL    HW111072   1.854   0.308   7.452
 3504SOL    HW211073   1.961   0.414   7.434
 3505SOL     OW11074   1.925   0.181   7.748
 3505SOL    HW111075   1.923   0.257   7.689
 3505SOL    HW211076   2.005   0.135   7.723
 3506SOL     OW11077   3.040   1.340   7.557
 3506SOL    HW111078   2.948   1.313   7.559
 3506SOL    HW211079   3.066   1.345   7.649
 3507SOL     OW11080   3.085   0.321   7.916
 3507SOL    HW111081   3.150   0.251   7.908
 3507SOL    HW211082   3.110   0.368   7.996
 3508SOL     OW11083   2.482   0.734   8.060
 3508SOL    HW111084   2.492   0.818   0.023
 3508SOL    HW211085   2.396   0.737   8.019
 3509SOL     OW11086   2.723   1.368   7.479
 3509SOL    HW111087   2.686   1.395   7.563
 3509SOL    HW211088   2.744   1.450   7.434
 3510SOL     OW11089   2.936   0.979   7.537
 3510SOL    HW111090   2.917   1.036   7.462
 3510SOL    HW211091   3.015   0.932   7.511
 3511SOL     OW11092   2.250   0.419   7.983
 3511SOL    HW111093   2.304   0.369   7.921
 3511SOL    HW211094   2.298   0.415   8.066
 3512SOL     OW11095   2.629   1.334   7.758
 3512SOL    HW111096   2.596   1.244   7.760
 3512SOL    HW211097   2.710   1.332   7.808
 3513SOL     OW11098   3.226   0.038   7.610
 3513SOL    HW111099   3.239   5.292   7.527
 3513SOL    HW211100   3.143   0.006   7.643
 3514SOL     OW11101   1.912   1.079   7.750
 3514SOL    HW111102   2.006   1.068   7.736
 3514SOL    HW211103   1.879   0.991   7.767
 3515SOL     OW11104   2.753   1.650   7.782
 3515SOL    HW111105   2.677   1.627   7.730
 3515SOL    HW211106   2.720   1.714   7.846
 3516SOL     OW11107   2.089   2.482   0.123
 3516SOL    HW111108   2.004   2.458   0.160
 3516SOL    HW211109   2.099   2.427   0.046
 3517SOL     OW11110   2.086   2.140   0.991
 3517SOL    HW111111   2.114   2.106   1.076
 3517SOL    HW211112   1.996   2.108   0.981
 3518SOL     OW11113   1.867   2.243   0.638
 3518SOL    HW111114   1.785   2.269   0.680
 3518SOL    HW211115   1.846   2.164   0.590
 3519SOL     OW11116   2.428   3.147   1.174
 3519SOL    HW111117   2.341   3.151   1.134
 3519SOL    HW211118   2.443   3.235   1.209
 3520SOL     OW11119   3.420   3.373   0.706
 3520SOL    HW111120   3.377   3.356   0.790
 3520SOL    HW211121   3.348   3.378   0.643
 3521SOL     OW11122   3.024   2.542   0.735
 3521SOL    HW111123   3.046   2.630   0.705
 3521SOL    HW211124   2.941   2.552   0.781
 3522SOL     OW11125   3.629   2.464   0.234
 3522SOL    HW111126   3.595   2.463   0.144
 3522SOL    HW211127   3.590   2.386   0.275
 3523SOL     OW11128   2.633   3.021   1.037
 3523SOL    HW111129   2.555   3.039   1.090
 3523SOL    HW211130   2.653   3.105   0.995
 3524SOL     OW11131   2.568   3.023   1.819
 3524SOL    HW111132   2.620   3.102   1.833
 3524SOL    HW211133   2.489   3.053   1.774
 3525SOL     OW11134   2.191   3.292   1.068
 3525SOL    HW111135   2.121   3.253   1.016
 3525SOL    HW211136   2.244   3.341   1.004
 3526SOL     OW11137   3.323   3.360   1.352
 3526SOL    HW111138   3.370   3.443   1.362
 3526SOL    HW211139   3.264   3.357   1.428
 3527SOL     OW11140   2.311   2.264   1.501
 3527SOL    HW111141   2.387   2.206   1.495
 3527SOL    HW211142   2.236   2.205   1.507
 3528SOL     OW11143   3.475   2.311   0.739
 3528SOL    HW111144   3.399   2.335   0.687
 3528SOL    HW211145   3.492   2.387   0.795
 3529SOL     OW11146   2.082   3.576   0.473
 3529SOL    HW111147   2.105   3.652   0.526
 3529SOL    HW211148   2.155   3.567   0.411
 3530SOL     OW11149   3.000   3.204   1.693
 3530SOL    HW111150   3.039   3.199   1.780
 3530SOL    HW211151   2.947   3.124   1.686
 3531SOL     OW11152   2.088   3.304   0.534
 3531SOL    HW111153   2.074   3.399   0.538
 3531SOL    HW211154   2.027   3.268   0.599
 3532SOL     OW11155   2.113   2.952   0.887
 3532SOL    HW111156   2.112   2.868   0.932
 3532SOL    HW211157   2.059   3.009   0.941
 3533SOL     OW11158   2.476   3.654   1.431
 3533SOL    HW111159   2.393   3.636   1.476
 3533SOL    HW211160   2.498   3.743   1.456
 3534SOL     OW11161   2.471   2.854   0.104
 3534SOL    HW111162   2.424   2.936   0.093
 3534SOL    HW211163   2.506   2.858   0.193
 3535SOL     OW11164   3.458   1.984   1.469
 3535SOL    HW111165   3.460   2.064   1.417
 3535SOL    HW211166   3.446   2.014   1.559
 3536SOL     OW11167   1.978   2.510   0.563
 3536SOL    HW111168   1.943   2.423   0.584
 3536SOL    HW211169   1.968   2.560   0.644
 3537SOL     OW11170   3.706   3.621   0.334
 3537SOL    HW111171   3.768   3.591   0.400
 3537SOL    HW211172   3.732   3.712   0.316
 3538SOL     OW11173   1.887   3.459   0.112
 3538SOL    HW111174   1.876   3.370   0.145
 3538SOL    HW211175   1.873   3.515   0.188
 3539SOL     OW11176   3.550   2.780   0.641
 3539SOL    HW111177   3.635   2.740   0.622
 3539SOL    HW211178   3.530   2.832   0.563
 3540SOL     OW11179   3.508   2.968   0.435
 3540SOL    HW111180   3.587   2.983   0.384
 3540SOL    HW211181   3.514   3.029   0.508
 3541SOL     OW11182   1.981   2.604   1.586
 3541SOL    HW111183   2.073   2.628   1.603
 3541SOL    HW211184   1.933   2.686   1.593
 3542SOL     OW11185   2.477   3.245   0.735
 3542SOL    HW111186   2.432   3.161   0.745
 3542SOL    HW211187   2.458   3.272   0.645
 3543SOL     OW11188   3.152   3.099   1.426
 3543SOL    HW111189   3.185   3.033   1.365
 3543SOL    HW211190   3.209   3.093   1.502
 3544SOL     OW11191   2.676   1.864   0.509
 3544SOL    HW111192   2.715   1.949   0.489
 3544SOL    HW211193   2.583   1.882   0.518
 3545SOL     OW11194   2.047   2.834   1.268
 3545SOL    HW111195   2.131   2.789   1.256
 3545SOL    HW211196   1.983   2.776   1.226
 3546SOL     OW11197   3.372   2.868   0.212
 3546SOL    HW111198   3.322   2.792   0.240
 3546SOL    HW211199   3.425   2.892   0.288
 3547SOL     OW11200   3.048   3.666   1.621
 3547SOL    HW111201   3.060   3.725   1.546
 3547SOL    HW211202   3.062   3.578   1.586
 3548SOL     OW11203   2.191   2.111   1.806
 3548SOL    HW111204   2.238   2.193   1.822
 3548SOL    HW211205   2.103   2.127   1.841
 3549SOL     OW11206   3.328   3.282   0.953
 3549SOL    HW111207   3.260   3.297   1.018
 3549SOL    HW211208   3.317   3.191   0.926
 3550SOL     OW11209   3.523   3.598   0.581
 3550SOL    HW111210   3.501   3.571   0.492
 3550SOL    HW211211   3.497   3.524   0.635
 3551SOL     OW11212   3.143   2.209   0.932
 3551SOL    HW111213   3.054   2.178   0.941
 3551SOL    HW211214   3.193   2.158   0.995
 3552SOL     OW11215   3.448   3.532   0.318
 3552SOL    HW111216   3.539   3.563   0.312
 3552SOL    HW211217   3.422   3.515   0.227
 3553SOL     OW11218   3.256   2.336   1.677
 3553SOL    HW111219   3.256   2.380   1.762
 3553SOL    HW211220   3.319   2.264   1.688
 3554SOL     OW11221   2.852   2.272   1.247
 3554SOL    HW111222   2.765   2.287   1.284
 3554SOL    HW211223   2.835   2.237   1.159
 3555SOL     OW11224   1.951   2.682   0.775
 3555SOL    HW111225   2.032   2.676   0.826
 3555SOL    HW211226   1.907   2.760   0.810
 3556SOL     OW11227   1.990   3.704   1.576
 3556SOL    HW111228   1.988   3.684   1.670
 3556SOL    HW211229   1.897   3.705   1.551
 3557SOL     OW11230   2.747   2.219   0.208
 3557SOL    HW111231   2.794   2.268   0.141
 3557SOL    HW211232   2.745   2.129   0.176
 3558SOL     OW11233   3.571   2.438   1.828
 3558SOL    HW111234   3.534   2.513   1.781
 3558SOL    HW211235   3.597   2.377   1.759
 3559SOL     OW11236   3.235   3.000   0.539
 3559SOL    HW111237   3.316   2.990   0.489
 3559SOL    HW211238   3.185   3.067   0.491
 3560SOL     OW11239   2.410   2.042   0.889
 3560SOL    HW111240   2.411   2.066   0.981
 3560SOL    HW211241   2.410   2.126   0.842
 3561SOL     OW11242   2.868   3.307   0.474
 3561SOL    HW111243   2.829   3.378   0.424
 3561SOL    HW211244   2.852   3.331   0.565
 3562SOL     OW11245   2.217   3.669   0.859
 3562SOL    HW111246   2.260   3.584   0.868
 3562SOL    HW211247   2.285   3.734   0.877
 3563SOL     OW11248   3.660   2.920   0.868
 3563SOL    HW111249   3.604   2.904   0.792
 3563SOL    HW211250   3.600   2.926   0.942
 3564SOL     OW11251   3.089   3.401   1.512
 3564SOL    HW111252   3.076   3.329   1.573
 3564SOL    HW211253   3.028   3.384   1.441
 3565SOL     OW11254   2.195   2.810   0.243
 3565SOL    HW111255   2.275   2.832   0.195
 3565SOL    HW211256   2.189   2.715   0.237
 3566SOL     OW11257   3.336   2.606   0.727
 3566SOL    HW111258   3.327   2.559   0.810
 3566SOL    HW211259   3.415   2.659   0.738
 3567SOL     OW11260   2.326   3.126   1.737
 3567SOL    HW111261   2.298   3.131   1.646
 3567SOL    HW211262   2.244   3.125   1.787
 3568SOL     OW11263   2.970   3.643   0.225
 3568SOL    HW111264   2.914   3.602   0.291
 3568SOL    HW211265   2.991   3.572   0.164
 3569SOL     OW11266   2.062   2.146   1.500
 3569SOL    HW111267   1.979   2.192   1.494
 3569SOL    HW211268   2.048   2.078   1.566
 3570SOL     OW11269   3.495   3.235   0.083
 3570SOL    HW111270   3.455   3.322   0.080
 3570SOL    HW211271   3.423   3.175   0.064
 3571SOL     OW11272   2.327   3.601   0.323
 3571SOL    HW111273   2.368   3.659   0.387
 3571SOL    HW211274   2.398   3.576   0.264
 3572SOL     OW11275   3.268   1.973   0.441
 3572SOL    HW111276   3.258   1.952   0.348
 3572SOL    HW211277   3.363   1.979   0.454
 3573SOL     OW11278   2.116   3.653   1.233
 3573SOL    HW111279   2.169   3.589   1.280
 3573SOL    HW211280   2.107   3.617   1.144
 3574SOL     OW11281   2.799   3.562   0.899
 3574SOL    HW111282   2.874   3.508   0.924
 3574SOL    HW211283   2.754   3.511   0.831
 3575SOL     OW11284   2.243   2.553   0.468
 3575SOL    HW111285   2.275   2.465   0.488
 3575SOL    HW211286   2.153   2.554   0.499
 3576SOL     OW11287   3.399   2.088   1.726
 3576SOL    HW111288   3.408   2.109   1.818
 3576SOL    HW211289   3.330   2.021   1.722
 3577SOL     OW11290   2.490   1.977   0.133
 3577SOL    HW111291   2.585   1.963   0.141
 3577SOL    HW211292   2.470   1.954   0.043
 3578SOL     OW11293   2.619   2.116   1.745
 3578SOL    HW111294   2.702   2.068   1.755
 3578SOL    HW211295   2.599   2.146   1.834
 3579SOL     OW11296   2.739   3.386   1.194
 3579SOL    HW111297   2.722   3.349   1.107
 3579SOL    HW211298   2.805   3.328   1.232
 3580SOL     OW11299   3.211   2.450   1.428
 3580SOL    HW111300   3.238   2.418   1.515
 3580SOL    HW211301   3.245   2.539   1.424
 3581SOL     OW11302   2.676   3.271   0.934
 3581SOL    HW111303   2.760   3.253   0.891
 3581SOL    HW211304   2.611   3.262   0.865
 3582SOL     OW11305   2.782   2.352   0.899
 3582SOL    HW111306   2.767   2.340   0.806
 3582SOL    HW211307   2.829   2.274   0.927
 3583SOL     OW11308   2.411   1.925   0.506
 3583SOL    HW111309   2.330   1.925   0.558
 3583SOL    HW211310   2.404   2.004   0.452
 3584SOL     OW11311   3.295   3.061   0.036
 3584SOL    HW111312   3.319   2.987   0.092
 3584SOL    HW211313   3.207   3.085   0.064
 3585SOL     OW11314   2.171   1.915   0.167
 3585SOL    HW111315   2.235   1.984   0.182
 3585SOL    HW211316   2.208   1.838   0.211
 3586SOL     OW11317   2.800   2.110   0.460
 3586SOL    HW111318   2.773   2.149   0.377
 3586SOL    HW211319   2.895   2.120   0.462
 3587SOL     OW11320   2.946   2.526   1.459
 3587SOL    HW111321   2.895   2.447   1.443
 3587SOL    HW211322   3.036   2.501   1.440
 3588SOL     OW11323   3.088   3.429   0.792
 3588SOL    HW111324   3.103   3.498   0.728
 3588SOL    HW211325   3.153   3.444   0.861
 3589SOL     OW11326   2.328   3.016   0.734
 3589SOL    HW111327   2.260   2.992   0.796
 3589SOL    HW211328   2.293   2.991   0.648
 3590SOL     OW11329   3.131   3.656   0.606
 3590SOL    HW111330   3.179   3.719   0.552
 3590SOL    HW211331   3.066   3.709   0.652
 3591SOL     OW11332   2.919   2.376   0.022
 3591SOL    HW111333   2.867   2.454   0.003
 3591SOL    HW211334   2.975   2.402   0.095
 3592SOL     OW11335   1.940   2.418   1.390
 3592SOL    HW111336   2.033   2.415   1.365
 3592SOL    HW211337   1.935   2.488   1.455
 3593SOL     OW11338   2.419   2.077   1.159
 3593SOL    HW111339   2.460   2.001   1.200
 3593SOL    HW211340   2.329   2.077   1.192
 3594SOL     OW11341   2.719   2.307   0.641
 3594SOL    HW111342   2.719   2.381   0.580
 3594SOL    HW211343   2.746   2.232   0.589
 3595SOL     OW11344   2.876   1.914   0.752
 3595SOL    HW111345   2.817   1.905   0.677
 3595SOL    HW211346   2.855   1.838   0.807
 3596SOL     OW11347   3.300   3.026   0.858
 3596SOL    HW111348   3.233   2.958   0.855
 3596SOL    HW211349   3.324   3.039   0.767
 3597SOL     OW11350   3.331   2.465   0.978
 3597SOL    HW111351   3.279   2.384   0.983
 3597SOL    HW211352   3.390   2.460   1.053
 3598SOL     OW11353   3.710   2.678   0.388
 3598SOL    HW111354   3.762   2.625   0.448
 3598SOL    HW211355   3.679   2.617   0.321
 3599SOL     OW11356   2.342   3.305   0.175
 3599SOL    HW111357   2.273   3.260   0.223
 3599SOL    HW211358   2.351   3.255   0.094
 3600SOL     OW11359   3.530   3.127   0.650
 3600SOL    HW111360   3.625   3.131   0.661
 3600SOL    HW211361   3.499   3.215   0.669
 3601SOL     OW11362   3.260   2.442   0.087
 3601SOL    HW111363   3.198   2.418   0.156
 3601SOL    HW211364   3.319   2.368   0.081
 3602SOL     OW11365   2.378   2.126   0.325
 3602SOL    HW111366   2.427   2.073   0.262
 3602SOL    HW211367   2.369   2.212   0.282
 3603SOL     OW11368   3.615   3.099   1.575
 3603SOL    HW111369   3.703   3.061   1.572
 3603SOL    HW211370   3.630   3.189   1.604
 3604SOL     OW11371   2.924   3.219   1.335
 3604SOL    HW111372   2.848   3.186   1.382
 3604SOL    HW211373   2.998   3.175   1.377
 3605SOL     OW11374   3.468   3.487   1.652
 3605SOL    HW111375   3.464   3.521   1.563
 3605SOL    HW211376   3.552   3.440   1.656
 3606SOL     OW11377   2.989   3.063   1.105
 3606SOL    HW111378   2.927   3.091   1.172
 3606SOL    HW211379   2.951   3.095   1.023
 3607SOL     OW11380   3.492   2.961   1.078
 3607SOL    HW111381   3.488   3.023   1.151
 3607SOL    HW211382   3.412   2.978   1.028
 3608SOL     OW11383   2.780   1.959   1.397
 3608SOL    HW111384   2.803   1.940   1.306
 3608SOL    HW211385   2.859   1.999   1.434
 3609SOL     OW11386   2.851   2.972   1.717
 3609SOL    HW111387   2.759   2.986   1.738
 3609SOL    HW211388   2.850   2.917   1.638
 3610SOL     OW11389   2.568   2.946   0.363
 3610SOL    HW111390   2.526   2.933   0.448
 3610SOL    HW211391   2.614   2.863   0.347
 3611SOL     OW11392   2.265   2.674   1.255
 3611SOL    HW111393   2.355   2.683   1.287
 3611SOL    HW211394   2.242   2.583   1.276
 3612SOL     OW11395   3.129   2.239   1.273
 3612SOL    HW111396   3.164   2.316   1.319
 3612SOL    HW211397   3.039   2.263   1.250
 3613SOL     OW11398   1.931   3.434   1.351
 3613SOL    HW111399   1.901   3.508   1.298
 3613SOL    HW211400   2.027   3.440   1.346
 3614SOL     OW11401   2.219   2.967   0.486
 3614SOL    HW111402   2.213   3.042   0.428
 3614SOL    HW211403   2.218   2.891   0.428
 3615SOL     OW11404   2.410   2.380   0.869
 3615SOL    HW111405   2.414   2.410   0.778
 3615SOL    HW211406   2.498   2.395   0.904
 3616SOL     OW11407   3.109   3.208   0.396
 3616SOL    HW111408   3.164   3.282   0.422
 3616SOL    HW211409   3.021   3.233   0.426
 3617SOL     OW11410   3.140   3.318   1.145
 3617SOL    HW111411   3.194   3.320   1.224
 3617SOL    HW211412   3.081   3.244   1.158
 3618SOL     OW11413   3.443   2.487   0.479
 3618SOL    HW111414   3.398   2.542   0.543
 3618SOL    HW211415   3.485   2.549   0.419
 3619SOL     OW11416   2.210   3.387   1.317
 3619SOL    HW111417   2.196   3.345   1.232
 3619SOL    HW211418   2.304   3.400   1.323
 3620SOL     OW11419   2.266   2.604   1.610
 3620SOL    HW111420   2.322   2.656   1.552
 3620SOL    HW211421   2.300   2.514   1.602
 3621SOL     OW11422   3.461   2.640   1.681
 3621SOL    HW111423   3.374   2.680   1.672
 3621SOL    HW211424   3.513   2.682   1.612
 3622SOL     OW11425   2.862   1.984   1.759
 3622SOL    HW111426   2.914   2.056   1.724
 3622SOL    HW211427   2.909   1.905   1.732
 3623SOL     OW11428   2.359   1.902   1.746
 3623SOL    HW111429   2.317   1.848   1.679
 3623SOL    HW211430   2.300   1.976   1.758
 3624SOL     OW11431   3.225   2.721   1.032
 3624SOL    HW111432   3.146   2.711   0.980
 3624SOL    HW211433   3.265   2.634   1.032
 3625SOL     OW11434   3.060   2.390   0.272
 3625SOL    HW111435   3.066   2.308   0.322
 3625SOL    HW211436   3.069   2.458   0.339
 3626SOL     OW11437   2.161   2.062   1.247
 3626SOL    HW111438   2.124   2.094   1.329
 3626SOL    HW211439   2.142   1.968   1.247
 3627SOL     OW11440   1.906   3.173   1.277
 3627SOL    HW111441   1.941   3.119   1.348
 3627SOL    HW211442   1.915   3.263   1.308
 3628SOL     OW11443   3.596   2.821   1.851
 3628SOL    HW111444   3.549   2.763   1.792
 3628SOL    HW211445   3.536   2.834   1.925
 3629SOL     OW11446   2.164   1.928   0.623
 3629SOL    HW111447   2.146   2.019   0.648
 3629SOL    HW211448   2.170   1.881   0.706
 3630SOL     OW11449   3.480   2.236   0.371
 3630SOL    HW111450   3.505   2.171   0.437
 3630SOL    HW211451   3.455   2.313   0.421
 3631SOL     OW11452   2.843   3.428   1.715
 3631SOL    HW111453   2.828   3.473   1.632
 3631SOL    HW211454   2.887   3.346   1.691
 3632SOL     OW11455   3.717   3.370   1.605
 3632SOL    HW111456   3.735   3.396   1.515
 3632SOL    HW211457   3.798   3.390   1.652
 3633SOL     OW11458   2.210   2.780   1.813
 3633SOL    HW111459   2.291   2.808   1.855
 3633SOL    HW211460   2.239   2.715   1.748
 3634SOL     OW11461   3.382   2.160   0.127
 3634SOL    HW111462   3.334   2.079   0.142
 3634SOL    HW211463   3.421   2.181   0.211
 3635SOL     OW11464   3.157   2.688   0.023
 3635SOL    HW111465   3.195   2.602   0.039
 3635SOL    HW211466   3.212   2.725   8.034
 3636SOL     OW11467   2.926   3.198   0.849
 3636SOL    HW111468   2.930   3.129   0.784
 3636SOL    HW211469   2.989   3.264   0.819
 3637SOL     OW11470   2.170   2.673   0.949
 3637SOL    HW111471   2.260   2.706   0.957
 3637SOL    HW211472   2.172   2.587   0.990
 3638SOL     OW11473   2.189   2.384   1.019
 3638SOL    HW111474   2.151   2.297   1.002
 3638SOL    HW211475   2.265   2.388   0.962
 3639SOL     OW11476   2.998   2.237   1.678
 3639SOL    HW111477   2.954   2.291   1.744
 3639SOL    HW211478   3.086   2.275   1.672
 3640SOL     OW11479   3.023   2.065   1.469
 3640SOL    HW111480   3.013   2.127   1.541
 3640SOL    HW211481   3.061   2.116   1.398
 3641SOL     OW11482   1.872   3.188   0.192
 3641SOL    HW111483   1.785   3.201   0.154
 3641SOL    HW211484   1.871   3.097   0.222
 3642SOL     OW11485   1.952   3.651   0.937
 3642SOL    HW111486   1.922   3.571   0.894
 3642SOL    HW211487   2.042   3.662   0.906
 3643SOL     OW11488   2.360   3.435   0.905
 3643SOL    HW111489   2.429   3.497   0.930
 3643SOL    HW211490   2.405   3.370   0.851
 3644SOL     OW11491   1.897   2.405   1.117
 3644SOL    HW111492   1.979   2.393   1.069
 3644SOL    HW211493   1.924   2.411   1.208
 3645SOL     OW11494   2.053   2.380   1.726
 3645SOL    HW111495   2.105   2.339   1.657
 3645SOL    HW211496   2.008   2.452   1.682
 3646SOL     OW11497   3.237   2.803   1.659
 3646SOL    HW111498   3.259   2.896   1.658
 3646SOL    HW211499   3.235   2.777   1.567
 3647SOL     OW11500   3.505   2.464   1.188
 3647SOL    HW111501   3.493   2.405   1.262
 3647SOL    HW211502   3.591   2.443   1.154
 3648SOL     OW11503   2.107   3.414   1.729
 3648SOL    HW111504   2.083   3.478   1.797
 3648SOL    HW211505   2.107   3.330   1.775
 3649SOL     OW11506   2.541   2.297   1.258
 3649SOL    HW111507   2.496   2.218   1.229
 3649SOL    HW211508   2.552   2.349   1.178
 3650SOL     OW11509   2.790   3.542   1.468
 3650SOL    HW111510   2.766   3.507   1.382
 3650SOL    HW211511   2.787   3.637   1.457
 3651SOL     OW11512   2.334   2.360   0.190
 3651SOL    HW111513   2.393   2.434   0.199
 3651SOL    HW211514   2.246   2.399   0.192
 3652SOL     OW11515   2.008   3.003   1.472
 3652SOL    HW111516   2.012   2.949   1.551
 3652SOL    HW211517   2.024   2.941   1.401
 3653SOL     OW11518   3.190   2.911   1.225
 3653SOL    HW111519   3.214   2.848   1.157
 3653SOL    HW211520   3.120   2.962   1.186
 3654SOL     OW11521   3.167   2.694   0.305
 3654SOL    HW111522   3.086   2.725   0.345
 3654SOL    HW211523   3.151   2.701   0.211
 3655SOL     OW11524   3.630   3.608   1.148
 3655SOL    HW111525   3.692   3.634   1.079
 3655SOL    HW211526   3.608   3.517   1.128
 3656SOL     OW11527   3.103   3.595   1.115
 3656SOL    HW111528   3.185   3.614   1.069
 3656SOL    HW211529   3.107   3.501   1.133
 3657SOL     OW11530   1.945   3.129   1.013
 3657SOL    HW111531   1.932   3.140   1.107
 3657SOL    HW211532   1.872   3.074   0.985
 3658SOL     OW11533   2.539   3.526   1.726
 3658SOL    HW111534   2.488   3.607   1.722
 3658SOL    HW211535   2.604   3.536   1.656
 3659SOL     OW11536   2.767   1.955   0.136
 3659SOL    HW111537   2.787   1.940   0.043
 3659SOL    HW211538   2.829   1.900   0.183
 3660SOL     OW11539   3.580   2.005   0.511
 3660SOL    HW111540   3.653   1.990   0.451
 3660SOL    HW211541   3.565   1.920   0.552
 3661SOL     OW11542   3.251   3.430   0.483
 3661SOL    HW111543   3.314   3.462   0.419
 3661SOL    HW211544   3.204   3.508   0.513
 3662SOL     OW11545   1.997   3.659   1.843
 3662SOL    HW111546   1.946   3.594   1.892
 3662SOL    HW211547   2.046   3.707   1.911
 3663SOL     OW11548   3.131   2.788   0.670
 3663SOL    HW111549   3.204   2.726   0.678
 3663SOL    HW211550   3.167   2.860   0.619
 3664SOL     OW11551   2.689   3.139   1.436
 3664SOL    HW111552   2.648   3.180   1.512
 3664SOL    HW211553   2.617   3.127   1.374
 3665SOL     OW11554   2.539   3.482   0.155
 3665SOL    HW111555   2.543   3.487   0.059
 3665SOL    HW211556   2.478   3.411   0.172
 3666SOL     OW11557   3.492   3.588   1.392
 3666SOL    HW111558   3.540   3.596   1.309
 3666SOL    HW211559   3.478   3.679   1.420
 3667SOL     OW11560   3.702   2.035   0.967
 3667SOL    HW111561   3.731   1.948   0.939
 3667SOL    HW211562   3.616   2.046   0.927
 3668SOL     OW11563   2.125   2.182   0.717
 3668SOL    HW111564   2.039   2.214   0.693
 3668SOL    HW211565   2.121   2.170   0.812
 3669SOL     OW11566   3.019   3.445   0.052
 3669SOL    HW111567   3.036   3.353   0.069
 3669SOL    HW211568   3.026   3.453   8.037
 3670SOL     OW11569   3.373   3.487   0.060
 3670SOL    HW111570   3.277   3.488   0.050
 3670SOL    HW211571   3.406   3.486   8.050
 3671SOL     OW11572   2.230   3.164   1.493
 3671SOL    HW111573   2.219   3.241   1.437
 3671SOL    HW211574   2.153   3.110   1.475
 3672SOL     OW11575   3.474   3.145   1.281
 3672SOL    HW111576   3.533   3.136   1.355
 3672SOL    HW211577   3.413   3.215   1.306
 3673SOL     OW11578   2.908   2.965   0.701
 3673SOL    HW111579   2.844   2.917   0.753
 3673SOL    HW211580   2.976   2.900   0.680
 3674SOL     OW11581   2.886   2.098   0.966
 3674SOL    HW111582   2.880   2.048   0.884
 3674SOL    HW211583   2.879   2.031   1.034
 3675SOL     OW11584   2.462   3.350   0.481
 3675SOL    HW111585   2.506   3.303   0.409
 3675SOL    HW211586   2.395   3.402   0.437
 3676SOL     OW11587   3.582   2.254   1.380
 3676SOL    HW111588   3.654   2.317   1.379
 3676SOL    HW211589   3.612   2.182   1.324
 3677SOL     OW11590   2.125   3.182   0.300
 3677SOL    HW111591   2.041   3.197   0.257
 3677SOL    HW211592   2.119   3.231   0.382
 3678SOL     OW11593   1.973   2.880   1.718
 3678SOL    HW111594   1.897   2.859   1.772
 3678SOL    HW211595   2.047   2.845   1.767
 3679SOL     OW11596   2.533   2.057   1.494
 3679SOL    HW111597   2.618   2.039   1.455
 3679SOL    HW211598   2.553   2.080   1.585
 3680SOL     OW11599   1.921   2.220   0.039
 3680SOL    HW111600   1.846   2.166   0.015
 3680SOL    HW211601   1.960   2.246   8.036
 3681SOL     OW11602   3.294   2.720   1.402
 3681SOL    HW111603   3.244   2.780   1.346
 3681SOL    HW211604   3.383   2.724   1.368
 3682SOL     OW11605   1.934   2.018   0.309
 3682SOL    HW111606   1.917   2.100   0.263
 3682SOL    HW211607   2.018   1.987   0.273
 3683SOL     OW11608   3.048   3.184   0.121
 3683SOL    HW111609   2.953   3.171   0.120
 3683SOL    HW211610   3.070   3.185   0.214
 3684SOL     OW11611   3.347   3.636   0.976
 3684SOL    HW111612   3.372   3.696   0.905
 3684SOL    HW211613   3.428   3.621   1.024
 3685SOL     OW11614   3.333   3.063   1.633
 3685SOL    HW111615   3.320   3.077   1.727
 3685SOL    HW211616   3.426   3.077   1.618
 3686SOL     OW11617   2.243   3.602   1.564
 3686SOL    HW111618   2.157   3.642   1.551
 3686SOL    HW211619   2.224   3.517   1.605
 3687SOL     OW11620   3.533   2.744   1.256
 3687SOL    HW111621   3.525   2.658   1.213
 3687SOL    HW211622   3.524   2.807   1.184
 3688SOL     OW11623   3.081   2.181   0.459
 3688SOL    HW111624   3.145   2.110   0.450
 3688SOL    HW211625   3.108   2.229   0.536
 3689SOL     OW11626   3.626   2.222   1.649
 3689SOL    HW111627   3.608   2.237   1.557
 3689SOL    HW211628   3.555   2.166   1.679
 3690SOL     OW11629   3.606   2.795   1.513
 3690SOL    HW111630   3.607   2.890   1.526
 3690SOL    HW211631   3.591   2.784   1.419
 3691SOL     OW11632   2.756   3.236   0.034
 3691SOL    HW111633   2.691   3.231   0.104
 3691SOL    HW211634   2.740   3.322   8.074
 3692SOL     OW11635   2.521   3.656   0.947
 3692SOL    HW111636   2.501   3.746   0.922
 3692SOL    HW211637   2.616   3.649   0.939
 3693SOL     OW11638   2.960   2.864   0.090
 3693SOL    HW111639   2.942   2.916   0.012
 3693SOL    HW211640   3.029   2.803   0.063
 3694SOL     OW11641   3.718   3.417   0.845
 3694SOL    HW111642   3.640   3.407   0.790
 3694SOL    HW211643   3.708   3.351   0.913
 3695SOL     OW11644   2.086   3.166   1.856
 3695SOL    HW111645   2.018   3.106   1.828
 3695SOL    HW211646   2.071   3.178   1.950
 3696SOL     OW11647   1.945   3.095   0.664
 3696SOL    HW111648   1.949   3.047   0.747
 3696SOL    HW211649   2.019   3.063   0.613
 3697SOL     OW11650   2.541   3.263   1.627
 3697SOL    HW111651   2.460   3.221   1.656
 3697SOL    HW211652   2.536   3.351   1.663
 3698SOL     OW11653   3.675   2.047   1.238
 3698SOL    HW111654   3.686   1.953   1.253
 3698SOL    HW211655   3.684   2.057   1.143
 3699SOL     OW11656   2.304   2.296   0.537
 3699SOL    HW111657   2.323   2.228   0.472
 3699SOL    HW211658   2.244   2.253   0.599
 3700SOL     OW11659   3.564   3.352   1.098
 3700SOL    HW111660   3.482   3.328   1.054
 3700SOL    HW211661   3.577   3.284   1.164
 3701SOL     OW11662   2.194   2.413   1.296
 3701SOL    HW111663   2.249   2.354   1.348
 3701SOL    HW211664   2.208   2.384   1.206
 3702SOL     OW11665   2.689   3.440   0.676
 3702SOL    HW111666   2.677   3.489   0.595
 3702SOL    HW211667   2.611   3.385   0.682
 3703SOL     OW11668   3.295   2.085   1.119
 3703SOL    HW111669   3.323   2.007   1.167
 3703SOL    HW211670   3.242   2.135   1.182
 3704SOL     OW11671   2.870   1.881   1.144
 3704SOL    HW111672   2.816   1.812   1.105
 3704SOL    HW211673   2.958   1.844   1.147
 3705SOL     OW11674   2.633   3.203   0.303
 3705SOL    HW111675   2.601   3.113   0.313
 3705SOL    HW211676   2.715   3.204   0.353
 3706SOL     OW11677   2.481   3.422   1.283
 3706SOL    HW111678   2.485   3.503   1.334
 3706SOL    HW211679   2.569   3.411   1.247
 3707SOL     OW11680   3.218   1.917   0.183
 3707SOL    HW111681   3.241   1.868   0.103
 3707SOL    HW211682   3.133   1.881   0.208
 3708SOL     OW11683   3.163   2.316   0.682
 3708SOL    HW111684   3.116   2.399   0.694
 3708SOL    HW211685   3.160   2.275   0.768
 3709SOL     OW11686   3.449   2.066   0.877
 3709SOL    HW111687   3.386   2.085   0.947
 3709SOL    HW211688   3.448   2.144   0.822
 3710SOL     OW11689   1.903   2.930   0.299
 3710SOL    HW111690   1.999   2.930   0.301
 3710SOL    HW211691   1.879   2.848   0.343
 3711SOL     OW11692   2.744   3.514   0.348
 3711SOL    HW111693   2.677   3.496   0.282
 3711SOL    HW211694   2.711   3.590   0.396
 3712SOL     OW11695   2.094   2.481   1.983
 3712SOL    HW111696   2.005   2.487   2.018
 3712SOL    HW211697   2.082   2.457   1.891
 3713SOL     OW11698   2.089   2.139   2.863
 3713SOL    HW111699   2.112   2.096   2.946
 3713SOL    HW211700   2.000   2.110   2.845
 3714SOL     OW11701   1.867   2.243   2.502
 3714SOL    HW111702   1.784   2.268   2.541
 3714SOL    HW211703   1.847   2.164   2.451
 3715SOL     OW11704   2.431   3.165   3.002
 3715SOL    HW111705   2.341   3.177   2.971
 3715SOL    HW211706   2.449   3.243   3.054
 3716SOL     OW11707   3.422   3.374   2.567
 3716SOL    HW111708   3.380   3.354   2.650
 3716SOL    HW211709   3.349   3.378   2.504
 3717SOL     OW11710   3.015   2.541   2.580
 3717SOL    HW111711   3.045   2.630   2.565
 3717SOL    HW211712   2.943   2.550   2.643
 3718SOL     OW11713   3.628   2.469   2.091
 3718SOL    HW111714   3.608   2.460   1.998
 3718SOL    HW211715   3.592   2.389   2.131
 3719SOL     OW11716   2.650   3.028   2.911
 3719SOL    HW111717   2.563   3.043   2.949
 3719SOL    HW211718   2.666   3.107   2.859
 3720SOL     OW11719   2.189   3.297   2.934
 3720SOL    HW111720   2.120   3.260   2.878
 3720SOL    HW211721   2.244   3.347   2.873
 3721SOL     OW11722   3.333   3.370   3.207
 3721SOL    HW111723   3.381   3.453   3.206
 3721SOL    HW211724   3.319   3.351   3.300
 3722SOL     OW11725   3.475   2.312   2.601
 3722SOL    HW111726   3.398   2.335   2.550
 3722SOL    HW211727   3.492   2.388   2.656
 3723SOL     OW11728   2.081   3.576   2.335
 3723SOL    HW111729   2.104   3.652   2.388
 3723SOL    HW211730   2.153   3.568   2.272
 3724SOL     OW11731   2.090   3.302   2.395
 3724SOL    HW111732   2.075   3.397   2.401
 3724SOL    HW211733   2.031   3.264   2.460
 3725SOL     OW11734   2.112   2.950   2.749
 3725SOL    HW111735   2.112   2.867   2.796
 3725SOL    HW211736   2.058   3.008   2.803
 3726SOL     OW11737   2.481   3.650   3.300
 3726SOL    HW111738   2.394   3.637   3.339
 3726SOL    HW211739   2.502   3.741   3.320
 3727SOL     OW11740   2.430   2.862   1.988
 3727SOL    HW111741   2.476   2.920   1.927
 3727SOL    HW211742   2.491   2.849   2.060
 3728SOL     OW11743   3.453   1.985   3.329
 3728SOL    HW111744   3.466   2.068   3.282
 3728SOL    HW211745   3.445   2.010   3.421
 3729SOL     OW11746   1.976   2.512   2.423
 3729SOL    HW111747   1.944   2.425   2.444
 3729SOL    HW211748   1.967   2.561   2.504
 3730SOL     OW11749   3.704   3.622   2.198
 3730SOL    HW111750   3.766   3.593   2.265
 3730SOL    HW211751   3.729   3.712   2.179
 3731SOL     OW11752   1.892   3.458   1.986
 3731SOL    HW111753   1.875   3.366   2.006
 3731SOL    HW211754   1.869   3.505   2.066
 3732SOL     OW11755   3.552   2.782   2.501
 3732SOL    HW111756   3.636   2.741   2.483
 3732SOL    HW211757   3.532   2.831   2.421
 3733SOL     OW11758   3.507   2.970   2.291
 3733SOL    HW111759   3.593   2.977   2.248
 3733SOL    HW211760   3.513   3.030   2.365
 3734SOL     OW11761   2.477   3.244   2.594
 3734SOL    HW111762   2.432   3.160   2.605
 3734SOL    HW211763   2.457   3.271   2.505
 3735SOL     OW11764   2.674   1.857   2.370
 3735SOL    HW111765   2.717   1.940   2.350
 3735SOL    HW211766   2.581   1.880   2.379
 3736SOL     OW11767   3.394   2.854   2.059
 3736SOL    HW111768   3.328   2.793   2.091
 3736SOL    HW211769   3.434   2.889   2.139
 3737SOL     OW11770   3.060   3.680   3.485
 3737SOL    HW111771   3.062   3.732   3.405
 3737SOL    HW211772   3.040   3.591   3.455
 3738SOL     OW11773   3.334   3.282   2.811
 3738SOL    HW111774   3.263   3.299   2.873
 3738SOL    HW211775   3.321   3.191   2.784
 3739SOL     OW11776   3.522   3.598   2.440
 3739SOL    HW111777   3.501   3.569   2.351
 3739SOL    HW211778   3.497   3.524   2.495
 3740SOL     OW11779   3.145   2.211   2.797
 3740SOL    HW111780   3.054   2.182   2.801
 3740SOL    HW211781   3.190   2.155   2.860
 3741SOL     OW11782   3.443   3.531   2.171
 3741SOL    HW111783   3.533   3.564   2.165
 3741SOL    HW211784   3.418   3.514   2.080
 3742SOL     OW11785   1.950   2.681   2.640
 3742SOL    HW111786   2.032   2.676   2.690
 3742SOL    HW211787   1.907   2.760   2.672
 3743SOL     OW11788   1.981   3.703   3.438
 3743SOL    HW111789   1.981   3.685   3.532
 3743SOL    HW211790   1.888   3.709   3.415
 3744SOL     OW11791   2.743   2.189   2.009
 3744SOL    HW111792   2.798   2.252   1.963
 3744SOL    HW211793   2.790   2.106   2.003
 3745SOL     OW11794   3.589   2.441   3.691
 3745SOL    HW111795   3.566   2.526   3.653
 3745SOL    HW211796   3.597   2.382   3.616
 3746SOL     OW11797   3.236   3.001   2.402
 3746SOL    HW111798   3.317   2.991   2.353
 3746SOL    HW211799   3.186   3.067   2.353
 3747SOL     OW11800   2.410   2.044   2.763
 3747SOL    HW111801   2.401   2.081   2.851
 3747SOL    HW211802   2.418   2.120   2.705
 3748SOL     OW11803   2.867   3.305   2.336
 3748SOL    HW111804   2.830   3.378   2.287
 3748SOL    HW211805   2.855   3.329   2.428
 3749SOL     OW11806   2.217   3.669   2.722
 3749SOL    HW111807   2.260   3.584   2.730
 3749SOL    HW211808   2.286   3.733   2.738
 3750SOL     OW11809   3.660   2.921   2.729
 3750SOL    HW111810   3.604   2.903   2.654
 3750SOL    HW211811   3.600   2.926   2.803
 3751SOL     OW11812   2.177   2.824   2.111
 3751SOL    HW111813   2.259   2.846   2.066
 3751SOL    HW211814   2.152   2.738   2.076
 3752SOL     OW11815   3.339   2.603   2.586
 3752SOL    HW111816   3.324   2.560   2.671
 3752SOL    HW211817   3.414   2.661   2.602
 3753SOL     OW11818   2.983   3.639   2.094
 3753SOL    HW111819   2.911   3.597   2.140
 3753SOL    HW211820   3.005   3.579   2.023
 3754SOL     OW11821   3.491   3.241   1.949
 3754SOL    HW111822   3.450   3.326   1.934
 3754SOL    HW211823   3.421   3.178   1.930
 3755SOL     OW11824   2.329   3.599   2.184
 3755SOL    HW111825   2.369   3.657   2.248
 3755SOL    HW211826   2.401   3.572   2.128
 3756SOL     OW11827   3.263   1.969   2.293
 3756SOL    HW111828   3.252   1.944   2.201
 3756SOL    HW211829   3.358   1.977   2.305
 3757SOL     OW11830   2.116   3.644   3.096
 3757SOL    HW111831   2.196   3.600   3.127
 3757SOL    HW211832   2.107   3.615   3.005
 3758SOL     OW11833   2.801   3.560   2.765
 3758SOL    HW111834   2.876   3.504   2.785
 3758SOL    HW211835   2.752   3.512   2.699
 3759SOL     OW11836   2.249   2.553   2.336
 3759SOL    HW111837   2.276   2.463   2.354
 3759SOL    HW211838   2.156   2.555   2.359
 3760SOL     OW11839   3.405   2.077   3.587
 3760SOL    HW111840   3.410   2.109   3.677
 3760SOL    HW211841   3.327   2.021   3.585
 3761SOL     OW11842   2.479   1.976   1.980
 3761SOL    HW111843   2.568   1.941   1.979
 3761SOL    HW211844   2.444   1.953   1.893
 3762SOL     OW11845   2.672   3.271   2.789
 3762SOL    HW111846   2.757   3.255   2.749
 3762SOL    HW211847   2.609   3.257   2.719
 3763SOL     OW11848   2.790   2.362   2.758
 3763SOL    HW111849   2.769   2.341   2.667
 3763SOL    HW211850   2.824   2.280   2.794
 3764SOL     OW11851   2.410   1.926   2.366
 3764SOL    HW111852   2.328   1.926   2.416
 3764SOL    HW211853   2.405   2.004   2.311
 3765SOL     OW11854   3.290   3.060   1.903
 3765SOL    HW111855   3.321   2.984   1.953
 3765SOL    HW211856   3.204   3.080   1.940
 3766SOL     OW11857   2.156   1.909   2.047
 3766SOL    HW111858   2.216   1.971   2.005
 3766SOL    HW211859   2.213   1.844   2.088
 3767SOL     OW11860   2.806   2.094   2.325
 3767SOL    HW111861   2.767   2.163   2.272
 3767SOL    HW211862   2.899   2.113   2.325
 3768SOL     OW11863   3.088   3.431   2.654
 3768SOL    HW111864   3.105   3.500   2.590
 3768SOL    HW211865   3.155   3.445   2.721
 3769SOL     OW11866   2.328   3.016   2.598
 3769SOL    HW111867   2.257   2.993   2.658
 3769SOL    HW211868   2.295   2.990   2.511
 3770SOL     OW11869   3.133   3.657   2.469
 3770SOL    HW111870   3.178   3.718   2.410
 3770SOL    HW211871   3.067   3.710   2.513
 3771SOL     OW11872   2.907   2.394   1.883
 3771SOL    HW111873   2.846   2.467   1.877
 3771SOL    HW211874   2.963   2.416   1.957
 3772SOL     OW11875   2.729   2.301   2.508
 3772SOL    HW111876   2.711   2.366   2.441
 3772SOL    HW211877   2.753   2.222   2.459
 3773SOL     OW11878   2.878   1.911   2.612
 3773SOL    HW111879   2.818   1.904   2.538
 3773SOL    HW211880   2.855   1.837   2.669
 3774SOL     OW11881   3.297   3.028   2.719
 3774SOL    HW111882   3.239   2.952   2.727
 3774SOL    HW211883   3.316   3.034   2.625
 3775SOL     OW11884   3.328   2.461   2.838
 3775SOL    HW111885   3.279   2.379   2.842
 3775SOL    HW211886   3.390   2.456   2.911
 3776SOL     OW11887   3.709   2.680   2.244
 3776SOL    HW111888   3.764   2.628   2.302
 3776SOL    HW211889   3.680   2.617   2.177
 3777SOL     OW11890   2.355   3.275   2.023
 3777SOL    HW111891   2.279   3.248   2.074
 3777SOL    HW211892   2.337   3.244   1.934
 3778SOL     OW11893   3.531   3.127   2.507
 3778SOL    HW111894   3.625   3.131   2.522
 3778SOL    HW211895   3.499   3.215   2.530
 3779SOL     OW11896   3.256   2.434   1.934
 3779SOL    HW111897   3.197   2.413   2.006
 3779SOL    HW211898   3.341   2.401   1.963
 3780SOL     OW11899   2.386   2.128   2.184
 3780SOL    HW111900   2.424   2.074   2.115
 3780SOL    HW211901   2.369   2.213   2.143
 3781SOL     OW11902   3.622   3.093   3.426
 3781SOL    HW111903   3.713   3.062   3.424
 3781SOL    HW211904   3.627   3.178   3.470
 3782SOL     OW11905   3.461   3.481   3.507
 3782SOL    HW111906   3.467   3.523   3.422
 3782SOL    HW211907   3.546   3.438   3.518
 3783SOL     OW11908   2.976   3.106   2.971
 3783SOL    HW111909   2.904   3.065   3.018
 3783SOL    HW211910   2.944   3.116   2.881
 3784SOL     OW11911   3.493   2.963   2.940
 3784SOL    HW111912   3.488   3.025   3.012
 3784SOL    HW211913   3.409   2.971   2.895
 3785SOL     OW11914   1.932   3.436   3.207
 3785SOL    HW111915   1.877   3.496   3.158
 3785SOL    HW211916   2.021   3.470   3.198
 3786SOL     OW11917   2.218   2.966   2.351
 3786SOL    HW111918   2.214   3.041   2.291
 3786SOL    HW211919   2.210   2.889   2.294
 3787SOL     OW11920   2.413   2.388   2.735
 3787SOL    HW111921   2.428   2.418   2.645
 3787SOL    HW211922   2.499   2.398   2.778
 3788SOL     OW11923   3.109   3.209   2.253
 3788SOL    HW111924   3.165   3.282   2.282
 3788SOL    HW211925   3.022   3.231   2.286
 3789SOL     OW11926   3.142   3.321   2.993
 3789SOL    HW111927   3.193   3.314   3.074
 3789SOL    HW211928   3.087   3.243   2.992
 3790SOL     OW11929   3.442   2.487   2.338
 3790SOL    HW111930   3.400   2.540   2.405
 3790SOL    HW211931   3.490   2.549   2.283
 3791SOL     OW11932   2.353   1.892   3.609
 3791SOL    HW111933   2.317   1.835   3.541
 3791SOL    HW211934   2.280   1.949   3.632
 3792SOL     OW11935   3.235   2.724   2.864
 3792SOL    HW111936   3.141   2.714   2.848
 3792SOL    HW211937   3.267   2.634   2.877
 3793SOL     OW11938   3.064   2.390   2.132
 3793SOL    HW111939   3.070   2.308   2.180
 3793SOL    HW211940   3.055   2.457   2.200
 3794SOL     OW11941   1.915   3.167   3.146
 3794SOL    HW111942   1.975   3.126   3.209
 3794SOL    HW211943   1.919   3.260   3.166
 3795SOL     OW11944   3.598   2.792   3.697
 3795SOL    HW111945   3.552   2.804   3.614
 3795SOL    HW211946   3.542   2.835   3.762
 3796SOL     OW11947   2.164   1.928   2.485
 3796SOL    HW111948   2.145   2.018   2.510
 3796SOL    HW211949   2.170   1.881   2.568
 3797SOL     OW11950   3.476   2.235   2.231
 3797SOL    HW111951   3.504   2.172   2.297
 3797SOL    HW211952   3.453   2.314   2.280
 3798SOL     OW11953   2.884   3.446   3.557
 3798SOL    HW111954   2.849   3.501   3.487
 3798SOL    HW211955   2.860   3.357   3.532
 3799SOL     OW11956   3.717   3.376   3.469
 3799SOL    HW111957   3.736   3.397   3.378
 3799SOL    HW211958   3.799   3.392   3.515
 3800SOL     OW11959   3.392   2.136   1.989
 3800SOL    HW111960   3.328   2.070   2.016
 3800SOL    HW211961   3.425   2.171   2.072
 3801SOL     OW11962   3.155   2.687   1.892
 3801SOL    HW111963   3.198   2.602   1.895
 3801SOL    HW211964   3.186   2.727   1.811
 3802SOL     OW11965   2.922   3.201   2.705
 3802SOL    HW111966   2.930   3.128   2.644
 3802SOL    HW211967   2.988   3.264   2.676
 3803SOL     OW11968   2.171   2.675   2.820
 3803SOL    HW111969   2.264   2.698   2.809
 3803SOL    HW211970   2.172   2.582   2.842
 3804SOL     OW11971   2.177   2.395   2.857
 3804SOL    HW111972   2.150   2.303   2.859
 3804SOL    HW211973   2.262   2.394   2.814
 3805SOL     OW11974   1.867   3.184   2.057
 3805SOL    HW111975   1.780   3.198   2.019
 3805SOL    HW211976   1.865   3.094   2.090
 3806SOL     OW11977   1.953   3.651   2.799
 3806SOL    HW111978   1.922   3.571   2.757
 3806SOL    HW211979   2.042   3.662   2.768
 3807SOL     OW11980   2.359   3.437   2.765
 3807SOL    HW111981   2.429   3.493   2.798
 3807SOL    HW211982   2.405   3.367   2.717
 3808SOL     OW11983   1.902   2.394   2.997
 3808SOL    HW111984   1.964   2.384   2.924
 3808SOL    HW211985   1.956   2.420   3.071
 3809SOL     OW11986   2.706   2.335   2.231
 3809SOL    HW111987   2.703   2.291   2.145
 3809SOL    HW211988   2.639   2.403   2.224
 3810SOL     OW11989   3.506   2.451   3.041
 3810SOL    HW111990   3.500   2.395   3.118
 3810SOL    HW211991   3.595   2.437   3.008
 3811SOL     OW11992   2.113   3.422   3.591
 3811SOL    HW111993   2.084   3.487   3.655
 3811SOL    HW211994   2.105   3.338   3.637
 3812SOL     OW11995   2.802   3.561   3.331
 3812SOL    HW111996   2.761   3.520   3.255
 3812SOL    HW211997   2.789   3.655   3.318
 3813SOL     OW11998   2.332   2.364   2.057
 3813SOL    HW111999   2.381   2.446   2.069
 3813SOL    HW212000   2.241   2.393   2.044
 3814SOL     OW12001   3.176   2.710   2.165
 3814SOL    HW112002   3.093   2.722   2.211
 3814SOL    HW212003   3.152   2.705   2.073
 3815SOL     OW12004   3.632   3.608   3.011
 3815SOL    HW112005   3.692   3.634   2.942
 3815SOL    HW212006   3.609   3.518   2.991
 3816SOL     OW12007   3.104   3.596   2.979
 3816SOL    HW112008   3.184   3.618   2.933
 3816SOL    HW212009   3.108   3.501   2.990
 3817SOL     OW12010   1.944   3.126   2.877
 3817SOL    HW112011   1.931   3.138   2.971
 3817SOL    HW212012   1.870   3.072   2.849
 3818SOL     OW12013   2.546   3.552   3.606
 3818SOL    HW112014   2.490   3.629   3.596
 3818SOL    HW212015   2.592   3.546   3.522
 3819SOL     OW12016   3.581   2.006   2.373
 3819SOL    HW112017   3.654   1.992   2.313
 3819SOL    HW212018   3.565   1.920   2.413
 3820SOL     OW12019   3.251   3.429   2.344
 3820SOL    HW112020   3.313   3.461   2.278
 3820SOL    HW212021   3.204   3.508   2.373
 3821SOL     OW12022   1.998   3.659   3.705
 3821SOL    HW112023   1.947   3.595   3.754
 3821SOL    HW212024   2.047   3.707   3.772
 3822SOL     OW12025   3.132   2.785   2.529
 3822SOL    HW112026   3.205   2.724   2.539
 3822SOL    HW212027   3.168   2.859   2.481
 3823SOL     OW12028   2.533   3.480   2.017
 3823SOL    HW112029   2.543   3.492   1.923
 3823SOL    HW212030   2.480   3.402   2.026
 3824SOL     OW12031   3.492   3.591   3.252
 3824SOL    HW112032   3.543   3.599   3.171
 3824SOL    HW212033   3.478   3.681   3.280
 3825SOL     OW12034   3.702   2.035   2.830
 3825SOL    HW112035   3.731   1.949   2.801
 3825SOL    HW212036   3.616   2.046   2.790
 3826SOL     OW12037   2.125   2.179   2.582
 3826SOL    HW112038   2.040   2.214   2.556
 3826SOL    HW212039   2.120   2.172   2.677
 3827SOL     OW12040   3.068   3.469   1.893
 3827SOL    HW112041   3.059   3.378   1.920
 3827SOL    HW212042   3.004   3.480   1.823
 3828SOL     OW12043   3.355   3.486   1.904
 3828SOL    HW112044   3.261   3.482   1.891
 3828SOL    HW212045   3.391   3.493   1.816
 3829SOL     OW12046   3.473   3.145   3.142
 3829SOL    HW112047   3.526   3.130   3.220
 3829SOL    HW212048   3.418   3.220   3.164
 3830SOL     OW12049   2.912   2.967   2.562
 3830SOL    HW112050   2.839   2.920   2.602
 3830SOL    HW212051   2.976   2.900   2.542
 3831SOL     OW12052   2.890   2.101   2.820
 3831SOL    HW112053   2.884   2.046   2.741
 3831SOL    HW212054   2.877   2.040   2.892
 3832SOL     OW12055   2.462   3.353   2.342
 3832SOL    HW112056   2.505   3.306   2.271
 3832SOL    HW212057   2.394   3.405   2.299
 3833SOL     OW12058   3.582   2.254   3.241
 3833SOL    HW112059   3.654   2.317   3.241
 3833SOL    HW212060   3.612   2.182   3.185
 3834SOL     OW12061   2.121   3.208   2.149
 3834SOL    HW112062   2.028   3.206   2.126
 3834SOL    HW212063   2.123   3.245   2.237
 3835SOL     OW12064   1.939   2.198   1.898
 3835SOL    HW112065   1.852   2.177   1.865
 3835SOL    HW212066   1.968   2.272   1.846
 3836SOL     OW12067   1.932   2.019   2.174
 3836SOL    HW112068   1.917   2.099   2.123
 3836SOL    HW212069   2.017   1.987   2.144
 3837SOL     OW12070   3.042   3.203   1.979
 3837SOL    HW112071   2.951   3.172   1.981
 3837SOL    HW212072   3.070   3.202   2.071
 3838SOL     OW12073   3.346   3.639   2.840
 3838SOL    HW112074   3.371   3.695   2.767
 3838SOL    HW212075   3.428   3.619   2.885
 3839SOL     OW12076   2.235   3.615   3.424
 3839SOL    HW112077   2.149   3.654   3.411
 3839SOL    HW212078   2.218   3.534   3.472
 3840SOL     OW12079   3.572   2.750   3.108
 3840SOL    HW112080   3.535   2.669   3.073
 3840SOL    HW212081   3.541   2.818   3.048
 3841SOL     OW12082   3.081   2.181   2.318
 3841SOL    HW112083   3.144   2.110   2.310
 3841SOL    HW212084   3.108   2.228   2.397
 3842SOL     OW12085   3.624   2.223   3.509
 3842SOL    HW112086   3.605   2.235   3.416
 3842SOL    HW212087   3.553   2.167   3.540
 3843SOL     OW12088   3.607   2.799   3.384
 3843SOL    HW112089   3.600   2.894   3.389
 3843SOL    HW212090   3.592   2.779   3.292
 3844SOL     OW12091   2.728   3.233   1.894
 3844SOL    HW112092   2.688   3.262   1.975
 3844SOL    HW212093   2.746   3.313   1.845
 3845SOL     OW12094   2.523   3.660   2.816
 3845SOL    HW112095   2.501   3.748   2.785
 3845SOL    HW212096   2.616   3.650   2.797
 3846SOL     OW12097   2.954   2.859   1.953
 3846SOL    HW112098   2.923   2.902   1.873
 3846SOL    HW212099   3.023   2.800   1.923
 3847SOL     OW12100   3.717   3.418   2.707
 3847SOL    HW112101   3.640   3.405   2.652
 3847SOL    HW212102   3.711   3.348   2.773
 3848SOL     OW12103   2.077   3.188   3.722
 3848SOL    HW112104   2.012   3.121   3.703
 3848SOL    HW212105   2.077   3.196   3.817
 3849SOL     OW12106   1.945   3.096   2.527
 3849SOL    HW112107   1.950   3.047   2.609
 3849SOL    HW212108   2.015   3.060   2.473
 3850SOL     OW12109   3.673   2.046   3.100
 3850SOL    HW112110   3.687   1.953   3.115
 3850SOL    HW212111   3.684   2.057   3.005
 3851SOL     OW12112   2.302   2.294   2.398
 3851SOL    HW112113   2.324   2.227   2.333
 3851SOL    HW212114   2.244   2.249   2.459
 3852SOL     OW12115   3.563   3.354   2.962
 3852SOL    HW112116   3.484   3.327   2.915
 3852SOL    HW212117   3.579   3.282   3.024
 3853SOL     OW12118   2.687   3.444   2.539
 3853SOL    HW112119   2.674   3.487   2.455
 3853SOL    HW212120   2.611   3.386   2.549
 3854SOL     OW12121   3.289   2.084   2.987
 3854SOL    HW112122   3.330   2.004   3.019
 3854SOL    HW212123   3.254   2.126   3.066
 3855SOL     OW12124   2.872   1.880   2.994
 3855SOL    HW112125   2.812   1.810   2.967
 3855SOL    HW212126   2.958   1.839   2.997
 3856SOL     OW12127   2.635   3.203   2.174
 3856SOL    HW112128   2.604   3.112   2.169
 3856SOL    HW212129   2.717   3.198   2.223
 3857SOL     OW12130   2.484   3.444   3.110
 3857SOL    HW112131   2.489   3.512   3.176
 3857SOL    HW212132   2.573   3.434   3.078
 3858SOL     OW12133   3.214   1.916   2.026
 3858SOL    HW112134   3.241   1.854   1.958
 3858SOL    HW212135   3.127   1.885   2.053
 3859SOL     OW12136   3.163   2.316   2.544
 3859SOL    HW112137   3.113   2.397   2.552
 3859SOL    HW212138   3.159   2.276   2.631
 3860SOL     OW12139   3.449   2.068   2.740
 3860SOL    HW112140   3.382   2.088   2.805
 3860SOL    HW212141   3.451   2.145   2.683
 3861SOL     OW12142   1.906   2.934   2.167
 3861SOL    HW112143   1.999   2.924   2.148
 3861SOL    HW212144   1.877   2.846   2.190
 3862SOL     OW12145   2.745   3.513   2.206
 3862SOL    HW112146   2.673   3.496   2.145
 3862SOL    HW212147   2.716   3.589   2.256
 3863SOL     OW12148   2.077   2.073   4.682
 3863SOL    HW112149   2.109   2.138   4.745
 3863SOL    HW212150   1.982   2.073   4.695
 3864SOL     OW12151   1.863   2.232   4.360
 3864SOL    HW112152   1.782   2.256   4.405
 3864SOL    HW212153   1.844   2.149   4.317
 3865SOL     OW12154   3.420   3.373   4.430
 3865SOL    HW112155   3.370   3.362   4.511
 3865SOL    HW212156   3.353   3.379   4.361
 3866SOL     OW12157   3.620   2.465   3.962
 3866SOL    HW112158   3.602   2.464   3.868
 3866SOL    HW212159   3.587   2.381   3.994
 3867SOL     OW12160   2.568   3.023   5.542
 3867SOL    HW112161   2.620   3.102   5.556
 3867SOL    HW212162   2.489   3.054   5.498
 3868SOL     OW12163   3.323   3.367   5.068
 3868SOL    HW112164   3.372   3.447   5.085
 3868SOL    HW212165   3.257   3.364   5.138
 3869SOL     OW12166   2.314   2.270   5.247
 3869SOL    HW112167   2.386   2.210   5.229
 3869SOL    HW212168   2.235   2.217   5.235
 3870SOL     OW12169   3.470   2.317   4.467
 3870SOL    HW112170   3.427   2.359   4.393
 3870SOL    HW212171   3.506   2.390   4.518
 3871SOL     OW12172   2.082   3.575   4.197
 3871SOL    HW112173   2.104   3.652   4.251
 3871SOL    HW212174   2.152   3.569   4.133
 3872SOL     OW12175   3.002   3.204   5.419
 3872SOL    HW112176   3.038   3.199   5.507
 3872SOL    HW212177   2.949   3.125   5.410
 3873SOL     OW12178   2.091   3.300   4.256
 3873SOL    HW112179   2.076   3.395   4.262
 3873SOL    HW212180   2.029   3.263   4.319
 3874SOL     OW12181   2.482   3.666   5.178
 3874SOL    HW112182   2.396   3.646   5.215
 3874SOL    HW212183   2.496   3.758   5.197
 3875SOL     OW12184   3.463   1.981   5.196
 3875SOL    HW112185   3.444   2.053   5.137
 3875SOL    HW212186   3.448   2.017   5.283
 3876SOL     OW12187   1.918   2.501   4.323
 3876SOL    HW112188   1.904   2.406   4.317
 3876SOL    HW212189   2.011   2.510   4.343
 3877SOL     OW12190   3.704   3.623   4.061
 3877SOL    HW112191   3.766   3.593   4.127
 3877SOL    HW212192   3.730   3.713   4.041
 3878SOL     OW12193   1.891   3.461   3.847
 3878SOL    HW112194   1.876   3.369   3.867
 3878SOL    HW212195   1.868   3.507   3.928
 3879SOL     OW12196   3.547   2.773   4.356
 3879SOL    HW112197   3.635   2.741   4.333
 3879SOL    HW212198   3.523   2.832   4.285
 3880SOL     OW12199   3.514   2.961   4.161
 3880SOL    HW112200   3.594   2.983   4.113
 3880SOL    HW212201   3.507   3.028   4.228
 3881SOL     OW12202   1.982   2.602   5.304
 3881SOL    HW112203   2.073   2.623   5.327
 3881SOL    HW212204   1.934   2.684   5.320
 3882SOL     OW12205   3.149   3.087   5.162
 3882SOL    HW112206   3.204   3.037   5.101
 3882SOL    HW212207   3.202   3.094   5.242
 3883SOL     OW12208   2.677   1.861   4.231
 3883SOL    HW112209   2.712   1.946   4.206
 3883SOL    HW212210   2.583   1.875   4.242
 3884SOL     OW12211   3.048   3.667   5.345
 3884SOL    HW112212   3.060   3.725   5.271
 3884SOL    HW212213   3.063   3.579   5.310
 3885SOL     OW12214   2.193   2.107   5.542
 3885SOL    HW112215   2.237   2.192   5.534
 3885SOL    HW212216   2.104   2.129   5.570
 3886SOL     OW12217   3.326   3.269   4.689
 3886SOL    HW112218   3.260   3.270   4.759
 3886SOL    HW212219   3.302   3.195   4.634
 3887SOL     OW12220   3.521   3.598   4.302
 3887SOL    HW112221   3.500   3.571   4.213
 3887SOL    HW212222   3.496   3.524   4.357
 3888SOL     OW12223   3.443   3.534   4.032
 3888SOL    HW112224   3.534   3.565   4.026
 3888SOL    HW212225   3.418   3.515   3.942
 3889SOL     OW12226   3.259   2.329   5.413
 3889SOL    HW112227   3.261   2.373   5.499
 3889SOL    HW212228   3.321   2.257   5.422
 3890SOL     OW12229   1.988   3.697   5.299
 3890SOL    HW112230   1.986   3.681   5.393
 3890SOL    HW212231   1.896   3.709   5.275
 3891SOL     OW12232   3.573   2.438   5.552
 3891SOL    HW112233   3.533   2.511   5.505
 3891SOL    HW212234   3.597   2.376   5.483
 3892SOL     OW12235   2.888   3.329   4.204
 3892SOL    HW112236   2.835   3.389   4.152
 3892SOL    HW212237   2.844   3.326   4.289
 3893SOL     OW12238   2.215   3.672   4.585
 3893SOL    HW112239   2.265   3.591   4.576
 3893SOL    HW212240   2.281   3.740   4.599
 3894SOL     OW12241   3.663   2.914   4.587
 3894SOL    HW112242   3.606   2.901   4.512
 3894SOL    HW212243   3.604   2.938   4.659
 3895SOL     OW12244   3.094   3.402   5.236
 3895SOL    HW112245   3.084   3.334   5.303
 3895SOL    HW212246   3.028   3.379   5.170
 3896SOL     OW12247   2.326   3.128   5.462
 3896SOL    HW112248   2.299   3.130   5.370
 3896SOL    HW212249   2.245   3.124   5.511
 3897SOL     OW12250   2.982   3.640   3.956
 3897SOL    HW112251   2.912   3.594   4.003
 3897SOL    HW212252   3.006   3.580   3.885
 3898SOL     OW12253   2.062   2.163   5.245
 3898SOL    HW112254   1.975   2.185   5.213
 3898SOL    HW212255   2.051   2.078   5.287
 3899SOL     OW12256   3.498   3.248   3.809
 3899SOL    HW112257   3.453   3.331   3.796
 3899SOL    HW212258   3.429   3.182   3.797
 3900SOL     OW12259   2.327   3.603   4.044
 3900SOL    HW112260   2.369   3.658   4.110
 3900SOL    HW212261   2.400   3.572   3.989
 3901SOL     OW12262   3.278   1.968   4.155
 3901SOL    HW112263   3.259   1.941   4.065
 3901SOL    HW212264   3.374   1.967   4.161
 3902SOL     OW12265   2.117   3.640   4.962
 3902SOL    HW112266   2.202   3.603   4.987
 3902SOL    HW212267   2.108   3.620   4.869
 3903SOL     OW12268   3.400   2.086   5.450
 3903SOL    HW112269   3.407   2.106   5.544
 3903SOL    HW212270   3.331   2.020   5.445
 3904SOL     OW12271   2.452   1.923   3.862
 3904SOL    HW112272   2.547   1.933   3.863
 3904SOL    HW212273   2.431   1.905   3.770
 3905SOL     OW12274   2.621   2.118   5.469
 3905SOL    HW112275   2.702   2.068   5.480
 3905SOL    HW212276   2.594   2.141   5.558
 3906SOL     OW12277   2.747   3.418   4.946
 3906SOL    HW112278   2.726   3.376   4.862
 3906SOL    HW212279   2.810   3.359   4.988
 3907SOL     OW12280   3.207   2.457   5.187
 3907SOL    HW112281   3.235   2.414   5.268
 3907SOL    HW212282   3.253   2.541   5.187
 3908SOL     OW12283   2.410   1.916   4.232
 3908SOL    HW112284   2.329   1.915   4.282
 3908SOL    HW212285   2.416   2.005   4.198
 3909SOL     OW12286   3.299   3.071   3.779
 3909SOL    HW112287   3.290   2.978   3.800
 3909SOL    HW212288   3.209   3.104   3.777
 3910SOL     OW12289   2.161   1.912   3.910
 3910SOL    HW112290   2.229   1.974   3.883
 3910SOL    HW212291   2.210   1.839   3.948
 3911SOL     OW12292   2.943   2.529   5.175
 3911SOL    HW112293   2.890   2.449   5.181
 3911SOL    HW212294   3.034   2.497   5.174
 3912SOL     OW12295   3.120   3.443   4.494
 3912SOL    HW112296   3.121   3.512   4.428
 3912SOL    HW212297   3.170   3.479   4.567
 3913SOL     OW12298   3.134   3.663   4.328
 3913SOL    HW112299   3.181   3.721   4.268
 3913SOL    HW212300   3.070   3.720   4.371
 3914SOL     OW12301   1.930   2.419   5.107
 3914SOL    HW112302   2.018   2.411   5.071
 3914SOL    HW212303   1.937   2.486   5.174
 3915SOL     OW12304   2.902   1.874   4.449
 3915SOL    HW112305   2.825   1.870   4.391
 3915SOL    HW212306   2.875   1.828   4.528
 3916SOL     OW12307   3.716   2.680   4.103
 3916SOL    HW112308   3.768   2.626   4.163
 3916SOL    HW212309   3.680   2.617   4.040
 3917SOL     OW12310   2.353   3.281   3.898
 3917SOL    HW112311   2.274   3.252   3.942
 3917SOL    HW212312   2.345   3.247   3.809
 3918SOL     OW12313   3.531   3.125   4.383
 3918SOL    HW112314   3.627   3.133   4.386
 3918SOL    HW212315   3.500   3.215   4.394
 3919SOL     OW12316   3.315   2.416   3.852
 3919SOL    HW112317   3.222   2.398   3.834
 3919SOL    HW212318   3.361   2.339   3.819
 3920SOL     OW12319   3.617   3.101   5.300
 3920SOL    HW112320   3.704   3.063   5.296
 3920SOL    HW212321   3.631   3.191   5.329
 3921SOL     OW12322   2.923   3.243   5.085
 3921SOL    HW112323   2.845   3.198   5.118
 3921SOL    HW212324   2.996   3.187   5.111
 3922SOL     OW12325   3.468   3.487   5.376
 3922SOL    HW112326   3.464   3.521   5.287
 3922SOL    HW212327   3.552   3.441   5.380
 3923SOL     OW12328   3.512   2.998   4.799
 3923SOL    HW112329   3.513   3.049   4.880
 3923SOL    HW212330   3.419   2.988   4.779
 3924SOL     OW12331   2.778   1.941   5.142
 3924SOL    HW112332   2.798   1.909   5.054
 3924SOL    HW212333   2.858   1.985   5.171
 3925SOL     OW12334   2.850   2.974   5.441
 3925SOL    HW112335   2.758   2.985   5.465
 3925SOL    HW212336   2.849   2.916   5.365
 3926SOL     OW12337   3.141   2.228   5.047
 3926SOL    HW112338   3.171   2.313   5.080
 3926SOL    HW212339   3.112   2.246   4.957
 3927SOL     OW12340   1.936   3.438   5.070
 3927SOL    HW112341   1.871   3.487   5.019
 3927SOL    HW212342   2.016   3.491   5.065
 3928SOL     OW12343   3.110   3.213   4.112
 3928SOL    HW112344   3.176   3.273   4.149
 3928SOL    HW212345   3.027   3.243   4.149
 3929SOL     OW12346   3.450   2.499   4.217
 3929SOL    HW112347   3.436   2.584   4.258
 3929SOL    HW212348   3.490   2.519   4.133
 3930SOL     OW12349   2.264   2.603   5.328
 3930SOL    HW112350   2.325   2.648   5.270
 3930SOL    HW212351   2.290   2.511   5.326
 3931SOL     OW12352   3.457   2.638   5.406
 3931SOL    HW112353   3.372   2.681   5.401
 3931SOL    HW212354   3.511   2.683   5.341
 3932SOL     OW12355   2.862   1.982   5.488
 3932SOL    HW112356   2.910   2.055   5.447
 3932SOL    HW212357   2.908   1.904   5.458
 3933SOL     OW12358   2.359   1.901   5.472
 3933SOL    HW112359   2.318   1.849   5.403
 3933SOL    HW212360   2.300   1.975   5.485
 3934SOL     OW12361   1.912   3.171   5.003
 3934SOL    HW112362   1.942   3.122   5.080
 3934SOL    HW212363   1.920   3.263   5.029
 3935SOL     OW12364   3.596   2.822   5.576
 3935SOL    HW112365   3.549   2.764   5.516
 3935SOL    HW212366   3.536   2.833   5.650
 3936SOL     OW12367   2.166   1.935   4.352
 3936SOL    HW112368   2.122   2.017   4.375
 3936SOL    HW212369   2.163   1.883   4.432
 3937SOL     OW12370   3.481   2.236   4.094
 3937SOL    HW112371   3.505   2.170   4.159
 3937SOL    HW212372   3.450   2.310   4.145
 3938SOL     OW12373   2.844   3.427   5.439
 3938SOL    HW112374   2.828   3.473   5.356
 3938SOL    HW212375   2.888   3.346   5.414
 3939SOL     OW12376   3.717   3.370   5.329
 3939SOL    HW112377   3.735   3.396   5.239
 3939SOL    HW212378   3.798   3.390   5.376
 3940SOL     OW12379   2.211   2.782   5.532
 3940SOL    HW112380   2.291   2.807   5.578
 3940SOL    HW212381   2.239   2.716   5.469
 3941SOL     OW12382   3.392   2.137   3.850
 3941SOL    HW112383   3.330   2.069   3.876
 3941SOL    HW212384   3.424   2.174   3.933
 3942SOL     OW12385   2.997   2.239   5.405
 3942SOL    HW112386   2.954   2.293   5.471
 3942SOL    HW212387   3.086   2.274   5.399
 3943SOL     OW12388   3.015   2.056   5.207
 3943SOL    HW112389   3.004   2.120   5.277
 3943SOL    HW212390   3.064   2.103   5.139
 3944SOL     OW12391   1.859   3.195   3.921
 3944SOL    HW112392   1.774   3.210   3.880
 3944SOL    HW212393   1.856   3.105   3.952
 3945SOL     OW12394   1.952   3.650   4.662
 3945SOL    HW112395   1.921   3.570   4.621
 3945SOL    HW212396   2.041   3.661   4.630
 3946SOL     OW12397   2.395   3.463   4.583
 3946SOL    HW112398   2.450   3.527   4.629
 3946SOL    HW212399   2.424   3.379   4.618
 3947SOL     OW12400   2.057   2.380   5.450
 3947SOL    HW112401   2.097   2.327   5.382
 3947SOL    HW212402   2.009   2.448   5.403
 3948SOL     OW12403   3.237   2.804   5.385
 3948SOL    HW112404   3.260   2.897   5.387
 3948SOL    HW212405   3.238   2.781   5.292
 3949SOL     OW12406   3.518   2.484   4.932
 3949SOL    HW112407   3.488   2.409   4.984
 3949SOL    HW212408   3.592   2.451   4.882
 3950SOL     OW12409   2.109   3.414   5.453
 3950SOL    HW112410   2.084   3.479   5.519
 3950SOL    HW212411   2.107   3.331   5.499
 3951SOL     OW12412   2.565   2.302   5.023
 3951SOL    HW112413   2.524   2.220   4.997
 3951SOL    HW212414   2.574   2.351   4.942
 3952SOL     OW12415   2.790   3.546   5.196
 3952SOL    HW112416   2.766   3.509   5.110
 3952SOL    HW212417   2.784   3.640   5.184
 3953SOL     OW12418   2.016   2.996   5.193
 3953SOL    HW112419   2.013   2.947   5.276
 3953SOL    HW212420   2.021   2.927   5.126
 3954SOL     OW12421   3.630   3.609   4.872
 3954SOL    HW112422   3.692   3.635   4.803
 3954SOL    HW212423   3.608   3.518   4.852
 3955SOL     OW12424   3.105   3.601   4.840
 3955SOL    HW112425   3.186   3.618   4.792
 3955SOL    HW212426   3.123   3.520   4.888
 3956SOL     OW12427   1.894   3.154   4.728
 3956SOL    HW112428   1.908   3.145   4.822
 3956SOL    HW212429   1.872   3.066   4.698
 3957SOL     OW12430   2.540   3.527   5.451
 3957SOL    HW112431   2.488   3.607   5.448
 3957SOL    HW212432   2.603   3.536   5.379
 3958SOL     OW12433   3.582   2.006   4.237
 3958SOL    HW112434   3.654   1.992   4.176
 3958SOL    HW212435   3.566   1.920   4.275
 3959SOL     OW12436   3.259   3.429   4.208
 3959SOL    HW112437   3.316   3.461   4.138
 3959SOL    HW212438   3.204   3.504   4.230
 3960SOL     OW12439   1.998   3.658   5.567
 3960SOL    HW112440   1.947   3.594   5.616
 3960SOL    HW212441   2.047   3.706   5.634
 3961SOL     OW12442   2.692   3.134   5.170
 3961SOL    HW112443   2.656   3.176   5.248
 3961SOL    HW212444   2.618   3.128   5.110
 3962SOL     OW12445   2.534   3.484   3.881
 3962SOL    HW112446   2.548   3.497   3.787
 3962SOL    HW212447   2.480   3.405   3.886
 3963SOL     OW12448   3.492   3.589   5.115
 3963SOL    HW112449   3.541   3.597   5.034
 3963SOL    HW212450   3.478   3.680   5.144
 3964SOL     OW12451   3.702   2.035   4.690
 3964SOL    HW112452   3.730   1.948   4.663
 3964SOL    HW212453   3.614   2.045   4.653
 3965SOL     OW12454   3.074   3.477   3.754
 3965SOL    HW112455   3.069   3.387   3.787
 3965SOL    HW212456   3.009   3.480   3.684
 3966SOL     OW12457   3.357   3.490   3.766
 3966SOL    HW112458   3.262   3.483   3.756
 3966SOL    HW212459   3.390   3.493   3.676
 3967SOL     OW12460   2.235   3.160   5.214
 3967SOL    HW112461   2.223   3.238   5.160
 3967SOL    HW212462   2.157   3.108   5.197
 3968SOL     OW12463   3.465   3.143   5.020
 3968SOL    HW112464   3.530   3.142   5.090
 3968SOL    HW212465   3.411   3.220   5.038
 3969SOL     OW12466   2.450   3.397   4.201
 3969SOL    HW112467   2.461   3.320   4.146
 3969SOL    HW212468   2.376   3.444   4.163
 3970SOL     OW12469   3.582   2.254   5.105
 3970SOL    HW112470   3.653   2.319   5.100
 3970SOL    HW212471   3.612   2.181   5.051
 3971SOL     OW12472   2.114   3.207   4.006
 3971SOL    HW112473   2.021   3.214   3.988
 3971SOL    HW212474   2.123   3.236   4.097
 3972SOL     OW12475   1.972   2.882   5.440
 3972SOL    HW112476   1.897   2.860   5.494
 3972SOL    HW212477   2.047   2.847   5.488
 3973SOL     OW12478   2.531   2.057   5.218
 3973SOL    HW112479   2.616   2.036   5.179
 3973SOL    HW212480   2.551   2.082   5.308
 3974SOL     OW12481   1.929   2.198   3.774
 3974SOL    HW112482   1.854   2.181   3.717
 3974SOL    HW212483   1.978   2.267   3.730
 3975SOL     OW12484   3.298   2.731   5.129
 3975SOL    HW112485   3.250   2.749   5.049
 3975SOL    HW212486   3.390   2.734   5.103
 3976SOL     OW12487   1.934   2.019   4.034
 3976SOL    HW112488   1.914   2.097   3.982
 3976SOL    HW212489   2.017   1.987   3.999
 3977SOL     OW12490   3.056   3.227   3.851
 3977SOL    HW112491   2.977   3.172   3.853
 3977SOL    HW212492   3.090   3.223   3.940
 3978SOL     OW12493   3.347   3.633   4.701
 3978SOL    HW112494   3.370   3.692   4.629
 3978SOL    HW212495   3.429   3.620   4.748
 3979SOL     OW12496   3.335   3.065   5.360
 3979SOL    HW112497   3.323   3.078   5.454
 3979SOL    HW212498   3.429   3.078   5.345
 3980SOL     OW12499   2.241   3.601   5.286
 3980SOL    HW112500   2.155   3.640   5.274
 3980SOL    HW212501   2.224   3.519   5.333
 3981SOL     OW12502   3.578   2.750   4.991
 3981SOL    HW112503   3.564   2.660   4.961
 3981SOL    HW212504   3.575   2.802   4.911
 3982SOL     OW12505   3.070   2.138   4.208
 3982SOL    HW112506   3.154   2.094   4.195
 3982SOL    HW212507   3.089   2.211   4.267
 3983SOL     OW12508   3.626   2.223   5.374
 3983SOL    HW112509   3.609   2.237   5.281
 3983SOL    HW212510   3.555   2.165   5.403
 3984SOL     OW12511   3.601   2.800   5.250
 3984SOL    HW112512   3.608   2.895   5.260
 3984SOL    HW212513   3.604   2.786   5.155
 3985SOL     OW12514   2.534   3.672   4.685
 3985SOL    HW112515   2.494   3.754   4.658
 3985SOL    HW212516   2.622   3.675   4.649
 3986SOL     OW12517   3.717   3.419   4.569
 3986SOL    HW112518   3.642   3.405   4.511
 3986SOL    HW212519   3.710   3.349   4.634
 3987SOL     OW12520   2.086   3.167   5.580
 3987SOL    HW112521   2.017   3.105   5.554
 3987SOL    HW212522   2.073   3.180   5.674
 3988SOL     OW12523   1.944   3.099   4.391
 3988SOL    HW112524   1.929   3.048   4.471
 3988SOL    HW212525   2.019   3.056   4.350
 3989SOL     OW12526   2.540   3.265   5.350
 3989SOL    HW112527   2.461   3.222   5.383
 3989SOL    HW212528   2.537   3.353   5.387
 3990SOL     OW12529   3.680   2.049   4.962
 3990SOL    HW112530   3.681   1.955   4.978
 3990SOL    HW212531   3.688   2.057   4.867
 3991SOL     OW12532   3.564   3.353   4.824
 3991SOL    HW112533   3.483   3.323   4.782
 3991SOL    HW212534   3.583   3.286   4.890
 3992SOL     OW12535   2.671   3.454   4.388
 3992SOL    HW112536   2.687   3.502   4.306
 3992SOL    HW212537   2.580   3.426   4.382
 3993SOL     OW12538   2.865   1.822   4.907
 3993SOL    HW112539   2.817   1.803   4.826
 3993SOL    HW212540   2.956   1.800   4.887
 3994SOL     OW12541   2.463   3.468   5.000
 3994SOL    HW112542   2.475   3.536   5.067
 3994SOL    HW212543   2.552   3.445   4.975
 3995SOL     OW12544   3.222   1.905   3.890
 3995SOL    HW112545   3.243   1.849   3.816
 3995SOL    HW212546   3.134   1.877   3.917
 3996SOL     OW12547   3.447   2.073   4.604
 3996SOL    HW112548   3.369   2.088   4.657
 3996SOL    HW212549   3.453   2.150   4.548
 3997SOL     OW12550   1.881   2.945   4.014
 3997SOL    HW112551   1.977   2.944   4.012
 3997SOL    HW212552   1.856   2.856   3.992
 3998SOL     OW12553   2.739   3.512   4.068
 3998SOL    HW112554   2.669   3.497   4.005
 3998SOL    HW212555   2.711   3.589   4.117
 3999SOL     OW12556   2.095   2.485   5.706
 3999SOL    HW112557   2.006   2.485   5.741
 3999SOL    HW212558   2.085   2.457   5.615
 4000SOL     OW12559   2.087   2.141   6.577
 4000SOL    HW112560   2.115   2.108   6.662
 4000SOL    HW212561   1.997   2.109   6.567
 4001SOL     OW12562   1.867   2.243   6.225
 4001SOL    HW112563   1.784   2.268   6.266
 4001SOL    HW212564   1.847   2.164   6.175
 4002SOL     OW12565   2.428   3.147   6.760
 4002SOL    HW112566   2.341   3.151   6.720
 4002SOL    HW212567   2.443   3.234   6.795
 4003SOL     OW12568   3.420   3.373   6.292
 4003SOL    HW112569   3.377   3.356   6.376
 4003SOL    HW212570   3.349   3.379   6.229
 4004SOL     OW12571   3.016   2.542   6.306
 4004SOL    HW112572   3.045   2.631   6.287
 4004SOL    HW212573   2.939   2.553   6.362
 4005SOL     OW12574   3.626   2.469   5.816
 4005SOL    HW112575   3.608   2.460   5.722
 4005SOL    HW212576   3.593   2.388   5.855
 4006SOL     OW12577   2.636   3.024   6.625
 4006SOL    HW112578   2.556   3.039   6.677
 4006SOL    HW212579   2.652   3.108   6.582
 4007SOL     OW12580   2.572   3.016   7.394
 4007SOL    HW112581   2.621   3.095   7.418
 4007SOL    HW212582   2.489   3.049   7.359
 4008SOL     OW12583   2.191   3.293   6.654
 4008SOL    HW112584   2.121   3.253   6.602
 4008SOL    HW212585   2.244   3.341   6.590
 4009SOL     OW12586   3.323   3.360   6.938
 4009SOL    HW112587   3.370   3.443   6.949
 4009SOL    HW212588   3.264   3.356   7.013
 4010SOL     OW12589   2.310   2.265   7.089
 4010SOL    HW112590   2.386   2.208   7.081
 4010SOL    HW212591   2.235   2.205   7.093
 4011SOL     OW12592   3.475   2.311   6.325
 4011SOL    HW112593   3.398   2.334   6.273
 4011SOL    HW212594   3.492   2.388   6.380
 4012SOL     OW12595   2.081   3.576   6.059
 4012SOL    HW112596   2.104   3.652   6.113
 4012SOL    HW212597   2.153   3.569   5.997
 4013SOL     OW12598   2.997   3.201   7.277
 4013SOL    HW112599   3.035   3.198   7.365
 4013SOL    HW212600   2.945   3.121   7.271
 4014SOL     OW12601   2.090   3.302   6.119
 4014SOL    HW112602   2.074   3.396   6.126
 4014SOL    HW212603   2.031   3.263   6.184
 4015SOL     OW12604   2.112   2.951   6.473
 4015SOL    HW112605   2.112   2.867   6.519
 4015SOL    HW212606   2.059   3.008   6.528
 4016SOL     OW12607   2.475   3.654   7.016
 4016SOL    HW112608   2.394   3.636   7.062
 4016SOL    HW212609   2.498   3.744   7.042
 4017SOL     OW12610   2.430   2.864   5.712
 4017SOL    HW112611   2.478   2.919   5.650
 4017SOL    HW212612   2.489   2.855   5.786
 4018SOL     OW12613   3.458   1.984   7.055
 4018SOL    HW112614   3.460   2.064   7.003
 4018SOL    HW212615   3.446   2.014   7.145
 4019SOL     OW12616   1.977   2.512   6.146
 4019SOL    HW112617   1.945   2.425   6.168
 4019SOL    HW212618   1.967   2.562   6.228
 4020SOL     OW12619   3.704   3.622   5.922
 4020SOL    HW112620   3.766   3.593   5.989
 4020SOL    HW212621   3.729   3.712   5.903
 4021SOL     OW12622   1.892   3.458   5.710
 4021SOL    HW112623   1.875   3.366   5.730
 4021SOL    HW212624   1.869   3.505   5.790
 4022SOL     OW12625   3.552   2.781   6.225
 4022SOL    HW112626   3.636   2.740   6.207
 4022SOL    HW212627   3.531   2.831   6.145
 4023SOL     OW12628   3.507   2.970   6.015
 4023SOL    HW112629   3.593   2.977   5.973
 4023SOL    HW212630   3.513   3.031   6.089
 4024SOL     OW12631   1.977   2.603   7.173
 4024SOL    HW112632   2.069   2.624   7.187
 4024SOL    HW212633   1.931   2.687   7.181
 4025SOL     OW12634   2.478   3.245   6.321
 4025SOL    HW112635   2.433   3.161   6.332
 4025SOL    HW212636   2.458   3.271   6.231
 4026SOL     OW12637   3.153   3.100   7.011
 4026SOL    HW112638   3.185   3.033   6.951
 4026SOL    HW212639   3.209   3.093   7.088
 4027SOL     OW12640   2.674   1.857   6.095
 4027SOL    HW112641   2.717   1.940   6.075
 4027SOL    HW212642   2.581   1.880   6.103
 4028SOL     OW12643   2.046   2.835   6.853
 4028SOL    HW112644   2.130   2.790   6.844
 4028SOL    HW212645   1.982   2.776   6.811
 4029SOL     OW12646   3.394   2.855   5.783
 4029SOL    HW112647   3.327   2.794   5.815
 4029SOL    HW212648   3.435   2.889   5.863
 4030SOL     OW12649   3.048   3.667   7.207
 4030SOL    HW112650   3.061   3.724   7.131
 4030SOL    HW212651   3.062   3.578   7.173
 4031SOL     OW12652   2.191   2.111   7.394
 4031SOL    HW112653   2.238   2.193   7.407
 4031SOL    HW212654   2.103   2.128   7.427
 4032SOL     OW12655   3.329   3.282   6.539
 4032SOL    HW112656   3.260   3.297   6.604
 4032SOL    HW212657   3.317   3.191   6.512
 4033SOL     OW12658   3.522   3.598   6.164
 4033SOL    HW112659   3.501   3.569   6.075
 4033SOL    HW212660   3.496   3.524   6.220
 4034SOL     OW12661   3.143   2.210   6.518
 4034SOL    HW112662   3.053   2.178   6.526
 4034SOL    HW212663   3.193   2.158   6.581
 4035SOL     OW12664   3.443   3.531   5.895
 4035SOL    HW112665   3.533   3.564   5.889
 4035SOL    HW212666   3.418   3.514   5.804
 4036SOL     OW12667   3.257   2.336   7.262
 4036SOL    HW112668   3.255   2.381   7.346
 4036SOL    HW212669   3.318   2.264   7.274
 4037SOL     OW12670   2.852   2.272   6.833
 4037SOL    HW112671   2.766   2.290   6.870
 4037SOL    HW212672   2.835   2.237   6.746
 4038SOL     OW12673   1.950   2.682   6.362
 4038SOL    HW112674   2.032   2.676   6.412
 4038SOL    HW212675   1.908   2.761   6.396
 4039SOL     OW12676   1.990   3.706   7.163
 4039SOL    HW112677   1.988   3.685   7.257
 4039SOL    HW212678   1.898   3.702   7.137
 4040SOL     OW12679   2.746   2.193   5.739
 4040SOL    HW112680   2.797   2.255   5.687
 4040SOL    HW212681   2.788   2.108   5.724
 4041SOL     OW12682   3.573   2.439   7.415
 4041SOL    HW112683   3.535   2.514   7.369
 4041SOL    HW212684   3.597   2.378   7.346
 4042SOL     OW12685   3.235   3.001   6.125
 4042SOL    HW112686   3.317   2.991   6.076
 4042SOL    HW212687   3.186   3.067   6.077
 4043SOL     OW12688   2.410   2.041   6.475
 4043SOL    HW112689   2.411   2.066   6.567
 4043SOL    HW212690   2.413   2.124   6.427
 4044SOL     OW12691   2.867   3.305   6.059
 4044SOL    HW112692   2.830   3.378   6.010
 4044SOL    HW212693   2.855   3.329   6.151
 4045SOL     OW12694   2.217   3.669   6.446
 4045SOL    HW112695   2.260   3.584   6.454
 4045SOL    HW212696   2.285   3.733   6.463
 4046SOL     OW12697   3.660   2.920   6.453
 4046SOL    HW112698   3.604   2.904   6.378
 4046SOL    HW212699   3.600   2.926   6.527
 4047SOL     OW12700   3.089   3.400   7.098
 4047SOL    HW112701   3.076   3.329   7.160
 4047SOL    HW212702   3.027   3.383   7.027
 4048SOL     OW12703   2.176   2.824   5.834
 4048SOL    HW112704   2.258   2.845   5.789
 4048SOL    HW212705   2.153   2.737   5.802
 4049SOL     OW12706   3.336   2.607   6.314
 4049SOL    HW112707   3.327   2.558   6.396
 4049SOL    HW212708   3.416   2.658   6.325
 4050SOL     OW12709   2.326   3.126   7.324
 4050SOL    HW112710   2.298   3.131   7.232
 4050SOL    HW212711   2.245   3.124   7.374
 4051SOL     OW12712   2.983   3.640   5.817
 4051SOL    HW112713   2.911   3.597   5.864
 4051SOL    HW212714   3.005   3.579   5.746
 4052SOL     OW12715   2.062   2.145   7.086
 4052SOL    HW112716   1.979   2.192   7.079
 4052SOL    HW212717   2.047   2.078   7.152
 4053SOL     OW12718   3.491   3.241   5.673
 4053SOL    HW112719   3.450   3.326   5.658
 4053SOL    HW212720   3.421   3.178   5.654
 4054SOL     OW12721   2.329   3.600   5.907
 4054SOL    HW112722   2.369   3.657   5.972
 4054SOL    HW212723   2.401   3.572   5.852
 4055SOL     OW12724   3.263   1.970   6.017
 4055SOL    HW112725   3.252   1.944   5.925
 4055SOL    HW212726   3.358   1.976   6.029
 4056SOL     OW12727   2.116   3.653   6.819
 4056SOL    HW112728   2.169   3.590   6.866
 4056SOL    HW212729   2.108   3.617   6.731
 4057SOL     OW12730   2.799   3.562   6.485
 4057SOL    HW112731   2.873   3.507   6.512
 4057SOL    HW212732   2.754   3.511   6.418
 4058SOL     OW12733   2.249   2.553   6.060
 4058SOL    HW112734   2.276   2.463   6.077
 4058SOL    HW212735   2.156   2.555   6.083
 4059SOL     OW12736   3.399   2.087   7.312
 4059SOL    HW112737   3.408   2.108   7.405
 4059SOL    HW212738   3.329   2.022   7.308
 4060SOL     OW12739   2.483   1.977   5.703
 4060SOL    HW112740   2.569   1.936   5.702
 4060SOL    HW212741   2.444   1.954   5.618
 4061SOL     OW12742   2.621   2.119   7.332
 4061SOL    HW112743   2.702   2.069   7.342
 4061SOL    HW212744   2.594   2.140   7.422
 4062SOL     OW12745   2.740   3.386   6.779
 4062SOL    HW112746   2.722   3.348   6.693
 4062SOL    HW212747   2.805   3.328   6.819
 4063SOL     OW12748   3.217   2.448   7.011
 4063SOL    HW112749   3.241   2.417   7.099
 4063SOL    HW212750   3.248   2.538   7.008
 4064SOL     OW12751   2.676   3.272   6.520
 4064SOL    HW112752   2.760   3.253   6.478
 4064SOL    HW212753   2.611   3.261   6.451
 4065SOL     OW12754   2.780   2.356   6.488
 4065SOL    HW112755   2.763   2.343   6.395
 4065SOL    HW212756   2.824   2.276   6.516
 4066SOL     OW12757   2.410   1.926   6.090
 4066SOL    HW112758   2.329   1.926   6.140
 4066SOL    HW212759   2.405   2.004   6.035
 4067SOL     OW12760   3.290   3.060   5.628
 4067SOL    HW112761   3.321   2.984   5.678
 4067SOL    HW212762   3.204   3.080   5.665
 4068SOL     OW12763   2.154   1.909   5.771
 4068SOL    HW112764   2.210   1.971   5.724
 4068SOL    HW212765   2.215   1.846   5.811
 4069SOL     OW12766   2.806   2.093   6.051
 4069SOL    HW112767   2.766   2.161   5.997
 4069SOL    HW212768   2.900   2.112   6.048
 4070SOL     OW12769   2.953   2.519   7.062
 4070SOL    HW112770   2.897   2.447   7.032
 4070SOL    HW212771   3.041   2.492   7.037
 4071SOL     OW12772   3.090   3.428   6.377
 4071SOL    HW112773   3.105   3.499   6.314
 4071SOL    HW212774   3.153   3.444   6.446
 4072SOL     OW12775   2.328   3.017   6.322
 4072SOL    HW112776   2.257   2.993   6.382
 4072SOL    HW212777   2.296   2.991   6.236
 4073SOL     OW12778   3.132   3.656   6.192
 4073SOL    HW112779   3.177   3.718   6.134
 4073SOL    HW212780   3.067   3.709   6.238
 4074SOL     OW12781   2.908   2.397   5.608
 4074SOL    HW112782   2.849   2.473   5.602
 4074SOL    HW212783   2.963   2.415   5.684
 4075SOL     OW12784   1.941   2.417   6.976
 4075SOL    HW112785   2.033   2.416   6.952
 4075SOL    HW212786   1.934   2.487   7.041
 4076SOL     OW12787   2.419   2.076   6.745
 4076SOL    HW112788   2.459   2.000   6.786
 4076SOL    HW212789   2.329   2.076   6.778
 4077SOL     OW12790   2.734   2.296   6.236
 4077SOL    HW112791   2.712   2.362   6.171
 4077SOL    HW212792   2.756   2.218   6.185
 4078SOL     OW12793   2.876   1.915   6.339
 4078SOL    HW112794   2.819   1.907   6.262
 4078SOL    HW212795   2.854   1.838   6.393
 4079SOL     OW12796   3.300   3.026   6.444
 4079SOL    HW112797   3.231   2.959   6.442
 4079SOL    HW212798   3.324   3.038   6.352
 4080SOL     OW12799   3.330   2.465   6.564
 4080SOL    HW112800   3.280   2.384   6.569
 4080SOL    HW212801   3.390   2.460   6.639
 4081SOL     OW12802   3.708   2.680   5.968
 4081SOL    HW112803   3.764   2.628   6.026
 4081SOL    HW212804   3.679   2.617   5.901
 4082SOL     OW12805   2.356   3.275   5.747
 4082SOL    HW112806   2.280   3.248   5.798
 4082SOL    HW212807   2.337   3.244   5.658
 4083SOL     OW12808   3.530   3.127   6.234
 4083SOL    HW112809   3.625   3.131   6.246
 4083SOL    HW212810   3.499   3.215   6.255
 4084SOL     OW12811   3.258   2.435   5.663
 4084SOL    HW112812   3.197   2.414   5.733
 4084SOL    HW212813   3.342   2.400   5.692
 4085SOL     OW12814   2.387   2.128   5.908
 4085SOL    HW112815   2.424   2.074   5.839
 4085SOL    HW212816   2.369   2.212   5.866
 4086SOL     OW12817   3.615   3.099   7.161
 4086SOL    HW112818   3.703   3.061   7.158
 4086SOL    HW212819   3.629   3.189   7.191
 4087SOL     OW12820   2.925   3.220   6.922
 4087SOL    HW112821   2.848   3.187   6.968
 4087SOL    HW212822   2.998   3.175   6.963
 4088SOL     OW12823   3.469   3.487   7.237
 4088SOL    HW112824   3.465   3.521   7.148
 4088SOL    HW212825   3.552   3.440   7.242
 4089SOL     OW12826   2.990   3.064   6.691
 4089SOL    HW112827   2.927   3.090   6.759
 4089SOL    HW212828   2.950   3.093   6.609
 4090SOL     OW12829   3.492   2.961   6.664
 4090SOL    HW112830   3.489   3.023   6.737
 4090SOL    HW212831   3.412   2.978   6.615
 4091SOL     OW12832   2.780   1.959   6.983
 4091SOL    HW112833   2.803   1.940   6.892
 4091SOL    HW212834   2.858   1.999   7.020
 4092SOL     OW12835   2.847   2.964   7.308
 4092SOL    HW112836   2.755   2.984   7.325
 4092SOL    HW212837   2.846   2.908   7.230
 4093SOL     OW12838   2.262   2.674   6.847
 4093SOL    HW112839   2.355   2.681   6.869
 4093SOL    HW212840   2.240   2.582   6.863
 4094SOL     OW12841   3.129   2.238   6.858
 4094SOL    HW112842   3.165   2.315   6.903
 4094SOL    HW212843   3.039   2.263   6.837
 4095SOL     OW12844   1.932   3.435   6.937
 4095SOL    HW112845   1.901   3.508   6.883
 4095SOL    HW212846   2.027   3.439   6.932
 4096SOL     OW12847   2.219   2.966   6.075
 4096SOL    HW112848   2.213   3.040   6.014
 4096SOL    HW212849   2.211   2.889   6.020
 4097SOL     OW12850   2.415   2.396   6.464
 4097SOL    HW112851   2.419   2.418   6.371
 4097SOL    HW212852   2.505   2.406   6.494
 4098SOL     OW12853   3.110   3.210   5.977
 4098SOL    HW112854   3.165   3.282   6.006
 4098SOL    HW212855   3.022   3.232   6.010
 4099SOL     OW12856   3.141   3.318   6.731
 4099SOL    HW112857   3.193   3.319   6.811
 4099SOL    HW212858   3.081   3.244   6.743
 4100SOL     OW12859   3.442   2.487   6.063
 4100SOL    HW112860   3.400   2.543   6.127
 4100SOL    HW212861   3.490   2.547   6.006
 4101SOL     OW12862   2.209   3.387   6.903
 4101SOL    HW112863   2.196   3.346   6.818
 4101SOL    HW212864   2.304   3.400   6.910
 4102SOL     OW12865   2.252   2.600   7.191
 4102SOL    HW112866   2.309   2.655   7.136
 4102SOL    HW212867   2.293   2.513   7.188
 4103SOL     OW12868   3.461   2.640   7.267
 4103SOL    HW112869   3.375   2.680   7.259
 4103SOL    HW212870   3.513   2.682   7.198
 4104SOL     OW12871   2.861   1.983   7.344
 4104SOL    HW112872   2.913   2.056   7.312
 4104SOL    HW212873   2.909   1.905   7.316
 4105SOL     OW12874   2.359   1.902   7.334
 4105SOL    HW112875   2.318   1.849   7.266
 4105SOL    HW212876   2.300   1.977   7.344
 4106SOL     OW12877   3.225   2.721   6.619
 4106SOL    HW112878   3.147   2.712   6.565
 4106SOL    HW212879   3.265   2.634   6.618
 4107SOL     OW12880   3.064   2.390   5.856
 4107SOL    HW112881   3.070   2.307   5.903
 4107SOL    HW212882   3.054   2.456   5.925
 4108SOL     OW12883   2.161   2.062   6.833
 4108SOL    HW112884   2.124   2.094   6.915
 4108SOL    HW212885   2.142   1.968   6.833
 4109SOL     OW12886   1.906   3.173   6.863
 4109SOL    HW112887   1.941   3.119   6.934
 4109SOL    HW212888   1.915   3.263   6.894
 4110SOL     OW12889   3.597   2.821   7.437
 4110SOL    HW112890   3.548   2.763   7.379
 4110SOL    HW212891   3.538   2.834   7.512
 4111SOL     OW12892   2.163   1.928   6.209
 4111SOL    HW112893   2.146   2.019   6.234
 4111SOL    HW212894   2.171   1.881   6.292
 4112SOL     OW12895   3.476   2.235   5.955
 4112SOL    HW112896   3.504   2.171   6.021
 4112SOL    HW212897   3.454   2.313   6.005
 4113SOL     OW12898   2.845   3.428   7.301
 4113SOL    HW112899   2.829   3.472   7.217
 4113SOL    HW212900   2.886   3.345   7.277
 4114SOL     OW12901   3.718   3.370   7.192
 4114SOL    HW112902   3.735   3.395   7.101
 4114SOL    HW212903   3.799   3.390   7.238
 4115SOL     OW12904   2.211   2.779   7.397
 4115SOL    HW112905   2.292   2.803   7.443
 4115SOL    HW212906   2.238   2.713   7.333
 4116SOL     OW12907   3.390   2.137   5.714
 4116SOL    HW112908   3.327   2.070   5.740
 4116SOL    HW212909   3.424   2.171   5.797
 4117SOL     OW12910   3.154   2.687   5.617
 4117SOL    HW112911   3.197   2.602   5.621
 4117SOL    HW212912   3.185   2.727   5.536
 4118SOL     OW12913   2.925   3.200   6.435
 4118SOL    HW112914   2.930   3.128   6.373
 4118SOL    HW212915   2.989   3.264   6.404
 4119SOL     OW12916   2.170   2.673   6.536
 4119SOL    HW112917   2.261   2.704   6.541
 4119SOL    HW212918   2.173   2.586   6.574
 4120SOL     OW12919   2.191   2.385   6.604
 4120SOL    HW112920   2.155   2.299   6.585
 4120SOL    HW212921   2.270   2.391   6.551
 4121SOL     OW12922   2.999   2.234   7.264
 4121SOL    HW112923   2.953   2.287   7.329
 4121SOL    HW212924   3.086   2.275   7.257
 4122SOL     OW12925   3.023   2.064   7.054
 4122SOL    HW112926   3.013   2.126   7.127
 4122SOL    HW212927   3.061   2.116   6.983
 4123SOL     OW12928   1.867   3.184   5.781
 4123SOL    HW112929   1.780   3.197   5.743
 4123SOL    HW212930   1.865   3.094   5.814
 4124SOL     OW12931   1.952   3.651   6.522
 4124SOL    HW112932   1.922   3.571   6.480
 4124SOL    HW212933   2.042   3.662   6.492
 4125SOL     OW12934   2.360   3.435   6.490
 4125SOL    HW112935   2.429   3.496   6.516
 4125SOL    HW212936   2.405   3.369   6.438
 4126SOL     OW12937   1.897   2.405   6.703
 4126SOL    HW112938   1.978   2.391   6.654
 4126SOL    HW212939   1.924   2.411   6.794
 4127SOL     OW12940   2.053   2.379   7.312
 4127SOL    HW112941   2.105   2.340   7.242
 4127SOL    HW212942   2.008   2.452   7.269
 4128SOL     OW12943   3.237   2.802   7.246
 4128SOL    HW112944   3.259   2.896   7.245
 4128SOL    HW212945   3.235   2.777   7.153
 4129SOL     OW12946   2.701   2.334   5.960
 4129SOL    HW112947   2.705   2.290   5.875
 4129SOL    HW212948   2.632   2.399   5.950
 4130SOL     OW12949   3.504   2.464   6.774
 4130SOL    HW112950   3.492   2.406   6.848
 4130SOL    HW212951   3.591   2.442   6.740
 4131SOL     OW12952   2.106   3.414   7.315
 4131SOL    HW112953   2.084   3.477   7.383
 4131SOL    HW212954   2.108   3.330   7.360
 4132SOL     OW12955   2.536   2.299   6.849
 4132SOL    HW112956   2.497   2.219   6.815
 4132SOL    HW212957   2.558   2.350   6.771
 4133SOL     OW12958   2.790   3.542   7.054
 4133SOL    HW112959   2.766   3.507   6.968
 4133SOL    HW212960   2.787   3.637   7.043
 4134SOL     OW12961   2.331   2.365   5.784
 4134SOL    HW112962   2.381   2.446   5.789
 4134SOL    HW212963   2.241   2.393   5.769
 4135SOL     OW12964   2.008   3.003   7.058
 4135SOL    HW112965   2.012   2.949   7.137
 4135SOL    HW212966   2.023   2.941   6.987
 4136SOL     OW12967   3.190   2.911   6.811
 4136SOL    HW112968   3.214   2.848   6.743
 4136SOL    HW212969   3.120   2.963   6.772
 4137SOL     OW12970   3.176   2.711   5.890
 4137SOL    HW112971   3.092   2.721   5.935
 4137SOL    HW212972   3.153   2.704   5.797
 4138SOL     OW12973   3.631   3.608   6.734
 4138SOL    HW112974   3.692   3.634   6.665
 4138SOL    HW212975   3.608   3.517   6.714
 4139SOL     OW12976   3.103   3.595   6.701
 4139SOL    HW112977   3.186   3.613   6.655
 4139SOL    HW212978   3.107   3.501   6.720
 4140SOL     OW12979   1.945   3.129   6.598
 4140SOL    HW112980   1.932   3.141   6.693
 4140SOL    HW212981   1.872   3.073   6.571
 4141SOL     OW12982   2.539   3.526   7.311
 4141SOL    HW112983   2.489   3.607   7.309
 4141SOL    HW212984   2.605   3.535   7.242
 4142SOL     OW12985   3.581   2.006   6.097
 4142SOL    HW112986   3.654   1.992   6.037
 4142SOL    HW212987   3.565   1.920   6.137
 4143SOL     OW12988   3.251   3.430   6.068
 4143SOL    HW112989   3.313   3.462   6.002
 4143SOL    HW212990   3.204   3.508   6.097
 4144SOL     OW12991   1.996   3.659   7.430
 4144SOL    HW112992   1.946   3.594   7.479
 4144SOL    HW212993   2.046   3.707   7.497
 4145SOL     OW12994   3.132   2.786   6.255
 4145SOL    HW112995   3.205   2.725   6.263
 4145SOL    HW212996   3.168   2.860   6.205
 4146SOL     OW12997   2.690   3.141   7.021
 4146SOL    HW112998   2.648   3.181   7.097
 4146SOL    HW212999   2.618   3.123   6.961
 4147SOL     OW13000   2.533   3.480   5.741
 4147SOL    HW113001   2.544   3.491   5.647
 4147SOL    HW213002   2.480   3.401   5.750
 4148SOL     OW13003   3.492   3.589   6.978
 4148SOL    HW113004   3.540   3.596   6.895
 4148SOL    HW213005   3.479   3.679   7.006
 4149SOL     OW13006   3.702   2.035   6.553
 4149SOL    HW113007   3.731   1.948   6.525
 4149SOL    HW213008   3.616   2.046   6.513
 4150SOL     OW13009   2.126   2.181   6.304
 4150SOL    HW113010   2.039   2.215   6.279
 4150SOL    HW213011   2.120   2.169   6.399
 4151SOL     OW13012   3.068   3.469   5.617
 4151SOL    HW113013   3.059   3.378   5.644
 4151SOL    HW213014   3.003   3.480   5.547
 4152SOL     OW13015   3.356   3.486   5.628
 4152SOL    HW113016   3.261   3.482   5.615
 4152SOL    HW213017   3.391   3.493   5.540
 4153SOL     OW13018   2.229   3.164   7.080
 4153SOL    HW113019   2.219   3.241   7.023
 4153SOL    HW213020   2.153   3.110   7.061
 4154SOL     OW13021   3.474   3.145   6.867
 4154SOL    HW113022   3.532   3.136   6.942
 4154SOL    HW213023   3.413   3.214   6.892
 4155SOL     OW13024   2.911   2.968   6.288
 4155SOL    HW113025   2.837   2.921   6.326
 4155SOL    HW213026   2.975   2.901   6.265
 4156SOL     OW13027   2.885   2.100   6.552
 4156SOL    HW113028   2.880   2.051   6.470
 4156SOL    HW213029   2.879   2.032   6.620
 4157SOL     OW13030   2.463   3.352   6.067
 4157SOL    HW113031   2.505   3.306   5.995
 4157SOL    HW213032   2.394   3.405   6.025
 4158SOL     OW13033   3.583   2.253   6.967
 4158SOL    HW113034   3.654   2.317   6.965
 4158SOL    HW213035   3.613   2.182   6.911
 4159SOL     OW13036   2.120   3.209   5.872
 4159SOL    HW113037   2.027   3.206   5.850
 4159SOL    HW213038   2.123   3.245   5.960
 4160SOL     OW13039   1.973   2.880   7.304
 4160SOL    HW113040   1.897   2.859   7.358
 4160SOL    HW213041   2.048   2.846   7.353
 4161SOL     OW13042   2.533   2.056   7.081
 4161SOL    HW113043   2.618   2.039   7.041
 4161SOL    HW213044   2.554   2.080   7.172
 4162SOL     OW13045   1.938   2.200   5.623
 4162SOL    HW113046   1.853   2.177   5.586
 4162SOL    HW213047   1.968   2.273   5.569
 4163SOL     OW13048   3.294   2.721   6.988
 4163SOL    HW113049   3.245   2.781   6.932
 4163SOL    HW213050   3.383   2.724   6.954
 4164SOL     OW13051   1.932   2.020   5.898
 4164SOL    HW113052   1.917   2.099   5.846
 4164SOL    HW213053   2.017   1.986   5.868
 4165SOL     OW13054   3.042   3.203   5.703
 4165SOL    HW113055   2.951   3.171   5.707
 4165SOL    HW213056   3.070   3.203   5.795
 4166SOL     OW13057   3.347   3.637   6.562
 4166SOL    HW113058   3.372   3.696   6.491
 4166SOL    HW213059   3.428   3.620   6.610
 4167SOL     OW13060   3.332   3.063   7.219
 4167SOL    HW113061   3.319   3.077   7.313
 4167SOL    HW213062   3.426   3.077   7.206
 4168SOL     OW13063   2.243   3.602   7.150
 4168SOL    HW113064   2.157   3.642   7.137
 4168SOL    HW213065   2.225   3.517   7.190
 4169SOL     OW13066   3.533   2.744   6.842
 4169SOL    HW113067   3.525   2.658   6.799
 4169SOL    HW213068   3.524   2.807   6.770
 4170SOL     OW13069   3.081   2.182   6.042
 4170SOL    HW113070   3.144   2.110   6.034
 4170SOL    HW213071   3.109   2.228   6.121
 4171SOL     OW13072   3.626   2.222   7.236
 4171SOL    HW113073   3.609   2.237   7.143
 4171SOL    HW213074   3.554   2.166   7.265
 4172SOL     OW13075   3.607   2.795   7.099
 4172SOL    HW113076   3.605   2.890   7.112
 4172SOL    HW213077   3.591   2.784   7.005
 4173SOL     OW13078   2.726   3.233   5.616
 4173SOL    HW113079   2.688   3.262   5.700
 4173SOL    HW213080   2.746   3.314   5.570
 4174SOL     OW13081   2.521   3.656   6.532
 4174SOL    HW113082   2.502   3.746   6.508
 4174SOL    HW213083   2.616   3.648   6.526
 4175SOL     OW13084   2.949   2.855   5.678
 4175SOL    HW113085   2.921   2.901   5.598
 4175SOL    HW213086   3.021   2.799   5.649
 4176SOL     OW13087   3.718   3.417   6.431
 4176SOL    HW113088   3.640   3.406   6.376
 4176SOL    HW213089   3.709   3.351   6.499
 4177SOL     OW13090   2.086   3.167   7.442
 4177SOL    HW113091   2.018   3.106   7.414
 4177SOL    HW213092   2.071   3.179   7.536
 4178SOL     OW13093   1.945   3.096   6.251
 4178SOL    HW113094   1.950   3.048   6.333
 4178SOL    HW213095   2.016   3.059   6.197
 4179SOL     OW13096   2.540   3.263   7.211
 4179SOL    HW113097   2.461   3.220   7.243
 4179SOL    HW213098   2.537   3.351   7.249
 4180SOL     OW13099   3.676   2.047   6.824
 4180SOL    HW113100   3.685   1.953   6.839
 4180SOL    HW213101   3.685   2.057   6.729
 4181SOL     OW13102   2.304   2.294   6.123
 4181SOL    HW113103   2.325   2.228   6.056
 4181SOL    HW213104   2.244   2.250   6.183
 4182SOL     OW13105   3.564   3.352   6.684
 4182SOL    HW113106   3.482   3.328   6.640
 4182SOL    HW213107   3.576   3.284   6.750
 4183SOL     OW13108   2.195   2.413   6.881
 4183SOL    HW113109   2.249   2.353   6.933
 4183SOL    HW213110   2.208   2.384   6.790
 4184SOL     OW13111   2.689   3.440   6.262
 4184SOL    HW113112   2.676   3.488   6.181
 4184SOL    HW213113   2.611   3.384   6.270
 4185SOL     OW13114   3.295   2.085   6.704
 4185SOL    HW113115   3.322   2.007   6.752
 4185SOL    HW213116   3.242   2.134   6.767
 4186SOL     OW13117   2.870   1.881   6.730
 4186SOL    HW113118   2.816   1.812   6.691
 4186SOL    HW213119   2.958   1.844   6.732
 4187SOL     OW13120   2.636   3.202   5.896
 4187SOL    HW113121   2.604   3.112   5.896
 4187SOL    HW213122   2.717   3.199   5.948
 4188SOL     OW13123   2.480   3.422   6.868
 4188SOL    HW113124   2.485   3.503   6.920
 4188SOL    HW213125   2.569   3.411   6.833
 4189SOL     OW13126   3.214   1.916   5.750
 4189SOL    HW113127   3.240   1.856   5.680
 4189SOL    HW213128   3.127   1.885   5.777
 4190SOL     OW13129   3.165   2.317   6.268
 4190SOL    HW113130   3.114   2.398   6.276
 4190SOL    HW213131   3.159   2.276   6.354
 4191SOL     OW13132   3.449   2.066   6.463
 4191SOL    HW113133   3.386   2.085   6.533
 4191SOL    HW213134   3.448   2.144   6.408
 4192SOL     OW13135   1.906   2.934   5.890
 4192SOL    HW113136   1.999   2.924   5.872
 4192SOL    HW213137   1.877   2.846   5.914
 4193SOL     OW13138   2.745   3.513   5.929
 4193SOL    HW113139   2.673   3.496   5.869
 4193SOL    HW213140   2.716   3.589   5.980
 4194SOL     OW13141   2.094   2.479   7.570
 4194SOL    HW113142   2.004   2.491   7.602
 4194SOL    HW213143   2.084   2.457   7.477
 4195SOL     OW13144   3.628   2.462   7.680
 4195SOL    HW113145   3.609   2.458   7.587
 4195SOL    HW213146   3.587   2.384   7.717
 4196SOL     OW13147   2.082   3.582   7.919
 4196SOL    HW113148   2.114   3.624   7.999
 4196SOL    HW213149   2.159   3.577   7.862
 4197SOL     OW13150   2.080   3.300   7.987
 4197SOL    HW113151   2.063   3.395   7.992
 4197SOL    HW213152   2.024   3.263   8.056
 4198SOL     OW13153   2.430   2.859   7.569
 4198SOL    HW113154   2.481   2.910   7.506
 4198SOL    HW213155   2.473   2.874   7.653
 4199SOL     OW13156   3.699   3.622   7.798
 4199SOL    HW113157   3.768   3.591   7.856
 4199SOL    HW213158   3.726   3.710   7.773
 4200SOL     OW13159   1.890   3.462   7.577
 4200SOL    HW113160   1.876   3.368   7.592
 4200SOL    HW213161   1.864   3.503   7.659
 4201SOL     OW13162   3.545   2.733   8.039
 4201SOL    HW113163   3.629   2.743   0.004
 4201SOL    HW213164   3.533   2.815   7.991
 4202SOL     OW13165   3.516   2.960   7.877
 4202SOL    HW113166   3.602   2.987   7.844
 4202SOL    HW213167   3.490   3.032   7.935
 4203SOL     OW13168   2.665   1.857   7.941
 4203SOL    HW113169   2.712   1.938   7.924
 4203SOL    HW213170   2.573   1.884   7.948
 4204SOL     OW13171   3.395   2.854   7.647
 4204SOL    HW113172   3.328   2.794   7.679
 4204SOL    HW213173   3.435   2.889   7.727
 4205SOL     OW13174   3.437   3.532   7.757
 4205SOL    HW113175   3.527   3.562   7.765
 4205SOL    HW213176   3.424   3.518   7.663
 4206SOL     OW13177   1.926   2.718   0.095
 4206SOL    HW113178   1.997   2.664   0.129
 4206SOL    HW213179   1.912   2.785   0.162
 4207SOL     OW13180   2.742   2.205   7.641
 4207SOL    HW113181   2.785   2.273   7.591
 4207SOL    HW213182   2.781   2.123   7.610
 4208SOL     OW13183   2.179   2.822   7.695
 4208SOL    HW113184   2.261   2.839   7.649
 4208SOL    HW213185   2.150   2.737   7.663
 4209SOL     OW13186   2.984   3.637   7.682
 4209SOL    HW113187   2.909   3.597   7.724
 4209SOL    HW213188   3.007   3.578   7.610
 4210SOL     OW13189   3.491   3.242   7.533
 4210SOL    HW113190   3.449   3.327   7.520
 4210SOL    HW213191   3.422   3.178   7.516
 4211SOL     OW13192   2.329   3.601   7.769
 4211SOL    HW113193   2.376   3.652   7.834
 4211SOL    HW213194   2.397   3.566   7.711
 4212SOL     OW13195   3.276   1.992   7.864
 4212SOL    HW113196   3.263   1.958   7.776
 4212SOL    HW213197   3.371   1.989   7.877
 4213SOL     OW13198   2.242   2.550   7.904
 4213SOL    HW113199   2.254   2.458   7.927
 4213SOL    HW213200   2.167   2.578   7.955
 4214SOL     OW13201   2.482   1.978   7.566
 4214SOL    HW113202   2.567   1.935   7.569
 4214SOL    HW213203   2.445   1.953   7.481
 4215SOL     OW13204   2.394   1.934   7.959
 4215SOL    HW113205   2.308   1.936   8.000
 4215SOL    HW213206   2.392   2.005   7.895
 4216SOL     OW13207   3.291   3.060   7.490
 4216SOL    HW113208   3.321   2.985   7.541
 4216SOL    HW213209   3.204   3.080   7.526
 4217SOL     OW13210   2.156   1.911   7.633
 4217SOL    HW113211   2.214   1.971   7.587
 4217SOL    HW213212   2.213   1.845   7.670
 4218SOL     OW13213   2.802   2.092   7.910
 4218SOL    HW113214   2.762   2.148   7.843
 4218SOL    HW213215   2.893   2.120   7.914
 4219SOL     OW13216   2.291   3.042   0.093
 4219SOL    HW113217   2.214   3.034   0.149
 4219SOL    HW213218   2.263   3.011   0.008
 4220SOL     OW13219   3.152   3.673   8.015
 4220SOL    HW113220   3.186   3.742   7.958
 4220SOL    HW213221   3.070   3.708   8.050
 4221SOL     OW13222   2.908   2.388   7.468
 4221SOL    HW113223   2.861   2.471   7.461
 4221SOL    HW213224   2.969   2.401   7.541
 4222SOL     OW13225   3.731   2.681   7.803
 4222SOL    HW113226   3.736   2.645   7.892
 4222SOL    HW213227   3.689   2.611   7.752
 4223SOL     OW13228   2.352   3.277   7.607
 4223SOL    HW113229   2.277   3.247   7.659
 4223SOL    HW213230   2.335   3.243   7.519
 4224SOL     OW13231   3.256   2.433   7.519
 4224SOL    HW113232   3.196   2.414   7.591
 4224SOL    HW213233   3.340   2.399   7.549
 4225SOL     OW13234   2.387   2.130   7.773
 4225SOL    HW113235   2.426   2.076   7.704
 4225SOL    HW213236   2.369   2.214   7.730
 4226SOL     OW13237   2.577   2.945   7.823
 4226SOL    HW113238   2.523   2.943   7.903
 4226SOL    HW213239   2.609   2.856   7.814
 4227SOL     OW13240   2.231   2.960   7.928
 4227SOL    HW113241   2.210   3.038   7.876
 4227SOL    HW213242   2.217   2.887   7.868
 4228SOL     OW13243   3.089   3.217   7.822
 4228SOL    HW113244   3.152   3.284   7.848
 4228SOL    HW213245   3.040   3.197   7.901
 4229SOL     OW13246   3.449   2.492   7.922
 4229SOL    HW113247   3.435   2.553   7.994
 4229SOL    HW213248   3.489   2.545   7.853
 4230SOL     OW13249   3.065   2.389   7.716
 4230SOL    HW113250   3.067   2.307   7.766
 4230SOL    HW213251   3.057   2.457   7.782
 4231SOL     OW13252   3.479   2.239   7.816
 4231SOL    HW113253   3.501   2.173   7.881
 4231SOL    HW213254   3.454   2.316   7.868
 4232SOL     OW13255   3.393   2.136   7.576
 4232SOL    HW113256   3.328   2.071   7.601
 4232SOL    HW213257   3.425   2.172   7.658
 4233SOL     OW13258   3.158   2.689   7.482
 4233SOL    HW113259   3.198   2.602   7.482
 4233SOL    HW213260   3.187   2.729   7.400
 4234SOL     OW13261   1.867   3.187   7.641
 4234SOL    HW113262   1.780   3.199   7.604
 4234SOL    HW213263   1.867   3.097   7.674
 4235SOL     OW13264   2.331   2.363   7.644
 4235SOL    HW113265   2.386   2.440   7.654
 4235SOL    HW213266   2.243   2.398   7.632
 4236SOL     OW13267   3.167   2.705   7.756
 4236SOL    HW113268   3.079   2.721   7.789
 4236SOL    HW213269   3.156   2.702   7.661
 4237SOL     OW13270   3.574   2.007   7.950
 4237SOL    HW113271   3.652   1.998   7.895
 4237SOL    HW213272   3.575   1.928   8.005
 4238SOL     OW13273   3.228   3.438   7.898
 4238SOL    HW113274   3.302   3.459   7.841
 4238SOL    HW213275   3.196   3.523   7.928
 4239SOL     OW13276   2.529   3.482   7.604
 4239SOL    HW113277   2.542   3.491   7.509
 4239SOL    HW213278   2.479   3.401   7.613
 4240SOL     OW13279   3.070   3.470   7.478
 4240SOL    HW113280   3.060   3.379   7.506
 4240SOL    HW213281   3.003   3.481   7.410
 4241SOL     OW13282   3.357   3.488   7.489
 4241SOL    HW113283   3.262   3.481   7.478
 4241SOL    HW213284   3.391   3.493   7.399
 4242SOL     OW13285   2.469   3.370   7.936
 4242SOL    HW113286   2.510   3.307   7.877
 4242SOL    HW213287   2.394   3.403   7.886
 4243SOL     OW13288   2.119   3.209   7.738
 4243SOL    HW113289   2.027   3.207   7.714
 4243SOL    HW213290   2.120   3.245   7.827
 4244SOL     OW13291   1.939   2.197   7.484
 4244SOL    HW113292   1.852   2.177   7.449
 4244SOL    HW213293   1.968   2.272   7.434
 4245SOL     OW13294   1.934   2.020   7.760
 4245SOL    HW113295   1.917   2.096   7.705
 4245SOL    HW213296   2.016   1.985   7.727
 4246SOL     OW13297   3.040   3.203   7.557
 4246SOL    HW113298   2.950   3.170   7.559
 4246SOL    HW213299   3.066   3.207   7.649
 4247SOL     OW13300   3.077   2.180   7.901
 4247SOL    HW113301   3.150   2.120   7.892
 4247SOL    HW213302   3.095   2.228   7.982
 4248SOL     OW13303   2.724   3.230   7.478
 4248SOL    HW113304   2.687   3.256   7.562
 4248SOL    HW213305   2.745   3.312   7.434
 4249SOL     OW13306   2.959   2.869   7.544
 4249SOL    HW113307   2.922   2.904   7.463
 4249SOL    HW213308   3.022   2.804   7.516
 4250SOL     OW13309   2.255   2.286   7.980
 4250SOL    HW113310   2.303   2.234   7.915
 4250SOL    HW213311   2.293   2.258   8.064
 4251SOL     OW13312   2.632   3.205   7.754
 4251SOL    HW113313   2.600   3.115   7.761
 4251SOL    HW213314   2.714   3.205   7.804
 4252SOL     OW13315   3.213   1.915   7.610
 4252SOL    HW113316   3.241   1.852   7.543
 4252SOL    HW213317   3.128   1.884   7.639
 4253SOL     OW13318   1.912   2.941   7.750
 4253SOL    HW113319   2.006   2.929   7.733
 4253SOL    HW213320   1.879   2.853   7.767
 4254SOL     OW13321   2.754   3.512   7.782
 4254SOL    HW113322   2.678   3.487   7.730
 4254SOL    HW213323   2.720   3.576   7.845
 4255SOL     OW13324   2.085   4.348   0.121
 4255SOL    HW113325   2.003   4.316   0.159
 4255SOL    HW213326   2.104   4.286   0.050
 4256SOL     OW13327   2.086   4.004   0.991
 4256SOL    HW113328   2.115   3.971   1.076
 4256SOL    HW213329   1.997   3.972   0.982
 4257SOL     OW13330   1.867   4.107   0.638
 4257SOL    HW113331   1.784   4.131   0.679
 4257SOL    HW213332   1.847   4.026   0.590
 4258SOL     OW13333   2.428   5.003   1.177
 4258SOL    HW113334   2.342   5.002   1.133
 4258SOL    HW213335   2.439   5.094   1.205
 4259SOL     OW13336   3.416   5.232   0.688
 4259SOL    HW113337   3.391   5.229   0.780
 4259SOL    HW213338   3.340   5.268   0.643
 4260SOL     OW13339   2.992   4.422   0.703
 4260SOL    HW113340   3.042   4.503   0.688
 4260SOL    HW213341   2.945   4.438   0.785
 4261SOL     OW13342   3.631   4.325   0.233
 4261SOL    HW113343   3.594   4.324   0.144
 4261SOL    HW213344   3.591   4.250   0.276
 4262SOL     OW13345   2.620   4.869   1.037
 4262SOL    HW113346   2.552   4.900   1.096
 4262SOL    HW213347   2.650   4.948   0.991
 4263SOL     OW13348   2.726   4.502   1.821
 4263SOL    HW113349   2.713   4.574   1.883
 4263SOL    HW213350   2.750   4.545   1.739
 4264SOL     OW13351   2.547   4.728   0.651
 4264SOL    HW113352   2.612   4.716   0.720
 4264SOL    HW213353   2.479   4.781   0.692
 4265SOL     OW13354   2.570   4.874   1.809
 4265SOL    HW113355   2.617   4.953   1.834
 4265SOL    HW213356   2.486   4.905   1.776
 4266SOL     OW13357   2.199   5.154   1.061
 4266SOL    HW113358   2.123   5.111   1.023
 4266SOL    HW213359   2.241   5.199   0.987
 4267SOL     OW13360   3.318   5.220   1.346
 4267SOL    HW113361   3.370   5.293   1.378
 4267SOL    HW213362   3.252   5.206   1.414
 4268SOL     OW13363   2.310   4.123   1.490
 4268SOL    HW113364   2.385   4.063   1.494
 4268SOL    HW213365   2.234   4.065   1.501
 4269SOL     OW13366   3.475   4.173   0.740
 4269SOL    HW113367   3.399   4.197   0.687
 4269SOL    HW213368   3.493   4.250   0.793
 4270SOL     OW13369   2.995   5.071   1.699
 4270SOL    HW113370   3.027   5.071   1.789
 4270SOL    HW213371   2.942   4.992   1.692
 4271SOL     OW13372   2.070   5.154   0.516
 4271SOL    HW113373   2.096   5.238   0.554
 4271SOL    HW213374   2.017   5.113   0.584
 4272SOL     OW13375   2.117   4.812   0.891
 4272SOL    HW113376   2.115   4.725   0.932
 4272SOL    HW213377   2.060   4.865   0.946
 4273SOL     OW13378   2.493   4.686   0.130
 4273SOL    HW113379   2.443   4.764   0.104
 4273SOL    HW213380   2.540   4.713   0.209
 4274SOL     OW13381   3.458   3.846   1.469
 4274SOL    HW113382   3.460   3.926   1.417
 4274SOL    HW213383   3.446   3.876   1.559
 4275SOL     OW13384   1.976   4.374   0.561
 4275SOL    HW113385   1.946   4.285   0.582
 4275SOL    HW213386   1.968   4.422   0.643
 4276SOL     OW13387   1.841   0.018   0.097
 4276SOL    HW113388   1.859   5.228   0.126
 4276SOL    HW213389   1.870   0.072   0.170
 4277SOL     OW13390   3.549   4.642   0.641
 4277SOL    HW113391   3.634   4.602   0.621
 4277SOL    HW213392   3.528   4.694   0.563
 4278SOL     OW13393   3.508   4.830   0.434
 4278SOL    HW113394   3.589   4.844   0.385
 4278SOL    HW213395   3.513   4.891   0.507
 4279SOL     OW13396   1.984   4.466   1.587
 4279SOL    HW113397   2.076   4.489   1.598
 4279SOL    HW213398   1.937   4.549   1.594
 4280SOL     OW13399   2.483   5.097   0.736
 4280SOL    HW113400   2.428   5.018   0.734
 4280SOL    HW213401   2.465   5.140   0.652
 4281SOL     OW13402   3.151   4.956   1.426
 4281SOL    HW113403   3.187   4.890   1.365
 4281SOL    HW213404   3.210   4.952   1.501
 4282SOL     OW13405   2.676   3.725   0.508
 4282SOL    HW113406   2.715   3.810   0.489
 4282SOL    HW213407   2.582   3.743   0.518
 4283SOL     OW13408   2.053   4.692   1.268
 4283SOL    HW113409   2.137   4.648   1.254
 4283SOL    HW213410   1.989   4.635   1.226
 4284SOL     OW13411   3.374   4.732   0.209
 4284SOL    HW113412   3.314   4.663   0.239
 4284SOL    HW213413   3.425   4.755   0.286
 4285SOL     OW13414   2.193   3.975   1.808
 4285SOL    HW113415   2.239   4.057   1.824
 4285SOL    HW213416   2.104   3.990   1.841
 4286SOL     OW13417   3.337   5.145   0.963
 4286SOL    HW113418   3.264   5.158   1.023
 4286SOL    HW213419   3.324   5.057   0.928
 4287SOL     OW13420   2.459   4.440   0.281
 4287SOL    HW113421   2.479   4.515   0.226
 4287SOL    HW213422   2.395   4.472   0.344
 4288SOL     OW13423   3.141   4.073   0.932
 4288SOL    HW113424   3.052   4.040   0.940
 4288SOL    HW213425   3.192   4.021   0.994
 4289SOL     OW13426   2.655   4.341   1.452
 4289SOL    HW113427   2.628   4.318   1.541
 4289SOL    HW213428   2.613   4.275   1.397
 4290SOL     OW13429   3.256   4.198   1.678
 4290SOL    HW113430   3.257   4.242   1.762
 4290SOL    HW213431   3.318   4.126   1.687
 4291SOL     OW13432   2.818   4.612   1.581
 4291SOL    HW113433   2.873   4.542   1.547
 4291SOL    HW213434   2.771   4.646   1.505
 4292SOL     OW13435   2.854   4.137   1.240
 4292SOL    HW113436   2.770   4.160   1.279
 4292SOL    HW213437   2.832   4.090   1.159
 4293SOL     OW13438   2.913   4.422   0.427
 4293SOL    HW113439   2.928   4.416   0.522
 4293SOL    HW213440   2.831   4.376   0.412
 4294SOL     OW13441   1.951   4.545   0.775
 4294SOL    HW113442   2.032   4.538   0.826
 4294SOL    HW213443   1.907   4.622   0.811
 4295SOL     OW13444   2.745   4.081   0.200
 4295SOL    HW113445   2.790   4.129   0.131
 4295SOL    HW213446   2.746   3.990   0.170
 4296SOL     OW13447   3.572   4.300   1.828
 4296SOL    HW113448   3.534   4.375   1.781
 4296SOL    HW213449   3.598   4.239   1.759
 4297SOL     OW13450   3.237   4.864   0.540
 4297SOL    HW113451   3.317   4.850   0.490
 4297SOL    HW213452   3.186   4.926   0.489
 4298SOL     OW13453   2.411   3.907   0.892
 4298SOL    HW113454   2.413   3.935   0.984
 4298SOL    HW213455   2.414   3.989   0.843
 4299SOL     OW13456   2.881   5.167   0.468
 4299SOL    HW113457   2.805   5.225   0.461
 4299SOL    HW213458   2.899   5.163   0.562
 4300SOL     OW13459   3.661   4.782   0.866
 4300SOL    HW113460   3.603   4.766   0.792
 4300SOL    HW213461   3.603   4.789   0.942
 4301SOL     OW13462   3.112   5.239   1.522
 4301SOL    HW113463   3.075   5.173   1.581
 4301SOL    HW213464   3.042   5.257   1.459
 4302SOL     OW13465   2.191   4.665   0.251
 4302SOL    HW113466   2.263   4.705   0.203
 4302SOL    HW213467   2.188   4.575   0.219
 4303SOL     OW13468   3.339   4.463   0.727
 4303SOL    HW113469   3.329   4.420   0.812
 4303SOL    HW213470   3.415   4.520   0.738
 4304SOL     OW13471   2.326   4.987   1.740
 4304SOL    HW113472   2.299   4.990   1.648
 4304SOL    HW213473   2.244   4.986   1.789
 4305SOL     OW13474   3.017   0.162   0.238
 4305SOL    HW113475   2.931   0.175   0.279
 4305SOL    HW213476   2.997   0.145   0.146
 4306SOL     OW13477   2.062   4.006   1.500
 4306SOL    HW113478   1.980   4.056   1.494
 4306SOL    HW213479   2.046   3.941   1.569
 4307SOL     OW13480   3.493   5.095   0.076
 4307SOL    HW113481   3.454   5.181   0.090
 4307SOL    HW213482   3.417   5.037   0.062
 4308SOL     OW13483   3.268   3.834   0.441
 4308SOL    HW113484   3.258   3.814   0.349
 4308SOL    HW213485   3.363   3.842   0.454
 4309SOL     OW13486   2.247   4.421   0.478
 4309SOL    HW113487   2.274   4.330   0.487
 4309SOL    HW213488   2.154   4.422   0.500
 4310SOL     OW13489   3.399   3.950   1.725
 4310SOL    HW113490   3.408   3.971   1.818
 4310SOL    HW213491   3.330   3.883   1.722
 4311SOL     OW13492   2.490   3.836   0.134
 4311SOL    HW113493   2.585   3.824   0.141
 4311SOL    HW213494   2.470   3.816   0.043
 4312SOL     OW13495   2.629   4.001   1.753
 4312SOL    HW113496   2.703   3.940   1.758
 4312SOL    HW213497   2.580   3.985   1.833
 4313SOL     OW13498   3.203   4.312   1.432
 4313SOL    HW113499   3.234   4.281   1.517
 4313SOL    HW213500   3.239   4.401   1.424
 4314SOL     OW13501   2.673   5.122   0.934
 4314SOL    HW113502   2.754   5.107   0.885
 4314SOL    HW213503   2.605   5.127   0.867
 4315SOL     OW13504   2.789   4.233   0.903
 4315SOL    HW113505   2.766   4.225   0.811
 4315SOL    HW213506   2.822   4.146   0.928
 4316SOL     OW13507   2.411   3.787   0.507
 4316SOL    HW113508   2.330   3.787   0.558
 4316SOL    HW213509   2.405   3.866   0.452
 4317SOL     OW13510   3.289   4.925   0.036
 4317SOL    HW113511   3.319   4.850   0.089
 4317SOL    HW213512   3.202   4.945   0.071
 4318SOL     OW13513   2.171   3.777   0.167
 4318SOL    HW113514   2.234   3.847   0.181
 4318SOL    HW213515   2.209   3.701   0.211
 4319SOL     OW13516   2.800   3.969   0.461
 4319SOL    HW113517   2.772   4.011   0.380
 4319SOL    HW213518   2.895   3.984   0.464
 4320SOL     OW13519   2.942   4.404   1.460
 4320SOL    HW113520   2.872   4.338   1.465
 4320SOL    HW213521   3.022   4.353   1.453
 4321SOL     OW13522   3.124   5.267   0.782
 4321SOL    HW113523   3.091   0.049   0.746
 4321SOL    HW213524   3.168   5.292   0.863
 4322SOL     OW13525   2.326   4.872   0.733
 4322SOL    HW113526   2.257   4.852   0.797
 4322SOL    HW213527   2.286   4.853   0.648
 4323SOL     OW13528   2.895   4.256   0.028
 4323SOL    HW113529   2.851   4.336   8.079
 4323SOL    HW213530   2.956   4.286   0.096
 4324SOL     OW13531   1.939   4.279   1.391
 4324SOL    HW113532   2.031   4.277   1.364
 4324SOL    HW213533   1.935   4.349   1.457
 4325SOL     OW13534   2.422   3.951   1.164
 4325SOL    HW113535   2.463   3.873   1.202
 4325SOL    HW213536   2.331   3.948   1.194
 4326SOL     OW13537   2.729   4.182   0.639
 4326SOL    HW113538   2.687   4.238   0.574
 4326SOL    HW213539   2.751   4.102   0.592
 4327SOL     OW13540   2.878   3.776   0.752
 4327SOL    HW113541   2.818   3.770   0.677
 4327SOL    HW213542   2.856   3.701   0.807
 4328SOL     OW13543   3.298   4.889   0.859
 4328SOL    HW113544   3.232   4.820   0.855
 4328SOL    HW213545   3.322   4.905   0.767
 4329SOL     OW13546   3.329   4.327   0.979
 4329SOL    HW113547   3.280   4.245   0.983
 4329SOL    HW213548   3.389   4.323   1.053
 4330SOL     OW13549   3.711   4.540   0.388
 4330SOL    HW113550   3.762   4.487   0.448
 4330SOL    HW213551   3.679   4.479   0.321
 4331SOL     OW13552   2.331   5.160   0.158
 4331SOL    HW113553   2.282   5.103   0.217
 4331SOL    HW213554   2.363   5.102   0.089
 4332SOL     OW13555   3.531   4.988   0.649
 4332SOL    HW113556   3.625   4.996   0.666
 4332SOL    HW213557   3.496   5.075   0.666
 4333SOL     OW13558   3.260   4.305   0.086
 4333SOL    HW113559   3.198   4.284   0.156
 4333SOL    HW213560   3.319   4.230   0.083
 4334SOL     OW13561   2.381   3.987   0.325
 4334SOL    HW113562   2.429   3.934   0.261
 4334SOL    HW213563   2.369   4.072   0.282
 4335SOL     OW13564   3.614   4.959   1.578
 4335SOL    HW113565   3.701   4.918   1.576
 4335SOL    HW213566   3.632   5.052   1.593
 4336SOL     OW13567   2.927   5.075   1.332
 4336SOL    HW113568   2.849   5.049   1.381
 4336SOL    HW213569   3.000   5.035   1.379
 4337SOL     OW13570   2.986   4.924   1.108
 4337SOL    HW113571   2.935   4.966   1.177
 4337SOL    HW213572   2.944   4.953   1.027
 4338SOL     OW13573   3.492   4.823   1.077
 4338SOL    HW113574   3.487   4.885   1.151
 4338SOL    HW213575   3.413   4.841   1.026
 4339SOL     OW13576   2.780   3.822   1.398
 4339SOL    HW113577   2.802   3.803   1.307
 4339SOL    HW213578   2.859   3.861   1.434
 4340SOL     OW13579   2.846   4.838   1.724
 4340SOL    HW113580   2.753   4.854   1.742
 4340SOL    HW213581   2.847   4.762   1.667
 4341SOL     OW13582   2.570   4.781   0.380
 4341SOL    HW113583   2.556   4.767   0.474
 4341SOL    HW213584   2.650   4.733   0.360
 4342SOL     OW13585   2.279   4.538   1.251
 4342SOL    HW113586   2.348   4.547   1.317
 4342SOL    HW213587   2.244   4.450   1.266
 4343SOL     OW13588   3.128   4.102   1.273
 4343SOL    HW113589   3.161   4.179   1.320
 4343SOL    HW213590   3.039   4.124   1.249
 4344SOL     OW13591   2.208   4.831   0.491
 4344SOL    HW113592   2.213   4.904   0.430
 4344SOL    HW213593   2.218   4.753   0.437
 4345SOL     OW13594   2.416   4.261   0.860
 4345SOL    HW113595   2.432   4.320   0.786
 4345SOL    HW213596   2.480   4.289   0.926
 4346SOL     OW13597   3.119   5.071   0.387
 4346SOL    HW113598   3.173   5.146   0.413
 4346SOL    HW213599   3.030   5.096   0.414
 4347SOL     OW13600   3.130   5.181   1.142
 4347SOL    HW113601   3.189   5.194   1.216
 4347SOL    HW213602   3.085   5.098   1.161
 4348SOL     OW13603   3.446   4.349   0.480
 4348SOL    HW113604   3.398   4.401   0.544
 4348SOL    HW213605   3.483   4.413   0.419
 4349SOL     OW13606   2.210   5.235   1.316
 4349SOL    HW113607   2.199   5.200   1.228
 4349SOL    HW213608   2.303   5.257   1.322
 4350SOL     OW13609   2.275   4.469   1.602
 4350SOL    HW113610   2.337   4.514   1.544
 4350SOL    HW213611   2.316   4.383   1.618
 4351SOL     OW13612   3.461   4.502   1.681
 4351SOL    HW113613   3.375   4.543   1.673
 4351SOL    HW213614   3.513   4.544   1.612
 4352SOL     OW13615   2.858   3.844   1.756
 4352SOL    HW113616   2.911   3.917   1.725
 4352SOL    HW213617   2.907   3.766   1.730
 4353SOL     OW13618   2.360   3.766   1.747
 4353SOL    HW113619   2.318   3.712   1.680
 4353SOL    HW213620   2.300   3.840   1.759
 4354SOL     OW13621   2.444   4.596   1.031
 4354SOL    HW113622   2.475   4.687   1.028
 4354SOL    HW213623   2.388   4.592   1.108
 4355SOL     OW13624   3.222   4.582   1.031
 4355SOL    HW113625   3.140   4.575   0.982
 4355SOL    HW213626   3.260   4.495   1.028
 4356SOL     OW13627   3.068   4.252   0.271
 4356SOL    HW113628   3.074   4.173   0.325
 4356SOL    HW213629   3.025   4.316   0.328
 4357SOL     OW13630   2.162   3.923   1.246
 4357SOL    HW113631   2.125   3.956   1.328
 4357SOL    HW213632   2.142   3.830   1.247
 4358SOL     OW13633   1.913   5.045   1.284
 4358SOL    HW113634   1.939   4.983   1.351
 4358SOL    HW213635   1.948   5.129   1.314
 4359SOL     OW13636   2.587   4.355   1.059
 4359SOL    HW113637   2.661   4.338   1.000
 4359SOL    HW213638   2.559   4.444   1.037
 4360SOL     OW13639   3.596   4.683   1.851
 4360SOL    HW113640   3.549   4.625   1.792
 4360SOL    HW213641   3.536   4.696   1.925
 4361SOL     OW13642   2.163   3.789   0.623
 4361SOL    HW113643   2.146   3.880   0.648
 4361SOL    HW213644   2.171   3.743   0.706
 4362SOL     OW13645   3.480   4.098   0.371
 4362SOL    HW113646   3.505   4.033   0.437
 4362SOL    HW213647   3.455   4.175   0.421
 4363SOL     OW13648   2.889   4.483   0.962
 4363SOL    HW113649   2.888   4.501   1.056
 4363SOL    HW213650   2.863   4.392   0.954
 4364SOL     OW13651   3.717   5.215   1.587
 4364SOL    HW113652   3.716   5.287   1.524
 4364SOL    HW213653   3.785   5.238   1.649
 4365SOL     OW13654   2.215   4.640   1.808
 4365SOL    HW113655   2.298   4.658   1.853
 4365SOL    HW213656   2.239   4.578   1.740
 4366SOL     OW13657   3.384   4.020   0.126
 4366SOL    HW113658   3.333   3.941   0.142
 4366SOL    HW213659   3.422   4.043   0.211
 4367SOL     OW13660   3.156   4.549   0.021
 4367SOL    HW113661   3.195   4.464   0.040
 4367SOL    HW213662   3.214   4.587   8.035
 4368SOL     OW13663   2.921   5.076   0.831
 4368SOL    HW113664   2.926   4.992   0.785
 4368SOL    HW213665   3.006   5.117   0.815
 4369SOL     OW13666   2.172   4.533   0.947
 4369SOL    HW113667   2.265   4.555   0.942
 4369SOL    HW213668   2.170   4.444   0.982
 4370SOL     OW13669   2.194   4.248   1.012
 4370SOL    HW113670   2.159   4.161   0.996
 4370SOL    HW213671   2.270   4.254   0.954
 4371SOL     OW13672   2.996   4.101   1.681
 4371SOL    HW113673   2.950   4.156   1.744
 4371SOL    HW213674   3.084   4.139   1.677
 4372SOL     OW13675   3.022   3.928   1.470
 4372SOL    HW113676   3.013   3.990   1.541
 4372SOL    HW213677   3.061   3.979   1.398
 4373SOL     OW13678   1.872   5.046   0.182
 4373SOL    HW113679   1.783   5.058   0.148
 4373SOL    HW213680   1.871   4.958   0.220
 4374SOL     OW13681   2.847   4.517   1.228
 4374SOL    HW113682   2.902   4.493   1.303
 4374SOL    HW213683   2.762   4.480   1.248
 4375SOL     OW13684   1.898   4.268   1.116
 4375SOL    HW113685   1.979   4.252   1.068
 4375SOL    HW213686   1.925   4.273   1.208
 4376SOL     OW13687   2.053   4.242   1.726
 4376SOL    HW113688   2.111   4.206   1.659
 4376SOL    HW213689   2.008   4.315   1.683
 4377SOL     OW13690   3.238   4.664   1.659
 4377SOL    HW113691   3.258   4.758   1.657
 4377SOL    HW213692   3.235   4.639   1.567
 4378SOL     OW13693   2.680   4.294   0.364
 4378SOL    HW113694   2.688   4.222   0.301
 4378SOL    HW213695   2.604   4.343   0.334
 4379SOL     OW13696   3.505   4.325   1.188
 4379SOL    HW113697   3.494   4.266   1.262
 4379SOL    HW213698   3.591   4.305   1.153
 4380SOL     OW13699   2.069   5.278   1.744
 4380SOL    HW113700   2.058   0.031   1.823
 4380SOL    HW213701   2.081   5.189   1.777
 4381SOL     OW13702   2.559   4.176   1.261
 4381SOL    HW113703   2.508   4.102   1.230
 4381SOL    HW213704   2.557   4.239   1.189
 4382SOL     OW13705   2.331   4.214   0.181
 4382SOL    HW113706   2.396   4.282   0.199
 4382SOL    HW213707   2.247   4.260   0.190
 4383SOL     OW13708   2.009   4.863   1.470
 4383SOL    HW113709   2.012   4.811   1.550
 4383SOL    HW213710   2.026   4.801   1.400
 4384SOL     OW13711   3.191   4.771   1.224
 4384SOL    HW113712   3.214   4.709   1.155
 4384SOL    HW213713   3.118   4.821   1.187
 4385SOL     OW13714   3.168   4.573   0.308
 4385SOL    HW113715   3.090   4.546   0.356
 4385SOL    HW213716   3.144   4.563   0.216
 4386SOL     OW13717   1.954   4.986   1.021
 4386SOL    HW113718   1.933   5.002   1.113
 4386SOL    HW213719   1.874   4.947   0.985
 4387SOL     OW13720   2.612   0.041   1.709
 4387SOL    HW113721   2.519   0.063   1.720
 4387SOL    HW213722   2.631   0.063   1.618
 4388SOL     OW13723   2.767   3.815   0.134
 4388SOL    HW113724   2.788   3.800   0.042
 4388SOL    HW213725   2.829   3.762   0.183
 4389SOL     OW13726   3.580   3.867   0.511
 4389SOL    HW113727   3.653   3.852   0.451
 4389SOL    HW213728   3.565   3.782   0.552
 4390SOL     OW13729   3.139   4.648   0.671
 4390SOL    HW113730   3.213   4.587   0.677
 4390SOL    HW213731   3.173   4.721   0.619
 4391SOL     OW13732   2.683   4.994   1.425
 4391SOL    HW113733   2.655   5.030   1.509
 4391SOL    HW213734   2.607   5.006   1.368
 4392SOL     OW13735   3.702   3.897   0.967
 4392SOL    HW113736   3.731   3.810   0.939
 4392SOL    HW213737   3.616   3.908   0.927
 4393SOL     OW13738   2.125   4.041   0.718
 4393SOL    HW113739   2.040   4.077   0.694
 4393SOL    HW213740   2.121   4.032   0.813
 4394SOL     OW13741   3.005   0.021   0.007
 4394SOL    HW113742   3.019   5.231   0.035
 4394SOL    HW213743   3.004   0.016   7.991
 4395SOL     OW13744   2.686   4.729   1.370
 4395SOL    HW113745   2.732   4.723   1.286
 4395SOL    HW213746   2.690   4.821   1.394
 4396SOL     OW13747   2.780   4.639   0.298
 4396SOL    HW113748   2.835   4.665   0.225
 4396SOL    HW213749   2.827   4.565   0.338
 4397SOL     OW13750   2.228   5.025   1.496
 4397SOL    HW113751   2.217   5.100   1.437
 4397SOL    HW213752   2.153   4.969   1.478
 4398SOL     OW13753   3.474   5.004   1.283
 4398SOL    HW113754   3.532   4.999   1.359
 4398SOL    HW213755   3.413   5.074   1.303
 4399SOL     OW13756   2.913   4.832   0.711
 4399SOL    HW113757   2.841   4.780   0.747
 4399SOL    HW213758   2.973   4.767   0.674
 4400SOL     OW13759   2.882   3.964   0.966
 4400SOL    HW113760   2.878   3.916   0.883
 4400SOL    HW213761   2.877   3.896   1.033
 4401SOL     OW13762   3.582   4.116   1.380
 4401SOL    HW113763   3.654   4.179   1.379
 4401SOL    HW213764   3.612   4.044   1.324
 4402SOL     OW13765   2.125   5.031   0.288
 4402SOL    HW113766   2.043   5.048   0.242
 4402SOL    HW213767   2.118   5.081   0.369
 4403SOL     OW13768   1.974   4.743   1.718
 4403SOL    HW113769   1.898   4.721   1.772
 4403SOL    HW213770   2.049   4.707   1.766
 4404SOL     OW13771   2.535   3.920   1.499
 4404SOL    HW113772   2.619   3.901   1.457
 4404SOL    HW213773   2.559   3.950   1.587
 4405SOL     OW13774   1.920   4.087   0.039
 4405SOL    HW113775   1.847   4.030   0.014
 4405SOL    HW213776   1.966   4.104   8.037
 4406SOL     OW13777   3.293   4.582   1.401
 4406SOL    HW113778   3.245   4.642   1.345
 4406SOL    HW213779   3.383   4.585   1.368
 4407SOL     OW13780   1.933   3.879   0.308
 4407SOL    HW113781   1.918   3.963   0.264
 4407SOL    HW213782   2.018   3.850   0.274
 4408SOL     OW13783   3.044   5.065   0.114
 4408SOL    HW113784   2.949   5.048   0.113
 4408SOL    HW213785   3.068   5.060   0.206
 4409SOL     OW13786   2.481   4.555   1.433
 4409SOL    HW113787   2.536   4.631   1.417
 4409SOL    HW213788   2.542   4.482   1.441
 4410SOL     OW13789   2.579   4.289   1.705
 4410SOL    HW113790   2.617   4.352   1.766
 4410SOL    HW213791   2.612   4.204   1.736
 4411SOL     OW13792   3.334   4.925   1.632
 4411SOL    HW113793   3.321   4.937   1.726
 4411SOL    HW213794   3.428   4.938   1.619
 4412SOL     OW13795   3.533   4.606   1.255
 4412SOL    HW113796   3.525   4.521   1.212
 4412SOL    HW213797   3.523   4.669   1.184
 4413SOL     OW13798   3.080   4.042   0.459
 4413SOL    HW113799   3.145   3.972   0.451
 4413SOL    HW213800   3.107   4.092   0.536
 4414SOL     OW13801   2.451   4.463   0.668
 4414SOL    HW113802   2.492   4.548   0.653
 4414SOL    HW213803   2.382   4.457   0.602
 4415SOL     OW13804   3.626   4.084   1.649
 4415SOL    HW113805   3.609   4.099   1.557
 4415SOL    HW213806   3.555   4.028   1.679
 4416SOL     OW13807   3.606   4.657   1.512
 4416SOL    HW113808   3.606   4.752   1.526
 4416SOL    HW213809   3.591   4.646   1.419
 4417SOL     OW13810   2.767   5.097   0.035
 4417SOL    HW113811   2.707   5.081   0.108
 4417SOL    HW213812   2.723   5.163   8.061
 4418SOL     OW13813   2.728   4.689   0.856
 4418SOL    HW113814   2.779   4.619   0.897
 4418SOL    HW213815   2.695   4.741   0.930
 4419SOL     OW13816   2.942   4.704   0.088
 4419SOL    HW113817   2.922   4.758   0.012
 4419SOL    HW213818   3.019   4.653   0.063
 4420SOL     OW13819   2.086   5.026   1.853
 4420SOL    HW113820   2.017   4.964   1.828
 4420SOL    HW213821   2.074   5.038   1.947
 4421SOL     OW13822   1.947   4.956   0.669
 4421SOL    HW113823   1.945   4.903   0.749
 4421SOL    HW213824   2.016   4.916   0.615
 4422SOL     OW13825   2.531   5.110   1.608
 4422SOL    HW113826   2.456   5.073   1.656
 4422SOL    HW213827   2.560   5.183   1.663
 4423SOL     OW13828   3.675   3.909   1.238
 4423SOL    HW113829   3.686   3.815   1.253
 4423SOL    HW213830   3.684   3.919   1.143
 4424SOL     OW13831   2.287   4.160   0.523
 4424SOL    HW113832   2.320   4.088   0.469
 4424SOL    HW213833   2.244   4.116   0.596
 4425SOL     OW13834   3.569   5.222   1.119
 4425SOL    HW113835   3.495   5.206   1.061
 4425SOL    HW213836   3.576   5.143   1.172
 4426SOL     OW13837   2.190   4.277   1.291
 4426SOL    HW113838   2.246   4.223   1.346
 4426SOL    HW213839   2.211   4.250   1.202
 4427SOL     OW13840   3.294   3.948   1.118
 4427SOL    HW113841   3.322   3.870   1.166
 4427SOL    HW213842   3.242   3.997   1.181
 4428SOL     OW13843   2.870   3.744   1.144
 4428SOL    HW113844   2.816   3.675   1.106
 4428SOL    HW213845   2.958   3.706   1.146
 4429SOL     OW13846   2.655   5.040   0.283
 4429SOL    HW113847   2.599   4.967   0.308
 4429SOL    HW213848   2.714   5.051   0.358
 4430SOL     OW13849   2.483   5.298   1.289
 4430SOL    HW113850   2.491   0.054   1.366
 4430SOL    HW213851   2.574   5.279   1.263
 4431SOL     OW13852   3.218   3.779   0.183
 4431SOL    HW113853   3.241   3.731   0.103
 4431SOL    HW213854   3.133   3.744   0.209
 4432SOL     OW13855   3.159   4.184   0.682
 4432SOL    HW113856   3.106   4.263   0.690
 4432SOL    HW213857   3.156   4.144   0.769
 4433SOL     OW13858   3.449   3.928   0.877
 4433SOL    HW113859   3.386   3.947   0.947
 4433SOL    HW213860   3.448   4.006   0.822
 4434SOL     OW13861   1.902   4.792   0.302
 4434SOL    HW113862   1.998   4.794   0.305
 4434SOL    HW213863   1.879   4.709   0.343
 4435SOL     OW13864   2.092   4.347   1.984
 4435SOL    HW113865   2.002   4.347   2.017
 4435SOL    HW213866   2.084   4.321   1.892
 4436SOL     OW13867   2.086   4.004   2.853
 4436SOL    HW113868   2.115   3.971   2.938
 4436SOL    HW213869   1.997   3.972   2.844
 4437SOL     OW13870   1.867   4.106   2.501
 4437SOL    HW113871   1.784   4.130   2.541
 4437SOL    HW213872   1.847   4.026   2.451
 4438SOL     OW13873   2.428   5.003   3.038
 4438SOL    HW113874   2.342   5.002   2.995
 4438SOL    HW213875   2.439   5.094   3.067
 4439SOL     OW13876   3.416   5.231   2.551
 4439SOL    HW113877   3.393   5.229   2.644
 4439SOL    HW213878   3.338   5.267   2.508
 4440SOL     OW13879   2.991   4.423   2.565
 4440SOL    HW113880   3.041   4.503   2.550
 4440SOL    HW213881   2.945   4.438   2.647
 4441SOL     OW13882   3.627   4.331   2.092
 4441SOL    HW113883   3.607   4.322   1.998
 4441SOL    HW213884   3.592   4.250   2.131
 4442SOL     OW13885   2.620   4.869   2.899
 4442SOL    HW113886   2.552   4.900   2.958
 4442SOL    HW213887   2.649   4.948   2.853
 4443SOL     OW13888   2.725   4.502   3.683
 4443SOL    HW113889   2.713   4.574   3.745
 4443SOL    HW213890   2.750   4.546   3.601
 4444SOL     OW13891   2.548   4.729   2.511
 4444SOL    HW113892   2.612   4.716   2.581
 4444SOL    HW213893   2.479   4.781   2.551
 4445SOL     OW13894   2.570   4.874   3.671
 4445SOL    HW113895   2.617   4.953   3.696
 4445SOL    HW213896   2.486   4.905   3.638
 4446SOL     OW13897   2.199   5.154   2.923
 4446SOL    HW113898   2.123   5.110   2.885
 4446SOL    HW213899   2.241   5.198   2.849
 4447SOL     OW13900   3.318   5.220   3.208
 4447SOL    HW113901   3.370   5.293   3.240
 4447SOL    HW213902   3.252   5.206   3.276
 4448SOL     OW13903   2.309   4.122   3.351
 4448SOL    HW113904   2.385   4.063   3.356
 4448SOL    HW213905   2.233   4.065   3.363
 4449SOL     OW13906   3.475   4.173   2.602
 4449SOL    HW113907   3.399   4.198   2.548
 4449SOL    HW213908   3.494   4.251   2.654
 4450SOL     OW13909   2.995   5.071   3.561
 4450SOL    HW113910   3.027   5.071   3.651
 4450SOL    HW213911   2.942   4.992   3.554
 4451SOL     OW13912   2.073   5.154   2.382
 4451SOL    HW113913   2.096   5.238   2.421
 4451SOL    HW213914   2.019   5.111   2.448
 4452SOL     OW13915   2.118   4.812   2.753
 4452SOL    HW113916   2.115   4.725   2.794
 4452SOL    HW213917   2.060   4.865   2.808
 4453SOL     OW13918   2.449   4.704   1.995
 4453SOL    HW113919   2.494   4.755   1.927
 4453SOL    HW213920   2.489   4.734   2.076
 4454SOL     OW13921   3.457   3.846   3.331
 4454SOL    HW113922   3.462   3.926   3.279
 4454SOL    HW213923   3.445   3.877   3.421
 4455SOL     OW13924   1.977   4.375   2.421
 4455SOL    HW113925   1.947   4.287   2.442
 4455SOL    HW213926   1.968   4.424   2.504
 4456SOL     OW13927   1.849   0.014   1.962
 4456SOL    HW113928   1.866   5.225   1.991
 4456SOL    HW213929   1.871   0.069   2.037
 4457SOL     OW13930   3.551   4.642   2.500
 4457SOL    HW113931   3.635   4.602   2.482
 4457SOL    HW213932   3.530   4.693   2.422
 4458SOL     OW13933   3.507   4.832   2.292
 4458SOL    HW113934   3.592   4.838   2.248
 4458SOL    HW213935   3.513   4.892   2.366
 4459SOL     OW13936   1.984   4.466   3.449
 4459SOL    HW113937   2.076   4.489   3.460
 4459SOL    HW213938   1.937   4.549   3.456
 4460SOL     OW13939   2.483   5.097   2.597
 4460SOL    HW113940   2.429   5.018   2.597
 4460SOL    HW213941   2.464   5.139   2.513
 4461SOL     OW13942   3.151   4.956   3.288
 4461SOL    HW113943   3.187   4.890   3.227
 4461SOL    HW213944   3.210   4.953   3.363
 4462SOL     OW13945   2.675   3.724   2.367
 4462SOL    HW113946   2.715   3.809   2.351
 4462SOL    HW213947   2.582   3.743   2.378
 4463SOL     OW13948   2.053   4.692   3.131
 4463SOL    HW113949   2.137   4.648   3.116
 4463SOL    HW213950   1.989   4.636   3.087
 4464SOL     OW13951   3.393   4.717   2.058
 4464SOL    HW113952   3.324   4.659   2.089
 4464SOL    HW213953   3.434   4.751   2.138
 4465SOL     OW13954   2.192   3.976   3.670
 4465SOL    HW113955   2.239   4.058   3.686
 4465SOL    HW213956   2.104   3.991   3.703
 4466SOL     OW13957   3.337   5.146   2.824
 4466SOL    HW113958   3.264   5.158   2.885
 4466SOL    HW213959   3.324   5.057   2.790
 4467SOL     OW13960   2.458   4.446   2.127
 4467SOL    HW113961   2.466   4.527   2.075
 4467SOL    HW213962   2.393   4.467   2.194
 4468SOL     OW13963   3.141   4.074   2.794
 4468SOL    HW113964   3.052   4.041   2.802
 4468SOL    HW213965   3.192   4.021   2.856
 4469SOL     OW13966   2.655   4.341   3.314
 4469SOL    HW113967   2.628   4.318   3.403
 4469SOL    HW213968   2.613   4.275   3.259
 4470SOL     OW13969   3.255   4.197   3.540
 4470SOL    HW113970   3.257   4.242   3.624
 4470SOL    HW213971   3.318   4.126   3.549
 4471SOL     OW13972   2.818   4.612   3.443
 4471SOL    HW113973   2.873   4.542   3.409
 4471SOL    HW213974   2.771   4.646   3.367
 4472SOL     OW13975   2.854   4.136   3.102
 4472SOL    HW113976   2.770   4.160   3.140
 4472SOL    HW213977   2.831   4.091   3.020
 4473SOL     OW13978   2.912   4.422   2.289
 4473SOL    HW113979   2.927   4.416   2.383
 4473SOL    HW213980   2.830   4.376   2.274
 4474SOL     OW13981   1.950   4.544   2.638
 4474SOL    HW113982   2.032   4.537   2.688
 4474SOL    HW213983   1.907   4.622   2.673
 4475SOL     OW13984   2.752   4.071   2.056
 4475SOL    HW113985   2.794   4.133   1.996
 4475SOL    HW213986   2.769   3.985   2.019
 4476SOL     OW13987   3.572   4.300   3.690
 4476SOL    HW113988   3.534   4.375   3.643
 4476SOL    HW213989   3.598   4.239   3.621
 4477SOL     OW13990   3.238   4.864   2.402
 4477SOL    HW113991   3.319   4.850   2.353
 4477SOL    HW213992   3.187   4.926   2.349
 4478SOL     OW13993   2.412   3.908   2.753
 4478SOL    HW113994   2.414   3.936   2.845
 4478SOL    HW213995   2.413   3.990   2.703
 4479SOL     OW13996   2.885   5.172   2.331
 4479SOL    HW113997   2.806   5.225   2.322
 4479SOL    HW213998   2.897   5.164   2.425
 4480SOL     OW13999   3.661   4.782   2.728
 4480SOL    HW114000   3.604   4.767   2.654
 4480SOL    HW214001   3.602   4.789   2.803
 4481SOL     OW14002   3.112   5.239   3.384
 4481SOL    HW114003   3.075   5.173   3.443
 4481SOL    HW214004   3.042   5.257   3.321
 4482SOL     OW14005   2.183   4.679   2.111
 4482SOL    HW114006   2.265   4.699   2.066
 4482SOL    HW214007   2.153   4.598   2.071
 4483SOL     OW14008   3.338   4.464   2.590
 4483SOL    HW114009   3.329   4.420   2.674
 4483SOL    HW214010   3.416   4.519   2.600
 4484SOL     OW14011   2.326   4.987   3.601
 4484SOL    HW114012   2.299   4.990   3.510
 4484SOL    HW214013   2.244   4.986   3.651
 4485SOL     OW14014   2.940   0.184   2.072
 4485SOL    HW114015   2.936   0.108   2.130
 4485SOL    HW214016   2.972   0.149   1.989
 4486SOL     OW14017   2.062   4.006   3.362
 4486SOL    HW114018   1.981   4.057   3.355
 4486SOL    HW214019   2.045   3.944   3.433
 4487SOL     OW14020   3.486   5.099   1.967
 4487SOL    HW114021   3.478   5.179   1.915
 4487SOL    HW214022   3.417   5.042   1.934
 4488SOL     OW14023   3.263   3.832   2.293
 4488SOL    HW114024   3.252   3.807   2.201
 4488SOL    HW214025   3.358   3.839   2.305
 4489SOL     OW14026   2.253   4.419   2.340
 4489SOL    HW114027   2.276   4.327   2.350
 4489SOL    HW214028   2.159   4.423   2.357
 4490SOL     OW14029   3.399   3.949   3.587
 4490SOL    HW114030   3.408   3.971   3.680
 4490SOL    HW214031   3.330   3.883   3.584
 4491SOL     OW14032   2.493   3.847   1.969
 4491SOL    HW114033   2.567   3.787   1.979
 4491SOL    HW214034   2.446   3.815   1.892
 4492SOL     OW14035   2.629   4.000   3.614
 4492SOL    HW114036   2.703   3.940   3.619
 4492SOL    HW214037   2.580   3.984   3.695
 4493SOL     OW14038   3.203   4.312   3.294
 4493SOL    HW114039   3.234   4.281   3.379
 4493SOL    HW214040   3.239   4.401   3.286
 4494SOL     OW14041   2.673   5.122   2.796
 4494SOL    HW114042   2.754   5.107   2.747
 4494SOL    HW214043   2.605   5.127   2.728
 4495SOL     OW14044   2.789   4.233   2.766
 4495SOL    HW114045   2.766   4.225   2.673
 4495SOL    HW214046   2.822   4.146   2.790
 4496SOL     OW14047   2.410   3.787   2.366
 4496SOL    HW114048   2.329   3.788   2.417
 4496SOL    HW214049   2.404   3.866   2.312
 4497SOL     OW14050   3.290   4.923   1.901
 4497SOL    HW114051   3.321   4.848   1.951
 4497SOL    HW214052   3.202   4.940   1.936
 4498SOL     OW14053   2.154   3.771   2.046
 4498SOL    HW114054   2.213   3.836   2.007
 4498SOL    HW214055   2.213   3.707   2.087
 4499SOL     OW14056   2.799   3.969   2.324
 4499SOL    HW114057   2.771   4.011   2.243
 4499SOL    HW214058   2.894   3.982   2.327
 4500SOL     OW14059   2.942   4.404   3.322
 4500SOL    HW114060   2.872   4.338   3.327
 4500SOL    HW214061   3.023   4.353   3.315
 4501SOL     OW14062   3.126   5.268   2.642
 4501SOL    HW114063   3.089   0.050   2.611
 4501SOL    HW214064   3.169   5.290   2.724
 4502SOL     OW14065   2.327   4.871   2.595
 4502SOL    HW114066   2.257   4.852   2.658
 4502SOL    HW214067   2.288   4.853   2.510
 4503SOL     OW14068   2.886   4.268   1.883
 4503SOL    HW114069   2.844   4.351   1.862
 4503SOL    HW214070   2.952   4.289   1.950
 4504SOL     OW14071   1.940   4.279   3.254
 4504SOL    HW114072   2.031   4.277   3.226
 4504SOL    HW214073   1.935   4.349   3.319
 4505SOL     OW14074   2.422   3.952   3.026
 4505SOL    HW114075   2.462   3.872   3.060
 4505SOL    HW214076   2.331   3.948   3.056
 4506SOL     OW14077   2.730   4.183   2.502
 4506SOL    HW114078   2.685   4.238   2.438
 4506SOL    HW214079   2.751   4.103   2.455
 4507SOL     OW14080   2.875   3.777   2.616
 4507SOL    HW114081   2.819   3.768   2.539
 4507SOL    HW214082   2.856   3.699   2.668
 4508SOL     OW14083   3.298   4.890   2.721
 4508SOL    HW114084   3.232   4.820   2.716
 4508SOL    HW214085   3.323   4.904   2.630
 4509SOL     OW14086   3.329   4.328   2.842
 4509SOL    HW114087   3.281   4.245   2.845
 4509SOL    HW214088   3.389   4.323   2.915
 4510SOL     OW14089   3.709   4.541   2.244
 4510SOL    HW114090   3.765   4.489   2.302
 4510SOL    HW214091   3.679   4.479   2.177
 4511SOL     OW14092   2.346   5.143   2.019
 4511SOL    HW114093   2.281   5.093   2.069
 4511SOL    HW214094   2.340   5.108   1.930
 4512SOL     OW14095   3.530   4.987   2.510
 4512SOL    HW114096   3.624   4.994   2.527
 4512SOL    HW214097   3.496   5.075   2.527
 4513SOL     OW14098   3.256   4.296   1.933
 4513SOL    HW114099   3.196   4.276   2.005
 4513SOL    HW214100   3.341   4.263   1.963
 4514SOL     OW14101   2.388   3.987   2.182
 4514SOL    HW114102   2.430   3.938   2.112
 4514SOL    HW214103   2.367   4.072   2.144
 4515SOL     OW14104   3.614   4.959   3.440
 4515SOL    HW114105   3.701   4.918   3.439
 4515SOL    HW214106   3.632   5.052   3.455
 4516SOL     OW14107   2.927   5.075   3.194
 4516SOL    HW114108   2.849   5.049   3.243
 4516SOL    HW214109   3.000   5.035   3.241
 4517SOL     OW14110   2.986   4.924   2.970
 4517SOL    HW114111   2.935   4.966   3.040
 4517SOL    HW214112   2.943   4.952   2.889
 4518SOL     OW14113   3.492   4.823   2.939
 4518SOL    HW114114   3.488   4.885   3.013
 4518SOL    HW214115   3.413   4.841   2.889
 4519SOL     OW14116   2.780   3.825   3.258
 4519SOL    HW114117   2.803   3.806   3.167
 4519SOL    HW214118   2.858   3.866   3.295
 4520SOL     OW14119   2.846   4.839   3.586
 4520SOL    HW114120   2.754   4.854   3.604
 4520SOL    HW214121   2.847   4.762   3.529
 4521SOL     OW14122   2.566   4.781   2.234
 4521SOL    HW114123   2.555   4.767   2.328
 4521SOL    HW214124   2.645   4.731   2.212
 4522SOL     OW14125   2.279   4.538   3.113
 4522SOL    HW114126   2.348   4.547   3.179
 4522SOL    HW214127   2.244   4.450   3.128
 4523SOL     OW14128   3.128   4.101   3.136
 4523SOL    HW114129   3.161   4.179   3.182
 4523SOL    HW214130   3.039   4.124   3.112
 4524SOL     OW14131   2.212   4.831   2.352
 4524SOL    HW114132   2.216   4.904   2.291
 4524SOL    HW214133   2.212   4.753   2.297
 4525SOL     OW14134   2.416   4.262   2.723
 4525SOL    HW114135   2.432   4.319   2.648
 4525SOL    HW214136   2.480   4.289   2.788
 4526SOL     OW14137   3.121   5.075   2.248
 4526SOL    HW114138   3.176   5.144   2.285
 4526SOL    HW214139   3.032   5.098   2.277
 4527SOL     OW14140   3.130   5.180   3.004
 4527SOL    HW114141   3.189   5.194   3.078
 4527SOL    HW214142   3.086   5.098   3.023
 4528SOL     OW14143   3.444   4.348   2.340
 4528SOL    HW114144   3.399   4.404   2.403
 4528SOL    HW214145   3.490   4.409   2.282
 4529SOL     OW14146   2.210   5.235   3.178
 4529SOL    HW114147   2.199   5.201   3.090
 4529SOL    HW214148   2.303   5.257   3.184
 4530SOL     OW14149   2.275   4.469   3.464
 4530SOL    HW114150   2.336   4.514   3.406
 4530SOL    HW214151   2.316   4.384   3.480
 4531SOL     OW14152   3.461   4.502   3.542
 4531SOL    HW114153   3.375   4.543   3.535
 4531SOL    HW214154   3.513   4.544   3.474
 4532SOL     OW14155   2.858   3.846   3.617
 4532SOL    HW114156   2.912   3.919   3.588
 4532SOL    HW214157   2.911   3.768   3.597
 4533SOL     OW14158   2.359   3.770   3.608
 4533SOL    HW114159   2.317   3.718   3.540
 4533SOL    HW214160   2.300   3.844   3.622
 4534SOL     OW14161   2.445   4.596   2.893
 4534SOL    HW114162   2.474   4.687   2.890
 4534SOL    HW214163   2.388   4.592   2.970
 4535SOL     OW14164   3.221   4.582   2.893
 4535SOL    HW114165   3.140   4.574   2.844
 4535SOL    HW214166   3.260   4.495   2.890
 4536SOL     OW14167   3.068   4.253   2.130
 4536SOL    HW114168   3.076   4.174   2.185
 4536SOL    HW214169   3.026   4.317   2.187
 4537SOL     OW14170   2.161   3.920   3.108
 4537SOL    HW114171   2.125   3.956   3.189
 4537SOL    HW214172   2.137   3.828   3.110
 4538SOL     OW14173   1.912   5.045   3.146
 4538SOL    HW114174   1.939   4.983   3.213
 4538SOL    HW214175   1.948   5.129   3.176
 4539SOL     OW14176   2.587   4.356   2.921
 4539SOL    HW114177   2.661   4.339   2.863
 4539SOL    HW214178   2.559   4.444   2.900
 4540SOL     OW14179   3.596   4.683   3.713
 4540SOL    HW114180   3.549   4.625   3.654
 4540SOL    HW214181   3.536   4.696   3.787
 4541SOL     OW14182   2.164   3.789   2.485
 4541SOL    HW114183   2.146   3.880   2.509
 4541SOL    HW214184   2.171   3.743   2.569
 4542SOL     OW14185   3.476   4.097   2.230
 4542SOL    HW114186   3.504   4.033   2.297
 4542SOL    HW214187   3.454   4.175   2.280
 4543SOL     OW14188   2.889   4.483   2.823
 4543SOL    HW114189   2.888   4.501   2.918
 4543SOL    HW214190   2.863   4.392   2.816
 4544SOL     OW14191   3.717   5.215   3.449
 4544SOL    HW114192   3.716   5.287   3.386
 4544SOL    HW214193   3.785   5.238   3.511
 4545SOL     OW14194   2.215   4.640   3.670
 4545SOL    HW114195   2.297   4.659   3.715
 4545SOL    HW214196   2.239   4.578   3.602
 4546SOL     OW14197   3.392   3.997   1.989
 4546SOL    HW114198   3.328   3.932   2.016
 4546SOL    HW214199   3.425   4.033   2.072
 4547SOL     OW14200   3.156   4.551   1.894
 4547SOL    HW114201   3.198   4.465   1.897
 4547SOL    HW214202   3.186   4.590   1.812
 4548SOL     OW14203   2.920   5.076   2.691
 4548SOL    HW114204   2.926   4.992   2.647
 4548SOL    HW214205   3.006   5.116   2.677
 4549SOL     OW14206   2.172   4.534   2.810
 4549SOL    HW114207   2.265   4.555   2.803
 4549SOL    HW214208   2.170   4.444   2.844
 4550SOL     OW14209   2.195   4.248   2.874
 4550SOL    HW114210   2.159   4.161   2.858
 4550SOL    HW214211   2.271   4.254   2.816
 4551SOL     OW14212   2.996   4.101   3.543
 4551SOL    HW114213   2.950   4.156   3.605
 4551SOL    HW214214   3.084   4.138   3.539
 4552SOL     OW14215   3.021   3.928   3.330
 4552SOL    HW114216   3.013   3.990   3.403
 4552SOL    HW214217   3.061   3.980   3.260
 4553SOL     OW14218   1.869   5.043   2.053
 4553SOL    HW114219   1.779   5.059   2.025
 4553SOL    HW214220   1.866   4.954   2.090
 4554SOL     OW14221   2.848   4.517   3.090
 4554SOL    HW114222   2.902   4.493   3.164
 4554SOL    HW214223   2.761   4.481   3.110
 4555SOL     OW14224   1.898   4.267   2.979
 4555SOL    HW114225   1.978   4.252   2.930
 4555SOL    HW214226   1.926   4.273   3.070
 4556SOL     OW14227   2.053   4.242   3.588
 4556SOL    HW114228   2.111   4.207   3.521
 4556SOL    HW214229   2.008   4.315   3.545
 4557SOL     OW14230   3.238   4.664   3.521
 4557SOL    HW114231   3.258   4.758   3.519
 4557SOL    HW214232   3.235   4.639   3.428
 4558SOL     OW14233   2.677   4.293   2.220
 4558SOL    HW114234   2.681   4.218   2.160
 4558SOL    HW214235   2.603   4.345   2.189
 4559SOL     OW14236   3.505   4.325   3.050
 4559SOL    HW114237   3.494   4.266   3.124
 4559SOL    HW214238   3.591   4.305   3.015
 4560SOL     OW14239   2.069   5.278   3.606
 4560SOL    HW114240   2.058   0.031   3.685
 4560SOL    HW214241   2.081   5.189   3.639
 4561SOL     OW14242   2.559   4.176   3.123
 4561SOL    HW114243   2.508   4.102   3.091
 4561SOL    HW214244   2.557   4.239   3.051
 4562SOL     OW14245   2.328   4.217   2.050
 4562SOL    HW114246   2.386   4.290   2.071
 4562SOL    HW214247   2.242   4.257   2.038
 4563SOL     OW14248   2.009   4.863   3.332
 4563SOL    HW114249   2.012   4.811   3.412
 4563SOL    HW214250   2.026   4.801   3.262
 4564SOL     OW14251   3.191   4.771   3.086
 4564SOL    HW114252   3.214   4.708   3.017
 4564SOL    HW214253   3.118   4.821   3.049
 4565SOL     OW14254   3.171   4.581   2.169
 4565SOL    HW114255   3.095   4.550   2.218
 4565SOL    HW214256   3.148   4.567   2.077
 4566SOL     OW14257   1.954   4.986   2.883
 4566SOL    HW114258   1.933   5.002   2.975
 4566SOL    HW214259   1.874   4.947   2.847
 4567SOL     OW14260   2.612   0.041   3.571
 4567SOL    HW114261   2.519   0.063   3.582
 4567SOL    HW214262   2.631   0.063   3.480
 4568SOL     OW14263   3.581   3.868   2.373
 4568SOL    HW114264   3.654   3.854   2.313
 4568SOL    HW214265   3.565   3.782   2.413
 4569SOL     OW14266   3.139   4.649   2.533
 4569SOL    HW114267   3.212   4.587   2.539
 4569SOL    HW214268   3.173   4.721   2.481
 4570SOL     OW14269   2.683   4.994   3.287
 4570SOL    HW114270   2.655   5.030   3.371
 4570SOL    HW214271   2.607   5.006   3.230
 4571SOL     OW14272   3.702   3.897   2.829
 4571SOL    HW114273   3.731   3.811   2.801
 4571SOL    HW214274   3.616   3.908   2.789
 4572SOL     OW14275   2.125   4.041   2.580
 4572SOL    HW114276   2.040   4.077   2.555
 4572SOL    HW214277   2.121   4.032   2.675
 4573SOL     OW14278   2.686   4.729   3.232
 4573SOL    HW114279   2.732   4.724   3.148
 4573SOL    HW214280   2.690   4.821   3.256
 4574SOL     OW14281   2.778   4.635   2.152
 4574SOL    HW114282   2.839   4.667   2.086
 4574SOL    HW214283   2.825   4.564   2.196
 4575SOL     OW14284   2.228   5.025   3.357
 4575SOL    HW114285   2.217   5.100   3.299
 4575SOL    HW214286   2.152   4.969   3.340
 4576SOL     OW14287   3.474   5.004   3.144
 4576SOL    HW114288   3.532   4.999   3.221
 4576SOL    HW214289   3.413   5.074   3.165
 4577SOL     OW14290   2.913   4.832   2.572
 4577SOL    HW114291   2.841   4.781   2.609
 4577SOL    HW214292   2.974   4.767   2.537
 4578SOL     OW14293   2.882   3.965   2.828
 4578SOL    HW114294   2.877   3.916   2.745
 4578SOL    HW214295   2.877   3.897   2.895
 4579SOL     OW14296   3.582   4.116   3.242
 4579SOL    HW114297   3.654   4.179   3.241
 4579SOL    HW214298   3.612   4.044   3.186
 4580SOL     OW14299   2.120   5.055   2.143
 4580SOL    HW114300   2.028   5.057   2.117
 4580SOL    HW214301   2.121   5.096   2.230
 4581SOL     OW14302   1.974   4.743   3.580
 4581SOL    HW114303   1.898   4.721   3.634
 4581SOL    HW214304   2.049   4.707   3.628
 4582SOL     OW14305   2.535   3.919   3.361
 4582SOL    HW114306   2.619   3.904   3.318
 4582SOL    HW214307   2.557   3.950   3.449
 4583SOL     OW14308   1.939   4.060   1.898
 4583SOL    HW114309   1.852   4.039   1.864
 4583SOL    HW214310   1.969   4.134   1.845
 4584SOL     OW14311   3.293   4.582   3.263
 4584SOL    HW114312   3.245   4.642   3.207
 4584SOL    HW214313   3.383   4.585   3.230
 4585SOL     OW14314   1.931   3.881   2.174
 4585SOL    HW114315   1.917   3.961   2.123
 4585SOL    HW214316   2.016   3.849   2.144
 4586SOL     OW14317   3.044   5.065   1.982
 4586SOL    HW114318   2.953   5.037   1.982
 4586SOL    HW214319   3.072   5.057   2.073
 4587SOL     OW14320   2.481   4.555   3.295
 4587SOL    HW114321   2.536   4.631   3.279
 4587SOL    HW214322   2.542   4.482   3.303
 4588SOL     OW14323   2.579   4.288   3.567
 4588SOL    HW114324   2.617   4.352   3.627
 4588SOL    HW214325   2.612   4.204   3.598
 4589SOL     OW14326   3.334   4.925   3.494
 4589SOL    HW114327   3.321   4.937   3.588
 4589SOL    HW214328   3.428   4.938   3.481
 4590SOL     OW14329   3.533   4.606   3.117
 4590SOL    HW114330   3.525   4.521   3.074
 4590SOL    HW214331   3.523   4.669   3.046
 4591SOL     OW14332   3.079   4.043   2.320
 4591SOL    HW114333   3.143   3.972   2.311
 4591SOL    HW214334   3.109   4.092   2.397
 4592SOL     OW14335   2.453   4.463   2.530
 4592SOL    HW114336   2.492   4.549   2.514
 4592SOL    HW214337   2.384   4.456   2.464
 4593SOL     OW14338   3.626   4.084   3.512
 4593SOL    HW114339   3.609   4.099   3.419
 4593SOL    HW214340   3.555   4.028   3.541
 4594SOL     OW14341   3.605   4.657   3.374
 4594SOL    HW114342   3.606   4.752   3.388
 4594SOL    HW214343   3.591   4.646   3.281
 4595SOL     OW14344   2.712   5.095   1.881
 4595SOL    HW114345   2.691   5.097   1.974
 4595SOL    HW214346   2.732   5.186   1.859
 4596SOL     OW14347   2.729   4.690   2.718
 4596SOL    HW114348   2.779   4.619   2.758
 4596SOL    HW214349   2.695   4.741   2.792
 4597SOL     OW14350   2.942   4.713   1.951
 4597SOL    HW114351   2.920   4.762   1.873
 4597SOL    HW214352   3.017   4.659   1.925
 4598SOL     OW14353   2.086   5.025   3.715
 4598SOL    HW114354   2.017   4.964   3.690
 4598SOL    HW214355   2.074   5.038   3.809
 4599SOL     OW14356   1.947   4.957   2.532
 4599SOL    HW114357   1.946   4.903   2.611
 4599SOL    HW214358   2.011   4.915   2.475
 4600SOL     OW14359   2.531   5.110   3.470
 4600SOL    HW114360   2.456   5.073   3.518
 4600SOL    HW214361   2.560   5.183   3.524
 4601SOL     OW14362   3.674   3.908   3.100
 4601SOL    HW114363   3.687   3.815   3.115
 4601SOL    HW214364   3.684   3.919   3.005
 4602SOL     OW14365   2.292   4.158   2.387
 4602SOL    HW114366   2.321   4.087   2.330
 4602SOL    HW214367   2.244   4.114   2.458
 4603SOL     OW14368   3.569   5.222   2.981
 4603SOL    HW114369   3.495   5.206   2.923
 4603SOL    HW214370   3.576   5.143   3.034
 4604SOL     OW14371   2.190   4.277   3.153
 4604SOL    HW114372   2.246   4.223   3.208
 4604SOL    HW214373   2.211   4.250   3.063
 4605SOL     OW14374   3.293   3.948   2.980
 4605SOL    HW114375   3.324   3.871   3.027
 4605SOL    HW214376   3.242   3.997   3.044
 4606SOL     OW14377   2.870   3.742   3.006
 4606SOL    HW114378   2.820   3.680   2.952
 4606SOL    HW214379   2.958   3.706   3.009
 4607SOL     OW14380   2.663   5.048   2.146
 4607SOL    HW114381   2.600   4.978   2.164
 4607SOL    HW214382   2.718   5.051   2.225
 4608SOL     OW14383   2.483   5.299   3.151
 4608SOL    HW114384   2.491   0.055   3.228
 4608SOL    HW214385   2.574   5.279   3.126
 4609SOL     OW14386   3.214   3.778   2.026
 4609SOL    HW114387   3.241   3.717   1.958
 4609SOL    HW214388   3.127   3.747   2.053
 4610SOL     OW14389   3.159   4.184   2.544
 4610SOL    HW114390   3.105   4.263   2.552
 4610SOL    HW214391   3.156   4.144   2.631
 4611SOL     OW14392   3.449   3.928   2.739
 4611SOL    HW114393   3.386   3.947   2.808
 4611SOL    HW214394   3.449   4.007   2.684
 4612SOL     OW14395   1.904   4.796   2.168
 4612SOL    HW114396   1.998   4.789   2.151
 4612SOL    HW214397   1.877   4.707   2.191
 4613SOL     OW14398   2.092   4.347   3.846
 4613SOL    HW114399   2.002   4.347   3.879
 4613SOL    HW214400   2.083   4.321   3.754
 4614SOL     OW14401   2.087   4.004   4.715
 4614SOL    HW114402   2.115   3.971   4.801
 4614SOL    HW214403   1.997   3.972   4.706
 4615SOL     OW14404   1.867   4.106   4.362
 4615SOL    HW114405   1.784   4.131   4.403
 4615SOL    HW214406   1.847   4.026   4.313
 4616SOL     OW14407   2.428   5.003   4.900
 4616SOL    HW114408   2.342   5.002   4.857
 4616SOL    HW214409   2.439   5.094   4.929
 4617SOL     OW14410   3.416   5.231   4.413
 4617SOL    HW114411   3.393   5.229   4.506
 4617SOL    HW214412   3.338   5.267   4.370
 4618SOL     OW14413   2.991   4.422   4.427
 4618SOL    HW114414   3.042   4.503   4.412
 4618SOL    HW214415   2.945   4.438   4.509
 4619SOL     OW14416   3.626   4.331   3.954
 4619SOL    HW114417   3.607   4.322   3.860
 4619SOL    HW214418   3.593   4.250   3.993
 4620SOL     OW14419   2.620   4.869   4.761
 4620SOL    HW114420   2.552   4.900   4.820
 4620SOL    HW214421   2.649   4.948   4.715
 4621SOL     OW14422   2.725   4.502   5.545
 4621SOL    HW114423   2.713   4.574   5.608
 4621SOL    HW214424   2.750   4.546   5.463
 4622SOL     OW14425   2.548   4.729   4.373
 4622SOL    HW114426   2.612   4.716   4.443
 4622SOL    HW214427   2.479   4.781   4.413
 4623SOL     OW14428   2.570   4.874   5.533
 4623SOL    HW114429   2.618   4.953   5.558
 4623SOL    HW214430   2.486   4.905   5.500
 4624SOL     OW14431   2.199   5.154   4.785
 4624SOL    HW114432   2.123   5.111   4.747
 4624SOL    HW214433   2.241   5.198   4.711
 4625SOL     OW14434   3.318   5.220   5.070
 4625SOL    HW114435   3.370   5.293   5.102
 4625SOL    HW214436   3.252   5.206   5.138
 4626SOL     OW14437   2.309   4.123   5.213
 4626SOL    HW114438   2.385   4.065   5.218
 4626SOL    HW214439   2.234   4.065   5.225
 4627SOL     OW14440   3.475   4.173   4.464
 4627SOL    HW114441   3.400   4.198   4.410
 4627SOL    HW214442   3.494   4.251   4.516
 4628SOL     OW14443   2.995   5.071   5.423
 4628SOL    HW114444   3.027   5.072   5.513
 4628SOL    HW214445   2.942   4.992   5.416
 4629SOL     OW14446   2.073   5.154   4.244
 4629SOL    HW114447   2.096   5.238   4.283
 4629SOL    HW214448   2.019   5.111   4.310
 4630SOL     OW14449   2.118   4.812   4.615
 4630SOL    HW114450   2.115   4.725   4.656
 4630SOL    HW214451   2.060   4.865   4.670
 4631SOL     OW14452   2.450   4.704   3.856
 4631SOL    HW114453   2.494   4.755   3.789
 4631SOL    HW214454   2.489   4.734   3.938
 4632SOL     OW14455   3.457   3.846   5.193
 4632SOL    HW114456   3.462   3.927   5.141
 4632SOL    HW214457   3.445   3.876   5.283
 4633SOL     OW14458   1.977   4.375   4.283
 4633SOL    HW114459   1.947   4.287   4.304
 4633SOL    HW214460   1.968   4.424   4.366
 4634SOL     OW14461   1.849   0.014   3.824
 4634SOL    HW114462   1.866   5.225   3.853
 4634SOL    HW214463   1.871   0.069   3.899
 4635SOL     OW14464   3.550   4.642   4.362
 4635SOL    HW114465   3.635   4.602   4.344
 4635SOL    HW214466   3.530   4.693   4.284
 4636SOL     OW14467   3.507   4.832   4.154
 4636SOL    HW114468   3.592   4.838   4.110
 4636SOL    HW214469   3.513   4.892   4.228
 4637SOL     OW14470   1.984   4.466   5.311
 4637SOL    HW114471   2.076   4.489   5.322
 4637SOL    HW214472   1.937   4.549   5.318
 4638SOL     OW14473   2.483   5.096   4.459
 4638SOL    HW114474   2.429   5.018   4.459
 4638SOL    HW214475   2.463   5.139   4.375
 4639SOL     OW14476   3.151   4.955   5.150
 4639SOL    HW114477   3.187   4.890   5.089
 4639SOL    HW214478   3.210   4.953   5.225
 4640SOL     OW14479   2.677   3.725   4.230
 4640SOL    HW114480   2.715   3.811   4.212
 4640SOL    HW214481   2.583   3.742   4.240
 4641SOL     OW14482   2.053   4.692   4.993
 4641SOL    HW114483   2.137   4.648   4.978
 4641SOL    HW214484   1.989   4.636   4.949
 4642SOL     OW14485   3.393   4.717   3.920
 4642SOL    HW114486   3.324   4.659   3.951
 4642SOL    HW214487   3.434   4.751   4.000
 4643SOL     OW14488   2.192   3.975   5.530
 4643SOL    HW114489   2.240   4.056   5.548
 4643SOL    HW214490   2.104   3.990   5.565
 4644SOL     OW14491   3.337   5.146   4.686
 4644SOL    HW114492   3.264   5.158   4.747
 4644SOL    HW214493   3.324   5.057   4.652
 4645SOL     OW14494   2.458   4.446   3.989
 4645SOL    HW114495   2.466   4.527   3.937
 4645SOL    HW214496   2.393   4.467   4.056
 4646SOL     OW14497   3.141   4.073   4.656
 4646SOL    HW114498   3.052   4.041   4.665
 4646SOL    HW214499   3.192   4.021   4.719
 4647SOL     OW14500   2.655   4.341   5.176
 4647SOL    HW114501   2.628   4.318   5.265
 4647SOL    HW214502   2.613   4.275   5.121
 4648SOL     OW14503   3.255   4.197   5.402
 4648SOL    HW114504   3.257   4.242   5.486
 4648SOL    HW214505   3.319   4.126   5.411
 4649SOL     OW14506   2.818   4.612   5.305
 4649SOL    HW114507   2.873   4.542   5.271
 4649SOL    HW214508   2.771   4.646   5.229
 4650SOL     OW14509   2.854   4.136   4.964
 4650SOL    HW114510   2.771   4.160   5.003
 4650SOL    HW214511   2.830   4.091   4.882
 4651SOL     OW14512   2.912   4.422   4.150
 4651SOL    HW114513   2.927   4.416   4.245
 4651SOL    HW214514   2.830   4.376   4.136
 4652SOL     OW14515   1.950   4.544   4.500
 4652SOL    HW114516   2.032   4.537   4.550
 4652SOL    HW214517   1.907   4.622   4.535
 4653SOL     OW14518   2.752   4.071   3.919
 4653SOL    HW114519   2.794   4.132   3.858
 4653SOL    HW214520   2.768   3.985   3.881
 4654SOL     OW14521   3.571   4.300   5.552
 4654SOL    HW114522   3.534   4.375   5.505
 4654SOL    HW214523   3.598   4.240   5.483
 4655SOL     OW14524   3.237   4.864   4.264
 4655SOL    HW114525   3.319   4.850   4.215
 4655SOL    HW214526   3.187   4.926   4.211
 4656SOL     OW14527   2.408   3.906   4.617
 4656SOL    HW114528   2.412   3.936   4.707
 4656SOL    HW214529   2.412   3.986   4.565
 4657SOL     OW14530   2.885   5.172   4.193
 4657SOL    HW114531   2.806   5.225   4.184
 4657SOL    HW214532   2.898   5.164   4.287
 4658SOL     OW14533   3.661   4.782   4.590
 4658SOL    HW114534   3.603   4.767   4.516
 4658SOL    HW214535   3.602   4.789   4.665
 4659SOL     OW14536   3.112   5.239   5.246
 4659SOL    HW114537   3.075   5.173   5.305
 4659SOL    HW214538   3.042   5.258   5.184
 4660SOL     OW14539   2.183   4.679   3.973
 4660SOL    HW114540   2.265   4.699   3.928
 4660SOL    HW214541   2.153   4.598   3.933
 4661SOL     OW14542   3.338   4.464   4.452
 4661SOL    HW114543   3.329   4.420   4.537
 4661SOL    HW214544   3.416   4.520   4.462
 4662SOL     OW14545   2.326   4.987   5.463
 4662SOL    HW114546   2.299   4.990   5.372
 4662SOL    HW214547   2.245   4.986   5.513
 4663SOL     OW14548   2.940   0.184   3.933
 4663SOL    HW114549   2.936   0.108   3.992
 4663SOL    HW214550   2.972   0.149   3.851
 4664SOL     OW14551   2.062   4.006   5.223
 4664SOL    HW114552   1.981   4.057   5.217
 4664SOL    HW214553   2.046   3.946   5.297
 4665SOL     OW14554   3.486   5.099   3.829
 4665SOL    HW114555   3.478   5.179   3.777
 4665SOL    HW214556   3.417   5.042   3.796
 4666SOL     OW14557   3.264   3.833   4.154
 4666SOL    HW114558   3.252   3.807   4.062
 4666SOL    HW214559   3.359   3.838   4.166
 4667SOL     OW14560   2.253   4.419   4.202
 4667SOL    HW114561   2.276   4.327   4.212
 4667SOL    HW214562   2.159   4.424   4.219
 4668SOL     OW14563   3.399   3.949   5.449
 4668SOL    HW114564   3.408   3.971   5.542
 4668SOL    HW214565   3.330   3.883   5.446
 4669SOL     OW14566   2.494   3.848   3.831
 4669SOL    HW114567   2.566   3.785   3.842
 4669SOL    HW214568   2.447   3.816   3.754
 4670SOL     OW14569   2.630   4.000   5.477
 4670SOL    HW114570   2.703   3.940   5.482
 4670SOL    HW214571   2.581   3.986   5.558
 4671SOL     OW14572   3.203   4.312   5.156
 4671SOL    HW114573   3.234   4.281   5.241
 4671SOL    HW214574   3.239   4.401   5.148
 4672SOL     OW14575   2.673   5.122   4.658
 4672SOL    HW114576   2.754   5.106   4.609
 4672SOL    HW214577   2.605   5.127   4.591
 4673SOL     OW14578   2.789   4.233   4.628
 4673SOL    HW114579   2.766   4.225   4.535
 4673SOL    HW214580   2.822   4.146   4.651
 4674SOL     OW14581   2.411   3.788   4.228
 4674SOL    HW114582   2.330   3.788   4.279
 4674SOL    HW214583   2.405   3.866   4.173
 4675SOL     OW14584   3.289   4.923   3.763
 4675SOL    HW114585   3.321   4.848   3.813
 4675SOL    HW214586   3.202   4.940   3.798
 4676SOL     OW14587   2.154   3.771   3.907
 4676SOL    HW114588   2.213   3.837   3.870
 4676SOL    HW214589   2.213   3.708   3.949
 4677SOL     OW14590   2.800   3.971   4.187
 4677SOL    HW114591   2.771   4.012   4.105
 4677SOL    HW214592   2.895   3.984   4.188
 4678SOL     OW14593   2.942   4.404   5.184
 4678SOL    HW114594   2.872   4.338   5.189
 4678SOL    HW214595   3.022   4.353   5.177
 4679SOL     OW14596   3.126   5.268   4.504
 4679SOL    HW114597   3.089   0.050   4.473
 4679SOL    HW214598   3.169   5.291   4.586
 4680SOL     OW14599   2.327   4.871   4.457
 4680SOL    HW114600   2.257   4.852   4.520
 4680SOL    HW214601   2.288   4.853   4.372
 4681SOL     OW14602   2.886   4.268   3.745
 4681SOL    HW114603   2.844   4.351   3.724
 4681SOL    HW214604   2.952   4.289   3.811
 4682SOL     OW14605   1.940   4.278   5.116
 4682SOL    HW114606   2.031   4.277   5.088
 4682SOL    HW214607   1.935   4.349   5.181
 4683SOL     OW14608   2.422   3.951   4.888
 4683SOL    HW114609   2.463   3.873   4.923
 4683SOL    HW214610   2.332   3.948   4.919
 4684SOL     OW14611   2.730   4.183   4.364
 4684SOL    HW114612   2.685   4.238   4.300
 4684SOL    HW214613   2.751   4.103   4.316
 4685SOL     OW14614   2.859   3.763   4.487
 4685SOL    HW114615   2.812   3.766   4.404
 4685SOL    HW214616   2.863   3.671   4.510
 4686SOL     OW14617   3.298   4.889   4.583
 4686SOL    HW114618   3.232   4.820   4.578
 4686SOL    HW214619   3.323   4.904   4.492
 4687SOL     OW14620   3.329   4.328   4.704
 4687SOL    HW114621   3.281   4.245   4.707
 4687SOL    HW214622   3.389   4.323   4.777
 4688SOL     OW14623   3.709   4.541   4.106
 4688SOL    HW114624   3.765   4.489   4.164
 4688SOL    HW214625   3.679   4.479   4.039
 4689SOL     OW14626   2.346   5.143   3.881
 4689SOL    HW114627   2.281   5.093   3.931
 4689SOL    HW214628   2.340   5.108   3.792
 4690SOL     OW14629   3.530   4.987   4.373
 4690SOL    HW114630   3.624   4.994   4.389
 4690SOL    HW214631   3.496   5.075   4.389
 4691SOL     OW14632   3.256   4.296   3.795
 4691SOL    HW114633   3.196   4.276   3.867
 4691SOL    HW214634   3.341   4.263   3.825
 4692SOL     OW14635   2.387   3.987   4.044
 4692SOL    HW114636   2.430   3.938   3.973
 4692SOL    HW214637   2.367   4.072   4.005
 4693SOL     OW14638   3.614   4.959   5.302
 4693SOL    HW114639   3.701   4.918   5.300
 4693SOL    HW214640   3.632   5.052   5.317
 4694SOL     OW14641   2.927   5.074   5.055
 4694SOL    HW114642   2.849   5.049   5.105
 4694SOL    HW214643   3.000   5.035   5.103
 4695SOL     OW14644   2.986   4.924   4.832
 4695SOL    HW114645   2.936   4.966   4.902
 4695SOL    HW214646   2.943   4.953   4.751
 4696SOL     OW14647   3.492   4.823   4.801
 4696SOL    HW114648   3.488   4.885   4.875
 4696SOL    HW214649   3.413   4.841   4.751
 4697SOL     OW14650   2.780   3.824   5.122
 4697SOL    HW114651   2.803   3.808   5.030
 4697SOL    HW214652   2.859   3.862   5.160
 4698SOL     OW14653   2.846   4.839   5.448
 4698SOL    HW114654   2.754   4.854   5.466
 4698SOL    HW214655   2.847   4.762   5.391
 4699SOL     OW14656   2.566   4.781   4.096
 4699SOL    HW114657   2.555   4.767   4.190
 4699SOL    HW214658   2.644   4.731   4.074
 4700SOL     OW14659   2.279   4.538   4.975
 4700SOL    HW114660   2.348   4.547   5.041
 4700SOL    HW214661   2.244   4.450   4.990
 4701SOL     OW14662   3.129   4.102   4.998
 4701SOL    HW114663   3.161   4.179   5.044
 4701SOL    HW214664   3.039   4.124   4.974
 4702SOL     OW14665   2.212   4.831   4.214
 4702SOL    HW114666   2.216   4.904   4.153
 4702SOL    HW214667   2.212   4.753   4.159
 4703SOL     OW14668   2.416   4.262   4.584
 4703SOL    HW114669   2.432   4.319   4.510
 4703SOL    HW214670   2.480   4.290   4.650
 4704SOL     OW14671   3.121   5.075   4.110
 4704SOL    HW114672   3.176   5.144   4.147
 4704SOL    HW214673   3.032   5.098   4.139
 4705SOL     OW14674   3.130   5.180   4.866
 4705SOL    HW114675   3.189   5.194   4.940
 4705SOL    HW214676   3.085   5.098   4.886
 4706SOL     OW14677   3.444   4.348   4.202
 4706SOL    HW114678   3.400   4.404   4.265
 4706SOL    HW214679   3.490   4.408   4.144
 4707SOL     OW14680   2.210   5.235   5.040
 4707SOL    HW114681   2.199   5.200   4.952
 4707SOL    HW214682   2.303   5.257   5.046
 4708SOL     OW14683   2.275   4.468   5.326
 4708SOL    HW114684   2.336   4.514   5.268
 4708SOL    HW214685   2.316   4.384   5.342
 4709SOL     OW14686   3.461   4.502   5.404
 4709SOL    HW114687   3.375   4.543   5.397
 4709SOL    HW214688   3.513   4.544   5.336
 4710SOL     OW14689   2.858   3.844   5.480
 4710SOL    HW114690   2.912   3.917   5.450
 4710SOL    HW214691   2.907   3.766   5.454
 4711SOL     OW14692   2.359   3.766   5.470
 4711SOL    HW114693   2.316   3.712   5.404
 4711SOL    HW214694   2.299   3.840   5.483
 4712SOL     OW14695   2.445   4.596   4.755
 4712SOL    HW114696   2.475   4.687   4.752
 4712SOL    HW214697   2.388   4.592   4.832
 4713SOL     OW14698   3.221   4.582   4.755
 4713SOL    HW114699   3.139   4.574   4.706
 4713SOL    HW214700   3.260   4.495   4.751
 4714SOL     OW14701   3.068   4.253   3.992
 4714SOL    HW114702   3.076   4.174   4.047
 4714SOL    HW214703   3.026   4.317   4.049
 4715SOL     OW14704   2.161   3.920   4.971
 4715SOL    HW114705   2.125   3.958   5.051
 4715SOL    HW214706   2.136   3.828   4.974
 4716SOL     OW14707   1.912   5.045   5.008
 4716SOL    HW114708   1.939   4.983   5.075
 4716SOL    HW214709   1.948   5.129   5.038
 4717SOL     OW14710   2.587   4.355   4.783
 4717SOL    HW114711   2.661   4.339   4.725
 4717SOL    HW214712   2.559   4.445   4.762
 4718SOL     OW14713   3.596   4.683   5.575
 4718SOL    HW114714   3.548   4.625   5.516
 4718SOL    HW214715   3.536   4.696   5.649
 4719SOL     OW14716   2.164   3.789   4.346
 4719SOL    HW114717   2.146   3.880   4.370
 4719SOL    HW214718   2.168   3.743   4.430
 4720SOL     OW14719   3.476   4.097   4.093
 4720SOL    HW114720   3.504   4.033   4.159
 4720SOL    HW214721   3.454   4.175   4.142
 4721SOL     OW14722   2.889   4.483   4.685
 4721SOL    HW114723   2.888   4.501   4.780
 4721SOL    HW214724   2.863   4.392   4.678
 4722SOL     OW14725   3.717   5.214   5.311
 4722SOL    HW114726   3.715   5.287   5.248
 4722SOL    HW214727   3.785   5.238   5.373
 4723SOL     OW14728   2.215   4.640   5.532
 4723SOL    HW114729   2.297   4.659   5.578
 4723SOL    HW214730   2.239   4.578   5.464
 4724SOL     OW14731   3.392   3.998   3.851
 4724SOL    HW114732   3.328   3.932   3.877
 4724SOL    HW214733   3.425   4.033   3.934
 4725SOL     OW14734   3.155   4.551   3.756
 4725SOL    HW114735   3.198   4.465   3.759
 4725SOL    HW214736   3.186   4.590   3.674
 4726SOL     OW14737   2.920   5.076   4.553
 4726SOL    HW114738   2.926   4.992   4.509
 4726SOL    HW214739   3.006   5.116   4.539
 4727SOL     OW14740   2.172   4.534   4.672
 4727SOL    HW114741   2.265   4.555   4.665
 4727SOL    HW214742   2.170   4.444   4.706
 4728SOL     OW14743   2.195   4.248   4.736
 4728SOL    HW114744   2.159   4.161   4.720
 4728SOL    HW214745   2.271   4.254   4.678
 4729SOL     OW14746   2.996   4.101   5.405
 4729SOL    HW114747   2.950   4.156   5.468
 4729SOL    HW214748   3.084   4.138   5.401
 4730SOL     OW14749   3.023   3.928   5.194
 4730SOL    HW114750   3.013   3.990   5.266
 4730SOL    HW214751   3.061   3.979   5.123
 4731SOL     OW14752   1.869   5.042   3.915
 4731SOL    HW114753   1.779   5.059   3.887
 4731SOL    HW214754   1.866   4.954   3.952
 4732SOL     OW14755   2.848   4.517   4.951
 4732SOL    HW114756   2.902   4.493   5.026
 4732SOL    HW214757   2.761   4.481   4.973
 4733SOL     OW14758   1.898   4.267   4.841
 4733SOL    HW114759   1.978   4.253   4.792
 4733SOL    HW214760   1.926   4.273   4.932
 4734SOL     OW14761   2.053   4.242   5.450
 4734SOL    HW114762   2.112   4.208   5.383
 4734SOL    HW214763   2.008   4.315   5.407
 4735SOL     OW14764   3.238   4.664   5.383
 4735SOL    HW114765   3.258   4.758   5.381
 4735SOL    HW214766   3.235   4.639   5.290
 4736SOL     OW14767   2.677   4.293   4.082
 4736SOL    HW114768   2.681   4.218   4.022
 4736SOL    HW214769   2.603   4.345   4.051
 4737SOL     OW14770   3.504   4.325   4.912
 4737SOL    HW114771   3.494   4.266   4.986
 4737SOL    HW214772   3.591   4.305   4.877
 4738SOL     OW14773   2.069   5.278   5.468
 4738SOL    HW114774   2.058   0.031   5.547
 4738SOL    HW214775   2.081   5.189   5.501
 4739SOL     OW14776   2.559   4.176   4.985
 4739SOL    HW114777   2.508   4.102   4.953
 4739SOL    HW214778   2.557   4.239   4.913
 4740SOL     OW14779   2.328   4.217   3.912
 4740SOL    HW114780   2.386   4.290   3.933
 4740SOL    HW214781   2.242   4.257   3.900
 4741SOL     OW14782   2.008   4.863   5.194
 4741SOL    HW114783   2.012   4.811   5.274
 4741SOL    HW214784   2.026   4.801   5.124
 4742SOL     OW14785   3.191   4.771   4.948
 4742SOL    HW114786   3.214   4.709   4.879
 4742SOL    HW214787   3.118   4.821   4.911
 4743SOL     OW14788   3.171   4.581   4.031
 4743SOL    HW114789   3.095   4.550   4.080
 4743SOL    HW214790   3.148   4.567   3.939
 4744SOL     OW14791   1.954   4.986   4.745
 4744SOL    HW114792   1.933   5.002   4.837
 4744SOL    HW214793   1.874   4.947   4.709
 4745SOL     OW14794   2.612   0.041   5.433
 4745SOL    HW114795   2.519   0.063   5.444
 4745SOL    HW214796   2.631   0.063   5.342
 4746SOL     OW14797   3.581   3.868   4.235
 4746SOL    HW114798   3.654   3.854   4.175
 4746SOL    HW214799   3.566   3.782   4.275
 4747SOL     OW14800   3.139   4.648   4.395
 4747SOL    HW114801   3.212   4.587   4.401
 4747SOL    HW214802   3.173   4.721   4.343
 4748SOL     OW14803   2.683   4.994   5.149
 4748SOL    HW114804   2.655   5.030   5.233
 4748SOL    HW214805   2.607   5.006   5.092
 4749SOL     OW14806   3.702   3.897   4.691
 4749SOL    HW114807   3.731   3.811   4.663
 4749SOL    HW214808   3.616   3.908   4.651
 4750SOL     OW14809   2.125   4.040   4.442
 4750SOL    HW114810   2.040   4.077   4.417
 4750SOL    HW214811   2.121   4.032   4.537
 4751SOL     OW14812   2.687   4.729   5.094
 4751SOL    HW114813   2.732   4.724   5.010
 4751SOL    HW214814   2.690   4.821   5.118
 4752SOL     OW14815   2.778   4.635   4.014
 4752SOL    HW114816   2.839   4.667   3.948
 4752SOL    HW214817   2.825   4.564   4.058
 4753SOL     OW14818   2.228   5.025   5.219
 4753SOL    HW114819   2.217   5.100   5.161
 4753SOL    HW214820   2.152   4.969   5.202
 4754SOL     OW14821   3.474   5.004   5.006
 4754SOL    HW114822   3.532   5.000   5.083
 4754SOL    HW214823   3.413   5.074   5.027
 4755SOL     OW14824   2.913   4.832   4.434
 4755SOL    HW114825   2.841   4.781   4.471
 4755SOL    HW214826   2.974   4.767   4.399
 4756SOL     OW14827   2.882   3.964   4.689
 4756SOL    HW114828   2.873   3.914   4.608
 4756SOL    HW214829   2.877   3.898   4.758
 4757SOL     OW14830   3.582   4.116   5.104
 4757SOL    HW114831   3.654   4.179   5.103
 4757SOL    HW214832   3.612   4.044   5.048
 4758SOL     OW14833   2.120   5.055   4.005
 4758SOL    HW114834   2.028   5.057   3.979
 4758SOL    HW214835   2.121   5.096   4.092
 4759SOL     OW14836   1.974   4.743   5.442
 4759SOL    HW114837   1.898   4.721   5.496
 4759SOL    HW214838   2.049   4.707   5.490
 4760SOL     OW14839   2.536   3.930   5.224
 4760SOL    HW114840   2.618   3.908   5.181
 4760SOL    HW214841   2.561   3.957   5.312
 4761SOL     OW14842   1.939   4.059   3.759
 4761SOL    HW114843   1.852   4.039   3.726
 4761SOL    HW214844   1.969   4.134   3.707
 4762SOL     OW14845   3.293   4.582   5.125
 4762SOL    HW114846   3.245   4.642   5.069
 4762SOL    HW214847   3.383   4.585   5.092
 4763SOL     OW14848   1.932   3.881   4.036
 4763SOL    HW114849   1.917   3.961   3.985
 4763SOL    HW214850   2.017   3.849   4.006
 4764SOL     OW14851   3.044   5.065   3.844
 4764SOL    HW114852   2.953   5.037   3.844
 4764SOL    HW214853   3.072   5.057   3.935
 4765SOL     OW14854   2.481   4.555   5.156
 4765SOL    HW114855   2.536   4.631   5.141
 4765SOL    HW214856   2.542   4.482   5.165
 4766SOL     OW14857   2.579   4.289   5.429
 4766SOL    HW114858   2.617   4.353   5.489
 4766SOL    HW214859   2.612   4.204   5.460
 4767SOL     OW14860   3.334   4.925   5.356
 4767SOL    HW114861   3.320   4.937   5.450
 4767SOL    HW214862   3.428   4.938   5.343
 4768SOL     OW14863   3.533   4.606   4.979
 4768SOL    HW114864   3.525   4.521   4.936
 4768SOL    HW214865   3.523   4.670   4.908
 4769SOL     OW14866   3.079   4.043   4.182
 4769SOL    HW114867   3.144   3.973   4.172
 4769SOL    HW214868   3.109   4.092   4.259
 4770SOL     OW14869   2.453   4.463   4.392
 4770SOL    HW114870   2.492   4.549   4.377
 4770SOL    HW214871   2.384   4.456   4.326
 4771SOL     OW14872   3.627   4.084   5.373
 4771SOL    HW114873   3.609   4.099   5.281
 4771SOL    HW214874   3.555   4.028   5.403
 4772SOL     OW14875   3.605   4.657   5.236
 4772SOL    HW114876   3.606   4.752   5.250
 4772SOL    HW214877   3.591   4.646   5.143
 4773SOL     OW14878   2.712   5.095   3.743
 4773SOL    HW114879   2.691   5.097   3.836
 4773SOL    HW214880   2.732   5.186   3.721
 4774SOL     OW14881   2.729   4.690   4.580
 4774SOL    HW114882   2.779   4.619   4.621
 4774SOL    HW214883   2.695   4.741   4.654
 4775SOL     OW14884   2.942   4.713   3.813
 4775SOL    HW114885   2.920   4.762   3.735
 4775SOL    HW214886   3.017   4.659   3.787
 4776SOL     OW14887   2.086   5.026   5.577
 4776SOL    HW114888   2.017   4.964   5.552
 4776SOL    HW214889   2.074   5.038   5.671
 4777SOL     OW14890   1.947   4.957   4.394
 4777SOL    HW114891   1.946   4.903   4.473
 4777SOL    HW214892   2.011   4.915   4.337
 4778SOL     OW14893   2.531   5.110   5.332
 4778SOL    HW114894   2.456   5.073   5.380
 4778SOL    HW214895   2.560   5.183   5.386
 4779SOL     OW14896   3.674   3.909   4.962
 4779SOL    HW114897   3.687   3.815   4.977
 4779SOL    HW214898   3.684   3.919   4.867
 4780SOL     OW14899   2.292   4.157   4.249
 4780SOL    HW114900   2.320   4.086   4.192
 4780SOL    HW214901   2.244   4.114   4.320
 4781SOL     OW14902   3.569   5.222   4.843
 4781SOL    HW114903   3.495   5.206   4.785
 4781SOL    HW214904   3.576   5.143   4.896
 4782SOL     OW14905   2.190   4.277   5.015
 4782SOL    HW114906   2.246   4.223   5.070
 4782SOL    HW214907   2.211   4.250   4.925
 4783SOL     OW14908   3.293   3.947   4.842
 4783SOL    HW114909   3.326   3.872   4.892
 4783SOL    HW214910   3.241   3.997   4.905
 4784SOL     OW14911   2.869   3.745   4.868
 4784SOL    HW114912   2.811   3.669   4.862
 4784SOL    HW214913   2.957   3.708   4.864
 4785SOL     OW14914   2.663   5.048   4.008
 4785SOL    HW114915   2.600   4.978   4.026
 4785SOL    HW214916   2.718   5.051   4.087
 4786SOL     OW14917   2.483   5.299   5.013
 4786SOL    HW114918   2.491   0.055   5.090
 4786SOL    HW214919   2.574   5.280   4.988
 4787SOL     OW14920   3.214   3.777   3.888
 4787SOL    HW114921   3.242   3.715   3.822
 4787SOL    HW214922   3.127   3.747   3.914
 4788SOL     OW14923   3.158   4.184   4.406
 4788SOL    HW114924   3.105   4.263   4.414
 4788SOL    HW214925   3.156   4.145   4.493
 4789SOL     OW14926   3.448   3.928   4.601
 4789SOL    HW114927   3.385   3.948   4.671
 4789SOL    HW214928   3.449   4.006   4.546
 4790SOL     OW14929   1.904   4.796   4.030
 4790SOL    HW114930   1.998   4.789   4.013
 4790SOL    HW214931   1.877   4.707   4.053
 4791SOL     OW14932   2.092   4.347   5.708
 4791SOL    HW114933   2.002   4.347   5.742
 4791SOL    HW214934   2.083   4.321   5.616
 4792SOL     OW14935   2.086   4.004   6.577
 4792SOL    HW114936   2.115   3.971   6.662
 4792SOL    HW214937   1.997   3.972   6.568
 4793SOL     OW14938   1.867   4.106   6.224
 4793SOL    HW114939   1.784   4.131   6.265
 4793SOL    HW214940   1.847   4.026   6.176
 4794SOL     OW14941   2.428   5.003   6.763
 4794SOL    HW114942   2.342   5.002   6.719
 4794SOL    HW214943   2.439   5.094   6.791
 4795SOL     OW14944   3.416   5.231   6.275
 4795SOL    HW114945   3.393   5.229   6.368
 4795SOL    HW214946   3.338   5.267   6.232
 4796SOL     OW14947   2.991   4.423   6.289
 4796SOL    HW114948   3.041   4.503   6.274
 4796SOL    HW214949   2.945   4.438   6.371
 4797SOL     OW14950   3.627   4.331   5.816
 4797SOL    HW114951   3.607   4.322   5.722
 4797SOL    HW214952   3.592   4.251   5.855
 4798SOL     OW14953   2.620   4.869   6.623
 4798SOL    HW114954   2.552   4.900   6.682
 4798SOL    HW214955   2.649   4.948   6.577
 4799SOL     OW14956   2.726   4.504   7.407
 4799SOL    HW114957   2.710   4.579   7.464
 4799SOL    HW214958   2.751   4.543   7.323
 4800SOL     OW14959   2.548   4.729   6.235
 4800SOL    HW114960   2.612   4.716   6.305
 4800SOL    HW214961   2.479   4.781   6.275
 4801SOL     OW14962   2.570   4.874   7.396
 4801SOL    HW114963   2.618   4.953   7.419
 4801SOL    HW214964   2.486   4.906   7.362
 4802SOL     OW14965   2.199   5.155   6.647
 4802SOL    HW114966   2.123   5.110   6.609
 4802SOL    HW214967   2.241   5.198   6.573
 4803SOL     OW14968   3.318   5.220   6.932
 4803SOL    HW114969   3.370   5.293   6.964
 4803SOL    HW214970   3.252   5.206   7.000
 4804SOL     OW14971   2.310   4.123   7.076
 4804SOL    HW114972   2.385   4.064   7.080
 4804SOL    HW214973   2.234   4.066   7.087
 4805SOL     OW14974   3.475   4.173   6.325
 4805SOL    HW114975   3.399   4.198   6.272
 4805SOL    HW214976   3.493   4.250   6.379
 4806SOL     OW14977   2.995   5.071   7.284
 4806SOL    HW114978   3.028   5.070   7.373
 4806SOL    HW214979   2.941   4.992   7.277
 4807SOL     OW14980   2.073   5.154   6.106
 4807SOL    HW114981   2.096   5.238   6.145
 4807SOL    HW214982   2.019   5.111   6.172
 4808SOL     OW14983   2.118   4.812   6.477
 4808SOL    HW114984   2.116   4.725   6.517
 4808SOL    HW214985   2.060   4.865   6.532
 4809SOL     OW14986   2.450   4.704   5.718
 4809SOL    HW114987   2.494   4.755   5.651
 4809SOL    HW214988   2.489   4.734   5.800
 4810SOL     OW14989   3.458   3.846   7.055
 4810SOL    HW114990   3.459   3.926   7.003
 4810SOL    HW214991   3.445   3.876   7.145
 4811SOL     OW14992   1.976   4.375   6.145
 4811SOL    HW114993   1.947   4.287   6.166
 4811SOL    HW214994   1.968   4.424   6.228
 4812SOL     OW14995   1.848   0.014   5.686
 4812SOL    HW114996   1.866   5.225   5.715
 4812SOL    HW214997   1.871   0.069   5.761
 4813SOL     OW14998   3.551   4.642   6.224
 4813SOL    HW114999   3.636   4.602   6.206
 4813SOL    HW215000   3.530   4.693   6.146
 4814SOL     OW15001   3.507   4.832   6.016
 4814SOL    HW115002   3.592   4.838   5.972
 4814SOL    HW215003   3.513   4.892   6.090
 4815SOL     OW15004   1.984   4.466   7.173
 4815SOL    HW115005   2.076   4.489   7.184
 4815SOL    HW215006   1.937   4.549   7.180
 4816SOL     OW15007   2.483   5.097   6.321
 4816SOL    HW115008   2.429   5.018   6.321
 4816SOL    HW215009   2.464   5.139   6.237
 4817SOL     OW15010   3.151   4.956   7.012
 4817SOL    HW115011   3.187   4.890   6.951
 4817SOL    HW215012   3.210   4.952   7.087
 4818SOL     OW15013   2.674   3.723   6.090
 4818SOL    HW115014   2.715   3.808   6.075
 4818SOL    HW215015   2.582   3.743   6.102
 4819SOL     OW15016   2.053   4.692   6.854
 4819SOL    HW115017   2.137   4.648   6.840
 4819SOL    HW215018   1.989   4.635   6.811
 4820SOL     OW15019   3.393   4.717   5.782
 4820SOL    HW115020   3.324   4.659   5.813
 4820SOL    HW215021   3.434   4.751   5.862
 4821SOL     OW15022   2.192   3.974   7.395
 4821SOL    HW115023   2.239   4.056   7.409
 4821SOL    HW215024   2.104   3.991   7.428
 4822SOL     OW15025   3.337   5.146   6.548
 4822SOL    HW115026   3.264   5.158   6.609
 4822SOL    HW215027   3.324   5.057   6.514
 4823SOL     OW15028   2.458   4.446   5.851
 4823SOL    HW115029   2.466   4.527   5.800
 4823SOL    HW215030   2.393   4.466   5.918
 4824SOL     OW15031   3.141   4.073   6.518
 4824SOL    HW115032   3.052   4.040   6.526
 4824SOL    HW215033   3.192   4.021   6.580
 4825SOL     OW15034   2.654   4.341   7.038
 4825SOL    HW115035   2.628   4.318   7.127
 4825SOL    HW215036   2.613   4.275   6.983
 4826SOL     OW15037   3.256   4.198   7.263
 4826SOL    HW115038   3.257   4.242   7.348
 4826SOL    HW215039   3.318   4.125   7.273
 4827SOL     OW15040   2.819   4.612   7.167
 4827SOL    HW115041   2.873   4.541   7.133
 4827SOL    HW215042   2.771   4.645   7.091
 4828SOL     OW15043   2.855   4.138   6.825
 4828SOL    HW115044   2.770   4.159   6.865
 4828SOL    HW215045   2.832   4.089   6.746
 4829SOL     OW15046   2.912   4.422   6.013
 4829SOL    HW115047   2.927   4.416   6.107
 4829SOL    HW215048   2.830   4.376   5.998
 4830SOL     OW15049   1.950   4.544   6.362
 4830SOL    HW115050   2.032   4.537   6.412
 4830SOL    HW215051   1.907   4.622   6.397
 4831SOL     OW15052   2.751   4.071   5.780
 4831SOL    HW115053   2.793   4.133   5.720
 4831SOL    HW215054   2.771   3.985   5.743
 4832SOL     OW15055   3.572   4.301   7.415
 4832SOL    HW115056   3.535   4.376   7.369
 4832SOL    HW215057   3.597   4.240   7.346
 4833SOL     OW15058   3.238   4.864   6.126
 4833SOL    HW115059   3.319   4.850   6.077
 4833SOL    HW215060   3.187   4.926   6.073
 4834SOL     OW15061   2.412   3.908   6.478
 4834SOL    HW115062   2.414   3.935   6.570
 4834SOL    HW215063   2.413   3.990   6.429
 4835SOL     OW15064   2.885   5.172   6.055
 4835SOL    HW115065   2.806   5.225   6.046
 4835SOL    HW215066   2.898   5.164   6.149
 4836SOL     OW15067   3.661   4.782   6.452
 4836SOL    HW115068   3.604   4.766   6.378
 4836SOL    HW215069   3.602   4.789   6.527
 4837SOL     OW15070   3.112   5.239   7.108
 4837SOL    HW115071   3.075   5.173   7.167
 4837SOL    HW215072   3.042   5.258   7.045
 4838SOL     OW15073   2.183   4.680   5.835
 4838SOL    HW115074   2.265   4.699   5.790
 4838SOL    HW215075   2.153   4.598   5.795
 4839SOL     OW15076   3.338   4.464   6.314
 4839SOL    HW115077   3.329   4.420   6.398
 4839SOL    HW215078   3.416   4.519   6.325
 4840SOL     OW15079   2.326   4.987   7.327
 4840SOL    HW115080   2.298   4.990   7.235
 4840SOL    HW215081   2.244   4.986   7.376
 4841SOL     OW15082   2.940   0.184   5.796
 4841SOL    HW115083   2.936   0.108   5.854
 4841SOL    HW215084   2.972   0.149   5.712
 4842SOL     OW15085   2.062   4.006   7.086
 4842SOL    HW115086   1.980   4.055   7.080
 4842SOL    HW215087   2.046   3.939   7.153
 4843SOL     OW15088   3.486   5.099   5.691
 4843SOL    HW115089   3.478   5.179   5.640
 4843SOL    HW215090   3.417   5.042   5.658
 4844SOL     OW15091   3.263   3.832   6.017
 4844SOL    HW115092   3.253   3.807   5.925
 4844SOL    HW215093   3.358   3.839   6.029
 4845SOL     OW15094   2.253   4.419   6.063
 4845SOL    HW115095   2.275   4.327   6.074
 4845SOL    HW215096   2.159   4.424   6.081
 4846SOL     OW15097   3.399   3.949   7.312
 4846SOL    HW115098   3.407   3.971   7.405
 4846SOL    HW215099   3.331   3.882   7.308
 4847SOL     OW15100   2.492   3.847   5.693
 4847SOL    HW115101   2.567   3.788   5.704
 4847SOL    HW215102   2.446   3.815   5.615
 4848SOL     OW15103   2.628   3.999   7.338
 4848SOL    HW115104   2.703   3.940   7.343
 4848SOL    HW215105   2.583   3.988   7.422
 4849SOL     OW15106   3.203   4.313   7.018
 4849SOL    HW115107   3.234   4.281   7.103
 4849SOL    HW215108   3.239   4.401   7.011
 4850SOL     OW15109   2.673   5.122   6.520
 4850SOL    HW115110   2.754   5.106   6.471
 4850SOL    HW215111   2.605   5.127   6.452
 4851SOL     OW15112   2.789   4.233   6.490
 4851SOL    HW115113   2.766   4.225   6.397
 4851SOL    HW215114   2.822   4.147   6.514
 4852SOL     OW15115   2.410   3.787   6.090
 4852SOL    HW115116   2.330   3.788   6.142
 4852SOL    HW215117   2.404   3.866   6.036
 4853SOL     OW15118   3.289   4.923   5.625
 4853SOL    HW115119   3.321   4.848   5.675
 4853SOL    HW215120   3.202   4.940   5.660
 4854SOL     OW15121   2.155   3.771   5.769
 4854SOL    HW115122   2.214   3.837   5.733
 4854SOL    HW215123   2.213   3.707   5.812
 4855SOL     OW15124   2.799   3.969   6.048
 4855SOL    HW115125   2.771   4.012   5.967
 4855SOL    HW215126   2.894   3.982   6.051
 4856SOL     OW15127   2.942   4.404   7.046
 4856SOL    HW115128   2.872   4.338   7.051
 4856SOL    HW215129   3.022   4.353   7.039
 4857SOL     OW15130   3.126   5.268   6.366
 4857SOL    HW115131   3.089   0.050   6.335
 4857SOL    HW215132   3.169   5.291   6.448
 4858SOL     OW15133   2.327   4.871   6.319
 4858SOL    HW115134   2.257   4.852   6.382
 4858SOL    HW215135   2.288   4.853   6.234
 4859SOL     OW15136   2.886   4.268   5.607
 4859SOL    HW115137   2.844   4.351   5.587
 4859SOL    HW215138   2.951   4.289   5.674
 4860SOL     OW15139   1.940   4.279   6.977
 4860SOL    HW115140   2.031   4.277   6.950
 4860SOL    HW215141   1.935   4.349   7.043
 4861SOL     OW15142   2.422   3.951   6.750
 4861SOL    HW115143   2.463   3.873   6.788
 4861SOL    HW215144   2.332   3.948   6.780
 4862SOL     OW15145   2.730   4.183   6.226
 4862SOL    HW115146   2.685   4.238   6.162
 4862SOL    HW215147   2.751   4.102   6.179
 4863SOL     OW15148   2.878   3.777   6.338
 4863SOL    HW115149   2.819   3.769   6.263
 4863SOL    HW215150   2.856   3.702   6.393
 4864SOL     OW15151   3.298   4.890   6.445
 4864SOL    HW115152   3.232   4.820   6.441
 4864SOL    HW215153   3.323   4.904   6.354
 4865SOL     OW15154   3.329   4.327   6.565
 4865SOL    HW115155   3.280   4.245   6.569
 4865SOL    HW215156   3.389   4.323   6.639
 4866SOL     OW15157   3.709   4.541   5.968
 4866SOL    HW115158   3.765   4.489   6.026
 4866SOL    HW215159   3.680   4.479   5.901
 4867SOL     OW15160   2.346   5.143   5.743
 4867SOL    HW115161   2.281   5.093   5.793
 4867SOL    HW215162   2.340   5.108   5.654
 4868SOL     OW15163   3.530   4.987   6.234
 4868SOL    HW115164   3.624   4.994   6.251
 4868SOL    HW215165   3.496   5.075   6.251
 4869SOL     OW15166   3.256   4.296   5.657
 4869SOL    HW115167   3.196   4.276   5.729
 4869SOL    HW215168   3.341   4.264   5.688
 4870SOL     OW15169   2.387   3.987   5.906
 4870SOL    HW115170   2.430   3.938   5.836
 4870SOL    HW215171   2.367   4.072   5.868
 4871SOL     OW15172   3.614   4.959   7.164
 4871SOL    HW115173   3.701   4.918   7.162
 4871SOL    HW215174   3.631   5.052   7.179
 4872SOL     OW15175   2.927   5.075   6.918
 4872SOL    HW115176   2.849   5.049   6.967
 4872SOL    HW215177   3.000   5.035   6.965
 4873SOL     OW15178   2.986   4.924   6.694
 4873SOL    HW115179   2.935   4.966   6.764
 4873SOL    HW215180   2.943   4.952   6.613
 4874SOL     OW15181   3.492   4.823   6.663
 4874SOL    HW115182   3.488   4.885   6.737
 4874SOL    HW215183   3.413   4.841   6.613
 4875SOL     OW15184   2.780   3.822   6.983
 4875SOL    HW115185   2.803   3.803   6.893
 4875SOL    HW215186   2.859   3.861   7.020
 4876SOL     OW15187   2.846   4.838   7.312
 4876SOL    HW115188   2.753   4.854   7.328
 4876SOL    HW215189   2.848   4.762   7.254
 4877SOL     OW15190   2.566   4.781   5.958
 4877SOL    HW115191   2.555   4.767   6.052
 4877SOL    HW215192   2.644   4.731   5.936
 4878SOL     OW15193   2.279   4.538   6.838
 4878SOL    HW115194   2.348   4.547   6.903
 4878SOL    HW215195   2.244   4.450   6.852
 4879SOL     OW15196   3.128   4.102   6.859
 4879SOL    HW115197   3.161   4.179   6.906
 4879SOL    HW215198   3.039   4.124   6.835
 4880SOL     OW15199   2.212   4.831   6.076
 4880SOL    HW115200   2.216   4.904   6.015
 4880SOL    HW215201   2.212   4.753   6.021
 4881SOL     OW15202   2.416   4.262   6.446
 4881SOL    HW115203   2.432   4.320   6.372
 4881SOL    HW215204   2.480   4.289   6.512
 4882SOL     OW15205   3.121   5.075   5.972
 4882SOL    HW115206   3.176   5.144   6.009
 4882SOL    HW215207   3.032   5.098   6.001
 4883SOL     OW15208   3.130   5.180   6.728
 4883SOL    HW115209   3.189   5.194   6.802
 4883SOL    HW215210   3.085   5.098   6.747
 4884SOL     OW15211   3.444   4.348   6.063
 4884SOL    HW115212   3.399   4.404   6.127
 4884SOL    HW215213   3.490   4.410   6.006
 4885SOL     OW15214   2.210   5.235   6.903
 4885SOL    HW115215   2.199   5.201   6.814
 4885SOL    HW215216   2.303   5.257   6.908
 4886SOL     OW15217   2.275   4.469   7.188
 4886SOL    HW115218   2.337   4.514   7.130
 4886SOL    HW215219   2.315   4.383   7.203
 4887SOL     OW15220   3.461   4.502   7.267
 4887SOL    HW115221   3.375   4.543   7.259
 4887SOL    HW215222   3.513   4.544   7.198
 4888SOL     OW15223   2.858   3.844   7.341
 4888SOL    HW115224   2.912   3.917   7.310
 4888SOL    HW215225   2.907   3.766   7.316
 4889SOL     OW15226   2.361   3.766   7.332
 4889SOL    HW115227   2.319   3.711   7.266
 4889SOL    HW215228   2.300   3.840   7.344
 4890SOL     OW15229   2.445   4.596   6.617
 4890SOL    HW115230   2.475   4.687   6.614
 4890SOL    HW215231   2.388   4.591   6.694
 4891SOL     OW15232   3.221   4.582   6.617
 4891SOL    HW115233   3.139   4.574   6.569
 4891SOL    HW215234   3.260   4.495   6.614
 4892SOL     OW15235   3.068   4.253   5.854
 4892SOL    HW115236   3.076   4.174   5.909
 4892SOL    HW215237   3.026   4.317   5.911
 4893SOL     OW15238   2.162   3.923   6.832
 4893SOL    HW115239   2.125   3.956   6.914
 4893SOL    HW215240   2.142   3.830   6.833
 4894SOL     OW15241   1.912   5.045   6.870
 4894SOL    HW115242   1.939   4.982   6.937
 4894SOL    HW215243   1.948   5.129   6.899
 4895SOL     OW15244   2.587   4.355   6.645
 4895SOL    HW115245   2.661   4.338   6.587
 4895SOL    HW215246   2.559   4.444   6.623
 4896SOL     OW15247   3.596   4.684   7.437
 4896SOL    HW115248   3.548   4.625   7.379
 4896SOL    HW215249   3.538   4.696   7.512
 4897SOL     OW15250   2.164   3.789   6.209
 4897SOL    HW115251   2.146   3.880   6.233
 4897SOL    HW215252   2.171   3.743   6.292
 4898SOL     OW15253   3.476   4.097   5.954
 4898SOL    HW115254   3.504   4.033   6.021
 4898SOL    HW215255   3.454   4.175   6.004
 4899SOL     OW15256   2.889   4.483   6.548
 4899SOL    HW115257   2.888   4.501   6.642
 4899SOL    HW215258   2.863   4.392   6.540
 4900SOL     OW15259   3.717   5.214   7.172
 4900SOL    HW115260   3.715   5.287   7.110
 4900SOL    HW215261   3.786   5.238   7.234
 4901SOL     OW15262   2.215   4.639   7.395
 4901SOL    HW115263   2.298   4.658   7.439
 4901SOL    HW215264   2.239   4.577   7.326
 4902SOL     OW15265   3.392   3.997   5.713
 4902SOL    HW115266   3.328   3.932   5.740
 4902SOL    HW215267   3.425   4.034   5.796
 4903SOL     OW15268   3.155   4.551   5.618
 4903SOL    HW115269   3.198   4.465   5.621
 4903SOL    HW215270   3.186   4.590   5.536
 4904SOL     OW15271   2.920   5.076   6.415
 4904SOL    HW115272   2.926   4.992   6.371
 4904SOL    HW215273   3.006   5.116   6.401
 4905SOL     OW15274   2.172   4.534   6.534
 4905SOL    HW115275   2.265   4.555   6.528
 4905SOL    HW215276   2.169   4.444   6.568
 4906SOL     OW15277   2.194   4.248   6.598
 4906SOL    HW115278   2.159   4.161   6.582
 4906SOL    HW215279   2.271   4.254   6.540
 4907SOL     OW15280   2.997   4.101   7.265
 4907SOL    HW115281   2.950   4.156   7.328
 4907SOL    HW215282   3.085   4.139   7.262
 4908SOL     OW15283   3.022   3.928   7.055
 4908SOL    HW115284   3.012   3.990   7.127
 4908SOL    HW215285   3.061   3.979   6.984
 4909SOL     OW15286   1.869   5.042   5.777
 4909SOL    HW115287   1.779   5.059   5.749
 4909SOL    HW215288   1.866   4.954   5.814
 4910SOL     OW15289   2.847   4.518   6.814
 4910SOL    HW115290   2.902   4.493   6.888
 4910SOL    HW215291   2.762   4.480   6.834
 4911SOL     OW15292   1.898   4.268   6.702
 4911SOL    HW115293   1.978   4.252   6.654
 4911SOL    HW215294   1.925   4.273   6.794
 4912SOL     OW15295   2.054   4.242   7.313
 4912SOL    HW115296   2.110   4.204   7.245
 4912SOL    HW215297   2.009   4.314   7.269
 4913SOL     OW15298   3.237   4.664   7.245
 4913SOL    HW115299   3.258   4.758   7.244
 4913SOL    HW215300   3.235   4.639   7.153
 4914SOL     OW15301   2.677   4.293   5.943
 4914SOL    HW115302   2.680   4.218   5.883
 4914SOL    HW215303   2.603   4.345   5.913
 4915SOL     OW15304   3.505   4.325   6.774
 4915SOL    HW115305   3.493   4.266   6.848
 4915SOL    HW215306   3.591   4.305   6.739
 4916SOL     OW15307   2.070   5.277   7.328
 4916SOL    HW115308   2.047   0.029   7.405
 4916SOL    HW215309   2.082   5.188   7.362
 4917SOL     OW15310   2.559   4.176   6.848
 4917SOL    HW115311   2.508   4.101   6.816
 4917SOL    HW215312   2.557   4.239   6.775
 4918SOL     OW15313   2.328   4.217   5.774
 4918SOL    HW115314   2.386   4.290   5.795
 4918SOL    HW215315   2.242   4.256   5.762
 4919SOL     OW15316   2.009   4.863   7.056
 4919SOL    HW115317   2.012   4.810   7.136
 4919SOL    HW215318   2.026   4.800   6.986
 4920SOL     OW15319   3.191   4.771   6.810
 4920SOL    HW115320   3.214   4.708   6.741
 4920SOL    HW215321   3.118   4.821   6.773
 4921SOL     OW15322   3.171   4.581   5.893
 4921SOL    HW115323   3.095   4.550   5.942
 4921SOL    HW215324   3.148   4.567   5.801
 4922SOL     OW15325   1.954   4.986   6.607
 4922SOL    HW115326   1.932   5.002   6.699
 4922SOL    HW215327   1.874   4.947   6.571
 4923SOL     OW15328   2.612   0.040   7.296
 4923SOL    HW115329   2.520   0.063   7.307
 4923SOL    HW215330   2.632   0.063   7.206
 4924SOL     OW15331   3.580   3.868   6.097
 4924SOL    HW115332   3.654   3.854   6.037
 4924SOL    HW215333   3.565   3.782   6.137
 4925SOL     OW15334   3.139   4.649   6.257
 4925SOL    HW115335   3.212   4.587   6.263
 4925SOL    HW215336   3.173   4.721   6.205
 4926SOL     OW15337   2.683   4.994   7.011
 4926SOL    HW115338   2.655   5.030   7.095
 4926SOL    HW215339   2.607   5.006   6.953
 4927SOL     OW15340   3.702   3.897   6.553
 4927SOL    HW115341   3.731   3.810   6.525
 4927SOL    HW215342   3.616   3.908   6.513
 4928SOL     OW15343   2.125   4.041   6.304
 4928SOL    HW115344   2.040   4.077   6.279
 4928SOL    HW215345   2.121   4.032   6.399
 4929SOL     OW15346   2.686   4.729   6.957
 4929SOL    HW115347   2.732   4.723   6.873
 4929SOL    HW215348   2.690   4.821   6.980
 4930SOL     OW15349   2.778   4.635   5.876
 4930SOL    HW115350   2.839   4.667   5.810
 4930SOL    HW215351   2.825   4.564   5.920
 4931SOL     OW15352   2.228   5.025   7.082
 4931SOL    HW115353   2.217   5.100   7.023
 4931SOL    HW215354   2.153   4.969   7.064
 4932SOL     OW15355   3.474   5.004   6.868
 4932SOL    HW115356   3.532   4.999   6.945
 4932SOL    HW215357   3.413   5.074   6.889
 4933SOL     OW15358   2.913   4.832   6.296
 4933SOL    HW115359   2.842   4.781   6.333
 4933SOL    HW215360   2.974   4.767   6.261
 4934SOL     OW15361   2.882   3.964   6.552
 4934SOL    HW115362   2.878   3.916   6.469
 4934SOL    HW215363   2.877   3.896   6.619
 4935SOL     OW15364   3.582   4.116   6.967
 4935SOL    HW115365   3.654   4.179   6.965
 4935SOL    HW215366   3.612   4.044   6.911
 4936SOL     OW15367   2.120   5.055   5.867
 4936SOL    HW115368   2.028   5.057   5.841
 4936SOL    HW215369   2.121   5.096   5.954
 4937SOL     OW15370   1.974   4.744   7.305
 4937SOL    HW115371   1.898   4.721   7.357
 4937SOL    HW215372   2.049   4.707   7.352
 4938SOL     OW15373   2.535   3.921   7.085
 4938SOL    HW115374   2.619   3.901   7.043
 4938SOL    HW215375   2.558   3.949   7.173
 4939SOL     OW15376   1.940   4.059   5.621
 4939SOL    HW115377   1.852   4.040   5.588
 4939SOL    HW215378   1.969   4.134   5.569
 4940SOL     OW15379   3.293   4.582   6.987
 4940SOL    HW115380   3.245   4.642   6.931
 4940SOL    HW215381   3.383   4.585   6.954
 4941SOL     OW15382   1.931   3.881   5.898
 4941SOL    HW115383   1.917   3.961   5.848
 4941SOL    HW215384   2.017   3.849   5.868
 4942SOL     OW15385   3.044   5.065   5.706
 4942SOL    HW115386   2.953   5.037   5.706
 4942SOL    HW215387   3.072   5.057   5.797
 4943SOL     OW15388   2.480   4.555   7.019
 4943SOL    HW115389   2.537   4.631   7.003
 4943SOL    HW215390   2.541   4.482   7.027
 4944SOL     OW15391   2.580   4.288   7.292
 4944SOL    HW115392   2.617   4.351   7.353
 4944SOL    HW215393   2.611   4.203   7.322
 4945SOL     OW15394   3.333   4.925   7.218
 4945SOL    HW115395   3.321   4.937   7.312
 4945SOL    HW215396   3.427   4.937   7.205
 4946SOL     OW15397   3.533   4.606   6.841
 4946SOL    HW115398   3.525   4.520   6.799
 4946SOL    HW215399   3.523   4.669   6.770
 4947SOL     OW15400   3.080   4.043   6.044
 4947SOL    HW115401   3.143   3.972   6.035
 4947SOL    HW215402   3.108   4.092   6.121
 4948SOL     OW15403   2.453   4.463   6.254
 4948SOL    HW115404   2.492   4.549   6.238
 4948SOL    HW215405   2.384   4.456   6.188
 4949SOL     OW15406   3.626   4.084   7.236
 4949SOL    HW115407   3.609   4.099   7.143
 4949SOL    HW215408   3.554   4.028   7.265
 4950SOL     OW15409   3.606   4.657   7.098
 4950SOL    HW115410   3.605   4.752   7.112
 4950SOL    HW215411   3.591   4.646   7.005
 4951SOL     OW15412   2.713   5.095   5.605
 4951SOL    HW115413   2.691   5.097   5.698
 4951SOL    HW215414   2.732   5.186   5.583
 4952SOL     OW15415   2.729   4.690   6.442
 4952SOL    HW115416   2.779   4.619   6.482
 4952SOL    HW215417   2.695   4.741   6.516
 4953SOL     OW15418   2.942   4.712   5.675
 4953SOL    HW115419   2.920   4.763   5.597
 4953SOL    HW215420   3.017   4.659   5.649
 4954SOL     OW15421   2.085   5.025   7.442
 4954SOL    HW115422   2.018   4.964   7.413
 4954SOL    HW215423   2.066   5.039   7.535
 4955SOL     OW15424   1.947   4.957   6.256
 4955SOL    HW115425   1.946   4.903   6.335
 4955SOL    HW215426   2.011   4.915   6.199
 4956SOL     OW15427   2.530   5.109   7.194
 4956SOL    HW115428   2.456   5.074   7.243
 4956SOL    HW215429   2.560   5.183   7.248
 4957SOL     OW15430   3.675   3.909   6.824
 4957SOL    HW115431   3.685   3.815   6.839
 4957SOL    HW215432   3.685   3.919   6.729
 4958SOL     OW15433   2.291   4.158   6.111
 4958SOL    HW115434   2.321   4.086   6.054
 4958SOL    HW215435   2.244   4.114   6.182
 4959SOL     OW15436   3.569   5.222   6.705
 4959SOL    HW115437   3.495   5.206   6.647
 4959SOL    HW215438   3.576   5.143   6.758
 4960SOL     OW15439   2.191   4.278   6.877
 4960SOL    HW115440   2.246   4.222   6.932
 4960SOL    HW215441   2.211   4.250   6.788
 4961SOL     OW15442   3.294   3.948   6.704
 4961SOL    HW115443   3.321   3.869   6.751
 4961SOL    HW215444   3.242   3.997   6.767
 4962SOL     OW15445   2.871   3.744   6.730
 4962SOL    HW115446   2.815   3.675   6.693
 4962SOL    HW215447   2.958   3.706   6.732
 4963SOL     OW15448   2.663   5.048   5.870
 4963SOL    HW115449   2.600   4.978   5.888
 4963SOL    HW215450   2.718   5.051   5.949
 4964SOL     OW15451   2.483   5.299   6.875
 4964SOL    HW115452   2.491   0.054   6.952
 4964SOL    HW215453   2.574   5.279   6.849
 4965SOL     OW15454   3.214   3.778   5.750
 4965SOL    HW115455   3.241   3.717   5.682
 4965SOL    HW215456   3.127   3.747   5.777
 4966SOL     OW15457   3.159   4.184   6.268
 4966SOL    HW115458   3.105   4.263   6.276
 4966SOL    HW215459   3.156   4.144   6.355
 4967SOL     OW15460   3.449   3.928   6.463
 4967SOL    HW115461   3.386   3.947   6.533
 4967SOL    HW215462   3.448   4.006   6.408
 4968SOL     OW15463   1.904   4.796   5.892
 4968SOL    HW115464   1.998   4.789   5.875
 4968SOL    HW215465   1.877   4.707   5.915
 4969SOL     OW15466   2.091   4.344   7.571
 4969SOL    HW115467   2.000   4.350   7.600
 4969SOL    HW215468   2.085   4.320   7.478
 4970SOL     OW15469   3.628   4.324   7.680
 4970SOL    HW115470   3.609   4.319   7.586
 4970SOL    HW215471   3.587   4.246   7.717
 4971SOL     OW15472   2.138   0.127   7.956
 4971SOL    HW115473   2.113   0.212   7.991
 4971SOL    HW215474   2.145   0.140   7.862
 4972SOL     OW15475   2.080   5.156   7.988
 4972SOL    HW115476   2.090   5.251   7.997
 4972SOL    HW215477   2.022   5.131   8.060
 4973SOL     OW15478   2.449   4.704   7.578
 4973SOL    HW115479   2.494   4.755   7.510
 4973SOL    HW215480   2.488   4.734   7.660
 4974SOL     OW15481   1.860   0.011   7.540
 4974SOL    HW115482   1.866   5.222   7.575
 4974SOL    HW215483   1.861   0.067   7.618
 4975SOL     OW15484   3.545   4.595   8.037
 4975SOL    HW115485   3.628   4.605   0.004
 4975SOL    HW215486   3.534   4.678   7.990
 4976SOL     OW15487   3.516   4.826   7.875
 4976SOL    HW115488   3.604   4.845   7.842
 4976SOL    HW215489   3.499   4.895   7.939
 4977SOL     OW15490   2.664   3.718   7.940
 4977SOL    HW115491   2.712   3.799   7.924
 4977SOL    HW215492   2.573   3.745   7.949
 4978SOL     OW15493   3.394   4.719   7.646
 4978SOL    HW115494   3.328   4.658   7.679
 4978SOL    HW215495   3.436   4.753   7.725
 4979SOL     OW15496   2.453   4.449   7.708
 4979SOL    HW115497   2.460   4.530   7.658
 4979SOL    HW215498   2.393   4.470   7.779
 4980SOL     OW15499   1.925   4.584   0.093
 4980SOL    HW115500   1.991   4.523   0.125
 4980SOL    HW215501   1.915   4.647   0.165
 4981SOL     OW15502   2.741   4.069   7.637
 4981SOL    HW115503   2.788   4.129   7.580
 4981SOL    HW215504   2.774   3.982   7.613
 4982SOL     OW15505   2.185   4.679   7.696
 4982SOL    HW115506   2.266   4.697   7.648
 4982SOL    HW215507   2.151   4.600   7.655
 4983SOL     OW15508   2.955   0.191   7.651
 4983SOL    HW115509   2.924   0.127   7.714
 4983SOL    HW215510   2.962   0.142   7.568
 4984SOL     OW15511   3.489   5.099   7.548
 4984SOL    HW115512   3.471   5.182   7.504
 4984SOL    HW215513   3.419   5.041   7.520
 4985SOL     OW15514   3.276   3.854   7.864
 4985SOL    HW115515   3.263   3.819   7.776
 4985SOL    HW215516   3.371   3.850   7.877
 4986SOL     OW15517   2.252   4.422   7.918
 4986SOL    HW115518   2.262   4.327   7.925
 4986SOL    HW215519   2.160   4.438   7.942
 4987SOL     OW15520   2.488   3.845   7.559
 4987SOL    HW115521   2.566   3.790   7.569
 4987SOL    HW215522   2.446   3.814   7.479
 4988SOL     OW15523   2.394   3.796   7.959
 4988SOL    HW115524   2.309   3.800   8.002
 4988SOL    HW215525   2.393   3.867   7.895
 4989SOL     OW15526   3.290   4.924   7.488
 4989SOL    HW115527   3.321   4.849   7.539
 4989SOL    HW215528   3.202   4.942   7.522
 4990SOL     OW15529   2.155   3.773   7.632
 4990SOL    HW115530   2.214   3.834   7.588
 4990SOL    HW215531   2.213   3.707   7.671
 4991SOL     OW15532   2.805   3.950   7.911
 4991SOL    HW115533   2.761   4.015   7.856
 4991SOL    HW215534   2.896   3.980   7.914
 4992SOL     OW15535   2.305   4.875   0.100
 4992SOL    HW115536   2.228   4.904   0.149
 4992SOL    HW215537   2.273   4.860   0.011
 4993SOL     OW15538   2.889   4.268   7.465
 4993SOL    HW115539   2.844   4.351   7.448
 4993SOL    HW215540   2.949   4.288   7.537
 4994SOL     OW15541   3.729   4.543   7.803
 4994SOL    HW115542   3.737   4.507   7.891
 4994SOL    HW215543   3.689   4.472   7.752
 4995SOL     OW15544   2.339   5.148   7.604
 4995SOL    HW115545   2.279   5.096   7.658
 4995SOL    HW215546   2.338   5.105   7.519
 4996SOL     OW15547   3.256   4.296   7.519
 4996SOL    HW115548   3.196   4.276   7.591
 4996SOL    HW215549   3.340   4.261   7.549
 4997SOL     OW15550   2.388   3.989   7.771
 4997SOL    HW115551   2.430   3.938   7.702
 4997SOL    HW215552   2.367   4.073   7.730
 4998SOL     OW15553   2.568   4.781   7.813
 4998SOL    HW115554   2.549   4.771   7.907
 4998SOL    HW215555   2.650   4.732   7.800
 4999SOL     OW15556   2.228   4.823   7.929
 4999SOL    HW115557   2.208   4.903   7.880
 4999SOL    HW215558   2.215   4.752   7.866
 5000SOL     OW15559   3.088   5.113   7.830
 5000SOL    HW115560   3.172   5.126   7.874
 5000SOL    HW215561   3.037   5.060   7.891
 5001SOL     OW15562   3.449   4.354   7.921
 5001SOL    HW115563   3.433   4.413   7.995
 5001SOL    HW215564   3.491   4.409   7.855
 5002SOL     OW15565   3.067   4.251   7.717
 5002SOL    HW115566   3.071   4.168   7.763
 5002SOL    HW215567   3.039   4.314   7.784
 5003SOL     OW15568   3.479   4.102   7.816
 5003SOL    HW115569   3.501   4.034   7.881
 5003SOL    HW215570   3.454   4.178   7.868
 5004SOL     OW15571   3.392   3.999   7.575
 5004SOL    HW115572   3.328   3.933   7.601
 5004SOL    HW215573   3.425   4.034   7.658
 5005SOL     OW15574   3.158   4.552   7.482
 5005SOL    HW115575   3.199   4.465   7.484
 5005SOL    HW215576   3.187   4.591   7.400
 5006SOL     OW15577   1.870   5.046   7.640
 5006SOL    HW115578   1.780   5.059   7.609
 5006SOL    HW215579   1.870   4.957   7.675
 5007SOL     OW15580   2.697   4.318   7.765
 5007SOL    HW115581   2.688   4.228   7.734
 5007SOL    HW215582   2.608   4.353   7.763
 5008SOL     OW15583   2.325   4.217   7.642
 5008SOL    HW115584   2.384   4.291   7.656
 5008SOL    HW215585   2.240   4.257   7.624
 5009SOL     OW15586   3.171   4.576   7.756
 5009SOL    HW115587   3.083   4.574   7.795
 5009SOL    HW215588   3.156   4.566   7.662
 5010SOL     OW15589   3.574   3.868   7.950
 5010SOL    HW115590   3.652   3.860   7.895
 5010SOL    HW215591   3.574   3.790   8.005
 5011SOL     OW15592   2.791   4.636   7.757
 5011SOL    HW115593   2.843   4.662   7.681
 5011SOL    HW215594   2.787   4.541   7.752
 5012SOL     OW15595   2.119   5.061   7.742
 5012SOL    HW115596   2.027   5.063   7.715
 5012SOL    HW215597   2.119   5.099   7.830
 5013SOL     OW15598   1.939   4.060   7.484
 5013SOL    HW115599   1.853   4.039   7.448
 5013SOL    HW215600   1.969   4.134   7.433
 5014SOL     OW15601   1.933   3.882   7.760
 5014SOL    HW115602   1.917   3.959   7.705
 5014SOL    HW215603   2.016   3.847   7.728
 5015SOL     OW15604   3.044   5.059   7.563
 5015SOL    HW115605   2.951   5.035   7.562
 5015SOL    HW215606   3.064   5.073   7.656
 5016SOL     OW15607   3.078   4.042   7.903
 5016SOL    HW115608   3.150   3.981   7.892
 5016SOL    HW215609   3.099   4.090   7.983
 5017SOL     OW15610   2.483   4.457   8.060
 5017SOL    HW115611   2.492   4.542   0.023
 5017SOL    HW215612   2.397   4.460   8.019
 5018SOL     OW15613   2.713   5.095   7.465
 5018SOL    HW115614   2.693   5.095   7.559
 5018SOL    HW215615   2.731   5.186   7.444
 5019SOL     OW15616   2.937   4.705   7.538
 5019SOL    HW115617   2.917   4.760   7.462
 5019SOL    HW215618   3.015   4.656   7.511
 5020SOL     OW15619   2.250   4.149   7.980
 5020SOL    HW115620   2.302   4.098   7.917
 5020SOL    HW215621   2.297   4.138   8.063
 5021SOL     OW15622   2.665   5.047   7.730
 5021SOL    HW115623   2.604   4.975   7.748
 5021SOL    HW215624   2.692   5.077   7.816
 5022SOL     OW15625   3.213   3.777   7.609
 5022SOL    HW115626   3.241   3.713   7.544
 5022SOL    HW215627   3.128   3.746   7.638
 5023SOL     OW15628   1.910   4.802   7.751
 5023SOL    HW115629   2.005   4.793   7.737
 5023SOL    HW215630   1.879   4.713   7.767
 5024SOL     OW15631   3.945   0.625   0.119
 5024SOL    HW115632   3.865   0.592   0.160
 5024SOL    HW215633   3.968   0.558   0.054
 5025SOL     OW15634   3.943   0.283   0.992
 5025SOL    HW115635   3.972   0.249   1.077
 5025SOL    HW215636   3.857   0.242   0.979
 5026SOL     OW15637   3.729   0.385   0.638
 5026SOL    HW115638   3.645   0.406   0.678
 5026SOL    HW215639   3.711   0.306   0.586
 5027SOL     OW15640   4.291   1.285   1.173
 5027SOL    HW115641   4.203   1.288   1.135
 5027SOL    HW215642   4.306   1.373   1.207
 5028SOL     OW15643   5.282   1.543   0.706
 5028SOL    HW115644   5.245   1.492   0.779
 5028SOL    HW215645   5.222   1.527   0.633
 5029SOL     OW15646   4.857   0.700   0.703
 5029SOL    HW115647   4.907   0.781   0.692
 5029SOL    HW215648   4.808   0.712   0.784
 5030SOL     OW15649   4.481   1.144   1.039
 5030SOL    HW115650   4.412   1.177   1.095
 5030SOL    HW215651   4.516   1.221   0.994
 5031SOL     OW15652   4.590   0.780   1.823
 5031SOL    HW115653   4.573   0.852   1.883
 5031SOL    HW215654   4.612   0.822   1.740
 5032SOL     OW15655   4.409   1.005   0.650
 5032SOL    HW115656   4.474   0.991   0.719
 5032SOL    HW215657   4.340   1.056   0.691
 5033SOL     OW15658   4.433   1.151   1.811
 5033SOL    HW115659   4.481   1.231   1.836
 5033SOL    HW215660   4.350   1.184   1.776
 5034SOL     OW15661   4.055   1.428   1.068
 5034SOL    HW115662   3.983   1.391   1.017
 5034SOL    HW215663   4.106   1.478   1.004
 5035SOL     OW15664   5.160   1.483   1.348
 5035SOL    HW115665   5.202   1.564   1.375
 5035SOL    HW215666   5.112   1.454   1.426
 5036SOL     OW15667   4.167   0.399   1.489
 5036SOL    HW115668   4.243   0.340   1.486
 5036SOL    HW215669   4.092   0.341   1.503
 5037SOL     OW15670   3.944   1.714   0.473
 5037SOL    HW115671   3.967   1.790   0.526
 5037SOL    HW215672   4.017   1.705   0.411
 5038SOL     OW15673   4.860   1.339   1.693
 5038SOL    HW115674   4.898   1.336   1.781
 5038SOL    HW215675   4.806   1.260   1.687
 5039SOL     OW15676   3.951   1.440   0.531
 5039SOL    HW115677   3.937   1.535   0.537
 5039SOL    HW215678   3.891   1.403   0.596
 5040SOL     OW15679   3.979   1.090   0.890
 5040SOL    HW115680   3.977   1.004   0.932
 5040SOL    HW215681   3.921   1.144   0.944
 5041SOL     OW15682   4.336   1.792   1.428
 5041SOL    HW115683   4.254   1.774   1.475
 5041SOL    HW215684   4.360   1.881   1.454
 5042SOL     OW15685   4.356   0.962   0.131
 5042SOL    HW115686   4.305   1.039   0.105
 5042SOL    HW215687   4.403   0.990   0.209
 5043SOL     OW15688   5.248   0.147   1.482
 5043SOL    HW115689   5.298   0.225   1.457
 5043SOL    HW215690   5.281   0.126   1.569
 5044SOL     OW15691   3.838   0.650   0.561
 5044SOL    HW115692   3.810   0.561   0.582
 5044SOL    HW215693   3.830   0.698   0.644
 5045SOL     OW15694   3.750   1.597   0.112
 5045SOL    HW115695   3.738   1.508   0.145
 5045SOL    HW215696   3.735   1.653   0.188
 5046SOL     OW15697   0.114   0.946   0.592
 5046SOL    HW115698   0.200   0.906   0.595
 5046SOL    HW215699   0.121   1.014   0.526
 5047SOL     OW15700   3.846   0.743   1.585
 5047SOL    HW115701   3.938   0.766   1.597
 5047SOL    HW215702   3.799   0.826   1.593
 5048SOL     OW15703   4.336   1.384   0.735
 5048SOL    HW115704   4.290   1.300   0.744
 5048SOL    HW215705   4.321   1.410   0.644
 5049SOL     OW15706   5.009   1.238   1.425
 5049SOL    HW115707   5.042   1.171   1.365
 5049SOL    HW215708   5.063   1.228   1.504
 5050SOL     OW15709   4.533   0.023   0.525
 5050SOL    HW115710   4.563   0.110   0.498
 5050SOL    HW215711   4.438   0.028   0.520
 5051SOL     OW15712   3.915   0.968   1.269
 5051SOL    HW115713   3.999   0.925   1.254
 5051SOL    HW215714   3.851   0.911   1.226
 5052SOL     OW15715   4.898   1.807   1.622
 5052SOL    HW115716   4.921   1.864   1.549
 5052SOL    HW215717   4.918   1.719   1.590
 5053SOL     OW15718   4.048   0.264   1.808
 5053SOL    HW115719   4.101   0.339   1.834
 5053SOL    HW215720   3.962   0.281   1.848
 5054SOL     OW15721   5.170   1.433   0.939
 5054SOL    HW115722   5.107   1.440   1.010
 5054SOL    HW215723   5.164   1.342   0.909
 5055SOL     OW15724   4.321   0.716   0.281
 5055SOL    HW115725   4.339   0.792   0.226
 5055SOL    HW215726   4.255   0.747   0.344
 5056SOL     OW15727   4.998   0.329   0.920
 5056SOL    HW115728   4.908   0.304   0.943
 5056SOL    HW215729   5.050   0.302   0.995
 5057SOL     OW15730   4.518   0.618   1.451
 5057SOL    HW115731   4.491   0.596   1.541
 5057SOL    HW215732   4.475   0.552   1.396
 5058SOL     OW15733   5.118   0.485   1.679
 5058SOL    HW115734   5.117   0.520   1.768
 5058SOL    HW215735   5.182   0.414   1.681
 5059SOL     OW15736   4.681   0.889   1.581
 5059SOL    HW115737   4.733   0.816   1.547
 5059SOL    HW215738   4.633   0.922   1.505
 5060SOL     OW15739   4.718   0.422   1.232
 5060SOL    HW115740   4.635   0.437   1.277
 5060SOL    HW215741   4.695   0.366   1.158
 5061SOL     OW15742   4.775   0.697   0.427
 5061SOL    HW115743   4.790   0.691   0.521
 5061SOL    HW215744   4.693   0.652   0.412
 5062SOL     OW15745   3.813   0.821   0.776
 5062SOL    HW115746   3.894   0.813   0.826
 5062SOL    HW215747   3.770   0.899   0.811
 5063SOL     OW15748   3.852   1.841   1.576
 5063SOL    HW115749   3.850   1.822   1.670
 5063SOL    HW215750   3.759   1.843   1.551
 5064SOL     OW15751   4.604   0.359   0.200
 5064SOL    HW115752   4.653   0.401   0.129
 5064SOL    HW215753   4.589   0.269   0.169
 5065SOL     OW15754   5.093   1.146   0.547
 5065SOL    HW115755   5.176   1.138   0.500
 5065SOL    HW215756   5.041   1.205   0.494
 5066SOL     OW15757   4.251   0.201   0.884
 5066SOL    HW115758   4.274   0.215   0.976
 5066SOL    HW215759   4.274   0.283   0.840
 5067SOL     OW15760   4.732   1.446   0.474
 5067SOL    HW115761   4.691   1.516   0.424
 5067SOL    HW215762   4.715   1.468   0.566
 5068SOL     OW15763   4.078   1.807   0.859
 5068SOL    HW115764   4.122   1.723   0.868
 5068SOL    HW215765   4.147   1.872   0.877
 5069SOL     OW15766   4.940   1.544   1.520
 5069SOL    HW115767   4.928   1.469   1.578
 5069SOL    HW215768   4.889   1.523   1.442
 5070SOL     OW15769   4.052   0.942   0.252
 5070SOL    HW115770   4.124   0.982   0.203
 5070SOL    HW215771   4.048   0.852   0.220
 5071SOL     OW15772   4.189   1.264   1.738
 5071SOL    HW115773   4.161   1.268   1.646
 5071SOL    HW215774   4.107   1.262   1.787
 5072SOL     OW15775   4.827   1.775   0.226
 5072SOL    HW115776   4.772   1.734   0.293
 5072SOL    HW215777   4.843   1.705   0.163
 5073SOL     OW15778   3.921   0.278   1.501
 5073SOL    HW115779   3.842   0.332   1.496
 5073SOL    HW215780   3.912   0.231   1.584
 5074SOL     OW15781   4.189   1.739   0.323
 5074SOL    HW115782   4.230   1.797   0.387
 5074SOL    HW215783   4.260   1.713   0.264
 5075SOL     OW15784   5.104   0.112   0.442
 5075SOL    HW115785   5.092   0.073   0.355
 5075SOL    HW215786   5.198   0.129   0.448
 5076SOL     OW15787   3.978   1.792   1.233
 5076SOL    HW115788   4.031   1.728   1.280
 5076SOL    HW215789   3.969   1.755   1.145
 5077SOL     OW15790   4.662   1.698   0.900
 5077SOL    HW115791   4.741   1.647   0.917
 5077SOL    HW215792   4.617   1.649   0.831
 5078SOL     OW15793   4.109   0.698   0.477
 5078SOL    HW115794   4.136   0.606   0.486
 5078SOL    HW215795   4.017   0.698   0.500
 5079SOL     OW15796   4.348   0.136   0.123
 5079SOL    HW115797   4.438   0.107   0.135
 5079SOL    HW215798   4.320   0.098   0.040
 5080SOL     OW15799   4.510   0.312   1.766
 5080SOL    HW115800   4.570   0.238   1.767
 5080SOL    HW215801   4.458   0.302   1.846
 5081SOL     OW15802   4.600   1.521   1.194
 5081SOL    HW115803   4.586   1.486   1.106
 5081SOL    HW215804   4.670   1.467   1.230
 5082SOL     OW15805   5.061   0.591   1.431
 5082SOL    HW115806   5.091   0.559   1.516
 5082SOL    HW215807   5.099   0.678   1.423
 5083SOL     OW15808   4.537   1.397   0.937
 5083SOL    HW115809   4.622   1.386   0.893
 5083SOL    HW215810   4.473   1.396   0.866
 5084SOL     OW15811   4.650   0.510   0.903
 5084SOL    HW115812   4.628   0.500   0.810
 5084SOL    HW215813   4.683   0.424   0.929
 5085SOL     OW15814   4.265   0.062   0.512
 5085SOL    HW115815   4.178   0.061   0.552
 5085SOL    HW215816   4.261   0.132   0.447
 5086SOL     OW15817   5.141   1.172   0.040
 5086SOL    HW115818   5.146   1.103   0.107
 5086SOL    HW215819   5.057   1.214   0.056
 5087SOL     OW15820   4.023   0.066   0.204
 5087SOL    HW115821   4.080   0.135   0.169
 5087SOL    HW215822   4.077   5.287   0.199
 5088SOL     OW15823   4.666   0.253   0.454
 5088SOL    HW115824   4.638   0.300   0.376
 5088SOL    HW215825   4.759   0.277   0.464
 5089SOL     OW15826   4.802   0.680   1.461
 5089SOL    HW115827   4.732   0.615   1.464
 5089SOL    HW215828   4.882   0.629   1.450
 5090SOL     OW15829   4.941   1.572   0.796
 5090SOL    HW115830   4.965   1.637   0.729
 5090SOL    HW215831   5.021   1.560   0.848
 5091SOL     OW15832   4.191   1.149   0.736
 5091SOL    HW115833   4.121   1.130   0.798
 5091SOL    HW215834   4.151   1.132   0.650
 5092SOL     OW15835   4.994   1.795   0.603
 5092SOL    HW115836   5.038   1.858   0.546
 5092SOL    HW215837   4.929   1.846   0.651
 5093SOL     OW15838   4.765   0.536   0.021
 5093SOL    HW115839   4.709   0.611   0.002
 5093SOL    HW215840   4.814   0.562   0.099
 5094SOL     OW15841   3.801   0.554   1.392
 5094SOL    HW115842   3.893   0.553   1.364
 5094SOL    HW215843   3.797   0.624   1.457
 5095SOL     OW15844   4.281   0.237   1.158
 5095SOL    HW115845   4.313   0.151   1.185
 5095SOL    HW215846   4.189   0.239   1.184
 5096SOL     OW15847   4.593   0.461   0.639
 5096SOL    HW115848   4.548   0.514   0.573
 5096SOL    HW215849   4.612   0.379   0.594
 5097SOL     OW15850   4.697   0.063   0.763
 5097SOL    HW115851   4.635   0.052   0.691
 5097SOL    HW215852   4.716   5.274   0.793
 5098SOL     OW15853   5.158   1.175   0.851
 5098SOL    HW115854   5.102   1.099   0.863
 5098SOL    HW215855   5.168   1.182   0.756
 5099SOL     OW15856   4.207   1.438   0.172
 5099SOL    HW115857   4.135   1.395   0.219
 5099SOL    HW215858   4.211   1.393   0.088
 5100SOL     OW15859   5.122   0.574   0.082
 5100SOL    HW115860   5.050   0.557   0.143
 5100SOL    HW215861   5.200   0.543   0.127
 5101SOL     OW15862   4.248   0.267   0.329
 5101SOL    HW115863   4.287   0.211   0.262
 5101SOL    HW215864   4.233   0.351   0.284
 5102SOL     OW15865   4.782   1.354   1.334
 5102SOL    HW115866   4.707   1.323   1.385
 5102SOL    HW215867   4.858   1.311   1.375
 5103SOL     OW15868   0.006   1.604   1.618
 5103SOL    HW115869   0.039   1.612   1.529
 5103SOL    HW215870   0.084   1.584   1.671
 5104SOL     OW15871   4.851   1.202   1.107
 5104SOL    HW115872   4.790   1.238   1.172
 5104SOL    HW215873   4.816   1.231   1.023
 5105SOL     OW15874   4.626   0.104   1.390
 5105SOL    HW115875   4.659   0.070   1.307
 5105SOL    HW215876   4.702   0.147   1.430
 5106SOL     OW15877   4.708   1.113   1.724
 5106SOL    HW115878   4.616   1.130   1.743
 5106SOL    HW215879   4.707   1.036   1.667
 5107SOL     OW15880   4.436   1.062   0.379
 5107SOL    HW115881   4.420   1.045   0.472
 5107SOL    HW215882   4.514   1.009   0.359
 5108SOL     OW15883   4.141   0.814   1.251
 5108SOL    HW115884   4.210   0.823   1.317
 5108SOL    HW215885   4.106   0.726   1.266
 5109SOL     OW15886   4.992   0.380   1.269
 5109SOL    HW115887   5.025   0.458   1.314
 5109SOL    HW215888   4.902   0.401   1.246
 5110SOL     OW15889   3.793   1.573   1.351
 5110SOL    HW115890   3.762   1.646   1.298
 5110SOL    HW215891   3.889   1.578   1.346
 5111SOL     OW15892   4.071   1.109   0.492
 5111SOL    HW115893   4.078   1.182   0.431
 5111SOL    HW215894   4.080   1.031   0.438
 5112SOL     OW15895   4.279   0.539   0.861
 5112SOL    HW115896   4.295   0.597   0.787
 5112SOL    HW215897   4.343   0.565   0.927
 5113SOL     OW15898   4.971   1.347   0.392
 5113SOL    HW115899   5.027   1.419   0.420
 5113SOL    HW215900   4.884   1.369   0.424
 5114SOL     OW15901   4.992   1.455   1.139
 5114SOL    HW115902   5.047   1.459   1.217
 5114SOL    HW215903   4.939   1.376   1.150
 5115SOL     OW15904   4.071   1.525   1.317
 5115SOL    HW115905   4.059   1.483   1.232
 5115SOL    HW215906   4.166   1.538   1.323
 5116SOL     OW15907   4.137   0.745   1.602
 5116SOL    HW115908   4.198   0.790   1.544
 5116SOL    HW215909   4.178   0.660   1.619
 5117SOL     OW15910   4.752   0.114   1.762
 5117SOL    HW115911   4.790   0.195   1.729
 5117SOL    HW215912   4.789   0.046   1.705
 5118SOL     OW15913   4.204   0.056   1.739
 5118SOL    HW115914   4.149   5.292   1.694
 5118SOL    HW215915   4.145   0.128   1.761
 5119SOL     OW15916   4.306   0.873   1.031
 5119SOL    HW115917   4.337   0.963   1.029
 5119SOL    HW215918   4.250   0.868   1.108
 5120SOL     OW15919   5.085   0.857   1.039
 5120SOL    HW115920   5.010   0.844   0.982
 5120SOL    HW215921   5.135   0.776   1.033
 5121SOL     OW15922   4.931   0.531   0.269
 5121SOL    HW115923   4.934   0.448   0.317
 5121SOL    HW215924   4.886   0.591   0.329
 5122SOL     OW15925   4.022   0.205   1.246
 5122SOL    HW115926   3.984   0.244   1.325
 5122SOL    HW215927   4.018   0.111   1.262
 5123SOL     OW15928   3.769   1.310   1.277
 5123SOL    HW115929   3.803   1.257   1.348
 5123SOL    HW215930   3.777   1.400   1.308
 5124SOL     OW15931   4.451   0.632   1.061
 5124SOL    HW115932   4.523   0.614   1.001
 5124SOL    HW215933   4.422   0.721   1.037
 5125SOL     OW15934   4.022   0.073   0.647
 5125SOL    HW115935   4.010   0.167   0.658
 5125SOL    HW215936   4.063   0.044   0.729
 5126SOL     OW15937   0.036   0.405   0.362
 5126SOL    HW115938   0.062   0.343   0.430
 5126SOL    HW215939   0.000   0.480   0.411
 5127SOL     OW15940   4.750   0.759   0.961
 5127SOL    HW115941   4.751   0.777   1.055
 5127SOL    HW215942   4.724   0.668   0.954
 5128SOL     OW15943   4.699   1.562   1.713
 5128SOL    HW115944   4.687   1.609   1.631
 5128SOL    HW215945   4.747   1.483   1.688
 5129SOL     OW15946   4.077   0.916   1.808
 5129SOL    HW115947   4.160   0.934   1.853
 5129SOL    HW215948   4.101   0.854   1.739
 5130SOL     OW15949   5.030   0.831   0.029
 5130SOL    HW115950   5.059   0.741   0.043
 5130SOL    HW215951   5.058   0.852   8.020
 5131SOL     OW15952   4.788   1.334   0.854
 5131SOL    HW115953   4.792   1.262   0.792
 5131SOL    HW215954   4.848   1.400   0.818
 5132SOL     OW15955   4.034   0.809   0.948
 5132SOL    HW115956   4.127   0.831   0.942
 5132SOL    HW215957   4.032   0.720   0.981
 5133SOL     OW15958   4.057   0.524   1.012
 5133SOL    HW115959   4.021   0.437   0.996
 5133SOL    HW215960   4.133   0.529   0.954
 5134SOL     OW15961   4.862   0.377   1.689
 5134SOL    HW115962   4.812   0.432   1.750
 5134SOL    HW215963   4.946   0.421   1.679
 5135SOL     OW15964   4.849   0.233   1.458
 5135SOL    HW115965   4.861   0.282   1.540
 5135SOL    HW215966   4.913   0.269   1.398
 5136SOL     OW15967   3.734   1.325   0.191
 5136SOL    HW115968   3.647   1.339   0.154
 5136SOL    HW215969   3.733   1.235   0.222
 5137SOL     OW15970   3.814   1.789   0.937
 5137SOL    HW115971   3.784   1.709   0.894
 5137SOL    HW215972   3.904   1.800   0.906
 5138SOL     OW15973   4.222   1.573   0.906
 5138SOL    HW115974   4.290   1.635   0.930
 5138SOL    HW215975   4.266   1.509   0.850
 5139SOL     OW15976   4.710   0.795   1.228
 5139SOL    HW115977   4.763   0.769   1.303
 5139SOL    HW215978   4.624   0.755   1.245
 5140SOL     OW15979   3.760   0.543   1.117
 5140SOL    HW115980   3.840   0.527   1.067
 5140SOL    HW215981   3.788   0.548   1.208
 5141SOL     OW15982   3.912   0.520   1.726
 5141SOL    HW115983   3.974   0.486   1.662
 5141SOL    HW215984   3.869   0.593   1.681
 5142SOL     OW15985   5.111   0.940   1.666
 5142SOL    HW115986   5.120   1.034   1.655
 5142SOL    HW215987   5.112   0.905   1.577
 5143SOL     OW15988   4.542   0.571   0.362
 5143SOL    HW115989   4.548   0.498   0.301
 5143SOL    HW215990   4.465   0.620   0.334
 5144SOL     OW15991   3.969   1.552   1.729
 5144SOL    HW115992   3.945   1.616   1.797
 5144SOL    HW215993   3.969   1.468   1.775
 5145SOL     OW15994   4.418   0.454   1.263
 5145SOL    HW115995   4.370   0.379   1.228
 5145SOL    HW215996   4.420   0.517   1.191
 5146SOL     OW15997   4.647   1.680   1.468
 5146SOL    HW115998   4.625   1.649   1.380
 5146SOL    HW215999   4.649   1.775   1.460
 5147SOL     OW16000   4.193   0.492   0.178
 5147SOL    HW116001   4.259   0.558   0.198
 5147SOL    HW216002   4.109   0.537   0.192
 5148SOL     OW16003   3.871   1.140   1.471
 5148SOL    HW116004   3.875   1.087   1.551
 5148SOL    HW216005   3.888   1.078   1.401
 5149SOL     OW16006   5.055   1.051   1.225
 5149SOL    HW116007   5.077   0.986   1.158
 5149SOL    HW216008   4.982   1.100   1.188
 5150SOL     OW16009   5.024   0.867   0.319
 5150SOL    HW116010   4.946   0.824   0.353
 5150SOL    HW216011   5.022   0.850   0.224
 5151SOL     OW16012   4.961   1.731   1.123
 5151SOL    HW116013   5.046   1.750   1.083
 5151SOL    HW216014   4.959   1.636   1.133
 5152SOL     OW16015   3.807   1.267   1.013
 5152SOL    HW116016   3.794   1.278   1.107
 5152SOL    HW216017   3.734   1.212   0.984
 5153SOL     OW16018   4.401   1.664   1.726
 5153SOL    HW116019   4.351   1.745   1.721
 5153SOL    HW216020   4.468   1.673   1.658
 5154SOL     OW16021   4.615   0.086   0.141
 5154SOL    HW116022   4.661   0.077   0.057
 5154SOL    HW216023   4.635   0.004   0.187
 5155SOL     OW16024   5.108   1.569   0.478
 5155SOL    HW116025   5.162   1.610   0.410
 5155SOL    HW216026   5.061   1.642   0.518
 5156SOL     OW16027   3.859   1.797   1.843
 5156SOL    HW116028   3.808   1.732   1.892
 5156SOL    HW216029   3.908   1.845   1.911
 5157SOL     OW16030   5.015   0.920   0.674
 5157SOL    HW116031   5.091   0.863   0.658
 5157SOL    HW216032   5.034   0.999   0.624
 5158SOL     OW16033   4.541   1.273   1.431
 5158SOL    HW116034   4.513   1.312   1.514
 5158SOL    HW216035   4.471   1.295   1.370
 5159SOL     OW16036   4.401   1.619   0.156
 5159SOL    HW116037   4.406   1.625   0.061
 5159SOL    HW216038   4.340   1.546   0.172
 5160SOL     OW16039   3.988   0.329   0.720
 5160SOL    HW116040   3.900   0.360   0.697
 5160SOL    HW216041   3.984   0.316   0.815
 5161SOL     OW16042   4.861   1.580   0.046
 5161SOL    HW116043   4.903   1.495   0.061
 5161SOL    HW216044   4.895   1.609   8.042
 5162SOL     OW16045   4.548   1.006   1.372
 5162SOL    HW116046   4.592   1.001   1.287
 5162SOL    HW216047   4.549   1.099   1.395
 5163SOL     OW16048   4.643   0.914   0.299
 5163SOL    HW116049   4.696   0.939   0.223
 5163SOL    HW216050   4.689   0.840   0.338
 5164SOL     OW16051   4.093   1.302   1.492
 5164SOL    HW116052   4.080   1.379   1.437
 5164SOL    HW216053   4.016   1.247   1.475
 5165SOL     OW16054   4.774   1.106   0.707
 5165SOL    HW116055   4.703   1.055   0.747
 5165SOL    HW216056   4.831   1.041   0.666
 5166SOL     OW16057   4.739   0.242   0.970
 5166SOL    HW116058   4.721   0.196   0.888
 5166SOL    HW216059   4.734   0.174   1.037
 5167SOL     OW16060   4.326   1.488   0.481
 5167SOL    HW116061   4.368   1.437   0.412
 5167SOL    HW216062   4.258   1.539   0.436
 5168SOL     OW16063   3.989   1.322   0.293
 5168SOL    HW116064   3.903   1.334   0.254
 5168SOL    HW216065   3.984   1.368   0.377
 5169SOL     OW16066   3.836   1.020   1.719
 5169SOL    HW116067   3.760   0.997   1.772
 5169SOL    HW216068   3.911   0.983   1.767
 5170SOL     OW16069   4.395   0.210   1.487
 5170SOL    HW116070   4.479   0.190   1.445
 5170SOL    HW216071   4.420   0.258   1.567
 5171SOL     OW16072   3.792   0.361   0.035
 5171SOL    HW116073   3.720   0.300   0.021
 5171SOL    HW216074   3.808   0.399   8.029
 5172SOL     OW16075   5.163   0.860   1.404
 5172SOL    HW116076   5.109   0.914   1.347
 5172SOL    HW216077   5.252   0.870   1.370
 5173SOL     OW16078   3.793   0.165   0.314
 5173SOL    HW116079   3.798   0.252   0.274
 5173SOL    HW216080   3.878   0.125   0.296
 5174SOL     OW16081   4.915   1.316   0.121
 5174SOL    HW116082   4.819   1.315   0.115
 5174SOL    HW216083   4.933   1.323   0.214
 5175SOL     OW16084   4.342   0.831   1.433
 5175SOL    HW116085   4.398   0.907   1.418
 5175SOL    HW216086   4.404   0.758   1.441
 5176SOL     OW16087   4.440   0.571   1.704
 5176SOL    HW116088   4.478   0.633   1.766
 5176SOL    HW216089   4.472   0.486   1.733
 5177SOL     OW16090   5.183   1.205   1.632
 5177SOL    HW116091   5.174   1.217   1.727
 5177SOL    HW216092   5.277   1.211   1.616
 5178SOL     OW16093   4.105   1.740   1.564
 5178SOL    HW116094   4.019   1.779   1.551
 5178SOL    HW216095   4.087   1.655   1.606
 5179SOL     OW16096   4.938   0.331   0.472
 5179SOL    HW116097   4.993   0.254   0.456
 5179SOL    HW216098   4.977   0.372   0.550
 5180SOL     OW16099   4.313   0.739   0.668
 5180SOL    HW116100   4.354   0.825   0.652
 5180SOL    HW216101   4.244   0.733   0.602
 5181SOL     OW16102   4.616   1.371   0.030
 5181SOL    HW116103   4.552   1.366   0.101
 5181SOL    HW216104   4.613   1.462   0.001
 5182SOL     OW16105   4.383   1.793   0.946
 5182SOL    HW116106   4.363   1.884   0.922
 5182SOL    HW216107   4.478   1.787   0.939
 5183SOL     OW16108   4.591   0.966   0.856
 5183SOL    HW116109   4.641   0.895   0.896
 5183SOL    HW216110   4.557   1.016   0.930
 5184SOL     OW16111   4.801   0.975   0.086
 5184SOL    HW116112   4.790   1.038   0.014
 5184SOL    HW216113   4.883   0.931   0.067
 5185SOL     OW16114   3.948   1.304   1.856
 5185SOL    HW116115   3.881   1.243   1.827
 5185SOL    HW216116   3.932   1.316   1.949
 5186SOL     OW16117   3.808   1.234   0.664
 5186SOL    HW116118   3.810   1.184   0.746
 5186SOL    HW216119   3.880   1.198   0.612
 5187SOL     OW16120   4.404   1.400   1.627
 5187SOL    HW116121   4.324   1.358   1.658
 5187SOL    HW216122   4.400   1.489   1.663
 5188SOL     OW16123   4.150   0.437   0.522
 5188SOL    HW116124   4.185   0.365   0.470
 5188SOL    HW216125   4.108   0.395   0.597
 5189SOL     OW16126   0.096   1.522   1.099
 5189SOL    HW116127   0.028   1.494   1.037
 5189SOL    HW216128   0.110   1.446   1.156
 5190SOL     OW16129   4.051   0.554   1.290
 5190SOL    HW116130   4.108   0.500   1.345
 5190SOL    HW216131   4.072   0.527   1.201
 5191SOL     OW16132   4.550   1.578   0.678
 5191SOL    HW116133   4.542   1.626   0.596
 5191SOL    HW216134   4.472   1.522   0.681
 5192SOL     OW16135   5.153   0.217   1.120
 5192SOL    HW116136   5.160   0.133   1.166
 5192SOL    HW216137   5.105   0.274   1.181
 5193SOL     OW16138   4.725   0.022   1.142
 5193SOL    HW116139   4.675   5.252   1.101
 5193SOL    HW216140   4.813   5.285   1.153
 5194SOL     OW16141   4.493   1.328   0.308
 5194SOL    HW116142   4.461   1.239   0.320
 5194SOL    HW216143   4.576   1.330   0.355
 5195SOL     OW16144   4.344   1.558   1.284
 5195SOL    HW116145   4.346   1.639   1.334
 5195SOL    HW216146   4.431   1.550   1.246
 5196SOL     OW16147   5.074   5.297   0.201
 5196SOL    HW116148   5.137   0.012   0.130
 5196SOL    HW216149   4.999   0.051   0.178
 5197SOL     OW16150   5.034   0.464   0.691
 5197SOL    HW116151   4.973   0.539   0.693
 5197SOL    HW216152   5.020   0.420   0.775
 5198SOL     OW16153   5.296   0.214   0.880
 5198SOL    HW116154   5.236   0.218   0.955
 5198SOL    HW216155   5.281   0.296   0.833
 5199SOL     OW16156   3.766   1.068   0.302
 5199SOL    HW116157   3.862   1.067   0.304
 5199SOL    HW216158   3.740   0.986   0.344
 5200SOL     OW16159   4.604   1.650   0.350
 5200SOL    HW116160   4.537   1.634   0.283
 5200SOL    HW216161   4.572   1.727   0.397
 5201SOL     OW16162   3.953   0.625   1.984
 5201SOL    HW116163   3.864   0.622   2.018
 5201SOL    HW216164   3.945   0.598   1.892
 5202SOL     OW16165   3.943   0.283   2.854
 5202SOL    HW116166   3.972   0.249   2.939
 5202SOL    HW216167   3.857   0.243   2.841
 5203SOL     OW16168   3.729   0.384   2.501
 5203SOL    HW116169   3.645   0.406   2.541
 5203SOL    HW216170   3.712   0.307   2.447
 5204SOL     OW16171   4.291   1.284   3.035
 5204SOL    HW116172   4.203   1.287   2.997
 5204SOL    HW216173   4.305   1.373   3.069
 5205SOL     OW16174   5.283   1.535   2.567
 5205SOL    HW116175   5.244   1.491   2.643
 5205SOL    HW216176   5.218   1.525   2.498
 5206SOL     OW16177   4.858   0.699   2.564
 5206SOL    HW116178   4.907   0.780   2.554
 5206SOL    HW216179   4.808   0.711   2.645
 5207SOL     OW16180   4.482   1.144   2.901
 5207SOL    HW116181   4.412   1.177   2.957
 5207SOL    HW216182   4.516   1.221   2.856
 5208SOL     OW16183   4.590   0.780   3.685
 5208SOL    HW116184   4.573   0.852   3.745
 5208SOL    HW216185   4.612   0.822   3.602
 5209SOL     OW16186   4.411   1.005   2.510
 5209SOL    HW116187   4.474   0.992   2.580
 5209SOL    HW216188   4.340   1.056   2.551
 5210SOL     OW16189   4.433   1.152   3.672
 5210SOL    HW116190   4.480   1.231   3.698
 5210SOL    HW216191   4.350   1.184   3.638
 5211SOL     OW16192   4.055   1.428   2.930
 5211SOL    HW116193   3.983   1.391   2.879
 5211SOL    HW216194   4.106   1.478   2.866
 5212SOL     OW16195   5.160   1.483   3.210
 5212SOL    HW116196   5.203   1.564   3.236
 5212SOL    HW216197   5.112   1.454   3.288
 5213SOL     OW16198   4.167   0.399   3.351
 5213SOL    HW116199   4.243   0.340   3.348
 5213SOL    HW216200   4.092   0.341   3.365
 5214SOL     OW16201   3.943   1.714   2.335
 5214SOL    HW116202   3.966   1.790   2.388
 5214SOL    HW216203   4.015   1.706   2.272
 5215SOL     OW16204   4.860   1.339   3.555
 5215SOL    HW116205   4.898   1.336   3.643
 5215SOL    HW216206   4.806   1.260   3.549
 5216SOL     OW16207   3.954   1.440   2.396
 5216SOL    HW116208   3.937   1.535   2.401
 5216SOL    HW216209   3.892   1.402   2.459
 5217SOL     OW16210   3.979   1.090   2.753
 5217SOL    HW116211   3.976   1.004   2.794
 5217SOL    HW216212   3.921   1.144   2.806
 5218SOL     OW16213   4.336   1.792   3.291
 5218SOL    HW116214   4.254   1.774   3.338
 5218SOL    HW216215   4.360   1.881   3.316
 5219SOL     OW16216   4.312   0.980   1.995
 5219SOL    HW116217   4.355   1.032   1.927
 5219SOL    HW216218   4.352   1.010   2.076
 5220SOL     OW16219   5.250   0.145   3.342
 5220SOL    HW116220   5.297   0.225   3.318
 5220SOL    HW216221   5.280   0.126   3.432
 5221SOL     OW16222   3.838   0.652   2.421
 5221SOL    HW116223   3.810   0.563   2.442
 5221SOL    HW216224   3.830   0.700   2.504
 5222SOL     OW16225   3.754   1.596   1.986
 5222SOL    HW116226   3.737   1.504   2.006
 5222SOL    HW216227   3.731   1.643   2.066
 5223SOL     OW16228   0.112   0.941   2.439
 5223SOL    HW116229   0.199   0.905   2.457
 5223SOL    HW216230   0.129   1.022   2.392
 5224SOL     OW16231   3.846   0.743   3.447
 5224SOL    HW116232   3.938   0.766   3.459
 5224SOL    HW216233   3.799   0.826   3.456
 5225SOL     OW16234   4.337   1.383   2.597
 5225SOL    HW116235   4.290   1.300   2.606
 5225SOL    HW216236   4.320   1.410   2.507
 5226SOL     OW16237   5.009   1.238   3.287
 5226SOL    HW116238   5.042   1.171   3.227
 5226SOL    HW216239   5.063   1.228   3.366
 5227SOL     OW16240   4.533   0.023   2.388
 5227SOL    HW116241   4.562   0.111   2.364
 5227SOL    HW216242   4.437   0.027   2.382
 5228SOL     OW16243   3.915   0.968   3.131
 5228SOL    HW116244   3.999   0.925   3.116
 5228SOL    HW216245   3.851   0.911   3.088
 5229SOL     OW16246   4.899   1.807   3.484
 5229SOL    HW116247   4.921   1.864   3.411
 5229SOL    HW216248   4.918   1.719   3.452
 5230SOL     OW16249   4.048   0.264   3.670
 5230SOL    HW116250   4.101   0.340   3.696
 5230SOL    HW216251   3.962   0.281   3.710
 5231SOL     OW16252   5.170   1.433   2.801
 5231SOL    HW116253   5.107   1.440   2.873
 5231SOL    HW216254   5.163   1.342   2.772
 5232SOL     OW16255   4.319   0.723   2.127
 5232SOL    HW116256   4.325   0.803   2.075
 5232SOL    HW216257   4.254   0.742   2.194
 5233SOL     OW16258   4.998   0.329   2.781
 5233SOL    HW116259   4.908   0.305   2.805
 5233SOL    HW216260   5.051   0.302   2.856
 5234SOL     OW16261   4.518   0.618   3.313
 5234SOL    HW116262   4.491   0.596   3.402
 5234SOL    HW216263   4.475   0.552   3.258
 5235SOL     OW16264   5.118   0.485   3.541
 5235SOL    HW116265   5.117   0.520   3.630
 5235SOL    HW216266   5.183   0.415   3.544
 5236SOL     OW16267   4.681   0.889   3.443
 5236SOL    HW116268   4.733   0.816   3.409
 5236SOL    HW216269   4.633   0.922   3.367
 5237SOL     OW16270   4.718   0.421   3.095
 5237SOL    HW116271   4.635   0.438   3.140
 5237SOL    HW216272   4.694   0.366   3.020
 5238SOL     OW16273   4.774   0.697   2.288
 5238SOL    HW116274   4.788   0.691   2.382
 5238SOL    HW216275   4.691   0.652   2.273
 5239SOL     OW16276   3.812   0.820   2.638
 5239SOL    HW116277   3.894   0.813   2.688
 5239SOL    HW216278   3.770   0.899   2.673
 5240SOL     OW16279   3.851   1.840   3.438
 5240SOL    HW116280   3.851   1.822   3.532
 5240SOL    HW216281   3.759   1.845   3.414
 5241SOL     OW16282   4.594   0.360   2.052
 5241SOL    HW116283   4.636   0.417   1.987
 5241SOL    HW216284   4.643   0.278   2.046
 5242SOL     OW16285   5.091   1.145   2.408
 5242SOL    HW116286   5.178   1.143   2.367
 5242SOL    HW216287   5.041   1.206   2.354
 5243SOL     OW16288   4.253   0.201   2.745
 5243SOL    HW116289   4.275   0.215   2.837
 5243SOL    HW216290   4.274   0.284   2.702
 5244SOL     OW16291   4.732   1.444   2.335
 5244SOL    HW116292   4.692   1.516   2.286
 5244SOL    HW216293   4.716   1.467   2.427
 5245SOL     OW16294   4.078   1.807   2.722
 5245SOL    HW116295   4.122   1.723   2.730
 5245SOL    HW216296   4.147   1.872   2.739
 5246SOL     OW16297   4.940   1.544   3.382
 5246SOL    HW116298   4.928   1.469   3.440
 5246SOL    HW216299   4.888   1.523   3.305
 5247SOL     OW16300   4.045   0.956   2.111
 5247SOL    HW116301   4.127   0.975   2.065
 5247SOL    HW216302   4.014   0.875   2.072
 5248SOL     OW16303   4.189   1.263   3.599
 5248SOL    HW116304   4.161   1.268   3.508
 5248SOL    HW216305   4.107   1.262   3.649
 5249SOL     OW16306   4.834   1.775   2.098
 5249SOL    HW116307   4.763   1.730   2.143
 5249SOL    HW216308   4.858   1.716   2.026
 5250SOL     OW16309   3.921   0.278   3.363
 5250SOL    HW116310   3.842   0.332   3.358
 5250SOL    HW216311   3.912   0.231   3.446
 5251SOL     OW16312   4.190   1.738   2.183
 5251SOL    HW116313   4.231   1.795   2.248
 5251SOL    HW216314   4.263   1.709   2.128
 5252SOL     OW16315   5.102   0.099   2.284
 5252SOL    HW116316   5.086   0.083   2.191
 5252SOL    HW216317   5.195   0.119   2.289
 5253SOL     OW16318   3.978   1.792   3.095
 5253SOL    HW116319   4.031   1.728   3.142
 5253SOL    HW216320   3.969   1.755   3.006
 5254SOL     OW16321   4.662   1.698   2.762
 5254SOL    HW116322   4.741   1.646   2.780
 5254SOL    HW216323   4.617   1.649   2.693
 5255SOL     OW16324   4.115   0.696   2.339
 5255SOL    HW116325   4.138   0.603   2.349
 5255SOL    HW216326   4.021   0.700   2.357
 5256SOL     OW16327   4.346   0.133   1.970
 5256SOL    HW116328   4.420   0.075   1.987
 5256SOL    HW216329   4.298   0.090   1.899
 5257SOL     OW16330   4.510   0.312   3.628
 5257SOL    HW116331   4.570   0.237   3.629
 5257SOL    HW216332   4.458   0.302   3.708
 5258SOL     OW16333   4.600   1.521   3.055
 5258SOL    HW116334   4.585   1.485   2.968
 5258SOL    HW216335   4.670   1.467   3.092
 5259SOL     OW16336   5.061   0.591   3.293
 5259SOL    HW116337   5.091   0.559   3.378
 5259SOL    HW216338   5.099   0.678   3.285
 5260SOL     OW16339   4.537   1.396   2.799
 5260SOL    HW116340   4.621   1.386   2.755
 5260SOL    HW216341   4.473   1.396   2.729
 5261SOL     OW16342   4.651   0.510   2.765
 5261SOL    HW116343   4.628   0.501   2.673
 5261SOL    HW216344   4.683   0.424   2.791
 5262SOL     OW16345   4.266   0.063   2.372
 5262SOL    HW116346   4.180   0.063   2.414
 5262SOL    HW216347   4.260   0.133   2.307
 5263SOL     OW16348   5.138   1.180   1.905
 5263SOL    HW116349   5.151   1.103   1.961
 5263SOL    HW216350   5.050   1.211   1.926
 5264SOL     OW16351   4.025   0.060   2.051
 5264SOL    HW116352   4.085   0.128   2.020
 5264SOL    HW216353   4.082   5.284   2.067
 5265SOL     OW16354   4.661   0.258   2.326
 5265SOL    HW116355   4.631   0.294   2.242
 5265SOL    HW216356   4.756   0.272   2.326
 5266SOL     OW16357   4.802   0.680   3.323
 5266SOL    HW116358   4.732   0.615   3.326
 5266SOL    HW216359   4.882   0.628   3.312
 5267SOL     OW16360   4.942   1.571   2.656
 5267SOL    HW116361   4.965   1.637   2.591
 5267SOL    HW216362   5.020   1.562   2.710
 5268SOL     OW16363   4.192   1.148   2.597
 5268SOL    HW116364   4.121   1.129   2.660
 5268SOL    HW216365   4.153   1.131   2.512
 5269SOL     OW16366   4.997   1.794   2.466
 5269SOL    HW116367   5.039   1.856   2.406
 5269SOL    HW216368   4.931   1.847   2.512
 5270SOL     OW16369   4.755   0.552   1.880
 5270SOL    HW116370   4.707   0.633   1.862
 5270SOL    HW216371   4.808   0.572   1.956
 5271SOL     OW16372   3.801   0.554   3.254
 5271SOL    HW116373   3.893   0.553   3.226
 5271SOL    HW216374   3.797   0.624   3.319
 5272SOL     OW16375   4.281   0.237   3.019
 5272SOL    HW116376   4.312   0.151   3.047
 5272SOL    HW216377   4.189   0.239   3.046
 5273SOL     OW16378   4.594   0.463   2.502
 5273SOL    HW116379   4.545   0.515   2.438
 5273SOL    HW216380   4.613   0.381   2.456
 5274SOL     OW16381   4.700   0.062   2.624
 5274SOL    HW116382   4.636   0.052   2.553
 5274SOL    HW216383   4.714   5.273   2.656
 5275SOL     OW16384   5.158   1.175   2.713
 5275SOL    HW116385   5.101   1.099   2.726
 5275SOL    HW216386   5.169   1.182   2.619
 5276SOL     OW16387   4.215   1.416   2.021
 5276SOL    HW116388   4.141   1.386   2.073
 5276SOL    HW216389   4.198   1.383   1.933
 5277SOL     OW16390   5.127   0.561   1.941
 5277SOL    HW116391   5.052   0.552   2.001
 5277SOL    HW216392   5.202   0.531   1.993
 5278SOL     OW16393   4.248   0.264   2.184
 5278SOL    HW116394   4.291   0.214   2.115
 5278SOL    HW216395   4.230   0.349   2.144
 5279SOL     OW16396   4.782   1.353   3.195
 5279SOL    HW116397   4.707   1.323   3.247
 5279SOL    HW216398   4.858   1.311   3.237
 5280SOL     OW16399   0.006   1.603   3.480
 5280SOL    HW116400   0.039   1.612   3.391
 5280SOL    HW216401   0.084   1.584   3.533
 5281SOL     OW16402   4.851   1.201   2.969
 5281SOL    HW116403   4.791   1.238   3.034
 5281SOL    HW216404   4.816   1.231   2.885
 5282SOL     OW16405   4.626   0.104   3.252
 5282SOL    HW116406   4.659   0.070   3.169
 5282SOL    HW216407   4.702   0.147   3.292
 5283SOL     OW16408   4.708   1.113   3.586
 5283SOL    HW116409   4.616   1.130   3.605
 5283SOL    HW216410   4.707   1.036   3.529
 5284SOL     OW16411   4.432   1.061   2.234
 5284SOL    HW116412   4.418   1.046   2.327
 5284SOL    HW216413   4.508   1.007   2.211
 5285SOL     OW16414   4.141   0.814   3.113
 5285SOL    HW116415   4.210   0.823   3.179
 5285SOL    HW216416   4.106   0.726   3.128
 5286SOL     OW16417   4.992   0.380   3.131
 5286SOL    HW116418   5.025   0.458   3.176
 5286SOL    HW216419   4.902   0.401   3.108
 5287SOL     OW16420   3.793   1.572   3.212
 5287SOL    HW116421   3.763   1.647   3.160
 5287SOL    HW216422   3.889   1.578   3.209
 5288SOL     OW16423   4.076   1.107   2.353
 5288SOL    HW116424   4.080   1.181   2.292
 5288SOL    HW216425   4.074   1.030   2.298
 5289SOL     OW16426   4.279   0.539   2.723
 5289SOL    HW116427   4.295   0.596   2.648
 5289SOL    HW216428   4.343   0.566   2.789
 5290SOL     OW16429   4.972   1.348   2.250
 5290SOL    HW116430   5.026   1.421   2.281
 5290SOL    HW216431   4.884   1.368   2.283
 5291SOL     OW16432   4.992   1.455   3.001
 5291SOL    HW116433   5.047   1.459   3.079
 5291SOL    HW216434   4.939   1.377   3.012
 5292SOL     OW16435   4.071   1.525   3.179
 5292SOL    HW116436   4.059   1.483   3.094
 5292SOL    HW216437   4.166   1.538   3.185
 5293SOL     OW16438   4.137   0.745   3.464
 5293SOL    HW116439   4.198   0.790   3.406
 5293SOL    HW216440   4.179   0.660   3.481
 5294SOL     OW16441   4.752   0.114   3.624
 5294SOL    HW116442   4.790   0.195   3.592
 5294SOL    HW216443   4.788   0.046   3.567
 5295SOL     OW16444   4.204   0.056   3.601
 5295SOL    HW116445   4.149   5.292   3.556
 5295SOL    HW216446   4.145   0.128   3.623
 5296SOL     OW16447   4.307   0.872   2.893
 5296SOL    HW116448   4.337   0.963   2.891
 5296SOL    HW216449   4.250   0.867   2.970
 5297SOL     OW16450   5.086   0.858   2.900
 5297SOL    HW116451   5.009   0.843   2.845
 5297SOL    HW216452   5.134   0.775   2.896
 5298SOL     OW16453   4.932   0.532   2.130
 5298SOL    HW116454   4.935   0.450   2.180
 5298SOL    HW216455   4.887   0.594   2.187
 5299SOL     OW16456   4.022   0.205   3.108
 5299SOL    HW116457   3.984   0.244   3.187
 5299SOL    HW216458   4.018   0.111   3.124
 5300SOL     OW16459   3.769   1.310   3.139
 5300SOL    HW116460   3.803   1.257   3.211
 5300SOL    HW216461   3.777   1.400   3.170
 5301SOL     OW16462   4.450   0.632   2.923
 5301SOL    HW116463   4.523   0.614   2.863
 5301SOL    HW216464   4.422   0.721   2.899
 5302SOL     OW16465   4.024   0.073   2.508
 5302SOL    HW116466   4.011   0.167   2.520
 5302SOL    HW216467   4.062   0.044   2.591
 5303SOL     OW16468   0.028   0.404   2.227
 5303SOL    HW116469   0.061   0.343   2.292
 5303SOL    HW216470   0.002   0.481   2.278
 5304SOL     OW16471   4.751   0.759   2.823
 5304SOL    HW116472   4.751   0.777   2.918
 5304SOL    HW216473   4.724   0.668   2.816
 5305SOL     OW16474   4.699   1.562   3.575
 5305SOL    HW116475   4.687   1.610   3.493
 5305SOL    HW216476   4.747   1.483   3.550
 5306SOL     OW16477   4.077   0.916   3.670
 5306SOL    HW116478   4.160   0.934   3.715
 5306SOL    HW216479   4.101   0.853   3.602
 5307SOL     OW16480   5.028   0.830   1.899
 5307SOL    HW116481   5.062   0.741   1.899
 5307SOL    HW216482   5.054   0.866   1.814
 5308SOL     OW16483   4.789   1.334   2.716
 5308SOL    HW116484   4.792   1.262   2.653
 5308SOL    HW216485   4.848   1.400   2.680
 5309SOL     OW16486   4.034   0.810   2.810
 5309SOL    HW116487   4.127   0.831   2.803
 5309SOL    HW216488   4.032   0.720   2.843
 5310SOL     OW16489   4.057   0.524   2.874
 5310SOL    HW116490   4.021   0.437   2.858
 5310SOL    HW216491   4.133   0.529   2.816
 5311SOL     OW16492   4.861   0.377   3.550
 5311SOL    HW116493   4.812   0.432   3.611
 5311SOL    HW216494   4.946   0.421   3.542
 5312SOL     OW16495   4.849   0.233   3.321
 5312SOL    HW116496   4.861   0.282   3.402
 5312SOL    HW216497   4.913   0.270   3.260
 5313SOL     OW16498   3.729   1.322   2.057
 5313SOL    HW116499   3.642   1.336   2.019
 5313SOL    HW216500   3.727   1.232   2.090
 5314SOL     OW16501   3.814   1.789   2.799
 5314SOL    HW116502   3.784   1.709   2.756
 5314SOL    HW216503   3.904   1.800   2.768
 5315SOL     OW16504   4.222   1.573   2.768
 5315SOL    HW116505   4.291   1.636   2.792
 5315SOL    HW216506   4.266   1.509   2.712
 5316SOL     OW16507   4.710   0.795   3.090
 5316SOL    HW116508   4.763   0.768   3.165
 5316SOL    HW216509   4.624   0.756   3.107
 5317SOL     OW16510   3.759   0.543   2.979
 5317SOL    HW116511   3.840   0.528   2.929
 5317SOL    HW216512   3.788   0.548   3.070
 5318SOL     OW16513   3.912   0.520   3.588
 5318SOL    HW116514   3.974   0.486   3.524
 5318SOL    HW216515   3.869   0.593   3.543
 5319SOL     OW16516   5.111   0.940   3.528
 5319SOL    HW116517   5.120   1.034   3.517
 5319SOL    HW216518   5.112   0.905   3.439
 5320SOL     OW16519   4.539   0.573   2.219
 5320SOL    HW116520   4.540   0.496   2.161
 5320SOL    HW216521   4.464   0.624   2.190
 5321SOL     OW16522   3.970   1.552   3.591
 5321SOL    HW116523   3.945   1.616   3.658
 5321SOL    HW216524   3.969   1.468   3.637
 5322SOL     OW16525   4.418   0.454   3.125
 5322SOL    HW116526   4.370   0.379   3.090
 5322SOL    HW216527   4.420   0.517   3.053
 5323SOL     OW16528   4.647   1.680   3.330
 5323SOL    HW116529   4.625   1.649   3.242
 5323SOL    HW216530   4.649   1.775   3.322
 5324SOL     OW16531   4.189   0.493   2.047
 5324SOL    HW116532   4.248   0.565   2.069
 5324SOL    HW216533   4.103   0.535   2.038
 5325SOL     OW16534   3.871   1.140   3.334
 5325SOL    HW116535   3.875   1.087   3.413
 5325SOL    HW216536   3.888   1.078   3.263
 5326SOL     OW16537   5.055   1.050   3.087
 5326SOL    HW116538   5.077   0.986   3.020
 5326SOL    HW216539   4.982   1.100   3.051
 5327SOL     OW16540   5.034   0.858   2.178
 5327SOL    HW116541   4.951   0.826   2.215
 5327SOL    HW216542   5.022   0.851   2.084
 5328SOL     OW16543   4.961   1.731   2.984
 5328SOL    HW116544   5.046   1.750   2.946
 5328SOL    HW216545   4.960   1.636   2.995
 5329SOL     OW16546   3.807   1.267   2.875
 5329SOL    HW116547   3.794   1.278   2.969
 5329SOL    HW216548   3.734   1.212   2.846
 5330SOL     OW16549   4.401   1.664   3.588
 5330SOL    HW116550   4.350   1.745   3.583
 5330SOL    HW216551   4.468   1.674   3.520
 5331SOL     OW16552   5.111   1.570   2.341
 5331SOL    HW116553   5.180   1.609   2.287
 5331SOL    HW216554   5.062   1.644   2.376
 5332SOL     OW16555   3.860   1.797   3.705
 5332SOL    HW116556   3.809   1.732   3.754
 5332SOL    HW216557   3.908   1.845   3.772
 5333SOL     OW16558   5.015   0.919   2.535
 5333SOL    HW116559   5.092   0.864   2.522
 5333SOL    HW216560   5.034   0.999   2.486
 5334SOL     OW16561   4.541   1.273   3.293
 5334SOL    HW116562   4.513   1.312   3.376
 5334SOL    HW216563   4.471   1.295   3.232
 5335SOL     OW16564   4.396   1.618   2.018
 5335SOL    HW116565   4.406   1.629   1.923
 5335SOL    HW216566   4.341   1.540   2.027
 5336SOL     OW16567   3.988   0.329   2.582
 5336SOL    HW116568   3.900   0.360   2.559
 5336SOL    HW216569   3.984   0.316   2.677
 5337SOL     OW16570   4.909   1.610   1.902
 5337SOL    HW116571   4.920   1.515   1.914
 5337SOL    HW216572   4.856   1.618   1.824
 5338SOL     OW16573   4.548   1.006   3.234
 5338SOL    HW116574   4.591   1.002   3.149
 5338SOL    HW216575   4.548   1.099   3.257
 5339SOL     OW16576   4.640   0.911   2.152
 5339SOL    HW116577   4.702   0.943   2.086
 5339SOL    HW216578   4.686   0.839   2.196
 5340SOL     OW16579   4.093   1.301   3.354
 5340SOL    HW116580   4.080   1.379   3.299
 5340SOL    HW216581   4.016   1.247   3.337
 5341SOL     OW16582   4.774   1.106   2.568
 5341SOL    HW116583   4.703   1.056   2.609
 5341SOL    HW216584   4.831   1.039   2.529
 5342SOL     OW16585   4.740   0.242   2.831
 5342SOL    HW116586   4.721   0.196   2.749
 5342SOL    HW216587   4.734   0.174   2.898
 5343SOL     OW16588   4.326   1.488   2.344
 5343SOL    HW116589   4.368   1.438   2.275
 5343SOL    HW216590   4.259   1.540   2.299
 5344SOL     OW16591   3.983   1.346   2.149
 5344SOL    HW116592   3.889   1.344   2.127
 5344SOL    HW216593   3.985   1.383   2.238
 5345SOL     OW16594   3.836   1.019   3.581
 5345SOL    HW116595   3.760   0.997   3.634
 5345SOL    HW216596   3.911   0.983   3.629
 5346SOL     OW16597   4.395   0.210   3.349
 5346SOL    HW116598   4.479   0.190   3.307
 5346SOL    HW216599   4.420   0.258   3.429
 5347SOL     OW16600   3.800   0.341   1.903
 5347SOL    HW116601   3.717   0.307   1.869
 5347SOL    HW216602   3.823   0.413   1.845
 5348SOL     OW16603   5.163   0.859   3.265
 5348SOL    HW116604   5.109   0.915   3.208
 5348SOL    HW216605   5.252   0.870   3.232
 5349SOL     OW16606   3.796   0.167   2.178
 5349SOL    HW116607   3.796   0.249   2.130
 5349SOL    HW216608   3.881   0.128   2.158
 5350SOL     OW16609   4.908   1.331   1.977
 5350SOL    HW116610   4.814   1.313   1.977
 5350SOL    HW216611   4.932   1.338   2.069
 5351SOL     OW16612   4.342   0.831   3.295
 5351SOL    HW116613   4.398   0.908   3.280
 5351SOL    HW216614   4.404   0.758   3.303
 5352SOL     OW16615   4.440   0.571   3.566
 5352SOL    HW116616   4.478   0.633   3.628
 5352SOL    HW216617   4.472   0.486   3.595
 5353SOL     OW16618   5.183   1.205   3.494
 5353SOL    HW116619   5.173   1.217   3.589
 5353SOL    HW216620   5.277   1.212   3.478
 5354SOL     OW16621   4.105   1.739   3.426
 5354SOL    HW116622   4.019   1.779   3.413
 5354SOL    HW216623   4.087   1.655   3.468
 5355SOL     OW16624   4.943   0.323   2.324
 5355SOL    HW116625   5.000   0.247   2.316
 5355SOL    HW216626   4.973   0.368   2.402
 5356SOL     OW16627   4.315   0.739   2.530
 5356SOL    HW116628   4.354   0.826   2.513
 5356SOL    HW216629   4.246   0.731   2.465
 5357SOL     OW16630   4.590   1.367   1.895
 5357SOL    HW116631   4.548   1.396   1.976
 5357SOL    HW216632   4.607   1.448   1.846
 5358SOL     OW16633   4.383   1.793   2.808
 5358SOL    HW116634   4.363   1.884   2.785
 5358SOL    HW216635   4.478   1.787   2.801
 5359SOL     OW16636   4.591   0.966   2.718
 5359SOL    HW116637   4.641   0.895   2.758
 5359SOL    HW216638   4.557   1.016   2.792
 5360SOL     OW16639   4.807   0.988   1.952
 5360SOL    HW116640   4.782   1.036   1.874
 5360SOL    HW216641   4.881   0.935   1.925
 5361SOL     OW16642   3.948   1.304   3.718
 5361SOL    HW116643   3.880   1.243   3.689
 5361SOL    HW216644   3.931   1.317   3.811
 5362SOL     OW16645   3.807   1.235   2.526
 5362SOL    HW116646   3.811   1.185   2.608
 5362SOL    HW216647   3.876   1.196   2.472
 5363SOL     OW16648   4.404   1.400   3.489
 5363SOL    HW116649   4.324   1.358   3.520
 5363SOL    HW216650   4.400   1.489   3.525
 5364SOL     OW16651   4.154   0.435   2.385
 5364SOL    HW116652   4.185   0.362   2.331
 5364SOL    HW216653   4.108   0.393   2.458
 5365SOL     OW16654   0.097   1.521   2.961
 5365SOL    HW116655   0.028   1.494   2.900
 5365SOL    HW216656   0.109   1.446   3.018
 5366SOL     OW16657   4.051   0.554   3.152
 5366SOL    HW116658   4.107   0.500   3.207
 5366SOL    HW216659   4.072   0.527   3.063
 5367SOL     OW16660   4.550   1.577   2.540
 5367SOL    HW116661   4.542   1.627   2.459
 5367SOL    HW216662   4.472   1.522   2.543
 5368SOL     OW16663   5.152   0.217   2.982
 5368SOL    HW116664   5.161   0.134   3.029
 5368SOL    HW216665   5.106   0.274   3.043
 5369SOL     OW16666   4.725   0.022   3.004
 5369SOL    HW116667   4.674   5.251   2.964
 5369SOL    HW216668   4.813   5.285   3.015
 5370SOL     OW16669   4.494   1.332   2.175
 5370SOL    HW116670   4.462   1.242   2.181
 5370SOL    HW216671   4.577   1.331   2.223
 5371SOL     OW16672   4.344   1.558   3.147
 5371SOL    HW116673   4.346   1.639   3.196
 5371SOL    HW216674   4.431   1.550   3.108
 5372SOL     OW16675   5.036   0.037   2.024
 5372SOL    HW116676   5.116   0.028   1.972
 5372SOL    HW216677   4.983   5.261   1.999
 5373SOL     OW16678   5.029   0.461   2.549
 5373SOL    HW116679   4.972   0.537   2.553
 5373SOL    HW216680   5.018   0.418   2.633
 5374SOL     OW16681   5.296   0.213   2.742
 5374SOL    HW116682   5.236   0.217   2.817
 5374SOL    HW216683   5.282   0.296   2.696
 5375SOL     OW16684   3.767   1.072   2.167
 5375SOL    HW116685   3.861   1.063   2.150
 5375SOL    HW216686   3.739   0.984   2.190
 5376SOL     OW16687   4.604   1.649   2.208
 5376SOL    HW116688   4.533   1.633   2.145
 5376SOL    HW216689   4.575   1.726   2.257
 5377SOL     OW16690   3.953   0.625   3.846
 5377SOL    HW116691   3.864   0.623   3.880
 5377SOL    HW216692   3.944   0.598   3.754
 5378SOL     OW16693   3.943   0.282   4.716
 5378SOL    HW116694   3.972   0.249   4.801
 5378SOL    HW216695   3.857   0.243   4.703
 5379SOL     OW16696   3.729   0.384   4.363
 5379SOL    HW116697   3.645   0.406   4.403
 5379SOL    HW216698   3.711   0.307   4.309
 5380SOL     OW16699   4.291   1.284   4.897
 5380SOL    HW116700   4.203   1.287   4.859
 5380SOL    HW216701   4.305   1.373   4.931
 5381SOL     OW16702   5.283   1.535   4.429
 5381SOL    HW116703   5.244   1.491   4.505
 5381SOL    HW216704   5.218   1.525   4.360
 5382SOL     OW16705   4.858   0.699   4.426
 5382SOL    HW116706   4.907   0.780   4.416
 5382SOL    HW216707   4.808   0.711   4.507
 5383SOL     OW16708   4.482   1.144   4.763
 5383SOL    HW116709   4.412   1.177   4.819
 5383SOL    HW216710   4.516   1.221   4.718
 5384SOL     OW16711   4.590   0.780   5.547
 5384SOL    HW116712   4.573   0.852   5.607
 5384SOL    HW216713   4.612   0.822   5.464
 5385SOL     OW16714   4.411   1.005   4.372
 5385SOL    HW116715   4.474   0.992   4.442
 5385SOL    HW216716   4.340   1.056   4.413
 5386SOL     OW16717   4.433   1.152   5.534
 5386SOL    HW116718   4.480   1.231   5.560
 5386SOL    HW216719   4.350   1.184   5.500
 5387SOL     OW16720   4.055   1.428   4.792
 5387SOL    HW116721   3.983   1.390   4.741
 5387SOL    HW216722   4.106   1.478   4.728
 5388SOL     OW16723   5.160   1.483   5.072
 5388SOL    HW116724   5.203   1.564   5.098
 5388SOL    HW216725   5.112   1.454   5.150
 5389SOL     OW16726   4.167   0.399   5.213
 5389SOL    HW116727   4.243   0.340   5.210
 5389SOL    HW216728   4.092   0.341   5.227
 5390SOL     OW16729   3.943   1.714   4.197
 5390SOL    HW116730   3.966   1.790   4.250
 5390SOL    HW216731   4.015   1.706   4.134
 5391SOL     OW16732   4.860   1.339   5.417
 5391SOL    HW116733   4.898   1.336   5.505
 5391SOL    HW216734   4.806   1.260   5.411
 5392SOL     OW16735   3.954   1.440   4.259
 5392SOL    HW116736   3.937   1.534   4.263
 5392SOL    HW216737   3.892   1.402   4.321
 5393SOL     OW16738   3.979   1.090   4.615
 5393SOL    HW116739   3.976   1.004   4.656
 5393SOL    HW216740   3.921   1.145   4.668
 5394SOL     OW16741   4.336   1.792   5.153
 5394SOL    HW116742   4.254   1.774   5.199
 5394SOL    HW216743   4.360   1.881   5.178
 5395SOL     OW16744   4.312   0.980   3.857
 5395SOL    HW116745   4.355   1.032   3.789
 5395SOL    HW216746   4.352   1.010   3.938
 5396SOL     OW16747   5.250   0.145   5.204
 5396SOL    HW116748   5.297   0.225   5.180
 5396SOL    HW216749   5.280   0.126   5.294
 5397SOL     OW16750   3.838   0.652   4.283
 5397SOL    HW116751   3.810   0.563   4.304
 5397SOL    HW216752   3.830   0.700   4.366
 5398SOL     OW16753   3.755   1.596   3.848
 5398SOL    HW116754   3.737   1.504   3.868
 5398SOL    HW216755   3.730   1.643   3.928
 5399SOL     OW16756   0.112   0.941   4.301
 5399SOL    HW116757   0.199   0.905   4.319
 5399SOL    HW216758   0.129   1.023   4.255
 5400SOL     OW16759   3.846   0.743   5.309
 5400SOL    HW116760   3.938   0.766   5.321
 5400SOL    HW216761   3.798   0.826   5.317
 5401SOL     OW16762   4.337   1.383   4.459
 5401SOL    HW116763   4.290   1.300   4.468
 5401SOL    HW216764   4.320   1.410   4.369
 5402SOL     OW16765   5.009   1.238   5.149
 5402SOL    HW116766   5.042   1.171   5.089
 5402SOL    HW216767   5.063   1.228   5.228
 5403SOL     OW16768   4.533   0.023   4.249
 5403SOL    HW116769   4.562   0.111   4.226
 5403SOL    HW216770   4.437   0.027   4.244
 5404SOL     OW16771   3.915   0.968   4.994
 5404SOL    HW116772   3.999   0.925   4.978
 5404SOL    HW216773   3.851   0.912   4.950
 5405SOL     OW16774   4.899   1.807   5.346
 5405SOL    HW116775   4.921   1.864   5.273
 5405SOL    HW216776   4.918   1.719   5.314
 5406SOL     OW16777   4.048   0.264   5.532
 5406SOL    HW116778   4.101   0.340   5.558
 5406SOL    HW216779   3.962   0.281   5.572
 5407SOL     OW16780   5.170   1.433   4.663
 5407SOL    HW116781   5.107   1.440   4.735
 5407SOL    HW216782   5.163   1.342   4.634
 5408SOL     OW16783   4.319   0.723   3.989
 5408SOL    HW116784   4.325   0.803   3.938
 5408SOL    HW216785   4.254   0.742   4.056
 5409SOL     OW16786   4.998   0.329   4.643
 5409SOL    HW116787   4.908   0.305   4.667
 5409SOL    HW216788   5.051   0.302   4.718
 5410SOL     OW16789   4.518   0.618   5.175
 5410SOL    HW116790   4.491   0.596   5.264
 5410SOL    HW216791   4.475   0.552   5.120
 5411SOL     OW16792   5.118   0.485   5.403
 5411SOL    HW116793   5.117   0.520   5.492
 5411SOL    HW216794   5.183   0.415   5.406
 5412SOL     OW16795   4.681   0.889   5.305
 5412SOL    HW116796   4.733   0.816   5.271
 5412SOL    HW216797   4.633   0.922   5.229
 5413SOL     OW16798   4.718   0.421   4.957
 5413SOL    HW116799   4.635   0.438   5.002
 5413SOL    HW216800   4.694   0.366   4.882
 5414SOL     OW16801   4.774   0.697   4.150
 5414SOL    HW116802   4.788   0.691   4.244
 5414SOL    HW216803   4.691   0.652   4.135
 5415SOL     OW16804   3.813   0.820   4.500
 5415SOL    HW116805   3.894   0.813   4.550
 5415SOL    HW216806   3.770   0.898   4.535
 5416SOL     OW16807   3.851   1.842   5.300
 5416SOL    HW116808   3.850   1.823   5.394
 5416SOL    HW216809   3.759   1.843   5.274
 5417SOL     OW16810   4.594   0.360   3.914
 5417SOL    HW116811   4.636   0.417   3.850
 5417SOL    HW216812   4.643   0.278   3.908
 5418SOL     OW16813   5.091   1.145   4.270
 5418SOL    HW116814   5.178   1.143   4.229
 5418SOL    HW216815   5.041   1.206   4.216
 5419SOL     OW16816   4.253   0.201   4.607
 5419SOL    HW116817   4.275   0.215   4.699
 5419SOL    HW216818   4.274   0.284   4.565
 5420SOL     OW16819   4.732   1.444   4.197
 5420SOL    HW116820   4.692   1.516   4.148
 5420SOL    HW216821   4.716   1.467   4.289
 5421SOL     OW16822   4.078   1.807   4.584
 5421SOL    HW116823   4.122   1.723   4.592
 5421SOL    HW216824   4.147   1.872   4.601
 5422SOL     OW16825   4.940   1.544   5.244
 5422SOL    HW116826   4.928   1.469   5.302
 5422SOL    HW216827   4.888   1.523   5.167
 5423SOL     OW16828   4.045   0.956   3.973
 5423SOL    HW116829   4.127   0.975   3.927
 5423SOL    HW216830   4.014   0.875   3.934
 5424SOL     OW16831   4.189   1.263   5.461
 5424SOL    HW116832   4.161   1.268   5.370
 5424SOL    HW216833   4.107   1.262   5.511
 5425SOL     OW16834   4.834   1.775   3.960
 5425SOL    HW116835   4.763   1.730   4.005
 5425SOL    HW216836   4.858   1.716   3.888
 5426SOL     OW16837   3.921   0.278   5.225
 5426SOL    HW116838   3.842   0.332   5.220
 5426SOL    HW216839   3.912   0.231   5.308
 5427SOL     OW16840   4.191   1.738   4.045
 5427SOL    HW116841   4.231   1.795   4.110
 5427SOL    HW216842   4.263   1.709   3.990
 5428SOL     OW16843   5.102   0.099   4.146
 5428SOL    HW116844   5.086   0.083   4.053
 5428SOL    HW216845   5.195   0.119   4.151
 5429SOL     OW16846   3.979   1.792   4.957
 5429SOL    HW116847   4.032   1.727   5.004
 5429SOL    HW216848   3.969   1.755   4.869
 5430SOL     OW16849   4.662   1.698   4.624
 5430SOL    HW116850   4.741   1.646   4.642
 5430SOL    HW216851   4.617   1.649   4.555
 5431SOL     OW16852   4.115   0.696   4.201
 5431SOL    HW116853   4.138   0.603   4.211
 5431SOL    HW216854   4.021   0.700   4.219
 5432SOL     OW16855   4.346   0.133   3.832
 5432SOL    HW116856   4.420   0.075   3.850
 5432SOL    HW216857   4.298   0.090   3.761
 5433SOL     OW16858   4.510   0.312   5.490
 5433SOL    HW116859   4.570   0.237   5.491
 5433SOL    HW216860   4.458   0.302   5.570
 5434SOL     OW16861   4.600   1.521   4.917
 5434SOL    HW116862   4.585   1.485   4.830
 5434SOL    HW216863   4.670   1.467   4.954
 5435SOL     OW16864   5.061   0.591   5.155
 5435SOL    HW116865   5.091   0.559   5.240
 5435SOL    HW216866   5.099   0.678   5.146
 5436SOL     OW16867   4.537   1.397   4.661
 5436SOL    HW116868   4.621   1.386   4.617
 5436SOL    HW216869   4.473   1.396   4.591
 5437SOL     OW16870   4.651   0.510   4.627
 5437SOL    HW116871   4.628   0.501   4.535
 5437SOL    HW216872   4.683   0.424   4.653
 5438SOL     OW16873   4.266   0.063   4.234
 5438SOL    HW116874   4.180   0.063   4.276
 5438SOL    HW216875   4.260   0.133   4.169
 5439SOL     OW16876   5.138   1.179   3.767
 5439SOL    HW116877   5.151   1.103   3.824
 5439SOL    HW216878   5.050   1.211   3.788
 5440SOL     OW16879   4.025   0.060   3.913
 5440SOL    HW116880   4.085   0.128   3.882
 5440SOL    HW216881   4.082   5.284   3.929
 5441SOL     OW16882   4.661   0.258   4.187
 5441SOL    HW116883   4.631   0.294   4.104
 5441SOL    HW216884   4.756   0.272   4.188
 5442SOL     OW16885   4.802   0.680   5.185
 5442SOL    HW116886   4.732   0.615   5.188
 5442SOL    HW216887   4.882   0.628   5.174
 5443SOL     OW16888   4.942   1.571   4.518
 5443SOL    HW116889   4.965   1.637   4.453
 5443SOL    HW216890   5.020   1.562   4.572
 5444SOL     OW16891   4.192   1.148   4.459
 5444SOL    HW116892   4.122   1.129   4.522
 5444SOL    HW216893   4.153   1.131   4.374
 5445SOL     OW16894   4.997   1.794   4.328
 5445SOL    HW116895   5.039   1.856   4.268
 5445SOL    HW216896   4.931   1.847   4.374
 5446SOL     OW16897   4.755   0.552   3.741
 5446SOL    HW116898   4.707   0.633   3.724
 5446SOL    HW216899   4.808   0.572   3.818
 5447SOL     OW16900   3.801   0.554   5.117
 5447SOL    HW116901   3.893   0.553   5.088
 5447SOL    HW216902   3.796   0.624   5.181
 5448SOL     OW16903   4.281   0.237   4.881
 5448SOL    HW116904   4.312   0.151   4.909
 5448SOL    HW216905   4.189   0.239   4.908
 5449SOL     OW16906   4.594   0.463   4.364
 5449SOL    HW116907   4.545   0.515   4.301
 5449SOL    HW216908   4.613   0.381   4.318
 5450SOL     OW16909   4.700   0.062   4.486
 5450SOL    HW116910   4.636   0.052   4.415
 5450SOL    HW216911   4.714   5.273   4.518
 5451SOL     OW16912   5.158   1.175   4.575
 5451SOL    HW116913   5.101   1.100   4.588
 5451SOL    HW216914   5.169   1.182   4.481
 5452SOL     OW16915   4.216   1.416   3.883
 5452SOL    HW116916   4.141   1.386   3.935
 5452SOL    HW216917   4.197   1.384   3.795
 5453SOL     OW16918   5.127   0.561   3.803
 5453SOL    HW116919   5.052   0.552   3.863
 5453SOL    HW216920   5.202   0.532   3.855
 5454SOL     OW16921   4.248   0.264   4.046
 5454SOL    HW116922   4.291   0.214   3.977
 5454SOL    HW216923   4.229   0.349   4.006
 5455SOL     OW16924   4.782   1.353   5.057
 5455SOL    HW116925   4.707   1.323   5.109
 5455SOL    HW216926   4.858   1.311   5.099
 5456SOL     OW16927   0.006   1.603   5.342
 5456SOL    HW116928   0.039   1.612   5.253
 5456SOL    HW216929   0.084   1.584   5.395
 5457SOL     OW16930   4.851   1.201   4.831
 5457SOL    HW116931   4.791   1.238   4.896
 5457SOL    HW216932   4.816   1.231   4.747
 5458SOL     OW16933   4.626   0.104   5.114
 5458SOL    HW116934   4.659   0.070   5.030
 5458SOL    HW216935   4.702   0.147   5.154
 5459SOL     OW16936   4.708   1.113   5.448
 5459SOL    HW116937   4.616   1.130   5.467
 5459SOL    HW216938   4.707   1.036   5.391
 5460SOL     OW16939   4.432   1.061   4.095
 5460SOL    HW116940   4.418   1.046   4.189
 5460SOL    HW216941   4.508   1.007   4.073
 5461SOL     OW16942   4.142   0.814   4.975
 5461SOL    HW116943   4.210   0.823   5.041
 5461SOL    HW216944   4.106   0.726   4.990
 5462SOL     OW16945   4.992   0.380   4.993
 5462SOL    HW116946   5.025   0.458   5.038
 5462SOL    HW216947   4.902   0.401   4.970
 5463SOL     OW16948   3.793   1.572   5.075
 5463SOL    HW116949   3.761   1.646   5.023
 5463SOL    HW216950   3.888   1.579   5.070
 5464SOL     OW16951   4.076   1.107   4.215
 5464SOL    HW116952   4.080   1.181   4.154
 5464SOL    HW216953   4.074   1.030   4.159
 5465SOL     OW16954   4.279   0.538   4.585
 5465SOL    HW116955   4.295   0.596   4.510
 5465SOL    HW216956   4.343   0.566   4.651
 5466SOL     OW16957   4.972   1.348   4.112
 5466SOL    HW116958   5.026   1.421   4.143
 5466SOL    HW216959   4.885   1.368   4.145
 5467SOL     OW16960   4.992   1.455   4.863
 5467SOL    HW116961   5.047   1.459   4.941
 5467SOL    HW216962   4.938   1.377   4.874
 5468SOL     OW16963   4.072   1.525   5.041
 5468SOL    HW116964   4.058   1.483   4.956
 5468SOL    HW216965   4.166   1.538   5.047
 5469SOL     OW16966   4.137   0.745   5.326
 5469SOL    HW116967   4.198   0.790   5.268
 5469SOL    HW216968   4.179   0.660   5.343
 5470SOL     OW16969   4.752   0.114   5.486
 5470SOL    HW116970   4.790   0.195   5.454
 5470SOL    HW216971   4.788   0.046   5.429
 5471SOL     OW16972   4.204   0.056   5.463
 5471SOL    HW116973   4.148   5.292   5.418
 5471SOL    HW216974   4.145   0.128   5.485
 5472SOL     OW16975   4.308   0.872   4.755
 5472SOL    HW116976   4.336   0.963   4.753
 5472SOL    HW216977   4.250   0.867   4.832
 5473SOL     OW16978   5.086   0.858   4.762
 5473SOL    HW116979   5.009   0.843   4.707
 5473SOL    HW216980   5.134   0.775   4.758
 5474SOL     OW16981   4.932   0.532   3.992
 5474SOL    HW116982   4.935   0.450   4.042
 5474SOL    HW216983   4.887   0.594   4.049
 5475SOL     OW16984   4.022   0.205   4.970
 5475SOL    HW116985   3.984   0.244   5.049
 5475SOL    HW216986   4.018   0.111   4.986
 5476SOL     OW16987   3.770   1.310   5.001
 5476SOL    HW116988   3.803   1.257   5.073
 5476SOL    HW216989   3.777   1.400   5.032
 5477SOL     OW16990   4.450   0.632   4.785
 5477SOL    HW116991   4.523   0.614   4.725
 5477SOL    HW216992   4.422   0.721   4.762
 5478SOL     OW16993   4.024   0.073   4.370
 5478SOL    HW116994   4.011   0.167   4.382
 5478SOL    HW216995   4.062   0.044   4.453
 5479SOL     OW16996   0.028   0.404   4.089
 5479SOL    HW116997   0.061   0.343   4.155
 5479SOL    HW216998   0.002   0.481   4.140
 5480SOL     OW16999   4.751   0.759   4.685
 5480SOL    HW117000   4.751   0.777   4.780
 5480SOL    HW217001   4.724   0.668   4.678
 5481SOL     OW17002   4.699   1.562   5.437
 5481SOL    HW117003   4.687   1.610   5.355
 5481SOL    HW217004   4.747   1.483   5.412
 5482SOL     OW17005   4.077   0.916   5.532
 5482SOL    HW117006   4.160   0.934   5.577
 5482SOL    HW217007   4.101   0.853   5.464
 5483SOL     OW17008   5.028   0.830   3.761
 5483SOL    HW117009   5.062   0.741   3.761
 5483SOL    HW217010   5.054   0.866   3.676
 5484SOL     OW17011   4.789   1.334   4.578
 5484SOL    HW117012   4.792   1.262   4.515
 5484SOL    HW217013   4.848   1.400   4.542
 5485SOL     OW17014   4.034   0.810   4.672
 5485SOL    HW117015   4.127   0.831   4.665
 5485SOL    HW217016   4.032   0.720   4.705
 5486SOL     OW17017   4.057   0.524   4.736
 5486SOL    HW117018   4.021   0.437   4.720
 5486SOL    HW217019   4.133   0.529   4.678
 5487SOL     OW17020   4.861   0.377   5.412
 5487SOL    HW117021   4.812   0.432   5.473
 5487SOL    HW217022   4.946   0.421   5.404
 5488SOL     OW17023   4.849   0.232   5.183
 5488SOL    HW117024   4.861   0.282   5.264
 5488SOL    HW217025   4.913   0.270   5.122
 5489SOL     OW17026   3.729   1.322   3.919
 5489SOL    HW117027   3.642   1.336   3.881
 5489SOL    HW217028   3.727   1.232   3.952
 5490SOL     OW17029   3.814   1.789   4.660
 5490SOL    HW117030   3.784   1.709   4.617
 5490SOL    HW217031   3.904   1.800   4.630
 5491SOL     OW17032   4.222   1.573   4.630
 5491SOL    HW117033   4.291   1.636   4.654
 5491SOL    HW217034   4.266   1.509   4.574
 5492SOL     OW17035   4.710   0.794   4.952
 5492SOL    HW117036   4.763   0.768   5.027
 5492SOL    HW217037   4.624   0.756   4.969
 5493SOL     OW17038   3.759   0.542   4.841
 5493SOL    HW117039   3.840   0.528   4.791
 5493SOL    HW217040   3.788   0.548   4.932
 5494SOL     OW17041   3.912   0.520   5.450
 5494SOL    HW117042   3.974   0.486   5.385
 5494SOL    HW217043   3.869   0.593   5.405
 5495SOL     OW17044   5.111   0.940   5.390
 5495SOL    HW117045   5.120   1.034   5.379
 5495SOL    HW217046   5.112   0.905   5.301
 5496SOL     OW17047   4.539   0.573   4.081
 5496SOL    HW117048   4.540   0.496   4.023
 5496SOL    HW217049   4.464   0.624   4.052
 5497SOL     OW17050   3.970   1.552   5.453
 5497SOL    HW117051   3.945   1.616   5.520
 5497SOL    HW217052   3.969   1.468   5.499
 5498SOL     OW17053   4.418   0.454   4.987
 5498SOL    HW117054   4.370   0.379   4.952
 5498SOL    HW217055   4.420   0.517   4.915
 5499SOL     OW17056   4.647   1.680   5.192
 5499SOL    HW117057   4.625   1.649   5.104
 5499SOL    HW217058   4.649   1.775   5.184
 5500SOL     OW17059   4.189   0.493   3.909
 5500SOL    HW117060   4.248   0.565   3.931
 5500SOL    HW217061   4.103   0.534   3.900
 5501SOL     OW17062   3.871   1.140   5.196
 5501SOL    HW117063   3.875   1.087   5.276
 5501SOL    HW217064   3.888   1.078   5.125
 5502SOL     OW17065   5.055   1.050   4.949
 5502SOL    HW117066   5.077   0.986   4.882
 5502SOL    HW217067   4.982   1.100   4.913
 5503SOL     OW17068   5.034   0.857   4.040
 5503SOL    HW117069   4.951   0.827   4.077
 5503SOL    HW217070   5.022   0.851   3.946
 5504SOL     OW17071   4.961   1.731   4.846
 5504SOL    HW117072   5.047   1.750   4.808
 5504SOL    HW217073   4.960   1.636   4.857
 5505SOL     OW17074   3.808   1.266   4.737
 5505SOL    HW117075   3.794   1.278   4.831
 5505SOL    HW217076   3.734   1.213   4.709
 5506SOL     OW17077   4.401   1.664   5.450
 5506SOL    HW117078   4.350   1.745   5.445
 5506SOL    HW217079   4.468   1.674   5.382
 5507SOL     OW17080   5.111   1.570   4.203
 5507SOL    HW117081   5.180   1.609   4.149
 5507SOL    HW217082   5.062   1.644   4.238
 5508SOL     OW17083   3.859   1.797   5.567
 5508SOL    HW117084   3.809   1.732   5.616
 5508SOL    HW217085   3.908   1.844   5.635
 5509SOL     OW17086   5.015   0.919   4.397
 5509SOL    HW117087   5.092   0.864   4.383
 5509SOL    HW217088   5.034   0.999   4.348
 5510SOL     OW17089   4.541   1.273   5.155
 5510SOL    HW117090   4.513   1.312   5.238
 5510SOL    HW217091   4.471   1.295   5.094
 5511SOL     OW17092   4.396   1.618   3.879
 5511SOL    HW117093   4.406   1.629   3.785
 5511SOL    HW217094   4.341   1.540   3.889
 5512SOL     OW17095   3.988   0.329   4.444
 5512SOL    HW117096   3.900   0.360   4.421
 5512SOL    HW217097   3.984   0.316   4.539
 5513SOL     OW17098   4.910   1.610   3.764
 5513SOL    HW117099   4.920   1.515   3.776
 5513SOL    HW217100   4.855   1.618   3.686
 5514SOL     OW17101   4.548   1.006   5.096
 5514SOL    HW117102   4.591   1.002   5.011
 5514SOL    HW217103   4.548   1.099   5.119
 5515SOL     OW17104   4.640   0.911   4.014
 5515SOL    HW117105   4.702   0.942   3.948
 5515SOL    HW217106   4.686   0.839   4.058
 5516SOL     OW17107   4.093   1.302   5.216
 5516SOL    HW117108   4.080   1.379   5.161
 5516SOL    HW217109   4.016   1.247   5.199
 5517SOL     OW17110   4.774   1.106   4.430
 5517SOL    HW117111   4.703   1.056   4.471
 5517SOL    HW217112   4.831   1.039   4.391
 5518SOL     OW17113   4.740   0.242   4.693
 5518SOL    HW117114   4.721   0.196   4.611
 5518SOL    HW217115   4.734   0.174   4.760
 5519SOL     OW17116   4.326   1.489   4.206
 5519SOL    HW117117   4.368   1.438   4.137
 5519SOL    HW217118   4.258   1.540   4.161
 5520SOL     OW17119   3.983   1.346   4.011
 5520SOL    HW117120   3.889   1.344   3.989
 5520SOL    HW217121   3.985   1.383   4.100
 5521SOL     OW17122   3.836   1.019   5.443
 5521SOL    HW117123   3.760   0.997   5.496
 5521SOL    HW217124   3.911   0.983   5.491
 5522SOL     OW17125   4.395   0.210   5.211
 5522SOL    HW117126   4.479   0.190   5.169
 5522SOL    HW217127   4.420   0.258   5.291
 5523SOL     OW17128   3.801   0.340   3.765
 5523SOL    HW117129   3.717   0.308   3.731
 5523SOL    HW217130   3.823   0.413   3.707
 5524SOL     OW17131   5.163   0.859   5.127
 5524SOL    HW117132   5.109   0.915   5.070
 5524SOL    HW217133   5.252   0.870   5.094
 5525SOL     OW17134   3.796   0.167   4.040
 5525SOL    HW117135   3.796   0.249   3.992
 5525SOL    HW217136   3.881   0.128   4.020
 5526SOL     OW17137   4.908   1.331   3.839
 5526SOL    HW117138   4.814   1.313   3.839
 5526SOL    HW217139   4.931   1.338   3.931
 5527SOL     OW17140   4.343   0.831   5.157
 5527SOL    HW117141   4.398   0.908   5.142
 5527SOL    HW217142   4.404   0.758   5.165
 5528SOL     OW17143   4.440   0.571   5.428
 5528SOL    HW117144   4.478   0.633   5.490
 5528SOL    HW217145   4.473   0.486   5.457
 5529SOL     OW17146   5.183   1.205   5.356
 5529SOL    HW117147   5.173   1.217   5.451
 5529SOL    HW217148   5.277   1.212   5.340
 5530SOL     OW17149   4.105   1.740   5.288
 5530SOL    HW117150   4.019   1.780   5.275
 5530SOL    HW217151   4.086   1.656   5.330
 5531SOL     OW17152   4.943   0.323   4.186
 5531SOL    HW117153   5.000   0.247   4.179
 5531SOL    HW217154   4.973   0.368   4.264
 5532SOL     OW17155   4.315   0.739   4.392
 5532SOL    HW117156   4.354   0.826   4.376
 5532SOL    HW217157   4.246   0.731   4.327
 5533SOL     OW17158   4.591   1.367   3.757
 5533SOL    HW117159   4.548   1.396   3.838
 5533SOL    HW217160   4.607   1.448   3.708
 5534SOL     OW17161   4.383   1.793   4.670
 5534SOL    HW117162   4.363   1.884   4.646
 5534SOL    HW217163   4.478   1.787   4.663
 5535SOL     OW17164   4.591   0.966   4.580
 5535SOL    HW117165   4.641   0.895   4.620
 5535SOL    HW217166   4.557   1.016   4.654
 5536SOL     OW17167   4.807   0.988   3.814
 5536SOL    HW117168   4.781   1.037   3.736
 5536SOL    HW217169   4.881   0.935   3.786
 5537SOL     OW17170   3.948   1.304   5.580
 5537SOL    HW117171   3.880   1.243   5.551
 5537SOL    HW217172   3.931   1.317   5.673
 5538SOL     OW17173   3.807   1.235   4.388
 5538SOL    HW117174   3.811   1.185   4.470
 5538SOL    HW217175   3.876   1.196   4.334
 5539SOL     OW17176   4.404   1.400   5.351
 5539SOL    HW117177   4.324   1.358   5.381
 5539SOL    HW217178   4.400   1.489   5.387
 5540SOL     OW17179   4.154   0.435   4.247
 5540SOL    HW117180   4.185   0.362   4.193
 5540SOL    HW217181   4.108   0.393   4.320
 5541SOL     OW17182   0.097   1.521   4.823
 5541SOL    HW117183   0.028   1.494   4.762
 5541SOL    HW217184   0.109   1.446   4.880
 5542SOL     OW17185   4.051   0.554   5.014
 5542SOL    HW117186   4.108   0.500   5.069
 5542SOL    HW217187   4.072   0.527   4.925
 5543SOL     OW17188   4.550   1.577   4.402
 5543SOL    HW117189   4.542   1.627   4.321
 5543SOL    HW217190   4.472   1.522   4.405
 5544SOL     OW17191   5.152   0.217   4.844
 5544SOL    HW117192   5.161   0.134   4.891
 5544SOL    HW217193   5.106   0.274   4.905
 5545SOL     OW17194   4.725   0.022   4.866
 5545SOL    HW117195   4.674   5.251   4.826
 5545SOL    HW217196   4.813   5.285   4.877
 5546SOL     OW17197   4.494   1.332   4.037
 5546SOL    HW117198   4.462   1.242   4.043
 5546SOL    HW217199   4.577   1.331   4.085
 5547SOL     OW17200   4.344   1.558   5.009
 5547SOL    HW117201   4.347   1.639   5.058
 5547SOL    HW217202   4.431   1.550   4.970
 5548SOL     OW17203   5.036   0.037   3.886
 5548SOL    HW117204   5.116   0.028   3.834
 5548SOL    HW217205   4.983   5.261   3.862
 5549SOL     OW17206   5.029   0.461   4.411
 5549SOL    HW117207   4.972   0.537   4.415
 5549SOL    HW217208   5.018   0.418   4.495
 5550SOL     OW17209   5.296   0.213   4.604
 5550SOL    HW117210   5.236   0.217   4.679
 5550SOL    HW217211   5.282   0.296   4.558
 5551SOL     OW17212   3.767   1.072   4.029
 5551SOL    HW117213   3.861   1.063   4.012
 5551SOL    HW217214   3.739   0.984   4.052
 5552SOL     OW17215   4.604   1.649   4.070
 5552SOL    HW117216   4.533   1.633   4.007
 5552SOL    HW217217   4.575   1.726   4.119
 5553SOL     OW17218   3.953   0.625   5.708
 5553SOL    HW117219   3.864   0.623   5.742
 5553SOL    HW217220   3.944   0.598   5.616
 5554SOL     OW17221   3.943   0.283   6.578
 5554SOL    HW117222   3.972   0.249   6.663
 5554SOL    HW217223   3.857   0.243   6.565
 5555SOL     OW17224   3.729   0.384   6.225
 5555SOL    HW117225   3.645   0.406   6.265
 5555SOL    HW217226   3.711   0.307   6.171
 5556SOL     OW17227   4.291   1.284   6.759
 5556SOL    HW117228   4.203   1.288   6.721
 5556SOL    HW217229   4.305   1.373   6.793
 5557SOL     OW17230   5.283   1.534   6.291
 5557SOL    HW117231   5.244   1.491   6.367
 5557SOL    HW217232   5.218   1.525   6.222
 5558SOL     OW17233   4.858   0.699   6.288
 5558SOL    HW117234   4.907   0.780   6.278
 5558SOL    HW217235   4.809   0.711   6.369
 5559SOL     OW17236   4.482   1.144   6.625
 5559SOL    HW117237   4.412   1.177   6.681
 5559SOL    HW217238   4.516   1.221   6.580
 5560SOL     OW17239   4.589   0.781   7.408
 5560SOL    HW117240   4.568   0.857   7.464
 5560SOL    HW217241   4.613   0.820   7.324
 5561SOL     OW17242   4.411   1.005   6.234
 5561SOL    HW117243   4.474   0.992   6.304
 5561SOL    HW217244   4.340   1.056   6.275
 5562SOL     OW17245   4.433   1.152   7.397
 5562SOL    HW117246   4.480   1.231   7.422
 5562SOL    HW217247   4.350   1.184   7.362
 5563SOL     OW17248   4.055   1.428   6.654
 5563SOL    HW117249   3.983   1.391   6.603
 5563SOL    HW217250   4.106   1.478   6.590
 5564SOL     OW17251   5.160   1.482   6.934
 5564SOL    HW117252   5.202   1.564   6.961
 5564SOL    HW217253   5.111   1.454   7.011
 5565SOL     OW17254   4.167   0.399   7.077
 5565SOL    HW117255   4.243   0.340   7.073
 5565SOL    HW217256   4.092   0.341   7.088
 5566SOL     OW17257   3.944   1.714   6.060
 5566SOL    HW117258   3.966   1.790   6.112
 5566SOL    HW217259   4.015   1.706   5.996
 5567SOL     OW17260   4.860   1.339   7.278
 5567SOL    HW117261   4.898   1.337   7.365
 5567SOL    HW217262   4.806   1.259   7.273
 5568SOL     OW17263   3.954   1.440   6.121
 5568SOL    HW117264   3.937   1.535   6.125
 5568SOL    HW217265   3.892   1.402   6.183
 5569SOL     OW17266   3.979   1.090   6.477
 5569SOL    HW117267   3.976   1.004   6.518
 5569SOL    HW217268   3.921   1.145   6.530
 5570SOL     OW17269   4.336   1.792   7.014
 5570SOL    HW117270   4.255   1.774   7.061
 5570SOL    HW217271   4.360   1.881   7.040
 5571SOL     OW17272   4.312   0.980   5.719
 5571SOL    HW117273   4.356   1.032   5.651
 5571SOL    HW217274   4.352   1.010   5.800
 5572SOL     OW17275   5.250   0.146   7.066
 5572SOL    HW117276   5.296   0.226   7.042
 5572SOL    HW217277   5.280   0.127   7.155
 5573SOL     OW17278   3.838   0.652   6.145
 5573SOL    HW117279   3.810   0.563   6.166
 5573SOL    HW217280   3.830   0.700   6.228
 5574SOL     OW17281   3.755   1.596   5.710
 5574SOL    HW117282   3.737   1.504   5.730
 5574SOL    HW217283   3.731   1.643   5.790
 5575SOL     OW17284   0.113   0.940   6.163
 5575SOL    HW117285   0.200   0.905   6.181
 5575SOL    HW217286   0.129   1.023   6.117
 5576SOL     OW17287   3.846   0.742   7.172
 5576SOL    HW117288   3.938   0.766   7.183
 5576SOL    HW217289   3.798   0.825   7.180
 5577SOL     OW17290   4.337   1.383   6.321
 5577SOL    HW117291   4.290   1.300   6.330
 5577SOL    HW217292   4.320   1.410   6.231
 5578SOL     OW17293   5.009   1.238   7.011
 5578SOL    HW117294   5.042   1.170   6.951
 5578SOL    HW217295   5.063   1.229   7.089
 5579SOL     OW17296   4.533   0.023   6.112
 5579SOL    HW117297   4.562   0.111   6.088
 5579SOL    HW217298   4.437   0.027   6.106
 5580SOL     OW17299   3.915   0.968   6.856
 5580SOL    HW117300   3.999   0.925   6.840
 5580SOL    HW217301   3.851   0.912   6.811
 5581SOL     OW17302   4.899   1.807   7.208
 5581SOL    HW117303   4.921   1.864   7.134
 5581SOL    HW217304   4.919   1.719   7.177
 5582SOL     OW17305   4.047   0.262   7.398
 5582SOL    HW117306   4.101   0.339   7.418
 5582SOL    HW217307   3.961   0.282   7.435
 5583SOL     OW17308   5.170   1.433   6.525
 5583SOL    HW117309   5.107   1.440   6.597
 5583SOL    HW217310   5.163   1.342   6.496
 5584SOL     OW17311   4.319   0.723   5.851
 5584SOL    HW117312   4.325   0.803   5.799
 5584SOL    HW217313   4.253   0.742   5.918
 5585SOL     OW17314   4.998   0.329   6.505
 5585SOL    HW117315   4.908   0.305   6.529
 5585SOL    HW217316   5.051   0.302   6.580
 5586SOL     OW17317   4.518   0.617   7.038
 5586SOL    HW117318   4.491   0.596   7.127
 5586SOL    HW217319   4.475   0.552   6.983
 5587SOL     OW17320   5.118   0.485   7.264
 5587SOL    HW117321   5.116   0.521   7.353
 5587SOL    HW217322   5.182   0.414   7.268
 5588SOL     OW17323   4.681   0.888   7.167
 5588SOL    HW117324   4.733   0.816   7.132
 5588SOL    HW217325   4.633   0.922   7.091
 5589SOL     OW17326   4.718   0.421   6.819
 5589SOL    HW117327   4.635   0.438   6.864
 5589SOL    HW217328   4.694   0.366   6.744
 5590SOL     OW17329   4.774   0.697   6.012
 5590SOL    HW117330   4.788   0.691   6.106
 5590SOL    HW217331   4.691   0.652   5.997
 5591SOL     OW17332   3.813   0.820   6.362
 5591SOL    HW117333   3.894   0.813   6.412
 5591SOL    HW217334   3.770   0.898   6.397
 5592SOL     OW17335   3.852   1.842   7.163
 5592SOL    HW117336   3.850   1.822   7.256
 5592SOL    HW217337   3.759   1.842   7.137
 5593SOL     OW17338   4.594   0.360   5.776
 5593SOL    HW117339   4.636   0.417   5.712
 5593SOL    HW217340   4.643   0.278   5.770
 5594SOL     OW17341   5.091   1.145   6.132
 5594SOL    HW117342   5.178   1.143   6.091
 5594SOL    HW217343   5.041   1.206   6.078
 5595SOL     OW17344   4.253   0.201   6.469
 5595SOL    HW117345   4.275   0.215   6.561
 5595SOL    HW217346   4.274   0.284   6.426
 5596SOL     OW17347   4.732   1.444   6.059
 5596SOL    HW117348   4.692   1.516   6.010
 5596SOL    HW217349   4.716   1.467   6.151
 5597SOL     OW17350   4.078   1.807   6.446
 5597SOL    HW117351   4.122   1.723   6.454
 5597SOL    HW217352   4.147   1.872   6.463
 5598SOL     OW17353   4.940   1.544   7.106
 5598SOL    HW117354   4.928   1.470   7.165
 5598SOL    HW217355   4.887   1.523   7.029
 5599SOL     OW17356   4.045   0.956   5.835
 5599SOL    HW117357   4.127   0.975   5.789
 5599SOL    HW217358   4.014   0.875   5.796
 5600SOL     OW17359   4.188   1.262   7.323
 5600SOL    HW117360   4.161   1.268   7.232
 5600SOL    HW217361   4.107   1.262   7.373
 5601SOL     OW17362   4.834   1.775   5.822
 5601SOL    HW117363   4.763   1.730   5.867
 5601SOL    HW217364   4.858   1.716   5.750
 5602SOL     OW17365   3.921   0.278   7.087
 5602SOL    HW117366   3.842   0.332   7.080
 5602SOL    HW217367   3.910   0.230   7.169
 5603SOL     OW17368   4.191   1.738   5.907
 5603SOL    HW117369   4.231   1.795   5.972
 5603SOL    HW217370   4.263   1.709   5.852
 5604SOL     OW17371   5.102   0.099   6.008
 5604SOL    HW117372   5.086   0.083   5.915
 5604SOL    HW217373   5.195   0.119   6.013
 5605SOL     OW17374   3.978   1.792   6.819
 5605SOL    HW117375   4.031   1.727   6.866
 5605SOL    HW217376   3.969   1.755   6.731
 5606SOL     OW17377   4.662   1.698   6.486
 5606SOL    HW117378   4.741   1.646   6.504
 5606SOL    HW217379   4.617   1.649   6.417
 5607SOL     OW17380   4.115   0.696   6.063
 5607SOL    HW117381   4.138   0.603   6.073
 5607SOL    HW217382   4.021   0.700   6.081
 5608SOL     OW17383   4.346   0.133   5.694
 5608SOL    HW117384   4.420   0.075   5.711
 5608SOL    HW217385   4.298   0.090   5.623
 5609SOL     OW17386   4.508   0.311   7.350
 5609SOL    HW117387   4.571   0.239   7.352
 5609SOL    HW217388   4.462   0.306   7.433
 5610SOL     OW17389   4.600   1.521   6.779
 5610SOL    HW117390   4.585   1.485   6.692
 5610SOL    HW217391   4.670   1.467   6.816
 5611SOL     OW17392   5.061   0.591   7.017
 5611SOL    HW117393   5.091   0.560   7.102
 5611SOL    HW217394   5.099   0.678   7.008
 5612SOL     OW17395   4.537   1.396   6.523
 5612SOL    HW117396   4.621   1.386   6.479
 5612SOL    HW217397   4.473   1.396   6.453
 5613SOL     OW17398   4.651   0.510   6.489
 5613SOL    HW117399   4.628   0.501   6.397
 5613SOL    HW217400   4.683   0.424   6.515
 5614SOL     OW17401   4.266   0.063   6.096
 5614SOL    HW117402   4.180   0.063   6.138
 5614SOL    HW217403   4.260   0.133   6.031
 5615SOL     OW17404   5.138   1.179   5.629
 5615SOL    HW117405   5.151   1.103   5.686
 5615SOL    HW217406   5.050   1.211   5.650
 5616SOL     OW17407   4.025   0.060   5.775
 5616SOL    HW117408   4.085   0.128   5.744
 5616SOL    HW217409   4.082   5.284   5.791
 5617SOL     OW17410   4.661   0.258   6.049
 5617SOL    HW117411   4.631   0.294   5.966
 5617SOL    HW217412   4.756   0.272   6.050
 5618SOL     OW17413   4.802   0.680   7.047
 5618SOL    HW117414   4.732   0.615   7.050
 5618SOL    HW217415   4.882   0.628   7.036
 5619SOL     OW17416   4.942   1.571   6.380
 5619SOL    HW117417   4.965   1.637   6.315
 5619SOL    HW217418   5.020   1.562   6.434
 5620SOL     OW17419   4.192   1.148   6.321
 5620SOL    HW117420   4.122   1.129   6.384
 5620SOL    HW217421   4.153   1.131   6.236
 5621SOL     OW17422   4.997   1.794   6.190
 5621SOL    HW117423   5.039   1.856   6.130
 5621SOL    HW217424   4.931   1.847   6.236
 5622SOL     OW17425   4.755   0.552   5.603
 5622SOL    HW117426   4.707   0.633   5.586
 5622SOL    HW217427   4.808   0.572   5.680
 5623SOL     OW17428   3.802   0.554   6.979
 5623SOL    HW117429   3.893   0.553   6.950
 5623SOL    HW217430   3.797   0.624   7.043
 5624SOL     OW17431   4.281   0.237   6.744
 5624SOL    HW117432   4.312   0.151   6.771
 5624SOL    HW217433   4.189   0.239   6.770
 5625SOL     OW17434   4.594   0.463   6.226
 5625SOL    HW117435   4.545   0.515   6.163
 5625SOL    HW217436   4.613   0.381   6.180
 5626SOL     OW17437   4.700   0.062   6.348
 5626SOL    HW117438   4.636   0.053   6.277
 5626SOL    HW217439   4.714   5.273   6.380
 5627SOL     OW17440   5.158   1.175   6.437
 5627SOL    HW117441   5.101   1.100   6.450
 5627SOL    HW217442   5.169   1.182   6.343
 5628SOL     OW17443   4.215   1.416   5.745
 5628SOL    HW117444   4.141   1.386   5.797
 5628SOL    HW217445   4.197   1.384   5.657
 5629SOL     OW17446   5.127   0.561   5.665
 5629SOL    HW117447   5.052   0.552   5.725
 5629SOL    HW217448   5.202   0.532   5.717
 5630SOL     OW17449   4.248   0.264   5.908
 5630SOL    HW117450   4.291   0.214   5.839
 5630SOL    HW217451   4.229   0.349   5.868
 5631SOL     OW17452   4.782   1.353   6.919
 5631SOL    HW117453   4.707   1.323   6.971
 5631SOL    HW217454   4.858   1.311   6.960
 5632SOL     OW17455   0.006   1.604   7.204
 5632SOL    HW117456   0.039   1.612   7.115
 5632SOL    HW217457   0.084   1.585   7.257
 5633SOL     OW17458   4.851   1.201   6.693
 5633SOL    HW117459   4.791   1.238   6.758
 5633SOL    HW217460   4.816   1.231   6.609
 5634SOL     OW17461   4.626   0.104   6.976
 5634SOL    HW117462   4.659   0.070   6.892
 5634SOL    HW217463   4.702   0.147   7.016
 5635SOL     OW17464   4.708   1.112   7.312
 5635SOL    HW117465   4.616   1.131   7.329
 5635SOL    HW217466   4.707   1.036   7.254
 5636SOL     OW17467   4.432   1.061   5.957
 5636SOL    HW117468   4.418   1.046   6.051
 5636SOL    HW217469   4.508   1.007   5.935
 5637SOL     OW17470   4.142   0.814   6.837
 5637SOL    HW117471   4.211   0.823   6.903
 5637SOL    HW217472   4.106   0.726   6.852
 5638SOL     OW17473   4.992   0.380   6.855
 5638SOL    HW117474   5.025   0.458   6.899
 5638SOL    HW217475   4.902   0.401   6.832
 5639SOL     OW17476   3.793   1.573   6.937
 5639SOL    HW117477   3.762   1.646   6.884
 5639SOL    HW217478   3.888   1.578   6.932
 5640SOL     OW17479   4.076   1.107   6.077
 5640SOL    HW117480   4.080   1.181   6.016
 5640SOL    HW217481   4.074   1.030   6.021
 5641SOL     OW17482   4.279   0.539   6.447
 5641SOL    HW117483   4.295   0.596   6.372
 5641SOL    HW217484   4.343   0.566   6.513
 5642SOL     OW17485   4.972   1.348   5.974
 5642SOL    HW117486   5.026   1.421   6.005
 5642SOL    HW217487   4.885   1.368   6.007
 5643SOL     OW17488   4.992   1.455   6.725
 5643SOL    HW117489   5.047   1.459   6.803
 5643SOL    HW217490   4.938   1.377   6.737
 5644SOL     OW17491   4.071   1.525   6.903
 5644SOL    HW117492   4.059   1.483   6.818
 5644SOL    HW217493   4.166   1.538   6.909
 5645SOL     OW17494   4.137   0.745   7.188
 5645SOL    HW117495   4.198   0.791   7.130
 5645SOL    HW217496   4.179   0.660   7.204
 5646SOL     OW17497   4.750   0.113   7.345
 5646SOL    HW117498   4.791   0.195   7.317
 5646SOL    HW217499   4.789   0.046   7.289
 5647SOL     OW17500   4.204   0.056   7.325
 5647SOL    HW117501   4.149   5.292   7.280
 5647SOL    HW217502   4.145   0.128   7.347
 5648SOL     OW17503   4.308   0.872   6.617
 5648SOL    HW117504   4.336   0.963   6.614
 5648SOL    HW217505   4.250   0.868   6.694
 5649SOL     OW17506   5.086   0.858   6.624
 5649SOL    HW117507   5.009   0.844   6.569
 5649SOL    HW217508   5.134   0.775   6.620
 5650SOL     OW17509   4.932   0.532   5.854
 5650SOL    HW117510   4.935   0.450   5.904
 5650SOL    HW217511   4.887   0.594   5.911
 5651SOL     OW17512   4.022   0.205   6.832
 5651SOL    HW117513   3.984   0.244   6.911
 5651SOL    HW217514   4.018   0.111   6.847
 5652SOL     OW17515   3.770   1.310   6.863
 5652SOL    HW117516   3.803   1.257   6.935
 5652SOL    HW217517   3.777   1.400   6.894
 5653SOL     OW17518   4.450   0.632   6.647
 5653SOL    HW117519   4.523   0.614   6.587
 5653SOL    HW217520   4.422   0.721   6.624
 5654SOL     OW17521   4.024   0.073   6.232
 5654SOL    HW117522   4.011   0.167   6.244
 5654SOL    HW217523   4.061   0.044   6.315
 5655SOL     OW17524   0.028   0.404   5.951
 5655SOL    HW117525   0.062   0.343   6.017
 5655SOL    HW217526   0.002   0.481   6.002
 5656SOL     OW17527   4.751   0.759   6.547
 5656SOL    HW117528   4.751   0.777   6.641
 5656SOL    HW217529   4.724   0.668   6.540
 5657SOL     OW17530   4.700   1.562   7.299
 5657SOL    HW117531   4.688   1.610   7.217
 5657SOL    HW217532   4.747   1.483   7.274
 5658SOL     OW17533   4.077   0.914   7.396
 5658SOL    HW117534   4.161   0.935   7.438
 5658SOL    HW217535   4.100   0.853   7.326
 5659SOL     OW17536   5.028   0.830   5.623
 5659SOL    HW117537   5.062   0.741   5.623
 5659SOL    HW217538   5.054   0.866   5.538
 5660SOL     OW17539   4.789   1.334   6.440
 5660SOL    HW117540   4.792   1.262   6.378
 5660SOL    HW217541   4.848   1.400   6.404
 5661SOL     OW17542   4.034   0.810   6.534
 5661SOL    HW117543   4.127   0.831   6.527
 5661SOL    HW217544   4.032   0.720   6.567
 5662SOL     OW17545   4.057   0.524   6.598
 5662SOL    HW117546   4.021   0.437   6.582
 5662SOL    HW217547   4.133   0.529   6.540
 5663SOL     OW17548   4.862   0.377   7.273
 5663SOL    HW117549   4.813   0.432   7.335
 5663SOL    HW217550   4.946   0.421   7.264
 5664SOL     OW17551   4.850   0.232   7.044
 5664SOL    HW117552   4.861   0.282   7.125
 5664SOL    HW217553   4.913   0.270   6.984
 5665SOL     OW17554   3.729   1.322   5.781
 5665SOL    HW117555   3.642   1.336   5.743
 5665SOL    HW217556   3.727   1.232   5.814
 5666SOL     OW17557   3.814   1.789   6.523
 5666SOL    HW117558   3.784   1.709   6.480
 5666SOL    HW217559   3.904   1.800   6.492
 5667SOL     OW17560   4.222   1.573   6.492
 5667SOL    HW117561   4.291   1.636   6.516
 5667SOL    HW217562   4.266   1.509   6.436
 5668SOL     OW17563   4.710   0.794   6.814
 5668SOL    HW117564   4.763   0.768   6.889
 5668SOL    HW217565   4.624   0.756   6.831
 5669SOL     OW17566   3.759   0.542   6.703
 5669SOL    HW117567   3.840   0.528   6.653
 5669SOL    HW217568   3.788   0.548   6.794
 5670SOL     OW17569   3.913   0.519   7.312
 5670SOL    HW117570   3.974   0.486   7.246
 5670SOL    HW217571   3.869   0.592   7.268
 5671SOL     OW17572   5.109   0.939   7.252
 5671SOL    HW117573   5.119   1.034   7.242
 5671SOL    HW217574   5.112   0.905   7.163
 5672SOL     OW17575   4.539   0.573   5.943
 5672SOL    HW117576   4.540   0.496   5.885
 5672SOL    HW217577   4.464   0.624   5.914
 5673SOL     OW17578   3.969   1.552   7.315
 5673SOL    HW117579   3.946   1.616   7.383
 5673SOL    HW217580   3.969   1.468   7.361
 5674SOL     OW17581   4.418   0.454   6.849
 5674SOL    HW117582   4.370   0.379   6.814
 5674SOL    HW217583   4.420   0.517   6.777
 5675SOL     OW17584   4.647   1.680   7.053
 5675SOL    HW117585   4.625   1.649   6.966
 5675SOL    HW217586   4.650   1.775   7.046
 5676SOL     OW17587   4.189   0.493   5.771
 5676SOL    HW117588   4.248   0.565   5.793
 5676SOL    HW217589   4.103   0.534   5.762
 5677SOL     OW17590   3.871   1.140   7.058
 5677SOL    HW117591   3.874   1.087   7.138
 5677SOL    HW217592   3.888   1.078   6.987
 5678SOL     OW17593   5.055   1.050   6.811
 5678SOL    HW117594   5.077   0.986   6.743
 5678SOL    HW217595   4.982   1.100   6.775
 5679SOL     OW17596   5.034   0.857   5.902
 5679SOL    HW117597   4.951   0.827   5.939
 5679SOL    HW217598   5.022   0.851   5.808
 5680SOL     OW17599   4.961   1.731   6.708
 5680SOL    HW117600   5.047   1.750   6.670
 5680SOL    HW217601   4.960   1.636   6.719
 5681SOL     OW17602   3.808   1.266   6.599
 5681SOL    HW117603   3.794   1.278   6.693
 5681SOL    HW217604   3.734   1.212   6.571
 5682SOL     OW17605   4.400   1.663   7.310
 5682SOL    HW117606   4.351   1.745   7.308
 5682SOL    HW217607   4.468   1.674   7.244
 5683SOL     OW17608   5.111   1.570   6.065
 5683SOL    HW117609   5.180   1.609   6.011
 5683SOL    HW217610   5.062   1.644   6.100
 5684SOL     OW17611   3.859   1.797   7.430
 5684SOL    HW117612   3.808   1.732   7.480
 5684SOL    HW217613   3.908   1.845   7.497
 5685SOL     OW17614   5.015   0.919   6.259
 5685SOL    HW117615   5.092   0.864   6.245
 5685SOL    HW217616   5.033   0.999   6.210
 5686SOL     OW17617   4.541   1.273   7.017
 5686SOL    HW117618   4.513   1.312   7.100
 5686SOL    HW217619   4.471   1.295   6.956
 5687SOL     OW17620   4.396   1.618   5.741
 5687SOL    HW117621   4.406   1.630   5.647
 5687SOL    HW217622   4.341   1.540   5.751
 5688SOL     OW17623   3.988   0.329   6.306
 5688SOL    HW117624   3.900   0.360   6.283
 5688SOL    HW217625   3.984   0.316   6.401
 5689SOL     OW17626   4.910   1.610   5.626
 5689SOL    HW117627   4.920   1.515   5.638
 5689SOL    HW217628   4.855   1.618   5.548
 5690SOL     OW17629   4.548   1.006   6.958
 5690SOL    HW117630   4.591   1.002   6.873
 5690SOL    HW217631   4.548   1.099   6.981
 5691SOL     OW17632   4.640   0.911   5.876
 5691SOL    HW117633   4.702   0.943   5.810
 5691SOL    HW217634   4.686   0.839   5.920
 5692SOL     OW17635   4.093   1.302   7.078
 5692SOL    HW117636   4.080   1.379   7.023
 5692SOL    HW217637   4.016   1.247   7.061
 5693SOL     OW17638   4.774   1.106   6.292
 5693SOL    HW117639   4.703   1.056   6.333
 5693SOL    HW217640   4.831   1.039   6.253
 5694SOL     OW17641   4.740   0.242   6.555
 5694SOL    HW117642   4.721   0.196   6.473
 5694SOL    HW217643   4.734   0.174   6.622
 5695SOL     OW17644   4.326   1.489   6.068
 5695SOL    HW117645   4.368   1.438   5.999
 5695SOL    HW217646   4.258   1.540   6.023
 5696SOL     OW17647   3.983   1.346   5.873
 5696SOL    HW117648   3.890   1.344   5.851
 5696SOL    HW217649   3.985   1.383   5.962
 5697SOL     OW17650   3.836   1.019   7.305
 5697SOL    HW117651   3.760   0.997   7.358
 5697SOL    HW217652   3.910   0.982   7.354
 5698SOL     OW17653   4.396   0.210   7.074
 5698SOL    HW117654   4.479   0.190   7.031
 5698SOL    HW217655   4.420   0.258   7.154
 5699SOL     OW17656   3.801   0.340   5.627
 5699SOL    HW117657   3.717   0.308   5.593
 5699SOL    HW217658   3.823   0.413   5.569
 5700SOL     OW17659   5.163   0.859   6.989
 5700SOL    HW117660   5.109   0.914   6.933
 5700SOL    HW217661   5.252   0.871   6.957
 5701SOL     OW17662   3.796   0.167   5.902
 5701SOL    HW117663   3.795   0.249   5.854
 5701SOL    HW217664   3.881   0.128   5.882
 5702SOL     OW17665   4.908   1.331   5.701
 5702SOL    HW117666   4.814   1.313   5.701
 5702SOL    HW217667   4.931   1.338   5.793
 5703SOL     OW17668   4.343   0.831   7.019
 5703SOL    HW117669   4.398   0.908   7.004
 5703SOL    HW217670   4.404   0.758   7.027
 5704SOL     OW17671   4.440   0.571   7.290
 5704SOL    HW117672   4.478   0.633   7.353
 5704SOL    HW217673   4.472   0.486   7.318
 5705SOL     OW17674   5.183   1.205   7.217
 5705SOL    HW117675   5.172   1.216   7.312
 5705SOL    HW217676   5.277   1.212   7.202
 5706SOL     OW17677   4.105   1.740   7.150
 5706SOL    HW117678   4.019   1.780   7.137
 5706SOL    HW217679   4.087   1.655   7.192
 5707SOL     OW17680   4.943   0.323   6.048
 5707SOL    HW117681   5.000   0.247   6.041
 5707SOL    HW217682   4.973   0.368   6.126
 5708SOL     OW17683   4.315   0.739   6.254
 5708SOL    HW117684   4.354   0.826   6.237
 5708SOL    HW217685   4.246   0.731   6.189
 5709SOL     OW17686   4.591   1.367   5.619
 5709SOL    HW117687   4.548   1.396   5.699
 5709SOL    HW217688   4.607   1.448   5.570
 5710SOL     OW17689   4.383   1.793   6.532
 5710SOL    HW117690   4.363   1.884   6.508
 5710SOL    HW217691   4.478   1.787   6.525
 5711SOL     OW17692   4.591   0.966   6.442
 5711SOL    HW117693   4.641   0.895   6.482
 5711SOL    HW217694   4.557   1.016   6.516
 5712SOL     OW17695   4.807   0.988   5.676
 5712SOL    HW117696   4.781   1.037   5.598
 5712SOL    HW217697   4.881   0.935   5.648
 5713SOL     OW17698   3.949   1.304   7.443
 5713SOL    HW117699   3.880   1.244   7.413
 5713SOL    HW217700   3.930   1.318   7.536
 5714SOL     OW17701   3.807   1.235   6.250
 5714SOL    HW117702   3.811   1.185   6.332
 5714SOL    HW217703   3.876   1.196   6.196
 5715SOL     OW17704   4.404   1.400   7.213
 5715SOL    HW117705   4.323   1.358   7.244
 5715SOL    HW217706   4.400   1.489   7.248
 5716SOL     OW17707   4.154   0.435   6.110
 5716SOL    HW117708   4.185   0.362   6.055
 5716SOL    HW217709   4.108   0.393   6.182
 5717SOL     OW17710   0.097   1.521   6.685
 5717SOL    HW117711   0.028   1.494   6.624
 5717SOL    HW217712   0.109   1.446   6.743
 5718SOL     OW17713   4.051   0.554   6.876
 5718SOL    HW117714   4.108   0.500   6.931
 5718SOL    HW217715   4.072   0.527   6.787
 5719SOL     OW17716   4.550   1.577   6.264
 5719SOL    HW117717   4.542   1.627   6.183
 5719SOL    HW217718   4.472   1.522   6.267
 5720SOL     OW17719   5.152   0.217   6.706
 5720SOL    HW117720   5.161   0.134   6.752
 5720SOL    HW217721   5.106   0.274   6.767
 5721SOL     OW17722   4.725   0.022   6.728
 5721SOL    HW117723   4.674   5.251   6.687
 5721SOL    HW217724   4.813   5.285   6.739
 5722SOL     OW17725   4.494   1.332   5.899
 5722SOL    HW117726   4.462   1.242   5.905
 5722SOL    HW217727   4.577   1.331   5.947
 5723SOL     OW17728   4.344   1.558   6.870
 5723SOL    HW117729   4.346   1.639   6.920
 5723SOL    HW217730   4.431   1.550   6.832
 5724SOL     OW17731   5.036   0.037   5.748
 5724SOL    HW117732   5.116   0.028   5.696
 5724SOL    HW217733   4.983   5.261   5.724
 5725SOL     OW17734   5.029   0.461   6.273
 5725SOL    HW117735   4.972   0.537   6.277
 5725SOL    HW217736   5.018   0.418   6.357
 5726SOL     OW17737   5.296   0.213   6.466
 5726SOL    HW117738   5.236   0.217   6.541
 5726SOL    HW217739   5.282   0.296   6.420
 5727SOL     OW17740   3.768   1.072   5.891
 5727SOL    HW117741   3.861   1.063   5.874
 5727SOL    HW217742   3.739   0.984   5.914
 5728SOL     OW17743   4.604   1.649   5.932
 5728SOL    HW117744   4.533   1.633   5.869
 5728SOL    HW217745   4.575   1.726   5.981
 5729SOL     OW17746   3.952   0.620   7.571
 5729SOL    HW117747   3.862   0.628   7.601
 5729SOL    HW217748   3.945   0.597   7.478
 5730SOL     OW17749   3.944   1.719   7.919
 5730SOL    HW117750   3.975   1.762   7.998
 5730SOL    HW217751   4.021   1.715   7.862
 5731SOL     OW17752   3.943   1.438   7.989
 5731SOL    HW117753   3.927   1.532   7.991
 5731SOL    HW217754   3.883   1.402   8.055
 5732SOL     OW17755   4.313   0.980   7.578
 5732SOL    HW117756   4.355   1.033   7.510
 5732SOL    HW217757   4.351   1.012   7.660
 5733SOL     OW17758   3.753   1.599   7.577
 5733SOL    HW117759   3.737   1.506   7.592
 5733SOL    HW217760   3.726   1.642   7.659
 5734SOL     OW17761   0.119   0.924   8.016
 5734SOL    HW117762   0.211   0.915   8.039
 5734SOL    HW217763   0.107   1.017   7.997
 5735SOL     OW17764   4.534   5.292   7.947
 5735SOL    HW117765   4.574   0.077   7.931
 5735SOL    HW217766   4.440   0.009   7.942
 5736SOL     OW17767   4.315   0.725   7.709
 5736SOL    HW117768   4.320   0.806   7.658
 5736SOL    HW217769   4.254   0.745   7.779
 5737SOL     OW17770   3.787   0.861   0.093
 5737SOL    HW117771   3.852   0.798   0.124
 5737SOL    HW217772   3.777   0.922   0.166
 5738SOL     OW17773   4.587   0.354   7.634
 5738SOL    HW117774   4.632   0.416   7.576
 5738SOL    HW217775   4.643   0.277   7.636
 5739SOL     OW17776   4.048   0.955   7.697
 5739SOL    HW117777   4.128   0.974   7.647
 5739SOL    HW217778   4.012   0.877   7.656
 5740SOL     OW17779   4.837   1.776   7.684
 5740SOL    HW117780   4.764   1.733   7.727
 5740SOL    HW217781   4.861   1.717   7.612
 5741SOL     OW17782   4.191   1.738   7.769
 5741SOL    HW117783   4.238   1.791   7.834
 5741SOL    HW217784   4.259   1.704   7.711
 5742SOL     OW17785   5.116   0.112   7.874
 5742SOL    HW117786   5.088   0.090   7.785
 5742SOL    HW217787   5.211   0.100   7.872
 5743SOL     OW17788   4.113   0.696   7.918
 5743SOL    HW117789   4.124   0.601   7.926
 5743SOL    HW217790   4.023   0.712   7.944
 5744SOL     OW17791   4.342   0.131   7.560
 5744SOL    HW117792   4.421   0.080   7.574
 5744SOL    HW217793   4.298   0.088   7.486
 5745SOL     OW17794   4.269   0.064   7.953
 5745SOL    HW117795   4.177   0.048   7.975
 5745SOL    HW217796   4.267   0.136   7.890
 5746SOL     OW17797   5.138   1.177   7.488
 5746SOL    HW117798   5.157   1.110   7.553
 5746SOL    HW217799   5.052   1.210   7.512
 5747SOL     OW17800   4.028   0.070   7.656
 5747SOL    HW117801   4.082   0.126   7.600
 5747SOL    HW217802   4.078   5.287   7.661
 5748SOL     OW17803   4.673   0.230   7.912
 5748SOL    HW117804   4.620   0.293   7.863
 5748SOL    HW217805   4.760   0.272   7.917
 5749SOL     OW17806   4.167   1.150   0.100
 5749SOL    HW117807   4.090   1.180   0.148
 5749SOL    HW217808   4.135   1.136   0.011
 5750SOL     OW17809   5.006   1.804   8.013
 5750SOL    HW117810   5.045   1.871   7.956
 5750SOL    HW217811   4.939   1.851   8.062
 5751SOL     OW17812   4.758   0.554   7.461
 5751SOL    HW117813   4.707   0.634   7.447
 5751SOL    HW217814   4.805   0.570   7.543
 5752SOL     OW17815   4.214   1.414   7.607
 5752SOL    HW117816   4.139   1.385   7.660
 5752SOL    HW217817   4.194   1.383   7.519
 5753SOL     OW17818   5.126   0.561   7.528
 5753SOL    HW117819   5.051   0.553   7.587
 5753SOL    HW217820   5.200   0.525   7.577
 5754SOL     OW17821   4.249   0.270   7.773
 5754SOL    HW117822   4.289   0.216   7.705
 5754SOL    HW217823   4.230   0.353   7.730
 5755SOL     OW17824   4.435   1.061   7.812
 5755SOL    HW117825   4.411   1.049   7.904
 5755SOL    HW217826   4.514   1.008   7.801
 5756SOL     OW17827   4.091   1.099   7.929
 5756SOL    HW117828   4.072   1.179   7.879
 5756SOL    HW217829   4.077   1.028   7.867
 5757SOL     OW17830   4.960   1.357   7.820
 5757SOL    HW117831   5.017   1.426   7.851
 5757SOL    HW217832   4.900   1.341   7.893
 5758SOL     OW17833   0.025   0.639   7.936
 5758SOL    HW117834   5.276   0.685   8.005
 5758SOL    HW217835   0.048   0.708   7.873
 5759SOL     OW17836   4.930   0.530   7.716
 5759SOL    HW117837   4.933   0.444   7.758
 5759SOL    HW217838   4.896   0.589   7.784
 5760SOL     OW17839   0.033   0.403   7.807
 5760SOL    HW117840   0.031   0.335   7.874
 5760SOL    HW217841   0.019   0.485   7.854
 5761SOL     OW17842   5.033   0.832   7.489
 5761SOL    HW117843   5.062   0.741   7.486
 5761SOL    HW217844   5.056   0.868   7.404
 5762SOL     OW17845   3.729   1.324   7.640
 5762SOL    HW117846   3.642   1.337   7.603
 5762SOL    HW217847   3.729   1.235   7.674
 5763SOL     OW17848   4.559   0.597   7.765
 5763SOL    HW117849   4.549   0.506   7.735
 5763SOL    HW217850   4.471   0.633   7.765
 5764SOL     OW17851   4.187   0.495   7.639
 5764SOL    HW117852   4.246   0.568   7.655
 5764SOL    HW217853   4.101   0.536   7.623
 5765SOL     OW17854   5.033   0.846   7.771
 5765SOL    HW117855   4.940   0.854   7.792
 5765SOL    HW217856   5.037   0.847   7.676
 5766SOL     OW17857   5.102   1.573   7.908
 5766SOL    HW117858   5.196   1.588   7.897
 5766SOL    HW217859   5.069   1.653   7.949
 5767SOL     OW17860   4.391   1.619   7.604
 5767SOL    HW117861   4.404   1.629   7.509
 5767SOL    HW217862   4.340   1.538   7.613
 5768SOL     OW17863   4.912   1.611   7.486
 5768SOL    HW117864   4.921   1.517   7.501
 5768SOL    HW217865   4.854   1.618   7.410
 5769SOL     OW17866   4.655   0.911   7.758
 5769SOL    HW117867   4.705   0.936   7.680
 5769SOL    HW217868   4.646   0.816   7.752
 5770SOL     OW17869   4.327   1.505   7.936
 5770SOL    HW117870   4.370   1.443   7.878
 5770SOL    HW217871   4.256   1.543   7.884
 5771SOL     OW17872   3.982   1.347   7.739
 5771SOL    HW117873   3.889   1.345   7.714
 5771SOL    HW217874   3.982   1.383   7.828
 5772SOL     OW17875   3.799   0.340   7.489
 5772SOL    HW117876   3.716   0.308   7.453
 5772SOL    HW217877   3.823   0.414   7.434
 5773SOL     OW17878   3.788   0.181   7.748
 5773SOL    HW117879   3.785   0.257   7.690
 5773SOL    HW217880   3.868   0.135   7.723
 5774SOL     OW17881   4.907   1.330   7.557
 5774SOL    HW117882   4.812   1.316   7.557
 5774SOL    HW217883   4.929   1.342   7.649
 5775SOL     OW17884   5.263   1.743   0.320
 5775SOL    HW117885   5.267   1.829   0.279
 5775SOL    HW217886   0.032   1.746   0.387
 5776SOL     OW17887   4.946   0.325   7.908
 5776SOL    HW117888   5.008   0.252   7.906
 5776SOL    HW217889   4.958   0.363   7.995
 5777SOL     OW17890   4.347   0.735   8.058
 5777SOL    HW117891   4.354   0.819   0.023
 5777SOL    HW217892   4.259   0.736   8.019
 5778SOL     OW17893   4.590   1.367   7.480
 5778SOL    HW117894   4.550   1.394   7.563
 5778SOL    HW217895   4.607   1.448   7.433
 5779SOL     OW17896   4.802   0.979   7.539
 5779SOL    HW117897   4.779   1.034   7.464
 5779SOL    HW217898   4.880   0.932   7.511
 5780SOL     OW17899   4.113   0.420   7.982
 5780SOL    HW117900   4.166   0.369   7.921
 5780SOL    HW217901   4.160   0.414   8.065
 5781SOL     OW17902   4.491   1.334   7.756
 5781SOL    HW117903   4.458   1.244   7.761
 5781SOL    HW217904   4.569   1.334   7.811
 5782SOL     OW17905   5.038   0.041   7.613
 5782SOL    HW117906   5.115   0.029   7.557
 5782SOL    HW217907   4.986   5.262   7.599
 5783SOL     OW17908   3.774   1.079   7.750
 5783SOL    HW117909   3.868   1.068   7.736
 5783SOL    HW217910   3.741   0.991   7.767
 5784SOL     OW17911   4.613   1.647   7.784
 5784SOL    HW117912   4.537   1.626   7.730
 5784SOL    HW217913   4.581   1.712   7.846
 5785SOL     OW17914   3.948   2.486   0.122
 5785SOL    HW117915   3.865   2.454   0.159
 5785SOL    HW217916   3.967   2.425   0.050
 5786SOL     OW17917   3.948   2.142   0.991
 5786SOL    HW117918   3.977   2.109   1.076
 5786SOL    HW217919   3.859   2.110   0.982
 5787SOL     OW17920   3.729   2.245   0.638
 5787SOL    HW117921   3.647   2.269   0.679
 5787SOL    HW217922   3.709   2.164   0.590
 5788SOL     OW17923   4.291   3.146   1.173
 5788SOL    HW117924   4.203   3.150   1.135
 5788SOL    HW217925   4.306   3.235   1.207
 5789SOL     OW17926   5.282   3.405   0.706
 5789SOL    HW117927   5.245   3.354   0.779
 5789SOL    HW217928   5.222   3.389   0.633
 5790SOL     OW17929   4.857   2.562   0.702
 5790SOL    HW117930   4.908   2.642   0.691
 5790SOL    HW217931   4.809   2.574   0.784
 5791SOL     OW17932   4.481   3.005   1.038
 5791SOL    HW117933   4.412   3.039   1.095
 5791SOL    HW217934   4.516   3.083   0.994
 5792SOL     OW17935   4.589   2.640   1.822
 5792SOL    HW117936   4.573   2.712   1.883
 5792SOL    HW217937   4.611   2.683   1.739
 5793SOL     OW17938   4.409   2.866   0.650
 5793SOL    HW117939   4.474   2.853   0.719
 5793SOL    HW217940   4.340   2.918   0.691
 5794SOL     OW17941   4.433   3.013   1.811
 5794SOL    HW117942   4.481   3.092   1.836
 5794SOL    HW217943   4.350   3.046   1.776
 5795SOL     OW17944   4.055   3.290   1.068
 5795SOL    HW117945   3.983   3.253   1.017
 5795SOL    HW217946   4.106   3.340   1.005
 5796SOL     OW17947   5.160   3.345   1.348
 5796SOL    HW117948   5.203   3.426   1.375
 5796SOL    HW217949   5.113   3.316   1.426
 5797SOL     OW17950   4.172   2.260   1.490
 5797SOL    HW117951   4.247   2.201   1.494
 5797SOL    HW217952   4.096   2.203   1.501
 5798SOL     OW17953   3.944   3.576   0.473
 5798SOL    HW117954   3.967   3.652   0.526
 5798SOL    HW217955   4.017   3.567   0.411
 5799SOL     OW17956   4.860   3.201   1.693
 5799SOL    HW117957   4.899   3.198   1.781
 5799SOL    HW217958   4.806   3.122   1.688
 5800SOL     OW17959   3.950   3.302   0.531
 5800SOL    HW117960   3.937   3.397   0.536
 5800SOL    HW217961   3.890   3.266   0.596
 5801SOL     OW17962   3.978   2.952   0.890
 5801SOL    HW117963   3.976   2.866   0.932
 5801SOL    HW217964   3.921   3.007   0.944
 5802SOL     OW17965   4.336   3.654   1.428
 5802SOL    HW117966   4.254   3.636   1.475
 5802SOL    HW217967   4.360   3.743   1.454
 5803SOL     OW17968   4.356   2.824   0.130
 5803SOL    HW117969   4.305   2.900   0.105
 5803SOL    HW217970   4.404   2.852   0.209
 5804SOL     OW17971   3.838   2.512   0.561
 5804SOL    HW117972   3.809   2.423   0.582
 5804SOL    HW217973   3.830   2.560   0.643
 5805SOL     OW17974   3.750   3.459   0.112
 5805SOL    HW117975   3.738   3.370   0.146
 5805SOL    HW217976   3.735   3.515   0.187
 5806SOL     OW17977   0.114   2.807   0.592
 5806SOL    HW117978   0.202   2.770   0.595
 5806SOL    HW217979   0.118   2.874   0.524
 5807SOL     OW17980   3.846   2.604   1.586
 5807SOL    HW117981   3.938   2.627   1.598
 5807SOL    HW217982   3.799   2.687   1.594
 5808SOL     OW17983   4.336   3.246   0.735
 5808SOL    HW117984   4.290   3.162   0.744
 5808SOL    HW217985   4.321   3.272   0.644
 5809SOL     OW17986   5.009   3.100   1.425
 5809SOL    HW117987   5.042   3.033   1.365
 5809SOL    HW217988   5.063   3.090   1.504
 5810SOL     OW17989   4.538   1.863   0.509
 5810SOL    HW117990   4.577   1.948   0.489
 5810SOL    HW217991   4.444   1.881   0.518
 5811SOL     OW17992   3.915   2.830   1.269
 5811SOL    HW117993   3.999   2.787   1.254
 5811SOL    HW217994   3.851   2.772   1.227
 5812SOL     OW17995   4.898   3.669   1.622
 5812SOL    HW117996   4.921   3.726   1.549
 5812SOL    HW217997   4.918   3.581   1.590
 5813SOL     OW17998   4.055   2.113   1.808
 5813SOL    HW117999   4.101   2.195   1.824
 5813SOL    HW218000   3.966   2.128   1.841
 5814SOL     OW18001   5.170   3.295   0.939
 5814SOL    HW118002   5.107   3.302   1.010
 5814SOL    HW218003   5.164   3.204   0.909
 5815SOL     OW18004   4.322   2.578   0.282
 5815SOL    HW118005   4.340   2.652   0.225
 5815SOL    HW218006   4.256   2.610   0.344
 5816SOL     OW18007   4.997   2.198   0.921
 5816SOL    HW118008   4.909   2.168   0.942
 5816SOL    HW218009   5.052   2.164   0.991
 5817SOL     OW18010   4.516   2.479   1.452
 5817SOL    HW118011   4.489   2.456   1.541
 5817SOL    HW218012   4.474   2.413   1.397
 5818SOL     OW18013   5.116   2.341   1.680
 5818SOL    HW118014   5.115   2.379   1.767
 5818SOL    HW218015   5.190   2.280   1.680
 5819SOL     OW18016   4.680   2.751   1.581
 5819SOL    HW118017   4.733   2.679   1.547
 5819SOL    HW218018   4.632   2.784   1.505
 5820SOL     OW18019   4.715   2.276   1.239
 5820SOL    HW118020   4.630   2.297   1.278
 5820SOL    HW218021   4.693   2.227   1.159
 5821SOL     OW18022   4.775   2.559   0.426
 5821SOL    HW118023   4.790   2.554   0.521
 5821SOL    HW218024   4.693   2.513   0.412
 5822SOL     OW18025   3.813   2.683   0.775
 5822SOL    HW118026   3.894   2.675   0.826
 5822SOL    HW218027   3.770   2.761   0.811
 5823SOL     OW18028   3.851   3.703   1.576
 5823SOL    HW118029   3.850   3.684   1.670
 5823SOL    HW218030   3.759   3.705   1.551
 5824SOL     OW18031   4.607   2.218   0.200
 5824SOL    HW118032   4.652   2.266   0.130
 5824SOL    HW218033   4.608   2.127   0.171
 5825SOL     OW18034   5.093   3.008   0.547
 5825SOL    HW118035   5.176   3.000   0.500
 5825SOL    HW218036   5.041   3.067   0.494
 5826SOL     OW18037   4.273   2.045   0.892
 5826SOL    HW118038   4.275   2.072   0.984
 5826SOL    HW218039   4.276   2.127   0.843
 5827SOL     OW18040   4.732   3.307   0.474
 5827SOL    HW118041   4.691   3.378   0.424
 5827SOL    HW218042   4.715   3.330   0.566
 5828SOL     OW18043   4.078   3.669   0.859
 5828SOL    HW118044   4.122   3.585   0.868
 5828SOL    HW218045   4.147   3.734   0.877
 5829SOL     OW18046   4.939   3.407   1.521
 5829SOL    HW118047   4.928   3.331   1.578
 5829SOL    HW218048   4.889   3.385   1.442
 5830SOL     OW18049   4.052   2.803   0.252
 5830SOL    HW118050   4.123   2.845   0.203
 5830SOL    HW218051   4.050   2.713   0.219
 5831SOL     OW18052   4.189   3.125   1.738
 5831SOL    HW118053   4.161   3.130   1.646
 5831SOL    HW218054   4.107   3.124   1.787
 5832SOL     OW18055   4.827   3.637   0.226
 5832SOL    HW118056   4.772   3.596   0.293
 5832SOL    HW218057   4.843   3.567   0.162
 5833SOL     OW18058   3.924   2.144   1.500
 5833SOL    HW118059   3.842   2.194   1.495
 5833SOL    HW218060   3.908   2.079   1.569
 5834SOL     OW18061   4.189   3.601   0.323
 5834SOL    HW118062   4.230   3.659   0.387
 5834SOL    HW218063   4.260   3.575   0.264
 5835SOL     OW18064   5.119   1.986   0.437
 5835SOL    HW118065   5.101   1.968   0.344
 5835SOL    HW218066   5.214   1.994   0.442
 5836SOL     OW18067   3.978   3.654   1.233
 5836SOL    HW118068   4.031   3.590   1.280
 5836SOL    HW218069   3.969   3.617   1.145
 5837SOL     OW18070   4.662   3.560   0.900
 5837SOL    HW118071   4.741   3.509   0.917
 5837SOL    HW218072   4.617   3.511   0.831
 5838SOL     OW18073   4.109   2.559   0.477
 5838SOL    HW118074   4.136   2.468   0.487
 5838SOL    HW218075   4.017   2.560   0.500
 5839SOL     OW18076   4.353   1.974   0.134
 5839SOL    HW118077   4.447   1.961   0.141
 5839SOL    HW218078   4.332   1.954   0.042
 5840SOL     OW18079   4.491   2.140   1.753
 5840SOL    HW118080   4.565   2.079   1.757
 5840SOL    HW218081   4.441   2.121   1.833
 5841SOL     OW18082   4.600   3.383   1.194
 5841SOL    HW118083   4.586   3.348   1.106
 5841SOL    HW218084   4.670   3.329   1.230
 5842SOL     OW18085   5.058   2.453   1.432
 5842SOL    HW118086   5.092   2.420   1.516
 5842SOL    HW218087   5.100   2.538   1.422
 5843SOL     OW18088   4.537   3.258   0.937
 5843SOL    HW118089   4.622   3.248   0.893
 5843SOL    HW218090   4.473   3.258   0.866
 5844SOL     OW18091   4.651   2.371   0.903
 5844SOL    HW118092   4.628   2.362   0.811
 5844SOL    HW218093   4.684   2.285   0.928
 5845SOL     OW18094   4.273   1.925   0.506
 5845SOL    HW118095   4.192   1.925   0.558
 5845SOL    HW218096   4.267   2.003   0.452
 5846SOL     OW18097   5.142   3.035   0.041
 5846SOL    HW118098   5.146   2.965   0.106
 5846SOL    HW218099   5.057   3.076   0.056
 5847SOL     OW18100   4.033   1.915   0.167
 5847SOL    HW118101   4.096   1.985   0.181
 5847SOL    HW218102   4.071   1.839   0.211
 5848SOL     OW18103   4.661   2.107   0.461
 5848SOL    HW118104   4.632   2.149   0.379
 5848SOL    HW218105   4.755   2.123   0.464
 5849SOL     OW18106   4.801   2.542   1.461
 5849SOL    HW118107   4.733   2.475   1.464
 5849SOL    HW218108   4.883   2.493   1.451
 5850SOL     OW18109   4.941   3.434   0.796
 5850SOL    HW118110   4.965   3.499   0.729
 5850SOL    HW218111   5.021   3.422   0.848
 5851SOL     OW18112   4.191   3.011   0.735
 5851SOL    HW118113   4.121   2.992   0.798
 5851SOL    HW218114   4.151   2.994   0.650
 5852SOL     OW18115   4.994   3.657   0.603
 5852SOL    HW118116   5.038   3.720   0.546
 5852SOL    HW218117   4.930   3.709   0.652
 5853SOL     OW18118   4.759   2.396   0.026
 5853SOL    HW118119   4.711   2.474   0.000
 5853SOL    HW218120   4.817   2.425   0.096
 5854SOL     OW18121   3.801   2.417   1.391
 5854SOL    HW118122   3.893   2.415   1.364
 5854SOL    HW218123   3.797   2.487   1.457
 5855SOL     OW18124   4.284   2.089   1.164
 5855SOL    HW118125   4.325   2.011   1.203
 5855SOL    HW218126   4.193   2.086   1.195
 5856SOL     OW18127   4.592   2.321   0.639
 5856SOL    HW118128   4.549   2.376   0.574
 5856SOL    HW218129   4.613   2.240   0.592
 5857SOL     OW18130   4.739   1.914   0.752
 5857SOL    HW118131   4.679   1.907   0.677
 5857SOL    HW218132   4.718   1.838   0.807
 5858SOL     OW18133   5.158   3.037   0.851
 5858SOL    HW118134   5.102   2.961   0.863
 5858SOL    HW218135   5.169   3.045   0.756
 5859SOL     OW18136   4.207   3.300   0.172
 5859SOL    HW118137   4.135   3.257   0.219
 5859SOL    HW218138   4.211   3.256   0.087
 5860SOL     OW18139   5.124   2.446   0.078
 5860SOL    HW118140   5.065   2.421   0.149
 5860SOL    HW218141   5.195   2.382   0.081
 5861SOL     OW18142   4.243   2.125   0.324
 5861SOL    HW118143   4.291   2.072   0.261
 5861SOL    HW218144   4.231   2.210   0.282
 5862SOL     OW18145   4.782   3.215   1.333
 5862SOL    HW118146   4.707   3.185   1.385
 5862SOL    HW218147   4.858   3.173   1.374
 5863SOL     OW18148   0.006   3.466   1.618
 5863SOL    HW118149   0.039   3.474   1.529
 5863SOL    HW218150   0.083   3.446   1.671
 5864SOL     OW18151   4.850   3.063   1.107
 5864SOL    HW118152   4.791   3.101   1.172
 5864SOL    HW218153   4.816   3.093   1.023
 5865SOL     OW18154   4.642   1.961   1.398
 5865SOL    HW118155   4.664   1.942   1.307
 5865SOL    HW218156   4.721   1.999   1.434
 5866SOL     OW18157   4.708   2.975   1.724
 5866SOL    HW118158   4.616   2.992   1.743
 5866SOL    HW218159   4.707   2.898   1.667
 5867SOL     OW18160   4.436   2.923   0.379
 5867SOL    HW118161   4.420   2.907   0.472
 5867SOL    HW218162   4.514   2.871   0.359
 5868SOL     OW18163   4.141   2.676   1.251
 5868SOL    HW118164   4.210   2.686   1.317
 5868SOL    HW218165   4.106   2.588   1.266
 5869SOL     OW18166   4.990   2.238   1.275
 5869SOL    HW118167   5.024   2.317   1.317
 5869SOL    HW218168   4.901   2.262   1.249
 5870SOL     OW18169   3.793   3.434   1.350
 5870SOL    HW118170   3.762   3.508   1.298
 5870SOL    HW218171   3.888   3.440   1.347
 5871SOL     OW18172   4.071   2.971   0.492
 5871SOL    HW118173   4.079   3.044   0.431
 5871SOL    HW218174   4.080   2.893   0.437
 5872SOL     OW18175   4.278   2.399   0.860
 5872SOL    HW118176   4.294   2.458   0.786
 5872SOL    HW218177   4.342   2.427   0.926
 5873SOL     OW18178   4.971   3.209   0.392
 5873SOL    HW118179   5.027   3.281   0.420
 5873SOL    HW218180   4.884   3.231   0.424
 5874SOL     OW18181   4.992   3.317   1.139
 5874SOL    HW118182   5.047   3.321   1.217
 5874SOL    HW218183   4.939   3.238   1.151
 5875SOL     OW18184   4.071   3.387   1.317
 5875SOL    HW118185   4.059   3.345   1.232
 5875SOL    HW218186   4.166   3.400   1.323
 5876SOL     OW18187   4.137   2.607   1.602
 5876SOL    HW118188   4.198   2.652   1.544
 5876SOL    HW218189   4.178   2.521   1.617
 5877SOL     OW18190   4.718   1.983   1.756
 5877SOL    HW118191   4.773   2.056   1.726
 5877SOL    HW218192   4.767   1.905   1.731
 5878SOL     OW18193   4.222   1.905   1.747
 5878SOL    HW118194   4.180   1.850   1.680
 5878SOL    HW218195   4.162   1.978   1.759
 5879SOL     OW18196   4.306   2.735   1.031
 5879SOL    HW118197   4.337   2.825   1.029
 5879SOL    HW218198   4.250   2.730   1.108
 5880SOL     OW18199   5.085   2.719   1.039
 5880SOL    HW118200   5.010   2.705   0.982
 5880SOL    HW218201   5.135   2.638   1.034
 5881SOL     OW18202   4.933   2.393   0.271
 5881SOL    HW118203   4.936   2.312   0.322
 5881SOL    HW218204   4.887   2.456   0.326
 5882SOL     OW18205   4.024   2.061   1.246
 5882SOL    HW118206   3.987   2.094   1.328
 5882SOL    HW218207   4.004   1.968   1.247
 5883SOL     OW18208   3.770   3.172   1.277
 5883SOL    HW118209   3.803   3.119   1.349
 5883SOL    HW218210   3.777   3.262   1.308
 5884SOL     OW18211   4.449   2.493   1.059
 5884SOL    HW118212   4.523   2.476   1.001
 5884SOL    HW218213   4.421   2.583   1.037
 5885SOL     OW18214   4.025   1.928   0.623
 5885SOL    HW118215   4.008   2.018   0.648
 5885SOL    HW218216   4.032   1.881   0.706
 5886SOL     OW18217   0.045   2.240   0.359
 5886SOL    HW118218   0.062   2.181   0.433
 5886SOL    HW218219   0.013   2.321   0.400
 5887SOL     OW18220   4.750   2.621   0.961
 5887SOL    HW118221   4.751   2.639   1.055
 5887SOL    HW218222   4.725   2.529   0.954
 5888SOL     OW18223   4.698   3.423   1.713
 5888SOL    HW118224   4.687   3.471   1.631
 5888SOL    HW218225   4.747   3.345   1.688
 5889SOL     OW18226   4.077   2.777   1.808
 5889SOL    HW118227   4.160   2.797   1.853
 5889SOL    HW218228   4.101   2.715   1.740
 5890SOL     OW18229   5.029   2.696   0.029
 5890SOL    HW118230   5.060   2.607   0.046
 5890SOL    HW218231   5.060   2.715   8.020
 5891SOL     OW18232   4.789   3.196   0.855
 5891SOL    HW118233   4.792   3.124   0.792
 5891SOL    HW218234   4.848   3.262   0.819
 5892SOL     OW18235   4.034   2.671   0.947
 5892SOL    HW118236   4.127   2.693   0.942
 5892SOL    HW218237   4.032   2.582   0.982
 5893SOL     OW18238   4.056   2.386   1.012
 5893SOL    HW118239   4.021   2.299   0.996
 5893SOL    HW218240   4.133   2.392   0.954
 5894SOL     OW18241   4.857   2.239   1.679
 5894SOL    HW118242   4.810   2.294   1.743
 5894SOL    HW218243   4.944   2.278   1.674
 5895SOL     OW18244   4.885   2.066   1.468
 5895SOL    HW118245   4.874   2.127   1.541
 5895SOL    HW218246   4.923   2.118   1.398
 5896SOL     OW18247   3.734   3.187   0.191
 5896SOL    HW118248   3.647   3.201   0.154
 5896SOL    HW218249   3.733   3.096   0.222
 5897SOL     OW18250   3.814   3.651   0.937
 5897SOL    HW118251   3.784   3.570   0.893
 5897SOL    HW218252   3.904   3.662   0.906
 5898SOL     OW18253   4.222   3.435   0.906
 5898SOL    HW118254   4.290   3.498   0.930
 5898SOL    HW218255   4.266   3.371   0.850
 5899SOL     OW18256   4.710   2.656   1.228
 5899SOL    HW118257   4.764   2.631   1.303
 5899SOL    HW218258   4.623   2.619   1.247
 5900SOL     OW18259   3.760   2.406   1.116
 5900SOL    HW118260   3.841   2.390   1.068
 5900SOL    HW218261   3.787   2.411   1.208
 5901SOL     OW18262   3.915   2.380   1.726
 5901SOL    HW118263   3.973   2.344   1.659
 5901SOL    HW218264   3.870   2.453   1.683
 5902SOL     OW18265   5.110   2.802   1.666
 5902SOL    HW118266   5.120   2.897   1.655
 5902SOL    HW218267   5.113   2.767   1.577
 5903SOL     OW18268   4.542   2.432   0.363
 5903SOL    HW118269   4.550   2.360   0.301
 5903SOL    HW218270   4.466   2.481   0.334
 5904SOL     OW18271   3.969   3.414   1.729
 5904SOL    HW118272   3.946   3.478   1.796
 5904SOL    HW218273   3.969   3.330   1.775
 5905SOL     OW18274   4.421   2.314   1.261
 5905SOL    HW118275   4.370   2.239   1.230
 5905SOL    HW218276   4.419   2.377   1.189
 5906SOL     OW18277   4.646   3.542   1.468
 5906SOL    HW118278   4.625   3.511   1.380
 5906SOL    HW218279   4.650   3.637   1.460
 5907SOL     OW18280   4.193   2.352   0.181
 5907SOL    HW118281   4.258   2.420   0.199
 5907SOL    HW218282   4.109   2.397   0.189
 5908SOL     OW18283   3.871   3.002   1.471
 5908SOL    HW118284   3.875   2.949   1.551
 5908SOL    HW218285   3.888   2.940   1.401
 5909SOL     OW18286   5.055   2.913   1.225
 5909SOL    HW118287   5.077   2.848   1.158
 5909SOL    HW218288   4.982   2.962   1.188
 5910SOL     OW18289   5.023   2.730   0.319
 5910SOL    HW118290   4.945   2.686   0.352
 5910SOL    HW218291   5.024   2.710   0.225
 5911SOL     OW18292   4.961   3.593   1.122
 5911SOL    HW118293   5.046   3.612   1.084
 5911SOL    HW218294   4.960   3.498   1.133
 5912SOL     OW18295   3.807   3.128   1.013
 5912SOL    HW118296   3.794   3.140   1.107
 5912SOL    HW218297   3.734   3.074   0.985
 5913SOL     OW18298   4.401   3.526   1.725
 5913SOL    HW118299   4.351   3.607   1.721
 5913SOL    HW218300   4.468   3.535   1.658
 5914SOL     OW18301   4.629   1.953   0.134
 5914SOL    HW118302   4.651   1.938   0.043
 5914SOL    HW218303   4.691   1.898   0.183
 5915SOL     OW18304   0.085   2.011   0.521
 5915SOL    HW118305   0.175   2.007   0.491
 5915SOL    HW218306   0.076   1.940   0.584
 5916SOL     OW18307   5.108   3.431   0.478
 5916SOL    HW118308   5.162   3.472   0.410
 5916SOL    HW218309   5.061   3.504   0.518
 5917SOL     OW18310   3.859   3.659   1.843
 5917SOL    HW118311   3.808   3.594   1.892
 5917SOL    HW218312   3.908   3.707   1.910
 5918SOL     OW18313   5.015   2.781   0.673
 5918SOL    HW118314   5.092   2.726   0.658
 5918SOL    HW218315   5.033   2.861   0.624
 5919SOL     OW18316   4.541   3.134   1.431
 5919SOL    HW118317   4.513   3.174   1.514
 5919SOL    HW218318   4.471   3.157   1.370
 5920SOL     OW18319   4.401   3.481   0.156
 5920SOL    HW118320   4.406   3.487   0.061
 5920SOL    HW218321   4.340   3.408   0.172
 5921SOL     OW18322   3.987   2.179   0.718
 5921SOL    HW118323   3.902   2.215   0.694
 5921SOL    HW218324   3.983   2.170   0.813
 5922SOL     OW18325   4.861   3.442   0.046
 5922SOL    HW118326   4.903   3.357   0.061
 5922SOL    HW218327   4.895   3.472   8.042
 5923SOL     OW18328   4.548   2.868   1.372
 5923SOL    HW118329   4.592   2.864   1.287
 5923SOL    HW218330   4.548   2.961   1.395
 5924SOL     OW18331   4.642   2.776   0.299
 5924SOL    HW118332   4.696   2.801   0.223
 5924SOL    HW218333   4.689   2.702   0.338
 5925SOL     OW18334   4.093   3.164   1.492
 5925SOL    HW118335   4.080   3.241   1.437
 5925SOL    HW218336   4.016   3.109   1.475
 5926SOL     OW18337   4.773   2.968   0.707
 5926SOL    HW118338   4.703   2.917   0.747
 5926SOL    HW218339   4.831   2.903   0.666
 5927SOL     OW18340   4.740   2.101   0.967
 5927SOL    HW118341   4.737   2.053   0.884
 5927SOL    HW218342   4.736   2.033   1.034
 5928SOL     OW18343   4.325   3.349   0.481
 5928SOL    HW118344   4.368   3.300   0.411
 5928SOL    HW218345   4.259   3.401   0.436
 5929SOL     OW18346   3.989   3.184   0.293
 5929SOL    HW118347   3.903   3.196   0.254
 5929SOL    HW218348   3.984   3.230   0.377
 5930SOL     OW18349   3.836   2.881   1.719
 5930SOL    HW118350   3.760   2.859   1.772
 5930SOL    HW218351   3.911   2.845   1.767
 5931SOL     OW18352   4.397   2.058   1.499
 5931SOL    HW118353   4.481   2.039   1.457
 5931SOL    HW218354   4.421   2.088   1.587
 5932SOL     OW18355   3.781   2.225   0.039
 5932SOL    HW118356   3.708   2.168   0.014
 5932SOL    HW218357   3.827   2.243   8.037
 5933SOL     OW18358   5.162   2.722   1.404
 5933SOL    HW118359   5.110   2.778   1.347
 5933SOL    HW218360   5.251   2.729   1.370
 5934SOL     OW18361   3.795   2.017   0.308
 5934SOL    HW118362   3.780   2.101   0.264
 5934SOL    HW218363   3.880   1.987   0.275
 5935SOL     OW18364   4.915   3.178   0.121
 5935SOL    HW118365   4.819   3.177   0.115
 5935SOL    HW218366   4.933   3.185   0.214
 5936SOL     OW18367   4.342   2.693   1.432
 5936SOL    HW118368   4.398   2.769   1.418
 5936SOL    HW218369   4.403   2.620   1.441
 5937SOL     OW18370   4.441   2.426   1.705
 5937SOL    HW118371   4.479   2.489   1.767
 5937SOL    HW218372   4.472   2.341   1.735
 5938SOL     OW18373   5.183   3.068   1.632
 5938SOL    HW118374   5.174   3.079   1.727
 5938SOL    HW218375   5.277   3.072   1.616
 5939SOL     OW18376   4.105   3.602   1.564
 5939SOL    HW118377   4.019   3.641   1.551
 5939SOL    HW218378   4.087   3.517   1.606
 5940SOL     OW18379   4.936   2.186   0.460
 5940SOL    HW118380   4.999   2.115   0.448
 5940SOL    HW218381   4.965   2.232   0.539
 5941SOL     OW18382   4.314   2.600   0.668
 5941SOL    HW118383   4.354   2.686   0.653
 5941SOL    HW218384   4.244   2.595   0.602
 5942SOL     OW18385   4.616   3.233   0.030
 5942SOL    HW118386   4.552   3.229   0.101
 5942SOL    HW218387   4.614   3.324   0.001
 5943SOL     OW18388   4.383   3.655   0.946
 5943SOL    HW118389   4.363   3.746   0.922
 5943SOL    HW218390   4.478   3.649   0.939
 5944SOL     OW18391   4.590   2.827   0.856
 5944SOL    HW118392   4.641   2.757   0.896
 5944SOL    HW218393   4.557   2.878   0.930
 5945SOL     OW18394   4.800   2.837   0.085
 5945SOL    HW118395   4.791   2.901   0.014
 5945SOL    HW218396   4.882   2.792   0.067
 5946SOL     OW18397   3.948   3.166   1.856
 5946SOL    HW118398   3.880   3.105   1.827
 5946SOL    HW218399   3.932   3.179   1.949
 5947SOL     OW18400   3.807   3.095   0.663
 5947SOL    HW118401   3.811   3.047   0.746
 5947SOL    HW218402   3.880   3.061   0.612
 5948SOL     OW18403   4.404   3.262   1.627
 5948SOL    HW118404   4.324   3.221   1.658
 5948SOL    HW218405   4.400   3.351   1.662
 5949SOL     OW18406   4.150   2.298   0.523
 5949SOL    HW118407   4.182   2.226   0.469
 5949SOL    HW218408   4.106   2.254   0.596
 5950SOL     OW18409   0.096   3.384   1.099
 5950SOL    HW118410   0.028   3.356   1.037
 5950SOL    HW218411   0.109   3.308   1.156
 5951SOL     OW18412   4.052   2.415   1.291
 5951SOL    HW118413   4.108   2.360   1.346
 5951SOL    HW218414   4.073   2.388   1.202
 5952SOL     OW18415   4.550   3.440   0.678
 5952SOL    HW118416   4.542   3.488   0.597
 5952SOL    HW218417   4.472   3.384   0.681
 5953SOL     OW18418   5.149   2.081   1.115
 5953SOL    HW118419   5.193   2.014   1.168
 5953SOL    HW218420   5.103   2.136   1.178
 5954SOL     OW18421   4.730   1.882   1.144
 5954SOL    HW118422   4.677   1.813   1.105
 5954SOL    HW218423   4.818   1.844   1.148
 5955SOL     OW18424   4.493   3.190   0.308
 5955SOL    HW118425   4.461   3.100   0.321
 5955SOL    HW218426   4.576   3.193   0.355
 5956SOL     OW18427   4.344   3.420   1.284
 5956SOL    HW118428   4.346   3.501   1.334
 5956SOL    HW218429   4.431   3.412   1.247
 5957SOL     OW18430   5.053   1.923   0.184
 5957SOL    HW118431   5.096   1.874   0.114
 5957SOL    HW218432   4.976   1.872   0.206
 5958SOL     OW18433   5.029   2.322   0.685
 5958SOL    HW118434   4.973   2.399   0.689
 5958SOL    HW218435   5.018   2.280   0.770
 5959SOL     OW18436   0.001   2.085   0.876
 5959SOL    HW118437   5.236   2.074   0.946
 5959SOL    HW218438   5.279   2.170   0.836
 5960SOL     OW18439   3.766   2.930   0.301
 5960SOL    HW118440   3.861   2.930   0.305
 5960SOL    HW218441   3.740   2.848   0.343
 5961SOL     OW18442   4.604   3.512   0.350
 5961SOL    HW118443   4.537   3.496   0.283
 5961SOL    HW218444   4.572   3.590   0.397
 5962SOL     OW18445   3.954   2.485   1.984
 5962SOL    HW118446   3.865   2.485   2.018
 5962SOL    HW218447   3.945   2.459   1.892
 5963SOL     OW18448   3.949   2.141   2.853
 5963SOL    HW118449   3.977   2.109   2.938
 5963SOL    HW218450   3.859   2.110   2.844
 5964SOL     OW18451   3.729   2.244   2.500
 5964SOL    HW118452   3.647   2.270   2.541
 5964SOL    HW218453   3.708   2.164   2.452
 5965SOL     OW18454   4.291   3.146   3.035
 5965SOL    HW118455   4.203   3.148   2.998
 5965SOL    HW218456   4.305   3.235   3.069
 5966SOL     OW18457   5.283   3.397   2.567
 5966SOL    HW118458   5.244   3.353   2.643
 5966SOL    HW218459   5.218   3.387   2.498
 5967SOL     OW18460   4.857   2.561   2.564
 5967SOL    HW118461   4.907   2.642   2.553
 5967SOL    HW218462   4.809   2.574   2.645
 5968SOL     OW18463   4.482   3.006   2.901
 5968SOL    HW118464   4.412   3.039   2.957
 5968SOL    HW218465   4.516   3.083   2.856
 5969SOL     OW18466   4.590   2.640   3.684
 5969SOL    HW118467   4.573   2.712   3.745
 5969SOL    HW218468   4.612   2.683   3.601
 5970SOL     OW18469   4.410   2.867   2.510
 5970SOL    HW118470   4.474   2.854   2.580
 5970SOL    HW218471   4.340   2.918   2.551
 5971SOL     OW18472   4.433   3.014   3.673
 5971SOL    HW118473   4.480   3.093   3.698
 5971SOL    HW218474   4.350   3.046   3.638
 5972SOL     OW18475   4.054   3.290   2.930
 5972SOL    HW118476   3.983   3.252   2.879
 5972SOL    HW218477   4.105   3.340   2.866
 5973SOL     OW18478   5.160   3.345   3.210
 5973SOL    HW118479   5.203   3.426   3.237
 5973SOL    HW218480   5.112   3.316   3.288
 5974SOL     OW18481   4.171   2.260   3.352
 5974SOL    HW118482   4.247   2.201   3.356
 5974SOL    HW218483   4.095   2.203   3.363
 5975SOL     OW18484   3.943   3.576   2.335
 5975SOL    HW118485   3.966   3.652   2.388
 5975SOL    HW218486   4.015   3.568   2.272
 5976SOL     OW18487   4.860   3.201   3.555
 5976SOL    HW118488   4.898   3.198   3.643
 5976SOL    HW218489   4.806   3.122   3.549
 5977SOL     OW18490   3.954   3.302   2.396
 5977SOL    HW118491   3.937   3.396   2.401
 5977SOL    HW218492   3.893   3.263   2.459
 5978SOL     OW18493   3.980   2.953   2.754
 5978SOL    HW118494   3.976   2.866   2.795
 5978SOL    HW218495   3.921   3.007   2.806
 5979SOL     OW18496   4.336   3.654   3.290
 5979SOL    HW118497   4.254   3.636   3.338
 5979SOL    HW218498   4.360   3.743   3.316
 5980SOL     OW18499   4.312   2.842   1.995
 5980SOL    HW118500   4.356   2.894   1.927
 5980SOL    HW218501   4.352   2.872   2.076
 5981SOL     OW18502   3.839   2.514   2.421
 5981SOL    HW118503   3.809   2.425   2.443
 5981SOL    HW218504   3.830   2.562   2.503
 5982SOL     OW18505   3.754   3.458   1.986
 5982SOL    HW118506   3.737   3.366   2.006
 5982SOL    HW218507   3.731   3.505   2.066
 5983SOL     OW18508   0.112   2.803   2.439
 5983SOL    HW118509   0.198   2.766   2.457
 5983SOL    HW218510   0.130   2.884   2.391
 5984SOL     OW18511   3.842   2.603   3.449
 5984SOL    HW118512   3.933   2.631   3.461
 5984SOL    HW218513   3.792   2.684   3.450
 5985SOL     OW18514   4.337   3.245   2.597
 5985SOL    HW118515   4.290   3.162   2.606
 5985SOL    HW218516   4.320   3.272   2.507
 5986SOL     OW18517   5.009   3.100   3.287
 5986SOL    HW118518   5.042   3.033   3.227
 5986SOL    HW218519   5.063   3.091   3.366
 5987SOL     OW18520   4.537   1.861   2.369
 5987SOL    HW118521   4.577   1.946   2.351
 5987SOL    HW218522   4.444   1.881   2.379
 5988SOL     OW18523   3.915   2.832   3.131
 5988SOL    HW118524   3.996   2.784   3.113
 5988SOL    HW218525   3.846   2.778   3.093
 5989SOL     OW18526   4.898   3.669   3.484
 5989SOL    HW118527   4.921   3.726   3.411
 5989SOL    HW218528   4.918   3.581   3.453
 5990SOL     OW18529   4.055   2.112   3.670
 5990SOL    HW118530   4.100   2.195   3.685
 5990SOL    HW218531   3.966   2.128   3.703
 5991SOL     OW18532   5.170   3.296   2.801
 5991SOL    HW118533   5.107   3.302   2.873
 5991SOL    HW218534   5.164   3.205   2.772
 5992SOL     OW18535   4.320   2.584   2.127
 5992SOL    HW118536   4.326   2.665   2.076
 5992SOL    HW218537   4.255   2.604   2.194
 5993SOL     OW18538   4.997   2.198   2.783
 5993SOL    HW118539   4.909   2.168   2.803
 5993SOL    HW218540   5.052   2.164   2.853
 5994SOL     OW18541   4.516   2.479   3.314
 5994SOL    HW118542   4.489   2.456   3.403
 5994SOL    HW218543   4.475   2.413   3.259
 5995SOL     OW18544   5.116   2.341   3.542
 5995SOL    HW118545   5.115   2.379   3.629
 5995SOL    HW218546   5.189   2.280   3.543
 5996SOL     OW18547   4.680   2.751   3.443
 5996SOL    HW118548   4.733   2.678   3.409
 5996SOL    HW218549   4.632   2.784   3.367
 5997SOL     OW18550   4.715   2.275   3.101
 5997SOL    HW118551   4.630   2.298   3.140
 5997SOL    HW218552   4.693   2.228   3.021
 5998SOL     OW18553   4.774   2.560   2.288
 5998SOL    HW118554   4.789   2.554   2.382
 5998SOL    HW218555   4.692   2.513   2.273
 5999SOL     OW18556   3.813   2.683   2.637
 5999SOL    HW118557   3.894   2.675   2.688
 5999SOL    HW218558   3.769   2.760   2.674
 6000SOL     OW18559   3.852   3.705   3.439
 6000SOL    HW118560   3.851   3.685   3.532
 6000SOL    HW218561   3.760   3.704   3.413
 6001SOL     OW18562   4.614   2.208   2.056
 6001SOL    HW118563   4.655   2.269   1.995
 6001SOL    HW218564   4.630   2.122   2.019
 6002SOL     OW18565   5.091   3.007   2.408
 6002SOL    HW118566   5.178   3.005   2.368
 6002SOL    HW218567   5.041   3.068   2.354
 6003SOL     OW18568   4.274   2.045   2.754
 6003SOL    HW118569   4.276   2.073   2.846
 6003SOL    HW218570   4.275   2.127   2.705
 6004SOL     OW18571   4.732   3.306   2.335
 6004SOL    HW118572   4.692   3.378   2.286
 6004SOL    HW218573   4.716   3.329   2.427
 6005SOL     OW18574   4.078   3.669   2.722
 6005SOL    HW118575   4.122   3.585   2.730
 6005SOL    HW218576   4.147   3.734   2.739
 6006SOL     OW18577   4.940   3.406   3.382
 6006SOL    HW118578   4.928   3.331   3.440
 6006SOL    HW218579   4.889   3.385   3.304
 6007SOL     OW18580   4.045   2.818   2.111
 6007SOL    HW118581   4.127   2.837   2.065
 6007SOL    HW218582   4.014   2.737   2.071
 6008SOL     OW18583   4.189   3.125   3.600
 6008SOL    HW118584   4.161   3.130   3.508
 6008SOL    HW218585   4.107   3.124   3.649
 6009SOL     OW18586   4.834   3.637   2.098
 6009SOL    HW118587   4.763   3.591   2.143
 6009SOL    HW218588   4.858   3.578   2.026
 6010SOL     OW18589   3.924   2.144   3.362
 6010SOL    HW118590   3.843   2.196   3.357
 6010SOL    HW218591   3.907   2.081   3.432
 6011SOL     OW18592   4.190   3.599   2.183
 6011SOL    HW118593   4.231   3.657   2.248
 6011SOL    HW218594   4.263   3.571   2.127
 6012SOL     OW18595   5.122   1.970   2.286
 6012SOL    HW118596   5.102   1.951   2.195
 6012SOL    HW218597   5.217   1.984   2.287
 6013SOL     OW18598   3.978   3.654   3.094
 6013SOL    HW118599   4.030   3.589   3.142
 6013SOL    HW218600   3.969   3.617   3.006
 6014SOL     OW18601   4.662   3.560   2.762
 6014SOL    HW118602   4.741   3.509   2.780
 6014SOL    HW218603   4.617   3.511   2.693
 6015SOL     OW18604   4.115   2.557   2.339
 6015SOL    HW118605   4.138   2.465   2.349
 6015SOL    HW218606   4.022   2.562   2.357
 6016SOL     OW18607   4.356   1.986   1.968
 6016SOL    HW118608   4.429   1.925   1.979
 6016SOL    HW218609   4.309   1.953   1.892
 6017SOL     OW18610   4.491   2.140   3.615
 6017SOL    HW118611   4.565   2.079   3.619
 6017SOL    HW218612   4.441   2.121   3.695
 6018SOL     OW18613   4.600   3.383   3.055
 6018SOL    HW118614   4.585   3.347   2.968
 6018SOL    HW218615   4.670   3.329   3.092
 6019SOL     OW18616   5.058   2.453   3.294
 6019SOL    HW118617   5.092   2.420   3.378
 6019SOL    HW218618   5.100   2.538   3.284
 6020SOL     OW18619   4.537   3.259   2.799
 6020SOL    HW118620   4.622   3.248   2.755
 6020SOL    HW218621   4.473   3.258   2.729
 6021SOL     OW18622   4.651   2.371   2.765
 6021SOL    HW118623   4.628   2.362   2.673
 6021SOL    HW218624   4.684   2.285   2.790
 6022SOL     OW18625   4.272   1.925   2.366
 6022SOL    HW118626   4.191   1.926   2.417
 6022SOL    HW218627   4.267   2.003   2.311
 6023SOL     OW18628   5.138   3.042   1.905
 6023SOL    HW118629   5.151   2.965   1.961
 6023SOL    HW218630   5.050   3.073   1.926
 6024SOL     OW18631   4.016   1.909   2.046
 6024SOL    HW118632   4.075   1.974   2.007
 6024SOL    HW218633   4.075   1.845   2.087
 6025SOL     OW18634   4.660   2.107   2.324
 6025SOL    HW118635   4.632   2.148   2.242
 6025SOL    HW218636   4.755   2.118   2.325
 6026SOL     OW18637   4.801   2.542   3.323
 6026SOL    HW118638   4.733   2.476   3.326
 6026SOL    HW218639   4.882   2.493   3.313
 6027SOL     OW18640   4.942   3.433   2.656
 6027SOL    HW118641   4.965   3.499   2.591
 6027SOL    HW218642   5.020   3.424   2.710
 6028SOL     OW18643   4.192   3.010   2.598
 6028SOL    HW118644   4.122   2.991   2.660
 6028SOL    HW218645   4.153   2.993   2.512
 6029SOL     OW18646   4.997   3.656   2.466
 6029SOL    HW118647   5.039   3.718   2.406
 6029SOL    HW218648   4.931   3.709   2.512
 6030SOL     OW18649   4.750   2.408   1.882
 6030SOL    HW118650   4.705   2.490   1.861
 6030SOL    HW218651   4.810   2.430   1.953
 6031SOL     OW18652   3.801   2.416   3.254
 6031SOL    HW118653   3.893   2.415   3.227
 6031SOL    HW218654   3.796   2.487   3.319
 6032SOL     OW18655   4.284   2.089   3.026
 6032SOL    HW118656   4.324   2.011   3.065
 6032SOL    HW218657   4.193   2.086   3.056
 6033SOL     OW18658   4.593   2.322   2.501
 6033SOL    HW118659   4.546   2.376   2.438
 6033SOL    HW218660   4.613   2.241   2.454
 6034SOL     OW18661   4.739   1.914   2.615
 6034SOL    HW118662   4.680   1.907   2.539
 6034SOL    HW218663   4.717   1.839   2.669
 6035SOL     OW18664   5.158   3.037   2.714
 6035SOL    HW118665   5.101   2.961   2.726
 6035SOL    HW218666   5.169   3.044   2.619
 6036SOL     OW18667   4.216   3.278   2.021
 6036SOL    HW118668   4.141   3.248   2.073
 6036SOL    HW218669   4.197   3.245   1.933
 6037SOL     OW18670   5.126   2.425   1.940
 6037SOL    HW118671   5.055   2.415   2.003
 6037SOL    HW218672   5.202   2.387   1.984
 6038SOL     OW18673   4.250   2.125   2.182
 6038SOL    HW118674   4.292   2.076   2.111
 6038SOL    HW218675   4.229   2.210   2.144
 6039SOL     OW18676   4.782   3.215   3.195
 6039SOL    HW118677   4.707   3.185   3.247
 6039SOL    HW218678   4.858   3.173   3.237
 6040SOL     OW18679   0.006   3.466   3.481
 6040SOL    HW118680   0.039   3.474   3.391
 6040SOL    HW218681   0.083   3.446   3.533
 6041SOL     OW18682   4.850   3.063   2.969
 6041SOL    HW118683   4.791   3.100   3.034
 6041SOL    HW218684   4.816   3.093   2.885
 6042SOL     OW18685   4.642   1.961   3.260
 6042SOL    HW118686   4.664   1.942   3.169
 6042SOL    HW218687   4.721   1.999   3.296
 6043SOL     OW18688   4.708   2.975   3.586
 6043SOL    HW118689   4.616   2.992   3.605
 6043SOL    HW218690   4.707   2.898   3.529
 6044SOL     OW18691   4.432   2.923   2.234
 6044SOL    HW118692   4.418   2.907   2.327
 6044SOL    HW218693   4.508   2.869   2.211
 6045SOL     OW18694   4.141   2.675   3.112
 6045SOL    HW118695   4.209   2.685   3.179
 6045SOL    HW218696   4.106   2.587   3.128
 6046SOL     OW18697   4.990   2.238   3.137
 6046SOL    HW118698   5.024   2.317   3.179
 6046SOL    HW218699   4.901   2.261   3.111
 6047SOL     OW18700   3.793   3.436   3.213
 6047SOL    HW118701   3.764   3.508   3.158
 6047SOL    HW218702   3.889   3.439   3.209
 6048SOL     OW18703   4.076   2.969   2.353
 6048SOL    HW118704   4.080   3.043   2.292
 6048SOL    HW218705   4.074   2.892   2.297
 6049SOL     OW18706   4.278   2.399   2.722
 6049SOL    HW118707   4.294   2.458   2.648
 6049SOL    HW218708   4.342   2.427   2.789
 6050SOL     OW18709   4.972   3.210   2.250
 6050SOL    HW118710   5.026   3.283   2.280
 6050SOL    HW218711   4.884   3.230   2.283
 6051SOL     OW18712   4.992   3.317   3.001
 6051SOL    HW118713   5.047   3.321   3.079
 6051SOL    HW218714   4.939   3.239   3.013
 6052SOL     OW18715   4.071   3.388   3.179
 6052SOL    HW118716   4.058   3.346   3.094
 6052SOL    HW218717   4.166   3.400   3.185
 6053SOL     OW18718   4.137   2.607   3.464
 6053SOL    HW118719   4.198   2.652   3.405
 6053SOL    HW218720   4.177   2.522   3.479
 6054SOL     OW18721   4.718   1.983   3.618
 6054SOL    HW118722   4.773   2.056   3.588
 6054SOL    HW218723   4.767   1.904   3.593
 6055SOL     OW18724   4.222   1.904   3.609
 6055SOL    HW118725   4.180   1.850   3.542
 6055SOL    HW218726   4.162   1.978   3.621
 6056SOL     OW18727   4.307   2.734   2.894
 6056SOL    HW118728   4.336   2.825   2.891
 6056SOL    HW218729   4.250   2.729   2.970
 6057SOL     OW18730   5.086   2.720   2.900
 6057SOL    HW118731   5.009   2.705   2.845
 6057SOL    HW218732   5.134   2.638   2.897
 6058SOL     OW18733   4.930   2.393   2.129
 6058SOL    HW118734   4.937   2.313   2.181
 6058SOL    HW218735   4.887   2.456   2.186
 6059SOL     OW18736   4.024   2.061   3.108
 6059SOL    HW118737   3.987   2.095   3.190
 6059SOL    HW218738   4.004   1.968   3.109
 6060SOL     OW18739   3.772   3.173   3.137
 6060SOL    HW118740   3.802   3.118   3.210
 6060SOL    HW218741   3.778   3.263   3.171
 6061SOL     OW18742   4.449   2.494   2.921
 6061SOL    HW118743   4.523   2.477   2.863
 6061SOL    HW218744   4.421   2.583   2.900
 6062SOL     OW18745   4.026   1.927   2.485
 6062SOL    HW118746   4.008   2.018   2.509
 6062SOL    HW218747   4.032   1.881   2.568
 6063SOL     OW18748   0.036   2.253   2.223
 6063SOL    HW118749   0.057   2.180   2.281
 6063SOL    HW218750   0.012   2.325   2.282
 6064SOL     OW18751   4.751   2.621   2.823
 6064SOL    HW118752   4.751   2.639   2.917
 6064SOL    HW218753   4.725   2.529   2.816
 6065SOL     OW18754   4.699   3.424   3.575
 6065SOL    HW118755   4.687   3.471   3.493
 6065SOL    HW218756   4.747   3.345   3.550
 6066SOL     OW18757   4.078   2.777   3.671
 6066SOL    HW118758   4.160   2.796   3.715
 6066SOL    HW218759   4.101   2.715   3.602
 6067SOL     OW18760   5.027   2.692   1.899
 6067SOL    HW118761   5.064   2.603   1.900
 6067SOL    HW218762   5.053   2.727   1.814
 6068SOL     OW18763   4.789   3.196   2.716
 6068SOL    HW118764   4.792   3.124   2.653
 6068SOL    HW218765   4.848   3.262   2.680
 6069SOL     OW18766   4.034   2.672   2.809
 6069SOL    HW118767   4.127   2.693   2.803
 6069SOL    HW218768   4.032   2.583   2.844
 6070SOL     OW18769   4.057   2.386   2.874
 6070SOL    HW118770   4.021   2.298   2.858
 6070SOL    HW218771   4.132   2.392   2.816
 6071SOL     OW18772   4.857   2.239   3.541
 6071SOL    HW118773   4.810   2.294   3.604
 6071SOL    HW218774   4.944   2.278   3.536
 6072SOL     OW18775   4.885   2.065   3.330
 6072SOL    HW118776   4.874   2.127   3.403
 6072SOL    HW218777   4.923   2.118   3.260
 6073SOL     OW18778   3.729   3.184   2.057
 6073SOL    HW118779   3.642   3.198   2.019
 6073SOL    HW218780   3.727   3.094   2.090
 6074SOL     OW18781   3.814   3.651   2.799
 6074SOL    HW118782   3.784   3.571   2.756
 6074SOL    HW218783   3.904   3.662   2.768
 6075SOL     OW18784   4.222   3.435   2.767
 6075SOL    HW118785   4.290   3.497   2.792
 6075SOL    HW218786   4.266   3.371   2.712
 6076SOL     OW18787   4.710   2.655   3.090
 6076SOL    HW118788   4.763   2.631   3.165
 6076SOL    HW218789   4.623   2.619   3.109
 6077SOL     OW18790   3.764   2.402   2.977
 6077SOL    HW118791   3.847   2.391   2.930
 6077SOL    HW218792   3.790   2.412   3.069
 6078SOL     OW18793   3.917   2.380   3.588
 6078SOL    HW118794   3.974   2.344   3.520
 6078SOL    HW218795   3.871   2.453   3.546
 6079SOL     OW18796   5.110   2.802   3.528
 6079SOL    HW118797   5.120   2.897   3.517
 6079SOL    HW218798   5.112   2.767   3.439
 6080SOL     OW18799   4.540   2.431   2.218
 6080SOL    HW118800   4.542   2.356   2.159
 6080SOL    HW218801   4.465   2.483   2.188
 6081SOL     OW18802   3.969   3.414   3.592
 6081SOL    HW118803   3.945   3.477   3.659
 6081SOL    HW218804   3.969   3.329   3.636
 6082SOL     OW18805   4.421   2.314   3.123
 6082SOL    HW118806   4.370   2.239   3.092
 6082SOL    HW218807   4.419   2.377   3.051
 6083SOL     OW18808   4.647   3.542   3.330
 6083SOL    HW118809   4.625   3.511   3.242
 6083SOL    HW218810   4.650   3.637   3.322
 6084SOL     OW18811   4.190   2.355   2.050
 6084SOL    HW118812   4.248   2.428   2.071
 6084SOL    HW218813   4.104   2.394   2.038
 6085SOL     OW18814   3.875   3.002   3.335
 6085SOL    HW118815   3.876   2.948   3.413
 6085SOL    HW218816   3.890   2.940   3.263
 6086SOL     OW18817   5.055   2.912   3.087
 6086SOL    HW118818   5.077   2.848   3.019
 6086SOL    HW218819   4.982   2.962   3.050
 6087SOL     OW18820   5.033   2.720   2.178
 6087SOL    HW118821   4.951   2.688   2.215
 6087SOL    HW218822   5.022   2.712   2.083
 6088SOL     OW18823   4.961   3.593   2.984
 6088SOL    HW118824   5.046   3.612   2.946
 6088SOL    HW218825   4.960   3.498   2.995
 6089SOL     OW18826   3.806   3.130   2.873
 6089SOL    HW118827   3.794   3.140   2.968
 6089SOL    HW218828   3.734   3.073   2.847
 6090SOL     OW18829   4.401   3.526   3.588
 6090SOL    HW118830   4.350   3.607   3.583
 6090SOL    HW218831   4.468   3.535   3.520
 6091SOL     OW18832   0.085   2.020   2.390
 6091SOL    HW118833   0.170   2.009   2.348
 6091SOL    HW218834   0.072   1.938   2.439
 6092SOL     OW18835   5.111   3.432   2.341
 6092SOL    HW118836   5.180   3.470   2.288
 6092SOL    HW218837   5.063   3.506   2.376
 6093SOL     OW18838   3.858   3.660   3.705
 6093SOL    HW118839   3.809   3.594   3.754
 6093SOL    HW218840   3.908   3.707   3.773
 6094SOL     OW18841   5.015   2.781   2.535
 6094SOL    HW118842   5.092   2.726   2.522
 6094SOL    HW218843   5.033   2.861   2.485
 6095SOL     OW18844   4.541   3.135   3.293
 6095SOL    HW118845   4.513   3.174   3.376
 6095SOL    HW218846   4.470   3.157   3.232
 6096SOL     OW18847   4.396   3.480   2.018
 6096SOL    HW118848   4.406   3.491   1.923
 6096SOL    HW218849   4.342   3.402   2.027
 6097SOL     OW18850   3.987   2.179   2.579
 6097SOL    HW118851   3.902   2.215   2.555
 6097SOL    HW218852   3.983   2.170   2.675
 6098SOL     OW18853   4.909   3.472   1.903
 6098SOL    HW118854   4.921   3.377   1.914
 6098SOL    HW218855   4.856   3.480   1.824
 6099SOL     OW18856   4.548   2.868   3.234
 6099SOL    HW118857   4.591   2.865   3.148
 6099SOL    HW218858   4.548   2.961   3.257
 6100SOL     OW18859   4.640   2.773   2.152
 6100SOL    HW118860   4.702   2.804   2.086
 6100SOL    HW218861   4.687   2.701   2.196
 6101SOL     OW18862   4.095   3.165   3.354
 6101SOL    HW118863   4.080   3.242   3.299
 6101SOL    HW218864   4.019   3.109   3.338
 6102SOL     OW18865   4.774   2.968   2.568
 6102SOL    HW118866   4.703   2.918   2.609
 6102SOL    HW218867   4.831   2.901   2.530
 6103SOL     OW18868   4.740   2.101   2.830
 6103SOL    HW118869   4.737   2.054   2.747
 6103SOL    HW218870   4.736   2.033   2.897
 6104SOL     OW18871   4.326   3.350   2.344
 6104SOL    HW118872   4.368   3.300   2.275
 6104SOL    HW218873   4.259   3.402   2.299
 6105SOL     OW18874   3.982   3.208   2.149
 6105SOL    HW118875   3.889   3.206   2.127
 6105SOL    HW218876   3.985   3.244   2.238
 6106SOL     OW18877   3.840   2.886   3.588
 6106SOL    HW118878   3.765   2.849   3.634
 6106SOL    HW218879   3.916   2.847   3.630
 6107SOL     OW18880   4.397   2.058   3.361
 6107SOL    HW118881   4.481   2.039   3.319
 6107SOL    HW218882   4.421   2.088   3.449
 6108SOL     OW18883   3.801   2.198   1.898
 6108SOL    HW118884   3.714   2.177   1.864
 6108SOL    HW218885   3.831   2.272   1.845
 6109SOL     OW18886   5.162   2.722   3.266
 6109SOL    HW118887   5.110   2.778   3.209
 6109SOL    HW218888   5.251   2.729   3.232
 6110SOL     OW18889   3.793   2.019   2.174
 6110SOL    HW118890   3.779   2.099   2.123
 6110SOL    HW218891   3.878   1.987   2.144
 6111SOL     OW18892   4.908   3.193   1.977
 6111SOL    HW118893   4.814   3.175   1.978
 6111SOL    HW218894   4.932   3.200   2.069
 6112SOL     OW18895   4.342   2.693   3.294
 6112SOL    HW118896   4.398   2.769   3.280
 6112SOL    HW218897   4.403   2.620   3.303
 6113SOL     OW18898   4.442   2.426   3.567
 6113SOL    HW118899   4.479   2.489   3.629
 6113SOL    HW218900   4.473   2.341   3.598
 6114SOL     OW18901   5.183   3.068   3.494
 6114SOL    HW118902   5.174   3.079   3.589
 6114SOL    HW218903   5.277   3.073   3.479
 6115SOL     OW18904   4.105   3.601   3.426
 6115SOL    HW118905   4.019   3.642   3.413
 6115SOL    HW218906   4.086   3.517   3.468
 6116SOL     OW18907   4.942   2.182   2.318
 6116SOL    HW118908   5.004   2.111   2.305
 6116SOL    HW218909   4.971   2.226   2.398
 6117SOL     OW18910   4.316   2.601   2.529
 6117SOL    HW118911   4.354   2.687   2.514
 6117SOL    HW218912   4.246   2.594   2.464
 6118SOL     OW18913   4.590   3.229   1.894
 6118SOL    HW118914   4.548   3.258   1.976
 6118SOL    HW218915   4.607   3.309   1.846
 6119SOL     OW18916   4.383   3.655   2.808
 6119SOL    HW118917   4.363   3.746   2.784
 6119SOL    HW218918   4.478   3.649   2.801
 6120SOL     OW18919   4.591   2.828   2.718
 6120SOL    HW118920   4.641   2.757   2.758
 6120SOL    HW218921   4.557   2.878   2.792
 6121SOL     OW18922   4.806   2.849   1.952
 6121SOL    HW118923   4.782   2.899   1.874
 6121SOL    HW218924   4.881   2.797   1.925
 6122SOL     OW18925   3.948   3.166   3.717
 6122SOL    HW118926   3.883   3.103   3.687
 6122SOL    HW218927   3.929   3.178   3.810
 6123SOL     OW18928   3.807   3.097   2.526
 6123SOL    HW118929   3.809   3.047   2.608
 6123SOL    HW218930   3.876   3.058   2.473
 6124SOL     OW18931   4.404   3.262   3.489
 6124SOL    HW118932   4.324   3.220   3.519
 6124SOL    HW218933   4.400   3.351   3.525
 6125SOL     OW18934   4.154   2.296   2.387
 6125SOL    HW118935   4.182   2.224   2.330
 6125SOL    HW218936   4.106   2.252   2.458
 6126SOL     OW18937   0.097   3.383   2.961
 6126SOL    HW118938   0.029   3.356   2.900
 6126SOL    HW218939   0.109   3.307   3.018
 6127SOL     OW18940   4.052   2.415   3.153
 6127SOL    HW118941   4.108   2.360   3.208
 6127SOL    HW218942   4.073   2.388   3.064
 6128SOL     OW18943   4.550   3.439   2.540
 6128SOL    HW118944   4.542   3.489   2.459
 6128SOL    HW218945   4.472   3.384   2.543
 6129SOL     OW18946   5.149   2.081   2.977
 6129SOL    HW118947   5.193   2.015   3.031
 6129SOL    HW218948   5.102   2.135   3.041
 6130SOL     OW18949   4.730   1.882   3.006
 6130SOL    HW118950   4.677   1.813   2.967
 6130SOL    HW218951   4.818   1.845   3.010
 6131SOL     OW18952   4.494   3.194   2.175
 6131SOL    HW118953   4.462   3.104   2.181
 6131SOL    HW218954   4.577   3.194   2.223
 6132SOL     OW18955   4.344   3.420   3.146
 6132SOL    HW118956   4.346   3.501   3.196
 6132SOL    HW218957   4.431   3.412   3.108
 6133SOL     OW18958   5.060   1.908   2.030
 6133SOL    HW118959   5.086   1.868   1.947
 6133SOL    HW218960   4.975   1.869   2.050
 6134SOL     OW18961   5.029   2.320   2.546
 6134SOL    HW118962   4.973   2.398   2.550
 6134SOL    HW218963   5.018   2.279   2.632
 6135SOL     OW18964   0.002   2.085   2.740
 6135SOL    HW118965   5.235   2.076   2.808
 6135SOL    HW218966   5.280   2.167   2.695
 6136SOL     OW18967   3.767   2.934   2.167
 6136SOL    HW118968   3.861   2.926   2.150
 6136SOL    HW218969   3.739   2.846   2.190
 6137SOL     OW18970   4.604   3.510   2.208
 6137SOL    HW118971   4.533   3.495   2.145
 6137SOL    HW218972   4.576   3.588   2.257
 6138SOL     OW18973   3.954   2.484   3.846
 6138SOL    HW118974   3.865   2.485   3.879
 6138SOL    HW218975   3.946   2.459   3.754
 6139SOL     OW18976   3.949   2.142   4.715
 6139SOL    HW118977   3.977   2.109   4.800
 6139SOL    HW218978   3.859   2.110   4.706
 6140SOL     OW18979   3.730   2.244   4.363
 6140SOL    HW118980   3.647   2.263   4.407
 6140SOL    HW218981   3.712   2.165   4.312
 6141SOL     OW18982   4.291   3.146   4.897
 6141SOL    HW118983   4.203   3.150   4.859
 6141SOL    HW218984   4.306   3.235   4.931
 6142SOL     OW18985   5.283   3.397   4.430
 6142SOL    HW118986   5.244   3.353   4.505
 6142SOL    HW218987   5.218   3.387   4.360
 6143SOL     OW18988   4.857   2.561   4.426
 6143SOL    HW118989   4.907   2.642   4.415
 6143SOL    HW218990   4.809   2.574   4.507
 6144SOL     OW18991   4.482   3.006   4.763
 6144SOL    HW118992   4.412   3.039   4.819
 6144SOL    HW218993   4.516   3.083   4.718
 6145SOL     OW18994   4.590   2.640   5.546
 6145SOL    HW118995   4.574   2.712   5.607
 6145SOL    HW218996   4.611   2.683   5.463
 6146SOL     OW18997   4.411   2.867   4.372
 6146SOL    HW118998   4.474   2.854   4.442
 6146SOL    HW218999   4.340   2.918   4.413
 6147SOL     OW19000   4.433   3.013   5.535
 6147SOL    HW119001   4.481   3.092   5.560
 6147SOL    HW219002   4.350   3.046   5.500
 6148SOL     OW19003   4.054   3.290   4.792
 6148SOL    HW119004   3.983   3.252   4.740
 6148SOL    HW219005   4.106   3.340   4.729
 6149SOL     OW19006   5.159   3.345   5.072
 6149SOL    HW119007   5.203   3.426   5.098
 6149SOL    HW219008   5.113   3.316   5.150
 6150SOL     OW19009   4.172   2.261   5.214
 6150SOL    HW119010   4.247   2.201   5.218
 6150SOL    HW219011   4.095   2.204   5.225
 6151SOL     OW19012   3.943   3.576   4.198
 6151SOL    HW119013   3.966   3.652   4.250
 6151SOL    HW219014   4.014   3.568   4.134
 6152SOL     OW19015   4.860   3.201   5.417
 6152SOL    HW119016   4.899   3.198   5.505
 6152SOL    HW219017   4.806   3.122   5.412
 6153SOL     OW19018   3.955   3.303   4.259
 6153SOL    HW119019   3.937   3.397   4.263
 6153SOL    HW219020   3.894   3.264   4.321
 6154SOL     OW19021   3.980   2.953   4.616
 6154SOL    HW119022   3.976   2.866   4.656
 6154SOL    HW219023   3.921   3.006   4.669
 6155SOL     OW19024   4.335   3.654   5.152
 6155SOL    HW119025   4.254   3.636   5.200
 6155SOL    HW219026   4.360   3.743   5.178
 6156SOL     OW19027   4.313   2.842   3.856
 6156SOL    HW119028   4.356   2.894   3.788
 6156SOL    HW219029   4.352   2.872   3.938
 6157SOL     OW19030   3.840   2.513   4.283
 6157SOL    HW119031   3.810   2.424   4.305
 6157SOL    HW219032   3.831   2.562   4.365
 6158SOL     OW19033   3.755   3.459   3.848
 6158SOL    HW119034   3.737   3.367   3.866
 6158SOL    HW219035   3.731   3.504   3.929
 6159SOL     OW19036   0.112   2.803   4.301
 6159SOL    HW119037   0.198   2.766   4.319
 6159SOL    HW219038   0.130   2.884   4.253
 6160SOL     OW19039   3.847   2.604   5.310
 6160SOL    HW119040   3.940   2.625   5.321
 6160SOL    HW219041   3.802   2.688   5.322
 6161SOL     OW19042   4.336   3.246   4.459
 6161SOL    HW119043   4.290   3.162   4.468
 6161SOL    HW219044   4.320   3.272   4.369
 6162SOL     OW19045   5.009   3.100   5.149
 6162SOL    HW119046   5.042   3.033   5.089
 6162SOL    HW219047   5.063   3.090   5.228
 6163SOL     OW19048   4.537   1.861   4.231
 6163SOL    HW119049   4.577   1.946   4.213
 6163SOL    HW219050   4.444   1.881   4.241
 6164SOL     OW19051   3.915   2.830   4.992
 6164SOL    HW119052   3.999   2.788   4.978
 6164SOL    HW219053   3.851   2.770   4.954
 6165SOL     OW19054   4.898   3.669   5.346
 6165SOL    HW119055   4.921   3.726   5.273
 6165SOL    HW219056   4.918   3.581   5.314
 6166SOL     OW19057   4.055   2.112   5.533
 6166SOL    HW119058   4.101   2.195   5.548
 6166SOL    HW219059   3.966   2.128   5.566
 6167SOL     OW19060   5.170   3.296   4.663
 6167SOL    HW119061   5.107   3.302   4.735
 6167SOL    HW219062   5.164   3.205   4.634
 6168SOL     OW19063   4.320   2.585   3.989
 6168SOL    HW119064   4.326   2.665   3.937
 6168SOL    HW219065   4.254   2.604   4.056
 6169SOL     OW19066   4.997   2.199   4.645
 6169SOL    HW119067   4.909   2.168   4.665
 6169SOL    HW219068   5.052   2.164   4.715
 6170SOL     OW19069   4.516   2.479   5.176
 6170SOL    HW119070   4.489   2.456   5.265
 6170SOL    HW219071   4.474   2.413   5.121
 6171SOL     OW19072   5.116   2.341   5.404
 6171SOL    HW119073   5.115   2.379   5.491
 6171SOL    HW219074   5.190   2.280   5.404
 6172SOL     OW19075   4.680   2.751   5.305
 6172SOL    HW119076   4.733   2.678   5.271
 6172SOL    HW219077   4.632   2.784   5.229
 6173SOL     OW19078   4.715   2.276   4.963
 6173SOL    HW119079   4.630   2.297   5.002
 6173SOL    HW219080   4.693   2.227   4.883
 6174SOL     OW19081   4.774   2.560   4.150
 6174SOL    HW119082   4.788   2.554   4.244
 6174SOL    HW219083   4.692   2.513   4.135
 6175SOL     OW19084   3.814   2.679   4.500
 6175SOL    HW119085   3.895   2.675   4.552
 6175SOL    HW219086   3.769   2.757   4.532
 6176SOL     OW19087   3.851   3.702   5.300
 6176SOL    HW119088   3.850   3.683   5.394
 6176SOL    HW219089   3.759   3.706   5.276
 6177SOL     OW19090   4.614   2.208   3.919
 6177SOL    HW119091   4.655   2.269   3.857
 6177SOL    HW219092   4.630   2.122   3.881
 6178SOL     OW19093   5.091   3.007   4.270
 6178SOL    HW119094   5.178   3.004   4.229
 6178SOL    HW219095   5.041   3.068   4.216
 6179SOL     OW19096   4.274   2.045   4.616
 6179SOL    HW119097   4.276   2.073   4.708
 6179SOL    HW219098   4.275   2.127   4.567
 6180SOL     OW19099   4.732   3.306   4.197
 6180SOL    HW119100   4.692   3.377   4.148
 6180SOL    HW219101   4.716   3.329   4.289
 6181SOL     OW19102   4.078   3.669   4.584
 6181SOL    HW119103   4.123   3.585   4.592
 6181SOL    HW219104   4.147   3.734   4.601
 6182SOL     OW19105   4.939   3.407   5.245
 6182SOL    HW119106   4.928   3.331   5.302
 6182SOL    HW219107   4.889   3.385   5.166
 6183SOL     OW19108   4.046   2.818   3.973
 6183SOL    HW119109   4.127   2.837   3.927
 6183SOL    HW219110   4.014   2.737   3.934
 6184SOL     OW19111   4.189   3.126   5.462
 6184SOL    HW119112   4.161   3.130   5.370
 6184SOL    HW219113   4.107   3.124   5.512
 6185SOL     OW19114   4.834   3.637   3.960
 6185SOL    HW119115   4.763   3.591   4.005
 6185SOL    HW219116   4.858   3.578   3.888
 6186SOL     OW19117   3.924   2.145   5.225
 6186SOL    HW119118   3.841   2.192   5.216
 6186SOL    HW219119   3.907   2.078   5.291
 6187SOL     OW19120   4.190   3.600   4.045
 6187SOL    HW119121   4.232   3.657   4.110
 6187SOL    HW219122   4.263   3.571   3.989
 6188SOL     OW19123   5.122   1.970   4.148
 6188SOL    HW119124   5.102   1.951   4.057
 6188SOL    HW219125   5.217   1.984   4.149
 6189SOL     OW19126   3.977   3.653   4.957
 6189SOL    HW119127   4.031   3.590   5.004
 6189SOL    HW219128   3.970   3.618   4.868
 6190SOL     OW19129   4.662   3.560   4.624
 6190SOL    HW119130   4.741   3.509   4.642
 6190SOL    HW219131   4.617   3.511   4.555
 6191SOL     OW19132   4.116   2.557   4.201
 6191SOL    HW119133   4.138   2.465   4.212
 6191SOL    HW219134   4.022   2.562   4.219
 6192SOL     OW19135   4.356   1.986   3.830
 6192SOL    HW119136   4.429   1.925   3.841
 6192SOL    HW219137   4.309   1.953   3.754
 6193SOL     OW19138   4.491   2.140   5.478
 6193SOL    HW119139   4.565   2.079   5.481
 6193SOL    HW219140   4.441   2.121   5.557
 6194SOL     OW19141   4.600   3.383   4.918
 6194SOL    HW119142   4.585   3.347   4.830
 6194SOL    HW219143   4.670   3.329   4.954
 6195SOL     OW19144   5.058   2.453   5.156
 6195SOL    HW119145   5.092   2.420   5.240
 6195SOL    HW219146   5.100   2.538   5.146
 6196SOL     OW19147   4.537   3.258   4.661
 6196SOL    HW119148   4.621   3.248   4.617
 6196SOL    HW219149   4.473   3.258   4.590
 6197SOL     OW19150   4.651   2.371   4.627
 6197SOL    HW119151   4.628   2.362   4.535
 6197SOL    HW219152   4.684   2.285   4.652
 6198SOL     OW19153   4.272   1.925   4.228
 6198SOL    HW119154   4.191   1.926   4.279
 6198SOL    HW219155   4.267   2.003   4.173
 6199SOL     OW19156   5.138   3.042   3.767
 6199SOL    HW119157   5.151   2.965   3.823
 6199SOL    HW219158   5.050   3.073   3.788
 6200SOL     OW19159   4.016   1.909   3.909
 6200SOL    HW119160   4.074   1.974   3.869
 6200SOL    HW219161   4.075   1.846   3.949
 6201SOL     OW19162   4.660   2.107   4.186
 6201SOL    HW119163   4.632   2.148   4.104
 6201SOL    HW219164   4.755   2.118   4.187
 6202SOL     OW19165   4.801   2.542   5.185
 6202SOL    HW119166   4.733   2.475   5.188
 6202SOL    HW219167   4.883   2.493   5.175
 6203SOL     OW19168   4.942   3.433   4.518
 6203SOL    HW119169   4.965   3.499   4.453
 6203SOL    HW219170   5.020   3.423   4.572
 6204SOL     OW19171   4.192   3.010   4.459
 6204SOL    HW119172   4.122   2.991   4.522
 6204SOL    HW219173   4.153   2.993   4.373
 6205SOL     OW19174   4.997   3.656   4.328
 6205SOL    HW119175   5.039   3.717   4.268
 6205SOL    HW219176   4.931   3.709   4.374
 6206SOL     OW19177   4.750   2.408   3.744
 6206SOL    HW119178   4.705   2.490   3.723
 6206SOL    HW219179   4.810   2.430   3.815
 6207SOL     OW19180   3.802   2.418   5.113
 6207SOL    HW119181   3.894   2.416   5.087
 6207SOL    HW219182   3.798   2.487   5.179
 6208SOL     OW19183   4.284   2.089   4.888
 6208SOL    HW119184   4.325   2.011   4.927
 6208SOL    HW219185   4.193   2.086   4.918
 6209SOL     OW19186   4.593   2.322   4.363
 6209SOL    HW119187   4.546   2.376   4.300
 6209SOL    HW219188   4.613   2.241   4.316
 6210SOL     OW19189   4.739   1.915   4.477
 6210SOL    HW119190   4.680   1.907   4.401
 6210SOL    HW219191   4.717   1.839   4.531
 6211SOL     OW19192   5.158   3.037   4.576
 6211SOL    HW119193   5.101   2.961   4.588
 6211SOL    HW219194   5.169   3.044   4.481
 6212SOL     OW19195   4.216   3.278   3.883
 6212SOL    HW119196   4.141   3.248   3.935
 6212SOL    HW219197   4.197   3.245   3.795
 6213SOL     OW19198   5.126   2.425   3.802
 6213SOL    HW119199   5.055   2.415   3.865
 6213SOL    HW219200   5.202   2.387   3.846
 6214SOL     OW19201   4.250   2.125   4.044
 6214SOL    HW119202   4.292   2.076   3.973
 6214SOL    HW219203   4.229   2.210   4.006
 6215SOL     OW19204   4.782   3.215   5.057
 6215SOL    HW119205   4.707   3.185   5.109
 6215SOL    HW219206   4.858   3.173   5.098
 6216SOL     OW19207   0.006   3.466   5.342
 6216SOL    HW119208   0.039   3.474   5.253
 6216SOL    HW219209   0.083   3.446   5.395
 6217SOL     OW19210   4.850   3.063   4.831
 6217SOL    HW119211   4.791   3.100   4.896
 6217SOL    HW219212   4.816   3.093   4.747
 6218SOL     OW19213   4.642   1.961   5.122
 6218SOL    HW119214   4.664   1.942   5.031
 6218SOL    HW219215   4.721   1.999   5.158
 6219SOL     OW19216   4.708   2.975   5.448
 6219SOL    HW119217   4.616   2.992   5.467
 6219SOL    HW219218   4.707   2.898   5.391
 6220SOL     OW19219   4.432   2.923   4.095
 6220SOL    HW119220   4.418   2.907   4.189
 6220SOL    HW219221   4.508   2.869   4.073
 6221SOL     OW19222   4.141   2.676   4.976
 6221SOL    HW119223   4.210   2.686   5.041
 6221SOL    HW219224   4.107   2.588   4.990
 6222SOL     OW19225   4.990   2.238   4.999
 6222SOL    HW119226   5.024   2.317   5.041
 6222SOL    HW219227   4.901   2.262   4.973
 6223SOL     OW19228   3.794   3.434   5.073
 6223SOL    HW119229   3.764   3.509   5.022
 6223SOL    HW219230   3.889   3.440   5.071
 6224SOL     OW19231   4.077   2.969   4.215
 6224SOL    HW119232   4.079   3.043   4.154
 6224SOL    HW219233   4.074   2.892   4.159
 6225SOL     OW19234   4.278   2.400   4.584
 6225SOL    HW119235   4.294   2.458   4.510
 6225SOL    HW219236   4.342   2.427   4.650
 6226SOL     OW19237   4.972   3.210   4.112
 6226SOL    HW119238   5.026   3.283   4.142
 6226SOL    HW219239   4.884   3.230   4.145
 6227SOL     OW19240   4.992   3.317   4.863
 6227SOL    HW119241   5.047   3.321   4.941
 6227SOL    HW219242   4.939   3.238   4.875
 6228SOL     OW19243   4.072   3.386   5.041
 6228SOL    HW119244   4.059   3.345   4.955
 6228SOL    HW219245   4.166   3.400   5.048
 6229SOL     OW19246   4.137   2.607   5.326
 6229SOL    HW119247   4.198   2.652   5.268
 6229SOL    HW219248   4.176   2.521   5.341
 6230SOL     OW19249   4.718   1.983   5.480
 6230SOL    HW119250   4.773   2.056   5.450
 6230SOL    HW219251   4.767   1.904   5.455
 6231SOL     OW19252   4.222   1.905   5.471
 6231SOL    HW119253   4.180   1.850   5.404
 6231SOL    HW219254   4.162   1.978   5.483
 6232SOL     OW19255   4.307   2.734   4.756
 6232SOL    HW119256   4.337   2.825   4.753
 6232SOL    HW219257   4.250   2.730   4.832
 6233SOL     OW19258   5.086   2.720   4.762
 6233SOL    HW119259   5.009   2.705   4.707
 6233SOL    HW219260   5.135   2.638   4.759
 6234SOL     OW19261   4.931   2.393   3.991
 6234SOL    HW119262   4.937   2.313   4.043
 6234SOL    HW219263   4.887   2.456   4.048
 6235SOL     OW19264   4.024   2.062   4.970
 6235SOL    HW119265   3.987   2.095   5.051
 6235SOL    HW219266   4.004   1.968   4.971
 6236SOL     OW19267   3.760   3.173   5.003
 6236SOL    HW119268   3.799   3.118   5.072
 6236SOL    HW219269   3.775   3.263   5.032
 6237SOL     OW19270   4.449   2.494   4.783
 6237SOL    HW119271   4.523   2.476   4.725
 6237SOL    HW219272   4.421   2.583   4.761
 6238SOL     OW19273   4.026   1.927   4.347
 6238SOL    HW119274   4.008   2.018   4.371
 6238SOL    HW219275   4.033   1.881   4.430
 6239SOL     OW19276   0.036   2.253   4.085
 6239SOL    HW119277   0.057   2.180   4.143
 6239SOL    HW219278   0.012   2.325   4.144
 6240SOL     OW19279   4.751   2.621   4.685
 6240SOL    HW119280   4.751   2.639   4.779
 6240SOL    HW219281   4.725   2.529   4.678
 6241SOL     OW19282   4.698   3.423   5.437
 6241SOL    HW119283   4.687   3.471   5.355
 6241SOL    HW219284   4.747   3.345   5.412
 6242SOL     OW19285   4.077   2.778   5.532
 6242SOL    HW119286   4.160   2.797   5.577
 6242SOL    HW219287   4.101   2.716   5.463
 6243SOL     OW19288   5.027   2.692   3.761
 6243SOL    HW119289   5.064   2.603   3.762
 6243SOL    HW219290   5.053   2.727   3.676
 6244SOL     OW19291   4.789   3.196   4.578
 6244SOL    HW119292   4.792   3.124   4.516
 6244SOL    HW219293   4.848   3.262   4.542
 6245SOL     OW19294   4.034   2.672   4.673
 6245SOL    HW119295   4.127   2.693   4.666
 6245SOL    HW219296   4.032   2.582   4.706
 6246SOL     OW19297   4.057   2.386   4.736
 6246SOL    HW119298   4.021   2.299   4.720
 6246SOL    HW219299   4.133   2.392   4.678
 6247SOL     OW19300   4.857   2.239   5.403
 6247SOL    HW119301   4.810   2.294   5.467
 6247SOL    HW219302   4.944   2.278   5.398
 6248SOL     OW19303   4.885   2.065   5.192
 6248SOL    HW119304   4.874   2.127   5.265
 6248SOL    HW219305   4.923   2.118   5.122
 6249SOL     OW19306   3.731   3.185   3.920
 6249SOL    HW119307   3.645   3.199   3.882
 6249SOL    HW219308   3.728   3.095   3.953
 6250SOL     OW19309   3.814   3.651   4.661
 6250SOL    HW119310   3.784   3.571   4.618
 6250SOL    HW219311   3.904   3.662   4.630
 6251SOL     OW19312   4.222   3.435   4.630
 6251SOL    HW119313   4.291   3.497   4.654
 6251SOL    HW219314   4.266   3.371   4.574
 6252SOL     OW19315   4.710   2.656   4.952
 6252SOL    HW119316   4.763   2.631   5.027
 6252SOL    HW219317   4.624   2.619   4.970
 6253SOL     OW19318   3.760   2.405   4.837
 6253SOL    HW119319   3.843   2.390   4.792
 6253SOL    HW219320   3.784   2.409   4.930
 6254SOL     OW19321   3.916   2.380   5.450
 6254SOL    HW119322   3.970   2.342   5.382
 6254SOL    HW219323   3.869   2.452   5.407
 6255SOL     OW19324   5.110   2.802   5.390
 6255SOL    HW119325   5.120   2.897   5.379
 6255SOL    HW219326   5.112   2.767   5.301
 6256SOL     OW19327   4.540   2.431   4.080
 6256SOL    HW119328   4.542   2.356   4.022
 6256SOL    HW219329   4.465   2.483   4.050
 6257SOL     OW19330   3.969   3.414   5.453
 6257SOL    HW119331   3.946   3.478   5.520
 6257SOL    HW219332   3.969   3.330   5.499
 6258SOL     OW19333   4.421   2.314   4.985
 6258SOL    HW119334   4.370   2.239   4.954
 6258SOL    HW219335   4.419   2.377   4.913
 6259SOL     OW19336   4.646   3.542   5.192
 6259SOL    HW119337   4.625   3.511   5.104
 6259SOL    HW219338   4.650   3.637   5.184
 6260SOL     OW19339   4.190   2.355   3.913
 6260SOL    HW119340   4.247   2.429   3.933
 6260SOL    HW219341   4.104   2.394   3.900
 6261SOL     OW19342   3.870   3.002   5.194
 6261SOL    HW119343   3.876   2.950   5.274
 6261SOL    HW219344   3.888   2.940   5.124
 6262SOL     OW19345   5.055   2.912   4.949
 6262SOL    HW119346   5.077   2.848   4.881
 6262SOL    HW219347   4.982   2.962   4.912
 6263SOL     OW19348   5.033   2.720   4.040
 6263SOL    HW119349   4.951   2.688   4.077
 6263SOL    HW219350   5.022   2.712   3.946
 6264SOL     OW19351   4.961   3.593   4.846
 6264SOL    HW119352   5.046   3.612   4.808
 6264SOL    HW219353   4.960   3.498   4.857
 6265SOL     OW19354   3.807   3.128   4.739
 6265SOL    HW119355   3.794   3.140   4.834
 6265SOL    HW219356   3.731   3.077   4.711
 6266SOL     OW19357   4.401   3.526   5.449
 6266SOL    HW119358   4.351   3.607   5.445
 6266SOL    HW219359   4.468   3.535   5.382
 6267SOL     OW19360   0.085   2.020   4.252
 6267SOL    HW119361   0.170   2.009   4.210
 6267SOL    HW219362   0.072   1.938   4.301
 6268SOL     OW19363   5.111   3.432   4.203
 6268SOL    HW119364   5.180   3.470   4.149
 6268SOL    HW219365   5.063   3.506   4.238
 6269SOL     OW19366   3.859   3.659   5.567
 6269SOL    HW119367   3.808   3.594   5.616
 6269SOL    HW219368   3.908   3.707   5.634
 6270SOL     OW19369   5.015   2.781   4.397
 6270SOL    HW119370   5.092   2.726   4.384
 6270SOL    HW219371   5.033   2.861   4.348
 6271SOL     OW19372   4.541   3.134   5.155
 6271SOL    HW119373   4.513   3.174   5.238
 6271SOL    HW219374   4.471   3.157   5.094
 6272SOL     OW19375   4.396   3.480   3.879
 6272SOL    HW119376   4.406   3.492   3.785
 6272SOL    HW219377   4.341   3.402   3.889
 6273SOL     OW19378   3.988   2.179   4.442
 6273SOL    HW119379   3.903   2.215   4.417
 6273SOL    HW219380   3.984   2.170   4.537
 6274SOL     OW19381   4.909   3.472   3.765
 6274SOL    HW119382   4.920   3.377   3.776
 6274SOL    HW219383   4.856   3.480   3.686
 6275SOL     OW19384   4.548   2.868   5.096
 6275SOL    HW119385   4.591   2.864   5.011
 6275SOL    HW219386   4.548   2.961   5.119
 6276SOL     OW19387   4.640   2.773   4.014
 6276SOL    HW119388   4.702   2.804   3.948
 6276SOL    HW219389   4.687   2.701   4.058
 6277SOL     OW19390   4.093   3.164   5.216
 6277SOL    HW119391   4.081   3.241   5.162
 6277SOL    HW219392   4.016   3.109   5.199
 6278SOL     OW19393   4.774   2.968   4.430
 6278SOL    HW119394   4.703   2.918   4.471
 6278SOL    HW219395   4.831   2.902   4.391
 6279SOL     OW19396   4.740   2.101   4.692
 6279SOL    HW119397   4.737   2.054   4.609
 6279SOL    HW219398   4.736   2.033   4.759
 6280SOL     OW19399   4.326   3.351   4.206
 6280SOL    HW119400   4.368   3.300   4.137
 6280SOL    HW219401   4.258   3.401   4.161
 6281SOL     OW19402   3.984   3.208   4.012
 6281SOL    HW119403   3.891   3.205   3.989
 6281SOL    HW219404   3.986   3.245   4.101
 6282SOL     OW19405   3.836   2.881   5.442
 6282SOL    HW119406   3.760   2.859   5.496
 6282SOL    HW219407   3.911   2.845   5.490
 6283SOL     OW19408   4.397   2.058   5.223
 6283SOL    HW119409   4.481   2.039   5.181
 6283SOL    HW219410   4.421   2.089   5.311
 6284SOL     OW19411   3.802   2.196   3.759
 6284SOL    HW119412   3.713   2.178   3.728
 6284SOL    HW219413   3.830   2.272   3.708
 6285SOL     OW19414   5.162   2.722   5.128
 6285SOL    HW119415   5.110   2.778   5.071
 6285SOL    HW219416   5.251   2.729   5.094
 6286SOL     OW19417   3.793   2.020   4.036
 6286SOL    HW119418   3.778   2.099   3.984
 6286SOL    HW219419   3.878   1.987   4.006
 6287SOL     OW19420   4.908   3.193   3.839
 6287SOL    HW119421   4.814   3.175   3.839
 6287SOL    HW219422   4.931   3.199   3.931
 6288SOL     OW19423   4.342   2.693   5.157
 6288SOL    HW119424   4.398   2.769   5.142
 6288SOL    HW219425   4.403   2.620   5.165
 6289SOL     OW19426   4.442   2.426   5.429
 6289SOL    HW119427   4.479   2.489   5.491
 6289SOL    HW219428   4.472   2.341   5.459
 6290SOL     OW19429   5.183   3.068   5.356
 6290SOL    HW119430   5.174   3.079   5.451
 6290SOL    HW219431   5.277   3.072   5.340
 6291SOL     OW19432   4.105   3.601   5.288
 6291SOL    HW119433   4.019   3.641   5.275
 6291SOL    HW219434   4.087   3.517   5.330
 6292SOL     OW19435   4.942   2.182   4.180
 6292SOL    HW119436   5.004   2.111   4.167
 6292SOL    HW219437   4.971   2.226   4.260
 6293SOL     OW19438   4.315   2.601   4.392
 6293SOL    HW119439   4.354   2.687   4.376
 6293SOL    HW219440   4.246   2.593   4.327
 6294SOL     OW19441   4.591   3.229   3.757
 6294SOL    HW119442   4.548   3.259   3.837
 6294SOL    HW219443   4.607   3.310   3.708
 6295SOL     OW19444   4.383   3.655   4.670
 6295SOL    HW119445   4.363   3.746   4.646
 6295SOL    HW219446   4.478   3.649   4.663
 6296SOL     OW19447   4.591   2.828   4.580
 6296SOL    HW119448   4.641   2.757   4.620
 6296SOL    HW219449   4.557   2.878   4.654
 6297SOL     OW19450   4.806   2.850   3.814
 6297SOL    HW119451   4.782   2.899   3.736
 6297SOL    HW219452   4.881   2.797   3.787
 6298SOL     OW19453   3.948   3.166   5.580
 6298SOL    HW119454   3.880   3.105   5.552
 6298SOL    HW219455   3.932   3.179   5.674
 6299SOL     OW19456   3.809   3.099   4.389
 6299SOL    HW119457   3.811   3.046   4.468
 6299SOL    HW219458   3.875   3.059   4.332
 6300SOL     OW19459   4.404   3.262   5.351
 6300SOL    HW119460   4.324   3.220   5.382
 6300SOL    HW219461   4.400   3.351   5.386
 6301SOL     OW19462   4.154   2.296   4.249
 6301SOL    HW119463   4.183   2.225   4.192
 6301SOL    HW219464   4.107   2.252   4.320
 6302SOL     OW19465   0.097   3.383   4.823
 6302SOL    HW119466   0.029   3.356   4.761
 6302SOL    HW219467   0.109   3.307   4.880
 6303SOL     OW19468   4.054   2.416   5.015
 6303SOL    HW119469   4.109   2.360   5.070
 6303SOL    HW219470   4.073   2.388   4.926
 6304SOL     OW19471   4.550   3.440   4.402
 6304SOL    HW119472   4.542   3.489   4.321
 6304SOL    HW219473   4.472   3.384   4.405
 6305SOL     OW19474   5.149   2.081   4.839
 6305SOL    HW119475   5.193   2.015   4.892
 6305SOL    HW219476   5.102   2.135   4.903
 6306SOL     OW19477   4.730   1.882   4.868
 6306SOL    HW119478   4.677   1.813   4.829
 6306SOL    HW219479   4.818   1.845   4.872
 6307SOL     OW19480   4.494   3.194   4.037
 6307SOL    HW119481   4.462   3.104   4.043
 6307SOL    HW219482   4.577   3.193   4.084
 6308SOL     OW19483   4.344   3.420   5.008
 6308SOL    HW119484   4.346   3.501   5.058
 6308SOL    HW219485   4.431   3.412   4.971
 6309SOL     OW19486   5.060   1.908   3.892
 6309SOL    HW119487   5.086   1.868   3.809
 6309SOL    HW219488   4.975   1.869   3.912
 6310SOL     OW19489   5.029   2.320   4.408
 6310SOL    HW119490   4.973   2.398   4.412
 6310SOL    HW219491   5.018   2.279   4.494
 6311SOL     OW19492   0.002   2.085   4.602
 6311SOL    HW119493   5.235   2.076   4.670
 6311SOL    HW219494   5.280   2.167   4.557
 6312SOL     OW19495   3.771   2.935   4.025
 6312SOL    HW119496   3.865   2.921   4.010
 6312SOL    HW219497   3.738   2.849   4.052
 6313SOL     OW19498   4.604   3.510   4.071
 6313SOL    HW119499   4.533   3.495   4.007
 6313SOL    HW219500   4.575   3.588   4.119
 6314SOL     OW19501   3.954   2.486   5.708
 6314SOL    HW119502   3.865   2.484   5.741
 6314SOL    HW219503   3.946   2.459   5.616
 6315SOL     OW19504   3.949   2.142   6.577
 6315SOL    HW119505   3.977   2.109   6.662
 6315SOL    HW219506   3.859   2.110   6.568
 6316SOL     OW19507   3.729   2.244   6.224
 6316SOL    HW119508   3.646   2.269   6.265
 6316SOL    HW219509   3.709   2.164   6.175
 6317SOL     OW19510   4.291   3.146   6.759
 6317SOL    HW119511   4.203   3.150   6.721
 6317SOL    HW219512   4.306   3.235   6.793
 6318SOL     OW19513   5.283   3.397   6.291
 6318SOL    HW119514   5.244   3.353   6.367
 6318SOL    HW219515   5.218   3.387   6.222
 6319SOL     OW19516   4.857   2.561   6.288
 6319SOL    HW119517   4.907   2.642   6.277
 6319SOL    HW219518   4.809   2.574   6.369
 6320SOL     OW19519   4.482   3.006   6.625
 6320SOL    HW119520   4.412   3.039   6.681
 6320SOL    HW219521   4.516   3.083   6.580
 6321SOL     OW19522   4.589   2.642   7.407
 6321SOL    HW119523   4.569   2.716   7.463
 6321SOL    HW219524   4.613   2.681   7.323
 6322SOL     OW19525   4.410   2.867   6.234
 6322SOL    HW119526   4.474   2.854   6.304
 6322SOL    HW219527   4.340   2.918   6.275
 6323SOL     OW19528   4.433   3.014   7.397
 6323SOL    HW119529   4.480   3.093   7.422
 6323SOL    HW219530   4.350   3.046   7.362
 6324SOL     OW19531   4.055   3.290   6.654
 6324SOL    HW119532   3.983   3.253   6.603
 6324SOL    HW219533   4.106   3.340   6.590
 6325SOL     OW19534   5.160   3.345   6.934
 6325SOL    HW119535   5.202   3.426   6.961
 6325SOL    HW219536   5.112   3.316   7.012
 6326SOL     OW19537   4.172   2.261   7.077
 6326SOL    HW119538   4.247   2.201   7.080
 6326SOL    HW219539   4.096   2.204   7.087
 6327SOL     OW19540   3.944   3.576   6.059
 6327SOL    HW119541   3.966   3.652   6.112
 6327SOL    HW219542   4.015   3.568   5.996
 6328SOL     OW19543   4.860   3.201   7.278
 6328SOL    HW119544   4.899   3.199   7.365
 6328SOL    HW219545   4.806   3.121   7.273
 6329SOL     OW19546   3.953   3.302   6.120
 6329SOL    HW119547   3.937   3.396   6.125
 6329SOL    HW219548   3.892   3.264   6.183
 6330SOL     OW19549   3.979   2.952   6.476
 6330SOL    HW119550   3.976   2.866   6.518
 6330SOL    HW219551   3.921   3.007   6.530
 6331SOL     OW19552   4.336   3.654   7.014
 6331SOL    HW119553   4.255   3.636   7.061
 6331SOL    HW219554   4.360   3.743   7.040
 6332SOL     OW19555   4.312   2.842   5.719
 6332SOL    HW119556   4.355   2.893   5.651
 6332SOL    HW219557   4.352   2.872   5.800
 6333SOL     OW19558   3.838   2.514   6.145
 6333SOL    HW119559   3.809   2.425   6.166
 6333SOL    HW219560   3.830   2.562   6.228
 6334SOL     OW19561   3.754   3.458   5.710
 6334SOL    HW119562   3.737   3.366   5.730
 6334SOL    HW219563   3.731   3.505   5.790
 6335SOL     OW19564   0.112   2.803   6.163
 6335SOL    HW119565   0.198   2.766   6.181
 6335SOL    HW219566   0.130   2.884   6.115
 6336SOL     OW19567   3.846   2.603   7.173
 6336SOL    HW119568   3.938   2.628   7.184
 6336SOL    HW219569   3.798   2.686   7.179
 6337SOL     OW19570   4.337   3.245   6.321
 6337SOL    HW119571   4.290   3.162   6.330
 6337SOL    HW219572   4.320   3.272   6.231
 6338SOL     OW19573   5.009   3.100   7.011
 6338SOL    HW119574   5.043   3.032   6.951
 6338SOL    HW219575   5.063   3.091   7.089
 6339SOL     OW19576   4.537   1.861   6.093
 6339SOL    HW119577   4.577   1.946   6.075
 6339SOL    HW219578   4.444   1.881   6.103
 6340SOL     OW19579   3.915   2.830   6.855
 6340SOL    HW119580   3.999   2.787   6.840
 6340SOL    HW219581   3.851   2.773   6.813
 6341SOL     OW19582   4.899   3.669   7.208
 6341SOL    HW119583   4.921   3.726   7.134
 6341SOL    HW219584   4.919   3.581   7.177
 6342SOL     OW19585   4.055   2.111   7.395
 6342SOL    HW119586   4.101   2.194   7.408
 6342SOL    HW219587   3.966   2.129   7.427
 6343SOL     OW19588   5.170   3.296   6.525
 6343SOL    HW119589   5.107   3.302   6.597
 6343SOL    HW219590   5.164   3.205   6.496
 6344SOL     OW19591   4.320   2.584   5.851
 6344SOL    HW119592   4.326   2.665   5.799
 6344SOL    HW219593   4.255   2.604   5.918
 6345SOL     OW19594   4.997   2.199   6.507
 6345SOL    HW119595   4.909   2.168   6.527
 6345SOL    HW219596   5.052   2.164   6.577
 6346SOL     OW19597   4.516   2.479   7.038
 6346SOL    HW119598   4.489   2.456   7.127
 6346SOL    HW219599   4.474   2.413   6.983
 6347SOL     OW19600   5.116   2.341   7.266
 6347SOL    HW119601   5.115   2.380   7.353
 6347SOL    HW219602   5.190   2.281   7.266
 6348SOL     OW19603   4.680   2.750   7.167
 6348SOL    HW119604   4.733   2.679   7.132
 6348SOL    HW219605   4.632   2.784   7.091
 6349SOL     OW19606   4.715   2.276   6.825
 6349SOL    HW119607   4.630   2.297   6.864
 6349SOL    HW219608   4.693   2.227   6.745
 6350SOL     OW19609   4.774   2.560   6.012
 6350SOL    HW119610   4.789   2.554   6.106
 6350SOL    HW219611   4.692   2.513   5.997
 6351SOL     OW19612   3.812   2.683   6.362
 6351SOL    HW119613   3.894   2.675   6.412
 6351SOL    HW219614   3.770   2.761   6.397
 6352SOL     OW19615   3.851   3.705   7.163
 6352SOL    HW119616   3.850   3.685   7.257
 6352SOL    HW219617   3.759   3.703   7.137
 6353SOL     OW19618   4.614   2.208   5.781
 6353SOL    HW119619   4.655   2.269   5.719
 6353SOL    HW219620   4.629   2.122   5.743
 6354SOL     OW19621   5.091   3.007   6.132
 6354SOL    HW119622   5.178   3.005   6.092
 6354SOL    HW219623   5.041   3.068   6.078
 6355SOL     OW19624   4.274   2.045   6.478
 6355SOL    HW119625   4.276   2.073   6.570
 6355SOL    HW219626   4.275   2.127   6.429
 6356SOL     OW19627   4.732   3.306   6.059
 6356SOL    HW119628   4.692   3.378   6.010
 6356SOL    HW219629   4.716   3.329   6.151
 6357SOL     OW19630   4.078   3.669   6.446
 6357SOL    HW119631   4.122   3.585   6.454
 6357SOL    HW219632   4.147   3.734   6.463
 6358SOL     OW19633   4.940   3.406   7.106
 6358SOL    HW119634   4.929   3.332   7.165
 6358SOL    HW219635   4.888   3.384   7.029
 6359SOL     OW19636   4.045   2.818   5.835
 6359SOL    HW119637   4.127   2.837   5.789
 6359SOL    HW219638   4.014   2.737   5.795
 6360SOL     OW19639   4.188   3.124   7.323
 6360SOL    HW119640   4.161   3.130   7.232
 6360SOL    HW219641   4.107   3.124   7.373
 6361SOL     OW19642   4.834   3.637   5.822
 6361SOL    HW119643   4.763   3.591   5.867
 6361SOL    HW219644   4.858   3.578   5.750
 6362SOL     OW19645   3.924   2.145   7.086
 6362SOL    HW119646   3.842   2.193   7.079
 6362SOL    HW219647   3.907   2.078   7.153
 6363SOL     OW19648   4.190   3.599   5.907
 6363SOL    HW119649   4.231   3.657   5.972
 6363SOL    HW219650   4.263   3.571   5.851
 6364SOL     OW19651   5.122   1.970   6.010
 6364SOL    HW119652   5.102   1.951   5.919
 6364SOL    HW219653   5.217   1.984   6.011
 6365SOL     OW19654   3.978   3.654   6.819
 6365SOL    HW119655   4.031   3.590   6.866
 6365SOL    HW219656   3.969   3.617   6.731
 6366SOL     OW19657   4.662   3.560   6.486
 6366SOL    HW119658   4.741   3.509   6.504
 6366SOL    HW219659   4.617   3.511   6.417
 6367SOL     OW19660   4.115   2.557   6.063
 6367SOL    HW119661   4.138   2.465   6.073
 6367SOL    HW219662   4.021   2.562   6.081
 6368SOL     OW19663   4.356   1.986   5.692
 6368SOL    HW119664   4.429   1.925   5.703
 6368SOL    HW219665   4.309   1.954   5.616
 6369SOL     OW19666   4.490   2.138   7.339
 6369SOL    HW119667   4.565   2.079   7.343
 6369SOL    HW219668   4.445   2.125   7.422
 6370SOL     OW19669   4.600   3.383   6.779
 6370SOL    HW119670   4.585   3.347   6.692
 6370SOL    HW219671   4.670   3.329   6.816
 6371SOL     OW19672   5.058   2.453   7.018
 6371SOL    HW119673   5.092   2.420   7.101
 6371SOL    HW219674   5.100   2.539   7.008
 6372SOL     OW19675   4.537   3.258   6.523
 6372SOL    HW119676   4.622   3.248   6.479
 6372SOL    HW219677   4.473   3.258   6.453
 6373SOL     OW19678   4.651   2.371   6.489
 6373SOL    HW119679   4.628   2.362   6.397
 6373SOL    HW219680   4.684   2.285   6.514
 6374SOL     OW19681   4.272   1.925   6.090
 6374SOL    HW119682   4.191   1.926   6.141
 6374SOL    HW219683   4.267   2.003   6.035
 6375SOL     OW19684   5.138   3.042   5.629
 6375SOL    HW119685   5.151   2.965   5.685
 6375SOL    HW219686   5.050   3.073   5.650
 6376SOL     OW19687   4.016   1.909   5.770
 6376SOL    HW119688   4.075   1.974   5.731
 6376SOL    HW219689   4.075   1.846   5.811
 6377SOL     OW19690   4.660   2.107   6.048
 6377SOL    HW119691   4.632   2.148   5.966
 6377SOL    HW219692   4.755   2.118   6.049
 6378SOL     OW19693   4.801   2.542   7.047
 6378SOL    HW119694   4.733   2.476   7.050
 6378SOL    HW219695   4.883   2.493   7.037
 6379SOL     OW19696   4.942   3.433   6.380
 6379SOL    HW119697   4.965   3.499   6.315
 6379SOL    HW219698   5.020   3.423   6.434
 6380SOL     OW19699   4.192   3.010   6.321
 6380SOL    HW119700   4.121   2.991   6.384
 6380SOL    HW219701   4.153   2.993   6.236
 6381SOL     OW19702   4.997   3.656   6.190
 6381SOL    HW119703   5.039   3.718   6.130
 6381SOL    HW219704   4.931   3.709   6.236
 6382SOL     OW19705   4.750   2.408   5.606
 6382SOL    HW119706   4.705   2.490   5.585
 6382SOL    HW219707   4.810   2.430   5.677
 6383SOL     OW19708   3.802   2.417   6.977
 6383SOL    HW119709   3.893   2.415   6.950
 6383SOL    HW219710   3.797   2.487   7.042
 6384SOL     OW19711   4.284   2.089   6.750
 6384SOL    HW119712   4.325   2.011   6.789
 6384SOL    HW219713   4.193   2.086   6.780
 6385SOL     OW19714   4.593   2.322   6.225
 6385SOL    HW119715   4.546   2.375   6.162
 6385SOL    HW219716   4.613   2.241   6.178
 6386SOL     OW19717   4.739   1.915   6.339
 6386SOL    HW119718   4.680   1.907   6.263
 6386SOL    HW219719   4.717   1.839   6.393
 6387SOL     OW19720   5.158   3.037   6.438
 6387SOL    HW119721   5.101   2.961   6.450
 6387SOL    HW219722   5.169   3.044   6.343
 6388SOL     OW19723   4.216   3.278   5.745
 6388SOL    HW119724   4.141   3.248   5.797
 6388SOL    HW219725   4.198   3.245   5.657
 6389SOL     OW19726   5.126   2.425   5.664
 6389SOL    HW119727   5.055   2.415   5.728
 6389SOL    HW219728   5.202   2.387   5.708
 6390SOL     OW19729   4.250   2.125   5.906
 6390SOL    HW119730   4.292   2.076   5.835
 6390SOL    HW219731   4.229   2.210   5.867
 6391SOL     OW19732   4.782   3.215   6.919
 6391SOL    HW119733   4.707   3.185   6.971
 6391SOL    HW219734   4.858   3.173   6.960
 6392SOL     OW19735   0.006   3.467   7.204
 6392SOL    HW119736   0.039   3.474   7.115
 6392SOL    HW219737   0.084   3.447   7.257
 6393SOL     OW19738   4.850   3.063   6.693
 6393SOL    HW119739   4.791   3.100   6.758
 6393SOL    HW219740   4.816   3.093   6.609
 6394SOL     OW19741   4.642   1.961   6.984
 6394SOL    HW119742   4.664   1.942   6.893
 6394SOL    HW219743   4.721   1.999   7.021
 6395SOL     OW19744   4.708   2.974   7.312
 6395SOL    HW119745   4.616   2.993   7.329
 6395SOL    HW219746   4.707   2.898   7.254
 6396SOL     OW19747   4.432   2.923   5.958
 6396SOL    HW119748   4.418   2.907   6.051
 6396SOL    HW219749   4.508   2.869   5.935
 6397SOL     OW19750   4.142   2.676   6.837
 6397SOL    HW119751   4.210   2.685   6.903
 6397SOL    HW219752   4.106   2.588   6.852
 6398SOL     OW19753   4.990   2.238   6.861
 6398SOL    HW119754   5.024   2.317   6.903
 6398SOL    HW219755   4.901   2.262   6.835
 6399SOL     OW19756   3.793   3.435   6.937
 6399SOL    HW119757   3.762   3.508   6.884
 6399SOL    HW219758   3.888   3.440   6.932
 6400SOL     OW19759   4.076   2.969   6.077
 6400SOL    HW119760   4.080   3.043   6.016
 6400SOL    HW219761   4.074   2.892   6.021
 6401SOL     OW19762   4.278   2.400   6.446
 6401SOL    HW119763   4.295   2.458   6.372
 6401SOL    HW219764   4.342   2.427   6.512
 6402SOL     OW19765   4.972   3.210   5.974
 6402SOL    HW119766   5.026   3.283   6.004
 6402SOL    HW219767   4.884   3.230   6.007
 6403SOL     OW19768   4.992   3.317   6.725
 6403SOL    HW119769   5.047   3.321   6.803
 6403SOL    HW219770   4.939   3.239   6.737
 6404SOL     OW19771   4.071   3.387   6.903
 6404SOL    HW119772   4.059   3.345   6.818
 6404SOL    HW219773   4.166   3.400   6.909
 6405SOL     OW19774   4.137   2.607   7.188
 6405SOL    HW119775   4.198   2.652   7.130
 6405SOL    HW219776   4.177   2.521   7.202
 6406SOL     OW19777   4.719   1.983   7.342
 6406SOL    HW119778   4.773   2.056   7.311
 6406SOL    HW219779   4.767   1.905   7.317
 6407SOL     OW19780   4.223   1.904   7.333
 6407SOL    HW119781   4.181   1.850   7.266
 6407SOL    HW219782   4.162   1.978   7.345
 6408SOL     OW19783   4.307   2.734   6.617
 6408SOL    HW119784   4.336   2.825   6.615
 6408SOL    HW219785   4.250   2.730   6.694
 6409SOL     OW19786   5.086   2.720   6.624
 6409SOL    HW119787   5.009   2.705   6.569
 6409SOL    HW219788   5.134   2.638   6.621
 6410SOL     OW19789   4.930   2.393   5.853
 6410SOL    HW119790   4.937   2.313   5.905
 6410SOL    HW219791   4.887   2.456   5.910
 6411SOL     OW19792   4.024   2.062   6.832
 6411SOL    HW119793   3.987   2.095   6.914
 6411SOL    HW219794   4.004   1.968   6.833
 6412SOL     OW19795   3.771   3.172   6.862
 6412SOL    HW119796   3.803   3.119   6.935
 6412SOL    HW219797   3.777   3.262   6.894
 6413SOL     OW19798   4.449   2.494   6.645
 6413SOL    HW119799   4.523   2.477   6.587
 6413SOL    HW219800   4.421   2.583   6.623
 6414SOL     OW19801   4.026   1.927   6.209
 6414SOL    HW119802   4.008   2.018   6.233
 6414SOL    HW219803   4.032   1.881   6.292
 6415SOL     OW19804   0.036   2.253   5.947
 6415SOL    HW119805   0.057   2.180   6.005
 6415SOL    HW219806   0.012   2.325   6.006
 6416SOL     OW19807   4.751   2.621   6.547
 6416SOL    HW119808   4.751   2.639   6.641
 6416SOL    HW219809   4.725   2.529   6.540
 6417SOL     OW19810   4.699   3.424   7.299
 6417SOL    HW119811   4.688   3.471   7.217
 6417SOL    HW219812   4.747   3.345   7.274
 6418SOL     OW19813   4.077   2.775   7.397
 6418SOL    HW119814   4.161   2.797   7.438
 6418SOL    HW219815   4.100   2.715   7.326
 6419SOL     OW19816   5.027   2.692   5.623
 6419SOL    HW119817   5.064   2.603   5.624
 6419SOL    HW219818   5.053   2.727   5.538
 6420SOL     OW19819   4.789   3.196   6.440
 6420SOL    HW119820   4.792   3.124   6.377
 6420SOL    HW219821   4.848   3.262   6.404
 6421SOL     OW19822   4.034   2.672   6.534
 6421SOL    HW119823   4.127   2.693   6.528
 6421SOL    HW219824   4.032   2.582   6.568
 6422SOL     OW19825   4.057   2.386   6.598
 6422SOL    HW119826   4.021   2.299   6.582
 6422SOL    HW219827   4.133   2.392   6.540
 6423SOL     OW19828   4.857   2.239   7.265
 6423SOL    HW119829   4.810   2.294   7.327
 6423SOL    HW219830   4.945   2.278   7.259
 6424SOL     OW19831   4.885   2.065   7.054
 6424SOL    HW119832   4.874   2.127   7.126
 6424SOL    HW219833   4.923   2.118   6.983
 6425SOL     OW19834   3.728   3.184   5.781
 6425SOL    HW119835   3.642   3.198   5.743
 6425SOL    HW219836   3.726   3.094   5.814
 6426SOL     OW19837   3.814   3.651   6.523
 6426SOL    HW119838   3.784   3.570   6.480
 6426SOL    HW219839   3.904   3.662   6.492
 6427SOL     OW19840   4.222   3.435   6.492
 6427SOL    HW119841   4.290   3.498   6.516
 6427SOL    HW219842   4.266   3.371   6.436
 6428SOL     OW19843   4.710   2.656   6.814
 6428SOL    HW119844   4.763   2.631   6.889
 6428SOL    HW219845   4.623   2.619   6.833
 6429SOL     OW19846   3.760   2.405   6.703
 6429SOL    HW119847   3.841   2.390   6.654
 6429SOL    HW219848   3.787   2.410   6.794
 6430SOL     OW19849   3.916   2.380   7.312
 6430SOL    HW119850   3.972   2.343   7.244
 6430SOL    HW219851   3.870   2.452   7.269
 6431SOL     OW19852   5.109   2.802   7.253
 6431SOL    HW119853   5.119   2.896   7.242
 6431SOL    HW219854   5.112   2.767   7.163
 6432SOL     OW19855   4.540   2.431   5.942
 6432SOL    HW119856   4.542   2.356   5.884
 6432SOL    HW219857   4.465   2.483   5.912
 6433SOL     OW19858   3.969   3.414   7.315
 6433SOL    HW119859   3.946   3.478   7.383
 6433SOL    HW219860   3.969   3.330   7.361
 6434SOL     OW19861   4.421   2.314   6.847
 6434SOL    HW119862   4.370   2.239   6.816
 6434SOL    HW219863   4.419   2.377   6.775
 6435SOL     OW19864   4.647   3.542   7.054
 6435SOL    HW119865   4.625   3.511   6.966
 6435SOL    HW219866   4.650   3.637   7.046
 6436SOL     OW19867   4.190   2.355   5.775
 6436SOL    HW119868   4.248   2.429   5.795
 6436SOL    HW219869   4.104   2.394   5.762
 6437SOL     OW19870   3.871   3.002   7.058
 6437SOL    HW119871   3.874   2.949   7.137
 6437SOL    HW219872   3.888   2.940   6.987
 6438SOL     OW19873   5.055   2.912   6.811
 6438SOL    HW119874   5.077   2.848   6.743
 6438SOL    HW219875   4.982   2.962   6.774
 6439SOL     OW19876   5.033   2.721   5.902
 6439SOL    HW119877   4.951   2.688   5.939
 6439SOL    HW219878   5.022   2.712   5.807
 6440SOL     OW19879   4.961   3.593   6.708
 6440SOL    HW119880   5.047   3.612   6.670
 6440SOL    HW219881   4.960   3.498   6.719
 6441SOL     OW19882   3.808   3.128   6.599
 6441SOL    HW119883   3.794   3.141   6.693
 6441SOL    HW219884   3.734   3.074   6.571
 6442SOL     OW19885   4.400   3.525   7.310
 6442SOL    HW119886   4.351   3.607   7.308
 6442SOL    HW219887   4.468   3.536   7.244
 6443SOL     OW19888   0.085   2.020   6.114
 6443SOL    HW119889   0.170   2.009   6.072
 6443SOL    HW219890   0.072   1.938   6.163
 6444SOL     OW19891   5.110   3.432   6.064
 6444SOL    HW119892   5.180   3.470   6.012
 6444SOL    HW219893   5.063   3.506   6.100
 6445SOL     OW19894   3.859   3.659   7.430
 6445SOL    HW119895   3.808   3.594   7.479
 6445SOL    HW219896   3.908   3.707   7.497
 6446SOL     OW19897   5.015   2.781   6.259
 6446SOL    HW119898   5.092   2.726   6.246
 6446SOL    HW219899   5.033   2.861   6.209
 6447SOL     OW19900   4.541   3.134   7.017
 6447SOL    HW119901   4.513   3.174   7.100
 6447SOL    HW219902   4.471   3.157   6.956
 6448SOL     OW19903   4.396   3.480   5.742
 6448SOL    HW119904   4.406   3.491   5.647
 6448SOL    HW219905   4.342   3.402   5.751
 6449SOL     OW19906   3.987   2.179   6.304
 6449SOL    HW119907   3.902   2.215   6.279
 6449SOL    HW219908   3.983   2.170   6.399
 6450SOL     OW19909   4.909   3.472   5.627
 6450SOL    HW119910   4.921   3.377   5.638
 6450SOL    HW219911   4.856   3.480   5.548
 6451SOL     OW19912   4.548   2.868   6.958
 6451SOL    HW119913   4.591   2.864   6.873
 6451SOL    HW219914   4.548   2.961   6.981
 6452SOL     OW19915   4.640   2.773   5.876
 6452SOL    HW119916   4.702   2.804   5.810
 6452SOL    HW219917   4.686   2.701   5.920
 6453SOL     OW19918   4.093   3.164   7.078
 6453SOL    HW119919   4.080   3.241   7.023
 6453SOL    HW219920   4.016   3.109   7.061
 6454SOL     OW19921   4.774   2.968   6.292
 6454SOL    HW119922   4.703   2.918   6.333
 6454SOL    HW219923   4.831   2.901   6.254
 6455SOL     OW19924   4.740   2.101   6.554
 6455SOL    HW119925   4.737   2.054   6.471
 6455SOL    HW219926   4.736   2.033   6.620
 6456SOL     OW19927   4.325   3.350   6.068
 6456SOL    HW119928   4.368   3.300   5.999
 6456SOL    HW219929   4.259   3.402   6.023
 6457SOL     OW19930   3.982   3.208   5.873
 6457SOL    HW119931   3.889   3.206   5.851
 6457SOL    HW219932   3.985   3.244   5.961
 6458SOL     OW19933   3.837   2.881   7.305
 6458SOL    HW119934   3.760   2.859   7.358
 6458SOL    HW219935   3.910   2.844   7.354
 6459SOL     OW19936   4.397   2.058   7.085
 6459SOL    HW119937   4.481   2.039   7.043
 6459SOL    HW219938   4.420   2.087   7.173
 6460SOL     OW19939   3.801   2.198   5.622
 6460SOL    HW119940   3.715   2.177   5.587
 6460SOL    HW219941   3.831   2.272   5.569
 6461SOL     OW19942   5.162   2.722   6.990
 6461SOL    HW119943   5.110   2.778   6.933
 6461SOL    HW219944   5.252   2.730   6.957
 6462SOL     OW19945   3.794   2.019   5.898
 6462SOL    HW119946   3.779   2.099   5.847
 6462SOL    HW219947   3.878   1.987   5.868
 6463SOL     OW19948   4.908   3.193   5.701
 6463SOL    HW119949   4.814   3.175   5.702
 6463SOL    HW219950   4.932   3.200   5.793
 6464SOL     OW19951   4.342   2.693   7.019
 6464SOL    HW119952   4.398   2.769   7.004
 6464SOL    HW219953   4.403   2.620   7.027
 6465SOL     OW19954   4.442   2.426   7.291
 6465SOL    HW119955   4.479   2.488   7.354
 6465SOL    HW219956   4.472   2.340   7.321
 6466SOL     OW19957   5.183   3.067   7.217
 6466SOL    HW119958   5.173   3.078   7.312
 6466SOL    HW219959   5.277   3.073   7.203
 6467SOL     OW19960   4.105   3.602   7.150
 6467SOL    HW119961   4.019   3.642   7.137
 6467SOL    HW219962   4.087   3.518   7.192
 6468SOL     OW19963   4.942   2.182   6.042
 6468SOL    HW119964   5.004   2.111   6.029
 6468SOL    HW219965   4.971   2.226   6.122
 6469SOL     OW19966   4.315   2.601   6.254
 6469SOL    HW119967   4.354   2.687   6.238
 6469SOL    HW219968   4.246   2.594   6.188
 6470SOL     OW19969   4.589   3.229   5.618
 6470SOL    HW119970   4.548   3.259   5.700
 6470SOL    HW219971   4.607   3.309   5.570
 6471SOL     OW19972   4.383   3.655   6.532
 6471SOL    HW119973   4.363   3.746   6.508
 6471SOL    HW219974   4.478   3.649   6.525
 6472SOL     OW19975   4.591   2.828   6.442
 6472SOL    HW119976   4.641   2.757   6.482
 6472SOL    HW219977   4.557   2.878   6.516
 6473SOL     OW19978   4.806   2.849   5.676
 6473SOL    HW119979   4.782   2.899   5.597
 6473SOL    HW219980   4.881   2.796   5.649
 6474SOL     OW19981   3.949   3.166   7.443
 6474SOL    HW119982   3.880   3.106   7.413
 6474SOL    HW219983   3.930   3.180   7.535
 6475SOL     OW19984   3.807   3.096   6.250
 6475SOL    HW119985   3.811   3.047   6.332
 6475SOL    HW219986   3.876   3.058   6.196
 6476SOL     OW19987   4.404   3.262   7.213
 6476SOL    HW119988   4.323   3.221   7.244
 6476SOL    HW219989   4.400   3.351   7.248
 6477SOL     OW19990   4.154   2.296   6.111
 6477SOL    HW119991   4.183   2.224   6.054
 6477SOL    HW219992   4.106   2.252   6.182
 6478SOL     OW19993   0.096   3.383   6.685
 6478SOL    HW119994   0.028   3.356   6.624
 6478SOL    HW219995   0.109   3.308   6.742
 6479SOL     OW19996   4.053   2.415   6.877
 6479SOL    HW119997   4.108   2.360   6.932
 6479SOL    HW219998   4.073   2.388   6.788
 6480SOL     OW19999   4.550   3.439   6.264
 6480SOL    HW120000   4.542   3.488   6.183
 6480SOL    HW220001   4.472   3.384   6.267
 6481SOL     OW20002   5.149   2.081   6.701
 6481SOL    HW120003   5.193   2.015   6.754
 6481SOL    HW220004   5.102   2.135   6.765
 6482SOL     OW20005   4.730   1.882   6.730
 6482SOL    HW120006   4.677   1.813   6.691
 6482SOL    HW220007   4.818   1.845   6.734
 6483SOL     OW20008   4.494   3.194   5.899
 6483SOL    HW120009   4.462   3.104   5.905
 6483SOL    HW220010   4.577   3.194   5.947
 6484SOL     OW20011   4.344   3.420   6.870
 6484SOL    HW120012   4.346   3.501   6.920
 6484SOL    HW220013   4.431   3.412   6.832
 6485SOL     OW20014   5.060   1.908   5.754
 6485SOL    HW120015   5.086   1.868   5.671
 6485SOL    HW220016   4.975   1.869   5.774
 6486SOL     OW20017   5.029   2.320   6.270
 6486SOL    HW120018   4.973   2.398   6.274
 6486SOL    HW220019   5.018   2.279   6.356
 6487SOL     OW20020   0.002   2.085   6.464
 6487SOL    HW120021   5.235   2.076   6.532
 6487SOL    HW220022   5.280   2.167   6.419
 6488SOL     OW20023   3.767   2.934   5.891
 6488SOL    HW120024   3.861   2.926   5.874
 6488SOL    HW220025   3.739   2.845   5.914
 6489SOL     OW20026   4.604   3.510   5.933
 6489SOL    HW120027   4.533   3.495   5.869
 6489SOL    HW220028   4.576   3.588   5.981
 6490SOL     OW20029   3.953   2.481   7.571
 6490SOL    HW120030   3.863   2.489   7.600
 6490SOL    HW220031   3.947   2.458   7.478
 6491SOL     OW20032   3.945   3.580   7.919
 6491SOL    HW120033   3.975   3.624   7.998
 6491SOL    HW220034   4.022   3.577   7.862
 6492SOL     OW20035   3.943   3.300   7.989
 6492SOL    HW120036   3.928   3.394   7.991
 6492SOL    HW220037   3.882   3.265   8.055
 6493SOL     OW20038   4.313   2.842   7.578
 6493SOL    HW120039   4.355   2.895   7.510
 6493SOL    HW220040   4.352   2.874   7.660
 6494SOL     OW20041   3.753   3.461   7.577
 6494SOL    HW120042   3.737   3.368   7.592
 6494SOL    HW220043   3.726   3.504   7.658
 6495SOL     OW20044   0.118   2.787   8.017
 6495SOL    HW120045   0.211   2.777   8.039
 6495SOL    HW220046   0.108   2.880   7.997
 6496SOL     OW20047   4.525   1.855   7.939
 6496SOL    HW120048   4.574   1.936   7.924
 6496SOL    HW220049   4.434   1.884   7.948
 6497SOL     OW20050   4.315   2.587   7.709
 6497SOL    HW120051   4.321   2.668   7.657
 6497SOL    HW220052   4.254   2.608   7.779
 6498SOL     OW20053   3.787   2.721   0.094
 6498SOL    HW120054   3.854   2.661   0.127
 6498SOL    HW220055   3.777   2.785   0.164
 6499SOL     OW20056   4.603   2.206   7.638
 6499SOL    HW120057   4.650   2.265   7.579
 6499SOL    HW220058   4.635   2.119   7.614
 6500SOL     OW20059   4.048   2.816   7.697
 6500SOL    HW120060   4.128   2.836   7.648
 6500SOL    HW220061   4.012   2.739   7.655
 6501SOL     OW20062   4.837   3.638   7.683
 6501SOL    HW120063   4.764   3.595   7.728
 6501SOL    HW220064   4.861   3.579   7.612
 6502SOL     OW20065   4.191   3.600   7.769
 6502SOL    HW120066   4.238   3.653   7.834
 6502SOL    HW220067   4.259   3.566   7.711
 6503SOL     OW20068   5.133   1.987   7.860
 6503SOL    HW120069   5.097   1.963   7.774
 6503SOL    HW220070   5.228   1.987   7.847
 6504SOL     OW20071   4.114   2.560   7.918
 6504SOL    HW120072   4.123   2.465   7.926
 6504SOL    HW220073   4.022   2.577   7.938
 6505SOL     OW20074   4.351   1.983   7.559
 6505SOL    HW120075   4.428   1.928   7.568
 6505SOL    HW220076   4.308   1.952   7.479
 6506SOL     OW20077   4.256   1.934   7.959
 6506SOL    HW120078   4.171   1.938   8.002
 6506SOL    HW220079   4.254   2.005   7.895
 6507SOL     OW20080   5.138   3.040   7.488
 6507SOL    HW120081   5.157   2.972   7.552
 6507SOL    HW220082   5.052   3.072   7.512
 6508SOL     OW20083   4.017   1.911   7.632
 6508SOL    HW120084   4.075   1.972   7.588
 6508SOL    HW220085   4.075   1.845   7.671
 6509SOL     OW20086   4.666   2.089   7.912
 6509SOL    HW120087   4.623   2.152   7.855
 6509SOL    HW220088   4.758   2.116   7.913
 6510SOL     OW20089   4.166   3.011   0.101
 6510SOL    HW120090   4.090   3.044   0.148
 6510SOL    HW220091   4.135   2.997   0.011
 6511SOL     OW20092   5.006   3.666   8.013
 6511SOL    HW120093   5.045   3.733   7.956
 6511SOL    HW220094   4.939   3.714   8.062
 6512SOL     OW20095   4.753   2.409   7.464
 6512SOL    HW120096   4.705   2.490   7.446
 6512SOL    HW220097   4.806   2.428   7.540
 6513SOL     OW20098   4.214   3.276   7.607
 6513SOL    HW120099   4.139   3.247   7.660
 6513SOL    HW220100   4.194   3.245   7.519
 6514SOL     OW20101   5.127   2.424   7.528
 6514SOL    HW120102   5.054   2.415   7.589
 6514SOL    HW220103   5.201   2.384   7.572
 6515SOL     OW20104   4.250   2.127   7.771
 6515SOL    HW120105   4.292   2.076   7.702
 6515SOL    HW220106   4.229   2.211   7.730
 6516SOL     OW20107   4.435   2.923   7.812
 6516SOL    HW120108   4.412   2.912   7.904
 6516SOL    HW220109   4.514   2.870   7.801
 6517SOL     OW20110   4.090   2.961   7.929
 6517SOL    HW120111   4.072   3.041   7.879
 6517SOL    HW220112   4.077   2.890   7.866
 6518SOL     OW20113   4.959   3.219   7.820
 6518SOL    HW120114   5.017   3.288   7.851
 6518SOL    HW220115   4.900   3.203   7.894
 6519SOL     OW20116   0.033   2.508   7.925
 6519SOL    HW120117   5.278   2.537   7.998
 6519SOL    HW220118   0.041   2.584   7.868
 6520SOL     OW20119   4.929   2.392   7.715
 6520SOL    HW120120   4.934   2.308   7.760
 6520SOL    HW220121   4.898   2.453   7.781
 6521SOL     OW20122   0.028   2.260   7.810
 6521SOL    HW120123   0.041   2.190   7.875
 6521SOL    HW220124   0.020   2.340   7.862
 6522SOL     OW20125   5.032   2.694   7.489
 6522SOL    HW120126   5.064   2.603   7.486
 6522SOL    HW220127   5.055   2.730   7.403
 6523SOL     OW20128   3.729   3.186   7.640
 6523SOL    HW120129   3.642   3.199   7.603
 6523SOL    HW220130   3.728   3.097   7.674
 6524SOL     OW20131   4.560   2.457   7.763
 6524SOL    HW120132   4.551   2.366   7.735
 6524SOL    HW220133   4.471   2.492   7.763
 6525SOL     OW20134   4.188   2.355   7.643
 6525SOL    HW120135   4.246   2.430   7.657
 6525SOL    HW220136   4.102   2.395   7.624
 6526SOL     OW20137   5.032   2.708   7.771
 6526SOL    HW120138   4.939   2.718   7.791
 6526SOL    HW220139   5.036   2.709   7.675
 6527SOL     OW20140   0.178   2.003   7.990
 6527SOL    HW120141   0.164   1.984   7.898
 6527SOL    HW220142   0.136   1.931   8.037
 6528SOL     OW20143   5.102   3.435   7.908
 6528SOL    HW120144   5.196   3.450   7.897
 6528SOL    HW220145   5.069   3.515   7.948
 6529SOL     OW20146   4.390   3.481   7.604
 6529SOL    HW120147   4.404   3.491   7.510
 6529SOL    HW220148   4.340   3.400   7.613
 6530SOL     OW20149   4.912   3.473   7.486
 6530SOL    HW120150   4.921   3.379   7.501
 6530SOL    HW220151   4.854   3.480   7.410
 6531SOL     OW20152   4.654   2.773   7.757
 6531SOL    HW120153   4.705   2.798   7.680
 6531SOL    HW220154   4.647   2.678   7.751
 6532SOL     OW20155   4.326   3.367   7.937
 6532SOL    HW120156   4.370   3.306   7.878
 6532SOL    HW220157   4.257   3.405   7.883
 6533SOL     OW20158   3.982   3.209   7.739
 6533SOL    HW120159   3.889   3.207   7.714
 6533SOL    HW220160   3.982   3.245   7.828
 6534SOL     OW20161   3.801   2.197   7.484
 6534SOL    HW120162   3.714   2.177   7.448
 6534SOL    HW220163   3.831   2.272   7.433
 6535SOL     OW20164   3.795   2.020   7.760
 6535SOL    HW120165   3.778   2.096   7.705
 6535SOL    HW220166   3.878   1.985   7.727
 6536SOL     OW20167   4.907   3.192   7.557
 6536SOL    HW120168   4.812   3.178   7.557
 6536SOL    HW220169   4.929   3.204   7.649
 6537SOL     OW20170   5.263   3.605   0.320
 6537SOL    HW120171   5.267   3.692   0.279
 6537SOL    HW220172   0.031   3.608   0.387
 6538SOL     OW20173   4.940   2.182   7.900
 6538SOL    HW120174   5.010   2.118   7.891
 6538SOL    HW220175   4.958   2.225   7.984
 6539SOL     OW20176   4.345   2.595   8.061
 6539SOL    HW120177   4.354   2.680   0.023
 6539SOL    HW220178   4.259   2.598   8.019
 6540SOL     OW20179   4.590   3.229   7.480
 6540SOL    HW120180   4.550   3.257   7.563
 6540SOL    HW220181   4.607   3.310   7.433
 6541SOL     OW20182   4.802   2.841   7.539
 6541SOL    HW120183   4.779   2.896   7.464
 6541SOL    HW220184   4.880   2.794   7.511
 6542SOL     OW20185   4.112   2.287   7.980
 6542SOL    HW120186   4.164   2.236   7.917
 6542SOL    HW220187   4.159   2.276   8.063
 6543SOL     OW20188   4.490   3.196   7.756
 6543SOL    HW120189   4.458   3.106   7.761
 6543SOL    HW220190   4.569   3.196   7.811
 6544SOL     OW20191   5.063   1.907   7.612
 6544SOL    HW120192   5.085   1.863   7.530
 6544SOL    HW220193   4.979   1.870   7.637
 6545SOL     OW20194   3.774   2.941   7.750
 6545SOL    HW120195   3.867   2.930   7.736
 6545SOL    HW220196   3.741   2.853   7.767
 6546SOL     OW20197   4.613   3.508   7.784
 6546SOL    HW120198   4.537   3.488   7.730
 6546SOL    HW220199   4.581   3.574   7.846
 6547SOL     OW20200   3.947   4.348   0.121
 6547SOL    HW120201   3.865   4.316   0.159
 6547SOL    HW220202   3.966   4.286   0.050
 6548SOL     OW20203   3.949   4.004   0.991
 6548SOL    HW120204   3.977   3.971   1.076
 6548SOL    HW220205   3.859   3.972   0.982
 6549SOL     OW20206   3.729   4.107   0.638
 6549SOL    HW120207   3.646   4.131   0.679
 6549SOL    HW220208   3.709   4.026   0.590
 6550SOL     OW20209   4.289   5.003   1.177
 6550SOL    HW120210   4.204   5.003   1.133
 6550SOL    HW220211   4.302   5.094   1.204
 6551SOL     OW20212   5.277   5.233   0.694
 6551SOL    HW120213   5.260   5.215   0.786
 6551SOL    HW220214   5.190   5.232   0.653
 6552SOL     OW20215   4.857   4.423   0.702
 6552SOL    HW120216   4.908   4.504   0.691
 6552SOL    HW220217   4.809   4.437   0.784
 6553SOL     OW20218   4.481   4.869   1.036
 6553SOL    HW120219   4.413   4.900   1.096
 6553SOL    HW220220   4.511   4.947   0.991
 6554SOL     OW20221   4.589   4.502   1.822
 6554SOL    HW120222   4.573   4.574   1.883
 6554SOL    HW220223   4.612   4.545   1.739
 6555SOL     OW20224   4.409   4.727   0.651
 6555SOL    HW120225   4.474   4.716   0.720
 6555SOL    HW220226   4.341   4.781   0.692
 6556SOL     OW20227   4.432   4.874   1.810
 6556SOL    HW120228   4.480   4.954   1.834
 6556SOL    HW220229   4.348   4.906   1.777
 6557SOL     OW20230   4.061   5.154   1.061
 6557SOL    HW120231   3.985   5.111   1.022
 6557SOL    HW220232   4.103   5.199   0.988
 6558SOL     OW20233   5.133   5.237   1.342
 6558SOL    HW120234   5.156   0.008   1.402
 6558SOL    HW220235   5.113   5.162   1.398
 6559SOL     OW20236   4.172   4.123   1.490
 6559SOL    HW120237   4.247   4.064   1.494
 6559SOL    HW220238   4.096   4.065   1.501
 6560SOL     OW20239   4.863   5.054   1.698
 6560SOL    HW120240   4.888   5.066   1.790
 6560SOL    HW220241   4.803   4.979   1.699
 6561SOL     OW20242   3.932   5.154   0.516
 6561SOL    HW120243   3.958   5.238   0.554
 6561SOL    HW220244   3.879   5.113   0.584
 6562SOL     OW20245   3.979   4.811   0.890
 6562SOL    HW120246   3.977   4.725   0.932
 6562SOL    HW220247   3.922   4.865   0.946
 6563SOL     OW20248   4.355   4.686   0.130
 6563SOL    HW120249   4.305   4.763   0.104
 6563SOL    HW220250   4.402   4.713   0.209
 6564SOL     OW20251   3.838   4.374   0.561
 6564SOL    HW120252   3.808   4.285   0.582
 6564SOL    HW220253   3.830   4.422   0.643
 6565SOL     OW20254   3.703   0.018   0.097
 6565SOL    HW120255   3.721   5.228   0.126
 6565SOL    HW220256   3.732   0.072   0.170
 6566SOL     OW20257   0.114   4.657   0.581
 6566SOL    HW120258   0.205   4.632   0.594
 6566SOL    HW220259   0.118   4.743   0.538
 6567SOL     OW20260   3.846   4.466   1.587
 6567SOL    HW120261   3.939   4.489   1.598
 6567SOL    HW220262   3.800   4.549   1.594
 6568SOL     OW20263   4.345   5.097   0.735
 6568SOL    HW120264   4.290   5.018   0.734
 6568SOL    HW220265   4.326   5.140   0.652
 6569SOL     OW20266   5.018   4.968   1.422
 6569SOL    HW120267   5.048   4.897   1.365
 6569SOL    HW220268   5.067   4.955   1.504
 6570SOL     OW20269   4.538   3.725   0.509
 6570SOL    HW120270   4.577   3.810   0.489
 6570SOL    HW220271   4.444   3.743   0.518
 6571SOL     OW20272   3.915   4.692   1.268
 6571SOL    HW120273   3.999   4.648   1.254
 6571SOL    HW220274   3.851   4.635   1.226
 6572SOL     OW20275   4.055   3.975   1.808
 6572SOL    HW120276   4.101   4.057   1.824
 6572SOL    HW220277   3.966   3.990   1.841
 6573SOL     OW20278   5.178   5.152   0.952
 6573SOL    HW120279   5.110   5.161   1.019
 6573SOL    HW220280   5.164   5.065   0.915
 6574SOL     OW20281   0.052   0.162   0.565
 6574SOL    HW120282   0.090   0.121   0.488
 6574SOL    HW220283   0.040   0.090   0.627
 6575SOL     OW20284   4.321   4.440   0.281
 6575SOL    HW120285   4.341   4.515   0.226
 6575SOL    HW220286   4.257   4.472   0.344
 6576SOL     OW20287   4.997   4.060   0.920
 6576SOL    HW120288   4.909   4.030   0.942
 6576SOL    HW220289   5.052   4.026   0.991
 6577SOL     OW20290   4.515   4.341   1.452
 6577SOL    HW120291   4.489   4.318   1.541
 6577SOL    HW220292   4.474   4.275   1.397
 6578SOL     OW20293   5.115   4.202   1.680
 6578SOL    HW120294   5.115   4.241   1.767
 6578SOL    HW220295   5.190   4.143   1.680
 6579SOL     OW20296   4.680   4.612   1.581
 6579SOL    HW120297   4.733   4.541   1.546
 6579SOL    HW220298   4.632   4.646   1.505
 6580SOL     OW20299   4.715   4.137   1.239
 6580SOL    HW120300   4.630   4.160   1.278
 6580SOL    HW220301   4.693   4.090   1.159
 6581SOL     OW20302   4.775   4.421   0.426
 6581SOL    HW120303   4.790   4.417   0.521
 6581SOL    HW220304   4.692   4.376   0.412
 6582SOL     OW20305   3.813   4.545   0.775
 6582SOL    HW120306   3.894   4.538   0.826
 6582SOL    HW220307   3.769   4.622   0.811
 6583SOL     OW20308   4.607   4.080   0.200
 6583SOL    HW120309   4.652   4.128   0.130
 6583SOL    HW220310   4.608   3.989   0.171
 6584SOL     OW20311   5.091   4.867   0.546
 6584SOL    HW120312   5.178   4.862   0.507
 6584SOL    HW220313   5.043   4.928   0.489
 6585SOL     OW20314   4.273   3.907   0.892
 6585SOL    HW120315   4.275   3.934   0.984
 6585SOL    HW220316   4.276   3.989   0.843
 6586SOL     OW20317   4.743   5.168   0.467
 6586SOL    HW120318   4.666   5.225   0.463
 6586SOL    HW220319   4.764   5.163   0.561
 6587SOL     OW20320   4.939   5.260   1.551
 6587SOL    HW120321   4.916   5.178   1.593
 6587SOL    HW220322   4.904   5.252   1.462
 6588SOL     OW20323   4.052   4.665   0.251
 6588SOL    HW120324   4.125   4.706   0.203
 6588SOL    HW220325   4.050   4.575   0.219
 6589SOL     OW20326   4.188   4.987   1.740
 6589SOL    HW120327   4.161   4.990   1.648
 6589SOL    HW220328   4.106   4.986   1.789
 6590SOL     OW20329   4.871   0.190   0.222
 6590SOL    HW120330   4.794   0.176   0.278
 6590SOL    HW220331   4.846   0.152   0.138
 6591SOL     OW20332   3.924   4.006   1.500
 6591SOL    HW120333   3.842   4.056   1.495
 6591SOL    HW220334   3.908   3.942   1.569
 6592SOL     OW20335   5.119   3.848   0.437
 6592SOL    HW120336   5.101   3.830   0.344
 6592SOL    HW220337   5.214   3.856   0.442
 6593SOL     OW20338   4.109   4.421   0.477
 6593SOL    HW120339   4.136   4.330   0.487
 6593SOL    HW220340   4.017   4.422   0.500
 6594SOL     OW20341   4.353   3.836   0.134
 6594SOL    HW120342   4.447   3.823   0.141
 6594SOL    HW220343   4.332   3.816   0.042
 6595SOL     OW20344   4.491   4.001   1.753
 6595SOL    HW120345   4.565   3.941   1.757
 6595SOL    HW220346   4.442   3.984   1.833
 6596SOL     OW20347   5.058   4.315   1.432
 6596SOL    HW120348   5.092   4.282   1.516
 6596SOL    HW220349   5.100   4.400   1.421
 6597SOL     OW20350   4.534   5.121   0.934
 6597SOL    HW120351   4.616   5.108   0.886
 6597SOL    HW220352   4.467   5.127   0.867
 6598SOL     OW20353   4.650   4.233   0.903
 6598SOL    HW120354   4.627   4.224   0.811
 6598SOL    HW220355   4.684   4.146   0.928
 6599SOL     OW20356   4.273   3.787   0.506
 6599SOL    HW120357   4.192   3.787   0.558
 6599SOL    HW220358   4.267   3.865   0.452
 6600SOL     OW20359   5.131   4.896   0.031
 6600SOL    HW120360   5.154   4.833   0.100
 6600SOL    HW220361   5.050   4.936   0.061
 6601SOL     OW20362   4.033   3.776   0.167
 6601SOL    HW120363   4.096   3.847   0.181
 6601SOL    HW220364   4.071   3.701   0.211
 6602SOL     OW20365   4.661   3.969   0.460
 6602SOL    HW120366   4.632   4.011   0.379
 6602SOL    HW220367   4.755   3.985   0.464
 6603SOL     OW20368   4.801   4.404   1.461
 6603SOL    HW120369   4.733   4.337   1.464
 6603SOL    HW220370   4.883   4.355   1.451
 6604SOL     OW20371   4.981   5.266   0.777
 6604SOL    HW120372   4.956   0.053   0.745
 6604SOL    HW220373   5.035   5.284   0.853
 6605SOL     OW20374   4.188   4.872   0.733
 6605SOL    HW120375   4.119   4.852   0.797
 6605SOL    HW220376   4.148   4.853   0.648
 6606SOL     OW20377   4.759   4.258   0.026
 6606SOL    HW120378   4.711   4.336   0.001
 6606SOL    HW220379   4.818   4.287   0.096
 6607SOL     OW20380   3.801   4.279   1.392
 6607SOL    HW120381   3.893   4.277   1.364
 6607SOL    HW220382   3.797   4.349   1.457
 6608SOL     OW20383   4.284   3.950   1.164
 6608SOL    HW120384   4.325   3.873   1.203
 6608SOL    HW220385   4.193   3.948   1.195
 6609SOL     OW20386   4.592   4.183   0.639
 6609SOL    HW120387   4.549   4.238   0.574
 6609SOL    HW220388   4.613   4.102   0.591
 6610SOL     OW20389   4.739   3.776   0.752
 6610SOL    HW120390   4.680   3.769   0.677
 6610SOL    HW220391   4.718   3.700   0.807
 6611SOL     OW20392   5.153   4.901   0.850
 6611SOL    HW120393   5.101   4.821   0.859
 6611SOL    HW220394   5.172   4.908   0.757
 6612SOL     OW20395   4.193   5.160   0.158
 6612SOL    HW120396   4.144   5.102   0.217
 6612SOL    HW220397   4.224   5.103   0.089
 6613SOL     OW20398   5.123   4.308   0.077
 6613SOL    HW120399   5.065   4.283   0.149
 6613SOL    HW220400   5.195   4.245   0.081
 6614SOL     OW20401   4.243   3.987   0.324
 6614SOL    HW120402   4.291   3.934   0.261
 6614SOL    HW220403   4.231   4.072   0.282
 6615SOL     OW20404   4.787   5.074   1.331
 6615SOL    HW120405   4.710   5.049   1.381
 6615SOL    HW220406   4.860   5.035   1.379
 6616SOL     OW20407   4.846   4.922   1.109
 6616SOL    HW120408   4.795   4.965   1.177
 6616SOL    HW220409   4.806   4.952   1.027
 6617SOL     OW20410   4.642   3.823   1.398
 6617SOL    HW120411   4.664   3.804   1.307
 6617SOL    HW220412   4.721   3.862   1.434
 6618SOL     OW20413   4.706   4.834   1.728
 6618SOL    HW120414   4.614   4.852   1.744
 6618SOL    HW220415   4.706   4.760   1.668
 6619SOL     OW20416   4.432   4.781   0.380
 6619SOL    HW120417   4.418   4.767   0.474
 6619SOL    HW220418   4.512   4.733   0.360
 6620SOL     OW20419   4.141   4.538   1.251
 6620SOL    HW120420   4.210   4.548   1.317
 6620SOL    HW220421   4.106   4.450   1.266
 6621SOL     OW20422   4.990   4.100   1.275
 6621SOL    HW120423   5.024   4.179   1.317
 6621SOL    HW220424   4.901   4.124   1.249
 6622SOL     OW20425   4.070   4.831   0.491
 6622SOL    HW120426   4.075   4.904   0.430
 6622SOL    HW220427   4.080   4.753   0.437
 6623SOL     OW20428   4.278   4.261   0.860
 6623SOL    HW120429   4.294   4.320   0.786
 6623SOL    HW220430   4.342   4.289   0.926
 6624SOL     OW20431   4.981   5.069   0.387
 6624SOL    HW120432   5.033   5.149   0.396
 6624SOL    HW220433   4.893   5.094   0.414
 6625SOL     OW20434   4.979   5.180   1.133
 6625SOL    HW120435   5.035   5.201   1.208
 6625SOL    HW220436   4.940   5.095   1.156
 6626SOL     OW20437   4.072   5.236   1.316
 6626SOL    HW120438   4.061   5.201   1.228
 6626SOL    HW220439   4.165   5.257   1.322
 6627SOL     OW20440   4.137   4.469   1.602
 6627SOL    HW120441   4.198   4.514   1.544
 6627SOL    HW220442   4.178   4.383   1.617
 6628SOL     OW20443   4.718   3.845   1.756
 6628SOL    HW120444   4.773   3.918   1.726
 6628SOL    HW220445   4.767   3.767   1.731
 6629SOL     OW20446   4.222   3.766   1.747
 6629SOL    HW120447   4.180   3.712   1.680
 6629SOL    HW220448   4.162   3.840   1.759
 6630SOL     OW20449   4.306   4.596   1.031
 6630SOL    HW120450   4.338   4.687   1.028
 6630SOL    HW220451   4.250   4.592   1.108
 6631SOL     OW20452   5.085   4.581   1.038
 6631SOL    HW120453   5.010   4.567   0.981
 6631SOL    HW220454   5.135   4.500   1.033
 6632SOL     OW20455   4.932   4.255   0.270
 6632SOL    HW120456   4.936   4.174   0.322
 6632SOL    HW220457   4.887   4.318   0.326
 6633SOL     OW20458   4.024   3.923   1.246
 6633SOL    HW120459   3.987   3.957   1.328
 6633SOL    HW220460   4.004   3.830   1.247
 6634SOL     OW20461   3.774   5.045   1.284
 6634SOL    HW120462   3.801   4.983   1.351
 6634SOL    HW220463   3.810   5.129   1.313
 6635SOL     OW20464   4.448   4.355   1.059
 6635SOL    HW120465   4.523   4.338   1.001
 6635SOL    HW220466   4.421   4.444   1.037
 6636SOL     OW20467   4.025   3.789   0.623
 6636SOL    HW120468   4.008   3.880   0.647
 6636SOL    HW220469   4.032   3.743   0.706
 6637SOL     OW20470   0.044   4.102   0.359
 6637SOL    HW120471   0.062   4.044   0.433
 6637SOL    HW220472   0.014   4.184   0.400
 6638SOL     OW20473   4.750   4.483   0.961
 6638SOL    HW120474   4.751   4.501   1.055
 6638SOL    HW220475   4.725   4.391   0.954
 6639SOL     OW20476   4.077   4.640   1.808
 6639SOL    HW120477   4.159   4.659   1.853
 6639SOL    HW220478   4.101   4.578   1.740
 6640SOL     OW20479   5.026   4.556   0.027
 6640SOL    HW120480   5.060   4.468   0.045
 6640SOL    HW220481   5.061   4.577   8.021
 6641SOL     OW20482   4.782   5.076   0.831
 6641SOL    HW120483   4.788   4.992   0.785
 6641SOL    HW220484   4.866   5.118   0.815
 6642SOL     OW20485   4.034   4.533   0.947
 6642SOL    HW120486   4.127   4.555   0.942
 6642SOL    HW220487   4.032   4.444   0.982
 6643SOL     OW20488   4.056   4.248   1.012
 6643SOL    HW120489   4.021   4.161   0.996
 6643SOL    HW220490   4.132   4.254   0.954
 6644SOL     OW20491   4.857   4.101   1.680
 6644SOL    HW120492   4.810   4.156   1.743
 6644SOL    HW220493   4.944   4.139   1.674
 6645SOL     OW20494   4.885   3.928   1.468
 6645SOL    HW120495   4.874   3.989   1.541
 6645SOL    HW220496   4.923   3.980   1.398
 6646SOL     OW20497   3.734   5.046   0.182
 6646SOL    HW120498   3.645   5.058   0.148
 6646SOL    HW220499   3.733   4.958   0.220
 6647SOL     OW20500   4.709   4.517   1.228
 6647SOL    HW120501   4.764   4.494   1.302
 6647SOL    HW220502   4.623   4.480   1.248
 6648SOL     OW20503   3.760   4.268   1.116
 6648SOL    HW120504   3.841   4.252   1.068
 6648SOL    HW220505   3.787   4.273   1.208
 6649SOL     OW20506   3.915   4.242   1.726
 6649SOL    HW120507   3.973   4.206   1.659
 6649SOL    HW220508   3.870   4.315   1.683
 6650SOL     OW20509   5.110   4.664   1.666
 6650SOL    HW120510   5.119   4.759   1.655
 6650SOL    HW220511   5.112   4.629   1.577
 6651SOL     OW20512   4.542   4.293   0.363
 6651SOL    HW120513   4.550   4.222   0.301
 6651SOL    HW220514   4.466   4.343   0.333
 6652SOL     OW20515   3.930   5.278   1.744
 6652SOL    HW120516   3.920   0.031   1.823
 6652SOL    HW220517   3.943   5.189   1.777
 6653SOL     OW20518   4.420   4.176   1.261
 6653SOL    HW120519   4.370   4.101   1.229
 6653SOL    HW220520   4.419   4.239   1.189
 6654SOL     OW20521   4.193   4.214   0.181
 6654SOL    HW120522   4.258   4.282   0.200
 6654SOL    HW220523   4.109   4.259   0.190
 6655SOL     OW20524   3.870   4.863   1.470
 6655SOL    HW120525   3.874   4.811   1.550
 6655SOL    HW220526   3.888   4.801   1.400
 6656SOL     OW20527   5.052   4.772   1.227
 6656SOL    HW120528   5.077   4.710   1.158
 6656SOL    HW220529   4.981   4.823   1.190
 6657SOL     OW20530   5.022   4.593   0.318
 6657SOL    HW120531   4.944   4.548   0.352
 6657SOL    HW220532   5.024   4.572   0.225
 6658SOL     OW20533   3.816   4.986   1.021
 6658SOL    HW120534   3.795   5.002   1.113
 6658SOL    HW220535   3.736   4.947   0.985
 6659SOL     OW20536   4.469   0.038   1.712
 6659SOL    HW120537   4.377   0.063   1.716
 6659SOL    HW220538   4.497   0.065   1.624
 6660SOL     OW20539   4.629   3.815   0.134
 6660SOL    HW120540   4.652   3.800   0.043
 6660SOL    HW220541   4.691   3.761   0.183
 6661SOL     OW20542   0.084   3.873   0.521
 6661SOL    HW120543   0.175   3.869   0.491
 6661SOL    HW220544   0.077   3.802   0.585
 6662SOL     OW20545   5.015   4.642   0.674
 6662SOL    HW120546   5.093   4.588   0.659
 6662SOL    HW220547   5.033   4.722   0.624
 6663SOL     OW20548   4.545   4.993   1.426
 6663SOL    HW120549   4.517   5.030   1.509
 6663SOL    HW220550   4.469   5.006   1.368
 6664SOL     OW20551   3.987   4.041   0.718
 6664SOL    HW120552   3.902   4.077   0.694
 6664SOL    HW220553   3.984   4.032   0.813
 6665SOL     OW20554   4.860   0.021   0.009
 6665SOL    HW120555   4.884   5.232   0.036
 6665SOL    HW220556   4.865   0.020   7.994
 6666SOL     OW20557   4.548   4.729   1.370
 6666SOL    HW120558   4.594   4.723   1.286
 6666SOL    HW220559   4.552   4.821   1.394
 6667SOL     OW20560   4.642   4.638   0.298
 6667SOL    HW120561   4.697   4.665   0.225
 6667SOL    HW220562   4.689   4.565   0.338
 6668SOL     OW20563   4.090   5.025   1.496
 6668SOL    HW120564   4.079   5.100   1.437
 6668SOL    HW220565   4.014   4.969   1.478
 6669SOL     OW20566   4.775   4.832   0.711
 6669SOL    HW120567   4.704   4.780   0.748
 6669SOL    HW220568   4.832   4.768   0.669
 6670SOL     OW20569   4.740   3.963   0.967
 6670SOL    HW120570   4.737   3.915   0.884
 6670SOL    HW220571   4.736   3.895   1.034
 6671SOL     OW20572   3.987   5.031   0.288
 6671SOL    HW120573   3.905   5.048   0.242
 6671SOL    HW220574   3.980   5.081   0.369
 6672SOL     OW20575   3.836   4.743   1.718
 6672SOL    HW120576   3.760   4.721   1.772
 6672SOL    HW220577   3.911   4.707   1.766
 6673SOL     OW20578   4.397   3.920   1.499
 6673SOL    HW120579   4.481   3.901   1.457
 6673SOL    HW220580   4.421   3.950   1.587
 6674SOL     OW20581   3.782   4.086   0.039
 6674SOL    HW120582   3.708   4.030   0.014
 6674SOL    HW220583   3.827   4.105   8.037
 6675SOL     OW20584   5.163   4.583   1.404
 6675SOL    HW120585   5.110   4.640   1.347
 6675SOL    HW220586   5.252   4.592   1.370
 6676SOL     OW20587   3.795   3.879   0.308
 6676SOL    HW120588   3.779   3.963   0.264
 6676SOL    HW220589   3.880   3.850   0.274
 6677SOL     OW20590   4.907   5.055   0.110
 6677SOL    HW120591   4.811   5.046   0.110
 6677SOL    HW220592   4.930   5.063   0.203
 6678SOL     OW20593   4.342   4.555   1.433
 6678SOL    HW120594   4.398   4.631   1.417
 6678SOL    HW220595   4.403   4.482   1.441
 6679SOL     OW20596   4.441   4.288   1.705
 6679SOL    HW120597   4.479   4.351   1.766
 6679SOL    HW220598   4.473   4.203   1.736
 6680SOL     OW20599   5.184   4.929   1.633
 6680SOL    HW120600   5.174   4.940   1.727
 6680SOL    HW220601   5.279   4.933   1.618
 6681SOL     OW20602   4.936   4.048   0.460
 6681SOL    HW120603   4.999   3.977   0.448
 6681SOL    HW220604   4.965   4.094   0.539
 6682SOL     OW20605   4.314   4.462   0.668
 6682SOL    HW120606   4.354   4.548   0.654
 6682SOL    HW220607   4.244   4.457   0.602
 6683SOL     OW20608   4.631   5.097   0.036
 6683SOL    HW120609   4.570   5.081   0.108
 6683SOL    HW220610   4.586   5.162   8.061
 6684SOL     OW20611   4.590   4.689   0.856
 6684SOL    HW120612   4.641   4.619   0.897
 6684SOL    HW220613   4.558   4.741   0.930
 6685SOL     OW20614   4.801   4.702   0.087
 6685SOL    HW120615   4.787   4.758   0.011
 6685SOL    HW220616   4.883   4.656   0.068
 6686SOL     OW20617   3.948   5.026   1.853
 6686SOL    HW120618   3.879   4.964   1.828
 6686SOL    HW220619   3.936   5.038   1.947
 6687SOL     OW20620   3.809   4.956   0.669
 6687SOL    HW120621   3.808   4.903   0.749
 6687SOL    HW220622   3.878   4.917   0.615
 6688SOL     OW20623   4.392   5.109   1.609
 6688SOL    HW120624   4.318   5.074   1.657
 6688SOL    HW220625   4.422   5.183   1.660
 6689SOL     OW20626   4.149   4.160   0.523
 6689SOL    HW120627   4.182   4.088   0.469
 6689SOL    HW220628   4.106   4.116   0.596
 6690SOL     OW20629   0.122   5.228   1.053
 6690SOL    HW120630   0.038   5.205   1.014
 6690SOL    HW220631   0.106   5.224   1.148
 6691SOL     OW20632   4.052   4.277   1.291
 6691SOL    HW120633   4.108   4.223   1.346
 6691SOL    HW220634   4.073   4.250   1.202
 6692SOL     OW20635   5.149   3.942   1.115
 6692SOL    HW120636   5.194   3.877   1.169
 6692SOL    HW220637   5.103   3.998   1.178
 6693SOL     OW20638   4.730   3.744   1.144
 6693SOL    HW120639   4.677   3.675   1.105
 6693SOL    HW220640   4.818   3.707   1.148
 6694SOL     OW20641   4.517   5.041   0.283
 6694SOL    HW120642   4.461   4.968   0.308
 6694SOL    HW220643   4.576   5.052   0.358
 6695SOL     OW20644   4.346   5.299   1.289
 6695SOL    HW120645   4.354   0.054   1.366
 6695SOL    HW220646   4.436   5.280   1.263
 6696SOL     OW20647   5.053   3.786   0.183
 6696SOL    HW120648   5.096   3.736   0.114
 6696SOL    HW220649   4.976   3.734   0.206
 6697SOL     OW20650   5.029   4.184   0.685
 6697SOL    HW120651   4.974   4.262   0.689
 6697SOL    HW220652   5.018   4.142   0.770
 6698SOL     OW20653   0.001   3.947   0.876
 6698SOL    HW120654   5.236   3.937   0.946
 6698SOL    HW220655   5.280   4.032   0.836
 6699SOL     OW20656   3.764   4.792   0.302
 6699SOL    HW120657   3.860   4.794   0.305
 6699SOL    HW220658   3.741   4.709   0.343
 6700SOL     OW20659   3.954   4.347   1.984
 6700SOL    HW120660   3.865   4.347   2.017
 6700SOL    HW220661   3.946   4.321   1.892
 6701SOL     OW20662   3.948   4.004   2.853
 6701SOL    HW120663   3.977   3.971   2.938
 6701SOL    HW220664   3.859   3.972   2.844
 6702SOL     OW20665   3.729   4.106   2.500
 6702SOL    HW120666   3.646   4.130   2.541
 6702SOL    HW220667   3.709   4.026   2.451
 6703SOL     OW20668   4.290   5.003   3.039
 6703SOL    HW120669   4.204   5.002   2.995
 6703SOL    HW220670   4.302   5.094   3.067
 6704SOL     OW20671   5.276   5.232   2.556
 6704SOL    HW120672   5.261   5.215   2.649
 6704SOL    HW220673   5.189   5.232   2.518
 6705SOL     OW20674   4.857   4.423   2.564
 6705SOL    HW120675   4.907   4.504   2.553
 6705SOL    HW220676   4.809   4.436   2.645
 6706SOL     OW20677   4.482   4.869   2.899
 6706SOL    HW120678   4.413   4.900   2.958
 6706SOL    HW220679   4.511   4.948   2.853
 6707SOL     OW20680   4.589   4.502   3.684
 6707SOL    HW120681   4.573   4.574   3.745
 6707SOL    HW220682   4.612   4.545   3.601
 6708SOL     OW20683   4.410   4.729   2.511
 6708SOL    HW120684   4.474   4.716   2.581
 6708SOL    HW220685   4.341   4.781   2.551
 6709SOL     OW20686   4.432   4.874   3.672
 6709SOL    HW120687   4.480   4.954   3.696
 6709SOL    HW220688   4.348   4.906   3.639
 6710SOL     OW20689   4.061   5.154   2.923
 6710SOL    HW120690   3.985   5.111   2.885
 6710SOL    HW220691   4.103   5.198   2.849
 6711SOL     OW20692   5.134   5.236   3.203
 6711SOL    HW120693   5.155   0.007   3.264
 6711SOL    HW220694   5.113   5.162   3.260
 6712SOL     OW20695   4.172   4.123   3.352
 6712SOL    HW120696   4.247   4.064   3.356
 6712SOL    HW220697   4.096   4.065   3.363
 6713SOL     OW20698   4.863   5.054   3.560
 6713SOL    HW120699   4.888   5.066   3.652
 6713SOL    HW220700   4.803   4.980   3.561
 6714SOL     OW20701   3.934   5.154   2.382
 6714SOL    HW120702   3.958   5.238   2.421
 6714SOL    HW220703   3.881   5.111   2.449
 6715SOL     OW20704   3.979   4.812   2.753
 6715SOL    HW120705   3.978   4.725   2.793
 6715SOL    HW220706   3.922   4.865   2.808
 6716SOL     OW20707   4.312   4.704   1.994
 6716SOL    HW120708   4.356   4.755   1.927
 6716SOL    HW220709   4.351   4.734   2.076
 6717SOL     OW20710   3.838   4.375   2.421
 6717SOL    HW120711   3.809   4.287   2.442
 6717SOL    HW220712   3.830   4.424   2.504
 6718SOL     OW20713   3.710   0.015   1.962
 6718SOL    HW120714   3.728   5.225   1.991
 6718SOL    HW220715   3.733   0.069   2.037
 6719SOL     OW20716   0.112   4.660   2.432
 6719SOL    HW120717   0.199   4.628   2.457
 6719SOL    HW220718   0.128   4.747   2.395
 6720SOL     OW20719   3.846   4.466   3.449
 6720SOL    HW120720   3.939   4.489   3.460
 6720SOL    HW220721   3.800   4.549   3.456
 6721SOL     OW20722   4.345   5.097   2.597
 6721SOL    HW120723   4.291   5.018   2.597
 6721SOL    HW220724   4.326   5.139   2.513
 6722SOL     OW20725   5.019   4.968   3.284
 6722SOL    HW120726   5.048   4.897   3.227
 6722SOL    HW220727   5.066   4.955   3.365
 6723SOL     OW20728   4.537   3.723   2.369
 6723SOL    HW120729   4.577   3.808   2.351
 6723SOL    HW220730   4.444   3.743   2.379
 6724SOL     OW20731   3.915   4.692   3.130
 6724SOL    HW120732   3.999   4.648   3.116
 6724SOL    HW220733   3.851   4.635   3.087
 6725SOL     OW20734   4.055   3.975   3.670
 6725SOL    HW120735   4.101   4.057   3.686
 6725SOL    HW220736   3.966   3.990   3.703
 6726SOL     OW20737   5.178   5.152   2.815
 6726SOL    HW120738   5.110   5.161   2.881
 6726SOL    HW220739   5.164   5.065   2.777
 6727SOL     OW20740   0.047   0.162   2.428
 6727SOL    HW120741   0.086   0.122   2.351
 6727SOL    HW220742   0.037   0.090   2.490
 6728SOL     OW20743   4.320   4.446   2.127
 6728SOL    HW120744   4.327   4.527   2.076
 6728SOL    HW220745   4.255   4.467   2.194
 6729SOL     OW20746   4.997   4.060   2.783
 6729SOL    HW120747   4.909   4.030   2.804
 6729SOL    HW220748   5.052   4.026   2.853
 6730SOL     OW20749   4.516   4.341   3.314
 6730SOL    HW120750   4.489   4.318   3.403
 6730SOL    HW220751   4.474   4.275   3.259
 6731SOL     OW20752   5.115   4.202   3.542
 6731SOL    HW120753   5.115   4.241   3.629
 6731SOL    HW220754   5.190   4.142   3.542
 6732SOL     OW20755   4.680   4.613   3.443
 6732SOL    HW120756   4.733   4.541   3.408
 6732SOL    HW220757   4.632   4.646   3.367
 6733SOL     OW20758   4.715   4.138   3.101
 6733SOL    HW120759   4.630   4.159   3.140
 6733SOL    HW220760   4.693   4.090   3.021
 6734SOL     OW20761   4.774   4.422   2.288
 6734SOL    HW120762   4.789   4.416   2.382
 6734SOL    HW220763   4.692   4.375   2.273
 6735SOL     OW20764   3.812   4.544   2.638
 6735SOL    HW120765   3.894   4.537   2.688
 6735SOL    HW220766   3.769   4.622   2.673
 6736SOL     OW20767   4.614   4.070   2.056
 6736SOL    HW120768   4.655   4.131   1.995
 6736SOL    HW220769   4.631   3.984   2.019
 6737SOL     OW20770   5.091   4.866   2.406
 6737SOL    HW120771   5.180   4.864   2.371
 6737SOL    HW220772   5.044   4.928   2.350
 6738SOL     OW20773   4.273   3.907   2.754
 6738SOL    HW120774   4.276   3.935   2.846
 6738SOL    HW220775   4.275   3.989   2.705
 6739SOL     OW20776   4.747   5.170   2.331
 6739SOL    HW120777   4.669   5.224   2.319
 6739SOL    HW220778   4.759   5.165   2.426
 6740SOL     OW20779   4.941   5.259   3.412
 6740SOL    HW120780   4.916   5.178   3.456
 6740SOL    HW220781   4.903   5.252   3.324
 6741SOL     OW20782   4.045   4.679   2.111
 6741SOL    HW120783   4.127   4.699   2.066
 6741SOL    HW220784   4.015   4.598   2.070
 6742SOL     OW20785   4.188   4.987   3.602
 6742SOL    HW120786   4.161   4.989   3.510
 6742SOL    HW220787   4.106   4.986   3.651
 6743SOL     OW20788   4.791   0.176   2.073
 6743SOL    HW120789   4.803   0.118   2.148
 6743SOL    HW220790   4.869   0.160   2.019
 6744SOL     OW20791   3.924   4.006   3.362
 6744SOL    HW120792   3.842   4.056   3.357
 6744SOL    HW220793   3.908   3.941   3.430
 6745SOL     OW20794   5.122   3.832   2.287
 6745SOL    HW120795   5.102   3.813   2.195
 6745SOL    HW220796   5.217   3.846   2.288
 6746SOL     OW20797   4.115   4.419   2.340
 6746SOL    HW120798   4.138   4.327   2.350
 6746SOL    HW220799   4.021   4.424   2.357
 6747SOL     OW20800   4.356   3.848   1.969
 6747SOL    HW120801   4.429   3.787   1.979
 6747SOL    HW220802   4.309   3.815   1.892
 6748SOL     OW20803   4.491   4.002   3.615
 6748SOL    HW120804   4.565   3.941   3.619
 6748SOL    HW220805   4.441   3.983   3.695
 6749SOL     OW20806   5.058   4.315   3.294
 6749SOL    HW120807   5.092   4.282   3.378
 6749SOL    HW220808   5.100   4.401   3.284
 6750SOL     OW20809   4.534   5.121   2.796
 6750SOL    HW120810   4.615   5.107   2.747
 6750SOL    HW220811   4.467   5.127   2.728
 6751SOL     OW20812   4.651   4.233   2.766
 6751SOL    HW120813   4.628   4.224   2.673
 6751SOL    HW220814   4.684   4.147   2.790
 6752SOL     OW20815   4.272   3.787   2.366
 6752SOL    HW120816   4.191   3.788   2.417
 6752SOL    HW220817   4.267   3.865   2.311
 6753SOL     OW20818   5.139   4.904   1.905
 6753SOL    HW120819   5.150   4.827   1.960
 6753SOL    HW220820   5.050   4.934   1.922
 6754SOL     OW20821   4.016   3.771   2.046
 6754SOL    HW120822   4.075   3.836   2.007
 6754SOL    HW220823   4.075   3.707   2.087
 6755SOL     OW20824   4.660   3.969   2.324
 6755SOL    HW120825   4.632   4.010   2.242
 6755SOL    HW220826   4.755   3.980   2.326
 6756SOL     OW20827   4.801   4.404   3.323
 6756SOL    HW120828   4.733   4.337   3.326
 6756SOL    HW220829   4.883   4.355   3.313
 6757SOL     OW20830   4.984   5.267   2.636
 6757SOL    HW120831   4.952   0.054   2.611
 6757SOL    HW220832   5.036   5.282   2.715
 6758SOL     OW20833   4.189   4.871   2.595
 6758SOL    HW120834   4.119   4.851   2.658
 6758SOL    HW220835   4.150   4.853   2.510
 6759SOL     OW20836   4.749   4.270   1.882
 6759SOL    HW120837   4.705   4.352   1.861
 6759SOL    HW220838   4.810   4.292   1.953
 6760SOL     OW20839   3.801   4.279   3.254
 6760SOL    HW120840   3.893   4.277   3.226
 6760SOL    HW220841   3.797   4.349   3.319
 6761SOL     OW20842   4.284   3.951   3.026
 6761SOL    HW120843   4.325   3.873   3.065
 6761SOL    HW220844   4.193   3.948   3.056
 6762SOL     OW20845   4.593   4.183   2.501
 6762SOL    HW120846   4.546   4.238   2.438
 6762SOL    HW220847   4.613   4.103   2.454
 6763SOL     OW20848   4.739   3.777   2.615
 6763SOL    HW120849   4.680   3.769   2.539
 6763SOL    HW220850   4.717   3.701   2.669
 6764SOL     OW20851   5.153   4.901   2.713
 6764SOL    HW120852   5.101   4.821   2.722
 6764SOL    HW220853   5.170   4.907   2.619
 6765SOL     OW20854   4.207   5.143   2.020
 6765SOL    HW120855   4.142   5.092   2.069
 6765SOL    HW220856   4.202   5.108   1.931
 6766SOL     OW20857   5.126   4.287   1.940
 6766SOL    HW120858   5.055   4.277   2.003
 6766SOL    HW220859   5.202   4.249   1.984
 6767SOL     OW20860   4.250   3.987   2.182
 6767SOL    HW120861   4.292   3.938   2.111
 6767SOL    HW220862   4.229   4.072   2.144
 6768SOL     OW20863   4.787   5.074   3.193
 6768SOL    HW120864   4.710   5.050   3.243
 6768SOL    HW220865   4.860   5.035   3.241
 6769SOL     OW20866   4.846   4.922   2.971
 6769SOL    HW120867   4.796   4.965   3.040
 6769SOL    HW220868   4.805   4.951   2.889
 6770SOL     OW20869   4.642   3.823   3.260
 6770SOL    HW120870   4.664   3.804   3.169
 6770SOL    HW220871   4.721   3.861   3.296
 6771SOL     OW20872   4.706   4.834   3.590
 6771SOL    HW120873   4.614   4.852   3.606
 6771SOL    HW220874   4.706   4.760   3.530
 6772SOL     OW20875   4.428   4.781   2.234
 6772SOL    HW120876   4.417   4.767   2.328
 6772SOL    HW220877   4.506   4.731   2.212
 6773SOL     OW20878   4.141   4.538   3.113
 6773SOL    HW120879   4.210   4.547   3.179
 6773SOL    HW220880   4.106   4.450   3.128
 6774SOL     OW20881   4.990   4.100   3.137
 6774SOL    HW120882   5.024   4.179   3.179
 6774SOL    HW220883   4.901   4.124   3.111
 6775SOL     OW20884   4.074   4.831   2.352
 6775SOL    HW120885   4.078   4.904   2.291
 6775SOL    HW220886   4.074   4.753   2.297
 6776SOL     OW20887   4.278   4.262   2.722
 6776SOL    HW120888   4.294   4.320   2.648
 6776SOL    HW220889   4.342   4.289   2.788
 6777SOL     OW20890   4.984   5.076   2.250
 6777SOL    HW120891   5.037   5.150   2.278
 6777SOL    HW220892   4.895   5.097   2.277
 6778SOL     OW20893   4.979   5.180   2.995
 6778SOL    HW120894   5.035   5.201   3.070
 6778SOL    HW220895   4.940   5.095   3.018
 6779SOL     OW20896   4.072   5.236   3.178
 6779SOL    HW120897   4.061   5.201   3.090
 6779SOL    HW220898   4.165   5.257   3.184
 6780SOL     OW20899   4.137   4.469   3.464
 6780SOL    HW120900   4.198   4.514   3.406
 6780SOL    HW220901   4.178   4.383   3.479
 6781SOL     OW20902   4.718   3.845   3.618
 6781SOL    HW120903   4.773   3.918   3.588
 6781SOL    HW220904   4.767   3.767   3.593
 6782SOL     OW20905   4.222   3.767   3.609
 6782SOL    HW120906   4.181   3.712   3.542
 6782SOL    HW220907   4.162   3.840   3.621
 6783SOL     OW20908   4.307   4.596   2.893
 6783SOL    HW120909   4.337   4.687   2.890
 6783SOL    HW220910   4.250   4.592   2.970
 6784SOL     OW20911   5.086   4.582   2.898
 6784SOL    HW120912   5.009   4.566   2.844
 6784SOL    HW220913   5.134   4.499   2.897
 6785SOL     OW20914   4.930   4.255   2.129
 6785SOL    HW120915   4.937   4.175   2.181
 6785SOL    HW220916   4.887   4.318   2.186
 6786SOL     OW20917   4.024   3.923   3.108
 6786SOL    HW120918   3.987   3.956   3.190
 6786SOL    HW220919   4.004   3.830   3.109
 6787SOL     OW20920   3.774   5.045   3.146
 6787SOL    HW120921   3.801   4.983   3.213
 6787SOL    HW220922   3.810   5.129   3.175
 6788SOL     OW20923   4.449   4.355   2.921
 6788SOL    HW120924   4.523   4.338   2.863
 6788SOL    HW220925   4.421   4.444   2.899
 6789SOL     OW20926   4.026   3.789   2.485
 6789SOL    HW120927   4.008   3.880   2.509
 6789SOL    HW220928   4.033   3.743   2.568
 6790SOL     OW20929   0.035   4.115   2.223
 6790SOL    HW120930   0.057   4.042   2.281
 6790SOL    HW220931   0.013   4.187   2.282
 6791SOL     OW20932   4.751   4.483   2.823
 6791SOL    HW120933   4.751   4.501   2.917
 6791SOL    HW220934   4.725   4.391   2.816
 6792SOL     OW20935   4.077   4.640   3.670
 6792SOL    HW120936   4.159   4.659   3.715
 6792SOL    HW220937   4.101   4.578   3.602
 6793SOL     OW20938   5.027   4.553   1.899
 6793SOL    HW120939   5.064   4.465   1.900
 6793SOL    HW220940   5.053   4.589   1.814
 6794SOL     OW20941   4.782   5.076   2.692
 6794SOL    HW120942   4.788   4.992   2.647
 6794SOL    HW220943   4.867   5.118   2.677
 6795SOL     OW20944   4.034   4.534   2.810
 6795SOL    HW120945   4.127   4.555   2.804
 6795SOL    HW220946   4.032   4.444   2.844
 6796SOL     OW20947   4.056   4.248   2.874
 6796SOL    HW120948   4.021   4.161   2.858
 6796SOL    HW220949   4.133   4.254   2.816
 6797SOL     OW20950   4.857   4.101   3.542
 6797SOL    HW120951   4.810   4.156   3.605
 6797SOL    HW220952   4.944   4.140   3.536
 6798SOL     OW20953   4.885   3.928   3.330
 6798SOL    HW120954   4.874   3.989   3.403
 6798SOL    HW220955   4.923   3.980   3.260
 6799SOL     OW20956   3.730   5.043   2.053
 6799SOL    HW120957   3.640   5.059   2.025
 6799SOL    HW220958   3.728   4.954   2.090
 6800SOL     OW20959   4.709   4.517   3.090
 6800SOL    HW120960   4.764   4.493   3.165
 6800SOL    HW220961   4.623   4.480   3.109
 6801SOL     OW20962   3.760   4.267   2.979
 6801SOL    HW120963   3.840   4.252   2.929
 6801SOL    HW220964   3.788   4.273   3.070
 6802SOL     OW20965   3.915   4.242   3.588
 6802SOL    HW120966   3.973   4.206   3.521
 6802SOL    HW220967   3.870   4.315   3.545
 6803SOL     OW20968   5.110   4.664   3.528
 6803SOL    HW120969   5.119   4.759   3.517
 6803SOL    HW220970   5.112   4.629   3.439
 6804SOL     OW20971   4.540   4.293   2.219
 6804SOL    HW120972   4.542   4.218   2.159
 6804SOL    HW220973   4.465   4.345   2.188
 6805SOL     OW20974   3.930   5.278   3.606
 6805SOL    HW120975   3.920   0.031   3.685
 6805SOL    HW220976   3.943   5.189   3.639
 6806SOL     OW20977   4.420   4.176   3.123
 6806SOL    HW120978   4.370   4.101   3.092
 6806SOL    HW220979   4.419   4.239   3.051
 6807SOL     OW20980   4.190   4.217   2.051
 6807SOL    HW120981   4.248   4.290   2.071
 6807SOL    HW220982   4.104   4.256   2.038
 6808SOL     OW20983   3.870   4.863   3.332
 6808SOL    HW120984   3.874   4.811   3.412
 6808SOL    HW220985   3.888   4.800   3.262
 6809SOL     OW20986   5.052   4.771   3.089
 6809SOL    HW120987   5.077   4.710   3.020
 6809SOL    HW220988   4.981   4.822   3.052
 6810SOL     OW20989   5.032   4.583   2.178
 6810SOL    HW120990   4.950   4.550   2.214
 6810SOL    HW220991   5.022   4.575   2.083
 6811SOL     OW20992   3.816   4.986   2.883
 6811SOL    HW120993   3.795   5.002   2.975
 6811SOL    HW220994   3.736   4.947   2.847
 6812SOL     OW20995   4.469   0.038   3.573
 6812SOL    HW120996   4.377   0.063   3.579
 6812SOL    HW220997   4.497   0.065   3.486
 6813SOL     OW20998   0.085   3.882   2.390
 6813SOL    HW120999   0.170   3.871   2.348
 6813SOL    HW221000   0.072   3.800   2.439
 6814SOL     OW21001   5.015   4.643   2.535
 6814SOL    HW121002   5.092   4.588   2.522
 6814SOL    HW221003   5.033   4.722   2.485
 6815SOL     OW21004   4.545   4.993   3.287
 6815SOL    HW121005   4.517   5.030   3.371
 6815SOL    HW221006   4.469   5.006   3.230
 6816SOL     OW21007   3.987   4.041   2.580
 6816SOL    HW121008   3.902   4.077   2.555
 6816SOL    HW221009   3.983   4.032   2.675
 6817SOL     OW21010   4.548   4.729   3.232
 6817SOL    HW121011   4.594   4.723   3.148
 6817SOL    HW221012   4.552   4.821   3.256
 6818SOL     OW21013   4.640   4.635   2.152
 6818SOL    HW121014   4.702   4.668   2.087
 6818SOL    HW221015   4.687   4.564   2.196
 6819SOL     OW21016   4.090   5.025   3.358
 6819SOL    HW121017   4.079   5.100   3.299
 6819SOL    HW221018   4.014   4.969   3.340
 6820SOL     OW21019   4.775   4.832   2.572
 6820SOL    HW121020   4.704   4.781   2.610
 6820SOL    HW221021   4.832   4.766   2.532
 6821SOL     OW21022   4.740   3.963   2.830
 6821SOL    HW121023   4.737   3.916   2.747
 6821SOL    HW221024   4.736   3.895   2.897
 6822SOL     OW21025   3.981   5.055   2.143
 6822SOL    HW121026   3.889   5.057   2.117
 6822SOL    HW221027   3.983   5.096   2.230
 6823SOL     OW21028   3.836   4.743   3.580
 6823SOL    HW121029   3.760   4.721   3.634
 6823SOL    HW221030   3.911   4.707   3.628
 6824SOL     OW21031   4.397   3.920   3.361
 6824SOL    HW121032   4.481   3.901   3.319
 6824SOL    HW221033   4.421   3.951   3.449
 6825SOL     OW21034   3.801   4.060   1.898
 6825SOL    HW121035   3.714   4.039   1.864
 6825SOL    HW221036   3.831   4.134   1.845
 6826SOL     OW21037   5.163   4.583   3.266
 6826SOL    HW121038   5.110   4.640   3.209
 6826SOL    HW221039   5.252   4.592   3.232
 6827SOL     OW21040   3.793   3.881   2.174
 6827SOL    HW121041   3.779   3.961   2.123
 6827SOL    HW221042   3.878   3.849   2.144
 6828SOL     OW21043   4.910   5.060   1.983
 6828SOL    HW121044   4.816   5.041   1.980
 6828SOL    HW221045   4.933   5.055   2.076
 6829SOL     OW21046   4.342   4.555   3.295
 6829SOL    HW121047   4.398   4.631   3.279
 6829SOL    HW221048   4.403   4.482   3.303
 6830SOL     OW21049   4.441   4.288   3.567
 6830SOL    HW121050   4.479   4.351   3.628
 6830SOL    HW221051   4.473   4.203   3.597
 6831SOL     OW21052   5.184   4.929   3.495
 6831SOL    HW121053   5.174   4.940   3.589
 6831SOL    HW221054   5.279   4.933   3.480
 6832SOL     OW21055   4.941   4.044   2.318
 6832SOL    HW121056   5.004   3.973   2.305
 6832SOL    HW221057   4.971   4.088   2.398
 6833SOL     OW21058   4.315   4.463   2.530
 6833SOL    HW121059   4.354   4.549   2.515
 6833SOL    HW221060   4.246   4.456   2.464
 6834SOL     OW21061   4.580   5.095   1.881
 6834SOL    HW121062   4.555   5.099   1.973
 6834SOL    HW221063   4.594   5.187   1.856
 6835SOL     OW21064   4.591   4.690   2.718
 6835SOL    HW121065   4.641   4.619   2.759
 6835SOL    HW221066   4.557   4.741   2.792
 6836SOL     OW21067   4.807   4.712   1.953
 6836SOL    HW121068   4.781   4.760   1.875
 6836SOL    HW221069   4.882   4.659   1.925
 6837SOL     OW21070   3.948   5.026   3.715
 6837SOL    HW121071   3.879   4.964   3.690
 6837SOL    HW221072   3.936   5.038   3.809
 6838SOL     OW21073   3.809   4.957   2.532
 6838SOL    HW121074   3.808   4.903   2.611
 6838SOL    HW221075   3.873   4.915   2.475
 6839SOL     OW21076   4.392   5.108   3.470
 6839SOL    HW121077   4.318   5.074   3.519
 6839SOL    HW221078   4.422   5.183   3.522
 6840SOL     OW21079   4.154   4.158   2.387
 6840SOL    HW121080   4.183   4.086   2.330
 6840SOL    HW221081   4.106   4.114   2.458
 6841SOL     OW21082   0.122   5.228   2.914
 6841SOL    HW121083   0.037   5.204   2.876
 6841SOL    HW221084   0.108   5.228   3.008
 6842SOL     OW21085   4.052   4.277   3.153
 6842SOL    HW121086   4.108   4.223   3.208
 6842SOL    HW221087   4.073   4.250   3.064
 6843SOL     OW21088   5.148   3.942   2.977
 6843SOL    HW121089   5.194   3.877   3.030
 6843SOL    HW221090   5.102   3.997   3.040
 6844SOL     OW21091   4.730   3.744   3.006
 6844SOL    HW121092   4.677   3.675   2.967
 6844SOL    HW221093   4.818   3.707   3.010
 6845SOL     OW21094   4.525   5.047   2.146
 6845SOL    HW121095   4.461   4.977   2.165
 6845SOL    HW221096   4.579   5.051   2.225
 6846SOL     OW21097   4.346   5.299   3.151
 6846SOL    HW121098   4.353   0.054   3.228
 6846SOL    HW221099   4.436   5.280   3.126
 6847SOL     OW21100   5.060   3.770   2.030
 6847SOL    HW121101   5.086   3.730   1.947
 6847SOL    HW221102   4.975   3.731   2.050
 6848SOL     OW21103   5.029   4.182   2.546
 6848SOL    HW121104   4.973   4.260   2.550
 6848SOL    HW221105   5.018   4.141   2.632
 6849SOL     OW21106   0.002   3.947   2.740
 6849SOL    HW121107   5.235   3.938   2.808
 6849SOL    HW221108   5.280   4.029   2.695
 6850SOL     OW21109   3.766   4.796   2.168
 6850SOL    HW121110   3.860   4.789   2.151
 6850SOL    HW221111   3.739   4.707   2.191
 6851SOL     OW21112   3.954   4.347   3.846
 6851SOL    HW121113   3.865   4.347   3.879
 6851SOL    HW221114   3.946   4.321   3.754
 6852SOL     OW21115   3.948   4.004   4.715
 6852SOL    HW121116   3.977   3.971   4.800
 6852SOL    HW221117   3.859   3.972   4.706
 6853SOL     OW21118   3.729   4.106   4.363
 6853SOL    HW121119   3.646   4.130   4.403
 6853SOL    HW221120   3.710   4.026   4.313
 6854SOL     OW21121   4.290   5.003   4.900
 6854SOL    HW121122   4.204   5.003   4.857
 6854SOL    HW221123   4.302   5.094   4.929
 6855SOL     OW21124   5.276   5.232   4.418
 6855SOL    HW121125   5.261   5.216   4.511
 6855SOL    HW221126   5.189   5.232   4.380
 6856SOL     OW21127   4.857   4.423   4.426
 6856SOL    HW121128   4.907   4.504   4.415
 6856SOL    HW221129   4.809   4.436   4.507
 6857SOL     OW21130   4.482   4.869   4.761
 6857SOL    HW121131   4.413   4.900   4.820
 6857SOL    HW221132   4.511   4.948   4.715
 6858SOL     OW21133   4.589   4.502   5.546
 6858SOL    HW121134   4.573   4.574   5.607
 6858SOL    HW221135   4.612   4.545   5.463
 6859SOL     OW21136   4.410   4.729   4.373
 6859SOL    HW121137   4.474   4.716   4.443
 6859SOL    HW221138   4.341   4.781   4.413
 6860SOL     OW21139   4.432   4.874   5.534
 6860SOL    HW121140   4.480   4.954   5.558
 6860SOL    HW221141   4.348   4.906   5.501
 6861SOL     OW21142   4.061   5.154   4.785
 6861SOL    HW121143   3.985   5.111   4.747
 6861SOL    HW221144   4.103   5.198   4.711
 6862SOL     OW21145   5.134   5.236   5.065
 6862SOL    HW121146   5.155   0.007   5.126
 6862SOL    HW221147   5.112   5.162   5.122
 6863SOL     OW21148   4.171   4.123   5.214
 6863SOL    HW121149   4.247   4.064   5.218
 6863SOL    HW221150   4.096   4.065   5.225
 6864SOL     OW21151   4.863   5.054   5.422
 6864SOL    HW121152   4.888   5.066   5.514
 6864SOL    HW221153   4.803   4.980   5.423
 6865SOL     OW21154   3.935   5.154   4.244
 6865SOL    HW121155   3.958   5.238   4.283
 6865SOL    HW221156   3.881   5.111   4.311
 6866SOL     OW21157   3.979   4.812   4.615
 6866SOL    HW121158   3.978   4.725   4.655
 6866SOL    HW221159   3.922   4.865   4.670
 6867SOL     OW21160   4.312   4.704   3.856
 6867SOL    HW121161   4.356   4.755   3.789
 6867SOL    HW221162   4.351   4.734   3.938
 6868SOL     OW21163   3.838   4.375   4.283
 6868SOL    HW121164   3.809   4.287   4.304
 6868SOL    HW221165   3.830   4.424   4.366
 6869SOL     OW21166   3.710   0.014   3.824
 6869SOL    HW121167   3.728   5.225   3.853
 6869SOL    HW221168   3.733   0.069   3.899
 6870SOL     OW21169   0.112   4.660   4.294
 6870SOL    HW121170   0.199   4.628   4.319
 6870SOL    HW221171   0.128   4.747   4.257
 6871SOL     OW21172   3.846   4.466   5.311
 6871SOL    HW121173   3.939   4.489   5.322
 6871SOL    HW221174   3.800   4.549   5.318
 6872SOL     OW21175   4.345   5.097   4.459
 6872SOL    HW121176   4.291   5.018   4.459
 6872SOL    HW221177   4.326   5.139   4.375
 6873SOL     OW21178   5.019   4.968   5.146
 6873SOL    HW121179   5.048   4.897   5.089
 6873SOL    HW221180   5.066   4.955   5.227
 6874SOL     OW21181   4.537   3.723   4.231
 6874SOL    HW121182   4.578   3.808   4.213
 6874SOL    HW221183   4.444   3.743   4.241
 6875SOL     OW21184   3.915   4.692   4.993
 6875SOL    HW121185   3.999   4.648   4.978
 6875SOL    HW221186   3.851   4.635   4.949
 6876SOL     OW21187   4.054   3.975   5.531
 6876SOL    HW121188   4.101   4.056   5.548
 6876SOL    HW221189   3.966   3.990   5.565
 6877SOL     OW21190   5.178   5.152   4.677
 6877SOL    HW121191   5.110   5.161   4.743
 6877SOL    HW221192   5.164   5.065   4.640
 6878SOL     OW21193   0.047   0.162   4.290
 6878SOL    HW121194   0.086   0.121   4.213
 6878SOL    HW221195   0.037   0.090   4.352
 6879SOL     OW21196   4.320   4.446   3.989
 6879SOL    HW121197   4.327   4.527   3.938
 6879SOL    HW221198   4.255   4.467   4.056
 6880SOL     OW21199   4.997   4.061   4.645
 6880SOL    HW121200   4.909   4.030   4.666
 6880SOL    HW221201   5.052   4.026   4.715
 6881SOL     OW21202   4.516   4.341   5.176
 6881SOL    HW121203   4.489   4.318   5.265
 6881SOL    HW221204   4.474   4.275   5.121
 6882SOL     OW21205   5.115   4.202   5.404
 6882SOL    HW121206   5.115   4.241   5.491
 6882SOL    HW221207   5.190   4.143   5.404
 6883SOL     OW21208   4.680   4.613   5.305
 6883SOL    HW121209   4.733   4.541   5.270
 6883SOL    HW221210   4.632   4.646   5.229
 6884SOL     OW21211   4.715   4.138   4.963
 6884SOL    HW121212   4.630   4.159   5.002
 6884SOL    HW221213   4.693   4.090   4.883
 6885SOL     OW21214   4.774   4.422   4.150
 6885SOL    HW121215   4.789   4.416   4.244
 6885SOL    HW221216   4.692   4.375   4.135
 6886SOL     OW21217   3.812   4.544   4.500
 6886SOL    HW121218   3.894   4.537   4.550
 6886SOL    HW221219   3.769   4.622   4.535
 6887SOL     OW21220   4.614   4.070   3.918
 6887SOL    HW121221   4.655   4.131   3.857
 6887SOL    HW221222   4.630   3.984   3.881
 6888SOL     OW21223   5.091   4.866   4.268
 6888SOL    HW121224   5.180   4.864   4.233
 6888SOL    HW221225   5.044   4.928   4.212
 6889SOL     OW21226   4.273   3.907   4.616
 6889SOL    HW121227   4.276   3.935   4.708
 6889SOL    HW221228   4.275   3.989   4.566
 6890SOL     OW21229   4.747   5.170   4.193
 6890SOL    HW121230   4.669   5.224   4.182
 6890SOL    HW221231   4.759   5.165   4.288
 6891SOL     OW21232   4.941   5.259   5.274
 6891SOL    HW121233   4.916   5.178   5.317
 6891SOL    HW221234   4.903   5.252   5.186
 6892SOL     OW21235   4.045   4.679   3.973
 6892SOL    HW121236   4.127   4.699   3.928
 6892SOL    HW221237   4.015   4.598   3.932
 6893SOL     OW21238   4.188   4.987   5.464
 6893SOL    HW121239   4.161   4.989   5.372
 6893SOL    HW221240   4.106   4.986   5.513
 6894SOL     OW21241   4.791   0.176   3.934
 6894SOL    HW121242   4.802   0.119   4.010
 6894SOL    HW221243   4.869   0.160   3.881
 6895SOL     OW21244   3.924   4.006   5.223
 6895SOL    HW121245   3.843   4.057   5.219
 6895SOL    HW221246   3.908   3.943   5.294
 6896SOL     OW21247   5.122   3.832   4.148
 6896SOL    HW121248   5.102   3.813   4.057
 6896SOL    HW221249   5.217   3.846   4.150
 6897SOL     OW21250   4.115   4.419   4.202
 6897SOL    HW121251   4.138   4.327   4.212
 6897SOL    HW221252   4.021   4.424   4.219
 6898SOL     OW21253   4.356   3.848   3.830
 6898SOL    HW121254   4.429   3.787   3.841
 6898SOL    HW221255   4.309   3.815   3.754
 6899SOL     OW21256   4.491   4.001   5.477
 6899SOL    HW121257   4.565   3.941   5.481
 6899SOL    HW221258   4.442   3.984   5.557
 6900SOL     OW21259   5.058   4.315   5.156
 6900SOL    HW121260   5.092   4.282   5.240
 6900SOL    HW221261   5.100   4.401   5.145
 6901SOL     OW21262   4.534   5.121   4.658
 6901SOL    HW121263   4.616   5.107   4.609
 6901SOL    HW221264   4.467   5.127   4.590
 6902SOL     OW21265   4.651   4.233   4.627
 6902SOL    HW121266   4.628   4.224   4.535
 6902SOL    HW221267   4.684   4.147   4.652
 6903SOL     OW21268   4.272   3.787   4.228
 6903SOL    HW121269   4.191   3.788   4.279
 6903SOL    HW221270   4.267   3.865   4.173
 6904SOL     OW21271   5.139   4.904   3.766
 6904SOL    HW121272   5.150   4.827   3.822
 6904SOL    HW221273   5.050   4.934   3.784
 6905SOL     OW21274   4.016   3.771   3.908
 6905SOL    HW121275   4.075   3.836   3.869
 6905SOL    HW221276   4.075   3.707   3.949
 6906SOL     OW21277   4.660   3.969   4.186
 6906SOL    HW121278   4.632   4.010   4.104
 6906SOL    HW221279   4.755   3.980   4.187
 6907SOL     OW21280   4.801   4.404   5.185
 6907SOL    HW121281   4.733   4.337   5.188
 6907SOL    HW221282   4.883   4.355   5.175
 6908SOL     OW21283   4.984   5.267   4.498
 6908SOL    HW121284   4.952   0.053   4.473
 6908SOL    HW221285   5.036   5.282   4.577
 6909SOL     OW21286   4.189   4.871   4.457
 6909SOL    HW121287   4.119   4.851   4.520
 6909SOL    HW221288   4.150   4.853   4.372
 6910SOL     OW21289   4.749   4.270   3.744
 6910SOL    HW121290   4.705   4.352   3.723
 6910SOL    HW221291   4.810   4.292   3.815
 6911SOL     OW21292   3.801   4.279   5.116
 6911SOL    HW121293   3.893   4.277   5.088
 6911SOL    HW221294   3.797   4.349   5.181
 6912SOL     OW21295   4.284   3.951   4.888
 6912SOL    HW121296   4.325   3.873   4.927
 6912SOL    HW221297   4.193   3.948   4.918
 6913SOL     OW21298   4.593   4.183   4.363
 6913SOL    HW121299   4.546   4.238   4.300
 6913SOL    HW221300   4.613   4.103   4.316
 6914SOL     OW21301   4.738   3.777   4.477
 6914SOL    HW121302   4.680   3.769   4.401
 6914SOL    HW221303   4.717   3.701   4.531
 6915SOL     OW21304   5.153   4.901   4.574
 6915SOL    HW121305   5.101   4.821   4.584
 6915SOL    HW221306   5.170   4.907   4.481
 6916SOL     OW21307   4.207   5.142   3.882
 6916SOL    HW121308   4.142   5.092   3.931
 6916SOL    HW221309   4.202   5.109   3.793
 6917SOL     OW21310   5.126   4.287   3.802
 6917SOL    HW121311   5.055   4.277   3.865
 6917SOL    HW221312   5.202   4.249   3.846
 6918SOL     OW21313   4.250   3.987   4.044
 6918SOL    HW121314   4.292   3.938   3.973
 6918SOL    HW221315   4.230   4.072   4.006
 6919SOL     OW21316   4.787   5.074   5.055
 6919SOL    HW121317   4.710   5.050   5.105
 6919SOL    HW221318   4.860   5.035   5.103
 6920SOL     OW21319   4.846   4.922   4.833
 6920SOL    HW121320   4.796   4.965   4.902
 6920SOL    HW221321   4.805   4.951   4.751
 6921SOL     OW21322   4.642   3.823   5.122
 6921SOL    HW121323   4.664   3.804   5.031
 6921SOL    HW221324   4.721   3.861   5.158
 6922SOL     OW21325   4.706   4.834   5.452
 6922SOL    HW121326   4.614   4.852   5.468
 6922SOL    HW221327   4.706   4.760   5.392
 6923SOL     OW21328   4.428   4.781   4.096
 6923SOL    HW121329   4.417   4.767   4.190
 6923SOL    HW221330   4.506   4.731   4.074
 6924SOL     OW21331   4.141   4.538   4.975
 6924SOL    HW121332   4.210   4.547   5.041
 6924SOL    HW221333   4.106   4.450   4.990
 6925SOL     OW21334   4.990   4.100   4.999
 6925SOL    HW121335   5.024   4.179   5.041
 6925SOL    HW221336   4.901   4.124   4.973
 6926SOL     OW21337   4.074   4.831   4.214
 6926SOL    HW121338   4.078   4.904   4.153
 6926SOL    HW221339   4.074   4.753   4.159
 6927SOL     OW21340   4.278   4.262   4.584
 6927SOL    HW121341   4.294   4.320   4.510
 6927SOL    HW221342   4.342   4.289   4.650
 6928SOL     OW21343   4.984   5.076   4.112
 6928SOL    HW121344   5.037   5.151   4.140
 6928SOL    HW221345   4.895   5.097   4.139
 6929SOL     OW21346   4.979   5.180   4.857
 6929SOL    HW121347   5.035   5.201   4.932
 6929SOL    HW221348   4.940   5.095   4.880
 6930SOL     OW21349   4.072   5.235   5.040
 6930SOL    HW121350   4.061   5.201   4.952
 6930SOL    HW221351   4.165   5.257   5.046
 6931SOL     OW21352   4.137   4.468   5.326
 6931SOL    HW121353   4.198   4.514   5.268
 6931SOL    HW221354   4.178   4.383   5.341
 6932SOL     OW21355   4.718   3.845   5.480
 6932SOL    HW121356   4.773   3.918   5.450
 6932SOL    HW221357   4.767   3.767   5.455
 6933SOL     OW21358   4.222   3.766   5.471
 6933SOL    HW121359   4.181   3.712   5.404
 6933SOL    HW221360   4.162   3.840   5.483
 6934SOL     OW21361   4.307   4.596   4.755
 6934SOL    HW121362   4.337   4.687   4.752
 6934SOL    HW221363   4.250   4.592   4.832
 6935SOL     OW21364   5.086   4.582   4.760
 6935SOL    HW121365   5.009   4.566   4.706
 6935SOL    HW221366   5.134   4.499   4.759
 6936SOL     OW21367   4.930   4.255   3.991
 6936SOL    HW121368   4.937   4.175   4.043
 6936SOL    HW221369   4.887   4.318   4.048
 6937SOL     OW21370   4.024   3.923   4.970
 6937SOL    HW121371   3.987   3.956   5.052
 6937SOL    HW221372   4.004   3.830   4.971
 6938SOL     OW21373   3.774   5.045   5.008
 6938SOL    HW121374   3.801   4.983   5.075
 6938SOL    HW221375   3.810   5.129   5.037
 6939SOL     OW21376   4.449   4.355   4.783
 6939SOL    HW121377   4.523   4.338   4.725
 6939SOL    HW221378   4.421   4.444   4.761
 6940SOL     OW21379   4.026   3.789   4.347
 6940SOL    HW121380   4.008   3.880   4.371
 6940SOL    HW221381   4.033   3.743   4.431
 6941SOL     OW21382   0.036   4.115   4.085
 6941SOL    HW121383   0.057   4.042   4.143
 6941SOL    HW221384   0.013   4.187   4.144
 6942SOL     OW21385   4.751   4.483   4.685
 6942SOL    HW121386   4.751   4.501   4.779
 6942SOL    HW221387   4.725   4.391   4.678
 6943SOL     OW21388   4.077   4.640   5.532
 6943SOL    HW121389   4.159   4.659   5.577
 6943SOL    HW221390   4.101   4.578   5.464
 6944SOL     OW21391   5.027   4.553   3.761
 6944SOL    HW121392   5.064   4.465   3.762
 6944SOL    HW221393   5.053   4.589   3.676
 6945SOL     OW21394   4.782   5.076   4.554
 6945SOL    HW121395   4.788   4.992   4.509
 6945SOL    HW221396   4.867   5.118   4.539
 6946SOL     OW21397   4.034   4.534   4.672
 6946SOL    HW121398   4.127   4.555   4.666
 6946SOL    HW221399   4.032   4.444   4.706
 6947SOL     OW21400   4.056   4.248   4.736
 6947SOL    HW121401   4.021   4.161   4.720
 6947SOL    HW221402   4.133   4.254   4.678
 6948SOL     OW21403   4.857   4.101   5.404
 6948SOL    HW121404   4.810   4.156   5.467
 6948SOL    HW221405   4.944   4.139   5.398
 6949SOL     OW21406   4.885   3.928   5.192
 6949SOL    HW121407   4.874   3.989   5.265
 6949SOL    HW221408   4.923   3.980   5.122
 6950SOL     OW21409   3.730   5.043   3.915
 6950SOL    HW121410   3.640   5.059   3.887
 6950SOL    HW221411   3.728   4.954   3.952
 6951SOL     OW21412   4.709   4.517   4.952
 6951SOL    HW121413   4.764   4.493   5.026
 6951SOL    HW221414   4.623   4.480   4.972
 6952SOL     OW21415   3.760   4.267   4.841
 6952SOL    HW121416   3.840   4.252   4.791
 6952SOL    HW221417   3.788   4.273   4.932
 6953SOL     OW21418   3.915   4.242   5.450
 6953SOL    HW121419   3.973   4.207   5.383
 6953SOL    HW221420   3.870   4.315   5.407
 6954SOL     OW21421   5.110   4.664   5.390
 6954SOL    HW121422   5.119   4.759   5.379
 6954SOL    HW221423   5.112   4.629   5.301
 6955SOL     OW21424   4.540   4.293   4.081
 6955SOL    HW121425   4.542   4.218   4.022
 6955SOL    HW221426   4.465   4.345   4.050
 6956SOL     OW21427   3.930   5.278   5.468
 6956SOL    HW121428   3.920   0.031   5.547
 6956SOL    HW221429   3.943   5.189   5.501
 6957SOL     OW21430   4.420   4.176   4.985
 6957SOL    HW121431   4.370   4.101   4.953
 6957SOL    HW221432   4.419   4.239   4.913
 6958SOL     OW21433   4.190   4.217   3.913
 6958SOL    HW121434   4.248   4.291   3.933
 6958SOL    HW221435   4.104   4.256   3.900
 6959SOL     OW21436   3.870   4.863   5.194
 6959SOL    HW121437   3.874   4.811   5.274
 6959SOL    HW221438   3.888   4.800   5.124
 6960SOL     OW21439   5.052   4.771   4.951
 6960SOL    HW121440   5.077   4.710   4.882
 6960SOL    HW221441   4.981   4.822   4.914
 6961SOL     OW21442   5.032   4.583   4.040
 6961SOL    HW121443   4.950   4.550   4.076
 6961SOL    HW221444   5.022   4.574   3.945
 6962SOL     OW21445   3.816   4.986   4.745
 6962SOL    HW121446   3.795   5.002   4.837
 6962SOL    HW221447   3.736   4.947   4.709
 6963SOL     OW21448   4.469   0.038   5.435
 6963SOL    HW121449   4.377   0.063   5.441
 6963SOL    HW221450   4.497   0.065   5.348
 6964SOL     OW21451   0.085   3.882   4.252
 6964SOL    HW121452   0.170   3.871   4.210
 6964SOL    HW221453   0.072   3.800   4.301
 6965SOL     OW21454   5.015   4.643   4.397
 6965SOL    HW121455   5.092   4.588   4.384
 6965SOL    HW221456   5.033   4.722   4.347
 6966SOL     OW21457   4.545   4.993   5.149
 6966SOL    HW121458   4.517   5.030   5.233
 6966SOL    HW221459   4.469   5.006   5.092
 6967SOL     OW21460   3.987   4.041   4.442
 6967SOL    HW121461   3.902   4.077   4.417
 6967SOL    HW221462   3.983   4.032   4.537
 6968SOL     OW21463   4.548   4.729   5.094
 6968SOL    HW121464   4.594   4.723   5.010
 6968SOL    HW221465   4.552   4.821   5.118
 6969SOL     OW21466   4.640   4.635   4.014
 6969SOL    HW121467   4.702   4.668   3.949
 6969SOL    HW221468   4.687   4.564   4.058
 6970SOL     OW21469   4.090   5.025   5.220
 6970SOL    HW121470   4.079   5.100   5.161
 6970SOL    HW221471   4.014   4.969   5.202
 6971SOL     OW21472   4.775   4.832   4.434
 6971SOL    HW121473   4.704   4.781   4.472
 6971SOL    HW221474   4.832   4.766   4.394
 6972SOL     OW21475   4.740   3.963   4.692
 6972SOL    HW121476   4.737   3.916   4.609
 6972SOL    HW221477   4.736   3.895   4.759
 6973SOL     OW21478   3.981   5.055   4.005
 6973SOL    HW121479   3.889   5.057   3.979
 6973SOL    HW221480   3.983   5.096   4.092
 6974SOL     OW21481   3.836   4.743   5.442
 6974SOL    HW121482   3.760   4.721   5.496
 6974SOL    HW221483   3.911   4.707   5.490
 6975SOL     OW21484   4.397   3.920   5.223
 6975SOL    HW121485   4.481   3.901   5.181
 6975SOL    HW221486   4.421   3.950   5.311
 6976SOL     OW21487   3.801   4.060   3.760
 6976SOL    HW121488   3.714   4.039   3.725
 6976SOL    HW221489   3.831   4.134   3.707
 6977SOL     OW21490   5.163   4.583   5.128
 6977SOL    HW121491   5.110   4.640   5.071
 6977SOL    HW221492   5.252   4.592   5.094
 6978SOL     OW21493   3.794   3.882   4.036
 6978SOL    HW121494   3.779   3.961   3.985
 6978SOL    HW221495   3.879   3.849   4.006
 6979SOL     OW21496   4.910   5.060   3.845
 6979SOL    HW121497   4.816   5.041   3.842
 6979SOL    HW221498   4.933   5.055   3.938
 6980SOL     OW21499   4.342   4.555   5.157
 6980SOL    HW121500   4.398   4.631   5.141
 6980SOL    HW221501   4.403   4.482   5.165
 6981SOL     OW21502   4.441   4.288   5.429
 6981SOL    HW121503   4.479   4.351   5.490
 6981SOL    HW221504   4.473   4.203   5.460
 6982SOL     OW21505   5.184   4.929   5.357
 6982SOL    HW121506   5.174   4.940   5.451
 6982SOL    HW221507   5.279   4.933   5.342
 6983SOL     OW21508   4.941   4.044   4.180
 6983SOL    HW121509   5.004   3.973   4.167
 6983SOL    HW221510   4.971   4.088   4.260
 6984SOL     OW21511   4.315   4.463   4.392
 6984SOL    HW121512   4.354   4.549   4.377
 6984SOL    HW221513   4.246   4.456   4.326
 6985SOL     OW21514   4.580   5.095   3.743
 6985SOL    HW121515   4.555   5.099   3.835
 6985SOL    HW221516   4.594   5.187   3.718
 6986SOL     OW21517   4.591   4.690   4.580
 6986SOL    HW121518   4.641   4.619   4.621
 6986SOL    HW221519   4.557   4.741   4.654
 6987SOL     OW21520   4.808   4.712   3.815
 6987SOL    HW121521   4.781   4.760   3.737
 6987SOL    HW221522   4.882   4.659   3.787
 6988SOL     OW21523   3.948   5.026   5.577
 6988SOL    HW121524   3.878   4.964   5.552
 6988SOL    HW221525   3.936   5.038   5.671
 6989SOL     OW21526   3.809   4.957   4.394
 6989SOL    HW121527   3.808   4.903   4.473
 6989SOL    HW221528   3.873   4.915   4.336
 6990SOL     OW21529   4.393   5.108   5.333
 6990SOL    HW121530   4.318   5.074   5.381
 6990SOL    HW221531   4.422   5.183   5.384
 6991SOL     OW21532   4.154   4.158   4.249
 6991SOL    HW121533   4.183   4.086   4.192
 6991SOL    HW221534   4.106   4.114   4.320
 6992SOL     OW21535   0.122   5.228   4.776
 6992SOL    HW121536   0.037   5.204   4.738
 6992SOL    HW221537   0.108   5.228   4.870
 6993SOL     OW21538   4.052   4.277   5.015
 6993SOL    HW121539   4.108   4.223   5.070
 6993SOL    HW221540   4.073   4.250   4.926
 6994SOL     OW21541   5.148   3.942   4.839
 6994SOL    HW121542   5.194   3.877   4.892
 6994SOL    HW221543   5.102   3.997   4.903
 6995SOL     OW21544   4.730   3.744   4.868
 6995SOL    HW121545   4.677   3.675   4.828
 6995SOL    HW221546   4.818   3.707   4.872
 6996SOL     OW21547   4.525   5.047   4.008
 6996SOL    HW121548   4.461   4.977   4.027
 6996SOL    HW221549   4.579   5.051   4.087
 6997SOL     OW21550   4.346   5.299   5.013
 6997SOL    HW121551   4.353   0.054   5.090
 6997SOL    HW221552   4.436   5.280   4.988
 6998SOL     OW21553   5.060   3.770   3.892
 6998SOL    HW121554   5.086   3.730   3.809
 6998SOL    HW221555   4.975   3.731   3.912
 6999SOL     OW21556   5.029   4.182   4.408
 6999SOL    HW121557   4.973   4.260   4.412
 6999SOL    HW221558   5.018   4.141   4.494
 7000SOL     OW21559   0.002   3.947   4.602
 7000SOL    HW121560   5.235   3.938   4.670
 7000SOL    HW221561   5.280   4.029   4.558
 7001SOL     OW21562   3.766   4.796   4.030
 7001SOL    HW121563   3.860   4.789   4.013
 7001SOL    HW221564   3.739   4.707   4.053
 7002SOL     OW21565   3.954   4.347   5.708
 7002SOL    HW121566   3.865   4.347   5.741
 7002SOL    HW221567   3.945   4.321   5.616
 7003SOL     OW21568   3.948   4.004   6.577
 7003SOL    HW121569   3.977   3.971   6.662
 7003SOL    HW221570   3.859   3.972   6.568
 7004SOL     OW21571   3.729   4.106   6.224
 7004SOL    HW121572   3.646   4.131   6.265
 7004SOL    HW221573   3.709   4.026   6.175
 7005SOL     OW21574   4.290   5.003   6.763
 7005SOL    HW121575   4.204   5.002   6.719
 7005SOL    HW221576   4.301   5.094   6.791
 7006SOL     OW21577   5.276   5.232   6.280
 7006SOL    HW121578   5.261   5.215   6.373
 7006SOL    HW221579   5.189   5.232   6.242
 7007SOL     OW21580   4.857   4.423   6.288
 7007SOL    HW121581   4.907   4.504   6.277
 7007SOL    HW221582   4.809   4.436   6.369
 7008SOL     OW21583   4.482   4.869   6.623
 7008SOL    HW121584   4.413   4.900   6.682
 7008SOL    HW221585   4.511   4.948   6.577
 7009SOL     OW21586   4.590   4.504   7.407
 7009SOL    HW121587   4.568   4.579   7.463
 7009SOL    HW221588   4.613   4.543   7.323
 7010SOL     OW21589   4.410   4.729   6.235
 7010SOL    HW121590   4.474   4.716   6.305
 7010SOL    HW221591   4.341   4.781   6.275
 7011SOL     OW21592   4.432   4.875   7.396
 7011SOL    HW121593   4.480   4.954   7.419
 7011SOL    HW221594   4.349   4.907   7.362
 7012SOL     OW21595   4.061   5.155   6.647
 7012SOL    HW121596   3.985   5.111   6.609
 7012SOL    HW221597   4.103   5.198   6.573
 7013SOL     OW21598   5.134   5.236   6.927
 7013SOL    HW121599   5.155   0.007   6.987
 7013SOL    HW221600   5.112   5.162   6.984
 7014SOL     OW21601   4.172   4.123   7.077
 7014SOL    HW121602   4.247   4.064   7.080
 7014SOL    HW221603   4.096   4.066   7.087
 7015SOL     OW21604   4.863   5.053   7.283
 7015SOL    HW121605   4.889   5.065   7.374
 7015SOL    HW221606   4.802   4.979   7.284
 7016SOL     OW21607   3.935   5.154   6.106
 7016SOL    HW121608   3.958   5.238   6.145
 7016SOL    HW221609   3.881   5.111   6.173
 7017SOL     OW21610   3.980   4.812   6.477
 7017SOL    HW121611   3.977   4.725   6.517
 7017SOL    HW221612   3.922   4.865   6.532
 7018SOL     OW21613   4.312   4.704   5.718
 7018SOL    HW121614   4.356   4.756   5.651
 7018SOL    HW221615   4.351   4.734   5.800
 7019SOL     OW21616   3.839   4.375   6.145
 7019SOL    HW121617   3.809   4.287   6.166
 7019SOL    HW221618   3.830   4.424   6.228
 7020SOL     OW21619   3.710   0.014   5.686
 7020SOL    HW121620   3.728   5.225   5.715
 7020SOL    HW221621   3.733   0.069   5.761
 7021SOL     OW21622   0.112   4.660   6.156
 7021SOL    HW121623   0.199   4.628   6.181
 7021SOL    HW221624   0.128   4.747   6.119
 7022SOL     OW21625   3.846   4.466   7.173
 7022SOL    HW121626   3.938   4.489   7.184
 7022SOL    HW221627   3.799   4.549   7.180
 7023SOL     OW21628   4.345   5.097   6.321
 7023SOL    HW121629   4.291   5.018   6.321
 7023SOL    HW221630   4.326   5.139   6.237
 7024SOL     OW21631   5.018   4.968   7.007
 7024SOL    HW121632   5.048   4.897   6.950
 7024SOL    HW221633   5.066   4.955   7.089
 7025SOL     OW21634   4.537   3.723   6.093
 7025SOL    HW121635   4.577   3.808   6.075
 7025SOL    HW221636   4.444   3.743   6.103
 7026SOL     OW21637   3.915   4.692   6.855
 7026SOL    HW121638   3.999   4.648   6.840
 7026SOL    HW221639   3.851   4.635   6.811
 7027SOL     OW21640   4.054   3.974   7.395
 7027SOL    HW121641   4.101   4.056   7.408
 7027SOL    HW221642   3.966   3.991   7.428
 7028SOL     OW21643   5.178   5.152   6.539
 7028SOL    HW121644   5.110   5.161   6.605
 7028SOL    HW221645   5.164   5.065   6.501
 7029SOL     OW21646   0.047   0.162   6.152
 7029SOL    HW121647   0.086   0.122   6.075
 7029SOL    HW221648   0.037   0.090   6.214
 7030SOL     OW21649   4.320   4.446   5.851
 7030SOL    HW121650   4.327   4.527   5.800
 7030SOL    HW221651   4.255   4.467   5.918
 7031SOL     OW21652   4.997   4.061   6.507
 7031SOL    HW121653   4.909   4.030   6.528
 7031SOL    HW221654   5.052   4.026   6.577
 7032SOL     OW21655   4.515   4.341   7.038
 7032SOL    HW121656   4.489   4.318   7.127
 7032SOL    HW221657   4.474   4.275   6.983
 7033SOL     OW21658   5.116   4.203   7.266
 7033SOL    HW121659   5.115   4.241   7.353
 7033SOL    HW221660   5.190   4.143   7.266
 7034SOL     OW21661   4.680   4.612   7.167
 7034SOL    HW121662   4.733   4.541   7.132
 7034SOL    HW221663   4.632   4.646   7.091
 7035SOL     OW21664   4.715   4.138   6.825
 7035SOL    HW121665   4.630   4.159   6.864
 7035SOL    HW221666   4.693   4.089   6.745
 7036SOL     OW21667   4.774   4.422   6.012
 7036SOL    HW121668   4.789   4.416   6.106
 7036SOL    HW221669   4.692   4.375   5.997
 7037SOL     OW21670   3.812   4.544   6.362
 7037SOL    HW121671   3.894   4.537   6.412
 7037SOL    HW221672   3.769   4.622   6.397
 7038SOL     OW21673   4.614   4.070   5.780
 7038SOL    HW121674   4.655   4.131   5.719
 7038SOL    HW221675   4.631   3.984   5.743
 7039SOL     OW21676   5.091   4.866   6.130
 7039SOL    HW121677   5.180   4.864   6.095
 7039SOL    HW221678   5.044   4.928   6.074
 7040SOL     OW21679   4.273   3.907   6.478
 7040SOL    HW121680   4.276   3.935   6.570
 7040SOL    HW221681   4.275   3.989   6.429
 7041SOL     OW21682   4.747   5.170   6.055
 7041SOL    HW121683   4.669   5.224   6.043
 7041SOL    HW221684   4.759   5.165   6.150
 7042SOL     OW21685   4.941   5.259   7.136
 7042SOL    HW121686   4.916   5.178   7.179
 7042SOL    HW221687   4.903   5.253   7.049
 7043SOL     OW21688   4.045   4.679   5.835
 7043SOL    HW121689   4.127   4.699   5.790
 7043SOL    HW221690   4.015   4.598   5.794
 7044SOL     OW21691   4.187   4.986   7.327
 7044SOL    HW121692   4.160   4.989   7.235
 7044SOL    HW221693   4.105   4.986   7.376
 7045SOL     OW21694   4.791   0.176   5.797
 7045SOL    HW121695   4.802   0.118   5.872
 7045SOL    HW221696   4.869   0.160   5.743
 7046SOL     OW21697   3.924   4.006   7.086
 7046SOL    HW121698   3.842   4.055   7.080
 7046SOL    HW221699   3.907   3.940   7.153
 7047SOL     OW21700   5.122   3.832   6.010
 7047SOL    HW121701   5.102   3.813   5.919
 7047SOL    HW221702   5.217   3.846   6.012
 7048SOL     OW21703   4.115   4.419   6.064
 7048SOL    HW121704   4.138   4.327   6.074
 7048SOL    HW221705   4.021   4.424   6.081
 7049SOL     OW21706   4.356   3.848   5.693
 7049SOL    HW121707   4.429   3.787   5.703
 7049SOL    HW221708   4.309   3.815   5.616
 7050SOL     OW21709   4.490   4.000   7.339
 7050SOL    HW121710   4.565   3.941   7.343
 7050SOL    HW221711   4.445   3.987   7.422
 7051SOL     OW21712   5.058   4.315   7.018
 7051SOL    HW121713   5.092   4.282   7.101
 7051SOL    HW221714   5.100   4.401   7.007
 7052SOL     OW21715   4.534   5.121   6.520
 7052SOL    HW121716   4.615   5.107   6.471
 7052SOL    HW221717   4.467   5.127   6.452
 7053SOL     OW21718   4.651   4.233   6.489
 7053SOL    HW121719   4.628   4.224   6.397
 7053SOL    HW221720   4.684   4.147   6.514
 7054SOL     OW21721   4.272   3.787   6.090
 7054SOL    HW121722   4.191   3.788   6.141
 7054SOL    HW221723   4.267   3.865   6.035
 7055SOL     OW21724   5.139   4.904   5.628
 7055SOL    HW121725   5.150   4.827   5.684
 7055SOL    HW221726   5.050   4.934   5.646
 7056SOL     OW21727   4.016   3.771   5.770
 7056SOL    HW121728   4.075   3.836   5.731
 7056SOL    HW221729   4.075   3.707   5.811
 7057SOL     OW21730   4.660   3.969   6.048
 7057SOL    HW121731   4.632   4.010   5.966
 7057SOL    HW221732   4.755   3.980   6.050
 7058SOL     OW21733   4.801   4.404   7.047
 7058SOL    HW121734   4.733   4.337   7.050
 7058SOL    HW221735   4.883   4.355   7.037
 7059SOL     OW21736   4.984   5.267   6.360
 7059SOL    HW121737   4.952   0.053   6.335
 7059SOL    HW221738   5.036   5.283   6.439
 7060SOL     OW21739   4.189   4.871   6.319
 7060SOL    HW121740   4.119   4.851   6.382
 7060SOL    HW221741   4.150   4.853   6.234
 7061SOL     OW21742   4.749   4.270   5.606
 7061SOL    HW121743   4.705   4.352   5.585
 7061SOL    HW221744   4.810   4.292   5.677
 7062SOL     OW21745   3.802   4.279   6.977
 7062SOL    HW121746   3.893   4.277   6.950
 7062SOL    HW221747   3.797   4.349   7.043
 7063SOL     OW21748   4.284   3.951   6.750
 7063SOL    HW121749   4.325   3.873   6.789
 7063SOL    HW221750   4.193   3.948   6.780
 7064SOL     OW21751   4.593   4.183   6.225
 7064SOL    HW121752   4.546   4.238   6.162
 7064SOL    HW221753   4.613   4.103   6.178
 7065SOL     OW21754   4.738   3.777   6.339
 7065SOL    HW121755   4.680   3.769   6.263
 7065SOL    HW221756   4.717   3.701   6.393
 7066SOL     OW21757   5.153   4.901   6.437
 7066SOL    HW121758   5.101   4.821   6.446
 7066SOL    HW221759   5.171   4.907   6.343
 7067SOL     OW21760   4.208   5.142   5.744
 7067SOL    HW121761   4.142   5.092   5.793
 7067SOL    HW221762   4.202   5.109   5.655
 7068SOL     OW21763   5.126   4.287   5.664
 7068SOL    HW121764   5.055   4.277   5.727
 7068SOL    HW221765   5.202   4.249   5.708
 7069SOL     OW21766   4.250   3.987   5.906
 7069SOL    HW121767   4.292   3.938   5.835
 7069SOL    HW221768   4.229   4.072   5.868
 7070SOL     OW21769   4.787   5.074   6.917
 7070SOL    HW121770   4.710   5.050   6.967
 7070SOL    HW221771   4.860   5.035   6.965
 7071SOL     OW21772   4.847   4.922   6.695
 7071SOL    HW121773   4.796   4.965   6.764
 7071SOL    HW221774   4.805   4.951   6.613
 7072SOL     OW21775   4.641   3.823   6.984
 7072SOL    HW121776   4.664   3.804   6.892
 7072SOL    HW221777   4.721   3.861   7.021
 7073SOL     OW21778   4.707   4.833   7.316
 7073SOL    HW121779   4.614   4.853   7.329
 7073SOL    HW221780   4.707   4.759   7.255
 7074SOL     OW21781   4.428   4.781   5.958
 7074SOL    HW121782   4.417   4.767   6.052
 7074SOL    HW221783   4.506   4.731   5.936
 7075SOL     OW21784   4.141   4.538   6.837
 7075SOL    HW121785   4.210   4.547   6.903
 7075SOL    HW221786   4.106   4.450   6.852
 7076SOL     OW21787   4.990   4.100   6.861
 7076SOL    HW121788   5.024   4.179   6.903
 7076SOL    HW221789   4.901   4.124   6.835
 7077SOL     OW21790   4.074   4.831   6.076
 7077SOL    HW121791   4.078   4.904   6.015
 7077SOL    HW221792   4.074   4.753   6.021
 7078SOL     OW21793   4.278   4.262   6.446
 7078SOL    HW121794   4.294   4.320   6.372
 7078SOL    HW221795   4.342   4.289   6.512
 7079SOL     OW21796   4.984   5.076   5.974
 7079SOL    HW121797   5.037   5.151   6.002
 7079SOL    HW221798   4.895   5.097   6.001
 7080SOL     OW21799   4.979   5.180   6.719
 7080SOL    HW121800   5.035   5.201   6.794
 7080SOL    HW221801   4.940   5.096   6.742
 7081SOL     OW21802   4.072   5.235   6.903
 7081SOL    HW121803   4.061   5.201   6.814
 7081SOL    HW221804   4.165   5.257   6.908
 7082SOL     OW21805   4.137   4.469   7.188
 7082SOL    HW121806   4.199   4.514   7.130
 7082SOL    HW221807   4.177   4.383   7.203
 7083SOL     OW21808   4.718   3.845   7.341
 7083SOL    HW121809   4.773   3.918   7.311
 7083SOL    HW221810   4.767   3.767   7.317
 7084SOL     OW21811   4.223   3.766   7.333
 7084SOL    HW121812   4.181   3.711   7.266
 7084SOL    HW221813   4.162   3.840   7.344
 7085SOL     OW21814   4.307   4.596   6.617
 7085SOL    HW121815   4.337   4.687   6.614
 7085SOL    HW221816   4.250   4.592   6.694
 7086SOL     OW21817   5.086   4.582   6.623
 7086SOL    HW121818   5.009   4.566   6.568
 7086SOL    HW221819   5.134   4.499   6.620
 7087SOL     OW21820   4.930   4.255   5.853
 7087SOL    HW121821   4.937   4.175   5.905
 7087SOL    HW221822   4.887   4.318   5.910
 7088SOL     OW21823   4.024   3.924   6.832
 7088SOL    HW121824   3.987   3.956   6.914
 7088SOL    HW221825   4.004   3.830   6.833
 7089SOL     OW21826   3.774   5.045   6.870
 7089SOL    HW121827   3.801   4.983   6.937
 7089SOL    HW221828   3.810   5.129   6.899
 7090SOL     OW21829   4.449   4.355   6.645
 7090SOL    HW121830   4.523   4.338   6.587
 7090SOL    HW221831   4.421   4.444   6.623
 7091SOL     OW21832   4.026   3.789   6.209
 7091SOL    HW121833   4.008   3.880   6.233
 7091SOL    HW221834   4.033   3.743   6.292
 7092SOL     OW21835   0.036   4.115   5.947
 7092SOL    HW121836   0.057   4.042   6.005
 7092SOL    HW221837   0.013   4.187   6.006
 7093SOL     OW21838   4.751   4.483   6.547
 7093SOL    HW121839   4.751   4.501   6.641
 7093SOL    HW221840   4.725   4.391   6.540
 7094SOL     OW21841   4.077   4.639   7.395
 7094SOL    HW121842   4.160   4.658   7.439
 7094SOL    HW221843   4.101   4.577   7.326
 7095SOL     OW21844   5.027   4.553   5.623
 7095SOL    HW121845   5.064   4.465   5.624
 7095SOL    HW221846   5.053   4.589   5.538
 7096SOL     OW21847   4.782   5.076   6.416
 7096SOL    HW121848   4.788   4.992   6.371
 7096SOL    HW221849   4.867   5.118   6.401
 7097SOL     OW21850   4.034   4.534   6.534
 7097SOL    HW121851   4.127   4.555   6.528
 7097SOL    HW221852   4.032   4.444   6.568
 7098SOL     OW21853   4.056   4.248   6.598
 7098SOL    HW121854   4.021   4.161   6.582
 7098SOL    HW221855   4.133   4.254   6.540
 7099SOL     OW21856   4.857   4.101   7.265
 7099SOL    HW121857   4.811   4.156   7.327
 7099SOL    HW221858   4.945   4.140   7.259
 7100SOL     OW21859   4.885   3.927   7.054
 7100SOL    HW121860   4.874   3.989   7.126
 7100SOL    HW221861   4.923   3.980   6.983
 7101SOL     OW21862   3.730   5.043   5.777
 7101SOL    HW121863   3.641   5.059   5.748
 7101SOL    HW221864   3.728   4.954   5.814
 7102SOL     OW21865   4.709   4.518   6.814
 7102SOL    HW121866   4.764   4.493   6.889
 7102SOL    HW221867   4.623   4.480   6.833
 7103SOL     OW21868   3.760   4.268   6.702
 7103SOL    HW121869   3.840   4.252   6.654
 7103SOL    HW221870   3.787   4.273   6.794
 7104SOL     OW21871   3.916   4.242   7.312
 7104SOL    HW121872   3.972   4.205   7.244
 7104SOL    HW221873   3.871   4.314   7.269
 7105SOL     OW21874   5.109   4.664   7.253
 7105SOL    HW121875   5.118   4.759   7.241
 7105SOL    HW221876   5.112   4.629   7.164
 7106SOL     OW21877   4.540   4.293   5.942
 7106SOL    HW121878   4.542   4.218   5.883
 7106SOL    HW221879   4.465   4.345   5.912
 7107SOL     OW21880   3.932   5.277   7.328
 7107SOL    HW121881   3.908   0.029   7.405
 7107SOL    HW221882   3.944   5.188   7.362
 7108SOL     OW21883   4.420   4.176   6.847
 7108SOL    HW121884   4.370   4.101   6.816
 7108SOL    HW221885   4.419   4.239   6.775
 7109SOL     OW21886   4.190   4.217   5.774
 7109SOL    HW121887   4.248   4.290   5.795
 7109SOL    HW221888   4.104   4.256   5.762
 7110SOL     OW21889   3.871   4.863   7.056
 7110SOL    HW121890   3.874   4.810   7.136
 7110SOL    HW221891   3.888   4.800   6.986
 7111SOL     OW21892   5.052   4.771   6.813
 7111SOL    HW121893   5.077   4.710   6.744
 7111SOL    HW221894   4.981   4.822   6.776
 7112SOL     OW21895   5.032   4.583   5.902
 7112SOL    HW121896   4.950   4.550   5.938
 7112SOL    HW221897   5.022   4.574   5.807
 7113SOL     OW21898   3.816   4.986   6.607
 7113SOL    HW121899   3.795   5.002   6.699
 7113SOL    HW221900   3.736   4.947   6.571
 7114SOL     OW21901   4.469   0.036   7.298
 7114SOL    HW121902   4.377   0.063   7.303
 7114SOL    HW221903   4.498   0.065   7.212
 7115SOL     OW21904   0.085   3.882   6.114
 7115SOL    HW121905   0.170   3.871   6.072
 7115SOL    HW221906   0.072   3.800   6.163
 7116SOL     OW21907   5.015   4.643   6.260
 7116SOL    HW121908   5.092   4.588   6.246
 7116SOL    HW221909   5.033   4.722   6.209
 7117SOL     OW21910   4.545   4.993   7.011
 7117SOL    HW121911   4.517   5.030   7.095
 7117SOL    HW221912   4.469   5.006   6.953
 7118SOL     OW21913   3.987   4.041   6.304
 7118SOL    HW121914   3.902   4.077   6.279
 7118SOL    HW221915   3.983   4.032   6.399
 7119SOL     OW21916   4.548   4.729   6.957
 7119SOL    HW121917   4.594   4.723   6.872
 7119SOL    HW221918   4.552   4.821   6.980
 7120SOL     OW21919   4.640   4.635   5.876
 7120SOL    HW121920   4.702   4.668   5.811
 7120SOL    HW221921   4.687   4.564   5.920
 7121SOL     OW21922   4.090   5.025   7.082
 7121SOL    HW121923   4.079   5.100   7.023
 7121SOL    HW221924   4.014   4.969   7.064
 7122SOL     OW21925   4.775   4.832   6.296
 7122SOL    HW121926   4.704   4.781   6.334
 7122SOL    HW221927   4.832   4.766   6.256
 7123SOL     OW21928   4.740   3.963   6.554
 7123SOL    HW121929   4.737   3.916   6.471
 7123SOL    HW221930   4.736   3.895   6.621
 7124SOL     OW21931   3.981   5.055   5.867
 7124SOL    HW121932   3.889   5.057   5.841
 7124SOL    HW221933   3.983   5.096   5.954
 7125SOL     OW21934   3.836   4.744   7.304
 7125SOL    HW121935   3.760   4.721   7.357
 7125SOL    HW221936   3.911   4.707   7.353
 7126SOL     OW21937   4.397   3.920   7.085
 7126SOL    HW121938   4.481   3.901   7.043
 7126SOL    HW221939   4.420   3.949   7.173
 7127SOL     OW21940   3.801   4.059   5.622
 7127SOL    HW121941   3.714   4.039   5.588
 7127SOL    HW221942   3.831   4.134   5.569
 7128SOL     OW21943   5.163   4.584   6.990
 7128SOL    HW121944   5.110   4.640   6.934
 7128SOL    HW221945   5.252   4.592   6.956
 7129SOL     OW21946   3.793   3.881   5.898
 7129SOL    HW121947   3.779   3.961   5.847
 7129SOL    HW221948   3.879   3.849   5.868
 7130SOL     OW21949   4.910   5.060   5.707
 7130SOL    HW121950   4.816   5.041   5.704
 7130SOL    HW221951   4.933   5.055   5.800
 7131SOL     OW21952   4.342   4.555   7.019
 7131SOL    HW121953   4.399   4.631   7.003
 7131SOL    HW221954   4.403   4.482   7.027
 7132SOL     OW21955   4.442   4.288   7.292
 7132SOL    HW121956   4.479   4.350   7.354
 7132SOL    HW221957   4.472   4.202   7.321
 7133SOL     OW21958   5.184   4.929   7.218
 7133SOL    HW121959   5.174   4.940   7.313
 7133SOL    HW221960   5.279   4.933   7.204
 7134SOL     OW21961   4.941   4.044   6.042
 7134SOL    HW121962   5.004   3.973   6.029
 7134SOL    HW221963   4.971   4.088   6.122
 7135SOL     OW21964   4.315   4.463   6.254
 7135SOL    HW121965   4.354   4.549   6.239
 7135SOL    HW221966   4.246   4.456   6.188
 7136SOL     OW21967   4.580   5.095   5.605
 7136SOL    HW121968   4.555   5.099   5.697
 7136SOL    HW221969   4.594   5.187   5.580
 7137SOL     OW21970   4.591   4.690   6.442
 7137SOL    HW121971   4.641   4.619   6.483
 7137SOL    HW221972   4.557   4.741   6.516
 7138SOL     OW21973   4.808   4.712   5.677
 7138SOL    HW121974   4.781   4.760   5.599
 7138SOL    HW221975   4.882   4.659   5.649
 7139SOL     OW21976   3.947   5.025   7.442
 7139SOL    HW121977   3.880   4.964   7.413
 7139SOL    HW221978   3.928   5.039   7.535
 7140SOL     OW21979   3.809   4.957   6.256
 7140SOL    HW121980   3.808   4.903   6.335
 7140SOL    HW221981   3.873   4.915   6.199
 7141SOL     OW21982   4.392   5.107   7.195
 7141SOL    HW121983   4.317   5.074   7.244
 7141SOL    HW221984   4.422   5.183   7.245
 7142SOL     OW21985   4.154   4.158   6.111
 7142SOL    HW121986   4.183   4.086   6.054
 7142SOL    HW221987   4.106   4.114   6.182
 7143SOL     OW21988   0.122   5.228   6.638
 7143SOL    HW121989   0.037   5.204   6.600
 7143SOL    HW221990   0.107   5.227   6.732
 7144SOL     OW21991   4.053   4.277   6.877
 7144SOL    HW121992   4.108   4.222   6.932
 7144SOL    HW221993   4.073   4.250   6.788
 7145SOL     OW21994   5.148   3.942   6.701
 7145SOL    HW121995   5.193   3.877   6.754
 7145SOL    HW221996   5.102   3.997   6.765
 7146SOL     OW21997   4.730   3.744   6.730
 7146SOL    HW121998   4.677   3.675   6.691
 7146SOL    HW221999   4.818   3.707   6.734
 7147SOL     OW22000   4.525   5.047   5.870
 7147SOL    HW122001   4.461   4.978   5.889
 7147SOL    HW222002   4.579   5.051   5.949
 7148SOL     OW22003   4.346   5.299   6.875
 7148SOL    HW122004   4.353   0.054   6.953
 7148SOL    HW222005   4.436   5.280   6.850
 7149SOL     OW22006   5.060   3.770   5.754
 7149SOL    HW122007   5.086   3.730   5.671
 7149SOL    HW222008   4.975   3.731   5.774
 7150SOL     OW22009   5.029   4.182   6.270
 7150SOL    HW122010   4.973   4.260   6.274
 7150SOL    HW222011   5.018   4.141   6.356
 7151SOL     OW22012   0.002   3.947   6.464
 7151SOL    HW122013   5.235   3.938   6.532
 7151SOL    HW222014   5.280   4.029   6.419
 7152SOL     OW22015   3.766   4.796   5.892
 7152SOL    HW122016   3.860   4.789   5.875
 7152SOL    HW222017   3.739   4.707   5.915
 7153SOL     OW22018   3.953   4.344   7.571
 7153SOL    HW122019   3.862   4.350   7.600
 7153SOL    HW222020   3.947   4.320   7.478
 7154SOL     OW22021   4.001   0.127   7.957
 7154SOL    HW122022   3.974   0.212   7.991
 7154SOL    HW222023   4.007   0.140   7.862
 7155SOL     OW22024   3.942   5.156   7.989
 7155SOL    HW122025   3.952   5.251   7.997
 7155SOL    HW222026   3.883   5.131   8.060
 7156SOL     OW22027   4.312   4.704   7.578
 7156SOL    HW122028   4.356   4.756   7.510
 7156SOL    HW222029   4.350   4.734   7.660
 7157SOL     OW22030   3.722   0.011   7.541
 7157SOL    HW122031   3.728   5.222   7.575
 7157SOL    HW222032   3.723   0.067   7.618
 7158SOL     OW22033   0.119   4.649   8.014
 7158SOL    HW122034   0.210   4.637   8.042
 7158SOL    HW222035   0.111   4.742   7.995
 7159SOL     OW22036   4.525   3.717   7.938
 7159SOL    HW122037   4.574   3.798   7.924
 7159SOL    HW222038   4.434   3.746   7.948
 7160SOL     OW22039   4.315   4.449   7.708
 7160SOL    HW122040   4.321   4.530   7.658
 7160SOL    HW222041   4.255   4.470   7.780
 7161SOL     OW22042   3.787   4.584   0.094
 7161SOL    HW122043   3.853   4.523   0.126
 7161SOL    HW222044   3.777   4.648   0.165
 7162SOL     OW22045   4.603   4.068   7.638
 7162SOL    HW122046   4.650   4.127   7.579
 7162SOL    HW222047   4.635   3.981   7.614
 7163SOL     OW22048   4.047   4.679   7.697
 7163SOL    HW122049   4.128   4.698   7.648
 7163SOL    HW222050   4.012   4.600   7.655
 7164SOL     OW22051   4.796   0.185   7.649
 7164SOL    HW122052   4.792   0.136   7.731
 7164SOL    HW222053   4.876   0.155   7.607
 7165SOL     OW22054   5.133   3.849   7.860
 7165SOL    HW122055   5.097   3.825   7.774
 7165SOL    HW222056   5.228   3.849   7.847
 7166SOL     OW22057   4.114   4.422   7.918
 7166SOL    HW122058   4.123   4.327   7.925
 7166SOL    HW222059   4.022   4.439   7.941
 7167SOL     OW22060   4.351   3.845   7.559
 7167SOL    HW122061   4.428   3.790   7.569
 7167SOL    HW222062   4.308   3.814   7.479
 7168SOL     OW22063   4.256   3.796   7.959
 7168SOL    HW122064   4.171   3.800   8.002
 7168SOL    HW222065   4.254   3.867   7.895
 7169SOL     OW22066   5.140   4.904   7.489
 7169SOL    HW122067   5.155   4.831   7.549
 7169SOL    HW222068   5.051   4.934   7.509
 7170SOL     OW22069   4.017   3.773   7.632
 7170SOL    HW122070   4.076   3.834   7.588
 7170SOL    HW222071   4.075   3.707   7.671
 7171SOL     OW22072   4.666   3.951   7.912
 7171SOL    HW122073   4.623   4.014   7.855
 7171SOL    HW222074   4.758   3.978   7.913
 7172SOL     OW22075   4.167   4.875   0.100
 7172SOL    HW122076   4.090   4.904   0.149
 7172SOL    HW222077   4.135   4.860   0.011
 7173SOL     OW22078   4.753   4.271   7.464
 7173SOL    HW122079   4.705   4.352   7.446
 7173SOL    HW222080   4.806   4.290   7.541
 7174SOL     OW22081   4.201   5.146   7.605
 7174SOL    HW122082   4.140   5.095   7.657
 7174SOL    HW222083   4.200   5.105   7.519
 7175SOL     OW22084   5.127   4.287   7.528
 7175SOL    HW122085   5.054   4.277   7.589
 7175SOL    HW222086   5.201   4.246   7.572
 7176SOL     OW22087   4.250   3.989   7.771
 7176SOL    HW122088   4.292   3.938   7.702
 7176SOL    HW222089   4.229   4.073   7.730
 7177SOL     OW22090   4.430   4.779   7.813
 7177SOL    HW122091   4.411   4.771   7.907
 7177SOL    HW222092   4.512   4.732   7.801
 7178SOL     OW22093   4.090   4.823   7.929
 7178SOL    HW122094   4.070   4.903   7.880
 7178SOL    HW222095   4.077   4.752   7.866
 7179SOL     OW22096   4.955   5.104   7.830
 7179SOL    HW122097   5.034   5.129   7.878
 7179SOL    HW222098   4.900   5.060   7.895
 7180SOL     OW22099   0.032   4.370   7.925
 7180SOL    HW122100   5.279   4.399   7.999
 7180SOL    HW222101   0.042   4.447   7.870
 7181SOL     OW22102   4.929   4.254   7.715
 7181SOL    HW122103   4.935   4.170   7.760
 7181SOL    HW222104   4.897   4.315   7.782
 7182SOL     OW22105   0.029   4.122   7.810
 7182SOL    HW122106   0.041   4.052   7.875
 7182SOL    HW222107   0.020   4.202   7.862
 7183SOL     OW22108   5.033   4.556   7.489
 7183SOL    HW122109   5.064   4.465   7.487
 7183SOL    HW222110   5.055   4.591   7.403
 7184SOL     OW22111   3.732   5.046   7.640
 7184SOL    HW122112   3.642   5.059   7.609
 7184SOL    HW222113   3.732   4.957   7.675
 7185SOL     OW22114   4.560   4.319   7.762
 7185SOL    HW122115   4.551   4.228   7.735
 7185SOL    HW222116   4.471   4.354   7.763
 7186SOL     OW22117   4.188   4.217   7.642
 7186SOL    HW122118   4.246   4.292   7.656
 7186SOL    HW222119   4.102   4.257   7.624
 7187SOL     OW22120   5.033   4.574   7.770
 7187SOL    HW122121   4.939   4.577   7.791
 7187SOL    HW222122   5.036   4.572   7.675
 7188SOL     OW22123   0.178   3.865   7.990
 7188SOL    HW122124   0.163   3.846   7.898
 7188SOL    HW222125   0.136   3.793   8.037
 7189SOL     OW22126   4.655   4.636   7.758
 7189SOL    HW122127   4.705   4.661   7.681
 7189SOL    HW222128   4.647   4.541   7.751
 7190SOL     OW22129   3.981   5.061   7.742
 7190SOL    HW122130   3.889   5.063   7.715
 7190SOL    HW222131   3.981   5.099   7.830
 7191SOL     OW22132   3.801   4.059   7.484
 7191SOL    HW122133   3.714   4.039   7.448
 7191SOL    HW222134   3.831   4.134   7.433
 7192SOL     OW22135   3.796   3.882   7.760
 7192SOL    HW122136   3.778   3.958   7.705
 7192SOL    HW222137   3.878   3.847   7.727
 7193SOL     OW22138   4.909   5.055   7.566
 7193SOL    HW122139   4.815   5.040   7.559
 7193SOL    HW222140   4.925   5.067   7.659
 7194SOL     OW22141   4.940   4.044   7.900
 7194SOL    HW122142   5.011   3.980   7.891
 7194SOL    HW222143   4.958   4.087   7.984
 7195SOL     OW22144   4.346   4.458   8.059
 7195SOL    HW122145   4.355   4.542   0.023
 7195SOL    HW222146   4.259   4.460   8.019
 7196SOL     OW22147   4.582   5.095   7.465
 7196SOL    HW122148   4.557   5.098   7.558
 7196SOL    HW222149   4.593   5.187   7.441
 7197SOL     OW22150   4.803   4.704   7.540
 7197SOL    HW122151   4.778   4.757   7.464
 7197SOL    HW222152   4.881   4.656   7.511
 7198SOL     OW22153   4.112   4.149   7.980
 7198SOL    HW122154   4.164   4.098   7.917
 7198SOL    HW222155   4.159   4.138   8.063
 7199SOL     OW22156   4.527   5.045   7.730
 7199SOL    HW122157   4.465   4.975   7.748
 7199SOL    HW222158   4.553   5.078   7.816
 7200SOL     OW22159   5.063   3.769   7.612
 7200SOL    HW122160   5.086   3.725   7.530
 7200SOL    HW222161   4.979   3.732   7.637
 7201SOL     OW22162   3.772   4.802   7.751
 7201SOL    HW122163   3.867   4.793   7.737
 7201SOL    HW222164   3.741   4.713   7.767
   5.30000   5.30000   8.08000
