2gCDOC_1PEG_l14
22230
    1LIG      O    1   1.951   2.008   0.042
    1LIG      C    2   2.021   2.021   0.196
    1LIG     C1    3   1.948   1.984   0.364
    1LIG     O1    4   2.002   2.030   0.518
    1LIG     C2    5   1.948   1.989   0.673
    1LIG     C3    6   2.015   2.048   0.835
    1LIG     O2    7   1.963   2.009   0.988
    1LIG     C4    8   2.027   2.043   1.139
    1LIG     C5    9   1.959   1.995   1.302
    1LIG     O3   10   2.021   2.031   1.453
    1LIG     C6   11   1.966   1.983   1.603
    1LIG     C7   12   2.033   2.033   1.765
    1LIG     O4   13   1.972   1.994   1.916
    1LIG     C8   14   2.030   2.033   2.069
    1LIG     C9   15   1.954   1.989   2.230
    1LIG     O5   16   2.005   2.034   2.383
    1LIG    C10   17   1.946   1.992   2.534
    1LIG    C11   18   2.013   2.050   2.692
    1LIG     O6   19   1.959   2.011   2.843
    1LIG    C12   20   2.024   2.044   2.992
    1LIG    C13   21   1.955   1.997   3.153
    1LIG     O7   22   2.017   2.034   3.303
    1LIG    C14   23   1.962   1.985   3.451
    1LIG    C15   24   2.029   2.035   3.613
    1LIG     O8   25   1.970   1.996   3.764
    1LIG    C16   26   2.030   2.032   3.916
    1LIG    C17   27   1.953   1.989   4.076
    1LIG     O9   28   2.005   2.034   4.229
    1LIG    C18   29   1.945   1.992   4.379
    1LIG    C19   30   2.012   2.050   4.537
    1LIG    O10   31   1.958   2.010   4.688
    1LIG    C20   32   2.023   2.044   4.836
    1LIG    C21   33   1.953   1.999   4.996
    1LIG    O11   34   2.016   2.035   5.145
    1LIG    C22   35   1.963   1.986   5.294
    1LIG    C23   36   2.033   2.037   5.453
    1LIG    O12   37   1.976   1.998   5.604
    1LIG    C24   38   2.042   2.031   5.753
    1LIG    C25   39   1.968   1.988   5.912
    1LIG    O13   40   2.023   2.032   6.063
    1LIG    C26   41   1.971   1.985   6.213
    1LIG    C27   42   2.032   2.045   6.372
    1LIG    O14   43   1.971   2.001   6.518
    1LIG    C28   44   2.031   2.028   6.669
    1LIG    C29   45   1.948   1.991   6.825
    1LIG    O15   46   2.013   2.012   6.977
    1LIG    C30   47   1.952   1.969   7.125
    1LIG    C31   48   2.031   2.000   7.283
    1LIG    O16   49   1.966   1.985   7.439
    1LIG    C32   50   2.035   2.017   7.589
    1LIG    C33   51   1.963   1.985   7.754
    1LIG    O17   52   2.029   2.022   7.904
    1LIG    C34   53   1.975   1.987   8.059
    1LIG    C35   54   2.038   2.043   8.218
    1LIG    O18   55   1.969   2.006   8.364
    1LIG    C36   56   2.021   2.040   8.517
    1LIG    C37   57   1.939   1.995   8.674
    1LIG    O19   58   1.992   2.034   8.828
    1LIG    C38   59   1.939   1.982   8.977
    1LIG    C39   60   2.011   2.030   9.137
    1LIG    O20   61   1.956   1.992   9.290
    1LIG    C40   62   2.019   2.033   9.440
    1LIG    C41   63   1.954   1.983   9.603
    1LIG    O21   64   2.012   2.029   9.752
    1LIG    C42   65   1.959   1.985   9.903
    1LIG    C43   66   2.029   2.039  10.062
    1LIG    O22   67   1.970   2.002  10.212
    1LIG    C44   68   2.029   2.039  10.363
    1LIG    C45   69   1.952   1.995  10.522
    1LIG    O23   70   2.009   2.033  10.674
    1LIG    C46   71   1.952   1.983  10.821
    1LIG    C47   72   2.020   2.030  10.983
    1LIG    O24   73   1.963   1.990  11.135
    1LIG    C48   74   2.023   2.032  11.285
    1LIG    C49   75   1.957   1.982  11.448
    1LIG    O25   76   2.015   2.026  11.598
    1LIG    C50   77   1.959   1.985  11.749
    1LIG    C51   78   2.031   2.036  11.908
    1LIG    O26   79   1.972   2.001  12.060
    1LIG    C52   80   2.030   2.038  12.211
    1LIG    C53   81   1.955   1.995  12.372
    1LIG    O27   82   2.010   2.033  12.526
    1LIG    C54   83   1.954   1.983  12.675
    1LIG    C55   84   2.021   2.028  12.840
    1LIG    O28   85   1.965   1.988  12.994
    1LIG    C56   86   2.022   2.027  13.149
    1LIG    C57   87   1.954   1.974  13.313
    1LIG    O29   88   2.007   2.008  13.470
    1LIG    C58   89   1.940   1.971  13.620
    1LIG    C59   90   2.015   1.969  13.790
    1LIG      H   91   2.054   2.126   0.204
    1LIG     H1   92   2.116   1.964   0.192
    1LIG     H2   93   1.942   1.875   0.366
    1LIG     H3   94   1.843   2.017   0.357
    1LIG     H4   95   1.953   1.879   0.679
    1LIG     H5   96   1.840   2.012   0.676
    1LIG     H6   97   2.015   2.158   0.829
    1LIG     H7   98   2.122   2.023   0.832
    1LIG     H8   99   2.039   2.152   1.144
    1LIG     H9  100   2.130   2.005   1.138
    1LIG    H10  101   1.946   1.886   1.299
    1LIG    H11  102   1.856   2.034   1.302
    1LIG    H12  103   1.972   1.873   1.603
    1LIG    H13  104   1.859   2.005   1.606
    1LIG    H14  105   2.040   2.142   1.761
    1LIG    H15  106   2.137   1.999   1.764
    1LIG    H16  107   2.045   2.141   2.072
    1LIG    H17  108   2.132   1.992   2.074
    1LIG    H18  109   1.949   1.880   2.229
    1LIG    H19  110   1.849   2.021   2.222
    1LIG    H20  111   1.950   1.882   2.539
    1LIG    H21  112   1.839   2.017   2.534
    1LIG    H22  113   2.013   2.160   2.687
    1LIG    H23  114   2.120   2.025   2.690
    1LIG    H24  115   2.038   2.153   2.996
    1LIG    H25  116   2.127   2.005   2.990
    1LIG    H26  117   1.941   1.889   3.150
    1LIG    H27  118   1.853   2.038   3.152
    1LIG    H28  119   1.968   1.875   3.451
    1LIG    H29  120   1.855   2.006   3.454
    1LIG    H30  121   2.036   2.144   3.608
    1LIG    H31  122   2.134   2.001   3.612
    1LIG    H32  123   2.047   2.140   3.920
    1LIG    H33  124   2.130   1.989   3.920
    1LIG    H34  125   1.948   1.880   4.076
    1LIG    H35  126   1.848   2.021   4.068
    1LIG    H36  127   1.948   1.883   4.384
    1LIG    H37  128   1.838   2.018   4.379
    1LIG    H38  129   2.012   2.160   4.532
    1LIG    H39  130   2.118   2.024   4.535
    1LIG    H40  131   2.037   2.153   4.839
    1LIG    H41  132   2.125   2.003   4.834
    1LIG    H42  133   1.938   1.890   4.994
    1LIG    H43  134   1.851   2.040   4.995
    1LIG    H44  135   1.968   1.877   5.293
    1LIG    H45  136   1.856   2.009   5.298
    1LIG    H46  137   2.038   2.146   5.449
    1LIG    H47  138   2.137   2.004   5.450
    1LIG    H48  139   2.062   2.138   5.757
    1LIG    H49  140   2.141   1.984   5.753
    1LIG    H50  141   1.960   1.878   5.912
    1LIG    H51  142   1.865   2.022   5.906
    1LIG    H52  143   1.981   1.876   6.218
    1LIG    H53  144   1.864   2.003   6.217
    1LIG    H54  145   2.030   2.154   6.369
    1LIG    H55  146   2.139   2.023   6.374
    1LIG    H56  147   2.057   2.134   6.673
    1LIG    H57  148   2.126   1.975   6.673
    1LIG    H58  149   1.919   1.886   6.818
    1LIG    H59  150   1.853   2.046   6.824
    1LIG    H60  151   1.936   1.860   7.121
    1LIG    H61  152   1.854   2.015   7.133
    1LIG    H62  153   2.065   2.102   7.267
    1LIG    H63  154   2.123   1.942   7.282
    1LIG    H64  155   2.057   2.124   7.591
    1LIG    H65  156   2.133   1.967   7.590
    1LIG    H66  157   1.941   1.878   7.754
    1LIG    H67  158   1.864   2.033   7.751
    1LIG    H68  159   1.969   1.878   8.068
    1LIG    H69  160   1.873   2.023   8.064
    1LIG    H70  161   2.043   2.152   8.213
    1LIG    H71  162   2.143   2.013   8.222
    1LIG    H72  163   2.035   2.148   8.522
    1LIG    H73  164   2.121   1.997   8.522
    1LIG    H74  165   1.930   1.886   8.672
    1LIG    H75  166   1.836   2.032   8.666
    1LIG    H76  167   1.945   1.873   8.975
    1LIG    H77  168   1.833   2.006   8.983
    1LIG    H78  169   2.020   2.139   9.133
    1LIG    H79  170   2.113   1.991   9.132
    1LIG    H80  171   2.024   2.143   9.442
    1LIG    H81  172   2.123   1.999   9.439
    1LIG    H82  173   1.955   1.873   9.601
    1LIG    H83  174   1.848   2.010   9.602
    1LIG    H84  175   1.961   1.876   9.907
    1LIG    H85  176   1.853   2.012   9.907
    1LIG    H86  177   2.036   2.149  10.057
    1LIG    H87  178   2.134   2.008  10.059
    1LIG    H88  179   2.041   2.148  10.365
    1LIG    H89  180   2.131   2.000  10.367
    1LIG    H90  181   1.940   1.887  10.520
    1LIG    H91  182   1.850   2.035  10.517
    1LIG    H92  183   1.953   1.874  10.819
    1LIG    H93  184   1.846   2.011  10.824
    1LIG    H94  185   2.029   2.139  10.980
    1LIG    H95  186   2.123   1.993  10.979
    1LIG    H96  187   2.027   2.142  11.288
    1LIG    H97  188   2.128   2.000  11.286
    1LIG    H98  189   1.958   1.872  11.446
    1LIG    H99  190   1.851   2.009  11.446
    1LIG   H100  191   1.956   1.875  11.752
    1LIG   H101  192   1.854   2.016  11.752
    1LIG   H102  193   2.042   2.145  11.903
    1LIG   H103  194   2.134   2.000  11.905
    1LIG   H104  195   2.042   2.148  12.213
    1LIG   H105  196   2.133   1.999  12.215
    1LIG   H106  197   1.942   1.886  12.370
    1LIG   H107  198   1.852   2.034  12.366
    1LIG   H108  199   1.956   1.873  12.672
    1LIG   H109  200   1.847   2.008  12.678
    1LIG   H110  201   2.029   2.138  12.836
    1LIG   H111  202   2.125   1.992  12.835
    1LIG   H112  203   2.026   2.138  13.152
    1LIG   H113  204   2.128   1.997  13.150
    1LIG   H114  205   1.952   1.864  13.306
    1LIG   H115  206   1.848   2.004  13.310
    1LIG   H116  207   1.907   1.866  13.608
    1LIG   H117  208   1.844   2.025  13.627
    1LIG   H118  209   2.115   2.016  13.782
    1LIG   H119  210   2.036   1.862  13.800
    2MOL     C1  211   1.474   1.547   6.341
    2MOL     H1  212   1.454   1.441   6.325
    2MOL     O1  213   1.431   1.584   6.474
    2MOL     C2  214   1.450   1.723   6.511
    2MOL     H2  215   1.556   1.751   6.497
    2MOL     C3  216   1.418   1.734   6.662
    2MOL     H3  217   1.457   1.829   6.701
    2MOL     H4  218   1.470   1.654   6.715
    2MOL     O2  219   1.276   1.725   6.684
    2MOL     C4  220   1.240   1.735   6.823
    2MOL     C5  221   1.391   1.630   6.238
    2MOL     H5  222   1.286   1.596   6.243
    2MOL     O3  223   1.442   1.612   6.105
    2MOL     C6  224   1.414   1.485   6.043
    2MOL     C7  225   1.392   1.781   6.270
    2MOL     H6  226   1.492   1.821   6.247
    2MOL     O4  227   1.290   1.845   6.191
    2MOL     C8  228   1.339   1.935   6.090
    2MOL     C9  229   1.362   1.810   6.419
    2MOL     H7  230   1.256   1.786   6.436
    2MOL     O5  231   1.388   1.951   6.441
    2MOL    C10  232   1.302   2.016   6.537
    2MOL     H8  233   1.222   1.948   6.569
    2MOL     O6  234   1.381   2.054   6.651
    2MOL    C11  235   1.492   2.144   6.624
    2MOL     H9  236   1.558   2.099   6.548
    2MOL    C12  237   1.575   2.160   6.754
    2MOL    H10  238   1.675   2.197   6.729
    2MOL    H11  239   1.587   2.061   6.801
    2MOL     O7  240   1.509   2.251   6.844
    2MOL    C13  241   1.580   2.278   6.965
    2MOL    C14  242   1.238   2.142   6.473
    2MOL    H12  243   1.164   2.184   6.543
    2MOL     O8  244   1.174   2.109   6.348
    2MOL    C15  245   1.053   2.032   6.357
    2MOL    C16  246   1.344   2.249   6.444
    2MOL    H13  247   1.407   2.211   6.362
    2MOL     O9  248   1.277   2.373   6.408
    2MOL    C17  249   1.289   2.411   6.270
    2MOL    C18  250   1.433   2.277   6.568
    2MOL    H14  251   1.372   2.325   6.644
    2MOL    O10  252   1.541   2.363   6.524
    2MOL    C19  253   1.577   2.471   6.613
    2MOL    H15  254   1.504   2.480   6.694
    2MOL    O11  255   1.708   2.443   6.668
    2MOL    C20  256   1.812   2.425   6.570
    2MOL    H16  257   1.783   2.348   6.497
    2MOL    C21  258   1.937   2.370   6.640
    2MOL    H17  259   2.007   2.331   6.565
    2MOL    H18  260   1.907   2.288   6.705
    2MOL    O12  261   2.001   2.474   6.716
    2MOL    C22  262   2.109   2.420   6.794
    2MOL    C23  263   1.585   2.603   6.531
    2MOL    H19  264   1.604   2.686   6.600
    2MOL    O13  265   1.460   2.625   6.462
    2MOL    C24  266   1.351   2.665   6.547
    2MOL    C25  267   1.699   2.600   6.428
    2MOL    H20  268   1.677   2.528   6.349
    2MOL    O14  269   1.712   2.733   6.373
    2MOL    C26  270   1.664   2.748   6.239
    2MOL    C27  271   1.833   2.558   6.495
    2MOL    H21  272   1.867   2.635   6.565
    2MOL    O15  273   1.931   2.534   6.393
    2MOL    C28  274   2.005   2.650   6.350
    2MOL    H22  275   1.940   2.737   6.339
    2MOL    O16  276   2.107   2.676   6.448
    2MOL    C29  277   2.206   2.572   6.468
    2MOL    H23  278   2.158   2.480   6.503
    2MOL    C30  279   2.300   2.626   6.577
    2MOL    H24  280   2.367   2.548   6.614
    2MOL    H25  281   2.240   2.661   6.662
    2MOL    O17  282   2.372   2.735   6.519
    2MOL    C31  283   2.461   2.803   6.608
    2MOL    C32  284   2.069   2.621   6.213
    2MOL    H26  285   2.120   2.712   6.179
    2MOL    O18  286   1.963   2.584   6.123
    2MOL    C33  287   1.981   2.629   5.989
    2MOL    C34  288   2.172   2.507   6.225
    2MOL    H27  289   2.119   2.414   6.252
    2MOL    O19  290   2.241   2.493   6.099
    2MOL    C35  291   2.257   2.356   6.058
    2MOL    C36  292   2.277   2.541   6.332
    2MOL    H28  293   2.332   2.630   6.297
    2MOL    O20  294   2.367   2.428   6.345
    2MOL    C37  295   2.504   2.460   6.376
    2MOL    H29  296   2.521   2.568   6.371
    2MOL    O21  297   2.531   2.414   6.509
    2MOL    C38  298   2.511   2.272   6.532
    2MOL    H30  299   2.409   2.243   6.503
    2MOL    C39  300   2.529   2.249   6.683
    2MOL    H31  301   2.503   2.145   6.707
    2MOL    H32  302   2.460   2.314   6.738
    2MOL    O22  303   2.665   2.279   6.718
    2MOL    C40  304   2.699   2.236   6.850
    2MOL    C41  305   2.603   2.388   6.279
    2MOL    H33  306   2.705   2.423   6.303
    2MOL    O23  307   2.573   2.419   6.142
    2MOL    C42  308   2.602   2.554   6.102
    2MOL    C43  309   2.602   2.235   6.295
    2MOL    H34  310   2.509   2.194   6.253
    2MOL    O24  311   2.719   2.184   6.227
    2MOL    C44  312   2.691   2.102   6.112
    2MOL    C45  313   2.614   2.194   6.444
    2MOL    H35  314   2.715   2.220   6.477
    2MOL    O25  315   2.591   2.051   6.453
    2MOL    C46  316   2.680   1.980   6.541
    2MOL    H36  317   2.759   2.046   6.578
    2MOL    O26  318   2.604   1.930   6.653
    2MOL    C47  319   2.495   1.841   6.620
    2MOL    H37  320   2.427   1.891   6.551
    2MOL    C48  321   2.418   1.810   6.749
    2MOL    H38  322   2.321   1.766   6.724
    2MOL    H39  323   2.400   1.904   6.803
    2MOL    O27  324   2.495   1.721   6.831
    2MOL    C49  325   2.431   1.685   6.954
    2MOL    C50  326   2.746   1.859   6.467
    2MOL    H40  327   2.820   1.813   6.534
    2MOL    O28  328   2.812   1.903   6.346
    2MOL    C51  329   2.933   1.978   6.366
    2MOL    C52  330   2.643   1.750   6.431
    2MOL    H41  331   2.580   1.785   6.349
    2MOL    O29  332   2.717   1.631   6.394
    2MOL    C53  333   2.717   1.603   6.254
    2MOL    C54  334   2.554   1.714   6.552
    2MOL    H42  335   2.618   1.662   6.625
    2MOL    O30  336   2.447   1.628   6.505
    2MOL    C55  337   2.435   1.502   6.576
    2MOL    H43  338   2.524   1.485   6.638
    2MOL    O31  339   2.318   1.506   6.660
    2MOL    C56  340   2.192   1.525   6.591
    2MOL    H44  341   2.191   1.622   6.541
    2MOL    C57  342   2.083   1.526   6.696
    2MOL    H45  343   2.091   1.437   6.759
    2MOL    H46  344   1.983   1.526   6.650
    2MOL    O32  345   2.102   1.645   6.774
    2MOL    C58  346   2.011   1.654   6.883
    2MOL    C59  347   2.419   1.382   6.479
    2MOL    H47  348   2.410   1.291   6.540
    2MOL    O33  349   2.534   1.370   6.395
    2MOL    C60  350   2.651   1.318   6.459
    2MOL    C61  351   2.292   1.392   6.393
    2MOL    H48  352   2.300   1.475   6.322
    2MOL    O34  353   2.274   1.265   6.325
    2MOL    C62  354   2.323   1.259   6.190
    2MOL    C63  355   2.169   1.415   6.486
    2MOL    H49  356   2.147   1.321   6.539
    2MOL    O35  357   2.056   1.456   6.405
    2MOL    C64  358   1.974   1.346   6.360
    2MOL    H50  359   2.035   1.254   6.354
    2MOL    O36  360   1.866   1.327   6.453
    2MOL    C65  361   1.768   1.434   6.465
    2MOL    H51  362   1.817   1.527   6.496
    2MOL    C66  363   1.672   1.390   6.576
    2MOL    H52  364   1.638   1.288   6.558
    2MOL    H53  365   1.584   1.455   6.581
    2MOL    O37  366   1.742   1.398   6.701
    2MOL    C67  367   1.666   1.346   6.810
    2MOL    C68  368   1.916   1.373   6.219
    2MOL    H54  369   1.871   1.279   6.184
    2MOL    O38  370   2.025   1.412   6.134
    2MOL    C69  371   2.027   1.343   6.009
    2MOL    C70  372   1.809   1.484   6.219
    2MOL    H55  373   1.860   1.579   6.240
    2MOL    O39  374   1.746   1.487   6.089
    2MOL    C71  375   1.749   1.615   6.025
    2MOL    C72  376   1.701   1.457   6.326
    2MOL    H56  377   1.645   1.367   6.298
    2MOL    O40  378   1.616   1.574   6.329
    2MOL    H57  379   1.136   1.705   6.838
    2MOL    H58  380   1.303   1.668   6.883
    2MOL    H59  381   1.254   1.837   6.858
    2MOL    H60  382   1.720   1.359   6.904
    2MOL    H61  383   1.570   1.397   6.816
    2MOL    H62  384   1.647   1.238   6.796
    2MOL    H63  385   2.025   1.749   6.936
    2MOL    H64  386   1.908   1.648   6.846
    2MOL    H65  387   2.029   1.573   6.954
    2MOL    H66  388   2.495   1.616   7.011
    2MOL    H67  389   2.413   1.775   7.015
    2MOL    H68  390   2.335   1.636   6.934
    2MOL    H69  391   2.805   2.254   6.870
    2MOL    H70  392   2.639   2.291   6.923
    2MOL    H71  393   2.680   2.129   6.860
    2MOL    H72  394   2.508   2.884   6.551
    2MOL    H73  395   2.406   2.847   6.692
    2MOL    H74  396   2.538   2.735   6.645
    2MOL    H75  397   2.165   2.500   6.843
    2MOL    H76  398   2.069   2.352   6.871
    2MOL    H77  399   2.179   2.364   6.730
    2MOL    H78  400   1.519   2.338   7.033
    2MOL    H79  401   1.604   2.184   7.016
    2MOL    H80  402   1.673   2.333   6.944
    2MOL    H81  403   1.229   2.501   6.252
    2MOL    H82  404   1.393   2.434   6.245
    2MOL    H83  405   1.253   2.331   6.204
    2MOL    H84  406   1.013   2.015   6.256
    2MOL    H85  407   1.073   1.934   6.402
    2MOL    H86  408   0.978   2.085   6.416
    2MOL    H87  409   1.255   1.974   6.031
    2MOL    H88  410   1.392   2.019   6.137
    2MOL    H89  411   1.407   1.883   6.022
    2MOL    H90  412   1.442   1.488   5.937
    2MOL    H91  413   1.472   1.405   6.092
    2MOL    H92  414   1.307   1.461   6.050
    2MOL    H93  415   1.695   1.611   5.930
    2MOL    H94  416   1.701   1.691   6.089
    2MOL    H95  417   1.853   1.646   6.007
    2MOL    H96  418   2.106   1.383   5.944
    2MOL    H97  419   2.044   1.236   6.024
    2MOL    H98  420   1.930   1.358   5.959
    2MOL    H99  421   2.296   1.163   6.145
    2MOL   H100  422   2.277   1.339   6.130
    2MOL   H101  423   2.432   1.271   6.188
    2MOL   H102  424   2.724   1.287   6.384
    2MOL   H103  425   2.697   1.394   6.523
    2MOL   H104  426   2.626   1.230   6.521
    2MOL   H105  427   2.775   1.512   6.234
    2MOL   H106  428   2.614   1.587   6.220
    2MOL   H107  429   2.760   1.686   6.198
    2MOL   H108  430   2.979   2.001   6.269
    2MOL   H109  431   2.911   2.073   6.415
    2MOL   H110  432   3.004   1.920   6.427
    2MOL   H111  433   2.785   2.071   6.064
    2MOL   H112  434   2.636   2.012   6.142
    2MOL   H113  435   2.631   2.158   6.039
    2MOL   H114  436   2.608   2.559   5.992
    2MOL   H115  437   2.523   2.622   6.136
    2MOL   H116  438   2.698   2.587   6.143
    2MOL   H117  439   2.320   2.353   5.969
    2MOL   H118  440   2.306   2.298   6.137
    2MOL   H119  441   2.160   2.311   6.036
    2MOL   H120  442   1.895   2.602   5.927
    2MOL   H121  443   1.992   2.738   5.989
    2MOL   H122  444   2.071   2.585   5.945
    2MOL   H123  445   1.676   2.852   6.207
    2MOL   H124  446   1.721   2.684   6.171
    2MOL   H125  447   1.557   2.722   6.233
    2MOL   H126  448   1.264   2.693   6.486
    2MOL   H127  449   1.321   2.582   6.612
    2MOL   H128  450   1.380   2.751   6.609
    3MOL     C1  451   1.475   1.548   7.346
    3MOL     H1  452   1.454   1.442   7.331
    3MOL     O1  453   1.436   1.586   7.480
    3MOL     C2  454   1.456   1.724   7.515
    3MOL     H2  455   1.560   1.753   7.496
    3MOL     C3  456   1.430   1.738   7.668
    3MOL     H3  457   1.466   1.835   7.703
    3MOL     H4  458   1.486   1.660   7.720
    3MOL     O2  459   1.290   1.724   7.694
    3MOL     C4  460   1.248   1.739   7.831
    3MOL     C5  461   1.389   1.631   7.245
    3MOL     H5  462   1.285   1.595   7.250
    3MOL     O3  463   1.438   1.617   7.110
    3MOL     C6  464   1.414   1.491   7.047
    3MOL     C7  465   1.389   1.782   7.276
    3MOL     H6  466   1.489   1.820   7.248
    3MOL     O4  467   1.284   1.845   7.199
    3MOL     C8  468   1.326   1.935   7.095
    3MOL     C9  469   1.363   1.810   7.425
    3MOL     H7  470   1.258   1.786   7.446
    3MOL     O5  471   1.387   1.951   7.444
    3MOL    C10  472   1.299   2.020   7.535
    3MOL     H8  473   1.217   1.953   7.567
    3MOL     O6  474   1.374   2.060   7.650
    3MOL    C11  475   1.487   2.146   7.623
    3MOL     H9  476   1.555   2.098   7.552
    3MOL    C12  477   1.562   2.162   7.754
    3MOL    H10  478   1.660   2.207   7.738
    3MOL    H11  479   1.574   2.061   7.791
    3MOL     O7  480   1.483   2.239   7.846
    3MOL    C13  481   1.548   2.265   7.971
    3MOL    C14  482   1.239   2.146   7.467
    3MOL    H12  483   1.162   2.188   7.533
    3MOL     O8  484   1.182   2.111   7.339
    3MOL    C15  485   1.060   2.037   7.345
    3MOL    C16  486   1.346   2.256   7.442
    3MOL    H13  487   1.407   2.227   7.357
    3MOL     O9  488   1.277   2.380   7.414
    3MOL    C17  489   1.289   2.423   7.278
    3MOL    C18  490   1.436   2.280   7.565
    3MOL    H14  491   1.377   2.331   7.641
    3MOL    O10  492   1.549   2.361   7.524
    3MOL    C19  493   1.580   2.473   7.613
    3MOL    H15  494   1.502   2.483   7.690
    3MOL    O11  495   1.708   2.450   7.677
    3MOL    C20  496   1.817   2.432   7.585
    3MOL    H16  497   1.788   2.352   7.516
    3MOL    C21  498   1.941   2.383   7.663
    3MOL    H17  499   2.018   2.346   7.595
    3MOL    H18  500   1.912   2.299   7.727
    3MOL    O12  501   2.000   2.488   7.740
    3MOL    C22  502   2.115   2.440   7.811
    3MOL    C23  503   1.588   2.605   7.533
    3MOL    H19  504   1.605   2.688   7.602
    3MOL    O13  505   1.466   2.626   7.460
    3MOL    C24  506   1.353   2.664   7.541
    3MOL    C25  507   1.704   2.601   7.431
    3MOL    H20  508   1.682   2.526   7.354
    3MOL    O14  509   1.717   2.733   7.373
    3MOL    C26  510   1.668   2.744   7.238
    3MOL    C27  511   1.837   2.562   7.501
    3MOL    H21  512   1.871   2.643   7.566
    3MOL    O15  513   1.935   2.533   7.399
    3MOL    C28  514   2.006   2.646   7.348
    3MOL    H22  515   1.940   2.732   7.335
    3MOL    O16  516   2.111   2.680   7.440
    3MOL    C29  517   2.210   2.577   7.465
    3MOL    H23  518   2.161   2.487   7.506
    3MOL    C30  519   2.304   2.634   7.572
    3MOL    H24  520   2.368   2.555   7.613
    3MOL    H25  521   2.244   2.674   7.654
    3MOL    O17  522   2.383   2.738   7.513
    3MOL    C31  523   2.472   2.800   7.606
    3MOL    C32  524   2.068   2.611   7.211
    3MOL    H26  525   2.115   2.701   7.170
    3MOL    O18  526   1.962   2.563   7.125
    3MOL    C33  527   1.951   2.634   7.002
    3MOL    C34  528   2.175   2.500   7.224
    3MOL    H27  529   2.125   2.407   7.252
    3MOL    O19  530   2.240   2.486   7.096
    3MOL    C35  531   2.268   2.349   7.060
    3MOL    C36  532   2.279   2.539   7.330
    3MOL    H28  533   2.336   2.625   7.292
    3MOL    O20  534   2.366   2.424   7.350
    3MOL    C37  535   2.504   2.457   7.378
    3MOL    H29  536   2.520   2.565   7.370
    3MOL    O21  537   2.534   2.414   7.512
    3MOL    C38  538   2.519   2.273   7.536
    3MOL    H30  539   2.419   2.243   7.508
    3MOL    C39  540   2.530   2.248   7.686
    3MOL    H31  541   2.492   2.148   7.708
    3MOL    H32  542   2.467   2.321   7.739
    3MOL    O22  543   2.667   2.262   7.725
    3MOL    C40  544   2.690   2.219   7.858
    3MOL    C41  545   2.599   2.384   7.279
    3MOL    H33  546   2.701   2.421   7.295
    3MOL    O23  547   2.559   2.410   7.142
    3MOL    C42  548   2.589   2.541   7.093
    3MOL    C43  549   2.601   2.231   7.300
    3MOL    H34  550   2.506   2.189   7.265
    3MOL    O24  551   2.712   2.179   7.225
    3MOL    C44  552   2.677   2.079   7.129
    3MOL    C45  553   2.620   2.194   7.449
    3MOL    H35  554   2.723   2.219   7.478
    3MOL    O25  555   2.594   2.052   7.462
    3MOL    C46  556   2.680   1.977   7.551
    3MOL    H36  557   2.759   2.042   7.590
    3MOL    O26  558   2.600   1.926   7.660
    3MOL    C47  559   2.492   1.836   7.620
    3MOL    H37  560   2.428   1.885   7.546
    3MOL    C48  561   2.405   1.805   7.743
    3MOL    H38  562   2.318   1.747   7.713
    3MOL    H39  563   2.368   1.899   7.784
    3MOL    O27  564   2.484   1.734   7.841
    3MOL    C49  565   2.409   1.674   7.948
    3MOL    C50  566   2.745   1.858   7.475
    3MOL    H40  567   2.817   1.811   7.542
    3MOL    O28  568   2.812   1.904   7.357
    3MOL    C51  569   2.932   1.979   7.381
    3MOL    C52  570   2.643   1.749   7.434
    3MOL    H41  571   2.578   1.788   7.354
    3MOL    O29  572   2.717   1.632   7.392
    3MOL    C53  573   2.714   1.607   7.250
    3MOL    C54  574   2.555   1.710   7.555
    3MOL    H42  575   2.619   1.660   7.629
    3MOL    O30  576   2.450   1.621   7.509
    3MOL    C55  577   2.434   1.498   7.585
    3MOL    H43  578   2.520   1.482   7.651
    3MOL    O31  579   2.314   1.505   7.664
    3MOL    C56  580   2.191   1.526   7.590
    3MOL    H44  581   2.195   1.621   7.536
    3MOL    C57  582   2.074   1.528   7.690
    3MOL    H45  583   2.080   1.440   7.756
    3MOL    H46  584   1.979   1.525   7.637
    3MOL    O32  585   2.080   1.648   7.769
    3MOL    C58  586   1.979   1.651   7.870
    3MOL    C59  587   2.422   1.376   7.489
    3MOL    H47  588   2.415   1.285   7.550
    3MOL    O33  589   2.537   1.369   7.403
    3MOL    C60  590   2.660   1.328   7.466
    3MOL    C61  591   2.296   1.386   7.401
    3MOL    H48  592   2.307   1.471   7.333
    3MOL    O34  593   2.280   1.261   7.329
    3MOL    C62  594   2.326   1.262   7.193
    3MOL    C63  595   2.171   1.410   7.488
    3MOL    H49  596   2.146   1.319   7.544
    3MOL    O35  597   2.063   1.447   7.400
    3MOL    C64  598   1.977   1.338   7.360
    3MOL    H50  599   2.034   1.245   7.355
    3MOL    O36  600   1.871   1.327   7.457
    3MOL    C65  601   1.775   1.436   7.466
    3MOL    H51  602   1.826   1.529   7.491
    3MOL    C66  603   1.681   1.396   7.580
    3MOL    H52  604   1.667   1.288   7.579
    3MOL    H53  605   1.583   1.443   7.571
    3MOL    O37  606   1.742   1.438   7.703
    3MOL    C67  607   1.671   1.391   7.817
    3MOL    C68  608   1.915   1.364   7.220
    3MOL    H54  609   1.864   1.273   7.189
    3MOL    O38  610   2.022   1.396   7.129
    3MOL    C69  611   2.021   1.320   7.006
    3MOL    C70  612   1.814   1.482   7.223
    3MOL    H55  613   1.870   1.572   7.250
    3MOL    O39  614   1.753   1.494   7.093
    3MOL    C71  615   1.737   1.629   7.048
    3MOL    C72  616   1.705   1.456   7.329
    3MOL    H56  617   1.649   1.366   7.303
    3MOL    O40  618   1.618   1.573   7.332
    3MOL    H57  619   1.139   1.725   7.837
    3MOL    H58  620   1.297   1.663   7.894
    3MOL    H59  621   1.273   1.839   7.868
    3MOL    H60  622   1.734   1.399   7.906
    3MOL    H61  623   1.578   1.448   7.831
    3MOL    H62  624   1.645   1.287   7.801
    3MOL    H63  625   1.985   1.745   7.924
    3MOL    H64  626   1.879   1.643   7.826
    3MOL    H65  627   1.994   1.569   7.942
    3MOL    H66  628   2.470   1.600   8.000
    3MOL    H67  629   2.377   1.750   8.020
    3MOL    H68  630   2.320   1.622   7.908
    3MOL    H69  631   2.795   2.236   7.884
    3MOL    H70  632   2.623   2.276   7.924
    3MOL    H71  633   2.666   2.113   7.868
    3MOL    H72  634   2.535   2.875   7.555
    3MOL    H73  635   2.415   2.851   7.684
    3MOL    H74  636   2.538   2.725   7.652
    3MOL    H75  637   2.158   2.520   7.872
    3MOL    H76  638   2.086   2.358   7.877
    3MOL    H77  639   2.191   2.404   7.740
    3MOL    H78  640   1.490   2.337   8.029
    3MOL    H79  641   1.558   2.172   8.028
    3MOL    H80  642   1.647   2.308   7.952
    3MOL    H81  643   1.234   2.517   7.264
    3MOL    H82  644   1.395   2.441   7.254
    3MOL    H83  645   1.249   2.348   7.210
    3MOL    H84  646   1.016   2.031   7.244
    3MOL    H85  647   1.078   1.935   7.381
    3MOL    H86  648   0.990   2.087   7.412
    3MOL    H87  649   1.239   1.973   7.040
    3MOL    H88  650   1.379   2.021   7.137
    3MOL    H89  651   1.392   1.883   7.025
    3MOL    H90  652   1.439   1.498   6.941
    3MOL    H91  653   1.476   1.413   7.093
    3MOL    H92  654   1.307   1.465   7.057
    3MOL    H93  655   1.700   1.631   6.945
    3MOL    H94  656   1.668   1.684   7.112
    3MOL    H95  657   1.833   1.682   7.053
    3MOL    H96  658   2.111   1.343   6.948
    3MOL    H97  659   2.020   1.213   7.027
    3MOL    H98  660   1.933   1.347   6.947
    3MOL    H99  661   2.298   1.169   7.143
    3MOL   H100  662   2.280   1.346   7.137
    3MOL   H101  663   2.435   1.273   7.189
    3MOL   H102  664   2.739   1.319   7.391
    3MOL   H103  665   2.692   1.403   7.539
    3MOL   H104  666   2.646   1.231   7.517
    3MOL   H105  667   2.776   1.520   7.227
    3MOL   H106  668   2.611   1.587   7.218
    3MOL   H107  669   2.753   1.693   7.195
    3MOL   H108  670   2.980   2.002   7.286
    3MOL   H109  671   2.909   2.075   7.430
    3MOL   H110  672   3.002   1.922   7.442
    3MOL   H111  673   2.765   2.052   7.070
    3MOL   H112  674   2.639   1.989   7.179
    3MOL   H113  675   2.598   2.116   7.063
    3MOL   H114  676   2.569   2.546   6.985
    3MOL   H115  677   2.528   2.617   7.144
    3MOL   H116  678   2.695   2.563   7.110
    3MOL   H117  679   2.320   2.346   6.963
    3MOL   H118  680   2.330   2.300   7.135
    3MOL   H119  681   2.174   2.293   7.051
    3MOL   H120  682   1.879   2.584   6.936
    3MOL   H121  683   1.917   2.737   7.020
    3MOL   H122  684   2.049   2.637   6.952
    3MOL   H123  685   1.674   2.848   7.203
    3MOL   H124  686   1.726   2.681   7.170
    3MOL   H125  687   1.563   2.711   7.233
    3MOL   H126  688   1.270   2.689   7.474
    3MOL   H127  689   1.322   2.582   7.605
    3MOL   H128  690   1.378   2.751   7.603
    4SOL     OW  691   0.233   0.649   0.120
    4SOL    HW1  692   0.139   0.642   0.135
    4SOL    HW2  693   0.247   0.600   0.038
    5SOL     OW  694   0.225   0.287   0.984
    5SOL    HW1  695   0.249   0.250   1.069
    5SOL    HW2  696   0.132   0.269   0.975
    6SOL     OW  697   0.018   0.388   0.632
    6SOL    HW1  698   3.930   0.397   0.670
    6SOL    HW2  699   0.024   0.295   0.610
    7SOL     OW  700   0.577   1.282   1.183
    7SOL    HW1  701   0.490   1.286   1.143
    7SOL    HW2  702   0.591   1.371   1.217
    8SOL     OW  703   1.561   1.512   0.708
    8SOL    HW1  704   1.517   1.493   0.791
    8SOL    HW2  705   1.490   1.517   0.644
    9SOL     OW  706   1.132   0.698   0.701
    9SOL    HW1  707   1.180   0.780   0.688
    9SOL    HW2  708   1.084   0.711   0.783
   10SOL     OW  709   1.753   0.622   0.222
   10SOL    HW1  710   1.774   0.597   0.132
   10SOL    HW2  711   1.756   0.541   0.271
   11SOL     OW  712   0.758   1.142   1.038
   11SOL    HW1  713   0.691   1.176   1.098
   11SOL    HW2  714   0.792   1.220   0.994
   12SOL     OW  715   0.866   0.777   1.822
   12SOL    HW1  716   0.855   0.848   1.885
   12SOL    HW2  717   0.889   0.820   1.740
   13SOL     OW  718   0.686   1.005   0.648
   13SOL    HW1  719   0.750   0.991   0.717
   13SOL    HW2  720   0.616   1.055   0.690
   14SOL     OW  721   0.709   1.150   1.812
   14SOL    HW1  722   0.757   1.229   1.838
   14SOL    HW2  723   0.626   1.183   1.777
   15SOL     OW  724   0.351   1.403   1.079
   15SOL    HW1  725   0.269   1.386   1.032
   15SOL    HW2  726   0.399   1.462   1.021
   16SOL     OW  727   1.461   1.500   1.353
   16SOL    HW1  728   1.511   1.581   1.362
   16SOL    HW2  729   1.402   1.499   1.428
   17SOL     OW  730   0.453   0.407   1.499
   17SOL    HW1  731   0.534   0.355   1.495
   17SOL    HW2  732   0.383   0.342   1.501
   18SOL     OW  733   1.612   0.450   0.735
   18SOL    HW1  734   1.539   0.482   0.682
   18SOL    HW2  735   1.636   0.524   0.790
   19SOL     OW  736   0.226   1.709   0.473
   19SOL    HW1  737   0.243   1.791   0.521
   19SOL    HW2  738   0.288   1.711   0.400
   20SOL     OW  739   1.136   1.341   1.692
   20SOL    HW1  740   1.177   1.337   1.779
   20SOL    HW2  741   1.084   1.262   1.686
   21SOL     OW  742   0.243   1.445   0.542
   21SOL    HW1  743   0.222   1.538   0.529
   21SOL    HW2  744   0.169   1.411   0.593
   22SOL     OW  745   0.246   1.069   0.884
   22SOL    HW1  746   0.265   0.985   0.926
   22SOL    HW2  747   0.194   1.117   0.949
   23SOL     OW  748   0.614   1.791   1.430
   23SOL    HW1  749   0.531   1.773   1.475
   23SOL    HW2  750   0.635   1.881   1.455
   24SOL     OW  751   0.567   0.981   0.158
   24SOL    HW1  752   0.588   1.031   0.080
   24SOL    HW2  753   0.622   1.019   0.227
   25SOL     OW  754   1.578   0.136   1.457
   25SOL    HW1  755   1.604   0.210   1.402
   25SOL    HW2  756   1.554   0.176   1.541
   26SOL     OW  757   0.137   0.651   0.569
   26SOL    HW1  758   0.094   0.565   0.575
   26SOL    HW2  759   0.102   0.701   0.642
   27SOL     OW  760   0.019   1.602   0.133
   27SOL    HW1  761   0.026   1.507   0.142
   27SOL    HW2  762   3.967   1.629   0.209
   28SOL     OW  763   1.687   0.917   0.640
   28SOL    HW1  764   1.773   0.878   0.623
   28SOL    HW2  765   1.668   0.968   0.561
   29SOL     OW  766   1.647   1.108   0.430
   29SOL    HW1  767   1.735   1.111   0.392
   29SOL    HW2  768   1.651   1.168   0.504
   30SOL     OW  769   0.135   0.754   1.590
   30SOL    HW1  770   0.230   0.748   1.592
   30SOL    HW2  771   0.116   0.846   1.609
   31SOL     OW  772   0.612   1.384   0.735
   31SOL    HW1  773   0.566   1.301   0.744
   31SOL    HW2  774   0.596   1.411   0.645
   32SOL     OW  775   1.289   1.238   1.424
   32SOL    HW1  776   1.321   1.171   1.364
   32SOL    HW2  777   1.346   1.232   1.500
   33SOL     OW  778   0.820   0.002   0.518
   33SOL    HW1  779   0.863   0.084   0.492
   33SOL    HW2  780   0.726   0.024   0.518
   34SOL     OW  781   0.186   0.954   1.275
   34SOL    HW1  782   0.274   0.919   1.262
   34SOL    HW2  783   0.131   0.907   1.212
   35SOL     OW  784   1.531   0.994   0.202
   35SOL    HW1  785   1.463   0.935   0.234
   35SOL    HW2  786   1.571   1.030   0.282
   36SOL     OW  787   1.185   1.806   1.622
   36SOL    HW1  788   1.198   1.864   1.547
   36SOL    HW2  789   1.201   1.718   1.587
   37SOL     OW  790   0.341   0.254   1.826
   37SOL    HW1  791   0.385   0.338   1.813
   37SOL    HW2  792   0.250   0.278   1.847
   38SOL     OW  793   1.465   1.420   0.952
   38SOL    HW1  794   1.397   1.434   1.018
   38SOL    HW2  795   1.453   1.328   0.925
   39SOL     OW  796   1.671   1.731   0.574
   39SOL    HW1  797   1.623   1.717   0.492
   39SOL    HW2  798   1.647   1.656   0.628
   40SOL     OW  799   0.596   0.719   0.261
   40SOL    HW1  800   0.599   0.802   0.213
   40SOL    HW2  801   0.536   0.736   0.334
   41SOL     OW  802   1.276   0.364   0.939
   41SOL    HW1  803   1.189   0.325   0.945
   41SOL    HW2  804   1.333   0.303   0.986
   42SOL     OW  805   1.559   1.728   0.312
   42SOL    HW1  806   1.640   1.678   0.318
   42SOL    HW2  807   1.524   1.706   0.225
   43SOL     OW  808   0.795   0.616   1.454
   43SOL    HW1  809   0.765   0.592   1.542
   43SOL    HW2  810   0.754   0.552   1.397
   44SOL     OW  811   1.393   0.477   1.677
   44SOL    HW1  812   1.397   0.521   1.762
   44SOL    HW2  813   1.453   0.403   1.686
   45SOL     OW  814   0.956   0.888   1.582
   45SOL    HW1  815   1.010   0.818   1.547
   45SOL    HW2  816   0.907   0.921   1.506
   46SOL     OW  817   0.991   0.404   1.241
   46SOL    HW1  818   0.908   0.429   1.282
   46SOL    HW2  819   0.965   0.371   1.154
   47SOL     OW  820   1.050   0.701   0.428
   47SOL    HW1  821   1.065   0.692   0.522
   47SOL    HW2  822   0.968   0.654   0.412
   48SOL     OW  823   0.082   0.824   0.790
   48SOL    HW1  824   0.160   0.794   0.837
   48SOL    HW2  825   0.093   0.919   0.785
   49SOL     OW  826   0.129   1.856   1.573
   49SOL    HW1  827   0.137   1.822   1.662
   49SOL    HW2  828   0.037   1.843   1.551
   50SOL     OW  829   0.874   0.360   0.217
   50SOL    HW1  830   0.913   0.417   0.151
   50SOL    HW2  831   0.879   0.272   0.180
   51SOL     OW  832   1.711   0.576   1.829
   51SOL    HW1  833   1.672   0.650   1.782
   51SOL    HW2  834   1.735   0.514   1.760
   52SOL     OW  835   1.377   1.142   0.543
   52SOL    HW1  836   1.455   1.129   0.489
   52SOL    HW2  837   1.324   1.204   0.493
   53SOL     OW  838   0.559   0.196   0.882
   53SOL    HW1  839   0.562   0.216   0.976
   53SOL    HW2  840   0.549   0.281   0.840
   54SOL     OW  841   1.008   1.444   0.476
   54SOL    HW1  842   0.971   1.516   0.425
   54SOL    HW2  843   0.988   1.466   0.567
   55SOL     OW  844   0.364   1.812   0.866
   55SOL    HW1  845   0.429   1.742   0.872
   55SOL    HW2  846   0.414   1.892   0.882
   56SOL     OW  847   1.798   1.055   0.869
   56SOL    HW1  848   1.742   1.041   0.792
   56SOL    HW2  849   1.737   1.062   0.942
   57SOL     OW  850   1.228   1.539   1.513
   57SOL    HW1  851   1.214   1.466   1.573
   57SOL    HW2  852   1.166   1.523   1.442
   58SOL     OW  853   0.313   0.936   0.238
   58SOL    HW1  854   0.404   0.951   0.211
   58SOL    HW2  855   0.301   0.841   0.231
   59SOL     OW  856   1.476   0.743   0.731
   59SOL    HW1  857   1.468   0.699   0.815
   59SOL    HW2  858   1.554   0.798   0.739
   60SOL     OW  859   0.465   1.260   1.737
   60SOL    HW1  860   0.439   1.268   1.645
   60SOL    HW2  861   0.383   1.265   1.786
   61SOL     OW  862   1.120   1.779   0.232
   61SOL    HW1  863   1.057   1.732   0.287
   61SOL    HW2  864   1.148   1.715   0.168
   62SOL     OW  865   0.199   0.296   1.498
   62SOL    HW1  866   0.106   0.317   1.495
   62SOL    HW2  867   0.207   0.231   1.568
   63SOL     OW  868   1.631   1.372   0.085
   63SOL    HW1  869   1.594   1.455   0.055
   63SOL    HW2  870   1.564   1.307   0.065
   64SOL     OW  871   0.480   1.734   0.323
   64SOL    HW1  872   0.518   1.791   0.389
   64SOL    HW2  873   0.555   1.704   0.271
   65SOL     OW  874   1.437   0.144   0.396
   65SOL    HW1  875   1.396   0.061   0.372
   65SOL    HW2  876   1.516   0.118   0.444
   66SOL     OW  877   0.251   1.792   1.232
   66SOL    HW1  878   0.299   1.729   1.286
   66SOL    HW2  879   0.245   1.750   1.146
   67SOL     OW  880   0.937   1.698   0.899
   67SOL    HW1  881   1.015   1.647   0.921
   67SOL    HW2  882   0.893   1.649   0.830
   68SOL     OW  883   0.394   0.696   0.472
   68SOL    HW1  884   0.420   0.604   0.482
   68SOL    HW2  885   0.302   0.698   0.499
   69SOL     OW  886   1.531   0.232   1.727
   69SOL    HW1  887   1.531   0.256   1.819
   69SOL    HW2  888   1.501   0.141   1.725
   70SOL     OW  889   0.627   0.106   0.121
   70SOL    HW1  890   0.723   0.105   0.125
   70SOL    HW2  891   0.607   0.130   0.031
   71SOL     OW  892   0.778   0.282   1.763
   71SOL    HW1  893   0.844   0.213   1.769
   71SOL    HW2  894   0.717   0.263   1.835
   72SOL     OW  895   0.876   1.521   1.194
   72SOL    HW1  896   0.861   1.485   1.106
   72SOL    HW2  897   0.946   1.467   1.231
   73SOL     OW  898   1.342   0.587   1.430
   73SOL    HW1  899   1.372   0.558   1.516
   73SOL    HW2  900   1.376   0.676   1.422
   74SOL     OW  901   0.814   1.396   0.938
   74SOL    HW1  902   0.899   1.385   0.894
   74SOL    HW2  903   0.750   1.395   0.866
   75SOL     OW  904   0.929   0.511   0.902
   75SOL    HW1  905   0.905   0.503   0.809
   75SOL    HW2  906   0.956   0.423   0.927
   76SOL     OW  907   0.550   0.053   0.498
   76SOL    HW1  908   0.474   0.060   0.557
   76SOL    HW2  909   0.545   0.132   0.443
   77SOL     OW  910   1.430   1.202   0.045
   77SOL    HW1  911   1.451   1.122   0.092
   77SOL    HW2  912   1.337   1.218   0.064
   78SOL     OW  913   0.355   3.990   0.171
   78SOL    HW1  914   0.324   0.076   0.143
   78SOL    HW2  915   0.419   0.009   0.240
   79SOL     OW  916   0.938   0.248   0.466
   79SOL    HW1  917   0.908   0.286   0.384
   79SOL    HW2  918   1.034   0.248   0.458
   80SOL     OW  919   1.079   0.681   1.459
   80SOL    HW1  920   1.008   0.617   1.466
   80SOL    HW2  921   1.159   0.628   1.454
   81SOL     OW  922   1.224   1.570   0.794
   81SOL    HW1  923   1.241   1.638   0.729
   81SOL    HW2  924   1.292   1.582   0.860
   82SOL     OW  925   0.465   1.149   0.737
   82SOL    HW1  926   0.394   1.126   0.796
   82SOL    HW2  927   0.430   1.135   0.649
   83SOL     OW  928   1.268   1.795   0.605
   83SOL    HW1  929   1.313   1.858   0.549
   83SOL    HW2  930   1.203   1.847   0.653
   84SOL     OW  931   1.003   0.536   0.056
   84SOL    HW1  932   1.004   0.545  13.861
   84SOL    HW2  933   1.092   0.557   0.083
   85SOL     OW  934   0.079   0.570   1.393
   85SOL    HW1  935   0.168   0.553   1.362
   85SOL    HW2  936   0.088   0.642   1.456
   86SOL     OW  937   0.572   0.232   1.160
   86SOL    HW1  938   0.595   0.139   1.170
   86SOL    HW2  939   0.481   0.236   1.190
   87SOL     OW  940   0.872   0.462   0.638
   87SOL    HW1  941   0.822   0.514   0.575
   87SOL    HW2  942   0.890   0.380   0.593
   88SOL     OW  943   0.995   0.042   0.778
   88SOL    HW1  944   0.957   0.066   0.693
   88SOL    HW2  945   1.005   3.947   0.774
   89SOL     OW  946   1.436   1.163   0.857
   89SOL    HW1  947   1.368   1.096   0.856
   89SOL    HW2  948   1.459   1.175   0.765
   90SOL     OW  949   1.466   0.604   0.978
   90SOL    HW1  950   1.415   0.523   0.984
   90SOL    HW2  951   1.527   0.599   1.052
   91SOL     OW  952   1.848   0.818   0.382
   91SOL    HW1  953   1.901   0.763   0.440
   91SOL    HW2  954   1.812   0.758   0.317
   92SOL     OW  955   0.497   1.378   0.168
   92SOL    HW1  956   0.420   1.360   0.222
   92SOL    HW2  957   0.462   1.409   0.084
   93SOL     OW  958   1.670   1.266   0.645
   93SOL    HW1  959   1.764   1.268   0.661
   93SOL    HW2  960   1.640   1.354   0.668
   94SOL     OW  961   1.417   0.590   0.086
   94SOL    HW1  962   1.348   0.574   0.150
   94SOL    HW2  963   1.473   0.512   0.092
   95SOL     OW  964   0.525   0.257   0.325
   95SOL    HW1  965   0.563   0.207   0.252
   95SOL    HW2  966   0.508   0.344   0.288
   96SOL     OW  967   1.753   1.238   1.575
   96SOL    HW1  968   1.840   1.199   1.571
   96SOL    HW2  969   1.768   1.328   1.603
   97SOL     OW  970   1.059   1.353   1.334
   97SOL    HW1  971   0.984   1.322   1.385
   97SOL    HW2  972   1.135   1.312   1.375
   98SOL     OW  973   1.606   1.625   1.652
   98SOL    HW1  974   1.602   1.661   1.564
   98SOL    HW2  975   1.690   1.579   1.656
   99SOL     OW  976   1.128   1.203   1.106
   99SOL    HW1  977   1.069   1.241   1.171
   99SOL    HW2  978   1.094   1.234   1.022
  100SOL     OW  979   1.629   1.099   1.078
  100SOL    HW1  980   1.624   1.161   1.151
  100SOL    HW2  981   1.549   1.116   1.027
  101SOL     OW  982   0.914   0.111   1.402
  101SOL    HW1  983   0.933   0.086   1.311
  101SOL    HW2  984   0.994   0.153   1.433
  102SOL     OW  985   0.984   1.115   1.723
  102SOL    HW1  986   0.892   1.130   1.743
  102SOL    HW2  987   0.983   1.037   1.667
  103SOL     OW  988   0.713   1.059   0.376
  103SOL    HW1  989   0.699   1.044   0.469
  103SOL    HW2  990   0.788   1.003   0.354
  104SOL     OW  991   0.420   0.815   1.252
  104SOL    HW1  992   0.489   0.822   1.318
  104SOL    HW2  993   0.385   0.727   1.262
  105SOL     OW  994   1.266   0.375   1.275
  105SOL    HW1  995   1.301   0.453   1.320
  105SOL    HW2  996   1.180   0.402   1.245
  106SOL     OW  997   0.064   1.579   1.345
  106SOL    HW1  998   0.067   1.646   1.276
  106SOL    HW2  999   0.156   1.566   1.369
  107SOL     OW 1000   0.368   1.104   0.484
  107SOL    HW1 1001   0.362   1.181   0.427
  107SOL    HW2 1002   0.381   1.031   0.423
  108SOL     OW 1003   0.556   0.537   0.859
  108SOL    HW1 1004   0.572   0.595   0.785
  108SOL    HW2 1005   0.620   0.564   0.925
  109SOL     OW 1006   1.249   1.346   0.396
  109SOL    HW1 1007   1.304   1.419   0.424
  109SOL    HW2 1008   1.161   1.369   0.428
  110SOL     OW 1009   1.279   1.457   1.147
  110SOL    HW1 1010   1.335   1.460   1.224
  110SOL    HW2 1011   1.225   1.380   1.160
  111SOL     OW 1012   1.585   0.634   0.488
  111SOL    HW1 1013   1.539   0.694   0.548
  111SOL    HW2 1014   1.618   0.691   0.418
  112SOL     OW 1015   0.345   1.526   1.320
  112SOL    HW1 1016   0.336   1.475   1.239
  112SOL    HW2 1017   0.440   1.541   1.327
  113SOL     OW 1018   0.413   0.739   1.601
  113SOL    HW1 1019   0.474   0.786   1.544
  113SOL    HW2 1020   0.453   0.654   1.614
  114SOL     OW 1021   1.600   0.778   1.682
  114SOL    HW1 1022   1.514   0.819   1.674
  114SOL    HW2 1023   1.653   0.819   1.614
  115SOL     OW 1024   1.019   0.123   1.777
  115SOL    HW1 1025   1.058   0.201   1.737
  115SOL    HW2 1026   1.008   0.061   1.705
  116SOL     OW 1027   0.479   0.036   1.767
  116SOL    HW1 1028   0.492   0.041   1.672
  116SOL    HW2 1029   0.419   0.108   1.787
  117SOL     OW 1030   0.584   0.874   1.031
  117SOL    HW1 1031   0.614   0.964   1.031
  117SOL    HW2 1032   0.528   0.867   1.108
  118SOL     OW 1033   1.358   0.859   1.031
  118SOL    HW1 1034   1.275   0.850   0.984
  118SOL    HW2 1035   1.398   0.772   1.026
  119SOL     OW 1036   1.217   0.545   0.271
  119SOL    HW1 1037   1.223   0.465   0.323
  119SOL    HW2 1038   1.162   0.604   0.323
  120SOL     OW 1039   0.313   0.214   1.241
  120SOL    HW1 1040   0.272   0.248   1.321
  120SOL    HW2 1041   0.295   0.120   1.244
  121SOL     OW 1042   0.057   1.305   1.280
  121SOL    HW1 1043   0.090   1.265   1.361
  121SOL    HW2 1044   0.050   1.398   1.300
  122SOL     OW 1045   0.727   0.634   1.056
  122SOL    HW1 1046   0.799   0.617   0.996
  122SOL    HW2 1047   0.697   0.723   1.034
  123SOL     OW 1048   1.734   0.959   1.852
  123SOL    HW1 1049   1.687   0.900   1.793
  123SOL    HW2 1050   1.675   0.972   1.926
  124SOL     OW 1051   0.328   0.059   0.650
  124SOL    HW1 1052   0.300   0.150   0.658
  124SOL    HW2 1053   0.279   0.013   0.718
  125SOL     OW 1054   1.575   0.388   0.391
  125SOL    HW1 1055   1.562   0.324   0.461
  125SOL    HW2 1056   1.568   0.473   0.433
  126SOL     OW 1057   1.028   0.760   0.961
  126SOL    HW1 1058   1.025   0.777   1.055
  126SOL    HW2 1059   1.001   0.668   0.952
  127SOL     OW 1060   0.982   1.566   1.716
  127SOL    HW1 1061   0.967   1.610   1.633
  127SOL    HW2 1062   1.026   1.484   1.693
  128SOL     OW 1063   1.855   1.506   1.605
  128SOL    HW1 1064   1.870   1.534   1.515
  128SOL    HW2 1065   1.938   1.520   1.650
  129SOL     OW 1066   0.351   0.921   1.800
  129SOL    HW1 1067   0.430   0.940   1.851
  129SOL    HW2 1068   0.379   0.854   1.738
  130SOL     OW 1069   1.541   0.268   0.146
  130SOL    HW1 1070   1.470   0.204   0.146
  130SOL    HW2 1071   1.539   0.306   0.234
  131SOL     OW 1072   1.292   0.831   0.055
  131SOL    HW1 1073   1.338   0.748   0.061
  131SOL    HW2 1074   1.311   0.863  13.867
  132SOL     OW 1075   1.064   1.335   0.853
  132SOL    HW1 1076   1.068   1.263   0.791
  132SOL    HW2 1077   1.127   1.399   0.819
  133SOL     OW 1078   0.314   0.806   0.951
  133SOL    HW1 1079   0.408   0.822   0.945
  133SOL    HW2 1080   0.306   0.716   0.983
  134SOL     OW 1081   0.338   0.527   1.013
  134SOL    HW1 1082   0.298   0.442   0.995
  134SOL    HW2 1083   0.413   0.531   0.954
  135SOL     OW 1084   1.133   0.383   1.692
  135SOL    HW1 1085   1.086   0.438   1.754
  135SOL    HW2 1086   1.221   0.421   1.687
  136SOL     OW 1087   1.151   0.225   1.481
  136SOL    HW1 1088   1.143   0.279   1.559
  136SOL    HW2 1089   1.174   0.286   1.411
  137SOL     OW 1090   0.010   1.326   0.188
  137SOL    HW1 1091   3.915   1.340   0.185
  137SOL    HW2 1092   0.019   1.235   0.218
  138SOL     OW 1093   0.076   1.801   0.889
  138SOL    HW1 1094   0.078   1.705   0.897
  138SOL    HW2 1095   0.168   1.826   0.893
  139SOL     OW 1096   0.504   1.570   0.910
  139SOL    HW1 1097   0.573   1.631   0.935
  139SOL    HW2 1098   0.547   1.507   0.853
  140SOL     OW 1099   0.984   0.792   1.226
  140SOL    HW1 1100   1.038   0.769   1.302
  140SOL    HW2 1101   0.898   0.755   1.246
  141SOL     OW 1102   0.037   0.568   1.113
  141SOL    HW1 1103   0.101   0.518   1.063
  141SOL    HW2 1104   0.061   0.554   1.204
  142SOL     OW 1105   0.209   0.516   1.721
  142SOL    HW1 1106   0.259   0.480   1.648
  142SOL    HW2 1107   0.159   0.588   1.683
  143SOL     OW 1108   1.377   0.939   1.658
  143SOL    HW1 1109   1.398   1.033   1.657
  143SOL    HW2 1110   1.374   0.914   1.566
  144SOL     OW 1111   0.815   0.579   0.367
  144SOL    HW1 1112   0.827   0.502   0.312
  144SOL    HW2 1113   0.740   0.625   0.328
  145SOL     OW 1114   1.642   0.602   1.187
  145SOL    HW1 1115   1.632   0.541   1.260
  145SOL    HW2 1116   1.729   0.583   1.152
  146SOL     OW 1117   0.297   1.546   1.730
  146SOL    HW1 1118   0.247   1.615   1.772
  146SOL    HW2 1119   0.263   1.465   1.768
  147SOL     OW 1120   0.701   0.457   1.260
  147SOL    HW1 1121   0.654   0.378   1.234
  147SOL    HW2 1122   0.695   0.515   1.185
  148SOL     OW 1123   0.928   1.679   1.467
  148SOL    HW1 1124   0.902   1.646   1.381
  148SOL    HW2 1125   0.925   1.774   1.458
  149SOL     OW 1126   0.439   0.494   0.229
  149SOL    HW1 1127   0.509   0.558   0.240
  149SOL    HW2 1128   0.364   0.545   0.198
  150SOL     OW 1129   0.157   1.136   1.472
  150SOL    HW1 1130   0.161   1.085   1.553
  150SOL    HW2 1131   0.172   1.072   1.403
  151SOL     OW 1132   1.327   1.047   1.224
  151SOL    HW1 1133   1.350   0.984   1.156
  151SOL    HW2 1134   1.256   1.099   1.185
  152SOL     OW 1135   1.310   0.858   0.325
  152SOL    HW1 1136   1.234   0.824   0.373
  152SOL    HW2 1137   1.289   0.845   0.233
  153SOL     OW 1138   1.760   1.742   1.148
  153SOL    HW1 1139   1.827   1.770   1.086
  153SOL    HW2 1140   1.742   1.651   1.125
  154SOL     OW 1141   1.242   1.734   1.113
  154SOL    HW1 1142   1.325   1.753   1.068
  154SOL    HW2 1143   1.247   1.640   1.132
  155SOL     OW 1144   0.076   1.217   1.027
  155SOL    HW1 1145   0.082   1.242   1.119
  155SOL    HW2 1146   3.983   1.224   1.007
  156SOL     OW 1147   0.679   1.665   1.728
  156SOL    HW1 1148   0.623   1.743   1.723
  156SOL    HW2 1149   0.743   1.677   1.658
  157SOL     OW 1150   0.904   0.105   0.138
  157SOL    HW1 1151   0.941   0.089   0.051
  157SOL    HW2 1152   0.913   0.021   0.183
  158SOL     OW 1153   1.703   0.128   0.491
  158SOL    HW1 1154   1.785   0.135   0.443
  158SOL    HW2 1155   1.694   0.034   0.510
  159SOL     OW 1156   1.389   1.572   0.483
  159SOL    HW1 1157   1.444   1.609   0.414
  159SOL    HW2 1158   1.339   1.647   0.517
  160SOL     OW 1159   0.173   1.767   1.828
  160SOL    HW1 1160   0.113   1.719   1.886
  160SOL    HW2 1161   0.215   1.831   1.885
  161SOL     OW 1162   1.276   0.926   0.671
  161SOL    HW1 1163   1.350   0.865   0.679
  161SOL    HW2 1164   1.310   0.998   0.619
  162SOL     OW 1165   0.816   1.273   1.431
  162SOL    HW1 1166   0.788   1.312   1.513
  162SOL    HW2 1167   0.744   1.292   1.370
  163SOL     OW 1168   0.677   1.583   0.184
  163SOL    HW1 1169   0.663   1.618   0.095
  163SOL    HW2 1170   0.629   1.500   0.184
  164SOL     OW 1171   1.626   1.728   1.391
  164SOL    HW1 1172   1.676   1.734   1.309
  164SOL    HW2 1173   1.617   1.818   1.420
  165SOL     OW 1174   1.838   0.176   0.968
  165SOL    HW1 1175   1.870   0.103   0.914
  165SOL    HW2 1176   1.751   0.194   0.934
  166SOL     OW 1177   0.271   0.322   0.715
  166SOL    HW1 1178   0.185   0.358   0.692
  166SOL    HW2 1179   0.265   0.304   0.809
  167SOL     OW 1180   1.215   1.602   0.033
  167SOL    HW1 1181   1.205   1.511   0.061
  167SOL    HW2 1182   1.179   1.604  13.845
  168SOL     OW 1183   0.824   1.005   1.372
  168SOL    HW1 1184   0.867   1.001   1.287
  168SOL    HW2 1185   0.824   1.098   1.395
  169SOL     OW 1186   0.920   0.910   0.287
  169SOL    HW1 1187   0.991   0.948   0.235
  169SOL    HW2 1188   0.961   0.839   0.335
  170SOL     OW 1189   1.486   1.638   0.066
  170SOL    HW1 1190   1.392   1.625   0.052
  170SOL    HW2 1191   1.523   1.638  13.878
  171SOL     OW 1192   0.373   1.302   1.491
  171SOL    HW1 1193   0.358   1.383   1.442
  171SOL    HW2 1194   0.296   1.248   1.474
  172SOL     OW 1195   1.611   1.283   1.280
  172SOL    HW1 1196   1.671   1.273   1.354
  172SOL    HW2 1197   1.551   1.353   1.307
  173SOL     OW 1198   1.051   1.106   0.705
  173SOL    HW1 1199   0.980   1.055   0.745
  173SOL    HW2 1200   1.114   1.041   0.675
  174SOL     OW 1201   1.015   0.247   0.967
  174SOL    HW1 1202   1.004   0.198   0.886
  174SOL    HW2 1203   1.008   0.182   1.037
  175SOL     OW 1204   0.604   1.489   0.483
  175SOL    HW1 1205   0.646   1.438   0.414
  175SOL    HW2 1206   0.535   1.538   0.438
  176SOL     OW 1207   1.719   0.392   1.374
  176SOL    HW1 1208   1.791   0.455   1.377
  176SOL    HW2 1209   1.753   0.320   1.320
  177SOL     OW 1210   0.262   1.318   0.306
  177SOL    HW1 1211   0.186   1.348   0.257
  177SOL    HW2 1212   0.259   1.367   0.388
  178SOL     OW 1213   0.105   1.001   1.718
  178SOL    HW1 1214   0.045   0.990   1.791
  178SOL    HW2 1215   0.191   0.980   1.755
  179SOL     OW 1216   0.693   0.245   1.497
  179SOL    HW1 1217   0.763   0.192   1.456
  179SOL    HW2 1218   0.719   0.252   1.588
  180SOL     OW 1219   0.067   0.366   0.039
  180SOL    HW1 1220   3.974   0.364   0.061
  180SOL    HW2 1221   0.069   0.394  13.848
  181SOL     OW 1222   1.430   0.857   1.400
  181SOL    HW1 1223   1.382   0.919   1.345
  181SOL    HW2 1224   1.519   0.860   1.367
  182SOL     OW 1225   0.052   0.198   0.320
  182SOL    HW1 1226   0.069   0.271   0.261
  182SOL    HW2 1227   0.137   0.154   0.329
  183SOL     OW 1228   1.185   1.349   0.122
  183SOL    HW1 1229   1.092   1.331   0.111
  183SOL    HW2 1230   1.201   1.335   0.215
  184SOL     OW 1231   0.619   0.830   1.435
  184SOL    HW1 1232   0.675   0.905   1.419
  184SOL    HW2 1233   0.679   0.756   1.443
  185SOL     OW 1234   1.488   1.779   0.978
  185SOL    HW1 1235   1.512   1.841   0.910
  185SOL    HW2 1236   1.570   1.762   1.025
  186SOL     OW 1237   0.717   0.564   1.707
  186SOL    HW1 1238   0.758   0.627   1.767
  186SOL    HW2 1239   0.748   0.478   1.737
  187SOL     OW 1240   1.470   1.201   1.632
  187SOL    HW1 1241   1.458   1.214   1.726
  187SOL    HW2 1242   1.564   1.215   1.618
  188SOL     OW 1243   0.380   1.741   1.559
  188SOL    HW1 1244   0.293   1.779   1.546
  188SOL    HW2 1245   0.365   1.660   1.607
  189SOL     OW 1246   1.670   0.882   1.256
  189SOL    HW1 1247   1.664   0.796   1.213
  189SOL    HW2 1248   1.661   0.945   1.184
  190SOL     OW 1249   1.230   0.333   0.440
  190SOL    HW1 1250   1.294   0.262   0.435
  190SOL    HW2 1251   1.249   0.376   0.524
  191SOL     OW 1252   0.591   0.739   0.669
  191SOL    HW1 1253   0.628   0.826   0.652
  191SOL    HW2 1254   0.521   0.730   0.604
  192SOL     OW 1255   1.754   0.381   1.643
  192SOL    HW1 1256   1.736   0.385   1.549
  192SOL    HW2 1257   1.697   0.311   1.675
  193SOL     OW 1258   1.744   0.934   1.513
  193SOL    HW1 1259   1.743   1.029   1.525
  193SOL    HW2 1260   1.729   0.922   1.419
  194SOL     OW 1261   0.905   1.396   0.057
  194SOL    HW1 1262   0.834   1.380   0.119
  194SOL    HW2 1263   0.861   1.413  13.874
  195SOL     OW 1264   0.661   1.791   0.944
  195SOL    HW1 1265   0.640   1.882   0.922
  195SOL    HW2 1266   0.756   1.786   0.938
  196SOL     OW 1267   0.867   0.966   0.854
  196SOL    HW1 1268   0.917   0.895   0.894
  196SOL    HW2 1269   0.833   1.016   0.929
  197SOL     OW 1270   1.098   1.007   0.108
  197SOL    HW1 1271   1.086   1.054   0.025
  197SOL    HW2 1272   1.173   0.950   0.092
  198SOL     OW 1273   1.849   1.526   0.822
  198SOL    HW1 1274   1.761   1.533   0.785
  198SOL    HW2 1275   1.837   1.478   0.904
  199SOL     OW 1276   0.223   1.303   1.855
  199SOL    HW1 1277   0.153   1.244   1.830
  199SOL    HW2 1278   0.211   1.317   1.949
  200SOL     OW 1279   0.108   1.275   0.722
  200SOL    HW1 1280   0.121   1.224   0.802
  200SOL    HW2 1281   0.109   1.210   0.651
  201SOL     OW 1282   0.680   1.402   1.627
  201SOL    HW1 1283   0.600   1.359   1.657
  201SOL    HW2 1284   0.675   1.490   1.665
  202SOL     OW 1285   1.813   0.184   1.239
  202SOL    HW1 1286   1.815   0.089   1.253
  202SOL    HW2 1287   1.827   0.195   1.145
  203SOL     OW 1288   0.438   0.435   0.530
  203SOL    HW1 1289   0.466   0.362   0.476
  203SOL    HW2 1290   0.386   0.395   0.600
  204SOL     OW 1291   1.703   1.485   1.091
  204SOL    HW1 1292   1.620   1.463   1.050
  204SOL    HW2 1293   1.714   1.418   1.159
  205SOL     OW 1294   0.330   0.555   1.292
  205SOL    HW1 1295   0.387   0.498   1.345
  205SOL    HW2 1296   0.346   0.526   1.202
  206SOL     OW 1297   0.827   1.578   0.678
  206SOL    HW1 1298   0.816   1.631   0.599
  206SOL    HW2 1299   0.749   1.521   0.679
  207SOL     OW 1300   1.461   0.251   1.111
  207SOL    HW1 1301   1.477   0.164   1.147
  207SOL    HW2 1302   1.403   0.293   1.175
  208SOL     OW 1303   1.006   0.030   1.147
  208SOL    HW1 1304   0.930   3.981   1.117
  208SOL    HW2 1305   1.075   3.964   1.155
  209SOL     OW 1306   0.773   1.323   0.318
  209SOL    HW1 1307   0.741   1.235   0.333
  209SOL    HW2 1308   0.858   1.326   0.364
  210SOL     OW 1309   0.620   1.558   1.284
  210SOL    HW1 1310   0.623   1.639   1.335
  210SOL    HW2 1311   0.707   1.550   1.247
  211SOL     OW 1312   1.325   0.069   0.137
  211SOL    HW1 1313   1.347   3.991   0.087
  211SOL    HW2 1314   1.253   0.041   0.194
  212SOL     OW 1315   1.285   0.457   0.686
  212SOL    HW1 1316   1.236   0.540   0.683
  212SOL    HW2 1317   1.289   0.435   0.779
  213SOL     OW 1318   1.588   0.210   0.867
  213SOL    HW1 1319   1.538   0.232   0.946
  213SOL    HW2 1320   1.588   0.291   0.815
  214SOL     OW 1321   0.040   1.036   0.253
  214SOL    HW1 1322   0.135   1.023   0.250
  214SOL    HW2 1323   0.008   0.963   0.306
  215SOL     OW 1324   0.892   1.652   0.344
  215SOL    HW1 1325   0.819   1.622   0.291
  215SOL    HW2 1326   0.856   1.726   0.394
  216SOL     OW 1327   0.233   0.625   1.981
  216SOL    HW1 1328   0.140   0.631   2.003
  216SOL    HW2 1329   0.234   0.596   1.890
  217SOL     OW 1330   0.225   0.286   2.845
  217SOL    HW1 1331   0.249   0.250   2.931
  217SOL    HW2 1332   0.131   0.270   2.838
  218SOL     OW 1333   0.018   0.387   2.496
  218SOL    HW1 1334   3.929   0.397   2.532
  218SOL    HW2 1335   0.025   0.294   2.477
  219SOL     OW 1336   0.577   1.282   3.045
  219SOL    HW1 1337   0.490   1.286   3.005
  219SOL    HW2 1338   0.591   1.371   3.079
  220SOL     OW 1339   1.562   1.513   2.570
  220SOL    HW1 1340   1.518   1.494   2.653
  220SOL    HW2 1341   1.490   1.519   2.506
  221SOL     OW 1342   1.132   0.698   2.563
  221SOL    HW1 1343   1.180   0.780   2.550
  221SOL    HW2 1344   1.084   0.712   2.645
  222SOL     OW 1345   1.760   0.618   2.090
  222SOL    HW1 1346   1.742   0.609   1.996
  222SOL    HW2 1347   1.751   0.529   2.125
  223SOL     OW 1348   0.758   1.142   2.901
  223SOL    HW1 1349   0.691   1.176   2.960
  223SOL    HW2 1350   0.792   1.220   2.856
  224SOL     OW 1351   0.866   0.777   3.684
  224SOL    HW1 1352   0.855   0.848   3.747
  224SOL    HW2 1353   0.889   0.820   3.602
  225SOL     OW 1354   0.686   1.005   2.509
  225SOL    HW1 1355   0.751   0.991   2.578
  225SOL    HW2 1356   0.616   1.055   2.552
  226SOL     OW 1357   0.709   1.150   3.674
  226SOL    HW1 1358   0.757   1.229   3.700
  226SOL    HW2 1359   0.626   1.183   3.639
  227SOL     OW 1360   0.351   1.403   2.941
  227SOL    HW1 1361   0.269   1.385   2.894
  227SOL    HW2 1362   0.399   1.462   2.883
  228SOL     OW 1363   1.461   1.500   3.215
  228SOL    HW1 1364   1.511   1.581   3.224
  228SOL    HW2 1365   1.402   1.499   3.290
  229SOL     OW 1366   0.453   0.407   3.361
  229SOL    HW1 1367   0.534   0.355   3.357
  229SOL    HW2 1368   0.383   0.342   3.363
  230SOL     OW 1369   1.613   0.451   2.597
  230SOL    HW1 1370   1.540   0.482   2.543
  230SOL    HW2 1371   1.635   0.525   2.652
  231SOL     OW 1372   0.223   1.717   2.322
  231SOL    HW1 1373   0.241   1.792   2.378
  231SOL    HW2 1374   0.300   1.710   2.266
  232SOL     OW 1375   1.136   1.341   3.554
  232SOL    HW1 1376   1.177   1.337   3.641
  232SOL    HW2 1377   1.084   1.262   3.548
  233SOL     OW 1378   0.246   1.447   2.401
  233SOL    HW1 1379   0.214   1.537   2.389
  233SOL    HW2 1380   0.178   1.405   2.454
  234SOL     OW 1381   0.246   1.069   2.747
  234SOL    HW1 1382   0.264   0.985   2.788
  234SOL    HW2 1383   0.194   1.117   2.811
  235SOL     OW 1384   0.614   1.791   3.292
  235SOL    HW1 1385   0.531   1.773   3.337
  235SOL    HW2 1386   0.635   1.881   3.317
  236SOL     OW 1387   0.582   0.983   1.998
  236SOL    HW1 1388   0.628   1.030   1.928
  236SOL    HW2 1389   0.625   1.012   2.078
  237SOL     OW 1390   1.578   0.136   3.319
  237SOL    HW1 1391   1.604   0.210   3.264
  237SOL    HW2 1392   1.554   0.176   3.403
  238SOL     OW 1393   0.138   0.649   2.431
  238SOL    HW1 1394   0.095   0.564   2.437
  238SOL    HW2 1395   0.102   0.700   2.504
  239SOL     OW 1396   0.043   1.591   2.001
  239SOL    HW1 1397   0.032   1.498   2.023
  239SOL    HW2 1398   3.965   1.633   2.036
  240SOL     OW 1399   1.687   0.917   2.501
  240SOL    HW1 1400   1.773   0.878   2.484
  240SOL    HW2 1401   1.668   0.969   2.423
  241SOL     OW 1402   1.646   1.108   2.292
  241SOL    HW1 1403   1.732   1.114   2.250
  241SOL    HW2 1404   1.651   1.168   2.365
  242SOL     OW 1405   0.135   0.754   3.452
  242SOL    HW1 1406   0.230   0.748   3.454
  242SOL    HW2 1407   0.116   0.845   3.471
  243SOL     OW 1408   0.612   1.384   2.598
  243SOL    HW1 1409   0.566   1.301   2.607
  243SOL    HW2 1410   0.596   1.410   2.507
  244SOL     OW 1411   1.289   1.238   3.286
  244SOL    HW1 1412   1.321   1.171   3.226
  244SOL    HW2 1413   1.346   1.232   3.362
  245SOL     OW 1414   0.817   0.002   2.376
  245SOL    HW1 1415   0.862   0.083   2.355
  245SOL    HW2 1416   0.724   0.025   2.378
  246SOL     OW 1417   0.185   0.954   3.137
  246SOL    HW1 1418   0.274   0.919   3.124
  246SOL    HW2 1419   0.131   0.908   3.073
  247SOL     OW 1420   1.532   0.993   2.060
  247SOL    HW1 1421   1.462   0.936   2.092
  247SOL    HW2 1422   1.572   1.027   2.140
  248SOL     OW 1423   1.185   1.806   3.484
  248SOL    HW1 1424   1.198   1.864   3.409
  248SOL    HW2 1425   1.201   1.718   3.449
  249SOL     OW 1426   0.341   0.254   3.687
  249SOL    HW1 1427   0.385   0.338   3.675
  249SOL    HW2 1428   0.250   0.278   3.709
  250SOL     OW 1429   1.465   1.420   2.814
  250SOL    HW1 1430   1.397   1.435   2.880
  250SOL    HW2 1431   1.453   1.329   2.787
  251SOL     OW 1432   1.668   1.728   2.422
  251SOL    HW1 1433   1.629   1.694   2.341
  251SOL    HW2 1434   1.646   1.663   2.488
  252SOL     OW 1435   0.595   0.719   2.125
  252SOL    HW1 1436   0.602   0.802   2.078
  252SOL    HW2 1437   0.533   0.737   2.196
  253SOL     OW 1438   1.276   0.364   2.802
  253SOL    HW1 1439   1.189   0.325   2.808
  253SOL    HW2 1440   1.333   0.303   2.849
  254SOL     OW 1441   1.576   1.669   2.163
  254SOL    HW1 1442   1.660   1.711   2.145
  254SOL    HW2 1443   1.543   1.644   2.077
  255SOL     OW 1444   0.795   0.616   3.316
  255SOL    HW1 1445   0.765   0.592   3.404
  255SOL    HW2 1446   0.754   0.552   3.259
  256SOL     OW 1447   1.393   0.477   3.539
  256SOL    HW1 1448   1.397   0.521   3.624
  256SOL    HW2 1449   1.453   0.403   3.548
  257SOL     OW 1450   0.956   0.888   3.444
  257SOL    HW1 1451   1.010   0.818   3.409
  257SOL    HW2 1452   0.907   0.921   3.368
  258SOL     OW 1453   0.991   0.404   3.103
  258SOL    HW1 1454   0.908   0.429   3.144
  258SOL    HW2 1455   0.965   0.372   3.016
  259SOL     OW 1456   1.051   0.699   2.288
  259SOL    HW1 1457   1.066   0.691   2.383
  259SOL    HW2 1458   0.969   0.652   2.273
  260SOL     OW 1459   0.081   0.824   2.653
  260SOL    HW1 1460   0.159   0.794   2.699
  260SOL    HW2 1461   0.093   0.919   2.645
  261SOL     OW 1462   0.129   1.855   3.435
  261SOL    HW1 1463   0.137   1.822   3.524
  261SOL    HW2 1464   0.037   1.843   3.413
  262SOL     OW 1465   0.892   0.350   2.060
  262SOL    HW1 1466   0.934   0.409   1.997
  262SOL    HW2 1467   0.894   0.264   2.018
  263SOL     OW 1468   1.711   0.576   3.691
  263SOL    HW1 1469   1.672   0.650   3.644
  263SOL    HW2 1470   1.735   0.514   3.622
  264SOL     OW 1471   1.376   1.142   2.403
  264SOL    HW1 1472   1.456   1.130   2.351
  264SOL    HW2 1473   1.324   1.204   2.353
  265SOL     OW 1474   0.559   0.195   2.744
  265SOL    HW1 1475   0.562   0.216   2.837
  265SOL    HW2 1476   0.548   0.279   2.701
  266SOL     OW 1477   1.006   1.445   2.334
  266SOL    HW1 1478   0.968   1.517   2.285
  266SOL    HW2 1479   0.990   1.466   2.426
  267SOL     OW 1480   0.365   1.813   2.728
  267SOL    HW1 1481   0.429   1.742   2.734
  267SOL    HW2 1482   0.415   1.893   2.744
  268SOL     OW 1483   1.799   1.056   2.731
  268SOL    HW1 1484   1.743   1.042   2.654
  268SOL    HW2 1485   1.737   1.062   2.804
  269SOL     OW 1486   1.228   1.539   3.375
  269SOL    HW1 1487   1.214   1.466   3.435
  269SOL    HW2 1488   1.166   1.523   3.304
  270SOL     OW 1489   0.310   0.955   2.104
  270SOL    HW1 1490   0.395   0.978   2.066
  270SOL    HW2 1491   0.296   0.864   2.079
  271SOL     OW 1492   1.477   0.742   2.592
  271SOL    HW1 1493   1.469   0.699   2.677
  271SOL    HW2 1494   1.554   0.798   2.601
  272SOL     OW 1495   0.465   1.260   3.599
  272SOL    HW1 1496   0.439   1.268   3.507
  272SOL    HW2 1497   0.383   1.265   3.648
  273SOL     OW 1498   1.121   1.777   2.093
  273SOL    HW1 1499   1.048   1.735   2.139
  273SOL    HW2 1500   1.143   1.716   2.023
  274SOL     OW 1501   0.199   0.296   3.360
  274SOL    HW1 1502   0.106   0.317   3.357
  274SOL    HW2 1503   0.207   0.231   3.431
  275SOL     OW 1504   1.628   1.378   1.949
  275SOL    HW1 1505   1.588   1.464   1.933
  275SOL    HW2 1506   1.559   1.315   1.930
  276SOL     OW 1507   0.466   1.739   2.180
  276SOL    HW1 1508   0.508   1.797   2.244
  276SOL    HW2 1509   0.539   1.707   2.126
  277SOL     OW 1510   1.437   0.159   2.267
  277SOL    HW1 1511   1.395   0.094   2.211
  277SOL    HW2 1512   1.514   0.115   2.303
  278SOL     OW 1513   0.250   1.792   3.094
  278SOL    HW1 1514   0.299   1.729   3.148
  278SOL    HW2 1515   0.245   1.750   3.008
  279SOL     OW 1516   0.937   1.698   2.762
  279SOL    HW1 1517   1.016   1.647   2.782
  279SOL    HW2 1518   0.893   1.649   2.693
  280SOL     OW 1519   0.394   0.694   2.335
  280SOL    HW1 1520   0.422   0.604   2.348
  280SOL    HW2 1521   0.302   0.696   2.360
  281SOL     OW 1522   1.531   0.232   3.589
  281SOL    HW1 1523   1.531   0.256   3.681
  281SOL    HW2 1524   1.501   0.141   3.588
  282SOL     OW 1525   0.642   0.135   1.963
  282SOL    HW1 1526   0.674   0.056   2.006
  282SOL    HW2 1527   0.580   0.104   1.897
  283SOL     OW 1528   0.778   0.282   3.625
  283SOL    HW1 1529   0.844   0.213   3.631
  283SOL    HW2 1530   0.717   0.263   3.697
  284SOL     OW 1531   0.876   1.521   3.056
  284SOL    HW1 1532   0.861   1.485   2.968
  284SOL    HW2 1533   0.946   1.467   3.093
  285SOL     OW 1534   1.342   0.587   3.292
  285SOL    HW1 1535   1.372   0.558   3.378
  285SOL    HW2 1536   1.376   0.676   3.284
  286SOL     OW 1537   0.814   1.396   2.800
  286SOL    HW1 1538   0.899   1.385   2.757
  286SOL    HW2 1539   0.750   1.395   2.728
  287SOL     OW 1540   0.929   0.511   2.764
  287SOL    HW1 1541   0.905   0.503   2.672
  287SOL    HW2 1542   0.957   0.423   2.790
  288SOL     OW 1543   0.546   0.056   2.352
  288SOL    HW1 1544   0.471   0.064   2.412
  288SOL    HW2 1545   0.548   0.141   2.307
  289SOL     OW 1546   1.428   1.198   1.903
  289SOL    HW1 1547   1.458   1.122   1.953
  289SOL    HW2 1548   1.342   1.218   1.941
  290SOL     OW 1549   0.335   0.044   2.057
  290SOL    HW1 1550   0.363   0.087   1.976
  290SOL    HW2 1551   0.415   0.028   2.106
  291SOL     OW 1552   0.938   0.247   2.326
  291SOL    HW1 1553   0.911   0.289   2.244
  291SOL    HW2 1554   1.034   0.249   2.323
  292SOL     OW 1555   1.079   0.681   3.321
  292SOL    HW1 1556   1.008   0.617   3.328
  292SOL    HW2 1557   1.159   0.628   3.316
  293SOL     OW 1558   1.223   1.570   2.656
  293SOL    HW1 1559   1.241   1.637   2.590
  293SOL    HW2 1560   1.292   1.582   2.722
  294SOL     OW 1561   0.466   1.150   2.601
  294SOL    HW1 1562   0.393   1.126   2.658
  294SOL    HW2 1563   0.433   1.133   2.512
  295SOL     OW 1564   1.268   1.794   2.469
  295SOL    HW1 1565   1.312   1.856   2.411
  295SOL    HW2 1566   1.203   1.846   2.516
  296SOL     OW 1567   1.024   0.546   1.886
  296SOL    HW1 1568   0.981   0.630   1.866
  296SOL    HW2 1569   1.087   0.567   1.955
  297SOL     OW 1570   0.079   0.570   3.255
  297SOL    HW1 1571   0.168   0.553   3.224
  297SOL    HW2 1572   0.088   0.642   3.318
  298SOL     OW 1573   0.572   0.232   3.022
  298SOL    HW1 1574   0.595   0.139   3.032
  298SOL    HW2 1575   0.481   0.236   3.052
  299SOL     OW 1576   0.872   0.462   2.501
  299SOL    HW1 1577   0.820   0.513   2.439
  299SOL    HW2 1578   0.890   0.380   2.455
  300SOL     OW 1579   0.994   0.042   2.641
  300SOL    HW1 1580   0.961   0.066   2.555
  300SOL    HW2 1581   1.005   3.947   2.636
  301SOL     OW 1582   1.437   1.163   2.720
  301SOL    HW1 1583   1.368   1.096   2.718
  301SOL    HW2 1584   1.461   1.175   2.628
  302SOL     OW 1585   1.466   0.604   2.840
  302SOL    HW1 1586   1.415   0.523   2.846
  302SOL    HW2 1587   1.527   0.599   2.914
  303SOL     OW 1588   1.847   0.820   2.246
  303SOL    HW1 1589   1.902   0.767   2.303
  303SOL    HW2 1590   1.815   0.758   2.180
  304SOL     OW 1591   0.489   1.417   2.024
  304SOL    HW1 1592   0.414   1.385   2.074
  304SOL    HW2 1593   0.469   1.393   1.933
  305SOL     OW 1594   1.669   1.265   2.509
  305SOL    HW1 1595   1.764   1.267   2.522
  305SOL    HW2 1596   1.640   1.354   2.530
  306SOL     OW 1597   1.395   0.573   1.932
  306SOL    HW1 1598   1.332   0.555   2.002
  306SOL    HW2 1599   1.480   0.552   1.969
  307SOL     OW 1600   0.558   0.270   2.182
  307SOL    HW1 1601   0.599   0.229   2.106
  307SOL    HW2 1602   0.529   0.356   2.151
  308SOL     OW 1603   1.753   1.238   3.437
  308SOL    HW1 1604   1.840   1.199   3.433
  308SOL    HW2 1605   1.768   1.328   3.465
  309SOL     OW 1606   1.059   1.354   3.196
  309SOL    HW1 1607   0.984   1.322   3.247
  309SOL    HW2 1608   1.135   1.312   3.237
  310SOL     OW 1609   1.606   1.625   3.514
  310SOL    HW1 1610   1.602   1.661   3.426
  310SOL    HW2 1611   1.690   1.579   3.518
  311SOL     OW 1612   1.128   1.203   2.968
  311SOL    HW1 1613   1.069   1.241   3.033
  311SOL    HW2 1614   1.094   1.234   2.884
  312SOL     OW 1615   1.629   1.099   2.940
  312SOL    HW1 1616   1.624   1.161   3.012
  312SOL    HW2 1617   1.549   1.116   2.889
  313SOL     OW 1618   0.914   0.111   3.264
  313SOL    HW1 1619   0.933   0.087   3.173
  313SOL    HW2 1620   0.994   0.153   3.295
  314SOL     OW 1621   0.984   1.115   3.585
  314SOL    HW1 1622   0.892   1.130   3.605
  314SOL    HW2 1623   0.983   1.037   3.529
  315SOL     OW 1624   0.708   1.060   2.233
  315SOL    HW1 1625   0.694   1.046   2.327
  315SOL    HW2 1626   0.784   1.007   2.211
  316SOL     OW 1627   0.420   0.815   3.114
  316SOL    HW1 1628   0.489   0.822   3.180
  316SOL    HW2 1629   0.385   0.727   3.124
  317SOL     OW 1630   1.266   0.375   3.137
  317SOL    HW1 1631   1.301   0.453   3.182
  317SOL    HW2 1632   1.180   0.402   3.106
  318SOL     OW 1633   0.064   1.579   3.207
  318SOL    HW1 1634   0.067   1.647   3.139
  318SOL    HW2 1635   0.156   1.566   3.231
  319SOL     OW 1636   0.375   1.103   2.348
  319SOL    HW1 1637   0.367   1.180   2.292
  319SOL    HW2 1638   0.373   1.029   2.287
  320SOL     OW 1639   0.556   0.538   2.722
  320SOL    HW1 1640   0.572   0.595   2.647
  320SOL    HW2 1641   0.620   0.565   2.787
  321SOL     OW 1642   1.248   1.348   2.251
  321SOL    HW1 1643   1.303   1.419   2.283
  321SOL    HW2 1644   1.161   1.369   2.285
  322SOL     OW 1645   1.280   1.457   3.009
  322SOL    HW1 1646   1.336   1.460   3.086
  322SOL    HW2 1647   1.225   1.380   3.022
  323SOL     OW 1648   1.578   0.632   2.346
  323SOL    HW1 1649   1.538   0.692   2.408
  323SOL    HW2 1650   1.625   0.688   2.285
  324SOL     OW 1651   0.346   1.526   3.182
  324SOL    HW1 1652   0.336   1.475   3.101
  324SOL    HW2 1653   0.440   1.541   3.189
  325SOL     OW 1654   0.413   0.739   3.463
  325SOL    HW1 1655   0.474   0.786   3.406
  325SOL    HW2 1656   0.453   0.654   3.477
  326SOL     OW 1657   1.600   0.778   3.544
  326SOL    HW1 1658   1.514   0.819   3.536
  326SOL    HW2 1659   1.653   0.819   3.476
  327SOL     OW 1660   1.019   0.123   3.639
  327SOL    HW1 1661   1.058   0.201   3.599
  327SOL    HW2 1662   1.008   0.061   3.567
  328SOL     OW 1663   0.479   0.036   3.629
  328SOL    HW1 1664   0.492   0.041   3.534
  328SOL    HW2 1665   0.419   0.108   3.649
  329SOL     OW 1666   0.584   0.873   2.893
  329SOL    HW1 1667   0.614   0.964   2.893
  329SOL    HW2 1668   0.528   0.867   2.970
  330SOL     OW 1669   1.358   0.859   2.893
  330SOL    HW1 1670   1.276   0.850   2.846
  330SOL    HW2 1671   1.398   0.772   2.888
  331SOL     OW 1672   1.204   0.535   2.125
  331SOL    HW1 1673   1.213   0.455   2.178
  331SOL    HW2 1674   1.161   0.597   2.183
  332SOL     OW 1675   0.312   0.214   3.103
  332SOL    HW1 1676   0.272   0.249   3.183
  332SOL    HW2 1677   0.294   0.120   3.106
  333SOL     OW 1678   0.057   1.305   3.142
  333SOL    HW1 1679   0.090   1.265   3.222
  333SOL    HW2 1680   0.051   1.398   3.162
  334SOL     OW 1681   0.727   0.634   2.919
  334SOL    HW1 1682   0.799   0.617   2.859
  334SOL    HW2 1683   0.697   0.723   2.896
  335SOL     OW 1684   1.734   0.959   3.714
  335SOL    HW1 1685   1.687   0.900   3.655
  335SOL    HW2 1686   1.675   0.972   3.788
  336SOL     OW 1687   0.326   0.056   2.511
  336SOL    HW1 1688   0.297   0.147   2.512
  336SOL    HW2 1689   0.286   0.017   2.589
  337SOL     OW 1690   1.602   0.387   2.245
  337SOL    HW1 1691   1.575   0.319   2.307
  337SOL    HW2 1692   1.582   0.470   2.289
  338SOL     OW 1693   1.028   0.760   2.823
  338SOL    HW1 1694   1.025   0.777   2.917
  338SOL    HW2 1695   1.001   0.668   2.814
  339SOL     OW 1696   0.982   1.566   3.578
  339SOL    HW1 1697   0.967   1.610   3.495
  339SOL    HW2 1698   1.026   1.484   3.555
  340SOL     OW 1699   1.855   1.506   3.467
  340SOL    HW1 1700   1.870   1.534   3.377
  340SOL    HW2 1701   1.938   1.520   3.512
  341SOL     OW 1702   0.351   0.920   3.662
  341SOL    HW1 1703   0.430   0.940   3.713
  341SOL    HW2 1704   0.379   0.854   3.600
  342SOL     OW 1705   1.509   0.276   1.998
  342SOL    HW1 1706   1.434   0.218   2.011
  342SOL    HW2 1707   1.523   0.317   2.084
  343SOL     OW 1708   1.292   0.827   1.893
  343SOL    HW1 1709   1.334   0.741   1.896
  343SOL    HW2 1710   1.323   0.866   1.812
  344SOL     OW 1711   1.065   1.336   2.715
  344SOL    HW1 1712   1.068   1.263   2.653
  344SOL    HW2 1713   1.127   1.400   2.681
  345SOL     OW 1714   0.313   0.806   2.813
  345SOL    HW1 1715   0.407   0.822   2.807
  345SOL    HW2 1716   0.307   0.716   2.845
  346SOL     OW 1717   0.337   0.527   2.875
  346SOL    HW1 1718   0.298   0.442   2.857
  346SOL    HW2 1719   0.413   0.531   2.816
  347SOL     OW 1720   1.133   0.383   3.554
  347SOL    HW1 1721   1.086   0.438   3.616
  347SOL    HW2 1722   1.221   0.421   3.549
  348SOL     OW 1723   1.151   0.225   3.343
  348SOL    HW1 1724   1.143   0.279   3.421
  348SOL    HW2 1725   1.174   0.286   3.273
  349SOL     OW 1726   3.999   1.320   2.044
  349SOL    HW1 1727   3.905   1.336   2.048
  349SOL    HW2 1728   0.009   1.226   2.064
  350SOL     OW 1729   0.076   1.801   2.751
  350SOL    HW1 1730   0.078   1.705   2.760
  350SOL    HW2 1731   0.168   1.827   2.755
  351SOL     OW 1732   0.504   1.570   2.772
  351SOL    HW1 1733   0.573   1.631   2.797
  351SOL    HW2 1734   0.547   1.507   2.715
  352SOL     OW 1735   0.984   0.792   3.088
  352SOL    HW1 1736   1.038   0.769   3.164
  352SOL    HW2 1737   0.898   0.755   3.108
  353SOL     OW 1738   0.036   0.567   2.975
  353SOL    HW1 1739   0.103   0.519   2.925
  353SOL    HW2 1740   0.061   0.554   3.066
  354SOL     OW 1741   0.209   0.516   3.583
  354SOL    HW1 1742   0.259   0.481   3.510
  354SOL    HW2 1743   0.159   0.589   3.545
  355SOL     OW 1744   1.377   0.939   3.520
  355SOL    HW1 1745   1.398   1.033   3.519
  355SOL    HW2 1746   1.374   0.914   3.428
  356SOL     OW 1747   0.817   0.572   2.219
  356SOL    HW1 1748   0.822   0.495   2.163
  356SOL    HW2 1749   0.742   0.621   2.187
  357SOL     OW 1750   1.642   0.602   3.049
  357SOL    HW1 1751   1.632   0.541   3.122
  357SOL    HW2 1752   1.729   0.583   3.014
  358SOL     OW 1753   0.297   1.546   3.592
  358SOL    HW1 1754   0.247   1.615   3.634
  358SOL    HW2 1755   0.263   1.465   3.630
  359SOL     OW 1756   0.701   0.457   3.122
  359SOL    HW1 1757   0.654   0.378   3.096
  359SOL    HW2 1758   0.695   0.515   3.047
  360SOL     OW 1759   0.928   1.679   3.329
  360SOL    HW1 1760   0.902   1.646   3.243
  360SOL    HW2 1761   0.925   1.774   3.320
  361SOL     OW 1762   0.458   0.492   2.056
  361SOL    HW1 1763   0.522   0.561   2.074
  361SOL    HW2 1764   0.377   0.539   2.036
  362SOL     OW 1765   0.157   1.136   3.334
  362SOL    HW1 1766   0.161   1.085   3.415
  362SOL    HW2 1767   0.172   1.072   3.265
  363SOL     OW 1768   1.327   1.047   3.086
  363SOL    HW1 1769   1.350   0.984   3.018
  363SOL    HW2 1770   1.256   1.099   3.047
  364SOL     OW 1771   1.311   0.856   2.168
  364SOL    HW1 1772   1.235   0.827   2.219
  364SOL    HW2 1773   1.286   0.843   2.077
  365SOL     OW 1774   1.757   1.742   3.008
  365SOL    HW1 1775   1.826   1.769   2.948
  365SOL    HW2 1776   1.740   1.651   2.986
  366SOL     OW 1777   1.242   1.734   2.975
  366SOL    HW1 1778   1.325   1.753   2.930
  366SOL    HW2 1779   1.247   1.640   2.994
  367SOL     OW 1780   0.076   1.218   2.889
  367SOL    HW1 1781   0.083   1.243   2.981
  367SOL    HW2 1782   3.983   1.225   2.868
  368SOL     OW 1783   0.679   1.665   3.590
  368SOL    HW1 1784   0.623   1.743   3.585
  368SOL    HW2 1785   0.743   1.677   3.520
  369SOL     OW 1786   1.710   0.127   2.348
  369SOL    HW1 1787   1.791   0.133   2.296
  369SOL    HW2 1788   1.702   0.034   2.368
  370SOL     OW 1789   1.390   1.567   2.347
  370SOL    HW1 1790   1.447   1.599   2.277
  370SOL    HW2 1791   1.341   1.645   2.375
  371SOL     OW 1792   0.173   1.767   3.690
  371SOL    HW1 1793   0.113   1.719   3.748
  371SOL    HW2 1794   0.215   1.831   3.747
  372SOL     OW 1795   1.277   0.926   2.533
  372SOL    HW1 1796   1.351   0.865   2.540
  372SOL    HW2 1797   1.311   0.998   2.481
  373SOL     OW 1798   0.816   1.273   3.293
  373SOL    HW1 1799   0.788   1.312   3.375
  373SOL    HW2 1800   0.745   1.292   3.232
  374SOL     OW 1801   0.671   1.619   2.017
  374SOL    HW1 1802   0.681   1.630   1.923
  374SOL    HW2 1803   0.617   1.540   2.027
  375SOL     OW 1804   1.626   1.728   3.253
  375SOL    HW1 1805   1.675   1.734   3.171
  375SOL    HW2 1806   1.617   1.819   3.282
  376SOL     OW 1807   1.838   0.176   2.830
  376SOL    HW1 1808   1.869   0.103   2.776
  376SOL    HW2 1809   1.751   0.195   2.796
  377SOL     OW 1810   0.272   0.324   2.577
  377SOL    HW1 1811   0.187   0.359   2.552
  377SOL    HW2 1812   0.265   0.306   2.671
  378SOL     OW 1813   1.206   1.606   1.893
  378SOL    HW1 1814   1.197   1.515   1.920
  378SOL    HW2 1815   1.141   1.618   1.824
  379SOL     OW 1816   0.824   1.005   3.234
  379SOL    HW1 1817   0.867   1.001   3.149
  379SOL    HW2 1818   0.824   1.098   3.257
  380SOL     OW 1819   0.915   0.910   2.151
  380SOL    HW1 1820   0.977   0.942   2.086
  380SOL    HW2 1821   0.962   0.840   2.197
  381SOL     OW 1822   1.490   1.623   1.903
  381SOL    HW1 1823   1.396   1.619   1.888
  381SOL    HW2 1824   1.528   1.630   1.815
  382SOL     OW 1825   0.373   1.302   3.353
  382SOL    HW1 1826   0.358   1.383   3.304
  382SOL    HW2 1827   0.296   1.248   3.336
  383SOL     OW 1828   1.610   1.283   3.142
  383SOL    HW1 1829   1.671   1.273   3.216
  383SOL    HW2 1830   1.551   1.353   3.169
  384SOL     OW 1831   1.051   1.107   2.568
  384SOL    HW1 1832   0.980   1.056   2.607
  384SOL    HW2 1833   1.113   1.041   2.536
  385SOL     OW 1834   1.015   0.247   2.830
  385SOL    HW1 1835   1.004   0.198   2.749
  385SOL    HW2 1836   1.008   0.182   2.899
  386SOL     OW 1837   0.604   1.489   2.344
  386SOL    HW1 1838   0.646   1.438   2.275
  386SOL    HW2 1839   0.534   1.537   2.300
  387SOL     OW 1840   1.719   0.392   3.236
  387SOL    HW1 1841   1.791   0.455   3.239
  387SOL    HW2 1842   1.753   0.320   3.182
  388SOL     OW 1843   0.253   1.342   2.153
  388SOL    HW1 1844   0.160   1.352   2.133
  388SOL    HW2 1845   0.262   1.380   2.240
  389SOL     OW 1846   0.105   1.001   3.580
  389SOL    HW1 1847   0.045   0.990   3.653
  389SOL    HW2 1848   0.191   0.980   3.617
  390SOL     OW 1849   0.693   0.244   3.359
  390SOL    HW1 1850   0.763   0.192   3.318
  390SOL    HW2 1851   0.719   0.252   3.450
  391SOL     OW 1852   0.088   0.326   1.890
  391SOL    HW1 1853   3.993   0.321   1.885
  391SOL    HW2 1854   0.110   0.408   1.846
  392SOL     OW 1855   1.430   0.857   3.262
  392SOL    HW1 1856   1.382   0.919   3.207
  392SOL    HW2 1857   1.519   0.860   3.229
  393SOL     OW 1858   0.039   0.162   2.145
  393SOL    HW1 1859   0.037   0.242   2.092
  393SOL    HW2 1860   0.119   0.170   2.197
  394SOL     OW 1861   1.179   1.340   1.979
  394SOL    HW1 1862   1.088   1.310   1.982
  394SOL    HW2 1863   1.207   1.340   2.070
  395SOL     OW 1864   0.619   0.830   3.297
  395SOL    HW1 1865   0.675   0.906   3.281
  395SOL    HW2 1866   0.680   0.756   3.305
  396SOL     OW 1867   1.488   1.779   2.841
  396SOL    HW1 1868   1.512   1.842   2.772
  396SOL    HW2 1869   1.570   1.762   2.887
  397SOL     OW 1870   0.717   0.564   3.569
  397SOL    HW1 1871   0.758   0.627   3.629
  397SOL    HW2 1872   0.749   0.479   3.599
  398SOL     OW 1873   1.471   1.201   3.494
  398SOL    HW1 1874   1.458   1.214   3.588
  398SOL    HW2 1875   1.564   1.215   3.480
  399SOL     OW 1876   0.380   1.742   3.421
  399SOL    HW1 1877   0.293   1.779   3.408
  399SOL    HW2 1878   0.365   1.660   3.469
  400SOL     OW 1879   1.670   0.882   3.118
  400SOL    HW1 1880   1.664   0.796   3.075
  400SOL    HW2 1881   1.661   0.945   3.046
  401SOL     OW 1882   1.225   0.333   2.308
  401SOL    HW1 1883   1.291   0.265   2.300
  401SOL    HW2 1884   1.246   0.379   2.389
  402SOL     OW 1885   0.592   0.740   2.531
  402SOL    HW1 1886   0.629   0.826   2.514
  402SOL    HW2 1887   0.522   0.731   2.466
  403SOL     OW 1888   1.754   0.381   3.505
  403SOL    HW1 1889   1.736   0.385   3.411
  403SOL    HW2 1890   1.696   0.311   3.537
  404SOL     OW 1891   1.744   0.934   3.375
  404SOL    HW1 1892   1.743   1.029   3.387
  404SOL    HW2 1893   1.729   0.922   3.281
  405SOL     OW 1894   0.862   1.367   1.895
  405SOL    HW1 1895   0.824   1.395   1.978
  405SOL    HW2 1896   0.881   1.449   1.849
  406SOL     OW 1897   0.661   1.791   2.807
  406SOL    HW1 1898   0.640   1.882   2.784
  406SOL    HW2 1899   0.756   1.786   2.800
  407SOL     OW 1900   0.867   0.966   2.717
  407SOL    HW1 1901   0.917   0.895   2.757
  407SOL    HW2 1902   0.833   1.016   2.791
  408SOL     OW 1903   1.079   0.988   1.951
  408SOL    HW1 1904   1.058   1.039   1.872
  408SOL    HW2 1905   1.154   0.935   1.925
  409SOL     OW 1906   1.848   1.534   2.687
  409SOL    HW1 1907   1.761   1.534   2.647
  409SOL    HW2 1908   1.839   1.480   2.765
  410SOL     OW 1909   0.223   1.303   3.717
  410SOL    HW1 1910   0.153   1.244   3.692
  410SOL    HW2 1911   0.211   1.317   3.811
  411SOL     OW 1912   0.114   1.274   2.579
  411SOL    HW1 1913   0.122   1.223   2.659
  411SOL    HW2 1914   0.110   1.209   2.509
  412SOL     OW 1915   0.680   1.402   3.489
  412SOL    HW1 1916   0.600   1.359   3.519
  412SOL    HW2 1917   0.675   1.490   3.527
  413SOL     OW 1918   1.813   0.184   3.101
  413SOL    HW1 1919   1.815   0.089   3.115
  413SOL    HW2 1920   1.827   0.195   3.007
  414SOL     OW 1921   0.442   0.436   2.392
  414SOL    HW1 1922   0.454   0.361   2.334
  414SOL    HW2 1923   0.386   0.402   2.463
  415SOL     OW 1924   1.703   1.484   2.954
  415SOL    HW1 1925   1.620   1.463   2.912
  415SOL    HW2 1926   1.714   1.417   3.021
  416SOL     OW 1927   0.330   0.555   3.154
  416SOL    HW1 1928   0.387   0.498   3.207
  416SOL    HW2 1929   0.347   0.526   3.064
  417SOL     OW 1930   0.826   1.578   2.540
  417SOL    HW1 1931   0.816   1.631   2.461
  417SOL    HW2 1932   0.749   1.521   2.541
  418SOL     OW 1933   1.461   0.251   2.973
  418SOL    HW1 1934   1.477   0.164   3.010
  418SOL    HW2 1935   1.403   0.294   3.037
  419SOL     OW 1936   1.006   0.030   3.009
  419SOL    HW1 1937   0.930   3.981   2.979
  419SOL    HW2 1938   1.075   3.964   3.017
  420SOL     OW 1939   0.771   1.332   2.175
  420SOL    HW1 1940   0.740   1.242   2.182
  420SOL    HW2 1941   0.854   1.332   2.224
  421SOL     OW 1942   0.620   1.558   3.146
  421SOL    HW1 1943   0.623   1.639   3.197
  421SOL    HW2 1944   0.707   1.550   3.109
  422SOL     OW 1945   1.315   0.074   2.025
  422SOL    HW1 1946   1.334   0.004   1.963
  422SOL    HW2 1947   1.230   0.051   2.063
  423SOL     OW 1948   1.285   0.458   2.549
  423SOL    HW1 1949   1.237   0.540   2.546
  423SOL    HW2 1950   1.289   0.436   2.642
  424SOL     OW 1951   1.588   0.211   2.729
  424SOL    HW1 1952   1.538   0.233   2.808
  424SOL    HW2 1953   1.588   0.291   2.677
  425SOL     OW 1954   0.045   1.051   2.102
  425SOL    HW1 1955   0.139   1.035   2.093
  425SOL    HW2 1956   0.010   0.971   2.140
  426SOL     OW 1957   0.883   1.652   2.205
  426SOL    HW1 1958   0.811   1.635   2.145
  426SOL    HW2 1959   0.854   1.727   2.256
  427SOL     OW 1960   0.233   0.625   3.843
  427SOL    HW1 1961   0.140   0.630   3.865
  427SOL    HW2 1962   0.234   0.596   3.752
  428SOL     OW 1963   0.225   0.286   4.707
  428SOL    HW1 1964   0.249   0.250   4.793
  428SOL    HW2 1965   0.131   0.270   4.699
  429SOL     OW 1966   0.018   0.387   4.358
  429SOL    HW1 1967   3.929   0.397   4.394
  429SOL    HW2 1968   0.025   0.294   4.339
  430SOL     OW 1969   0.577   1.282   4.907
  430SOL    HW1 1970   0.490   1.286   4.867
  430SOL    HW2 1971   0.591   1.371   4.941
  431SOL     OW 1972   1.562   1.513   4.432
  431SOL    HW1 1973   1.518   1.494   4.515
  431SOL    HW2 1974   1.490   1.519   4.368
  432SOL     OW 1975   1.132   0.698   4.425
  432SOL    HW1 1976   1.180   0.780   4.412
  432SOL    HW2 1977   1.084   0.712   4.507
  433SOL     OW 1978   1.760   0.618   3.952
  433SOL    HW1 1979   1.742   0.609   3.858
  433SOL    HW2 1980   1.751   0.529   3.986
  434SOL     OW 1981   0.758   1.142   4.763
  434SOL    HW1 1982   0.691   1.176   4.822
  434SOL    HW2 1983   0.792   1.220   4.718
  435SOL     OW 1984   0.867   0.777   5.547
  435SOL    HW1 1985   0.852   0.849   5.608
  435SOL    HW2 1986   0.889   0.819   5.464
  436SOL     OW 1987   0.686   1.005   4.371
  436SOL    HW1 1988   0.751   0.991   4.440
  436SOL    HW2 1989   0.616   1.055   4.414
  437SOL     OW 1990   0.710   1.151   5.536
  437SOL    HW1 1991   0.757   1.229   5.562
  437SOL    HW2 1992   0.627   1.183   5.501
  438SOL     OW 1993   0.351   1.403   4.803
  438SOL    HW1 1994   0.269   1.385   4.756
  438SOL    HW2 1995   0.399   1.462   4.745
  439SOL     OW 1996   1.461   1.500   5.077
  439SOL    HW1 1997   1.511   1.581   5.085
  439SOL    HW2 1998   1.403   1.500   5.152
  440SOL     OW 1999   0.453   0.407   5.223
  440SOL    HW1 2000   0.534   0.355   5.219
  440SOL    HW2 2001   0.383   0.342   5.225
  441SOL     OW 2002   1.613   0.451   4.459
  441SOL    HW1 2003   1.540   0.482   4.405
  441SOL    HW2 2004   1.635   0.526   4.514
  442SOL     OW 2005   0.223   1.717   4.184
  442SOL    HW1 2006   0.241   1.792   4.240
  442SOL    HW2 2007   0.300   1.710   4.128
  443SOL     OW 2008   1.136   1.341   5.415
  443SOL    HW1 2009   1.178   1.336   5.500
  443SOL    HW2 2010   1.083   1.261   5.409
  444SOL     OW 2011   0.246   1.447   4.263
  444SOL    HW1 2012   0.214   1.537   4.251
  444SOL    HW2 2013   0.178   1.405   4.315
  445SOL     OW 2014   0.247   1.069   4.609
  445SOL    HW1 2015   0.264   0.985   4.650
  445SOL    HW2 2016   0.194   1.117   4.673
  446SOL     OW 2017   0.613   1.791   5.153
  446SOL    HW1 2018   0.531   1.773   5.199
  446SOL    HW2 2019   0.636   1.881   5.179
  447SOL     OW 2020   0.582   0.983   3.860
  447SOL    HW1 2021   0.628   1.030   3.790
  447SOL    HW2 2022   0.625   1.012   3.940
  448SOL     OW 2023   1.578   0.136   5.181
  448SOL    HW1 2024   1.604   0.210   5.126
  448SOL    HW2 2025   1.554   0.176   5.265
  449SOL     OW 2026   0.138   0.649   4.294
  449SOL    HW1 2027   0.095   0.564   4.299
  449SOL    HW2 2028   0.102   0.700   4.366
  450SOL     OW 2029   0.043   1.591   3.863
  450SOL    HW1 2030   0.032   1.498   3.885
  450SOL    HW2 2031   3.965   1.633   3.898
  451SOL     OW 2032   1.687   0.916   4.363
  451SOL    HW1 2033   1.773   0.878   4.346
  451SOL    HW2 2034   1.668   0.969   4.285
  452SOL     OW 2035   1.646   1.108   4.154
  452SOL    HW1 2036   1.732   1.114   4.112
  452SOL    HW2 2037   1.651   1.168   4.227
  453SOL     OW 2038   0.135   0.754   5.314
  453SOL    HW1 2039   0.230   0.748   5.316
  453SOL    HW2 2040   0.116   0.845   5.333
  454SOL     OW 2041   0.612   1.384   4.460
  454SOL    HW1 2042   0.566   1.301   4.469
  454SOL    HW2 2043   0.596   1.410   4.369
  455SOL     OW 2044   1.289   1.238   5.148
  455SOL    HW1 2045   1.321   1.171   5.087
  455SOL    HW2 2046   1.346   1.232   5.224
  456SOL     OW 2047   0.817   0.002   4.238
  456SOL    HW1 2048   0.862   0.083   4.217
  456SOL    HW2 2049   0.724   0.025   4.240
  457SOL     OW 2050   0.185   0.954   5.000
  457SOL    HW1 2051   0.273   0.919   4.986
  457SOL    HW2 2052   0.131   0.908   4.935
  458SOL     OW 2053   1.532   0.993   3.922
  458SOL    HW1 2054   1.462   0.936   3.954
  458SOL    HW2 2055   1.572   1.027   4.002
  459SOL     OW 2056   1.181   1.804   5.345
  459SOL    HW1 2057   1.198   1.864   5.272
  459SOL    HW2 2058   1.201   1.717   5.310
  460SOL     OW 2059   0.341   0.254   5.550
  460SOL    HW1 2060   0.385   0.337   5.536
  460SOL    HW2 2061   0.250   0.278   5.571
  461SOL     OW 2062   1.465   1.420   4.676
  461SOL    HW1 2063   1.397   1.435   4.742
  461SOL    HW2 2064   1.453   1.328   4.649
  462SOL     OW 2065   1.668   1.728   4.284
  462SOL    HW1 2066   1.629   1.694   4.203
  462SOL    HW2 2067   1.646   1.663   4.351
  463SOL     OW 2068   0.596   0.719   3.987
  463SOL    HW1 2069   0.603   0.802   3.940
  463SOL    HW2 2070   0.533   0.737   4.057
  464SOL     OW 2071   1.276   0.364   4.664
  464SOL    HW1 2072   1.189   0.325   4.670
  464SOL    HW2 2073   1.333   0.303   4.711
  465SOL     OW 2074   1.576   1.669   4.025
  465SOL    HW1 2075   1.660   1.711   4.008
  465SOL    HW2 2076   1.543   1.644   3.939
  466SOL     OW 2077   0.795   0.616   5.178
  466SOL    HW1 2078   0.765   0.592   5.266
  466SOL    HW2 2079   0.754   0.552   5.121
  467SOL     OW 2080   1.393   0.477   5.401
  467SOL    HW1 2081   1.397   0.521   5.486
  467SOL    HW2 2082   1.453   0.403   5.410
  468SOL     OW 2083   0.955   0.888   5.306
  468SOL    HW1 2084   1.010   0.818   5.271
  468SOL    HW2 2085   0.907   0.922   5.230
  469SOL     OW 2086   0.991   0.404   4.965
  469SOL    HW1 2087   0.908   0.429   5.006
  469SOL    HW2 2088   0.966   0.372   4.878
  470SOL     OW 2089   1.051   0.699   4.150
  470SOL    HW1 2090   1.066   0.691   4.245
  470SOL    HW2 2091   0.969   0.652   4.135
  471SOL     OW 2092   0.081   0.824   4.515
  471SOL    HW1 2093   0.159   0.794   4.561
  471SOL    HW2 2094   0.093   0.919   4.507
  472SOL     OW 2095   0.129   1.856   5.297
  472SOL    HW1 2096   0.137   1.822   5.386
  472SOL    HW2 2097   0.037   1.843   5.275
  473SOL     OW 2098   0.892   0.350   3.922
  473SOL    HW1 2099   0.934   0.409   3.859
  473SOL    HW2 2100   0.894   0.264   3.880
  474SOL     OW 2101   1.710   0.576   5.552
  474SOL    HW1 2102   1.672   0.650   5.506
  474SOL    HW2 2103   1.735   0.514   5.483
  475SOL     OW 2104   1.376   1.142   4.265
  475SOL    HW1 2105   1.456   1.130   4.213
  475SOL    HW2 2106   1.324   1.204   4.215
  476SOL     OW 2107   0.559   0.195   4.606
  476SOL    HW1 2108   0.562   0.216   4.699
  476SOL    HW2 2109   0.548   0.279   4.562
  477SOL     OW 2110   1.006   1.444   4.196
  477SOL    HW1 2111   0.968   1.517   4.147
  477SOL    HW2 2112   0.990   1.466   4.288
  478SOL     OW 2113   0.365   1.813   4.590
  478SOL    HW1 2114   0.429   1.742   4.596
  478SOL    HW2 2115   0.415   1.893   4.606
  479SOL     OW 2116   1.798   1.055   4.593
  479SOL    HW1 2117   1.743   1.042   4.516
  479SOL    HW2 2118   1.737   1.062   4.666
  480SOL     OW 2119   1.227   1.539   5.237
  480SOL    HW1 2120   1.214   1.466   5.297
  480SOL    HW2 2121   1.166   1.523   5.165
  481SOL     OW 2122   0.310   0.955   3.966
  481SOL    HW1 2123   0.395   0.978   3.928
  481SOL    HW2 2124   0.296   0.864   3.941
  482SOL     OW 2125   1.477   0.742   4.454
  482SOL    HW1 2126   1.469   0.699   4.539
  482SOL    HW2 2127   1.554   0.798   4.462
  483SOL     OW 2128   0.465   1.259   5.461
  483SOL    HW1 2129   0.439   1.268   5.369
  483SOL    HW2 2130   0.383   1.264   5.510
  484SOL     OW 2131   1.121   1.777   3.955
  484SOL    HW1 2132   1.048   1.735   4.001
  484SOL    HW2 2133   1.143   1.716   3.885
  485SOL     OW 2134   0.199   0.296   5.222
  485SOL    HW1 2135   0.106   0.317   5.219
  485SOL    HW2 2136   0.206   0.231   5.292
  486SOL     OW 2137   1.628   1.379   3.811
  486SOL    HW1 2138   1.588   1.464   3.795
  486SOL    HW2 2139   1.559   1.315   3.792
  487SOL     OW 2140   0.466   1.739   4.043
  487SOL    HW1 2141   0.508   1.797   4.106
  487SOL    HW2 2142   0.539   1.707   3.988
  488SOL     OW 2143   1.437   0.159   4.129
  488SOL    HW1 2144   1.395   0.094   4.073
  488SOL    HW2 2145   1.514   0.115   4.165
  489SOL     OW 2146   0.251   1.792   4.956
  489SOL    HW1 2147   0.299   1.729   5.010
  489SOL    HW2 2148   0.245   1.750   4.870
  490SOL     OW 2149   0.937   1.698   4.624
  490SOL    HW1 2150   1.016   1.647   4.644
  490SOL    HW2 2151   0.893   1.649   4.555
  491SOL     OW 2152   0.395   0.694   4.197
  491SOL    HW1 2153   0.422   0.604   4.210
  491SOL    HW2 2154   0.302   0.696   4.222
  492SOL     OW 2155   1.531   0.232   5.451
  492SOL    HW1 2156   1.531   0.256   5.543
  492SOL    HW2 2157   1.502   0.141   5.449
  493SOL     OW 2158   0.642   0.135   3.825
  493SOL    HW1 2159   0.674   0.056   3.868
  493SOL    HW2 2160   0.580   0.104   3.759
  494SOL     OW 2161   0.778   0.282   5.488
  494SOL    HW1 2162   0.844   0.213   5.493
  494SOL    HW2 2163   0.717   0.263   5.559
  495SOL     OW 2164   0.876   1.521   4.918
  495SOL    HW1 2165   0.861   1.485   4.830
  495SOL    HW2 2166   0.946   1.467   4.954
  496SOL     OW 2167   1.341   0.587   5.154
  496SOL    HW1 2168   1.372   0.558   5.240
  496SOL    HW2 2169   1.376   0.676   5.146
  497SOL     OW 2170   0.814   1.396   4.662
  497SOL    HW1 2171   0.899   1.385   4.619
  497SOL    HW2 2172   0.751   1.395   4.590
  498SOL     OW 2173   0.929   0.511   4.626
  498SOL    HW1 2174   0.905   0.503   4.534
  498SOL    HW2 2175   0.957   0.423   4.651
  499SOL     OW 2176   0.546   0.056   4.214
  499SOL    HW1 2177   0.471   0.064   4.274
  499SOL    HW2 2178   0.548   0.141   4.169
  500SOL     OW 2179   1.428   1.198   3.765
  500SOL    HW1 2180   1.458   1.122   3.815
  500SOL    HW2 2181   1.342   1.218   3.803
  501SOL     OW 2182   0.335   0.044   3.919
  501SOL    HW1 2183   0.364   0.087   3.838
  501SOL    HW2 2184   0.415   0.028   3.968
  502SOL     OW 2185   0.938   0.247   4.188
  502SOL    HW1 2186   0.911   0.289   4.106
  502SOL    HW2 2187   1.034   0.249   4.185
  503SOL     OW 2188   1.079   0.681   5.184
  503SOL    HW1 2189   1.008   0.617   5.190
  503SOL    HW2 2190   1.159   0.628   5.177
  504SOL     OW 2191   1.223   1.570   4.518
  504SOL    HW1 2192   1.241   1.637   4.452
  504SOL    HW2 2193   1.292   1.582   4.584
  505SOL     OW 2194   0.466   1.149   4.463
  505SOL    HW1 2195   0.393   1.126   4.520
  505SOL    HW2 2196   0.433   1.133   4.374
  506SOL     OW 2197   1.268   1.794   4.330
  506SOL    HW1 2198   1.312   1.856   4.273
  506SOL    HW2 2199   1.203   1.846   4.378
  507SOL     OW 2200   1.024   0.546   3.748
  507SOL    HW1 2201   0.981   0.630   3.728
  507SOL    HW2 2202   1.087   0.567   3.817
  508SOL     OW 2203   0.079   0.570   5.117
  508SOL    HW1 2204   0.168   0.554   5.086
  508SOL    HW2 2205   0.088   0.642   5.180
  509SOL     OW 2206   0.572   0.232   4.884
  509SOL    HW1 2207   0.595   0.139   4.894
  509SOL    HW2 2208   0.481   0.236   4.914
  510SOL     OW 2209   0.872   0.462   4.363
  510SOL    HW1 2210   0.820   0.513   4.301
  510SOL    HW2 2211   0.890   0.380   4.317
  511SOL     OW 2212   0.994   0.042   4.503
  511SOL    HW1 2213   0.961   0.067   4.417
  511SOL    HW2 2214   1.005   3.947   4.498
  512SOL     OW 2215   1.437   1.163   4.582
  512SOL    HW1 2216   1.368   1.096   4.579
  512SOL    HW2 2217   1.461   1.175   4.490
  513SOL     OW 2218   1.466   0.604   4.702
  513SOL    HW1 2219   1.415   0.523   4.708
  513SOL    HW2 2220   1.527   0.599   4.776
  514SOL     OW 2221   1.847   0.820   4.108
  514SOL    HW1 2222   1.902   0.767   4.165
  514SOL    HW2 2223   1.815   0.758   4.042
  515SOL     OW 2224   0.489   1.417   3.886
  515SOL    HW1 2225   0.414   1.385   3.936
  515SOL    HW2 2226   0.469   1.393   3.795
  516SOL     OW 2227   1.669   1.265   4.371
  516SOL    HW1 2228   1.764   1.267   4.384
  516SOL    HW2 2229   1.640   1.353   4.392
  517SOL     OW 2230   1.395   0.573   3.794
  517SOL    HW1 2231   1.333   0.555   3.864
  517SOL    HW2 2232   1.480   0.553   3.831
  518SOL     OW 2233   0.558   0.270   4.044
  518SOL    HW1 2234   0.599   0.229   3.968
  518SOL    HW2 2235   0.529   0.356   4.013
  519SOL     OW 2236   1.752   1.238   5.299
  519SOL    HW1 2237   1.840   1.199   5.295
  519SOL    HW2 2238   1.767   1.329   5.327
  520SOL     OW 2239   1.059   1.353   5.058
  520SOL    HW1 2240   0.984   1.322   5.109
  520SOL    HW2 2241   1.135   1.312   5.099
  521SOL     OW 2242   1.604   1.624   5.372
  521SOL    HW1 2243   1.604   1.661   5.283
  521SOL    HW2 2244   1.689   1.580   5.379
  522SOL     OW 2245   1.128   1.202   4.830
  522SOL    HW1 2246   1.069   1.241   4.895
  522SOL    HW2 2247   1.095   1.234   4.746
  523SOL     OW 2248   1.629   1.099   4.802
  523SOL    HW1 2249   1.624   1.161   4.875
  523SOL    HW2 2250   1.550   1.116   4.751
  524SOL     OW 2251   0.914   0.111   5.126
  524SOL    HW1 2252   0.933   0.087   5.035
  524SOL    HW2 2253   0.994   0.153   5.157
  525SOL     OW 2254   0.984   1.114   5.448
  525SOL    HW1 2255   0.892   1.130   5.467
  525SOL    HW2 2256   0.984   1.037   5.391
  526SOL     OW 2257   0.708   1.060   4.095
  526SOL    HW1 2258   0.694   1.046   4.189
  526SOL    HW2 2259   0.784   1.007   4.073
  527SOL     OW 2260   0.420   0.815   4.976
  527SOL    HW1 2261   0.489   0.822   5.042
  527SOL    HW2 2262   0.386   0.727   4.986
  528SOL     OW 2263   1.266   0.375   4.999
  528SOL    HW1 2264   1.301   0.453   5.044
  528SOL    HW2 2265   1.180   0.402   4.968
  529SOL     OW 2266   0.064   1.579   5.069
  529SOL    HW1 2267   0.067   1.647   5.001
  529SOL    HW2 2268   0.156   1.566   5.093
  530SOL     OW 2269   0.375   1.103   4.210
  530SOL    HW1 2270   0.367   1.180   4.154
  530SOL    HW2 2271   0.373   1.029   4.149
  531SOL     OW 2272   0.556   0.538   4.584
  531SOL    HW1 2273   0.572   0.595   4.509
  531SOL    HW2 2274   0.620   0.565   4.649
  532SOL     OW 2275   1.248   1.348   4.113
  532SOL    HW1 2276   1.303   1.419   4.145
  532SOL    HW2 2277   1.161   1.369   4.147
  533SOL     OW 2278   1.280   1.457   4.871
  533SOL    HW1 2279   1.336   1.460   4.948
  533SOL    HW2 2280   1.225   1.380   4.884
  534SOL     OW 2281   1.578   0.632   4.208
  534SOL    HW1 2282   1.538   0.692   4.270
  534SOL    HW2 2283   1.625   0.688   4.147
  535SOL     OW 2284   0.346   1.526   5.044
  535SOL    HW1 2285   0.336   1.475   4.963
  535SOL    HW2 2286   0.440   1.541   5.051
  536SOL     OW 2287   0.413   0.740   5.325
  536SOL    HW1 2288   0.474   0.786   5.268
  536SOL    HW2 2289   0.453   0.654   5.338
  537SOL     OW 2290   1.600   0.778   5.406
  537SOL    HW1 2291   1.513   0.819   5.398
  537SOL    HW2 2292   1.652   0.819   5.337
  538SOL     OW 2293   1.019   0.123   5.501
  538SOL    HW1 2294   1.058   0.201   5.461
  538SOL    HW2 2295   1.008   0.061   5.429
  539SOL     OW 2296   0.479   0.036   5.491
  539SOL    HW1 2297   0.492   0.041   5.396
  539SOL    HW2 2298   0.419   0.108   5.511
  540SOL     OW 2299   0.584   0.873   4.755
  540SOL    HW1 2300   0.614   0.964   4.754
  540SOL    HW2 2301   0.528   0.867   4.832
  541SOL     OW 2302   1.358   0.858   4.755
  541SOL    HW1 2303   1.276   0.850   4.707
  541SOL    HW2 2304   1.398   0.772   4.750
  542SOL     OW 2305   1.204   0.535   3.987
  542SOL    HW1 2306   1.213   0.455   4.040
  542SOL    HW2 2307   1.161   0.597   4.045
  543SOL     OW 2308   0.313   0.214   4.965
  543SOL    HW1 2309   0.271   0.249   5.044
  543SOL    HW2 2310   0.294   0.120   4.968
  544SOL     OW 2311   0.058   1.305   5.004
  544SOL    HW1 2312   0.090   1.265   5.085
  544SOL    HW2 2313   0.050   1.398   5.024
  545SOL     OW 2314   0.727   0.634   4.781
  545SOL    HW1 2315   0.799   0.617   4.721
  545SOL    HW2 2316   0.697   0.723   4.758
  546SOL     OW 2317   1.734   0.958   5.575
  546SOL    HW1 2318   1.687   0.899   5.516
  546SOL    HW2 2319   1.674   0.972   5.648
  547SOL     OW 2320   0.326   0.056   4.373
  547SOL    HW1 2321   0.297   0.147   4.374
  547SOL    HW2 2322   0.286   0.017   4.451
  548SOL     OW 2323   1.601   0.387   4.107
  548SOL    HW1 2324   1.575   0.319   4.169
  548SOL    HW2 2325   1.582   0.470   4.151
  549SOL     OW 2326   1.028   0.760   4.685
  549SOL    HW1 2327   1.025   0.777   4.779
  549SOL    HW2 2328   1.001   0.668   4.676
  550SOL     OW 2329   0.980   1.565   5.439
  550SOL    HW1 2330   0.966   1.610   5.356
  550SOL    HW2 2331   1.025   1.484   5.415
  551SOL     OW 2332   1.854   1.504   5.329
  551SOL    HW1 2333   1.871   1.534   5.239
  551SOL    HW2 2334   1.937   1.520   5.375
  552SOL     OW 2335   0.351   0.920   5.525
  552SOL    HW1 2336   0.430   0.940   5.575
  552SOL    HW2 2337   0.379   0.854   5.462
  553SOL     OW 2338   1.509   0.276   3.860
  553SOL    HW1 2339   1.434   0.219   3.873
  553SOL    HW2 2340   1.523   0.317   3.946
  554SOL     OW 2341   1.292   0.827   3.755
  554SOL    HW1 2342   1.334   0.741   3.758
  554SOL    HW2 2343   1.323   0.866   3.674
  555SOL     OW 2344   1.065   1.336   4.578
  555SOL    HW1 2345   1.068   1.263   4.515
  555SOL    HW2 2346   1.127   1.400   4.543
  556SOL     OW 2347   0.313   0.806   4.675
  556SOL    HW1 2348   0.407   0.822   4.669
  556SOL    HW2 2349   0.307   0.716   4.707
  557SOL     OW 2350   0.337   0.527   4.737
  557SOL    HW1 2351   0.298   0.442   4.719
  557SOL    HW2 2352   0.413   0.531   4.678
  558SOL     OW 2353   1.133   0.383   5.416
  558SOL    HW1 2354   1.086   0.438   5.478
  558SOL    HW2 2355   1.221   0.421   5.411
  559SOL     OW 2356   1.151   0.224   5.205
  559SOL    HW1 2357   1.143   0.279   5.283
  559SOL    HW2 2358   1.174   0.285   5.135
  560SOL     OW 2359   3.999   1.320   3.906
  560SOL    HW1 2360   3.905   1.336   3.910
  560SOL    HW2 2361   0.009   1.226   3.926
  561SOL     OW 2362   0.076   1.801   4.613
  561SOL    HW1 2363   0.078   1.705   4.622
  561SOL    HW2 2364   0.168   1.827   4.617
  562SOL     OW 2365   0.504   1.570   4.634
  562SOL    HW1 2366   0.573   1.631   4.659
  562SOL    HW2 2367   0.547   1.507   4.577
  563SOL     OW 2368   0.984   0.792   4.951
  563SOL    HW1 2369   1.038   0.769   5.026
  563SOL    HW2 2370   0.898   0.755   4.970
  564SOL     OW 2371   0.036   0.567   4.837
  564SOL    HW1 2372   0.103   0.519   4.787
  564SOL    HW2 2373   0.061   0.554   4.928
  565SOL     OW 2374   0.209   0.516   5.445
  565SOL    HW1 2375   0.259   0.480   5.372
  565SOL    HW2 2376   0.159   0.588   5.408
  566SOL     OW 2377   1.376   0.940   5.383
  566SOL    HW1 2378   1.398   1.033   5.381
  566SOL    HW2 2379   1.373   0.914   5.291
  567SOL     OW 2380   0.817   0.572   4.082
  567SOL    HW1 2381   0.822   0.495   4.025
  567SOL    HW2 2382   0.742   0.621   4.049
  568SOL     OW 2383   1.642   0.601   4.911
  568SOL    HW1 2384   1.632   0.541   4.984
  568SOL    HW2 2385   1.729   0.583   4.876
  569SOL     OW 2386   0.297   1.546   5.454
  569SOL    HW1 2387   0.247   1.616   5.496
  569SOL    HW2 2388   0.263   1.465   5.492
  570SOL     OW 2389   0.701   0.457   4.984
  570SOL    HW1 2390   0.654   0.378   4.957
  570SOL    HW2 2391   0.695   0.515   4.909
  571SOL     OW 2392   0.927   1.679   5.191
  571SOL    HW1 2393   0.902   1.646   5.105
  571SOL    HW2 2394   0.926   1.774   5.183
  572SOL     OW 2395   0.458   0.492   3.918
  572SOL    HW1 2396   0.522   0.561   3.936
  572SOL    HW2 2397   0.377   0.539   3.898
  573SOL     OW 2398   0.157   1.136   5.196
  573SOL    HW1 2399   0.161   1.084   5.277
  573SOL    HW2 2400   0.172   1.072   5.127
  574SOL     OW 2401   1.326   1.047   4.948
  574SOL    HW1 2402   1.350   0.984   4.880
  574SOL    HW2 2403   1.256   1.099   4.909
  575SOL     OW 2404   1.311   0.856   4.030
  575SOL    HW1 2405   1.235   0.827   4.081
  575SOL    HW2 2406   1.286   0.843   3.939
  576SOL     OW 2407   1.753   1.742   4.867
  576SOL    HW1 2408   1.825   1.767   4.809
  576SOL    HW2 2409   1.737   1.650   4.847
  577SOL     OW 2410   1.242   1.733   4.836
  577SOL    HW1 2411   1.325   1.753   4.792
  577SOL    HW2 2412   1.247   1.640   4.855
  578SOL     OW 2413   0.076   1.218   4.751
  578SOL    HW1 2414   0.083   1.243   4.843
  578SOL    HW2 2415   3.983   1.224   4.730
  579SOL     OW 2416   0.679   1.665   5.452
  579SOL    HW1 2417   0.623   1.743   5.446
  579SOL    HW2 2418   0.744   1.676   5.383
  580SOL     OW 2419   1.710   0.127   4.210
  580SOL    HW1 2420   1.791   0.133   4.158
  580SOL    HW2 2421   1.702   0.034   4.230
  581SOL     OW 2422   1.390   1.567   4.209
  581SOL    HW1 2423   1.447   1.599   4.139
  581SOL    HW2 2424   1.341   1.645   4.237
  582SOL     OW 2425   0.172   1.767   5.552
  582SOL    HW1 2426   0.113   1.719   5.610
  582SOL    HW2 2427   0.215   1.831   5.609
  583SOL     OW 2428   1.277   0.926   4.395
  583SOL    HW1 2429   1.351   0.865   4.402
  583SOL    HW2 2430   1.311   0.998   4.343
  584SOL     OW 2431   0.815   1.273   5.155
  584SOL    HW1 2432   0.787   1.312   5.238
  584SOL    HW2 2433   0.745   1.293   5.094
  585SOL     OW 2434   0.671   1.619   3.879
  585SOL    HW1 2435   0.681   1.630   3.785
  585SOL    HW2 2436   0.617   1.540   3.889
  586SOL     OW 2437   1.627   1.728   5.113
  586SOL    HW1 2438   1.674   1.735   5.031
  586SOL    HW2 2439   1.617   1.819   5.143
  587SOL     OW 2440   1.838   0.176   4.692
  587SOL    HW1 2441   1.869   0.103   4.638
  587SOL    HW2 2442   1.751   0.195   4.658
  588SOL     OW 2443   0.272   0.323   4.439
  588SOL    HW1 2444   0.187   0.359   4.414
  588SOL    HW2 2445   0.265   0.306   4.533
  589SOL     OW 2446   1.206   1.606   3.755
  589SOL    HW1 2447   1.197   1.515   3.782
  589SOL    HW2 2448   1.141   1.618   3.686
  590SOL     OW 2449   0.824   1.005   5.096
  590SOL    HW1 2450   0.867   1.001   5.011
  590SOL    HW2 2451   0.824   1.098   5.119
  591SOL     OW 2452   0.915   0.910   4.013
  591SOL    HW1 2453   0.977   0.942   3.948
  591SOL    HW2 2454   0.962   0.840   4.059
  592SOL     OW 2455   1.490   1.623   3.765
  592SOL    HW1 2456   1.396   1.619   3.750
  592SOL    HW2 2457   1.528   1.630   3.677
  593SOL     OW 2458   0.373   1.302   5.215
  593SOL    HW1 2459   0.358   1.383   5.165
  593SOL    HW2 2460   0.296   1.248   5.198
  594SOL     OW 2461   1.610   1.283   5.005
  594SOL    HW1 2462   1.671   1.274   5.078
  594SOL    HW2 2463   1.551   1.353   5.032
  595SOL     OW 2464   1.051   1.107   4.430
  595SOL    HW1 2465   0.980   1.055   4.469
  595SOL    HW2 2466   1.113   1.041   4.398
  596SOL     OW 2467   1.015   0.247   4.692
  596SOL    HW1 2468   1.004   0.198   4.611
  596SOL    HW2 2469   1.008   0.182   4.761
  597SOL     OW 2470   0.604   1.489   4.206
  597SOL    HW1 2471   0.646   1.438   4.137
  597SOL    HW2 2472   0.534   1.537   4.161
  598SOL     OW 2473   1.719   0.392   5.099
  598SOL    HW1 2474   1.791   0.455   5.101
  598SOL    HW2 2475   1.753   0.320   5.044
  599SOL     OW 2476   0.253   1.342   4.015
  599SOL    HW1 2477   0.160   1.352   3.995
  599SOL    HW2 2478   0.262   1.380   4.102
  600SOL     OW 2479   0.105   1.001   5.442
  600SOL    HW1 2480   0.045   0.990   5.515
  600SOL    HW2 2481   0.191   0.980   5.479
  601SOL     OW 2482   0.693   0.244   5.221
  601SOL    HW1 2483   0.763   0.192   5.180
  601SOL    HW2 2484   0.719   0.252   5.312
  602SOL     OW 2485   0.088   0.326   3.752
  602SOL    HW1 2486   3.993   0.321   3.747
  602SOL    HW2 2487   0.110   0.408   3.708
  603SOL     OW 2488   1.430   0.857   5.124
  603SOL    HW1 2489   1.381   0.919   5.069
  603SOL    HW2 2490   1.519   0.860   5.091
  604SOL     OW 2491   0.039   0.162   4.007
  604SOL    HW1 2492   0.037   0.242   3.954
  604SOL    HW2 2493   0.119   0.170   4.059
  605SOL     OW 2494   1.179   1.340   3.841
  605SOL    HW1 2495   1.088   1.310   3.844
  605SOL    HW2 2496   1.207   1.340   3.932
  606SOL     OW 2497   0.619   0.830   5.159
  606SOL    HW1 2498   0.675   0.906   5.143
  606SOL    HW2 2499   0.680   0.756   5.167
  607SOL     OW 2500   1.489   1.779   4.703
  607SOL    HW1 2501   1.512   1.842   4.635
  607SOL    HW2 2502   1.570   1.763   4.750
  608SOL     OW 2503   0.717   0.564   5.432
  608SOL    HW1 2504   0.758   0.626   5.491
  608SOL    HW2 2505   0.749   0.478   5.461
  609SOL     OW 2506   1.471   1.200   5.355
  609SOL    HW1 2507   1.459   1.215   5.449
  609SOL    HW2 2508   1.565   1.215   5.340
  610SOL     OW 2509   0.380   1.742   5.283
  610SOL    HW1 2510   0.293   1.779   5.270
  610SOL    HW2 2511   0.365   1.660   5.331
  611SOL     OW 2512   1.670   0.882   4.980
  611SOL    HW1 2513   1.663   0.796   4.936
  611SOL    HW2 2514   1.661   0.945   4.909
  612SOL     OW 2515   1.225   0.333   4.170
  612SOL    HW1 2516   1.291   0.265   4.162
  612SOL    HW2 2517   1.246   0.379   4.251
  613SOL     OW 2518   0.591   0.740   4.393
  613SOL    HW1 2519   0.629   0.826   4.376
  613SOL    HW2 2520   0.522   0.731   4.328
  614SOL     OW 2521   1.754   0.380   5.367
  614SOL    HW1 2522   1.737   0.385   5.273
  614SOL    HW2 2523   1.696   0.311   5.399
  615SOL     OW 2524   1.743   0.934   5.237
  615SOL    HW1 2525   1.743   1.029   5.250
  615SOL    HW2 2526   1.729   0.922   5.143
  616SOL     OW 2527   0.862   1.367   3.757
  616SOL    HW1 2528   0.824   1.395   3.840
  616SOL    HW2 2529   0.881   1.449   3.711
  617SOL     OW 2530   0.661   1.791   4.669
  617SOL    HW1 2531   0.640   1.882   4.646
  617SOL    HW2 2532   0.756   1.786   4.662
  618SOL     OW 2533   0.867   0.966   4.579
  618SOL    HW1 2534   0.917   0.895   4.619
  618SOL    HW2 2535   0.833   1.016   4.653
  619SOL     OW 2536   1.079   0.988   3.813
  619SOL    HW1 2537   1.057   1.039   3.734
  619SOL    HW2 2538   1.154   0.935   3.787
  620SOL     OW 2539   1.848   1.537   4.551
  620SOL    HW1 2540   1.762   1.536   4.510
  620SOL    HW2 2541   1.838   1.482   4.628
  621SOL     OW 2542   0.223   1.303   5.579
  621SOL    HW1 2543   0.153   1.244   5.554
  621SOL    HW2 2544   0.211   1.317   5.673
  622SOL     OW 2545   0.114   1.274   4.441
  622SOL    HW1 2546   0.122   1.223   4.521
  622SOL    HW2 2547   0.110   1.209   4.371
  623SOL     OW 2548   0.681   1.401   5.353
  623SOL    HW1 2549   0.600   1.359   5.381
  623SOL    HW2 2550   0.675   1.490   5.388
  624SOL     OW 2551   1.813   0.184   4.963
  624SOL    HW1 2552   1.815   0.089   4.977
  624SOL    HW2 2553   1.827   0.195   4.869
  625SOL     OW 2554   0.442   0.436   4.254
  625SOL    HW1 2555   0.454   0.361   4.196
  625SOL    HW2 2556   0.386   0.402   4.325
  626SOL     OW 2557   1.703   1.483   4.816
  626SOL    HW1 2558   1.620   1.462   4.774
  626SOL    HW2 2559   1.714   1.416   4.884
  627SOL     OW 2560   0.330   0.555   5.016
  627SOL    HW1 2561   0.387   0.498   5.069
  627SOL    HW2 2562   0.346   0.527   4.925
  628SOL     OW 2563   0.826   1.578   4.402
  628SOL    HW1 2564   0.817   1.631   4.323
  628SOL    HW2 2565   0.749   1.521   4.403
  629SOL     OW 2566   1.461   0.251   4.835
  629SOL    HW1 2567   1.477   0.164   4.871
  629SOL    HW2 2568   1.403   0.293   4.899
  630SOL     OW 2569   1.006   0.030   4.871
  630SOL    HW1 2570   0.930   3.981   4.840
  630SOL    HW2 2571   1.075   3.964   4.879
  631SOL     OW 2572   0.771   1.332   4.037
  631SOL    HW1 2573   0.740   1.242   4.044
  631SOL    HW2 2574   0.854   1.332   4.086
  632SOL     OW 2575   0.620   1.558   5.009
  632SOL    HW1 2576   0.623   1.639   5.059
  632SOL    HW2 2577   0.707   1.550   4.971
  633SOL     OW 2578   1.315   0.074   3.887
  633SOL    HW1 2579   1.334   0.004   3.825
  633SOL    HW2 2580   1.230   0.051   3.925
  634SOL     OW 2581   1.285   0.458   4.411
  634SOL    HW1 2582   1.237   0.540   4.408
  634SOL    HW2 2583   1.289   0.436   4.504
  635SOL     OW 2584   1.588   0.211   4.591
  635SOL    HW1 2585   1.538   0.233   4.670
  635SOL    HW2 2586   1.588   0.291   4.539
  636SOL     OW 2587   0.045   1.051   3.964
  636SOL    HW1 2588   0.139   1.035   3.955
  636SOL    HW2 2589   0.010   0.971   4.003
  637SOL     OW 2590   0.883   1.652   4.067
  637SOL    HW1 2591   0.811   1.635   4.007
  637SOL    HW2 2592   0.854   1.727   4.118
  638SOL     OW 2593   0.233   0.624   5.705
  638SOL    HW1 2594   0.140   0.630   5.727
  638SOL    HW2 2595   0.234   0.596   5.614
  639SOL     OW 2596   0.225   0.286   6.569
  639SOL    HW1 2597   0.249   0.250   6.655
  639SOL    HW2 2598   0.131   0.270   6.561
  640SOL     OW 2599   0.018   0.387   6.220
  640SOL    HW1 2600   3.929   0.397   6.256
  640SOL    HW2 2601   0.025   0.294   6.201
  641SOL     OW 2602   0.576   1.282   6.769
  641SOL    HW1 2603   0.489   1.287   6.729
  641SOL    HW2 2604   0.592   1.370   6.803
  642SOL     OW 2605   1.131   0.697   6.287
  642SOL    HW1 2606   1.179   0.779   6.272
  642SOL    HW2 2607   1.084   0.712   6.370
  643SOL     OW 2608   1.759   0.617   5.814
  643SOL    HW1 2609   1.742   0.609   5.720
  643SOL    HW2 2610   1.752   0.527   5.847
  644SOL     OW 2611   0.756   1.141   6.623
  644SOL    HW1 2612   0.689   1.175   6.684
  644SOL    HW2 2613   0.790   1.220   6.580
  645SOL     OW 2614   0.865   0.777   7.408
  645SOL    HW1 2615   0.857   0.849   7.470
  645SOL    HW2 2616   0.888   0.819   7.325
  646SOL     OW 2617   0.686   1.005   6.234
  646SOL    HW1 2618   0.751   0.992   6.303
  646SOL    HW2 2619   0.616   1.056   6.276
  647SOL     OW 2620   0.708   1.150   7.398
  647SOL    HW1 2621   0.757   1.229   7.424
  647SOL    HW2 2622   0.626   1.184   7.363
  648SOL     OW 2623   0.351   1.403   6.665
  648SOL    HW1 2624   0.269   1.386   6.618
  648SOL    HW2 2625   0.400   1.462   6.607
  649SOL     OW 2626   0.453   0.407   7.085
  649SOL    HW1 2627   0.534   0.355   7.081
  649SOL    HW2 2628   0.383   0.342   7.086
  650SOL     OW 2629   1.613   0.451   6.321
  650SOL    HW1 2630   1.540   0.481   6.267
  650SOL    HW2 2631   1.635   0.525   6.377
  651SOL     OW 2632   0.223   1.717   6.046
  651SOL    HW1 2633   0.241   1.792   6.103
  651SOL    HW2 2634   0.301   1.710   5.990
  652SOL     OW 2635   1.135   1.339   7.285
  652SOL    HW1 2636   1.180   1.329   7.369
  652SOL    HW2 2637   1.082   1.260   7.275
  653SOL     OW 2638   0.245   1.447   6.125
  653SOL    HW1 2639   0.214   1.537   6.113
  653SOL    HW2 2640   0.177   1.405   6.177
  654SOL     OW 2641   0.246   1.069   6.471
  654SOL    HW1 2642   0.264   0.985   6.512
  654SOL    HW2 2643   0.194   1.117   6.535
  655SOL     OW 2644   0.614   1.791   7.018
  655SOL    HW1 2645   0.531   1.772   7.061
  655SOL    HW2 2646   0.632   1.882   7.040
  656SOL     OW 2647   0.582   0.983   5.722
  656SOL    HW1 2648   0.628   1.031   5.652
  656SOL    HW2 2649   0.625   1.012   5.802
  657SOL     OW 2650   1.578   0.136   7.043
  657SOL    HW1 2651   1.604   0.210   6.988
  657SOL    HW2 2652   1.554   0.176   7.127
  658SOL     OW 2653   0.138   0.649   6.156
  658SOL    HW1 2654   0.095   0.564   6.161
  658SOL    HW2 2655   0.102   0.700   6.228
  659SOL     OW 2656   0.043   1.591   5.726
  659SOL    HW1 2657   0.033   1.498   5.748
  659SOL    HW2 2658   3.964   1.633   5.759
  660SOL     OW 2659   1.688   0.920   6.220
  660SOL    HW1 2660   1.774   0.879   6.214
  660SOL    HW2 2661   1.675   0.962   6.135
  661SOL     OW 2662   1.650   1.112   6.010
  661SOL    HW1 2663   1.732   1.109   5.961
  661SOL    HW2 2664   1.663   1.181   6.075
  662SOL     OW 2665   0.135   0.754   7.176
  662SOL    HW1 2666   0.230   0.748   7.178
  662SOL    HW2 2667   0.116   0.846   7.195
  663SOL     OW 2668   0.612   1.385   6.322
  663SOL    HW1 2669   0.566   1.301   6.331
  663SOL    HW2 2670   0.597   1.411   6.231
  664SOL     OW 2671   1.275   1.219   7.011
  664SOL    HW1 2672   1.315   1.156   6.951
  664SOL    HW2 2673   1.332   1.218   7.088
  665SOL     OW 2674   0.817   0.002   6.100
  665SOL    HW1 2675   0.862   0.083   6.079
  665SOL    HW2 2676   0.724   0.025   6.102
  666SOL     OW 2677   0.185   0.953   6.862
  666SOL    HW1 2678   0.274   0.919   6.848
  666SOL    HW2 2679   0.132   0.908   6.797
  667SOL     OW 2680   1.530   0.993   5.781
  667SOL    HW1 2681   1.461   0.935   5.814
  667SOL    HW2 2682   1.573   1.025   5.860
  668SOL     OW 2683   0.341   0.254   7.412
  668SOL    HW1 2684   0.385   0.337   7.398
  668SOL    HW2 2685   0.251   0.278   7.433
  669SOL     OW 2686   0.596   0.719   5.849
  669SOL    HW1 2687   0.602   0.802   5.802
  669SOL    HW2 2688   0.533   0.737   5.920
  670SOL     OW 2689   1.276   0.364   6.526
  670SOL    HW1 2690   1.189   0.325   6.531
  670SOL    HW2 2691   1.333   0.302   6.572
  671SOL     OW 2692   0.795   0.616   7.041
  671SOL    HW1 2693   0.765   0.592   7.128
  671SOL    HW2 2694   0.754   0.552   6.983
  672SOL     OW 2695   1.392   0.476   7.263
  672SOL    HW1 2696   1.396   0.521   7.348
  672SOL    HW2 2697   1.453   0.403   7.272
  673SOL     OW 2698   0.954   0.887   7.168
  673SOL    HW1 2699   1.010   0.818   7.132
  673SOL    HW2 2700   0.908   0.922   7.092
  674SOL     OW 2701   0.991   0.403   6.827
  674SOL    HW1 2702   0.909   0.429   6.869
  674SOL    HW2 2703   0.965   0.372   6.740
  675SOL     OW 2704   1.051   0.699   6.012
  675SOL    HW1 2705   1.065   0.691   6.107
  675SOL    HW2 2706   0.969   0.652   5.997
  676SOL     OW 2707   0.081   0.824   6.377
  676SOL    HW1 2708   0.159   0.794   6.423
  676SOL    HW2 2709   0.093   0.919   6.369
  677SOL     OW 2710   0.129   1.856   7.159
  677SOL    HW1 2711   0.137   1.822   7.248
  677SOL    HW2 2712   0.037   1.843   7.136
  678SOL     OW 2713   0.892   0.350   5.784
  678SOL    HW1 2714   0.933   0.409   5.721
  678SOL    HW2 2715   0.894   0.264   5.742
  679SOL     OW 2716   1.711   0.576   7.414
  679SOL    HW1 2717   1.673   0.650   7.368
  679SOL    HW2 2718   1.735   0.514   7.345
  680SOL     OW 2719   1.385   1.149   6.139
  680SOL    HW1 2720   1.453   1.125   6.076
  680SOL    HW2 2721   1.317   1.191   6.086
  681SOL     OW 2722   0.559   0.195   6.468
  681SOL    HW1 2723   0.562   0.216   6.561
  681SOL    HW2 2724   0.547   0.279   6.424
  682SOL     OW 2725   1.011   1.443   6.054
  682SOL    HW1 2726   0.975   1.517   6.005
  682SOL    HW2 2727   0.991   1.462   6.145
  683SOL     OW 2728   0.365   1.813   6.452
  683SOL    HW1 2729   0.429   1.742   6.458
  683SOL    HW2 2730   0.416   1.893   6.468
  684SOL     OW 2731   1.777   1.022   6.465
  684SOL    HW1 2732   1.728   1.015   6.383
  684SOL    HW2 2733   1.731   1.090   6.515
  685SOL     OW 2734   0.310   0.955   5.828
  685SOL    HW1 2735   0.395   0.978   5.789
  685SOL    HW2 2736   0.296   0.864   5.803
  686SOL     OW 2737   1.477   0.743   6.317
  686SOL    HW1 2738   1.468   0.698   6.401
  686SOL    HW2 2739   1.553   0.800   6.329
  687SOL     OW 2740   0.465   1.260   7.323
  687SOL    HW1 2741   0.439   1.268   7.231
  687SOL    HW2 2742   0.383   1.265   7.372
  688SOL     OW 2743   1.118   1.782   5.819
  688SOL    HW1 2744   1.048   1.735   5.864
  688SOL    HW2 2745   1.144   1.723   5.748
  689SOL     OW 2746   0.199   0.295   7.084
  689SOL    HW1 2747   0.106   0.317   7.081
  689SOL    HW2 2748   0.207   0.231   7.154
  690SOL     OW 2749   1.618   1.381   5.686
  690SOL    HW1 2750   1.582   1.468   5.667
  690SOL    HW2 2751   1.550   1.321   5.656
  691SOL     OW 2752   0.467   1.739   5.904
  691SOL    HW1 2753   0.508   1.797   5.968
  691SOL    HW2 2754   0.539   1.707   5.851
  692SOL     OW 2755   1.437   0.159   5.992
  692SOL    HW1 2756   1.396   0.094   5.934
  692SOL    HW2 2757   1.514   0.114   6.027
  693SOL     OW 2758   0.251   1.791   6.818
  693SOL    HW1 2759   0.300   1.729   6.872
  693SOL    HW2 2760   0.245   1.750   6.732
  694SOL     OW 2761   0.932   1.707   6.496
  694SOL    HW1 2762   1.007   1.653   6.518
  694SOL    HW2 2763   0.896   1.667   6.416
  695SOL     OW 2764   0.395   0.694   6.059
  695SOL    HW1 2765   0.422   0.603   6.072
  695SOL    HW2 2766   0.302   0.696   6.084
  696SOL     OW 2767   1.531   0.232   7.313
  696SOL    HW1 2768   1.531   0.256   7.405
  696SOL    HW2 2769   1.501   0.141   7.311
  697SOL     OW 2770   0.642   0.135   5.687
  697SOL    HW1 2771   0.674   0.055   5.729
  697SOL    HW2 2772   0.580   0.104   5.621
  698SOL     OW 2773   0.779   0.282   7.349
  698SOL    HW1 2774   0.844   0.212   7.355
  698SOL    HW2 2775   0.717   0.264   7.420
  699SOL     OW 2776   0.878   1.521   6.781
  699SOL    HW1 2777   0.862   1.486   6.694
  699SOL    HW2 2778   0.947   1.466   6.818
  700SOL     OW 2779   1.342   0.586   7.016
  700SOL    HW1 2780   1.372   0.558   7.102
  700SOL    HW2 2781   1.375   0.676   7.007
  701SOL     OW 2782   0.813   1.396   6.524
  701SOL    HW1 2783   0.897   1.387   6.479
  701SOL    HW2 2784   0.749   1.396   6.454
  702SOL     OW 2785   0.929   0.511   6.488
  702SOL    HW1 2786   0.905   0.503   6.396
  702SOL    HW2 2787   0.957   0.423   6.513
  703SOL     OW 2788   0.546   0.056   6.076
  703SOL    HW1 2789   0.471   0.064   6.136
  703SOL    HW2 2790   0.548   0.141   6.031
  704SOL     OW 2791   1.425   1.198   5.625
  704SOL    HW1 2792   1.457   1.122   5.674
  704SOL    HW2 2793   1.337   1.214   5.659
  705SOL     OW 2794   0.335   0.044   5.781
  705SOL    HW1 2795   0.363   0.087   5.700
  705SOL    HW2 2796   0.416   0.028   5.829
  706SOL     OW 2797   0.938   0.247   6.050
  706SOL    HW1 2798   0.911   0.288   5.968
  706SOL    HW2 2799   1.034   0.249   6.047
  707SOL     OW 2800   1.080   0.681   7.045
  707SOL    HW1 2801   1.008   0.617   7.052
  707SOL    HW2 2802   1.159   0.627   7.040
  708SOL     OW 2803   0.466   1.149   6.324
  708SOL    HW1 2804   0.393   1.126   6.382
  708SOL    HW2 2805   0.433   1.133   6.236
  709SOL     OW 2806   1.024   0.546   5.610
  709SOL    HW1 2807   0.981   0.630   5.590
  709SOL    HW2 2808   1.087   0.568   5.678
  710SOL     OW 2809   0.079   0.570   6.979
  710SOL    HW1 2810   0.168   0.553   6.948
  710SOL    HW2 2811   0.089   0.642   7.042
  711SOL     OW 2812   0.572   0.231   6.746
  711SOL    HW1 2813   0.595   0.139   6.756
  711SOL    HW2 2814   0.481   0.236   6.776
  712SOL     OW 2815   0.872   0.462   6.225
  712SOL    HW1 2816   0.819   0.513   6.164
  712SOL    HW2 2817   0.890   0.380   6.179
  713SOL     OW 2818   0.994   0.042   6.365
  713SOL    HW1 2819   0.961   0.067   6.279
  713SOL    HW2 2820   1.005   3.947   6.360
  714SOL     OW 2821   1.458   1.157   6.421
  714SOL    HW1 2822   1.389   1.105   6.462
  714SOL    HW2 2823   1.428   1.170   6.331
  715SOL     OW 2824   1.467   0.602   6.564
  715SOL    HW1 2825   1.416   0.522   6.571
  715SOL    HW2 2826   1.527   0.599   6.638
  716SOL     OW 2827   1.840   0.819   5.972
  716SOL    HW1 2828   1.899   0.768   6.028
  716SOL    HW2 2829   1.812   0.757   5.905
  717SOL     OW 2830   0.489   1.416   5.747
  717SOL    HW1 2831   0.414   1.385   5.798
  717SOL    HW2 2832   0.468   1.394   5.657
  718SOL     OW 2833   1.395   0.573   5.656
  718SOL    HW1 2834   1.333   0.554   5.727
  718SOL    HW2 2835   1.480   0.551   5.693
  719SOL     OW 2836   0.558   0.270   5.906
  719SOL    HW1 2837   0.599   0.229   5.830
  719SOL    HW2 2838   0.529   0.356   5.875
  720SOL     OW 2839   1.056   1.345   6.912
  720SOL    HW1 2840   0.981   1.322   6.967
  720SOL    HW2 2841   1.132   1.312   6.959
  721SOL     OW 2842   1.119   1.191   6.692
  721SOL    HW1 2843   1.071   1.235   6.763
  721SOL    HW2 2844   1.083   1.229   6.612
  722SOL     OW 2845   0.914   0.110   6.988
  722SOL    HW1 2846   0.933   0.087   6.897
  722SOL    HW2 2847   0.994   0.153   7.019
  723SOL     OW 2848   0.983   1.113   7.310
  723SOL    HW1 2849   0.891   1.130   7.329
  723SOL    HW2 2850   0.982   1.036   7.253
  724SOL     OW 2851   0.708   1.060   5.957
  724SOL    HW1 2852   0.694   1.046   6.051
  724SOL    HW2 2853   0.784   1.007   5.935
  725SOL     OW 2854   0.420   0.815   6.838
  725SOL    HW1 2855   0.490   0.822   6.904
  725SOL    HW2 2856   0.386   0.727   6.848
  726SOL     OW 2857   1.267   0.375   6.861
  726SOL    HW1 2858   1.301   0.452   6.906
  726SOL    HW2 2859   1.180   0.402   6.830
  727SOL     OW 2860   0.064   1.579   6.931
  727SOL    HW1 2861   0.067   1.647   6.863
  727SOL    HW2 2862   0.156   1.566   6.955
  728SOL     OW 2863   0.375   1.102   6.071
  728SOL    HW1 2864   0.367   1.180   6.016
  728SOL    HW2 2865   0.373   1.029   6.010
  729SOL     OW 2866   0.556   0.537   6.445
  729SOL    HW1 2867   0.572   0.595   6.371
  729SOL    HW2 2868   0.620   0.565   6.511
  730SOL     OW 2869   1.292   1.416   6.725
  730SOL    HW1 2870   1.289   1.454   6.813
  730SOL    HW2 2871   1.230   1.343   6.728
  731SOL     OW 2872   1.577   0.632   6.070
  731SOL    HW1 2873   1.539   0.693   6.133
  731SOL    HW2 2874   1.628   0.687   6.011
  732SOL     OW 2875   0.346   1.525   6.906
  732SOL    HW1 2876   0.336   1.476   6.825
  732SOL    HW2 2877   0.440   1.541   6.913
  733SOL     OW 2878   0.413   0.739   7.187
  733SOL    HW1 2879   0.474   0.786   7.130
  733SOL    HW2 2880   0.454   0.654   7.200
  734SOL     OW 2881   1.598   0.777   7.268
  734SOL    HW1 2882   1.510   0.815   7.263
  734SOL    HW2 2883   1.648   0.824   7.201
  735SOL     OW 2884   1.020   0.122   7.364
  735SOL    HW1 2885   1.057   0.201   7.323
  735SOL    HW2 2886   1.008   0.061   7.291
  736SOL     OW 2887   0.479   0.036   7.353
  736SOL    HW1 2888   0.492   0.040   7.258
  736SOL    HW2 2889   0.419   0.108   7.373
  737SOL     OW 2890   0.584   0.874   6.617
  737SOL    HW1 2891   0.615   0.964   6.617
  737SOL    HW2 2892   0.528   0.868   6.694
  738SOL     OW 2893   1.360   0.857   6.615
  738SOL    HW1 2894   1.275   0.849   6.572
  738SOL    HW2 2895   1.398   0.769   6.610
  739SOL     OW 2896   1.205   0.535   5.850
  739SOL    HW1 2897   1.214   0.455   5.902
  739SOL    HW2 2898   1.160   0.597   5.907
  740SOL     OW 2899   0.313   0.214   6.827
  740SOL    HW1 2900   0.272   0.248   6.906
  740SOL    HW2 2901   0.294   0.120   6.830
  741SOL     OW 2902   0.055   1.305   6.866
  741SOL    HW1 2903   0.089   1.265   6.947
  741SOL    HW2 2904   0.050   1.398   6.886
  742SOL     OW 2905   0.726   0.634   6.642
  742SOL    HW1 2906   0.799   0.617   6.583
  742SOL    HW2 2907   0.697   0.723   6.620
  743SOL     OW 2908   1.730   0.957   7.442
  743SOL    HW1 2909   1.681   0.900   7.383
  743SOL    HW2 2910   1.669   0.974   7.514
  744SOL     OW 2911   0.326   0.056   6.235
  744SOL    HW1 2912   0.297   0.147   6.236
  744SOL    HW2 2913   0.286   0.017   6.313
  745SOL     OW 2914   1.601   0.387   5.969
  745SOL    HW1 2915   1.574   0.319   6.032
  745SOL    HW2 2916   1.581   0.469   6.013
  746SOL     OW 2917   1.029   0.759   6.546
  746SOL    HW1 2918   1.025   0.777   6.640
  746SOL    HW2 2919   1.001   0.668   6.538
  747SOL     OW 2920   0.974   1.557   7.277
  747SOL    HW1 2921   0.965   1.602   7.193
  747SOL    HW2 2922   1.025   1.479   7.258
  748SOL     OW 2923   0.351   0.920   7.387
  748SOL    HW1 2924   0.430   0.941   7.437
  748SOL    HW2 2925   0.379   0.854   7.324
  749SOL     OW 2926   1.509   0.276   5.722
  749SOL    HW1 2927   1.434   0.219   5.735
  749SOL    HW2 2928   1.523   0.317   5.808
  750SOL     OW 2929   1.293   0.827   5.618
  750SOL    HW1 2930   1.334   0.741   5.620
  750SOL    HW2 2931   1.324   0.866   5.536
  751SOL     OW 2932   1.062   1.334   6.433
  751SOL    HW1 2933   1.060   1.258   6.376
  751SOL    HW2 2934   1.148   1.373   6.419
  752SOL     OW 2935   0.313   0.806   6.537
  752SOL    HW1 2936   0.407   0.823   6.531
  752SOL    HW2 2937   0.307   0.716   6.569
  753SOL     OW 2938   0.337   0.527   6.599
  753SOL    HW1 2939   0.298   0.442   6.581
  753SOL    HW2 2940   0.413   0.531   6.540
  754SOL     OW 2941   1.133   0.382   7.279
  754SOL    HW1 2942   1.086   0.438   7.340
  754SOL    HW2 2943   1.221   0.421   7.273
  755SOL     OW 2944   1.151   0.225   7.067
  755SOL    HW1 2945   1.143   0.279   7.145
  755SOL    HW2 2946   1.173   0.286   6.997
  756SOL     OW 2947   3.999   1.320   5.768
  756SOL    HW1 2948   3.905   1.336   5.772
  756SOL    HW2 2949   0.009   1.227   5.788
  757SOL     OW 2950   0.076   1.801   6.475
  757SOL    HW1 2951   0.078   1.705   6.484
  757SOL    HW2 2952   0.169   1.827   6.479
  758SOL     OW 2953   0.504   1.571   6.496
  758SOL    HW1 2954   0.573   1.632   6.522
  758SOL    HW2 2955   0.547   1.507   6.439
  759SOL     OW 2956   0.984   0.790   6.812
  759SOL    HW1 2957   1.038   0.769   6.888
  759SOL    HW2 2958   0.898   0.757   6.834
  760SOL     OW 2959   0.036   0.566   6.699
  760SOL    HW1 2960   0.103   0.519   6.649
  760SOL    HW2 2961   0.062   0.554   6.791
  761SOL     OW 2962   0.209   0.516   7.307
  761SOL    HW1 2963   0.259   0.481   7.234
  761SOL    HW2 2964   0.159   0.589   7.269
  762SOL     OW 2965   1.372   0.933   7.244
  762SOL    HW1 2966   1.391   1.027   7.244
  762SOL    HW2 2967   1.372   0.909   7.152
  763SOL     OW 2968   0.818   0.572   5.943
  763SOL    HW1 2969   0.822   0.495   5.887
  763SOL    HW2 2970   0.742   0.621   5.911
  764SOL     OW 2971   1.642   0.603   6.775
  764SOL    HW1 2972   1.631   0.541   6.847
  764SOL    HW2 2973   1.729   0.583   6.739
  765SOL     OW 2974   0.297   1.546   7.315
  765SOL    HW1 2975   0.247   1.616   7.358
  765SOL    HW2 2976   0.263   1.465   7.354
  766SOL     OW 2977   0.700   0.457   6.846
  766SOL    HW1 2978   0.654   0.378   6.819
  766SOL    HW2 2979   0.695   0.516   6.771
  767SOL     OW 2980   0.930   1.686   7.044
  767SOL    HW1 2981   0.905   1.649   6.959
  767SOL    HW2 2982   0.923   1.780   7.032
  768SOL     OW 2983   0.458   0.492   5.781
  768SOL    HW1 2984   0.522   0.561   5.798
  768SOL    HW2 2985   0.377   0.539   5.760
  769SOL     OW 2986   0.156   1.136   7.058
  769SOL    HW1 2987   0.161   1.085   7.139
  769SOL    HW2 2988   0.171   1.072   6.988
  770SOL     OW 2989   1.332   1.046   6.807
  770SOL    HW1 2990   1.356   0.984   6.737
  770SOL    HW2 2991   1.260   1.096   6.771
  771SOL     OW 2992   1.307   0.863   5.894
  771SOL    HW1 2993   1.235   0.825   5.944
  771SOL    HW2 2994   1.285   0.846   5.802
  772SOL     OW 2995   1.733   1.764   6.698
  772SOL    HW1 2996   1.803   1.770   6.633
  772SOL    HW2 2997   1.722   1.670   6.712
  773SOL     OW 2998   0.076   1.217   6.613
  773SOL    HW1 2999   0.082   1.243   6.705
  773SOL    HW2 3000   3.983   1.224   6.593
  774SOL     OW 3001   0.680   1.666   7.317
  774SOL    HW1 3002   0.623   1.742   7.305
  774SOL    HW2 3003   0.744   1.672   7.247
  775SOL     OW 3004   1.710   0.128   6.071
  775SOL    HW1 3005   1.791   0.133   6.020
  775SOL    HW2 3006   1.702   0.035   6.092
  776SOL     OW 3007   0.172   1.767   7.414
  776SOL    HW1 3008   0.113   1.719   7.472
  776SOL    HW2 3009   0.215   1.831   7.471
  777SOL     OW 3010   1.277   0.923   6.251
  777SOL    HW1 3011   1.350   0.862   6.266
  777SOL    HW2 3012   1.317   0.999   6.209
  778SOL     OW 3013   0.814   1.272   7.018
  778SOL    HW1 3014   0.788   1.312   7.100
  778SOL    HW2 3015   0.743   1.293   6.957
  779SOL     OW 3016   0.670   1.619   5.740
  779SOL    HW1 3017   0.680   1.630   5.646
  779SOL    HW2 3018   0.616   1.540   5.750
  780SOL     OW 3019   1.838   0.176   6.554
  780SOL    HW1 3020   1.869   0.103   6.500
  780SOL    HW2 3021   1.751   0.195   6.520
  781SOL     OW 3022   0.272   0.323   6.301
  781SOL    HW1 3023   0.187   0.359   6.276
  781SOL    HW2 3024   0.265   0.306   6.395
  782SOL     OW 3025   1.203   1.609   5.618
  782SOL    HW1 3026   1.196   1.516   5.639
  782SOL    HW2 3027   1.139   1.622   5.548
  783SOL     OW 3028   0.825   1.005   6.957
  783SOL    HW1 3029   0.869   1.003   6.872
  783SOL    HW2 3030   0.825   1.098   6.981
  784SOL     OW 3031   0.916   0.911   5.876
  784SOL    HW1 3032   0.978   0.942   5.810
  784SOL    HW2 3033   0.963   0.840   5.920
  785SOL     OW 3034   1.489   1.617   5.622
  785SOL    HW1 3035   1.395   1.623   5.610
  785SOL    HW2 3036   1.525   1.628   5.534
  786SOL     OW 3037   0.372   1.302   7.078
  786SOL    HW1 3038   0.359   1.382   7.028
  786SOL    HW2 3039   0.295   1.249   7.059
  787SOL     OW 3040   1.054   1.103   6.292
  787SOL    HW1 3041   0.981   1.056   6.332
  787SOL    HW2 3042   1.114   1.035   6.263
  788SOL     OW 3043   1.015   0.247   6.554
  788SOL    HW1 3044   1.004   0.198   6.473
  788SOL    HW2 3045   1.008   0.182   6.623
  789SOL     OW 3046   0.603   1.488   6.069
  789SOL    HW1 3047   0.646   1.438   5.999
  789SOL    HW2 3048   0.535   1.537   6.024
  790SOL     OW 3049   1.720   0.392   6.960
  790SOL    HW1 3050   1.791   0.455   6.963
  790SOL    HW2 3051   1.753   0.320   6.906
  791SOL     OW 3052   0.253   1.342   5.877
  791SOL    HW1 3053   0.160   1.352   5.857
  791SOL    HW2 3054   0.262   1.380   5.964
  792SOL     OW 3055   0.106   1.001   7.304
  792SOL    HW1 3056   0.045   0.990   7.378
  792SOL    HW2 3057   0.192   0.980   7.341
  793SOL     OW 3058   0.693   0.244   7.083
  793SOL    HW1 3059   0.763   0.192   7.042
  793SOL    HW2 3060   0.720   0.252   7.174
  794SOL     OW 3061   0.088   0.326   5.614
  794SOL    HW1 3062   3.993   0.321   5.609
  794SOL    HW2 3063   0.110   0.408   5.570
  795SOL     OW 3064   1.427   0.855   6.985
  795SOL    HW1 3065   1.381   0.916   6.928
  795SOL    HW2 3066   1.519   0.862   6.959
  796SOL     OW 3067   0.039   0.163   5.870
  796SOL    HW1 3068   0.037   0.242   5.816
  796SOL    HW2 3069   0.119   0.170   5.921
  797SOL     OW 3070   1.173   1.338   5.701
  797SOL    HW1 3071   1.080   1.313   5.694
  797SOL    HW2 3072   1.186   1.354   5.795
  798SOL     OW 3073   0.619   0.830   7.021
  798SOL    HW1 3074   0.675   0.906   7.005
  798SOL    HW2 3075   0.680   0.757   7.029
  799SOL     OW 3076   0.716   0.564   7.294
  799SOL    HW1 3077   0.758   0.628   7.352
  799SOL    HW2 3078   0.749   0.479   7.323
  800SOL     OW 3079   1.460   1.193   7.219
  800SOL    HW1 3080   1.447   1.203   7.313
  800SOL    HW2 3081   1.554   1.201   7.207
  801SOL     OW 3082   0.380   1.741   7.145
  801SOL    HW1 3083   0.293   1.778   7.131
  801SOL    HW2 3084   0.364   1.660   7.192
  802SOL     OW 3085   1.671   0.877   6.838
  802SOL    HW1 3086   1.664   0.786   6.810
  802SOL    HW2 3087   1.673   0.927   6.757
  803SOL     OW 3088   1.225   0.333   6.032
  803SOL    HW1 3089   1.291   0.265   6.024
  803SOL    HW2 3090   1.247   0.379   6.113
  804SOL     OW 3091   0.592   0.740   6.254
  804SOL    HW1 3092   0.629   0.826   6.238
  804SOL    HW2 3093   0.522   0.731   6.189
  805SOL     OW 3094   1.755   0.380   7.229
  805SOL    HW1 3095   1.737   0.386   7.135
  805SOL    HW2 3096   1.695   0.312   7.261
  806SOL     OW 3097   1.725   0.946   7.100
  806SOL    HW1 3098   1.804   0.998   7.116
  806SOL    HW2 3099   1.726   0.931   7.005
  807SOL     OW 3100   0.868   1.367   5.621
  807SOL    HW1 3101   0.824   1.395   5.702
  807SOL    HW2 3102   0.882   1.448   5.572
  808SOL     OW 3103   0.661   1.792   6.532
  808SOL    HW1 3104   0.642   1.882   6.507
  808SOL    HW2 3105   0.756   1.784   6.523
  809SOL     OW 3106   0.868   0.967   6.441
  809SOL    HW1 3107   0.918   0.896   6.481
  809SOL    HW2 3108   0.832   1.016   6.515
  810SOL     OW 3109   1.081   0.990   5.676
  810SOL    HW1 3110   1.058   1.039   5.597
  810SOL    HW2 3111   1.155   0.935   5.649
  811SOL     OW 3112   0.223   1.304   7.441
  811SOL    HW1 3113   0.153   1.244   7.416
  811SOL    HW2 3114   0.211   1.317   7.535
  812SOL     OW 3115   0.113   1.274   6.303
  812SOL    HW1 3116   0.123   1.223   6.383
  812SOL    HW2 3117   0.110   1.209   6.233
  813SOL     OW 3118   0.677   1.403   7.211
  813SOL    HW1 3119   0.598   1.360   7.244
  813SOL    HW2 3120   0.676   1.489   7.254
  814SOL     OW 3121   1.813   0.184   6.826
  814SOL    HW1 3122   1.816   0.089   6.839
  814SOL    HW2 3123   1.827   0.195   6.732
  815SOL     OW 3124   0.442   0.436   6.116
  815SOL    HW1 3125   0.454   0.361   6.057
  815SOL    HW2 3126   0.387   0.402   6.187
  816SOL     OW 3127   0.330   0.554   6.878
  816SOL    HW1 3128   0.387   0.498   6.931
  816SOL    HW2 3129   0.346   0.527   6.787
  817SOL     OW 3130   0.832   1.580   6.264
  817SOL    HW1 3131   0.822   1.636   6.187
  817SOL    HW2 3132   0.754   1.524   6.264
  818SOL     OW 3133   1.461   0.251   6.697
  818SOL    HW1 3134   1.477   0.164   6.734
  818SOL    HW2 3135   1.403   0.294   6.761
  819SOL     OW 3136   1.006   0.030   6.733
  819SOL    HW1 3137   0.929   3.981   6.702
  819SOL    HW2 3138   1.075   3.964   6.741
  820SOL     OW 3139   0.771   1.332   5.899
  820SOL    HW1 3140   0.741   1.242   5.907
  820SOL    HW2 3141   0.854   1.334   5.948
  821SOL     OW 3142   0.620   1.558   6.870
  821SOL    HW1 3143   0.623   1.639   6.921
  821SOL    HW2 3144   0.708   1.550   6.833
  822SOL     OW 3145   1.315   0.074   5.750
  822SOL    HW1 3146   1.334   0.004   5.687
  822SOL    HW2 3147   1.230   0.051   5.787
  823SOL     OW 3148   1.286   0.458   6.273
  823SOL    HW1 3149   1.236   0.540   6.270
  823SOL    HW2 3150   1.289   0.436   6.366
  824SOL     OW 3151   1.588   0.211   6.453
  824SOL    HW1 3152   1.538   0.233   6.532
  824SOL    HW2 3153   1.588   0.291   6.401
  825SOL     OW 3154   0.045   1.051   5.826
  825SOL    HW1 3155   0.139   1.035   5.817
  825SOL    HW2 3156   0.010   0.971   5.865
  826SOL     OW 3157   0.884   1.649   5.925
  826SOL    HW1 3158   0.811   1.632   5.866
  826SOL    HW2 3159   0.856   1.724   5.977
  827SOL     OW 3160   0.232   0.624   7.567
  827SOL    HW1 3161   0.139   0.630   7.589
  827SOL    HW2 3162   0.234   0.596   7.476
  828SOL     OW 3163   0.225   0.286   8.432
  828SOL    HW1 3164   0.249   0.250   8.517
  828SOL    HW2 3165   0.131   0.270   8.423
  829SOL     OW 3166   0.018   0.387   8.082
  829SOL    HW1 3167   3.929   0.397   8.118
  829SOL    HW2 3168   0.026   0.294   8.063
  830SOL     OW 3169   0.577   1.283   8.631
  830SOL    HW1 3170   0.490   1.286   8.591
  830SOL    HW2 3171   0.591   1.371   8.665
  831SOL     OW 3172   1.551   1.507   8.158
  831SOL    HW1 3173   1.528   1.493   8.250
  831SOL    HW2 3174   1.467   1.502   8.112
  832SOL     OW 3175   1.132   0.698   8.150
  832SOL    HW1 3176   1.180   0.780   8.136
  832SOL    HW2 3177   1.084   0.712   8.231
  833SOL     OW 3178   1.759   0.616   7.676
  833SOL    HW1 3179   1.741   0.609   7.582
  833SOL    HW2 3180   1.751   0.527   7.709
  834SOL     OW 3181   0.759   1.143   8.487
  834SOL    HW1 3182   0.691   1.176   8.546
  834SOL    HW2 3183   0.791   1.220   8.442
  835SOL     OW 3184   0.866   0.777   9.270
  835SOL    HW1 3185   0.855   0.849   9.333
  835SOL    HW2 3186   0.889   0.820   9.188
  836SOL     OW 3187   0.686   1.005   8.096
  836SOL    HW1 3188   0.751   0.991   8.165
  836SOL    HW2 3189   0.616   1.056   8.137
  837SOL     OW 3190   0.709   1.150   9.260
  837SOL    HW1 3191   0.757   1.229   9.286
  837SOL    HW2 3192   0.626   1.183   9.225
  838SOL     OW 3193   0.351   1.403   8.527
  838SOL    HW1 3194   0.269   1.385   8.480
  838SOL    HW2 3195   0.399   1.462   8.469
  839SOL     OW 3196   1.461   1.500   8.800
  839SOL    HW1 3197   1.511   1.581   8.811
  839SOL    HW2 3198   1.401   1.499   8.875
  840SOL     OW 3199   0.453   0.407   8.947
  840SOL    HW1 3200   0.534   0.355   8.943
  840SOL    HW2 3201   0.383   0.342   8.949
  841SOL     OW 3202   1.612   0.451   8.183
  841SOL    HW1 3203   1.540   0.481   8.129
  841SOL    HW2 3204   1.635   0.526   8.238
  842SOL     OW 3205   0.223   1.716   7.908
  842SOL    HW1 3206   0.241   1.792   7.964
  842SOL    HW2 3207   0.300   1.709   7.852
  843SOL     OW 3208   1.136   1.341   9.140
  843SOL    HW1 3209   1.177   1.337   9.227
  843SOL    HW2 3210   1.084   1.262   9.134
  844SOL     OW 3211   0.245   1.447   7.988
  844SOL    HW1 3212   0.215   1.537   7.974
  844SOL    HW2 3213   0.175   1.406   8.039
  845SOL     OW 3214   0.246   1.069   8.333
  845SOL    HW1 3215   0.264   0.985   8.374
  845SOL    HW2 3216   0.194   1.117   8.398
  846SOL     OW 3217   0.614   1.790   8.879
  846SOL    HW1 3218   0.531   1.773   8.923
  846SOL    HW2 3219   0.636   1.881   8.903
  847SOL     OW 3220   0.582   0.983   7.584
  847SOL    HW1 3221   0.627   1.030   7.514
  847SOL    HW2 3222   0.625   1.012   7.664
  848SOL     OW 3223   1.578   0.136   8.905
  848SOL    HW1 3224   1.603   0.210   8.850
  848SOL    HW2 3225   1.554   0.176   8.989
  849SOL     OW 3226   0.138   0.649   8.018
  849SOL    HW1 3227   0.095   0.564   8.023
  849SOL    HW2 3228   0.101   0.699   8.090
  850SOL     OW 3229   0.044   1.591   7.588
  850SOL    HW1 3230   0.032   1.498   7.609
  850SOL    HW2 3231   3.964   1.633   7.621
  851SOL     OW 3232   1.691   0.900   8.102
  851SOL    HW1 3233   1.778   0.865   8.085
  851SOL    HW2 3234   1.670   0.950   8.023
  852SOL     OW 3235   1.647   1.074   7.897
  852SOL    HW1 3236   1.730   1.083   7.850
  852SOL    HW2 3237   1.651   1.140   7.966
  853SOL     OW 3238   0.135   0.754   9.038
  853SOL    HW1 3239   0.230   0.748   9.040
  853SOL    HW2 3240   0.116   0.846   9.057
  854SOL     OW 3241   0.612   1.384   8.185
  854SOL    HW1 3242   0.566   1.300   8.193
  854SOL    HW2 3243   0.596   1.410   8.094
  855SOL     OW 3244   1.290   1.239   8.871
  855SOL    HW1 3245   1.322   1.171   8.812
  855SOL    HW2 3246   1.346   1.232   8.948
  856SOL     OW 3247   0.817   0.002   7.962
  856SOL    HW1 3248   0.862   0.083   7.941
  856SOL    HW2 3249   0.724   0.025   7.964
  857SOL     OW 3250   0.185   0.954   8.724
  857SOL    HW1 3251   0.273   0.919   8.710
  857SOL    HW2 3252   0.131   0.908   8.659
  858SOL     OW 3253   1.531   0.994   7.649
  858SOL    HW1 3254   1.458   0.937   7.676
  858SOL    HW2 3255   1.576   1.015   7.731
  859SOL     OW 3256   1.186   1.806   9.070
  859SOL    HW1 3257   1.197   1.864   8.995
  859SOL    HW2 3258   1.201   1.718   9.035
  860SOL     OW 3259   0.341   0.254   9.274
  860SOL    HW1 3260   0.385   0.337   9.261
  860SOL    HW2 3261   0.250   0.278   9.295
  861SOL     OW 3262   1.468   1.418   8.402
  861SOL    HW1 3263   1.400   1.433   8.468
  861SOL    HW2 3264   1.454   1.328   8.373
  862SOL     OW 3265   1.674   1.703   8.016
  862SOL    HW1 3266   1.642   1.670   7.932
  862SOL    HW2 3267   1.640   1.641   8.081
  863SOL     OW 3268   0.596   0.719   7.711
  863SOL    HW1 3269   0.603   0.802   7.663
  863SOL    HW2 3270   0.533   0.737   7.781
  864SOL     OW 3271   1.276   0.364   8.388
  864SOL    HW1 3272   1.189   0.325   8.394
  864SOL    HW2 3273   1.333   0.302   8.435
  865SOL     OW 3274   0.795   0.616   8.903
  865SOL    HW1 3275   0.765   0.592   8.990
  865SOL    HW2 3276   0.754   0.552   8.845
  866SOL     OW 3277   1.393   0.477   9.125
  866SOL    HW1 3278   1.397   0.521   9.210
  866SOL    HW2 3279   1.453   0.403   9.134
  867SOL     OW 3280   0.956   0.888   9.030
  867SOL    HW1 3281   1.010   0.817   8.995
  867SOL    HW2 3282   0.907   0.921   8.954
  868SOL     OW 3283   0.991   0.404   8.689
  868SOL    HW1 3284   0.908   0.429   8.730
  868SOL    HW2 3285   0.966   0.372   8.602
  869SOL     OW 3286   1.051   0.698   7.874
  869SOL    HW1 3287   1.065   0.691   7.969
  869SOL    HW2 3288   0.969   0.652   7.859
  870SOL     OW 3289   0.081   0.824   8.239
  870SOL    HW1 3290   0.159   0.794   8.285
  870SOL    HW2 3291   0.093   0.919   8.230
  871SOL     OW 3292   0.129   1.856   9.021
  871SOL    HW1 3293   0.137   1.822   9.110
  871SOL    HW2 3294   0.037   1.843   8.999
  872SOL     OW 3295   0.892   0.350   7.646
  872SOL    HW1 3296   0.933   0.409   7.583
  872SOL    HW2 3297   0.894   0.265   7.604
  873SOL     OW 3298   1.711   0.576   9.276
  873SOL    HW1 3299   1.672   0.650   9.230
  873SOL    HW2 3300   1.735   0.514   9.208
  874SOL     OW 3301   1.377   1.143   7.993
  874SOL    HW1 3302   1.450   1.118   7.936
  874SOL    HW2 3303   1.325   1.203   7.939
  875SOL     OW 3304   0.559   0.195   8.330
  875SOL    HW1 3305   0.562   0.217   8.423
  875SOL    HW2 3306   0.547   0.279   8.286
  876SOL     OW 3307   1.015   1.449   7.927
  876SOL    HW1 3308   0.970   1.514   7.873
  876SOL    HW2 3309   0.982   1.464   8.016
  877SOL     OW 3310   0.364   1.813   8.315
  877SOL    HW1 3311   0.429   1.743   8.320
  877SOL    HW2 3312   0.414   1.893   8.330
  878SOL     OW 3313   1.801   1.055   8.320
  878SOL    HW1 3314   1.746   1.038   8.243
  878SOL    HW2 3315   1.739   1.062   8.393
  879SOL     OW 3316   1.228   1.539   8.961
  879SOL    HW1 3317   1.214   1.466   9.021
  879SOL    HW2 3318   1.164   1.524   8.891
  880SOL     OW 3319   0.311   0.955   7.690
  880SOL    HW1 3320   0.395   0.978   7.651
  880SOL    HW2 3321   0.296   0.864   7.664
  881SOL     OW 3322   1.474   0.743   8.179
  881SOL    HW1 3323   1.469   0.699   8.264
  881SOL    HW2 3324   1.555   0.794   8.184
  882SOL     OW 3325   0.465   1.260   9.185
  882SOL    HW1 3326   0.439   1.268   9.093
  882SOL    HW2 3327   0.383   1.265   9.234
  883SOL     OW 3328   0.199   0.296   8.946
  883SOL    HW1 3329   0.106   0.317   8.943
  883SOL    HW2 3330   0.207   0.231   9.016
  884SOL     OW 3331   0.466   1.739   7.767
  884SOL    HW1 3332   0.509   1.796   7.830
  884SOL    HW2 3333   0.538   1.706   7.712
  885SOL     OW 3334   1.437   0.159   7.854
  885SOL    HW1 3335   1.396   0.095   7.796
  885SOL    HW2 3336   1.514   0.114   7.888
  886SOL     OW 3337   0.250   1.791   8.680
  886SOL    HW1 3338   0.299   1.729   8.734
  886SOL    HW2 3339   0.245   1.751   8.594
  887SOL     OW 3340   0.935   1.696   8.347
  887SOL    HW1 3341   1.005   1.638   8.377
  887SOL    HW2 3342   0.893   1.648   8.276
  888SOL     OW 3343   0.395   0.694   7.921
  888SOL    HW1 3344   0.422   0.603   7.935
  888SOL    HW2 3345   0.302   0.696   7.946
  889SOL     OW 3346   1.531   0.232   9.175
  889SOL    HW1 3347   1.531   0.256   9.267
  889SOL    HW2 3348   1.501   0.141   9.173
  890SOL     OW 3349   0.642   0.135   7.549
  890SOL    HW1 3350   0.674   0.055   7.591
  890SOL    HW2 3351   0.580   0.104   7.483
  891SOL     OW 3352   0.778   0.282   9.211
  891SOL    HW1 3353   0.844   0.212   9.217
  891SOL    HW2 3354   0.717   0.263   9.283
  892SOL     OW 3355   0.877   1.521   8.641
  892SOL    HW1 3356   0.860   1.483   8.554
  892SOL    HW2 3357   0.945   1.466   8.678
  893SOL     OW 3358   1.342   0.587   8.878
  893SOL    HW1 3359   1.372   0.558   8.965
  893SOL    HW2 3360   1.376   0.676   8.870
  894SOL     OW 3361   0.815   1.396   8.385
  894SOL    HW1 3362   0.899   1.384   8.340
  894SOL    HW2 3363   0.750   1.395   8.315
  895SOL     OW 3364   0.929   0.511   8.350
  895SOL    HW1 3365   0.905   0.503   8.258
  895SOL    HW2 3366   0.957   0.423   8.375
  896SOL     OW 3367   0.546   0.057   7.938
  896SOL    HW1 3368   0.471   0.064   7.998
  896SOL    HW2 3369   0.548   0.140   7.892
  897SOL     OW 3370   1.427   1.193   7.482
  897SOL    HW1 3371   1.458   1.125   7.542
  897SOL    HW2 3372   1.346   1.224   7.522
  898SOL     OW 3373   0.334   0.045   7.643
  898SOL    HW1 3374   0.363   0.087   7.562
  898SOL    HW2 3375   0.416   0.027   7.691
  899SOL     OW 3376   0.938   0.247   7.912
  899SOL    HW1 3377   0.911   0.289   7.830
  899SOL    HW2 3378   1.034   0.249   7.909
  900SOL     OW 3379   1.079   0.681   8.907
  900SOL    HW1 3380   1.008   0.617   8.914
  900SOL    HW2 3381   1.159   0.628   8.902
  901SOL     OW 3382   1.242   1.561   8.234
  901SOL    HW1 3383   1.232   1.650   8.201
  901SOL    HW2 3384   1.294   1.571   8.314
  902SOL     OW 3385   0.466   1.149   8.187
  902SOL    HW1 3386   0.393   1.126   8.244
  902SOL    HW2 3387   0.433   1.134   8.098
  903SOL     OW 3388   1.024   0.547   7.472
  903SOL    HW1 3389   0.981   0.630   7.452
  903SOL    HW2 3390   1.087   0.568   7.540
  904SOL     OW 3391   0.079   0.570   8.841
  904SOL    HW1 3392   0.168   0.553   8.810
  904SOL    HW2 3393   0.089   0.642   8.904
  905SOL     OW 3394   0.572   0.232   8.608
  905SOL    HW1 3395   0.595   0.139   8.618
  905SOL    HW2 3396   0.481   0.236   8.638
  906SOL     OW 3397   0.872   0.462   8.087
  906SOL    HW1 3398   0.820   0.513   8.025
  906SOL    HW2 3399   0.890   0.380   8.041
  907SOL     OW 3400   0.995   0.042   8.227
  907SOL    HW1 3401   0.961   0.067   8.141
  907SOL    HW2 3402   1.005   3.947   8.222
  908SOL     OW 3403   1.435   1.163   8.306
  908SOL    HW1 3404   1.367   1.096   8.305
  908SOL    HW2 3405   1.462   1.172   8.214
  909SOL     OW 3406   1.467   0.604   8.427
  909SOL    HW1 3407   1.415   0.523   8.432
  909SOL    HW2 3408   1.527   0.599   8.500
  910SOL     OW 3409   1.851   0.815   7.831
  910SOL    HW1 3410   1.904   0.760   7.889
  910SOL    HW2 3411   1.817   0.755   7.765
  911SOL     OW 3412   0.489   1.418   7.610
  911SOL    HW1 3413   0.414   1.385   7.660
  911SOL    HW2 3414   0.470   1.393   7.520
  912SOL     OW 3415   1.664   1.255   8.106
  912SOL    HW1 3416   1.760   1.257   8.112
  912SOL    HW2 3417   1.637   1.344   8.126
  913SOL     OW 3418   1.395   0.573   7.518
  913SOL    HW1 3419   1.333   0.554   7.588
  913SOL    HW2 3420   1.480   0.553   7.555
  914SOL     OW 3421   0.558   0.270   7.768
  914SOL    HW1 3422   0.599   0.229   7.692
  914SOL    HW2 3423   0.529   0.356   7.737
  915SOL     OW 3424   1.752   1.238   9.022
  915SOL    HW1 3425   1.840   1.199   9.020
  915SOL    HW2 3426   1.767   1.328   9.051
  916SOL     OW 3427   1.059   1.354   8.782
  916SOL    HW1 3428   0.984   1.323   8.833
  916SOL    HW2 3429   1.135   1.313   8.823
  917SOL     OW 3430   1.606   1.625   9.100
  917SOL    HW1 3431   1.603   1.661   9.012
  917SOL    HW2 3432   1.690   1.579   9.104
  918SOL     OW 3433   1.129   1.204   8.554
  918SOL    HW1 3434   1.069   1.240   8.619
  918SOL    HW2 3435   1.093   1.233   8.470
  919SOL     OW 3436   1.629   1.099   8.526
  919SOL    HW1 3437   1.624   1.160   8.599
  919SOL    HW2 3438   1.549   1.115   8.476
  920SOL     OW 3439   0.914   0.111   8.850
  920SOL    HW1 3440   0.933   0.086   8.760
  920SOL    HW2 3441   0.994   0.153   8.881
  921SOL     OW 3442   0.984   1.115   9.170
  921SOL    HW1 3443   0.892   1.130   9.191
  921SOL    HW2 3444   0.983   1.037   9.115
  922SOL     OW 3445   0.707   1.059   7.819
  922SOL    HW1 3446   0.694   1.045   7.913
  922SOL    HW2 3447   0.784   1.007   7.797
  923SOL     OW 3448   0.420   0.815   8.700
  923SOL    HW1 3449   0.489   0.822   8.766
  923SOL    HW2 3450   0.385   0.727   8.710
  924SOL     OW 3451   1.266   0.375   8.723
  924SOL    HW1 3452   1.301   0.453   8.768
  924SOL    HW2 3453   1.180   0.402   8.692
  925SOL     OW 3454   0.064   1.579   8.793
  925SOL    HW1 3455   0.067   1.646   8.724
  925SOL    HW2 3456   0.156   1.566   8.817
  926SOL     OW 3457   0.374   1.102   7.934
  926SOL    HW1 3458   0.369   1.180   7.879
  926SOL    HW2 3459   0.373   1.029   7.872
  927SOL     OW 3460   0.556   0.538   8.308
  927SOL    HW1 3461   0.572   0.595   8.233
  927SOL    HW2 3462   0.621   0.565   8.373
  928SOL     OW 3463   1.250   1.346   7.841
  928SOL    HW1 3464   1.293   1.431   7.842
  928SOL    HW2 3465   1.161   1.364   7.873
  929SOL     OW 3466   1.280   1.457   8.594
  929SOL    HW1 3467   1.335   1.459   8.672
  929SOL    HW2 3468   1.225   1.379   8.606
  930SOL     OW 3469   1.579   0.631   7.933
  930SOL    HW1 3470   1.537   0.693   7.993
  930SOL    HW2 3471   1.625   0.687   7.869
  931SOL     OW 3472   0.346   1.525   8.768
  931SOL    HW1 3473   0.336   1.476   8.687
  931SOL    HW2 3474   0.440   1.541   8.775
  932SOL     OW 3475   0.413   0.739   9.049
  932SOL    HW1 3476   0.474   0.786   8.992
  932SOL    HW2 3477   0.453   0.654   9.062
  933SOL     OW 3478   1.600   0.778   9.130
  933SOL    HW1 3479   1.514   0.819   9.123
  933SOL    HW2 3480   1.653   0.819   9.062
  934SOL     OW 3481   1.019   0.123   9.225
  934SOL    HW1 3482   1.057   0.201   9.185
  934SOL    HW2 3483   1.008   0.061   9.153
  935SOL     OW 3484   0.479   0.036   9.215
  935SOL    HW1 3485   0.492   0.040   9.120
  935SOL    HW2 3486   0.419   0.108   9.235
  936SOL     OW 3487   0.584   0.873   8.479
  936SOL    HW1 3488   0.613   0.964   8.478
  936SOL    HW2 3489   0.528   0.867   8.556
  937SOL     OW 3490   1.358   0.859   8.479
  937SOL    HW1 3491   1.276   0.850   8.431
  937SOL    HW2 3492   1.399   0.772   8.474
  938SOL     OW 3493   1.205   0.534   7.711
  938SOL    HW1 3494   1.213   0.455   7.764
  938SOL    HW2 3495   1.161   0.597   7.768
  939SOL     OW 3496   0.313   0.214   8.689
  939SOL    HW1 3497   0.272   0.248   8.769
  939SOL    HW2 3498   0.294   0.120   8.692
  940SOL     OW 3499   0.056   1.305   8.728
  940SOL    HW1 3500   0.090   1.265   8.809
  940SOL    HW2 3501   0.050   1.398   8.748
  941SOL     OW 3502   0.727   0.634   8.505
  941SOL    HW1 3503   0.799   0.617   8.445
  941SOL    HW2 3504   0.697   0.722   8.482
  942SOL     OW 3505   1.734   0.959   9.300
  942SOL    HW1 3506   1.687   0.900   9.242
  942SOL    HW2 3507   1.675   0.972   9.374
  943SOL     OW 3508   0.326   0.056   8.097
  943SOL    HW1 3509   0.297   0.147   8.098
  943SOL    HW2 3510   0.286   0.017   8.175
  944SOL     OW 3511   1.601   0.387   7.831
  944SOL    HW1 3512   1.574   0.319   7.893
  944SOL    HW2 3513   1.582   0.469   7.875
  945SOL     OW 3514   1.028   0.760   8.409
  945SOL    HW1 3515   1.025   0.777   8.503
  945SOL    HW2 3516   1.001   0.668   8.400
  946SOL     OW 3517   0.983   1.566   9.164
  946SOL    HW1 3518   0.967   1.611   9.081
  946SOL    HW2 3519   1.025   1.484   9.140
  947SOL     OW 3520   1.855   1.506   9.054
  947SOL    HW1 3521   1.871   1.534   8.964
  947SOL    HW2 3522   1.938   1.519   9.099
  948SOL     OW 3523   0.351   0.920   9.248
  948SOL    HW1 3524   0.430   0.940   9.299
  948SOL    HW2 3525   0.379   0.854   9.186
  949SOL     OW 3526   1.510   0.275   7.584
  949SOL    HW1 3527   1.434   0.218   7.597
  949SOL    HW2 3528   1.523   0.317   7.669
  950SOL     OW 3529   1.294   0.827   7.482
  950SOL    HW1 3530   1.335   0.740   7.483
  950SOL    HW2 3531   1.322   0.866   7.399
  951SOL     OW 3532   1.066   1.337   8.298
  951SOL    HW1 3533   1.066   1.262   8.240
  951SOL    HW2 3534   1.131   1.396   8.262
  952SOL     OW 3535   0.313   0.806   8.399
  952SOL    HW1 3536   0.407   0.822   8.392
  952SOL    HW2 3537   0.307   0.716   8.431
  953SOL     OW 3538   0.337   0.527   8.461
  953SOL    HW1 3539   0.297   0.442   8.443
  953SOL    HW2 3540   0.413   0.531   8.402
  954SOL     OW 3541   1.134   0.383   9.140
  954SOL    HW1 3542   1.086   0.438   9.202
  954SOL    HW2 3543   1.221   0.421   9.135
  955SOL     OW 3544   1.151   0.224   8.929
  955SOL    HW1 3545   1.143   0.279   9.007
  955SOL    HW2 3546   1.174   0.286   8.859
  956SOL     OW 3547   3.999   1.320   7.631
  956SOL    HW1 3548   3.905   1.336   7.635
  956SOL    HW2 3549   0.009   1.227   7.650
  957SOL     OW 3550   0.076   1.801   8.338
  957SOL    HW1 3551   0.078   1.705   8.345
  957SOL    HW2 3552   0.168   1.827   8.341
  958SOL     OW 3553   0.504   1.570   8.359
  958SOL    HW1 3554   0.573   1.632   8.383
  958SOL    HW2 3555   0.547   1.507   8.301
  959SOL     OW 3556   0.984   0.792   8.675
  959SOL    HW1 3557   1.037   0.769   8.751
  959SOL    HW2 3558   0.898   0.755   8.694
  960SOL     OW 3559   0.036   0.567   8.561
  960SOL    HW1 3560   0.102   0.519   8.511
  960SOL    HW2 3561   0.062   0.554   8.652
  961SOL     OW 3562   0.209   0.516   9.169
  961SOL    HW1 3563   0.259   0.480   9.096
  961SOL    HW2 3564   0.159   0.588   9.131
  962SOL     OW 3565   1.377   0.939   9.107
  962SOL    HW1 3566   1.398   1.033   9.105
  962SOL    HW2 3567   1.374   0.914   9.014
  963SOL     OW 3568   0.817   0.572   7.806
  963SOL    HW1 3569   0.822   0.495   7.749
  963SOL    HW2 3570   0.742   0.621   7.773
  964SOL     OW 3571   1.642   0.602   8.635
  964SOL    HW1 3572   1.632   0.541   8.708
  964SOL    HW2 3573   1.729   0.583   8.600
  965SOL     OW 3574   0.297   1.546   9.178
  965SOL    HW1 3575   0.247   1.616   9.220
  965SOL    HW2 3576   0.263   1.465   9.216
  966SOL     OW 3577   0.701   0.457   8.708
  966SOL    HW1 3578   0.654   0.378   8.682
  966SOL    HW2 3579   0.695   0.515   8.633
  967SOL     OW 3580   0.929   1.679   8.915
  967SOL    HW1 3581   0.902   1.646   8.829
  967SOL    HW2 3582   0.925   1.774   8.906
  968SOL     OW 3583   0.458   0.492   7.643
  968SOL    HW1 3584   0.522   0.561   7.660
  968SOL    HW2 3585   0.377   0.539   7.622
  969SOL     OW 3586   0.157   1.136   8.920
  969SOL    HW1 3587   0.161   1.085   9.001
  969SOL    HW2 3588   0.172   1.072   8.851
  970SOL     OW 3589   1.327   1.048   8.672
  970SOL    HW1 3590   1.350   0.984   8.604
  970SOL    HW2 3591   1.256   1.099   8.633
  971SOL     OW 3592   1.309   0.856   7.756
  971SOL    HW1 3593   1.232   0.826   7.804
  971SOL    HW2 3594   1.286   0.844   7.664
  972SOL     OW 3595   1.742   1.739   8.583
  972SOL    HW1 3596   1.818   1.762   8.529
  972SOL    HW2 3597   1.729   1.646   8.568
  973SOL     OW 3598   1.242   1.732   8.558
  973SOL    HW1 3599   1.326   1.752   8.516
  973SOL    HW2 3600   1.248   1.639   8.580
  974SOL     OW 3601   0.076   1.217   8.475
  974SOL    HW1 3602   0.082   1.243   8.568
  974SOL    HW2 3603   3.983   1.224   8.454
  975SOL     OW 3604   0.679   1.665   9.176
  975SOL    HW1 3605   0.623   1.743   9.171
  975SOL    HW2 3606   0.742   1.677   9.106
  976SOL     OW 3607   1.710   0.128   7.934
  976SOL    HW1 3608   1.791   0.133   7.882
  976SOL    HW2 3609   1.702   0.035   7.954
  977SOL     OW 3610   0.172   1.767   9.276
  977SOL    HW1 3611   0.113   1.719   9.334
  977SOL    HW2 3612   0.215   1.831   9.333
  978SOL     OW 3613   1.276   0.926   8.120
  978SOL    HW1 3614   1.350   0.865   8.128
  978SOL    HW2 3615   1.311   0.999   8.069
  979SOL     OW 3616   0.815   1.273   8.878
  979SOL    HW1 3617   0.788   1.312   8.961
  979SOL    HW2 3618   0.744   1.292   8.818
  980SOL     OW 3619   0.669   1.622   7.602
  980SOL    HW1 3620   0.681   1.631   7.507
  980SOL    HW2 3621   0.617   1.542   7.612
  981SOL     OW 3622   1.628   1.728   8.839
  981SOL    HW1 3623   1.671   1.735   8.754
  981SOL    HW2 3624   1.615   1.819   8.866
  982SOL     OW 3625   1.838   0.176   8.416
  982SOL    HW1 3626   1.869   0.103   8.362
  982SOL    HW2 3627   1.751   0.195   8.382
  983SOL     OW 3628   0.272   0.323   8.163
  983SOL    HW1 3629   0.187   0.359   8.138
  983SOL    HW2 3630   0.265   0.306   8.257
  984SOL     OW 3631   1.116   1.589   7.504
  984SOL    HW1 3632   1.183   1.521   7.503
  984SOL    HW2 3633   1.075   1.584   7.418
  985SOL     OW 3634   0.824   1.005   8.820
  985SOL    HW1 3635   0.866   1.001   8.735
  985SOL    HW2 3636   0.824   1.098   8.843
  986SOL     OW 3637   0.916   0.911   7.740
  986SOL    HW1 3638   0.975   0.941   7.672
  986SOL    HW2 3639   0.963   0.840   7.783
  987SOL     OW 3640   0.373   1.302   8.939
  987SOL    HW1 3641   0.358   1.383   8.889
  987SOL    HW2 3642   0.296   1.248   8.922
  988SOL     OW 3643   1.611   1.282   8.730
  988SOL    HW1 3644   1.670   1.272   8.805
  988SOL    HW2 3645   1.551   1.352   8.756
  989SOL     OW 3646   1.051   1.107   8.156
  989SOL    HW1 3647   0.980   1.055   8.194
  989SOL    HW2 3648   1.112   1.042   8.122
  990SOL     OW 3649   1.015   0.247   8.416
  990SOL    HW1 3650   1.004   0.198   8.335
  990SOL    HW2 3651   1.008   0.182   8.485
  991SOL     OW 3652   0.600   1.485   7.932
  991SOL    HW1 3653   0.648   1.438   7.863
  991SOL    HW2 3654   0.535   1.537   7.885
  992SOL     OW 3655   1.719   0.392   8.822
  992SOL    HW1 3656   1.791   0.455   8.825
  992SOL    HW2 3657   1.753   0.320   8.768
  993SOL     OW 3658   0.252   1.341   7.740
  993SOL    HW1 3659   0.160   1.352   7.719
  993SOL    HW2 3660   0.263   1.380   7.826
  994SOL     OW 3661   0.105   1.001   9.166
  994SOL    HW1 3662   0.045   0.990   9.239
  994SOL    HW2 3663   0.191   0.980   9.203
  995SOL     OW 3664   0.693   0.244   8.945
  995SOL    HW1 3665   0.763   0.192   8.904
  995SOL    HW2 3666   0.719   0.252   9.037
  996SOL     OW 3667   0.088   0.326   7.476
  996SOL    HW1 3668   3.992   0.321   7.471
  996SOL    HW2 3669   0.110   0.408   7.432
  997SOL     OW 3670   1.430   0.858   8.848
  997SOL    HW1 3671   1.382   0.919   8.792
  997SOL    HW2 3672   1.519   0.860   8.815
  998SOL     OW 3673   0.039   0.162   7.731
  998SOL    HW1 3674   0.038   0.242   7.677
  998SOL    HW2 3675   0.119   0.169   7.783
  999SOL     OW 3676   1.189   1.315   7.565
  999SOL    HW1 3677   1.094   1.311   7.563
  999SOL    HW2 3678   1.211   1.327   7.657
 1000SOL     OW 3679   0.619   0.830   8.883
 1000SOL    HW1 3680   0.675   0.905   8.867
 1000SOL    HW2 3681   0.680   0.756   8.891
 1001SOL     OW 3682   1.490   1.777   8.424
 1001SOL    HW1 3683   1.515   1.843   8.360
 1001SOL    HW2 3684   1.570   1.761   8.474
 1002SOL     OW 3685   0.717   0.564   9.156
 1002SOL    HW1 3686   0.758   0.627   9.215
 1002SOL    HW2 3687   0.749   0.478   9.185
 1003SOL     OW 3688   1.470   1.201   9.080
 1003SOL    HW1 3689   1.458   1.214   9.174
 1003SOL    HW2 3690   1.564   1.215   9.066
 1004SOL     OW 3691   0.380   1.742   9.007
 1004SOL    HW1 3692   0.293   1.779   8.993
 1004SOL    HW2 3693   0.365   1.660   9.055
 1005SOL     OW 3694   1.670   0.881   8.704
 1005SOL    HW1 3695   1.664   0.796   8.661
 1005SOL    HW2 3696   1.661   0.944   8.632
 1006SOL     OW 3697   1.224   0.333   7.894
 1006SOL    HW1 3698   1.291   0.265   7.886
 1006SOL    HW2 3699   1.246   0.379   7.975
 1007SOL     OW 3700   0.591   0.740   8.117
 1007SOL    HW1 3701   0.629   0.826   8.100
 1007SOL    HW2 3702   0.522   0.730   8.052
 1008SOL     OW 3703   1.754   0.381   9.091
 1008SOL    HW1 3704   1.736   0.385   8.997
 1008SOL    HW2 3705   1.697   0.311   9.123
 1009SOL     OW 3706   1.744   0.934   8.961
 1009SOL    HW1 3707   1.742   1.029   8.973
 1009SOL    HW2 3708   1.729   0.922   8.867
 1010SOL     OW 3709   0.857   1.368   7.479
 1010SOL    HW1 3710   0.826   1.399   7.564
 1010SOL    HW2 3711   0.885   1.447   7.433
 1011SOL     OW 3712   0.661   1.792   8.393
 1011SOL    HW1 3713   0.638   1.882   8.370
 1011SOL    HW2 3714   0.756   1.787   8.384
 1012SOL     OW 3715   0.867   0.966   8.303
 1012SOL    HW1 3716   0.917   0.895   8.343
 1012SOL    HW2 3717   0.833   1.015   8.378
 1013SOL     OW 3718   1.076   0.983   7.537
 1013SOL    HW1 3719   1.057   1.039   7.461
 1013SOL    HW2 3720   1.154   0.934   7.511
 1014SOL     OW 3721   1.847   1.550   8.287
 1014SOL    HW1 3722   1.771   1.534   8.232
 1014SOL    HW2 3723   1.844   1.480   8.352
 1015SOL     OW 3724   0.223   1.303   9.303
 1015SOL    HW1 3725   0.153   1.244   9.278
 1015SOL    HW2 3726   0.211   1.317   9.397
 1016SOL     OW 3727   0.112   1.273   8.165
 1016SOL    HW1 3728   0.123   1.221   8.245
 1016SOL    HW2 3729   0.110   1.209   8.095
 1017SOL     OW 3730   0.680   1.402   9.075
 1017SOL    HW1 3731   0.600   1.359   9.105
 1017SOL    HW2 3732   0.675   1.490   9.113
 1018SOL     OW 3733   1.813   0.184   8.687
 1018SOL    HW1 3734   1.816   0.089   8.701
 1018SOL    HW2 3735   1.827   0.195   8.593
 1019SOL     OW 3736   0.442   0.436   7.979
 1019SOL    HW1 3737   0.454   0.362   7.919
 1019SOL    HW2 3738   0.386   0.402   8.049
 1020SOL     OW 3739   1.702   1.479   8.544
 1020SOL    HW1 3740   1.620   1.458   8.501
 1020SOL    HW2 3741   1.713   1.411   8.610
 1021SOL     OW 3742   0.330   0.555   8.740
 1021SOL    HW1 3743   0.387   0.498   8.793
 1021SOL    HW2 3744   0.346   0.527   8.649
 1022SOL     OW 3745   0.828   1.576   8.122
 1022SOL    HW1 3746   0.822   1.626   8.041
 1022SOL    HW2 3747   0.750   1.522   8.123
 1023SOL     OW 3748   1.461   0.251   8.560
 1023SOL    HW1 3749   1.476   0.164   8.595
 1023SOL    HW2 3750   1.403   0.293   8.623
 1024SOL     OW 3751   1.006   0.030   8.596
 1024SOL    HW1 3752   0.929   3.981   8.564
 1024SOL    HW2 3753   1.075   3.964   8.602
 1025SOL     OW 3754   0.768   1.331   7.763
 1025SOL    HW1 3755   0.737   1.241   7.768
 1025SOL    HW2 3756   0.854   1.329   7.806
 1026SOL     OW 3757   0.620   1.558   8.733
 1026SOL    HW1 3758   0.623   1.639   8.783
 1026SOL    HW2 3759   0.708   1.550   8.694
 1027SOL     OW 3760   1.316   0.073   7.613
 1027SOL    HW1 3761   1.332   0.005   7.548
 1027SOL    HW2 3762   1.230   0.052   7.649
 1028SOL     OW 3763   1.286   0.458   8.135
 1028SOL    HW1 3764   1.237   0.540   8.132
 1028SOL    HW2 3765   1.289   0.436   8.228
 1029SOL     OW 3766   1.588   0.211   8.316
 1029SOL    HW1 3767   1.538   0.233   8.394
 1029SOL    HW2 3768   1.588   0.291   8.263
 1030SOL     OW 3769   0.045   1.052   7.687
 1030SOL    HW1 3770   0.139   1.035   7.679
 1030SOL    HW2 3771   0.011   0.972   7.727
 1031SOL     OW 3772   0.862   1.637   7.811
 1031SOL    HW1 3773   0.805   1.631   7.735
 1031SOL    HW2 3774   0.847   1.725   7.846
 1032SOL     OW 3775   0.233   0.625   9.429
 1032SOL    HW1 3776   0.140   0.631   9.451
 1032SOL    HW2 3777   0.234   0.596   9.338
 1033SOL     OW 3778   0.225   0.286  10.293
 1033SOL    HW1 3779   0.249   0.250  10.379
 1033SOL    HW2 3780   0.131   0.270  10.285
 1034SOL     OW 3781   0.018   0.387   9.944
 1034SOL    HW1 3782   3.929   0.397   9.980
 1034SOL    HW2 3783   0.025   0.294   9.925
 1035SOL     OW 3784   0.577   1.282  10.493
 1035SOL    HW1 3785   0.490   1.286  10.453
 1035SOL    HW2 3786   0.591   1.371  10.527
 1036SOL     OW 3787   1.562   1.513  10.018
 1036SOL    HW1 3788   1.519   1.494  10.101
 1036SOL    HW2 3789   1.490   1.519   9.954
 1037SOL     OW 3790   1.132   0.698  10.011
 1037SOL    HW1 3791   1.180   0.780   9.998
 1037SOL    HW2 3792   1.084   0.712  10.093
 1038SOL     OW 3793   1.760   0.618   9.538
 1038SOL    HW1 3794   1.742   0.609   9.444
 1038SOL    HW2 3795   1.751   0.529   9.573
 1039SOL     OW 3796   0.758   1.142  10.349
 1039SOL    HW1 3797   0.691   1.176  10.408
 1039SOL    HW2 3798   0.792   1.220  10.304
 1040SOL     OW 3799   0.866   0.777  11.132
 1040SOL    HW1 3800   0.855   0.849  11.195
 1040SOL    HW2 3801   0.889   0.820  11.050
 1041SOL     OW 3802   0.686   1.005   9.957
 1041SOL    HW1 3803   0.751   0.991  10.027
 1041SOL    HW2 3804   0.616   1.055  10.000
 1042SOL     OW 3805   0.709   1.150  11.122
 1042SOL    HW1 3806   0.757   1.229  11.148
 1042SOL    HW2 3807   0.626   1.183  11.087
 1043SOL     OW 3808   0.351   1.403  10.389
 1043SOL    HW1 3809   0.269   1.385  10.342
 1043SOL    HW2 3810   0.399   1.462  10.331
 1044SOL     OW 3811   1.461   1.500  10.663
 1044SOL    HW1 3812   1.511   1.581  10.672
 1044SOL    HW2 3813   1.402   1.499  10.738
 1045SOL     OW 3814   0.453   0.407  10.809
 1045SOL    HW1 3815   0.534   0.355  10.805
 1045SOL    HW2 3816   0.383   0.342  10.810
 1046SOL     OW 3817   1.613   0.451  10.045
 1046SOL    HW1 3818   1.540   0.482   9.991
 1046SOL    HW2 3819   1.635   0.525  10.101
 1047SOL     OW 3820   0.223   1.717   9.770
 1047SOL    HW1 3821   0.241   1.792   9.826
 1047SOL    HW2 3822   0.300   1.710   9.714
 1048SOL     OW 3823   1.136   1.341  11.002
 1048SOL    HW1 3824   1.177   1.337  11.089
 1048SOL    HW2 3825   1.084   1.261  10.996
 1049SOL     OW 3826   0.246   1.447   9.849
 1049SOL    HW1 3827   0.214   1.537   9.837
 1049SOL    HW2 3828   0.178   1.405   9.901
 1050SOL     OW 3829   0.246   1.069  10.195
 1050SOL    HW1 3830   0.264   0.985  10.236
 1050SOL    HW2 3831   0.194   1.117  10.259
 1051SOL     OW 3832   0.613   1.791  10.740
 1051SOL    HW1 3833   0.531   1.773  10.785
 1051SOL    HW2 3834   0.635   1.881  10.765
 1052SOL     OW 3835   0.582   0.983   9.446
 1052SOL    HW1 3836   0.628   1.030   9.376
 1052SOL    HW2 3837   0.625   1.012   9.526
 1053SOL     OW 3838   1.578   0.136  10.767
 1053SOL    HW1 3839   1.604   0.210  10.712
 1053SOL    HW2 3840   1.554   0.176  10.851
 1054SOL     OW 3841   0.138   0.649   9.879
 1054SOL    HW1 3842   0.095   0.564   9.885
 1054SOL    HW2 3843   0.102   0.700   9.952
 1055SOL     OW 3844   0.043   1.591   9.450
 1055SOL    HW1 3845   0.032   1.498   9.471
 1055SOL    HW2 3846   3.965   1.633   9.484
 1056SOL     OW 3847   1.687   0.916   9.949
 1056SOL    HW1 3848   1.773   0.878   9.932
 1056SOL    HW2 3849   1.668   0.968   9.871
 1057SOL     OW 3850   1.646   1.107   9.740
 1057SOL    HW1 3851   1.732   1.114   9.698
 1057SOL    HW2 3852   1.651   1.168   9.813
 1058SOL     OW 3853   0.135   0.754  10.900
 1058SOL    HW1 3854   0.230   0.748  10.902
 1058SOL    HW2 3855   0.116   0.846  10.919
 1059SOL     OW 3856   0.612   1.384  10.046
 1059SOL    HW1 3857   0.566   1.301  10.055
 1059SOL    HW2 3858   0.596   1.410   9.955
 1060SOL     OW 3859   1.289   1.238  10.734
 1060SOL    HW1 3860   1.321   1.171  10.674
 1060SOL    HW2 3861   1.346   1.232  10.810
 1061SOL     OW 3862   0.817   0.002   9.824
 1061SOL    HW1 3863   0.862   0.083   9.803
 1061SOL    HW2 3864   0.724   0.025   9.826
 1062SOL     OW 3865   0.185   0.954  10.585
 1062SOL    HW1 3866   0.273   0.919  10.572
 1062SOL    HW2 3867   0.131   0.908  10.521
 1063SOL     OW 3868   1.532   0.993   9.508
 1063SOL    HW1 3869   1.462   0.936   9.540
 1063SOL    HW2 3870   1.572   1.027   9.587
 1064SOL     OW 3871   1.185   1.805  10.932
 1064SOL    HW1 3872   1.198   1.864  10.857
 1064SOL    HW2 3873   1.201   1.718  10.897
 1065SOL     OW 3874   0.341   0.254  11.135
 1065SOL    HW1 3875   0.385   0.337  11.123
 1065SOL    HW2 3876   0.250   0.278  11.157
 1066SOL     OW 3877   1.465   1.420  10.261
 1066SOL    HW1 3878   1.397   1.434  10.327
 1066SOL    HW2 3879   1.453   1.328  10.235
 1067SOL     OW 3880   1.667   1.729   9.869
 1067SOL    HW1 3881   1.629   1.693   9.789
 1067SOL    HW2 3882   1.647   1.664   9.936
 1068SOL     OW 3883   0.596   0.719   9.573
 1068SOL    HW1 3884   0.602   0.802   9.526
 1068SOL    HW2 3885   0.533   0.737   9.644
 1069SOL     OW 3886   1.276   0.364  10.250
 1069SOL    HW1 3887   1.189   0.325  10.256
 1069SOL    HW2 3888   1.333   0.303  10.297
 1070SOL     OW 3889   1.576   1.669   9.611
 1070SOL    HW1 3890   1.661   1.708   9.594
 1070SOL    HW2 3891   1.542   1.645   9.525
 1071SOL     OW 3892   0.795   0.616  10.765
 1071SOL    HW1 3893   0.765   0.592  10.852
 1071SOL    HW2 3894   0.754   0.552  10.707
 1072SOL     OW 3895   1.393   0.477  10.987
 1072SOL    HW1 3896   1.397   0.521  11.072
 1072SOL    HW2 3897   1.453   0.403  10.996
 1073SOL     OW 3898   0.955   0.888  10.892
 1073SOL    HW1 3899   1.010   0.818  10.857
 1073SOL    HW2 3900   0.907   0.921  10.816
 1074SOL     OW 3901   0.991   0.403  10.551
 1074SOL    HW1 3902   0.908   0.429  10.592
 1074SOL    HW2 3903   0.965   0.372  10.464
 1075SOL     OW 3904   1.051   0.699   9.736
 1075SOL    HW1 3905   1.065   0.691   9.831
 1075SOL    HW2 3906   0.969   0.652   9.721
 1076SOL     OW 3907   0.081   0.824  10.101
 1076SOL    HW1 3908   0.159   0.794  10.147
 1076SOL    HW2 3909   0.093   0.919  10.093
 1077SOL     OW 3910   0.129   1.856  10.883
 1077SOL    HW1 3911   0.137   1.822  10.972
 1077SOL    HW2 3912   0.037   1.843  10.861
 1078SOL     OW 3913   0.892   0.350   9.508
 1078SOL    HW1 3914   0.934   0.409   9.445
 1078SOL    HW2 3915   0.894   0.264   9.466
 1079SOL     OW 3916   1.711   0.576  11.139
 1079SOL    HW1 3917   1.672   0.650  11.092
 1079SOL    HW2 3918   1.735   0.514  11.070
 1080SOL     OW 3919   1.376   1.142   9.851
 1080SOL    HW1 3920   1.456   1.130   9.799
 1080SOL    HW2 3921   1.324   1.204   9.801
 1081SOL     OW 3922   0.559   0.195  10.192
 1081SOL    HW1 3923   0.562   0.216  10.285
 1081SOL    HW2 3924   0.547   0.279  10.148
 1082SOL     OW 3925   1.006   1.445   9.782
 1082SOL    HW1 3926   0.968   1.517   9.733
 1082SOL    HW2 3927   0.990   1.466   9.874
 1083SOL     OW 3928   0.364   1.813  10.176
 1083SOL    HW1 3929   0.429   1.742  10.182
 1083SOL    HW2 3930   0.415   1.893  10.192
 1084SOL     OW 3931   1.798   1.055  10.179
 1084SOL    HW1 3932   1.743   1.042  10.102
 1084SOL    HW2 3933   1.737   1.062  10.252
 1085SOL     OW 3934   1.228   1.539  10.823
 1085SOL    HW1 3935   1.214   1.466  10.883
 1085SOL    HW2 3936   1.166   1.523  10.752
 1086SOL     OW 3937   0.310   0.955   9.552
 1086SOL    HW1 3938   0.395   0.978   9.514
 1086SOL    HW2 3939   0.296   0.864   9.527
 1087SOL     OW 3940   1.477   0.742  10.040
 1087SOL    HW1 3941   1.469   0.699  10.125
 1087SOL    HW2 3942   1.554   0.798  10.048
 1088SOL     OW 3943   0.465   1.260  11.047
 1088SOL    HW1 3944   0.439   1.268  10.955
 1088SOL    HW2 3945   0.383   1.265  11.096
 1089SOL     OW 3946   1.122   1.777   9.542
 1089SOL    HW1 3947   1.048   1.736   9.587
 1089SOL    HW2 3948   1.143   1.716   9.471
 1090SOL     OW 3949   0.199   0.296  10.808
 1090SOL    HW1 3950   0.106   0.317  10.805
 1090SOL    HW2 3951   0.207   0.231  10.879
 1091SOL     OW 3952   1.628   1.379   9.397
 1091SOL    HW1 3953   1.587   1.464   9.381
 1091SOL    HW2 3954   1.559   1.315   9.378
 1092SOL     OW 3955   0.466   1.739   9.628
 1092SOL    HW1 3956   0.508   1.797   9.692
 1092SOL    HW2 3957   0.539   1.707   9.574
 1093SOL     OW 3958   1.437   0.159   9.715
 1093SOL    HW1 3959   1.395   0.094   9.659
 1093SOL    HW2 3960   1.514   0.115   9.751
 1094SOL     OW 3961   0.251   1.792  10.542
 1094SOL    HW1 3962   0.299   1.729  10.596
 1094SOL    HW2 3963   0.245   1.750  10.456
 1095SOL     OW 3964   0.937   1.698  10.210
 1095SOL    HW1 3965   1.016   1.647  10.230
 1095SOL    HW2 3966   0.893   1.649  10.141
 1096SOL     OW 3967   0.395   0.694   9.783
 1096SOL    HW1 3968   0.422   0.604   9.796
 1096SOL    HW2 3969   0.302   0.696   9.808
 1097SOL     OW 3970   1.531   0.232  11.037
 1097SOL    HW1 3971   1.531   0.256  11.129
 1097SOL    HW2 3972   1.501   0.141  11.036
 1098SOL     OW 3973   0.642   0.135   9.411
 1098SOL    HW1 3974   0.674   0.056   9.453
 1098SOL    HW2 3975   0.580   0.104   9.345
 1099SOL     OW 3976   0.778   0.282  11.073
 1099SOL    HW1 3977   0.844   0.213  11.079
 1099SOL    HW2 3978   0.717   0.263  11.145
 1100SOL     OW 3979   0.876   1.521  10.504
 1100SOL    HW1 3980   0.861   1.485  10.416
 1100SOL    HW2 3981   0.946   1.467  10.541
 1101SOL     OW 3982   1.342   0.587  10.740
 1101SOL    HW1 3983   1.372   0.558  10.826
 1101SOL    HW2 3984   1.376   0.676  10.732
 1102SOL     OW 3985   0.814   1.396  10.248
 1102SOL    HW1 3986   0.899   1.385  10.205
 1102SOL    HW2 3987   0.750   1.395  10.176
 1103SOL     OW 3988   0.929   0.511  10.212
 1103SOL    HW1 3989   0.905   0.503  10.120
 1103SOL    HW2 3990   0.957   0.423  10.237
 1104SOL     OW 3991   0.546   0.056   9.800
 1104SOL    HW1 3992   0.471   0.064   9.860
 1104SOL    HW2 3993   0.548   0.141   9.755
 1105SOL     OW 3994   1.428   1.198   9.351
 1105SOL    HW1 3995   1.458   1.122   9.401
 1105SOL    HW2 3996   1.342   1.218   9.389
 1106SOL     OW 3997   0.335   0.044   9.505
 1106SOL    HW1 3998   0.363   0.087   9.424
 1106SOL    HW2 3999   0.415   0.028   9.553
 1107SOL     OW 4000   0.938   0.247   9.774
 1107SOL    HW1 4001   0.911   0.289   9.692
 1107SOL    HW2 4002   1.034   0.249   9.771
 1108SOL     OW 4003   1.079   0.681  10.769
 1108SOL    HW1 4004   1.008   0.617  10.776
 1108SOL    HW2 4005   1.159   0.628  10.764
 1109SOL     OW 4006   1.223   1.570  10.104
 1109SOL    HW1 4007   1.241   1.637  10.038
 1109SOL    HW2 4008   1.292   1.582  10.170
 1110SOL     OW 4009   0.466   1.150  10.049
 1110SOL    HW1 4010   0.393   1.126  10.106
 1110SOL    HW2 4011   0.433   1.133   9.960
 1111SOL     OW 4012   1.268   1.794   9.916
 1111SOL    HW1 4013   1.312   1.857   9.859
 1111SOL    HW2 4014   1.203   1.846   9.964
 1112SOL     OW 4015   1.024   0.546   9.334
 1112SOL    HW1 4016   0.981   0.630   9.314
 1112SOL    HW2 4017   1.087   0.567   9.403
 1113SOL     OW 4018   0.079   0.570  10.703
 1113SOL    HW1 4019   0.168   0.553  10.672
 1113SOL    HW2 4020   0.088   0.642  10.766
 1114SOL     OW 4021   0.572   0.232  10.470
 1114SOL    HW1 4022   0.595   0.139  10.480
 1114SOL    HW2 4023   0.481   0.236  10.500
 1115SOL     OW 4024   0.872   0.462   9.949
 1115SOL    HW1 4025   0.820   0.513   9.887
 1115SOL    HW2 4026   0.890   0.380   9.903
 1116SOL     OW 4027   0.994   0.042  10.089
 1116SOL    HW1 4028   0.961   0.066  10.003
 1116SOL    HW2 4029   1.005   3.947  10.084
 1117SOL     OW 4030   1.437   1.163  10.168
 1117SOL    HW1 4031   1.368   1.096  10.165
 1117SOL    HW2 4032   1.461   1.175  10.076
 1118SOL     OW 4033   1.466   0.604  10.288
 1118SOL    HW1 4034   1.415   0.523  10.294
 1118SOL    HW2 4035   1.527   0.599  10.362
 1119SOL     OW 4036   1.847   0.820   9.694
 1119SOL    HW1 4037   1.902   0.767   9.751
 1119SOL    HW2 4038   1.815   0.758   9.628
 1120SOL     OW 4039   0.489   1.417   9.472
 1120SOL    HW1 4040   0.414   1.385   9.522
 1120SOL    HW2 4041   0.469   1.393   9.381
 1121SOL     OW 4042   1.669   1.265   9.957
 1121SOL    HW1 4043   1.763   1.267   9.970
 1121SOL    HW2 4044   1.640   1.353   9.978
 1122SOL     OW 4045   1.395   0.573   9.380
 1122SOL    HW1 4046   1.332   0.555   9.450
 1122SOL    HW2 4047   1.480   0.552   9.417
 1123SOL     OW 4048   0.558   0.270   9.630
 1123SOL    HW1 4049   0.599   0.229   9.554
 1123SOL    HW2 4050   0.529   0.356   9.599
 1124SOL     OW 4051   1.753   1.238  10.885
 1124SOL    HW1 4052   1.840   1.199  10.880
 1124SOL    HW2 4053   1.768   1.328  10.913
 1125SOL     OW 4054   1.059   1.354  10.644
 1125SOL    HW1 4055   0.984   1.322  10.695
 1125SOL    HW2 4056   1.135   1.312  10.685
 1126SOL     OW 4057   1.606   1.625  10.962
 1126SOL    HW1 4058   1.602   1.661  10.874
 1126SOL    HW2 4059   1.690   1.579  10.966
 1127SOL     OW 4060   1.128   1.203  10.416
 1127SOL    HW1 4061   1.069   1.241  10.481
 1127SOL    HW2 4062   1.094   1.234  10.332
 1128SOL     OW 4063   1.629   1.099  10.388
 1128SOL    HW1 4064   1.624   1.160  10.461
 1128SOL    HW2 4065   1.549   1.116  10.337
 1129SOL     OW 4066   0.914   0.111  10.712
 1129SOL    HW1 4067   0.933   0.087  10.621
 1129SOL    HW2 4068   0.994   0.153  10.743
 1130SOL     OW 4069   0.984   1.115  11.033
 1130SOL    HW1 4070   0.892   1.130  11.053
 1130SOL    HW2 4071   0.983   1.037  10.977
 1131SOL     OW 4072   0.708   1.060   9.681
 1131SOL    HW1 4073   0.694   1.046   9.775
 1131SOL    HW2 4074   0.784   1.007   9.659
 1132SOL     OW 4075   0.420   0.815  10.562
 1132SOL    HW1 4076   0.489   0.822  10.628
 1132SOL    HW2 4077   0.386   0.727  10.572
 1133SOL     OW 4078   1.266   0.375  10.585
 1133SOL    HW1 4079   1.301   0.453  10.630
 1133SOL    HW2 4080   1.180   0.402  10.554
 1134SOL     OW 4081   0.064   1.579  10.655
 1134SOL    HW1 4082   0.067   1.647  10.587
 1134SOL    HW2 4083   0.156   1.566  10.679
 1135SOL     OW 4084   0.375   1.103   9.796
 1135SOL    HW1 4085   0.367   1.180   9.740
 1135SOL    HW2 4086   0.373   1.029   9.735
 1136SOL     OW 4087   0.556   0.538  10.170
 1136SOL    HW1 4088   0.572   0.595  10.095
 1136SOL    HW2 4089   0.620   0.565  10.235
 1137SOL     OW 4090   1.248   1.348   9.699
 1137SOL    HW1 4091   1.303   1.419   9.731
 1137SOL    HW2 4092   1.161   1.369   9.733
 1138SOL     OW 4093   1.280   1.457  10.457
 1138SOL    HW1 4094   1.336   1.460  10.534
 1138SOL    HW2 4095   1.225   1.380  10.470
 1139SOL     OW 4096   1.578   0.632   9.794
 1139SOL    HW1 4097   1.538   0.692   9.856
 1139SOL    HW2 4098   1.625   0.688   9.733
 1140SOL     OW 4099   0.346   1.526  10.630
 1140SOL    HW1 4100   0.336   1.475  10.549
 1140SOL    HW2 4101   0.440   1.541  10.637
 1141SOL     OW 4102   0.413   0.739  10.911
 1141SOL    HW1 4103   0.474   0.786  10.854
 1141SOL    HW2 4104   0.453   0.654  10.925
 1142SOL     OW 4105   1.600   0.778  10.992
 1142SOL    HW1 4106   1.514   0.819  10.984
 1142SOL    HW2 4107   1.653   0.819  10.924
 1143SOL     OW 4108   1.019   0.123  11.087
 1143SOL    HW1 4109   1.058   0.201  11.047
 1143SOL    HW2 4110   1.008   0.061  11.015
 1144SOL     OW 4111   0.479   0.036  11.077
 1144SOL    HW1 4112   0.492   0.041  10.982
 1144SOL    HW2 4113   0.419   0.108  11.097
 1145SOL     OW 4114   0.584   0.873  10.341
 1145SOL    HW1 4115   0.614   0.964  10.341
 1145SOL    HW2 4116   0.528   0.867  10.418
 1146SOL     OW 4117   1.358   0.859  10.341
 1146SOL    HW1 4118   1.276   0.850  10.293
 1146SOL    HW2 4119   1.398   0.772  10.336
 1147SOL     OW 4120   1.205   0.535   9.573
 1147SOL    HW1 4121   1.213   0.455   9.626
 1147SOL    HW2 4122   1.161   0.597   9.631
 1148SOL     OW 4123   0.313   0.214  10.551
 1148SOL    HW1 4124   0.272   0.249  10.630
 1148SOL    HW2 4125   0.294   0.120  10.554
 1149SOL     OW 4126   0.058   1.305  10.590
 1149SOL    HW1 4127   0.090   1.265  10.671
 1149SOL    HW2 4128   0.050   1.398  10.610
 1150SOL     OW 4129   0.727   0.634  10.367
 1150SOL    HW1 4130   0.799   0.617  10.307
 1150SOL    HW2 4131   0.697   0.723  10.344
 1151SOL     OW 4132   1.734   0.959  11.162
 1151SOL    HW1 4133   1.687   0.900  11.103
 1151SOL    HW2 4134   1.675   0.972  11.236
 1152SOL     OW 4135   0.326   0.056   9.959
 1152SOL    HW1 4136   0.297   0.147   9.960
 1152SOL    HW2 4137   0.286   0.017  10.037
 1153SOL     OW 4138   1.602   0.387   9.693
 1153SOL    HW1 4139   1.575   0.319   9.755
 1153SOL    HW2 4140   1.582   0.470   9.737
 1154SOL     OW 4141   1.028   0.760  10.271
 1154SOL    HW1 4142   1.025   0.777  10.365
 1154SOL    HW2 4143   1.001   0.668  10.262
 1155SOL     OW 4144   0.982   1.566  11.026
 1155SOL    HW1 4145   0.967   1.610  10.943
 1155SOL    HW2 4146   1.026   1.484  11.003
 1156SOL     OW 4147   1.855   1.506  10.915
 1156SOL    HW1 4148   1.871   1.534  10.825
 1156SOL    HW2 4149   1.938   1.519  10.960
 1157SOL     OW 4150   0.351   0.920  11.110
 1157SOL    HW1 4151   0.430   0.940  11.161
 1157SOL    HW2 4152   0.379   0.854  11.048
 1158SOL     OW 4153   1.509   0.276   9.446
 1158SOL    HW1 4154   1.434   0.218   9.459
 1158SOL    HW2 4155   1.523   0.317   9.532
 1159SOL     OW 4156   1.292   0.827   9.341
 1159SOL    HW1 4157   1.334   0.741   9.344
 1159SOL    HW2 4158   1.323   0.866   9.260
 1160SOL     OW 4159   1.065   1.336  10.163
 1160SOL    HW1 4160   1.068   1.263  10.101
 1160SOL    HW2 4161   1.127   1.400  10.129
 1161SOL     OW 4162   0.313   0.806  10.261
 1161SOL    HW1 4163   0.407   0.822  10.255
 1161SOL    HW2 4164   0.307   0.716  10.293
 1162SOL     OW 4165   0.337   0.527  10.323
 1162SOL    HW1 4166   0.298   0.442  10.305
 1162SOL    HW2 4167   0.413   0.531  10.264
 1163SOL     OW 4168   1.133   0.383  11.002
 1163SOL    HW1 4169   1.086   0.438  11.064
 1163SOL    HW2 4170   1.221   0.421  10.997
 1164SOL     OW 4171   1.151   0.225  10.791
 1164SOL    HW1 4172   1.143   0.279  10.869
 1164SOL    HW2 4173   1.174   0.286  10.721
 1165SOL     OW 4174   3.999   1.320   9.492
 1165SOL    HW1 4175   3.905   1.336   9.496
 1165SOL    HW2 4176   0.009   1.226   9.512
 1166SOL     OW 4177   0.076   1.801  10.199
 1166SOL    HW1 4178   0.078   1.705  10.208
 1166SOL    HW2 4179   0.168   1.827  10.203
 1167SOL     OW 4180   0.504   1.570  10.220
 1167SOL    HW1 4181   0.573   1.631  10.245
 1167SOL    HW2 4182   0.547   1.507  10.163
 1168SOL     OW 4183   0.984   0.792  10.536
 1168SOL    HW1 4184   1.038   0.769  10.612
 1168SOL    HW2 4185   0.898   0.755  10.556
 1169SOL     OW 4186   0.036   0.567  10.423
 1169SOL    HW1 4187   0.103   0.519  10.373
 1169SOL    HW2 4188   0.061   0.554  10.514
 1170SOL     OW 4189   0.209   0.516  11.031
 1170SOL    HW1 4190   0.259   0.481  10.958
 1170SOL    HW2 4191   0.159   0.589  10.993
 1171SOL     OW 4192   1.377   0.940  10.968
 1171SOL    HW1 4193   1.398   1.033  10.967
 1171SOL    HW2 4194   1.374   0.914  10.876
 1172SOL     OW 4195   0.817   0.572   9.668
 1172SOL    HW1 4196   0.822   0.495   9.611
 1172SOL    HW2 4197   0.742   0.621   9.635
 1173SOL     OW 4198   1.642   0.602  10.497
 1173SOL    HW1 4199   1.632   0.541  10.570
 1173SOL    HW2 4200   1.729   0.583  10.462
 1174SOL     OW 4201   0.297   1.546  11.040
 1174SOL    HW1 4202   0.247   1.615  11.082
 1174SOL    HW2 4203   0.263   1.465  11.078
 1175SOL     OW 4204   0.701   0.457  10.570
 1175SOL    HW1 4205   0.654   0.378  10.543
 1175SOL    HW2 4206   0.695   0.515  10.495
 1176SOL     OW 4207   0.928   1.679  10.778
 1176SOL    HW1 4208   0.902   1.646  10.692
 1176SOL    HW2 4209   0.925   1.774  10.768
 1177SOL     OW 4210   0.458   0.492   9.504
 1177SOL    HW1 4211   0.522   0.561   9.522
 1177SOL    HW2 4212   0.377   0.539   9.484
 1178SOL     OW 4213   0.157   1.136  10.782
 1178SOL    HW1 4214   0.161   1.085  10.863
 1178SOL    HW2 4215   0.172   1.072  10.713
 1179SOL     OW 4216   1.327   1.047  10.534
 1179SOL    HW1 4217   1.350   0.984  10.466
 1179SOL    HW2 4218   1.256   1.099  10.495
 1180SOL     OW 4219   1.311   0.856   9.616
 1180SOL    HW1 4220   1.235   0.827   9.667
 1180SOL    HW2 4221   1.286   0.843   9.525
 1181SOL     OW 4222   1.744   1.739  10.448
 1181SOL    HW1 4223   1.819   1.762  10.393
 1181SOL    HW2 4224   1.730   1.646  10.431
 1182SOL     OW 4225   1.243   1.734  10.423
 1182SOL    HW1 4226   1.325   1.753  10.378
 1182SOL    HW2 4227   1.247   1.640  10.441
 1183SOL     OW 4228   0.076   1.218  10.337
 1183SOL    HW1 4229   0.082   1.243  10.429
 1183SOL    HW2 4230   3.983   1.224  10.316
 1184SOL     OW 4231   0.679   1.665  11.038
 1184SOL    HW1 4232   0.623   1.743  11.033
 1184SOL    HW2 4233   0.743   1.676  10.968
 1185SOL     OW 4234   1.710   0.127   9.796
 1185SOL    HW1 4235   1.791   0.133   9.744
 1185SOL    HW2 4236   1.702   0.034   9.816
 1186SOL     OW 4237   1.390   1.567   9.795
 1186SOL    HW1 4238   1.447   1.599   9.725
 1186SOL    HW2 4239   1.341   1.645   9.823
 1187SOL     OW 4240   0.172   1.767  11.138
 1187SOL    HW1 4241   0.113   1.719  11.196
 1187SOL    HW2 4242   0.215   1.831  11.195
 1188SOL     OW 4243   1.277   0.926   9.981
 1188SOL    HW1 4244   1.351   0.865   9.988
 1188SOL    HW2 4245   1.311   0.998   9.929
 1189SOL     OW 4246   0.816   1.273  10.741
 1189SOL    HW1 4247   0.788   1.312  10.823
 1189SOL    HW2 4248   0.745   1.292  10.680
 1190SOL     OW 4249   0.671   1.619   9.465
 1190SOL    HW1 4250   0.681   1.630   9.371
 1190SOL    HW2 4251   0.617   1.540   9.475
 1191SOL     OW 4252   1.627   1.728  10.701
 1191SOL    HW1 4253   1.672   1.735  10.617
 1191SOL    HW2 4254   1.615   1.819  10.729
 1192SOL     OW 4255   1.838   0.176  10.278
 1192SOL    HW1 4256   1.869   0.103  10.224
 1192SOL    HW2 4257   1.751   0.195  10.244
 1193SOL     OW 4258   0.272   0.324  10.025
 1193SOL    HW1 4259   0.187   0.359  10.000
 1193SOL    HW2 4260   0.265   0.306  10.119
 1194SOL     OW 4261   1.206   1.606   9.341
 1194SOL    HW1 4262   1.197   1.515   9.368
 1194SOL    HW2 4263   1.141   1.618   9.272
 1195SOL     OW 4264   0.824   1.005  10.682
 1195SOL    HW1 4265   0.867   1.001  10.597
 1195SOL    HW2 4266   0.824   1.098  10.705
 1196SOL     OW 4267   0.915   0.910   9.599
 1196SOL    HW1 4268   0.977   0.942   9.534
 1196SOL    HW2 4269   0.962   0.840   9.645
 1197SOL     OW 4270   1.490   1.623   9.351
 1197SOL    HW1 4271   1.396   1.619   9.336
 1197SOL    HW2 4272   1.528   1.630   9.263
 1198SOL     OW 4273   0.373   1.302  10.801
 1198SOL    HW1 4274   0.358   1.383  10.751
 1198SOL    HW2 4275   0.296   1.248  10.784
 1199SOL     OW 4276   1.610   1.282  10.591
 1199SOL    HW1 4277   1.671   1.273  10.664
 1199SOL    HW2 4278   1.551   1.352  10.618
 1200SOL     OW 4279   1.051   1.107  10.016
 1200SOL    HW1 4280   0.980   1.056  10.055
 1200SOL    HW2 4281   1.113   1.041   9.984
 1201SOL     OW 4282   1.015   0.247  10.278
 1201SOL    HW1 4283   1.004   0.198  10.197
 1201SOL    HW2 4284   1.008   0.182  10.347
 1202SOL     OW 4285   0.604   1.489   9.792
 1202SOL    HW1 4286   0.646   1.438   9.723
 1202SOL    HW2 4287   0.534   1.537   9.747
 1203SOL     OW 4288   1.719   0.392  10.684
 1203SOL    HW1 4289   1.791   0.455  10.687
 1203SOL    HW2 4290   1.753   0.320  10.630
 1204SOL     OW 4291   0.253   1.342   9.601
 1204SOL    HW1 4292   0.160   1.352   9.581
 1204SOL    HW2 4293   0.262   1.380   9.689
 1205SOL     OW 4294   0.105   1.001  11.028
 1205SOL    HW1 4295   0.045   0.990  11.101
 1205SOL    HW2 4296   0.191   0.980  11.065
 1206SOL     OW 4297   0.693   0.244  10.807
 1206SOL    HW1 4298   0.763   0.192  10.766
 1206SOL    HW2 4299   0.719   0.252  10.898
 1207SOL     OW 4300   0.088   0.326   9.338
 1207SOL    HW1 4301   3.993   0.321   9.333
 1207SOL    HW2 4302   0.110   0.408   9.294
 1208SOL     OW 4303   1.430   0.857  10.710
 1208SOL    HW1 4304   1.382   0.919  10.655
 1208SOL    HW2 4305   1.519   0.860  10.677
 1209SOL     OW 4306   0.039   0.162   9.593
 1209SOL    HW1 4307   0.037   0.242   9.540
 1209SOL    HW2 4308   0.119   0.170   9.645
 1210SOL     OW 4309   1.179   1.340   9.427
 1210SOL    HW1 4310   1.088   1.310   9.429
 1210SOL    HW2 4311   1.207   1.340   9.518
 1211SOL     OW 4312   0.619   0.830  10.745
 1211SOL    HW1 4313   0.675   0.906  10.729
 1211SOL    HW2 4314   0.680   0.756  10.753
 1212SOL     OW 4315   1.489   1.779  10.289
 1212SOL    HW1 4316   1.513   1.842  10.221
 1212SOL    HW2 4317   1.570   1.763  10.336
 1213SOL     OW 4318   0.716   0.564  11.017
 1213SOL    HW1 4319   0.758   0.627  11.077
 1213SOL    HW2 4320   0.749   0.479  11.047
 1214SOL     OW 4321   1.471   1.201  10.942
 1214SOL    HW1 4322   1.459   1.214  11.036
 1214SOL    HW2 4323   1.564   1.215  10.928
 1215SOL     OW 4324   0.380   1.742  10.869
 1215SOL    HW1 4325   0.293   1.779  10.856
 1215SOL    HW2 4326   0.365   1.660  10.917
 1216SOL     OW 4327   1.670   0.882  10.566
 1216SOL    HW1 4328   1.664   0.796  10.523
 1216SOL    HW2 4329   1.661   0.945  10.494
 1217SOL     OW 4330   1.225   0.333   9.756
 1217SOL    HW1 4331   1.291   0.265   9.748
 1217SOL    HW2 4332   1.246   0.379   9.837
 1218SOL     OW 4333   0.591   0.740   9.979
 1218SOL    HW1 4334   0.629   0.826   9.962
 1218SOL    HW2 4335   0.522   0.730   9.914
 1219SOL     OW 4336   1.754   0.381  10.953
 1219SOL    HW1 4337   1.736   0.385  10.859
 1219SOL    HW2 4338   1.696   0.311  10.985
 1220SOL     OW 4339   1.743   0.934  10.823
 1220SOL    HW1 4340   1.743   1.029  10.836
 1220SOL    HW2 4341   1.729   0.922  10.729
 1221SOL     OW 4342   0.863   1.367   9.343
 1221SOL    HW1 4343   0.824   1.395   9.426
 1221SOL    HW2 4344   0.881   1.449   9.297
 1222SOL     OW 4345   0.661   1.791  10.255
 1222SOL    HW1 4346   0.640   1.882  10.232
 1222SOL    HW2 4347   0.756   1.786  10.248
 1223SOL     OW 4348   0.867   0.966  10.165
 1223SOL    HW1 4349   0.917   0.895  10.205
 1223SOL    HW2 4350   0.833   1.016  10.239
 1224SOL     OW 4351   1.079   0.988   9.399
 1224SOL    HW1 4352   1.058   1.039   9.320
 1224SOL    HW2 4353   1.154   0.935   9.373
 1225SOL     OW 4354   1.848   1.543  10.143
 1225SOL    HW1 4355   1.764   1.539  10.097
 1225SOL    HW2 4356   1.838   1.482  10.217
 1226SOL     OW 4357   0.223   1.303  11.165
 1226SOL    HW1 4358   0.153   1.244  11.140
 1226SOL    HW2 4359   0.211   1.317  11.259
 1227SOL     OW 4360   0.114   1.274  10.027
 1227SOL    HW1 4361   0.122   1.223  10.107
 1227SOL    HW2 4362   0.110   1.209   9.957
 1228SOL     OW 4363   0.680   1.402  10.937
 1228SOL    HW1 4364   0.600   1.359  10.967
 1228SOL    HW2 4365   0.675   1.490  10.975
 1229SOL     OW 4366   1.813   0.184  10.549
 1229SOL    HW1 4367   1.815   0.089  10.563
 1229SOL    HW2 4368   1.827   0.195  10.455
 1230SOL     OW 4369   0.442   0.436   9.840
 1230SOL    HW1 4370   0.454   0.361   9.782
 1230SOL    HW2 4371   0.386   0.402   9.911
 1231SOL     OW 4372   1.703   1.480  10.403
 1231SOL    HW1 4373   1.619   1.459  10.360
 1231SOL    HW2 4374   1.713   1.412  10.470
 1232SOL     OW 4375   0.330   0.555  10.602
 1232SOL    HW1 4376   0.387   0.498  10.655
 1232SOL    HW2 4377   0.346   0.526  10.511
 1233SOL     OW 4378   0.826   1.578   9.988
 1233SOL    HW1 4379   0.816   1.631   9.909
 1233SOL    HW2 4380   0.749   1.521   9.989
 1234SOL     OW 4381   1.461   0.251  10.421
 1234SOL    HW1 4382   1.477   0.164  10.458
 1234SOL    HW2 4383   1.403   0.294  10.485
 1235SOL     OW 4384   1.006   0.030  10.457
 1235SOL    HW1 4385   0.930   3.981  10.427
 1235SOL    HW2 4386   1.075   3.964  10.465
 1236SOL     OW 4387   0.771   1.332   9.623
 1236SOL    HW1 4388   0.740   1.242   9.630
 1236SOL    HW2 4389   0.854   1.332   9.672
 1237SOL     OW 4390   0.620   1.558  10.594
 1237SOL    HW1 4391   0.623   1.639  10.645
 1237SOL    HW2 4392   0.707   1.550  10.557
 1238SOL     OW 4393   1.315   0.074   9.473
 1238SOL    HW1 4394   1.333   0.004   9.411
 1238SOL    HW2 4395   1.230   0.051   9.511
 1239SOL     OW 4396   1.285   0.458   9.997
 1239SOL    HW1 4397   1.237   0.540   9.994
 1239SOL    HW2 4398   1.289   0.436  10.090
 1240SOL     OW 4399   1.588   0.211  10.177
 1240SOL    HW1 4400   1.538   0.233  10.256
 1240SOL    HW2 4401   1.588   0.291  10.125
 1241SOL     OW 4402   0.045   1.051   9.550
 1241SOL    HW1 4403   0.139   1.035   9.541
 1241SOL    HW2 4404   0.010   0.971   9.589
 1242SOL     OW 4405   0.884   1.652   9.653
 1242SOL    HW1 4406   0.811   1.635   9.593
 1242SOL    HW2 4407   0.854   1.727   9.704
 1243SOL     OW 4408   0.233   0.625  11.291
 1243SOL    HW1 4409   0.140   0.630  11.313
 1243SOL    HW2 4410   0.234   0.596  11.200
 1244SOL     OW 4411   0.225   0.286  12.155
 1244SOL    HW1 4412   0.249   0.250  12.241
 1244SOL    HW2 4413   0.131   0.270  12.147
 1245SOL     OW 4414   0.018   0.387  11.806
 1245SOL    HW1 4415   3.929   0.397  11.842
 1245SOL    HW2 4416   0.025   0.294  11.787
 1246SOL     OW 4417   0.577   1.282  12.355
 1246SOL    HW1 4418   0.490   1.286  12.315
 1246SOL    HW2 4419   0.591   1.371  12.389
 1247SOL     OW 4420   1.562   1.513  11.880
 1247SOL    HW1 4421   1.519   1.495  11.963
 1247SOL    HW2 4422   1.491   1.519  11.816
 1248SOL     OW 4423   1.132   0.698  11.873
 1248SOL    HW1 4424   1.180   0.780  11.860
 1248SOL    HW2 4425   1.084   0.712  11.955
 1249SOL     OW 4426   1.760   0.618  11.400
 1249SOL    HW1 4427   1.742   0.609  11.306
 1249SOL    HW2 4428   1.751   0.529  11.434
 1250SOL     OW 4429   0.758   1.142  12.211
 1250SOL    HW1 4430   0.691   1.176  12.270
 1250SOL    HW2 4431   0.792   1.220  12.166
 1251SOL     OW 4432   0.866   0.777  12.994
 1251SOL    HW1 4433   0.855   0.849  13.056
 1251SOL    HW2 4434   0.889   0.819  12.911
 1252SOL     OW 4435   0.686   1.005  11.819
 1252SOL    HW1 4436   0.751   0.991  11.889
 1252SOL    HW2 4437   0.616   1.055  11.862
 1253SOL     OW 4438   0.709   1.150  12.984
 1253SOL    HW1 4439   0.757   1.229  13.010
 1253SOL    HW2 4440   0.626   1.183  12.949
 1254SOL     OW 4441   0.351   1.403  12.251
 1254SOL    HW1 4442   0.269   1.385  12.204
 1254SOL    HW2 4443   0.399   1.462  12.193
 1255SOL     OW 4444   1.461   1.500  12.525
 1255SOL    HW1 4445   1.511   1.581  12.534
 1255SOL    HW2 4446   1.402   1.499  12.600
 1256SOL     OW 4447   0.453   0.407  12.671
 1256SOL    HW1 4448   0.534   0.355  12.667
 1256SOL    HW2 4449   0.383   0.342  12.673
 1257SOL     OW 4450   1.613   0.451  11.907
 1257SOL    HW1 4451   1.540   0.482  11.853
 1257SOL    HW2 4452   1.635   0.525  11.962
 1258SOL     OW 4453   0.223   1.717  11.632
 1258SOL    HW1 4454   0.241   1.792  11.688
 1258SOL    HW2 4455   0.300   1.710  11.576
 1259SOL     OW 4456   1.136   1.341  12.864
 1259SOL    HW1 4457   1.177   1.337  12.951
 1259SOL    HW2 4458   1.084   1.261  12.858
 1260SOL     OW 4459   0.246   1.447  11.711
 1260SOL    HW1 4460   0.214   1.537  11.699
 1260SOL    HW2 4461   0.178   1.405  11.763
 1261SOL     OW 4462   0.247   1.069  12.057
 1261SOL    HW1 4463   0.264   0.985  12.098
 1261SOL    HW2 4464   0.194   1.117  12.121
 1262SOL     OW 4465   0.613   1.791  12.602
 1262SOL    HW1 4466   0.531   1.773  12.647
 1262SOL    HW2 4467   0.635   1.881  12.627
 1263SOL     OW 4468   0.582   0.983  11.308
 1263SOL    HW1 4469   0.628   1.030  11.238
 1263SOL    HW2 4470   0.625   1.012  11.388
 1264SOL     OW 4471   1.578   0.136  12.629
 1264SOL    HW1 4472   1.604   0.210  12.574
 1264SOL    HW2 4473   1.554   0.176  12.713
 1265SOL     OW 4474   0.138   0.649  11.742
 1265SOL    HW1 4475   0.095   0.564  11.747
 1265SOL    HW2 4476   0.102   0.700  11.814
 1266SOL     OW 4477   0.043   1.591  11.312
 1266SOL    HW1 4478   0.032   1.498  11.333
 1266SOL    HW2 4479   3.964   1.633  11.346
 1267SOL     OW 4480   1.687   0.916  11.811
 1267SOL    HW1 4481   1.773   0.878  11.794
 1267SOL    HW2 4482   1.668   0.969  11.733
 1268SOL     OW 4483   1.646   1.107  11.602
 1268SOL    HW1 4484   1.732   1.114  11.560
 1268SOL    HW2 4485   1.651   1.168  11.675
 1269SOL     OW 4486   0.135   0.754  12.762
 1269SOL    HW1 4487   0.230   0.748  12.764
 1269SOL    HW2 4488   0.116   0.846  12.781
 1270SOL     OW 4489   0.612   1.384  11.908
 1270SOL    HW1 4490   0.566   1.301  11.917
 1270SOL    HW2 4491   0.596   1.410  11.817
 1271SOL     OW 4492   1.289   1.238  12.596
 1271SOL    HW1 4493   1.321   1.171  12.536
 1271SOL    HW2 4494   1.346   1.232  12.672
 1272SOL     OW 4495   0.817   0.002  11.686
 1272SOL    HW1 4496   0.862   0.083  11.665
 1272SOL    HW2 4497   0.724   0.025  11.688
 1273SOL     OW 4498   0.185   0.954  12.448
 1273SOL    HW1 4499   0.273   0.919  12.434
 1273SOL    HW2 4500   0.131   0.908  12.383
 1274SOL     OW 4501   1.532   0.993  11.370
 1274SOL    HW1 4502   1.462   0.936  11.402
 1274SOL    HW2 4503   1.572   1.027  11.449
 1275SOL     OW 4504   1.185   1.805  12.794
 1275SOL    HW1 4505   1.198   1.864  12.719
 1275SOL    HW2 4506   1.201   1.718  12.759
 1276SOL     OW 4507   0.340   0.254  12.996
 1276SOL    HW1 4508   0.385   0.338  12.983
 1276SOL    HW2 4509   0.250   0.278  13.020
 1277SOL     OW 4510   1.465   1.420  12.123
 1277SOL    HW1 4511   1.397   1.434  12.189
 1277SOL    HW2 4512   1.453   1.328  12.097
 1278SOL     OW 4513   1.667   1.729  11.731
 1278SOL    HW1 4514   1.629   1.693  11.651
 1278SOL    HW2 4515   1.647   1.664  11.798
 1279SOL     OW 4516   0.596   0.719  11.435
 1279SOL    HW1 4517   0.603   0.802  11.388
 1279SOL    HW2 4518   0.533   0.737  11.505
 1280SOL     OW 4519   1.276   0.364  12.112
 1280SOL    HW1 4520   1.189   0.324  12.118
 1280SOL    HW2 4521   1.333   0.303  12.159
 1281SOL     OW 4522   1.576   1.669  11.473
 1281SOL    HW1 4523   1.662   1.707  11.455
 1281SOL    HW2 4524   1.542   1.645  11.386
 1282SOL     OW 4525   0.795   0.616  12.627
 1282SOL    HW1 4526   0.765   0.592  12.714
 1282SOL    HW2 4527   0.754   0.552  12.569
 1283SOL     OW 4528   1.393   0.477  12.849
 1283SOL    HW1 4529   1.397   0.521  12.934
 1283SOL    HW2 4530   1.453   0.403  12.858
 1284SOL     OW 4531   0.955   0.888  12.754
 1284SOL    HW1 4532   1.010   0.818  12.719
 1284SOL    HW2 4533   0.907   0.922  12.678
 1285SOL     OW 4534   0.991   0.404  12.413
 1285SOL    HW1 4535   0.908   0.429  12.454
 1285SOL    HW2 4536   0.966   0.372  12.326
 1286SOL     OW 4537   1.051   0.699  11.598
 1286SOL    HW1 4538   1.066   0.691  11.693
 1286SOL    HW2 4539   0.969   0.652  11.583
 1287SOL     OW 4540   0.081   0.824  11.963
 1287SOL    HW1 4541   0.159   0.794  12.009
 1287SOL    HW2 4542   0.093   0.919  11.955
 1288SOL     OW 4543   0.129   1.856  12.745
 1288SOL    HW1 4544   0.137   1.822  12.835
 1288SOL    HW2 4545   0.037   1.843  12.723
 1289SOL     OW 4546   0.892   0.350  11.370
 1289SOL    HW1 4547   0.934   0.409  11.307
 1289SOL    HW2 4548   0.894   0.264  11.328
 1290SOL     OW 4549   1.711   0.576  13.000
 1290SOL    HW1 4550   1.672   0.650  12.953
 1290SOL    HW2 4551   1.735   0.514  12.931
 1291SOL     OW 4552   1.376   1.142  11.713
 1291SOL    HW1 4553   1.456   1.130  11.661
 1291SOL    HW2 4554   1.324   1.204  11.662
 1292SOL     OW 4555   0.559   0.195  12.054
 1292SOL    HW1 4556   0.562   0.216  12.147
 1292SOL    HW2 4557   0.547   0.279  12.010
 1293SOL     OW 4558   1.006   1.445  11.644
 1293SOL    HW1 4559   0.968   1.517  11.595
 1293SOL    HW2 4560   0.990   1.466  11.736
 1294SOL     OW 4561   0.364   1.813  12.038
 1294SOL    HW1 4562   0.429   1.742  12.044
 1294SOL    HW2 4563   0.415   1.893  12.054
 1295SOL     OW 4564   1.798   1.055  12.041
 1295SOL    HW1 4565   1.743   1.042  11.964
 1295SOL    HW2 4566   1.737   1.062  12.114
 1296SOL     OW 4567   1.228   1.539  12.685
 1296SOL    HW1 4568   1.214   1.466  12.745
 1296SOL    HW2 4569   1.166   1.523  12.614
 1297SOL     OW 4570   0.310   0.955  11.414
 1297SOL    HW1 4571   0.395   0.978  11.376
 1297SOL    HW2 4572   0.296   0.864  11.389
 1298SOL     OW 4573   1.477   0.742  11.902
 1298SOL    HW1 4574   1.469   0.699  11.987
 1298SOL    HW2 4575   1.554   0.798  11.910
 1299SOL     OW 4576   0.465   1.259  12.909
 1299SOL    HW1 4577   0.439   1.268  12.817
 1299SOL    HW2 4578   0.383   1.265  12.958
 1300SOL     OW 4579   1.122   1.777  11.404
 1300SOL    HW1 4580   1.048   1.736  11.449
 1300SOL    HW2 4581   1.143   1.716  11.333
 1301SOL     OW 4582   0.199   0.296  12.670
 1301SOL    HW1 4583   0.106   0.317  12.667
 1301SOL    HW2 4584   0.206   0.231  12.740
 1302SOL     OW 4585   1.628   1.379  11.259
 1302SOL    HW1 4586   1.588   1.464  11.243
 1302SOL    HW2 4587   1.559   1.315  11.240
 1303SOL     OW 4588   0.466   1.739  11.490
 1303SOL    HW1 4589   0.508   1.797  11.554
 1303SOL    HW2 4590   0.539   1.707  11.436
 1304SOL     OW 4591   1.437   0.159  11.577
 1304SOL    HW1 4592   1.396   0.094  11.521
 1304SOL    HW2 4593   1.514   0.115  11.613
 1305SOL     OW 4594   0.250   1.792  12.404
 1305SOL    HW1 4595   0.299   1.729  12.458
 1305SOL    HW2 4596   0.245   1.750  12.318
 1306SOL     OW 4597   0.937   1.698  12.072
 1306SOL    HW1 4598   1.016   1.647  12.092
 1306SOL    HW2 4599   0.893   1.649  12.003
 1307SOL     OW 4600   0.395   0.694  11.645
 1307SOL    HW1 4601   0.422   0.604  11.658
 1307SOL    HW2 4602   0.302   0.696  11.670
 1308SOL     OW 4603   1.531   0.232  12.898
 1308SOL    HW1 4604   1.532   0.256  12.991
 1308SOL    HW2 4605   1.502   0.140  12.897
 1309SOL     OW 4606   0.642   0.135  11.273
 1309SOL    HW1 4607   0.674   0.056  11.316
 1309SOL    HW2 4608   0.580   0.104  11.207
 1310SOL     OW 4609   0.778   0.282  12.935
 1310SOL    HW1 4610   0.844   0.213  12.941
 1310SOL    HW2 4611   0.718   0.263  13.007
 1311SOL     OW 4612   0.876   1.521  12.366
 1311SOL    HW1 4613   0.861   1.485  12.278
 1311SOL    HW2 4614   0.946   1.467  12.403
 1312SOL     OW 4615   1.341   0.587  12.602
 1312SOL    HW1 4616   1.372   0.558  12.688
 1312SOL    HW2 4617   1.376   0.676  12.594
 1313SOL     OW 4618   0.814   1.396  12.110
 1313SOL    HW1 4619   0.899   1.385  12.067
 1313SOL    HW2 4620   0.750   1.395  12.038
 1314SOL     OW 4621   0.929   0.511  12.074
 1314SOL    HW1 4622   0.905   0.503  11.982
 1314SOL    HW2 4623   0.957   0.423  12.100
 1315SOL     OW 4624   0.546   0.056  11.662
 1315SOL    HW1 4625   0.471   0.064  11.722
 1315SOL    HW2 4626   0.548   0.141  11.617
 1316SOL     OW 4627   1.428   1.198  11.213
 1316SOL    HW1 4628   1.458   1.122  11.263
 1316SOL    HW2 4629   1.342   1.218  11.251
 1317SOL     OW 4630   0.335   0.044  11.367
 1317SOL    HW1 4631   0.363   0.087  11.286
 1317SOL    HW2 4632   0.415   0.028  11.415
 1318SOL     OW 4633   0.938   0.247  11.636
 1318SOL    HW1 4634   0.911   0.289  11.554
 1318SOL    HW2 4635   1.034   0.249  11.633
 1319SOL     OW 4636   1.079   0.681  12.631
 1319SOL    HW1 4637   1.009   0.617  12.638
 1319SOL    HW2 4638   1.159   0.628  12.626
 1320SOL     OW 4639   1.223   1.570  11.966
 1320SOL    HW1 4640   1.241   1.637  11.900
 1320SOL    HW2 4641   1.292   1.582  12.032
 1321SOL     OW 4642   0.466   1.150  11.911
 1321SOL    HW1 4643   0.393   1.126  11.968
 1321SOL    HW2 4644   0.433   1.133  11.822
 1322SOL     OW 4645   1.268   1.794  11.778
 1322SOL    HW1 4646   1.312   1.857  11.721
 1322SOL    HW2 4647   1.203   1.846  11.826
 1323SOL     OW 4648   1.024   0.546  11.196
 1323SOL    HW1 4649   0.981   0.630  11.176
 1323SOL    HW2 4650   1.087   0.567  11.265
 1324SOL     OW 4651   0.079   0.570  12.565
 1324SOL    HW1 4652   0.168   0.553  12.534
 1324SOL    HW2 4653   0.089   0.642  12.628
 1325SOL     OW 4654   0.572   0.232  12.332
 1325SOL    HW1 4655   0.595   0.139  12.342
 1325SOL    HW2 4656   0.481   0.236  12.362
 1326SOL     OW 4657   0.872   0.462  11.811
 1326SOL    HW1 4658   0.820   0.513  11.749
 1326SOL    HW2 4659   0.890   0.380  11.765
 1327SOL     OW 4660   0.994   0.042  11.951
 1327SOL    HW1 4661   0.961   0.066  11.865
 1327SOL    HW2 4662   1.005   3.947  11.946
 1328SOL     OW 4663   1.437   1.163  12.030
 1328SOL    HW1 4664   1.368   1.096  12.027
 1328SOL    HW2 4665   1.462   1.175  11.938
 1329SOL     OW 4666   1.466   0.604  12.150
 1329SOL    HW1 4667   1.415   0.523  12.156
 1329SOL    HW2 4668   1.527   0.599  12.224
 1330SOL     OW 4669   1.847   0.820  11.556
 1330SOL    HW1 4670   1.902   0.767  11.613
 1330SOL    HW2 4671   1.815   0.758  11.490
 1331SOL     OW 4672   0.489   1.417  11.334
 1331SOL    HW1 4673   0.414   1.385  11.384
 1331SOL    HW2 4674   0.469   1.393  11.243
 1332SOL     OW 4675   1.668   1.265  11.819
 1332SOL    HW1 4676   1.763   1.266  11.832
 1332SOL    HW2 4677   1.640   1.353  11.840
 1333SOL     OW 4678   1.394   0.573  11.242
 1333SOL    HW1 4679   1.333   0.555  11.312
 1333SOL    HW2 4680   1.480   0.553  11.279
 1334SOL     OW 4681   0.558   0.270  11.492
 1334SOL    HW1 4682   0.599   0.229  11.416
 1334SOL    HW2 4683   0.529   0.356  11.461
 1335SOL     OW 4684   1.753   1.238  12.747
 1335SOL    HW1 4685   1.840   1.200  12.742
 1335SOL    HW2 4686   1.768   1.328  12.775
 1336SOL     OW 4687   1.059   1.353  12.506
 1336SOL    HW1 4688   0.984   1.322  12.557
 1336SOL    HW2 4689   1.135   1.312  12.547
 1337SOL     OW 4690   1.606   1.624  12.825
 1337SOL    HW1 4691   1.602   1.661  12.736
 1337SOL    HW2 4692   1.690   1.579  12.828
 1338SOL     OW 4693   1.128   1.203  12.278
 1338SOL    HW1 4694   1.069   1.241  12.343
 1338SOL    HW2 4695   1.095   1.234  12.194
 1339SOL     OW 4696   1.629   1.099  12.250
 1339SOL    HW1 4697   1.624   1.160  12.323
 1339SOL    HW2 4698   1.549   1.116  12.199
 1340SOL     OW 4699   0.914   0.111  12.574
 1340SOL    HW1 4700   0.933   0.087  12.483
 1340SOL    HW2 4701   0.994   0.153  12.605
 1341SOL     OW 4702   0.984   1.114  12.895
 1341SOL    HW1 4703   0.892   1.131  12.915
 1341SOL    HW2 4704   0.983   1.037  12.839
 1342SOL     OW 4705   0.708   1.060  11.543
 1342SOL    HW1 4706   0.694   1.046  11.637
 1342SOL    HW2 4707   0.784   1.007  11.521
 1343SOL     OW 4708   0.420   0.815  12.424
 1343SOL    HW1 4709   0.489   0.822  12.490
 1343SOL    HW2 4710   0.386   0.727  12.434
 1344SOL     OW 4711   1.266   0.375  12.447
 1344SOL    HW1 4712   1.301   0.453  12.492
 1344SOL    HW2 4713   1.180   0.402  12.416
 1345SOL     OW 4714   0.064   1.579  12.517
 1345SOL    HW1 4715   0.067   1.647  12.449
 1345SOL    HW2 4716   0.156   1.566  12.541
 1346SOL     OW 4717   0.375   1.103  11.658
 1346SOL    HW1 4718   0.367   1.180  11.602
 1346SOL    HW2 4719   0.373   1.029  11.597
 1347SOL     OW 4720   0.556   0.538  12.032
 1347SOL    HW1 4721   0.572   0.595  11.957
 1347SOL    HW2 4722   0.620   0.565  12.097
 1348SOL     OW 4723   1.248   1.348  11.561
 1348SOL    HW1 4724   1.303   1.419  11.593
 1348SOL    HW2 4725   1.161   1.369  11.595
 1349SOL     OW 4726   1.280   1.457  12.319
 1349SOL    HW1 4727   1.336   1.460  12.396
 1349SOL    HW2 4728   1.225   1.380  12.332
 1350SOL     OW 4729   1.578   0.632  11.656
 1350SOL    HW1 4730   1.538   0.692  11.718
 1350SOL    HW2 4731   1.625   0.688  11.595
 1351SOL     OW 4732   0.346   1.525  12.492
 1351SOL    HW1 4733   0.336   1.475  12.411
 1351SOL    HW2 4734   0.440   1.541  12.499
 1352SOL     OW 4735   0.413   0.740  12.773
 1352SOL    HW1 4736   0.474   0.786  12.716
 1352SOL    HW2 4737   0.453   0.654  12.786
 1353SOL     OW 4738   1.600   0.778  12.854
 1353SOL    HW1 4739   1.514   0.819  12.846
 1353SOL    HW2 4740   1.652   0.819  12.786
 1354SOL     OW 4741   1.017   0.124  12.949
 1354SOL    HW1 4742   1.058   0.201  12.909
 1354SOL    HW2 4743   1.010   0.061  12.878
 1355SOL     OW 4744   0.478   0.036  12.940
 1355SOL    HW1 4745   0.492   0.040  12.845
 1355SOL    HW2 4746   0.419   0.108  12.959
 1356SOL     OW 4747   0.584   0.873  12.203
 1356SOL    HW1 4748   0.614   0.964  12.203
 1356SOL    HW2 4749   0.528   0.867  12.280
 1357SOL     OW 4750   1.358   0.859  12.203
 1357SOL    HW1 4751   1.276   0.850  12.155
 1357SOL    HW2 4752   1.398   0.772  12.198
 1358SOL     OW 4753   1.204   0.535  11.435
 1358SOL    HW1 4754   1.213   0.455  11.488
 1358SOL    HW2 4755   1.161   0.597  11.493
 1359SOL     OW 4756   0.313   0.214  12.413
 1359SOL    HW1 4757   0.271   0.249  12.492
 1359SOL    HW2 4758   0.294   0.120  12.416
 1360SOL     OW 4759   0.058   1.305  12.452
 1360SOL    HW1 4760   0.090   1.265  12.533
 1360SOL    HW2 4761   0.051   1.398  12.472
 1361SOL     OW 4762   0.727   0.634  12.229
 1361SOL    HW1 4763   0.799   0.617  12.169
 1361SOL    HW2 4764   0.697   0.723  12.206
 1362SOL     OW 4765   1.734   0.959  13.025
 1362SOL    HW1 4766   1.687   0.900  12.966
 1362SOL    HW2 4767   1.675   0.972  13.098
 1363SOL     OW 4768   0.326   0.056  11.821
 1363SOL    HW1 4769   0.297   0.147  11.822
 1363SOL    HW2 4770   0.286   0.017  11.899
 1364SOL     OW 4771   1.601   0.387  11.555
 1364SOL    HW1 4772   1.575   0.320  11.617
 1364SOL    HW2 4773   1.582   0.470  11.599
 1365SOL     OW 4774   1.028   0.760  12.133
 1365SOL    HW1 4775   1.025   0.777  12.227
 1365SOL    HW2 4776   1.001   0.668  12.124
 1366SOL     OW 4777   0.982   1.566  12.888
 1366SOL    HW1 4778   0.967   1.610  12.805
 1366SOL    HW2 4779   1.026   1.484  12.864
 1367SOL     OW 4780   1.855   1.506  12.777
 1367SOL    HW1 4781   1.870   1.534  12.687
 1367SOL    HW2 4782   1.939   1.519  12.822
 1368SOL     OW 4783   0.351   0.920  12.974
 1368SOL    HW1 4784   0.430   0.940  13.023
 1368SOL    HW2 4785   0.379   0.854  12.910
 1369SOL     OW 4786   1.509   0.276  11.308
 1369SOL    HW1 4787   1.434   0.219  11.321
 1369SOL    HW2 4788   1.523   0.317  11.394
 1370SOL     OW 4789   1.292   0.827  11.203
 1370SOL    HW1 4790   1.334   0.741  11.206
 1370SOL    HW2 4791   1.323   0.866  11.122
 1371SOL     OW 4792   1.065   1.336  12.025
 1371SOL    HW1 4793   1.068   1.263  11.963
 1371SOL    HW2 4794   1.127   1.400  11.991
 1372SOL     OW 4795   0.313   0.806  12.123
 1372SOL    HW1 4796   0.407   0.822  12.117
 1372SOL    HW2 4797   0.307   0.716  12.155
 1373SOL     OW 4798   0.337   0.527  12.185
 1373SOL    HW1 4799   0.298   0.442  12.167
 1373SOL    HW2 4800   0.413   0.531  12.126
 1374SOL     OW 4801   1.134   0.382  12.864
 1374SOL    HW1 4802   1.086   0.438  12.926
 1374SOL    HW2 4803   1.221   0.421  12.860
 1375SOL     OW 4804   1.151   0.224  12.653
 1375SOL    HW1 4805   1.142   0.279  12.731
 1375SOL    HW2 4806   1.174   0.286  12.583
 1376SOL     OW 4807   3.999   1.320  11.354
 1376SOL    HW1 4808   3.905   1.336  11.358
 1376SOL    HW2 4809   0.009   1.226  11.374
 1377SOL     OW 4810   0.076   1.801  12.061
 1377SOL    HW1 4811   0.078   1.705  12.070
 1377SOL    HW2 4812   0.168   1.827  12.065
 1378SOL     OW 4813   0.504   1.570  12.082
 1378SOL    HW1 4814   0.573   1.631  12.107
 1378SOL    HW2 4815   0.547   1.507  12.025
 1379SOL     OW 4816   0.984   0.792  12.398
 1379SOL    HW1 4817   1.038   0.769  12.474
 1379SOL    HW2 4818   0.898   0.755  12.418
 1380SOL     OW 4819   0.036   0.567  12.285
 1380SOL    HW1 4820   0.103   0.519  12.235
 1380SOL    HW2 4821   0.061   0.554  12.376
 1381SOL     OW 4822   0.210   0.516  12.894
 1381SOL    HW1 4823   0.259   0.480  12.820
 1381SOL    HW2 4824   0.159   0.588  12.855
 1382SOL     OW 4825   1.377   0.940  12.830
 1382SOL    HW1 4826   1.398   1.033  12.829
 1382SOL    HW2 4827   1.374   0.914  12.738
 1383SOL     OW 4828   0.817   0.572  11.530
 1383SOL    HW1 4829   0.822   0.495  11.473
 1383SOL    HW2 4830   0.742   0.621  11.497
 1384SOL     OW 4831   1.642   0.602  12.359
 1384SOL    HW1 4832   1.632   0.541  12.432
 1384SOL    HW2 4833   1.729   0.583  12.324
 1385SOL     OW 4834   0.297   1.546  12.902
 1385SOL    HW1 4835   0.247   1.616  12.945
 1385SOL    HW2 4836   0.262   1.465  12.940
 1386SOL     OW 4837   0.701   0.457  12.432
 1386SOL    HW1 4838   0.654   0.378  12.405
 1386SOL    HW2 4839   0.695   0.515  12.357
 1387SOL     OW 4840   0.928   1.679  12.640
 1387SOL    HW1 4841   0.902   1.646  12.554
 1387SOL    HW2 4842   0.925   1.774  12.630
 1388SOL     OW 4843   0.458   0.492  11.366
 1388SOL    HW1 4844   0.522   0.561  11.384
 1388SOL    HW2 4845   0.377   0.539  11.346
 1389SOL     OW 4846   0.157   1.136  12.644
 1389SOL    HW1 4847   0.161   1.084  12.725
 1389SOL    HW2 4848   0.172   1.072  12.574
 1390SOL     OW 4849   1.326   1.047  12.396
 1390SOL    HW1 4850   1.350   0.984  12.328
 1390SOL    HW2 4851   1.256   1.099  12.357
 1391SOL     OW 4852   1.311   0.856  11.478
 1391SOL    HW1 4853   1.235   0.827  11.528
 1391SOL    HW2 4854   1.286   0.843  11.387
 1392SOL     OW 4855   1.744   1.738  12.310
 1392SOL    HW1 4856   1.818   1.761  12.255
 1392SOL    HW2 4857   1.729   1.645  12.293
 1393SOL     OW 4858   1.243   1.734  12.285
 1393SOL    HW1 4859   1.325   1.753  12.240
 1393SOL    HW2 4860   1.247   1.640  12.303
 1394SOL     OW 4861   0.076   1.218  12.199
 1394SOL    HW1 4862   0.082   1.243  12.291
 1394SOL    HW2 4863   3.983   1.224  12.178
 1395SOL     OW 4864   0.679   1.665  12.900
 1395SOL    HW1 4865   0.623   1.743  12.895
 1395SOL    HW2 4866   0.743   1.677  12.830
 1396SOL     OW 4867   1.710   0.127  11.658
 1396SOL    HW1 4868   1.791   0.133  11.606
 1396SOL    HW2 4869   1.702   0.034  11.678
 1397SOL     OW 4870   1.390   1.567  11.657
 1397SOL    HW1 4871   1.447   1.599  11.587
 1397SOL    HW2 4872   1.341   1.645  11.685
 1398SOL     OW 4873   0.171   1.767  13.001
 1398SOL    HW1 4874   0.113   1.718  13.059
 1398SOL    HW2 4875   0.215   1.830  13.058
 1399SOL     OW 4876   1.277   0.926  11.843
 1399SOL    HW1 4877   1.351   0.865  11.850
 1399SOL    HW2 4878   1.311   0.998  11.791
 1400SOL     OW 4879   0.816   1.273  12.603
 1400SOL    HW1 4880   0.788   1.312  12.685
 1400SOL    HW2 4881   0.745   1.292  12.542
 1401SOL     OW 4882   0.671   1.619  11.327
 1401SOL    HW1 4883   0.681   1.630  11.233
 1401SOL    HW2 4884   0.617   1.540  11.337
 1402SOL     OW 4885   1.627   1.728  12.563
 1402SOL    HW1 4886   1.671   1.735  12.479
 1402SOL    HW2 4887   1.615   1.819  12.591
 1403SOL     OW 4888   1.838   0.176  12.140
 1403SOL    HW1 4889   1.869   0.103  12.086
 1403SOL    HW2 4890   1.751   0.195  12.106
 1404SOL     OW 4891   0.272   0.323  11.887
 1404SOL    HW1 4892   0.187   0.359  11.862
 1404SOL    HW2 4893   0.265   0.306  11.981
 1405SOL     OW 4894   1.206   1.606  11.203
 1405SOL    HW1 4895   1.197   1.515  11.230
 1405SOL    HW2 4896   1.141   1.618  11.134
 1406SOL     OW 4897   0.824   1.005  12.544
 1406SOL    HW1 4898   0.867   1.001  12.459
 1406SOL    HW2 4899   0.824   1.098  12.567
 1407SOL     OW 4900   0.915   0.910  11.461
 1407SOL    HW1 4901   0.977   0.942  11.396
 1407SOL    HW2 4902   0.962   0.840  11.507
 1408SOL     OW 4903   1.490   1.623  11.213
 1408SOL    HW1 4904   1.396   1.619  11.198
 1408SOL    HW2 4905   1.528   1.630  11.125
 1409SOL     OW 4906   0.373   1.302  12.664
 1409SOL    HW1 4907   0.358   1.383  12.613
 1409SOL    HW2 4908   0.296   1.248  12.645
 1410SOL     OW 4909   1.610   1.282  12.453
 1410SOL    HW1 4910   1.671   1.273  12.526
 1410SOL    HW2 4911   1.550   1.352  12.480
 1411SOL     OW 4912   1.051   1.107  11.878
 1411SOL    HW1 4913   0.980   1.055  11.917
 1411SOL    HW2 4914   1.113   1.041  11.846
 1412SOL     OW 4915   1.015   0.247  12.140
 1412SOL    HW1 4916   1.004   0.198  12.059
 1412SOL    HW2 4917   1.008   0.182  12.209
 1413SOL     OW 4918   0.604   1.489  11.654
 1413SOL    HW1 4919   0.646   1.438  11.585
 1413SOL    HW2 4920   0.534   1.537  11.609
 1414SOL     OW 4921   1.719   0.392  12.546
 1414SOL    HW1 4922   1.791   0.455  12.549
 1414SOL    HW2 4923   1.753   0.320  12.492
 1415SOL     OW 4924   0.253   1.342  11.463
 1415SOL    HW1 4925   0.160   1.352  11.443
 1415SOL    HW2 4926   0.262   1.380  11.551
 1416SOL     OW 4927   0.106   1.000  12.890
 1416SOL    HW1 4928   0.045   0.991  12.963
 1416SOL    HW2 4929   0.191   0.980  12.927
 1417SOL     OW 4930   0.693   0.244  12.669
 1417SOL    HW1 4931   0.763   0.192  12.628
 1417SOL    HW2 4932   0.719   0.252  12.760
 1418SOL     OW 4933   0.088   0.326  11.200
 1418SOL    HW1 4934   3.993   0.321  11.195
 1418SOL    HW2 4935   0.110   0.408  11.156
 1419SOL     OW 4936   1.430   0.857  12.572
 1419SOL    HW1 4937   1.382   0.919  12.517
 1419SOL    HW2 4938   1.519   0.860  12.539
 1420SOL     OW 4939   0.039   0.162  11.455
 1420SOL    HW1 4940   0.037   0.242  11.402
 1420SOL    HW2 4941   0.119   0.170  11.507
 1421SOL     OW 4942   1.179   1.340  11.289
 1421SOL    HW1 4943   1.088   1.310  11.292
 1421SOL    HW2 4944   1.207   1.340  11.380
 1422SOL     OW 4945   0.619   0.830  12.607
 1422SOL    HW1 4946   0.675   0.906  12.591
 1422SOL    HW2 4947   0.680   0.756  12.615
 1423SOL     OW 4948   1.489   1.779  12.151
 1423SOL    HW1 4949   1.513   1.841  12.083
 1423SOL    HW2 4950   1.570   1.763  12.199
 1424SOL     OW 4951   0.716   0.564  12.880
 1424SOL    HW1 4952   0.758   0.627  12.939
 1424SOL    HW2 4953   0.749   0.479  12.909
 1425SOL     OW 4954   1.471   1.201  12.804
 1425SOL    HW1 4955   1.459   1.214  12.898
 1425SOL    HW2 4956   1.564   1.215  12.790
 1426SOL     OW 4957   0.380   1.742  12.731
 1426SOL    HW1 4958   0.293   1.779  12.718
 1426SOL    HW2 4959   0.365   1.660  12.779
 1427SOL     OW 4960   1.670   0.882  12.428
 1427SOL    HW1 4961   1.664   0.796  12.385
 1427SOL    HW2 4962   1.661   0.945  12.357
 1428SOL     OW 4963   1.224   0.333  11.618
 1428SOL    HW1 4964   1.291   0.265  11.610
 1428SOL    HW2 4965   1.246   0.379  11.699
 1429SOL     OW 4966   0.591   0.740  11.841
 1429SOL    HW1 4967   0.629   0.826  11.824
 1429SOL    HW2 4968   0.522   0.731  11.776
 1430SOL     OW 4969   1.754   0.381  12.815
 1430SOL    HW1 4970   1.736   0.385  12.721
 1430SOL    HW2 4971   1.697   0.311  12.847
 1431SOL     OW 4972   1.743   0.934  12.685
 1431SOL    HW1 4973   1.743   1.029  12.697
 1431SOL    HW2 4974   1.729   0.922  12.591
 1432SOL     OW 4975   0.862   1.367  11.205
 1432SOL    HW1 4976   0.824   1.395  11.288
 1432SOL    HW2 4977   0.881   1.449  11.159
 1433SOL     OW 4978   0.661   1.791  12.117
 1433SOL    HW1 4979   0.640   1.882  12.094
 1433SOL    HW2 4980   0.756   1.786  12.110
 1434SOL     OW 4981   0.867   0.966  12.027
 1434SOL    HW1 4982   0.917   0.895  12.067
 1434SOL    HW2 4983   0.833   1.016  12.101
 1435SOL     OW 4984   1.079   0.988  11.261
 1435SOL    HW1 4985   1.057   1.039  11.182
 1435SOL    HW2 4986   1.154   0.935  11.235
 1436SOL     OW 4987   1.848   1.542  12.005
 1436SOL    HW1 4988   1.764   1.539  11.959
 1436SOL    HW2 4989   1.838   1.482  12.079
 1437SOL     OW 4990   0.224   1.303  13.027
 1437SOL    HW1 4991   0.152   1.245  13.002
 1437SOL    HW2 4992   0.211   1.318  13.121
 1438SOL     OW 4993   0.114   1.274  11.889
 1438SOL    HW1 4994   0.122   1.223  11.969
 1438SOL    HW2 4995   0.110   1.209  11.819
 1439SOL     OW 4996   0.680   1.402  12.799
 1439SOL    HW1 4997   0.600   1.359  12.829
 1439SOL    HW2 4998   0.675   1.490  12.836
 1440SOL     OW 4999   1.813   0.184  12.411
 1440SOL    HW1 5000   1.815   0.089  12.425
 1440SOL    HW2 5001   1.827   0.195  12.317
 1441SOL     OW 5002   0.442   0.436  11.702
 1441SOL    HW1 5003   0.454   0.361  11.644
 1441SOL    HW2 5004   0.386   0.402  11.773
 1442SOL     OW 5005   1.703   1.479  12.265
 1442SOL    HW1 5006   1.619   1.458  12.222
 1442SOL    HW2 5007   1.713   1.412  12.332
 1443SOL     OW 5008   0.330   0.555  12.464
 1443SOL    HW1 5009   0.387   0.498  12.516
 1443SOL    HW2 5010   0.346   0.527  12.373
 1444SOL     OW 5011   0.826   1.578  11.850
 1444SOL    HW1 5012   0.817   1.631  11.771
 1444SOL    HW2 5013   0.749   1.521  11.851
 1445SOL     OW 5014   1.461   0.251  12.283
 1445SOL    HW1 5015   1.477   0.164  12.320
 1445SOL    HW2 5016   1.403   0.293  12.347
 1446SOL     OW 5017   1.006   0.030  12.319
 1446SOL    HW1 5018   0.930   3.980  12.289
 1446SOL    HW2 5019   1.075   3.964  12.327
 1447SOL     OW 5020   0.771   1.332  11.486
 1447SOL    HW1 5021   0.740   1.242  11.492
 1447SOL    HW2 5022   0.854   1.332  11.534
 1448SOL     OW 5023   0.620   1.558  12.456
 1448SOL    HW1 5024   0.623   1.639  12.507
 1448SOL    HW2 5025   0.707   1.550  12.419
 1449SOL     OW 5026   1.315   0.074  11.335
 1449SOL    HW1 5027   1.334   0.004  11.273
 1449SOL    HW2 5028   1.230   0.051  11.373
 1450SOL     OW 5029   1.285   0.458  11.859
 1450SOL    HW1 5030   1.237   0.540  11.856
 1450SOL    HW2 5031   1.289   0.436  11.952
 1451SOL     OW 5032   1.588   0.211  12.039
 1451SOL    HW1 5033   1.538   0.233  12.118
 1451SOL    HW2 5034   1.588   0.291  11.987
 1452SOL     OW 5035   0.045   1.051  11.412
 1452SOL    HW1 5036   0.139   1.035  11.403
 1452SOL    HW2 5037   0.010   0.971  11.451
 1453SOL     OW 5038   0.883   1.652  11.515
 1453SOL    HW1 5039   0.811   1.635  11.455
 1453SOL    HW2 5040   0.854   1.727  11.566
 1454SOL     OW 5041   0.232   0.625  13.153
 1454SOL    HW1 5042   0.138   0.629  13.174
 1454SOL    HW2 5043   0.234   0.596  13.062
 1455SOL     OW 5044   0.279   0.251   0.147
 1455SOL    HW1 5045   0.322   0.312   0.206
 1455SOL    HW2 5046   0.201   0.298   0.116
 1456SOL     OW 5047   0.015   0.385  13.666
 1456SOL    HW1 5048   3.922   0.401  13.655
 1456SOL    HW2 5049   0.028   0.296  13.634
 1457SOL     OW 5050   1.531   1.502  13.725
 1457SOL    HW1 5051   1.473   1.443  13.773
 1457SOL    HW2 5052   1.485   1.520  13.643
 1458SOL     OW 5053   1.129   0.702  13.736
 1458SOL    HW1 5054   1.184   0.775  13.708
 1458SOL    HW2 5055   1.078   0.736  13.810
 1459SOL     OW 5056   1.761   0.616  13.261
 1459SOL    HW1 5057   1.743   0.610  13.168
 1459SOL    HW2 5058   1.753   0.527  13.294
 1460SOL     OW 5059   0.686   1.011  13.673
 1460SOL    HW1 5060   0.741   0.989  13.748
 1460SOL    HW2 5061   0.613   1.061  13.710
 1461SOL     OW 5062   1.619   0.456  13.764
 1461SOL    HW1 5063   1.538   0.478  13.718
 1461SOL    HW2 5064   1.648   0.539  13.802
 1462SOL     OW 5065   0.220   1.714  13.488
 1462SOL    HW1 5066   0.237   1.788  13.546
 1462SOL    HW2 5067   0.299   1.707  13.435
 1463SOL     OW 5068   0.245   1.444  13.571
 1463SOL    HW1 5069   0.216   1.535  13.562
 1463SOL    HW2 5070   0.180   1.404  13.629
 1464SOL     OW 5071   0.251   1.078   0.020
 1464SOL    HW1 5072   0.272   1.033   0.101
 1464SOL    HW2 5073   0.210   1.160   0.048
 1465SOL     OW 5074   0.582   0.983  13.169
 1465SOL    HW1 5075   0.627   1.030  13.099
 1465SOL    HW2 5076   0.624   1.013  13.250
 1466SOL     OW 5077   0.145   0.647  13.610
 1466SOL    HW1 5078   0.085   0.573  13.602
 1466SOL    HW2 5079   0.099   0.708  13.669
 1467SOL     OW 5080   0.043   1.592  13.174
 1467SOL    HW1 5081   0.033   1.499  13.195
 1467SOL    HW2 5082   3.966   1.634  13.211
 1468SOL     OW 5083   1.686   0.915  13.667
 1468SOL    HW1 5084   1.774   0.882  13.648
 1468SOL    HW2 5085   1.665   0.970  13.593
 1469SOL     OW 5086   1.646   1.106  13.461
 1469SOL    HW1 5087   1.732   1.111  13.418
 1469SOL    HW2 5088   1.652   1.168  13.534
 1470SOL     OW 5089   0.609   1.387  13.764
 1470SOL    HW1 5090   0.562   1.305  13.778
 1470SOL    HW2 5091   0.583   1.414  13.675
 1471SOL     OW 5092   0.818   0.001  13.549
 1471SOL    HW1 5093   0.862   0.083  13.526
 1471SOL    HW2 5094   0.725   0.024  13.548
 1472SOL     OW 5095   1.531   0.992  13.232
 1472SOL    HW1 5096   1.462   0.935  13.264
 1472SOL    HW2 5097   1.571   1.028  13.312
 1473SOL     OW 5098   1.665   1.730  13.595
 1473SOL    HW1 5099   1.628   1.696  13.514
 1473SOL    HW2 5100   1.659   1.657  13.657
 1474SOL     OW 5101   0.595   0.720  13.296
 1474SOL    HW1 5102   0.602   0.803  13.249
 1474SOL    HW2 5103   0.532   0.738  13.366
 1475SOL     OW 5104   1.252   0.336   0.057
 1475SOL    HW1 5105   1.160   0.321   0.080
 1475SOL    HW2 5106   1.301   0.296   0.129
 1476SOL     OW 5107   1.577   1.671  13.334
 1476SOL    HW1 5108   1.664   1.706  13.315
 1476SOL    HW2 5109   1.542   1.646  13.249
 1477SOL     OW 5110   1.048   0.697  13.460
 1477SOL    HW1 5111   1.061   0.686  13.555
 1477SOL    HW2 5112   0.967   0.650  13.441
 1478SOL     OW 5113   0.080   0.834  13.808
 1478SOL    HW1 5114   0.164   0.814  13.851
 1478SOL    HW2 5115   0.076   0.929  13.806
 1479SOL     OW 5116   0.891   0.350  13.231
 1479SOL    HW1 5117   0.933   0.409  13.168
 1479SOL    HW2 5118   0.896   0.264  13.190
 1480SOL     OW 5119   1.365   1.136  13.557
 1480SOL    HW1 5120   1.454   1.134  13.522
 1480SOL    HW2 5121   1.321   1.207  13.509
 1481SOL     OW 5122   1.005   1.443  13.504
 1481SOL    HW1 5123   0.969   1.517  13.456
 1481SOL    HW2 5124   0.977   1.457  13.595
 1482SOL     OW 5125   0.396   1.795  13.859
 1482SOL    HW1 5126   0.433   1.709  13.874
 1482SOL    HW2 5127   0.462   1.856  13.892
 1483SOL     OW 5128   1.791   1.052  13.899
 1483SOL    HW1 5129   1.732   1.047  13.824
 1483SOL    HW2 5130   1.734   1.050   0.075
 1484SOL     OW 5131   0.310   0.955  13.277
 1484SOL    HW1 5132   0.395   0.979  13.238
 1484SOL    HW2 5133   0.296   0.865  13.249
 1485SOL     OW 5134   1.486   0.734  13.751
 1485SOL    HW1 5135   1.473   0.689  13.835
 1485SOL    HW2 5136   1.557   0.795  13.768
 1486SOL     OW 5137   1.122   1.777  13.266
 1486SOL    HW1 5138   1.048   1.736  13.311
 1486SOL    HW2 5139   1.143   1.715  13.195
 1487SOL     OW 5140   1.628   1.379  13.121
 1487SOL    HW1 5141   1.588   1.464  13.104
 1487SOL    HW2 5142   1.559   1.315  13.102
 1488SOL     OW 5143   0.467   1.739  13.352
 1488SOL    HW1 5144   0.508   1.796  13.417
 1488SOL    HW2 5145   0.540   1.708  13.298
 1489SOL     OW 5146   1.428   0.150  13.448
 1489SOL    HW1 5147   1.395   0.101  13.373
 1489SOL    HW2 5148   1.521   0.127  13.453
 1490SOL     OW 5149   0.926   1.691   0.014
 1490SOL    HW1 5150   0.963   1.624   0.071
 1490SOL    HW2 5151   0.883   1.641  13.843
 1491SOL     OW 5152   0.395   0.696  13.505
 1491SOL    HW1 5153   0.424   0.606  13.517
 1491SOL    HW2 5154   0.304   0.697  13.534
 1492SOL     OW 5155   0.642   0.136  13.135
 1492SOL    HW1 5156   0.675   0.056  13.177
 1492SOL    HW2 5157   0.580   0.105  13.069
 1493SOL     OW 5158   0.549   0.057  13.526
 1493SOL    HW1 5159   0.471   0.061  13.581
 1493SOL    HW2 5160   0.549   0.139  13.478
 1494SOL     OW 5161   1.428   1.198  13.075
 1494SOL    HW1 5162   1.458   1.122  13.125
 1494SOL    HW2 5163   1.342   1.218  13.113
 1495SOL     OW 5164   0.335   0.056  13.232
 1495SOL    HW1 5165   0.362   0.089  13.146
 1495SOL    HW2 5166   0.415   0.022  13.271
 1496SOL     OW 5167   0.938   0.244  13.496
 1496SOL    HW1 5168   0.910   0.289  13.416
 1496SOL    HW2 5169   1.034   0.250  13.494
 1497SOL     OW 5170   0.469   1.143  13.773
 1497SOL    HW1 5171   0.394   1.124  13.829
 1497SOL    HW2 5172   0.435   1.132  13.684
 1498SOL     OW 5173   1.271   1.797  13.634
 1498SOL    HW1 5174   1.311   1.865  13.579
 1498SOL    HW2 5175   1.202   1.843  13.683
 1499SOL     OW 5176   1.024   0.546  13.058
 1499SOL    HW1 5177   0.981   0.630  13.038
 1499SOL    HW2 5178   1.087   0.567  13.126
 1500SOL     OW 5179   0.893   0.474  13.666
 1500SOL    HW1 5180   0.822   0.516  13.618
 1500SOL    HW2 5181   0.898   0.385  13.629
 1501SOL     OW 5182   0.999   0.039  13.797
 1501SOL    HW1 5183   0.970   0.063  13.709
 1501SOL    HW2 5184   1.021   3.946  13.791
 1502SOL     OW 5185   1.848   0.820  13.415
 1502SOL    HW1 5186   1.905   0.767  13.471
 1502SOL    HW2 5187   1.815   0.759  13.350
 1503SOL     OW 5188   0.489   1.416  13.196
 1503SOL    HW1 5189   0.414   1.385  13.246
 1503SOL    HW2 5190   0.468   1.394  13.105
 1504SOL     OW 5191   1.678   1.269  13.667
 1504SOL    HW1 5192   1.771   1.269  13.690
 1504SOL    HW2 5193   1.644   1.351  13.702
 1505SOL     OW 5194   1.395   0.574  13.104
 1505SOL    HW1 5195   1.333   0.554  13.175
 1505SOL    HW2 5196   1.480   0.552  13.141
 1506SOL     OW 5197   0.556   0.270  13.354
 1506SOL    HW1 5198   0.597   0.227  13.279
 1506SOL    HW2 5199   0.528   0.355  13.321
 1507SOL     OW 5200   0.708   1.061  13.401
 1507SOL    HW1 5201   0.694   1.048  13.495
 1507SOL    HW2 5202   0.784   1.008  13.381
 1508SOL     OW 5203   0.378   1.103  13.519
 1508SOL    HW1 5204   0.367   1.181  13.466
 1508SOL    HW2 5205   0.374   1.030  13.457
 1509SOL     OW 5206   0.570   0.540  13.864
 1509SOL    HW1 5207   0.583   0.610  13.800
 1509SOL    HW2 5208   0.622   0.566   0.039
 1510SOL     OW 5209   1.247   1.350  13.419
 1510SOL    HW1 5210   1.302   1.423  13.449
 1510SOL    HW2 5211   1.160   1.370  13.455
 1511SOL     OW 5212   1.586   0.630  13.514
 1511SOL    HW1 5213   1.545   0.687  13.579
 1511SOL    HW2 5214   1.626   0.690  13.452
 1512SOL     OW 5215   1.204   0.532  13.298
 1512SOL    HW1 5216   1.212   0.453  13.351
 1512SOL    HW2 5217   1.161   0.595  13.355
 1513SOL     OW 5218   0.328   0.050  13.677
 1513SOL    HW1 5219   0.305   0.143  13.686
 1513SOL    HW2 5220   0.273   0.006  13.742
 1514SOL     OW 5221   1.585   0.387  13.410
 1514SOL    HW1 5222   1.582   0.321  13.479
 1514SOL    HW2 5223   1.576   0.471  13.456
 1515SOL     OW 5224   1.510   0.278  13.168
 1515SOL    HW1 5225   1.435   0.220  13.182
 1515SOL    HW2 5226   1.524   0.319  13.253
 1516SOL     OW 5227   1.292   0.827  13.065
 1516SOL    HW1 5228   1.334   0.741  13.068
 1516SOL    HW2 5229   1.323   0.866  12.983
 1517SOL     OW 5230   3.999   1.320  13.215
 1517SOL    HW1 5231   3.905   1.336  13.220
 1517SOL    HW2 5232   0.009   1.227  13.235
 1518SOL     OW 5233   0.817   0.574  13.385
 1518SOL    HW1 5234   0.821   0.495  13.331
 1518SOL    HW2 5235   0.740   0.621  13.354
 1519SOL     OW 5236   0.457   0.492  13.230
 1519SOL    HW1 5237   0.521   0.561  13.246
 1519SOL    HW2 5238   0.376   0.539  13.208
 1520SOL     OW 5239   1.312   0.851  13.340
 1520SOL    HW1 5240   1.233   0.828  13.389
 1520SOL    HW2 5241   1.287   0.841  13.248
 1521SOL     OW 5242   1.696   0.125  13.470
 1521SOL    HW1 5243   1.790   0.131  13.450
 1521SOL    HW2 5244   1.692   0.061  13.541
 1522SOL     OW 5245   1.384   1.572  13.509
 1522SOL    HW1 5246   1.441   1.607  13.441
 1522SOL    HW2 5247   1.338   1.648  13.544
 1523SOL     OW 5248   1.287   0.915  13.686
 1523SOL    HW1 5249   1.364   0.860  13.672
 1523SOL    HW2 5250   1.309   0.999  13.646
 1524SOL     OW 5251   0.671   1.619  13.189
 1524SOL    HW1 5252   0.681   1.630  13.095
 1524SOL    HW2 5253   0.617   1.540  13.198
 1525SOL     OW 5254   1.833   0.166   0.063
 1525SOL    HW1 5255   1.870   0.078   0.052
 1525SOL    HW2 5256   1.739   0.154   0.050
 1526SOL     OW 5257   0.281   0.308  13.740
 1526SOL    HW1 5258   0.201   0.354  13.715
 1526SOL    HW2 5259   0.287   0.321  13.835
 1527SOL     OW 5260   1.206   1.606  13.065
 1527SOL    HW1 5261   1.197   1.515  13.092
 1527SOL    HW2 5262   1.141   1.618  12.996
 1528SOL     OW 5263   0.917   0.912  13.327
 1528SOL    HW1 5264   0.978   0.942  13.259
 1528SOL    HW2 5265   0.962   0.838  13.368
 1529SOL     OW 5266   1.490   1.623  13.075
 1529SOL    HW1 5267   1.395   1.619  13.060
 1529SOL    HW2 5268   1.528   1.630  12.987
 1530SOL     OW 5269   1.050   1.091  13.754
 1530SOL    HW1 5270   0.962   1.052  13.748
 1530SOL    HW2 5271   1.100   1.047  13.685
 1531SOL     OW 5272   0.602   1.492  13.509
 1531SOL    HW1 5273   0.644   1.440  13.441
 1531SOL    HW2 5274   0.531   1.538  13.464
 1532SOL     OW 5275   0.252   1.341  13.325
 1532SOL    HW1 5276   0.159   1.352  13.304
 1532SOL    HW2 5277   0.262   1.380  13.412
 1533SOL     OW 5278   0.088   0.326  13.063
 1533SOL    HW1 5279   3.992   0.321  13.056
 1533SOL    HW2 5280   0.110   0.408  13.017
 1534SOL     OW 5281   0.042   0.163  13.308
 1534SOL    HW1 5282   0.044   0.242  13.255
 1534SOL    HW2 5283   0.124   0.166  13.359
 1535SOL     OW 5284   1.179   1.340  13.150
 1535SOL    HW1 5285   1.088   1.310  13.153
 1535SOL    HW2 5286   1.207   1.340  13.241
 1536SOL     OW 5287   1.223   0.329  13.484
 1536SOL    HW1 5288   1.292   0.263  13.474
 1536SOL    HW2 5289   1.251   0.380  13.560
 1537SOL     OW 5290   0.594   0.750  13.693
 1537SOL    HW1 5291   0.628   0.837  13.673
 1537SOL    HW2 5292   0.523   0.738  13.630
 1538SOL     OW 5293   0.863   1.367  13.067
 1538SOL    HW1 5294   0.824   1.395  13.150
 1538SOL    HW2 5295   0.881   1.449  13.021
 1539SOL     OW 5296   0.655   1.846   0.062
 1539SOL    HW1 5297   0.666   1.940   0.051
 1539SOL    HW2 5298   0.744   1.813   0.076
 1540SOL     OW 5299   0.833   0.962  13.893
 1540SOL    HW1 5300   0.872   0.885   0.035
 1540SOL    HW2 5301   0.842   1.032   0.058
 1541SOL     OW 5302   1.078   0.987  13.123
 1541SOL    HW1 5303   1.057   1.038  13.045
 1541SOL    HW2 5304   1.154   0.934  13.097
 1542SOL     OW 5305   0.114   1.270  13.751
 1542SOL    HW1 5306   0.058   1.222  13.813
 1542SOL    HW2 5307   0.126   1.210  13.678
 1543SOL     OW 5308   0.444   0.438  13.558
 1543SOL    HW1 5309   0.460   0.364  13.500
 1543SOL    HW2 5310   0.399   0.400  13.633
 1544SOL     OW 5311   1.698   1.494   0.321
 1544SOL    HW1 5312   1.662   1.452   0.243
 1544SOL    HW2 5313   1.761   1.431   0.355
 1545SOL     OW 5314   0.820   1.554  13.711
 1545SOL    HW1 5315   0.802   1.609  13.635
 1545SOL    HW2 5316   0.742   1.501  13.722
 1546SOL     OW 5317   0.771   1.332  13.345
 1546SOL    HW1 5318   0.740   1.242  13.352
 1546SOL    HW2 5319   0.853   1.333  13.395
 1547SOL     OW 5320   1.315   0.077  13.203
 1547SOL    HW1 5321   1.342   0.009  13.141
 1547SOL    HW2 5322   1.229   0.049  13.235
 1548SOL     OW 5323   1.292   0.459  13.717
 1548SOL    HW1 5324   1.240   0.540  13.719
 1548SOL    HW2 5325   1.291   0.428  13.807
 1549SOL     OW 5326   0.045   1.051  13.271
 1549SOL    HW1 5327   0.139   1.035  13.264
 1549SOL    HW2 5328   0.010   0.972  13.312
 1550SOL     OW 5329   0.884   1.652  13.376
 1550SOL    HW1 5330   0.811   1.635  13.317
 1550SOL    HW2 5331   0.854   1.725  13.430
 1551SOL     OW 5332   0.233   2.506   0.121
 1551SOL    HW1 5333   0.139   2.502   0.136
 1551SOL    HW2 5334   0.246   2.463   0.036
 1552SOL     OW 5335   0.229   2.133   0.987
 1552SOL    HW1 5336   0.249   2.101   1.075
 1552SOL    HW2 5337   0.133   2.124   0.980
 1553SOL     OW 5338   0.012   2.228   0.635
 1553SOL    HW1 5339   3.927   2.247   0.675
 1553SOL    HW2 5340   3.989   2.187   0.551
 1554SOL     OW 5341   0.576   3.144   1.183
 1554SOL    HW1 5342   0.490   3.150   1.142
 1554SOL    HW2 5343   0.592   3.232   1.217
 1555SOL     OW 5344   1.559   3.372   0.707
 1555SOL    HW1 5345   1.515   3.352   0.789
 1555SOL    HW2 5346   1.489   3.376   0.642
 1556SOL     OW 5347   1.130   2.560   0.702
 1556SOL    HW1 5348   1.180   2.641   0.688
 1556SOL    HW2 5349   1.084   2.575   0.785
 1557SOL     OW 5350   1.756   2.468   0.226
 1557SOL    HW1 5351   1.783   2.424   0.145
 1557SOL    HW2 5352   1.726   2.397   0.283
 1558SOL     OW 5353   0.757   3.004   1.038
 1558SOL    HW1 5354   0.690   3.037   1.098
 1558SOL    HW2 5355   0.792   3.081   0.994
 1559SOL     OW 5356   0.864   2.639   1.821
 1559SOL    HW1 5357   0.856   2.710   1.884
 1559SOL    HW2 5358   0.888   2.682   1.739
 1560SOL     OW 5359   0.685   2.866   0.648
 1560SOL    HW1 5360   0.751   2.853   0.717
 1560SOL    HW2 5361   0.616   2.917   0.690
 1561SOL     OW 5362   0.709   3.012   1.812
 1561SOL    HW1 5363   0.757   3.091   1.838
 1561SOL    HW2 5364   0.627   3.045   1.777
 1562SOL     OW 5365   0.351   3.265   1.078
 1562SOL    HW1 5366   0.268   3.252   1.032
 1562SOL    HW2 5367   0.401   3.324   1.022
 1563SOL     OW 5368   1.461   3.361   1.353
 1563SOL    HW1 5369   1.511   3.442   1.363
 1563SOL    HW2 5370   1.400   3.361   1.427
 1564SOL     OW 5371   0.450   2.263   1.491
 1564SOL    HW1 5372   0.524   2.202   1.493
 1564SOL    HW2 5373   0.373   2.207   1.502
 1565SOL     OW 5374   1.610   2.307   0.736
 1565SOL    HW1 5375   1.531   2.333   0.689
 1565SOL    HW2 5376   1.632   2.383   0.790
 1566SOL     OW 5377   0.229   3.571   0.472
 1566SOL    HW1 5378   0.229   3.654   0.519
 1566SOL    HW2 5379   0.301   3.578   0.409
 1567SOL     OW 5380   1.136   3.203   1.692
 1567SOL    HW1 5381   1.177   3.198   1.779
 1567SOL    HW2 5382   1.084   3.123   1.686
 1568SOL     OW 5383   0.242   3.306   0.542
 1568SOL    HW1 5384   0.222   3.399   0.528
 1568SOL    HW2 5385   0.169   3.274   0.594
 1569SOL     OW 5386   0.245   2.931   0.883
 1569SOL    HW1 5387   0.265   2.848   0.926
 1569SOL    HW2 5388   0.194   2.980   0.948
 1570SOL     OW 5389   0.614   3.649   1.430
 1570SOL    HW1 5390   0.531   3.634   1.476
 1570SOL    HW2 5391   0.639   3.738   1.454
 1571SOL     OW 5392   0.567   2.843   0.158
 1571SOL    HW1 5393   0.589   2.893   0.079
 1571SOL    HW2 5394   0.622   2.881   0.226
 1572SOL     OW 5395   1.598   1.989   1.467
 1572SOL    HW1 5396   1.583   2.072   1.421
 1572SOL    HW2 5397   1.589   2.010   1.560
 1573SOL     OW 5398   0.140   2.512   0.573
 1573SOL    HW1 5399   0.086   2.433   0.574
 1573SOL    HW2 5400   0.105   2.566   0.644
 1574SOL     OW 5401   1.838   3.614   0.339
 1574SOL    HW1 5402   1.898   3.580   0.406
 1574SOL    HW2 5403   1.866   3.704   0.325
 1575SOL     OW 5404   0.030   3.469   0.142
 1575SOL    HW1 5405   0.030   3.373   0.149
 1575SOL    HW2 5406   3.941   3.495   0.165
 1576SOL     OW 5407   1.688   2.780   0.640
 1576SOL    HW1 5408   1.773   2.739   0.620
 1576SOL    HW2 5409   1.667   2.831   0.562
 1577SOL     OW 5410   1.647   2.968   0.431
 1577SOL    HW1 5411   1.733   2.973   0.391
 1577SOL    HW2 5412   1.650   3.030   0.503
 1578SOL     OW 5413   0.134   2.613   1.590
 1578SOL    HW1 5414   0.230   2.608   1.594
 1578SOL    HW2 5415   0.115   2.705   1.610
 1579SOL     OW 5416   0.613   3.246   0.735
 1579SOL    HW1 5417   0.566   3.163   0.744
 1579SOL    HW2 5418   0.597   3.273   0.644
 1580SOL     OW 5419   1.289   3.100   1.424
 1580SOL    HW1 5420   1.322   3.033   1.364
 1580SOL    HW2 5421   1.346   3.094   1.500
 1581SOL     OW 5422   0.817   1.861   0.508
 1581SOL    HW1 5423   0.857   1.946   0.489
 1581SOL    HW2 5424   0.724   1.880   0.518
 1582SOL     OW 5425   0.186   2.816   1.277
 1582SOL    HW1 5426   0.274   2.781   1.262
 1582SOL    HW2 5427   0.131   2.772   1.211
 1583SOL     OW 5428   1.532   2.857   0.202
 1583SOL    HW1 5429   1.463   2.797   0.233
 1583SOL    HW2 5430   1.570   2.892   0.282
 1584SOL     OW 5431   1.210   3.664   1.625
 1584SOL    HW1 5432   1.195   3.724   1.552
 1584SOL    HW2 5433   1.213   3.577   1.585
 1585SOL     OW 5434   0.338   2.109   1.812
 1585SOL    HW1 5435   0.379   2.195   1.820
 1585SOL    HW2 5436   0.247   2.123   1.838
 1586SOL     OW 5437   1.465   3.282   0.952
 1586SOL    HW1 5438   1.397   3.296   1.018
 1586SOL    HW2 5439   1.454   3.191   0.925
 1587SOL     OW 5440   1.660   3.598   0.586
 1587SOL    HW1 5441   1.642   3.575   0.495
 1587SOL    HW2 5442   1.634   3.520   0.636
 1588SOL     OW 5443   0.598   2.582   0.261
 1588SOL    HW1 5444   0.602   2.664   0.212
 1588SOL    HW2 5445   0.538   2.600   0.334
 1589SOL     OW 5446   1.279   2.215   0.933
 1589SOL    HW1 5447   1.190   2.180   0.942
 1589SOL    HW2 5448   1.333   2.161   0.990
 1590SOL     OW 5449   1.560   3.595   0.312
 1590SOL    HW1 5450   1.656   3.594   0.312
 1590SOL    HW2 5451   1.536   3.553   0.229
 1591SOL     OW 5452   0.792   2.479   1.452
 1591SOL    HW1 5453   0.765   2.456   1.541
 1591SOL    HW2 5454   0.751   2.413   1.397
 1592SOL     OW 5455   1.393   2.335   1.677
 1592SOL    HW1 5456   1.395   2.381   1.761
 1592SOL    HW2 5457   1.459   2.266   1.687
 1593SOL     OW 5458   0.955   2.750   1.582
 1593SOL    HW1 5459   1.010   2.679   1.547
 1593SOL    HW2 5460   0.908   2.783   1.506
 1594SOL     OW 5461   0.992   2.274   1.239
 1594SOL    HW1 5462   0.908   2.297   1.277
 1594SOL    HW2 5463   0.971   2.228   1.158
 1595SOL     OW 5464   1.049   2.563   0.429
 1595SOL    HW1 5465   1.065   2.554   0.523
 1595SOL    HW2 5466   0.968   2.516   0.414
 1596SOL     OW 5467   0.082   2.686   0.791
 1596SOL    HW1 5468   0.162   2.659   0.837
 1596SOL    HW2 5469   0.091   2.781   0.783
 1597SOL     OW 5470   0.128   3.712   1.574
 1597SOL    HW1 5471   0.134   3.682   1.664
 1597SOL    HW2 5472   0.035   3.701   1.551
 1598SOL     OW 5473   0.871   2.219   0.213
 1598SOL    HW1 5474   0.911   2.278   0.149
 1598SOL    HW2 5475   0.881   2.132   0.175
 1599SOL     OW 5476   1.682   2.447   1.832
 1599SOL    HW1 5477   1.655   2.517   1.773
 1599SOL    HW2 5478   1.727   2.384   1.775
 1600SOL     OW 5479   1.376   3.004   0.543
 1600SOL    HW1 5480   1.454   2.990   0.489
 1600SOL    HW2 5481   1.324   3.067   0.494
 1601SOL     OW 5482   0.546   2.043   0.893
 1601SOL    HW1 5483   0.552   2.072   0.984
 1601SOL    HW2 5484   0.549   2.124   0.841
 1602SOL     OW 5485   1.007   3.306   0.475
 1602SOL    HW1 5486   0.970   3.379   0.425
 1602SOL    HW2 5487   0.989   3.328   0.567
 1603SOL     OW 5488   0.358   3.668   0.859
 1603SOL    HW1 5489   0.434   3.610   0.867
 1603SOL    HW2 5490   0.394   3.756   0.867
 1604SOL     OW 5491   1.798   2.917   0.868
 1604SOL    HW1 5492   1.743   2.903   0.792
 1604SOL    HW2 5493   1.737   2.925   0.941
 1605SOL     OW 5494   1.228   3.399   1.511
 1605SOL    HW1 5495   1.213   3.327   1.572
 1605SOL    HW2 5496   1.163   3.386   1.442
 1606SOL     OW 5497   0.314   2.798   0.238
 1606SOL    HW1 5498   0.404   2.813   0.211
 1606SOL    HW2 5499   0.302   2.703   0.231
 1607SOL     OW 5500   1.478   2.602   0.727
 1607SOL    HW1 5501   1.468   2.559   0.812
 1607SOL    HW2 5502   1.554   2.658   0.736
 1608SOL     OW 5503   0.465   3.121   1.737
 1608SOL    HW1 5504   0.439   3.130   1.645
 1608SOL    HW2 5505   0.383   3.127   1.786
 1609SOL     OW 5506   1.124   3.640   0.234
 1609SOL    HW1 5507   1.061   3.594   0.289
 1609SOL    HW2 5508   1.150   3.575   0.168
 1610SOL     OW 5509   0.204   2.142   1.507
 1610SOL    HW1 5510   0.114   2.173   1.496
 1610SOL    HW2 5511   0.196   2.059   1.554
 1611SOL     OW 5512   1.633   3.234   0.081
 1611SOL    HW1 5513   1.595   3.318   0.055
 1611SOL    HW2 5514   1.565   3.170   0.063
 1612SOL     OW 5515   0.470   3.603   0.319
 1612SOL    HW1 5516   0.506   3.664   0.383
 1612SOL    HW2 5517   0.546   3.574   0.268
 1613SOL     OW 5518   1.402   1.971   0.430
 1613SOL    HW1 5519   1.384   1.950   0.338
 1613SOL    HW2 5520   1.493   1.944   0.444
 1614SOL     OW 5521   0.251   3.656   1.230
 1614SOL    HW1 5522   0.298   3.592   1.283
 1614SOL    HW2 5523   0.247   3.617   1.143
 1615SOL     OW 5524   0.937   3.561   0.901
 1615SOL    HW1 5525   1.015   3.508   0.921
 1615SOL    HW2 5526   0.892   3.512   0.832
 1616SOL     OW 5527   0.395   2.558   0.472
 1616SOL    HW1 5528   0.421   2.466   0.482
 1616SOL    HW2 5529   0.303   2.560   0.500
 1617SOL     OW 5530   1.538   2.086   1.725
 1617SOL    HW1 5531   1.548   2.108   1.818
 1617SOL    HW2 5532   1.467   2.022   1.723
 1618SOL     OW 5533   0.766   2.139   1.753
 1618SOL    HW1 5534   0.842   2.080   1.756
 1618SOL    HW2 5535   0.719   2.121   1.834
 1619SOL     OW 5536   0.876   3.382   1.194
 1619SOL    HW1 5537   0.861   3.347   1.106
 1619SOL    HW2 5538   0.946   3.328   1.230
 1620SOL     OW 5539   1.342   2.450   1.432
 1620SOL    HW1 5540   1.371   2.419   1.517
 1620SOL    HW2 5541   1.377   2.539   1.425
 1621SOL     OW 5542   0.815   3.257   0.938
 1621SOL    HW1 5543   0.899   3.246   0.894
 1621SOL    HW2 5544   0.751   3.257   0.866
 1622SOL     OW 5545   0.927   2.371   0.903
 1622SOL    HW1 5546   0.904   2.363   0.810
 1622SOL    HW2 5547   0.960   2.285   0.927
 1623SOL     OW 5548   0.554   1.923   0.505
 1623SOL    HW1 5549   0.473   1.922   0.555
 1623SOL    HW2 5550   0.547   2.001   0.449
 1624SOL     OW 5551   1.430   3.065   0.045
 1624SOL    HW1 5552   1.451   2.984   0.092
 1624SOL    HW2 5553   1.337   3.080   0.064
 1625SOL     OW 5554   0.266   1.871   0.218
 1625SOL    HW1 5555   0.298   1.954   0.181
 1625SOL    HW2 5556   0.346   1.823   0.241
 1626SOL     OW 5557   0.939   2.107   0.462
 1626SOL    HW1 5558   0.908   2.148   0.381
 1626SOL    HW2 5559   1.033   2.124   0.463
 1627SOL     OW 5560   1.080   2.542   1.459
 1627SOL    HW1 5561   1.011   2.476   1.465
 1627SOL    HW2 5562   1.161   2.492   1.453
 1628SOL     OW 5563   1.223   3.432   0.794
 1628SOL    HW1 5564   1.240   3.499   0.728
 1628SOL    HW2 5565   1.292   3.444   0.859
 1629SOL     OW 5566   0.465   3.011   0.736
 1629SOL    HW1 5567   0.393   2.988   0.796
 1629SOL    HW2 5568   0.429   2.997   0.649
 1630SOL     OW 5569   1.269   3.659   0.605
 1630SOL    HW1 5570   1.314   3.722   0.550
 1630SOL    HW2 5571   1.199   3.709   0.648
 1631SOL     OW 5572   0.998   2.409   0.059
 1631SOL    HW1 5573   0.999   2.404  13.864
 1631SOL    HW2 5574   1.090   2.408   0.084
 1632SOL     OW 5575   0.080   2.433   1.390
 1632SOL    HW1 5576   0.169   2.419   1.359
 1632SOL    HW2 5577   0.087   2.502   1.456
 1633SOL     OW 5578   0.567   2.088   1.163
 1633SOL    HW1 5579   0.607   2.011   1.204
 1633SOL    HW2 5580   0.476   2.086   1.193
 1634SOL     OW 5581   0.868   2.321   0.639
 1634SOL    HW1 5582   0.824   2.376   0.574
 1634SOL    HW2 5583   0.888   2.240   0.592
 1635SOL     OW 5584   1.015   1.914   0.752
 1635SOL    HW1 5585   0.956   1.908   0.677
 1635SOL    HW2 5586   0.993   1.839   0.806
 1636SOL     OW 5587   1.436   3.025   0.857
 1636SOL    HW1 5588   1.368   2.958   0.856
 1636SOL    HW2 5589   1.459   3.037   0.765
 1637SOL     OW 5590   1.466   2.466   0.977
 1637SOL    HW1 5591   1.416   2.384   0.981
 1637SOL    HW2 5592   1.526   2.461   1.052
 1638SOL     OW 5593   1.848   2.677   0.379
 1638SOL    HW1 5594   1.901   2.624   0.439
 1638SOL    HW2 5595   1.815   2.614   0.314
 1639SOL     OW 5596   0.495   3.241   0.167
 1639SOL    HW1 5597   0.418   3.221   0.220
 1639SOL    HW2 5598   0.459   3.279   0.087
 1640SOL     OW 5599   1.670   3.126   0.647
 1640SOL    HW1 5600   1.765   3.131   0.660
 1640SOL    HW2 5601   1.639   3.215   0.665
 1641SOL     OW 5602   1.419   2.445   0.087
 1641SOL    HW1 5603   1.350   2.436   0.152
 1641SOL    HW2 5604   1.464   2.361   0.087
 1642SOL     OW 5605   0.528   2.121   0.324
 1642SOL    HW1 5606   0.579   2.085   0.251
 1642SOL    HW2 5607   0.503   2.209   0.294
 1643SOL     OW 5608   1.753   3.101   1.574
 1643SOL    HW1 5609   1.840   3.061   1.572
 1643SOL    HW2 5610   1.768   3.191   1.602
 1644SOL     OW 5611   1.059   3.214   1.333
 1644SOL    HW1 5612   0.984   3.184   1.385
 1644SOL    HW2 5613   1.135   3.174   1.375
 1645SOL     OW 5614   1.608   3.487   1.654
 1645SOL    HW1 5615   1.602   3.521   1.564
 1645SOL    HW2 5616   1.691   3.441   1.656
 1646SOL     OW 5617   1.128   3.064   1.106
 1646SOL    HW1 5618   1.070   3.103   1.171
 1646SOL    HW2 5619   1.094   3.097   1.022
 1647SOL     OW 5620   1.629   2.961   1.077
 1647SOL    HW1 5621   1.625   3.023   1.150
 1647SOL    HW2 5622   1.550   2.978   1.027
 1648SOL     OW 5623   0.918   1.959   1.397
 1648SOL    HW1 5624   0.941   1.941   1.306
 1648SOL    HW2 5625   0.997   1.999   1.434
 1649SOL     OW 5626   0.984   2.977   1.722
 1649SOL    HW1 5627   0.892   2.992   1.743
 1649SOL    HW2 5628   0.983   2.899   1.666
 1650SOL     OW 5629   0.713   2.921   0.376
 1650SOL    HW1 5630   0.699   2.905   0.469
 1650SOL    HW2 5631   0.788   2.866   0.354
 1651SOL     OW 5632   0.420   2.676   1.251
 1651SOL    HW1 5633   0.489   2.685   1.317
 1651SOL    HW2 5634   0.385   2.588   1.264
 1652SOL     OW 5635   1.266   2.239   1.275
 1652SOL    HW1 5636   1.299   2.316   1.321
 1652SOL    HW2 5637   1.176   2.261   1.251
 1653SOL     OW 5638   0.064   3.441   1.345
 1653SOL    HW1 5639   0.067   3.507   1.276
 1653SOL    HW2 5640   0.156   3.428   1.369
 1654SOL     OW 5641   0.365   2.965   0.483
 1654SOL    HW1 5642   0.362   3.044   0.428
 1654SOL    HW2 5643   0.382   2.894   0.422
 1655SOL     OW 5644   0.553   2.399   0.861
 1655SOL    HW1 5645   0.568   2.456   0.786
 1655SOL    HW2 5646   0.618   2.427   0.926
 1656SOL     OW 5647   1.248   3.208   0.397
 1656SOL    HW1 5648   1.305   3.281   0.422
 1656SOL    HW2 5649   1.161   3.232   0.429
 1657SOL     OW 5650   1.279   3.320   1.147
 1657SOL    HW1 5651   1.335   3.322   1.225
 1657SOL    HW2 5652   1.224   3.243   1.160
 1658SOL     OW 5653   1.581   2.488   0.476
 1658SOL    HW1 5654   1.535   2.539   0.543
 1658SOL    HW2 5655   1.617   2.554   0.416
 1659SOL     OW 5656   0.346   3.387   1.319
 1659SOL    HW1 5657   0.336   3.337   1.238
 1659SOL    HW2 5658   0.440   3.403   1.327
 1660SOL     OW 5659   0.413   2.602   1.601
 1660SOL    HW1 5660   0.474   2.649   1.544
 1660SOL    HW2 5661   0.454   2.518   1.618
 1661SOL     OW 5662   1.598   2.645   1.675
 1661SOL    HW1 5663   1.512   2.688   1.669
 1661SOL    HW2 5664   1.651   2.689   1.608
 1662SOL     OW 5665   0.996   1.984   1.755
 1662SOL    HW1 5666   1.051   2.057   1.727
 1662SOL    HW2 5667   1.044   1.905   1.730
 1663SOL     OW 5668   0.498   1.900   1.744
 1663SOL    HW1 5669   0.455   1.847   1.678
 1663SOL    HW2 5670   0.441   1.977   1.754
 1664SOL     OW 5671   0.583   2.735   1.031
 1664SOL    HW1 5672   0.615   2.826   1.030
 1664SOL    HW2 5673   0.528   2.730   1.109
 1665SOL     OW 5674   1.359   2.721   1.031
 1665SOL    HW1 5675   1.276   2.712   0.983
 1665SOL    HW2 5676   1.398   2.633   1.026
 1666SOL     OW 5677   1.218   2.403   0.274
 1666SOL    HW1 5678   1.221   2.322   0.325
 1666SOL    HW2 5679   1.163   2.462   0.326
 1667SOL     OW 5680   0.312   2.061   1.247
 1667SOL    HW1 5681   0.266   2.098   1.323
 1667SOL    HW2 5682   0.287   1.968   1.247
 1668SOL     OW 5683   0.057   3.166   1.280
 1668SOL    HW1 5684   0.090   3.128   1.361
 1668SOL    HW2 5685   0.050   3.260   1.299
 1669SOL     OW 5686   0.725   2.494   1.058
 1669SOL    HW1 5687   0.799   2.476   1.000
 1669SOL    HW2 5688   0.697   2.583   1.036
 1670SOL     OW 5689   1.733   2.823   1.850
 1670SOL    HW1 5690   1.687   2.760   1.794
 1670SOL    HW2 5691   1.674   2.834   1.925
 1671SOL     OW 5692   0.313   1.926   0.623
 1671SOL    HW1 5693   0.291   2.017   0.646
 1671SOL    HW2 5694   0.314   1.880   0.706
 1672SOL     OW 5695   1.620   2.238   0.381
 1672SOL    HW1 5696   1.619   2.181   0.459
 1672SOL    HW2 5697   1.593   2.324   0.414
 1673SOL     OW 5698   1.027   2.621   0.961
 1673SOL    HW1 5699   1.025   2.639   1.055
 1673SOL    HW2 5700   1.001   2.529   0.953
 1674SOL     OW 5701   0.985   3.429   1.717
 1674SOL    HW1 5702   0.967   3.472   1.633
 1674SOL    HW2 5703   1.027   3.346   1.694
 1675SOL     OW 5704   1.855   3.368   1.605
 1675SOL    HW1 5705   1.873   3.395   1.515
 1675SOL    HW2 5706   1.936   3.389   1.653
 1676SOL     OW 5707   0.351   2.782   1.802
 1676SOL    HW1 5708   0.430   2.803   1.851
 1676SOL    HW2 5709   0.379   2.716   1.738
 1677SOL     OW 5710   1.523   2.155   0.140
 1677SOL    HW1 5711   1.502   2.062   0.150
 1677SOL    HW2 5712   1.567   2.178   0.221
 1678SOL     OW 5713   1.293   2.691   0.055
 1678SOL    HW1 5714   1.341   2.608   0.060
 1678SOL    HW2 5715   1.313   2.724  13.867
 1679SOL     OW 5716   1.065   3.197   0.853
 1679SOL    HW1 5717   1.069   3.125   0.791
 1679SOL    HW2 5718   1.127   3.262   0.818
 1680SOL     OW 5719   0.314   2.667   0.950
 1680SOL    HW1 5720   0.408   2.686   0.945
 1680SOL    HW2 5721   0.309   2.578   0.984
 1681SOL     OW 5722   0.332   2.381   1.013
 1681SOL    HW1 5723   0.298   2.293   0.996
 1681SOL    HW2 5724   0.408   2.389   0.955
 1682SOL     OW 5725   1.134   2.238   1.681
 1682SOL    HW1 5726   1.088   2.294   1.744
 1682SOL    HW2 5727   1.223   2.275   1.678
 1683SOL     OW 5728   1.161   2.065   1.470
 1683SOL    HW1 5729   1.150   2.128   1.542
 1683SOL    HW2 5730   1.199   2.117   1.399
 1684SOL     OW 5731   0.009   3.188   0.186
 1684SOL    HW1 5732   3.914   3.203   0.184
 1684SOL    HW2 5733   0.018   3.098   0.218
 1685SOL     OW 5734   0.075   3.663   0.895
 1685SOL    HW1 5735   0.085   3.568   0.897
 1685SOL    HW2 5736   0.164   3.697   0.891
 1686SOL     OW 5737   0.507   3.428   0.914
 1686SOL    HW1 5738   0.574   3.493   0.935
 1686SOL    HW2 5739   0.551   3.368   0.854
 1687SOL     OW 5740   0.984   2.655   1.227
 1687SOL    HW1 5741   1.040   2.631   1.301
 1687SOL    HW2 5742   0.898   2.618   1.249
 1688SOL     OW 5743   0.038   2.416   1.110
 1688SOL    HW1 5744   0.120   2.390   1.068
 1688SOL    HW2 5745   0.057   2.414   1.204
 1689SOL     OW 5746   0.206   2.376   1.727
 1689SOL    HW1 5747   0.249   2.333   1.653
 1689SOL    HW2 5748   0.155   2.447   1.686
 1690SOL     OW 5749   1.374   2.803   1.658
 1690SOL    HW1 5750   1.397   2.896   1.657
 1690SOL    HW2 5751   1.372   2.778   1.566
 1691SOL     OW 5752   0.814   2.437   0.368
 1691SOL    HW1 5753   0.827   2.363   0.309
 1691SOL    HW2 5754   0.742   2.487   0.329
 1692SOL     OW 5755   1.643   2.464   1.186
 1692SOL    HW1 5756   1.632   2.409   1.263
 1692SOL    HW2 5757   1.729   2.441   1.152
 1693SOL     OW 5758   0.296   3.409   1.731
 1693SOL    HW1 5759   0.246   3.479   1.773
 1693SOL    HW2 5760   0.262   3.328   1.769
 1694SOL     OW 5761   0.699   2.314   1.261
 1694SOL    HW1 5762   0.649   2.239   1.229
 1694SOL    HW2 5763   0.696   2.377   1.188
 1695SOL     OW 5764   0.931   3.535   1.467
 1695SOL    HW1 5765   0.903   3.501   1.382
 1695SOL    HW2 5766   0.924   3.630   1.458
 1696SOL     OW 5767   0.441   2.358   0.235
 1696SOL    HW1 5768   0.510   2.423   0.240
 1696SOL    HW2 5769   0.366   2.405   0.198
 1697SOL     OW 5770   0.157   2.998   1.473
 1697SOL    HW1 5771   0.160   2.946   1.554
 1697SOL    HW2 5772   0.172   2.935   1.403
 1698SOL     OW 5773   1.327   2.910   1.223
 1698SOL    HW1 5774   1.350   2.846   1.155
 1698SOL    HW2 5775   1.256   2.961   1.185
 1699SOL     OW 5776   1.310   2.720   0.325
 1699SOL    HW1 5777   1.234   2.685   0.372
 1699SOL    HW2 5778   1.289   2.706   0.232
 1700SOL     OW 5779   1.768   3.607   1.148
 1700SOL    HW1 5780   1.831   3.634   1.081
 1700SOL    HW2 5781   1.747   3.516   1.126
 1701SOL     OW 5782   1.243   3.596   1.113
 1701SOL    HW1 5783   1.326   3.615   1.068
 1701SOL    HW2 5784   1.247   3.502   1.132
 1702SOL     OW 5785   0.075   3.077   1.028
 1702SOL    HW1 5786   0.082   3.104   1.119
 1702SOL    HW2 5787   3.982   3.085   1.007
 1703SOL     OW 5788   0.679   3.525   1.727
 1703SOL    HW1 5789   0.623   3.603   1.731
 1703SOL    HW2 5790   0.738   3.541   1.654
 1704SOL     OW 5791   0.919   1.966   0.133
 1704SOL    HW1 5792   0.956   1.957   0.045
 1704SOL    HW2 5793   0.968   1.904   0.187
 1705SOL     OW 5794   1.389   3.434   0.483
 1705SOL    HW1 5795   1.451   3.468   0.419
 1705SOL    HW2 5796   1.342   3.511   0.515
 1706SOL     OW 5797   0.167   3.628   1.830
 1706SOL    HW1 5798   0.110   3.577   1.888
 1706SOL    HW2 5799   0.214   3.686   1.889
 1707SOL     OW 5800   1.277   2.787   0.671
 1707SOL    HW1 5801   1.351   2.726   0.677
 1707SOL    HW2 5802   1.310   2.860   0.619
 1708SOL     OW 5803   0.815   3.135   1.431
 1708SOL    HW1 5804   0.788   3.174   1.514
 1708SOL    HW2 5805   0.745   3.156   1.370
 1709SOL     OW 5806   0.677   3.445   0.184
 1709SOL    HW1 5807   0.660   3.485   0.099
 1709SOL    HW2 5808   0.628   3.362   0.181
 1710SOL     OW 5809   1.627   3.588   1.390
 1710SOL    HW1 5810   1.677   3.594   1.309
 1710SOL    HW2 5811   1.614   3.678   1.418
 1711SOL     OW 5812   0.267   2.176   0.718
 1711SOL    HW1 5813   0.182   2.212   0.693
 1711SOL    HW2 5814   0.262   2.166   0.813
 1712SOL     OW 5815   1.219   3.463   0.032
 1712SOL    HW1 5816   1.208   3.373   0.061
 1712SOL    HW2 5817   1.177   3.466  13.846
 1713SOL     OW 5818   0.823   2.868   1.372
 1713SOL    HW1 5819   0.868   2.864   1.287
 1713SOL    HW2 5820   0.824   2.960   1.395
 1714SOL     OW 5821   0.921   2.773   0.288
 1714SOL    HW1 5822   0.991   2.810   0.234
 1714SOL    HW2 5823   0.962   2.701   0.335
 1715SOL     OW 5824   1.488   3.498   0.066
 1715SOL    HW1 5825   1.394   3.484   0.053
 1715SOL    HW2 5826   1.525   3.500  13.878
 1716SOL     OW 5827   0.373   3.164   1.491
 1716SOL    HW1 5828   0.359   3.245   1.441
 1716SOL    HW2 5829   0.296   3.111   1.474
 1717SOL     OW 5830   1.611   3.145   1.281
 1717SOL    HW1 5831   1.671   3.135   1.355
 1717SOL    HW2 5832   1.551   3.214   1.308
 1718SOL     OW 5833   1.050   2.968   0.706
 1718SOL    HW1 5834   0.980   2.916   0.746
 1718SOL    HW2 5835   1.113   2.903   0.674
 1719SOL     OW 5836   1.021   2.102   0.966
 1719SOL    HW1 5837   1.017   2.054   0.883
 1719SOL    HW2 5838   1.016   2.034   1.033
 1720SOL     OW 5839   0.604   3.350   0.482
 1720SOL    HW1 5840   0.647   3.301   0.413
 1720SOL    HW2 5841   0.536   3.400   0.437
 1721SOL     OW 5842   1.722   2.253   1.377
 1721SOL    HW1 5843   1.796   2.314   1.383
 1721SOL    HW2 5844   1.750   2.187   1.314
 1722SOL     OW 5845   0.260   3.181   0.305
 1722SOL    HW1 5846   0.184   3.212   0.257
 1722SOL    HW2 5847   0.259   3.230   0.387
 1723SOL     OW 5848   0.105   2.861   1.718
 1723SOL    HW1 5849   0.044   2.852   1.791
 1723SOL    HW2 5850   0.191   2.842   1.755
 1724SOL     OW 5851   0.674   2.058   1.499
 1724SOL    HW1 5852   0.758   2.039   1.457
 1724SOL    HW2 5853   0.697   2.089   1.587
 1725SOL     OW 5854   0.052   2.220   0.040
 1725SOL    HW1 5855   3.959   2.216   0.062
 1725SOL    HW2 5856   0.054   2.246  13.848
 1726SOL     OW 5857   1.430   2.721   1.400
 1726SOL    HW1 5858   1.382   2.782   1.344
 1726SOL    HW2 5859   1.520   2.723   1.367
 1727SOL     OW 5860   0.057   2.034   0.315
 1727SOL    HW1 5861   0.077   2.104   0.252
 1727SOL    HW2 5862   0.122   1.967   0.298
 1728SOL     OW 5863   1.185   3.211   0.123
 1728SOL    HW1 5864   1.092   3.193   0.112
 1728SOL    HW2 5865   1.202   3.197   0.216
 1729SOL     OW 5866   0.618   2.693   1.435
 1729SOL    HW1 5867   0.674   2.769   1.419
 1729SOL    HW2 5868   0.680   2.619   1.443
 1730SOL     OW 5869   1.485   3.639   0.979
 1730SOL    HW1 5870   1.510   3.693   0.903
 1730SOL    HW2 5871   1.568   3.619   1.023
 1731SOL     OW 5872   0.716   2.427   1.705
 1731SOL    HW1 5873   0.757   2.490   1.765
 1731SOL    HW2 5874   0.747   2.341   1.736
 1732SOL     OW 5875   1.471   3.063   1.632
 1732SOL    HW1 5876   1.459   3.076   1.726
 1732SOL    HW2 5877   1.564   3.077   1.618
 1733SOL     OW 5878   0.379   3.605   1.559
 1733SOL    HW1 5879   0.292   3.641   1.545
 1733SOL    HW2 5880   0.365   3.523   1.606
 1734SOL     OW 5881   1.671   2.744   1.254
 1734SOL    HW1 5882   1.662   2.659   1.212
 1734SOL    HW2 5883   1.660   2.807   1.183
 1735SOL     OW 5884   1.217   2.182   0.456
 1735SOL    HW1 5885   1.282   2.112   0.448
 1735SOL    HW2 5886   1.245   2.231   0.533
 1736SOL     OW 5887   0.590   2.601   0.670
 1736SOL    HW1 5888   0.629   2.687   0.654
 1736SOL    HW2 5889   0.521   2.592   0.603
 1737SOL     OW 5890   1.758   2.236   1.655
 1737SOL    HW1 5891   1.749   2.242   1.560
 1737SOL    HW2 5892   1.688   2.178   1.682
 1738SOL     OW 5893   1.746   2.798   1.510
 1738SOL    HW1 5894   1.743   2.893   1.523
 1738SOL    HW2 5895   1.730   2.787   1.416
 1739SOL     OW 5896   0.904   3.259   0.058
 1739SOL    HW1 5897   0.833   3.243   0.120
 1739SOL    HW2 5898   0.860   3.274  13.874
 1740SOL     OW 5899   0.658   3.653   0.941
 1740SOL    HW1 5900   0.636   3.744   0.920
 1740SOL    HW2 5901   0.754   3.651   0.937
 1741SOL     OW 5902   0.867   2.827   0.855
 1741SOL    HW1 5903   0.918   2.757   0.895
 1741SOL    HW2 5904   0.833   2.878   0.929
 1742SOL     OW 5905   1.098   2.868   0.107
 1742SOL    HW1 5906   1.087   2.915   0.025
 1742SOL    HW2 5907   1.173   2.810   0.092
 1743SOL     OW 5908   1.855   3.415   0.843
 1743SOL    HW1 5909   1.776   3.406   0.790
 1743SOL    HW2 5910   1.843   3.351   0.914
 1744SOL     OW 5911   0.223   3.166   1.855
 1744SOL    HW1 5912   0.152   3.107   1.830
 1744SOL    HW2 5913   0.212   3.179   1.949
 1745SOL     OW 5914   0.105   3.136   0.721
 1745SOL    HW1 5915   0.120   3.085   0.801
 1745SOL    HW2 5916   0.110   3.071   0.651
 1746SOL     OW 5917   0.680   3.264   1.628
 1746SOL    HW1 5918   0.600   3.222   1.657
 1746SOL    HW2 5919   0.676   3.352   1.664
 1747SOL     OW 5920   0.437   2.296   0.534
 1747SOL    HW1 5921   0.462   2.224   0.477
 1747SOL    HW2 5922   0.384   2.255   0.603
 1748SOL     OW 5923   1.701   3.351   1.096
 1748SOL    HW1 5924   1.620   3.327   1.052
 1748SOL    HW2 5925   1.714   3.283   1.162
 1749SOL     OW 5926   0.331   2.416   1.291
 1749SOL    HW1 5927   0.387   2.360   1.346
 1749SOL    HW2 5928   0.348   2.386   1.201
 1750SOL     OW 5929   0.826   3.440   0.678
 1750SOL    HW1 5930   0.818   3.490   0.596
 1750SOL    HW2 5931   0.750   3.383   0.680
 1751SOL     OW 5932   1.437   2.090   1.119
 1751SOL    HW1 5933   1.453   2.004   1.159
 1751SOL    HW2 5934   1.382   2.136   1.182
 1752SOL     OW 5935   1.009   1.881   1.143
 1752SOL    HW1 5936   0.955   1.812   1.104
 1752SOL    HW2 5937   1.097   1.844   1.145
 1753SOL     OW 5938   0.773   3.185   0.319
 1753SOL    HW1 5939   0.741   3.096   0.333
 1753SOL    HW2 5940   0.858   3.188   0.363
 1754SOL     OW 5941   0.620   3.418   1.284
 1754SOL    HW1 5942   0.622   3.499   1.335
 1754SOL    HW2 5943   0.707   3.411   1.246
 1755SOL     OW 5944   1.346   1.923   0.165
 1755SOL    HW1 5945   1.376   1.871   0.090
 1755SOL    HW2 5946   1.263   1.882   0.190
 1756SOL     OW 5947   1.297   2.322   0.681
 1756SOL    HW1 5948   1.244   2.401   0.689
 1756SOL    HW2 5949   1.294   2.282   0.768
 1757SOL     OW 5950   1.575   2.058   0.869
 1757SOL    HW1 5951   1.534   2.082   0.952
 1757SOL    HW2 5952   1.589   2.142   0.825
 1758SOL     OW 5953   0.040   2.899   0.253
 1758SOL    HW1 5954   0.135   2.887   0.249
 1758SOL    HW2 5955   0.009   2.827   0.308
 1759SOL     OW 5956   0.890   3.516   0.346
 1759SOL    HW1 5957   0.818   3.486   0.291
 1759SOL    HW2 5958   0.855   3.593   0.392
 1760SOL     OW 5959   0.231   2.483   1.983
 1760SOL    HW1 5960   0.138   2.493   2.003
 1760SOL    HW2 5961   0.233   2.454   1.892
 1761SOL     OW 5962   0.228   2.133   2.849
 1761SOL    HW1 5963   0.249   2.101   2.937
 1761SOL    HW2 5964   0.133   2.124   2.842
 1762SOL     OW 5965   0.012   2.225   2.495
 1762SOL    HW1 5966   3.926   2.243   2.532
 1762SOL    HW2 5967   3.994   2.188   2.408
 1763SOL     OW 5968   0.576   3.144   3.045
 1763SOL    HW1 5969   0.490   3.149   3.004
 1763SOL    HW2 5970   0.592   3.232   3.079
 1764SOL     OW 5971   1.559   3.373   2.569
 1764SOL    HW1 5972   1.517   3.353   2.652
 1764SOL    HW2 5973   1.488   3.377   2.506
 1765SOL     OW 5974   1.130   2.560   2.564
 1765SOL    HW1 5975   1.180   2.641   2.549
 1765SOL    HW2 5976   1.084   2.575   2.646
 1766SOL     OW 5977   1.752   2.476   2.095
 1766SOL    HW1 5978   1.740   2.469   2.000
 1766SOL    HW2 5979   1.747   2.386   2.126
 1767SOL     OW 5980   0.757   3.004   2.900
 1767SOL    HW1 5981   0.691   3.037   2.960
 1767SOL    HW2 5982   0.792   3.082   2.856
 1768SOL     OW 5983   0.864   2.639   3.683
 1768SOL    HW1 5984   0.856   2.710   3.746
 1768SOL    HW2 5985   0.888   2.682   3.601
 1769SOL     OW 5986   0.686   2.867   2.510
 1769SOL    HW1 5987   0.751   2.853   2.579
 1769SOL    HW2 5988   0.616   2.917   2.552
 1770SOL     OW 5989   0.709   3.012   3.674
 1770SOL    HW1 5990   0.757   3.091   3.700
 1770SOL    HW2 5991   0.627   3.045   3.639
 1771SOL     OW 5992   0.351   3.265   2.940
 1771SOL    HW1 5993   0.268   3.251   2.894
 1771SOL    HW2 5994   0.400   3.324   2.884
 1772SOL     OW 5995   1.461   3.361   3.215
 1772SOL    HW1 5996   1.511   3.442   3.225
 1772SOL    HW2 5997   1.400   3.360   3.289
 1773SOL     OW 5998   0.450   2.263   3.353
 1773SOL    HW1 5999   0.524   2.203   3.355
 1773SOL    HW2 6000   0.373   2.207   3.364
 1774SOL     OW 6001   1.610   2.307   2.598
 1774SOL    HW1 6002   1.531   2.333   2.549
 1774SOL    HW2 6003   1.631   2.384   2.651
 1775SOL     OW 6004   0.225   3.571   2.329
 1775SOL    HW1 6005   0.231   3.651   2.381
 1775SOL    HW2 6006   0.302   3.575   2.271
 1776SOL     OW 6007   1.136   3.203   3.554
 1776SOL    HW1 6008   1.177   3.198   3.641
 1776SOL    HW2 6009   1.084   3.123   3.548
 1777SOL     OW 6010   0.246   3.305   2.401
 1777SOL    HW1 6011   0.219   3.396   2.389
 1777SOL    HW2 6012   0.176   3.267   2.455
 1778SOL     OW 6013   0.246   2.932   2.746
 1778SOL    HW1 6014   0.264   2.848   2.789
 1778SOL    HW2 6015   0.194   2.980   2.810
 1779SOL     OW 6016   0.613   3.649   3.292
 1779SOL    HW1 6017   0.531   3.634   3.337
 1779SOL    HW2 6018   0.639   3.738   3.316
 1780SOL     OW 6019   0.582   2.845   1.997
 1780SOL    HW1 6020   0.628   2.893   1.928
 1780SOL    HW2 6021   0.625   2.874   2.078
 1781SOL     OW 6022   1.597   1.989   3.328
 1781SOL    HW1 6023   1.582   2.072   3.283
 1781SOL    HW2 6024   1.588   2.010   3.421
 1782SOL     OW 6025   0.141   2.510   2.436
 1782SOL    HW1 6026   0.086   2.431   2.437
 1782SOL    HW2 6027   0.105   2.565   2.505
 1783SOL     OW 6028   1.841   3.614   2.200
 1783SOL    HW1 6029   1.906   3.589   2.266
 1783SOL    HW2 6030   1.864   3.704   2.177
 1784SOL     OW 6031   0.041   3.455   2.002
 1784SOL    HW1 6032   0.031   3.362   2.024
 1784SOL    HW2 6033   3.963   3.496   2.039
 1785SOL     OW 6034   1.690   2.781   2.502
 1785SOL    HW1 6035   1.772   2.738   2.480
 1785SOL    HW2 6036   1.667   2.831   2.423
 1786SOL     OW 6037   1.645   2.969   2.291
 1786SOL    HW1 6038   1.731   2.975   2.249
 1786SOL    HW2 6039   1.651   3.030   2.365
 1787SOL     OW 6040   0.134   2.613   3.452
 1787SOL    HW1 6041   0.230   2.608   3.456
 1787SOL    HW2 6042   0.115   2.705   3.471
 1788SOL     OW 6043   0.614   3.246   2.596
 1788SOL    HW1 6044   0.567   3.163   2.606
 1788SOL    HW2 6045   0.596   3.272   2.506
 1789SOL     OW 6046   1.289   3.100   3.286
 1789SOL    HW1 6047   1.322   3.033   3.226
 1789SOL    HW2 6048   1.346   3.094   3.362
 1790SOL     OW 6049   0.816   1.861   2.370
 1790SOL    HW1 6050   0.856   1.946   2.352
 1790SOL    HW2 6051   0.722   1.880   2.378
 1791SOL     OW 6052   0.186   2.816   3.138
 1791SOL    HW1 6053   0.274   2.781   3.124
 1791SOL    HW2 6054   0.131   2.772   3.073
 1792SOL     OW 6055   1.531   2.856   2.060
 1792SOL    HW1 6056   1.462   2.797   2.090
 1792SOL    HW2 6057   1.572   2.889   2.139
 1793SOL     OW 6058   1.210   3.664   3.487
 1793SOL    HW1 6059   1.195   3.724   3.414
 1793SOL    HW2 6060   1.213   3.577   3.447
 1794SOL     OW 6061   0.338   2.109   3.674
 1794SOL    HW1 6062   0.379   2.195   3.682
 1794SOL    HW2 6063   0.247   2.123   3.700
 1795SOL     OW 6064   1.465   3.282   2.814
 1795SOL    HW1 6065   1.398   3.296   2.880
 1795SOL    HW2 6066   1.454   3.191   2.787
 1796SOL     OW 6067   1.657   3.598   2.442
 1796SOL    HW1 6068   1.640   3.568   2.352
 1796SOL    HW2 6069   1.632   3.524   2.497
 1797SOL     OW 6070   0.596   2.581   2.125
 1797SOL    HW1 6071   0.604   2.664   2.078
 1797SOL    HW2 6072   0.533   2.599   2.195
 1798SOL     OW 6073   1.279   2.216   2.796
 1798SOL    HW1 6074   1.191   2.180   2.805
 1798SOL    HW2 6075   1.333   2.161   2.853
 1799SOL     OW 6076   1.578   3.535   2.170
 1799SOL    HW1 6077   1.670   3.563   2.165
 1799SOL    HW2 6078   1.554   3.515   2.080
 1800SOL     OW 6079   0.792   2.479   3.314
 1800SOL    HW1 6080   0.765   2.456   3.403
 1800SOL    HW2 6081   0.751   2.413   3.259
 1801SOL     OW 6082   1.393   2.335   3.539
 1801SOL    HW1 6083   1.395   2.381   3.623
 1801SOL    HW2 6084   1.459   2.266   3.549
 1802SOL     OW 6085   0.955   2.750   3.444
 1802SOL    HW1 6086   1.010   2.679   3.409
 1802SOL    HW2 6087   0.908   2.783   3.368
 1803SOL     OW 6088   0.992   2.274   3.101
 1803SOL    HW1 6089   0.907   2.297   3.139
 1803SOL    HW2 6090   0.971   2.228   3.020
 1804SOL     OW 6091   1.051   2.561   2.288
 1804SOL    HW1 6092   1.066   2.554   2.383
 1804SOL    HW2 6093   0.969   2.513   2.274
 1805SOL     OW 6094   0.082   2.686   2.652
 1805SOL    HW1 6095   0.161   2.658   2.699
 1805SOL    HW2 6096   0.092   2.781   2.644
 1806SOL     OW 6097   0.128   3.712   3.436
 1806SOL    HW1 6098   0.134   3.681   3.526
 1806SOL    HW2 6099   0.035   3.701   3.413
 1807SOL     OW 6100   0.891   2.210   2.054
 1807SOL    HW1 6101   0.934   2.272   1.995
 1807SOL    HW2 6102   0.911   2.124   2.018
 1808SOL     OW 6103   1.679   2.447   3.694
 1808SOL    HW1 6104   1.653   2.517   3.635
 1808SOL    HW2 6105   1.727   2.385   3.639
 1809SOL     OW 6106   1.376   3.004   2.404
 1809SOL    HW1 6107   1.455   2.990   2.351
 1809SOL    HW2 6108   1.324   3.066   2.353
 1810SOL     OW 6109   0.546   2.042   2.755
 1810SOL    HW1 6110   0.552   2.073   2.845
 1810SOL    HW2 6111   0.548   2.122   2.702
 1811SOL     OW 6112   1.007   3.308   2.334
 1811SOL    HW1 6113   0.967   3.380   2.286
 1811SOL    HW2 6114   0.990   3.328   2.426
 1812SOL     OW 6115   0.359   3.668   2.719
 1812SOL    HW1 6116   0.434   3.610   2.729
 1812SOL    HW2 6117   0.394   3.756   2.729
 1813SOL     OW 6118   1.799   2.919   2.729
 1813SOL    HW1 6119   1.744   2.902   2.653
 1813SOL    HW2 6120   1.737   2.925   2.802
 1814SOL     OW 6121   1.228   3.399   3.373
 1814SOL    HW1 6122   1.214   3.327   3.434
 1814SOL    HW2 6123   1.163   3.385   3.304
 1815SOL     OW 6124   0.311   2.817   2.104
 1815SOL    HW1 6125   0.395   2.840   2.066
 1815SOL    HW2 6126   0.296   2.726   2.078
 1816SOL     OW 6127   1.477   2.604   2.590
 1816SOL    HW1 6128   1.469   2.559   2.674
 1816SOL    HW2 6129   1.555   2.658   2.599
 1817SOL     OW 6130   0.465   3.121   3.599
 1817SOL    HW1 6131   0.439   3.130   3.507
 1817SOL    HW2 6132   0.383   3.127   3.648
 1818SOL     OW 6133   1.113   3.642   2.086
 1818SOL    HW1 6134   1.051   3.594   2.141
 1818SOL    HW2 6135   1.142   3.578   2.021
 1819SOL     OW 6136   0.204   2.142   3.369
 1819SOL    HW1 6137   0.114   2.173   3.358
 1819SOL    HW2 6138   0.196   2.059   3.416
 1820SOL     OW 6139   1.628   3.242   1.950
 1820SOL    HW1 6140   1.588   3.327   1.933
 1820SOL    HW2 6141   1.559   3.178   1.931
 1821SOL     OW 6142   0.469   3.599   2.183
 1821SOL    HW1 6143   0.506   3.663   2.244
 1821SOL    HW2 6144   0.542   3.573   2.128
 1822SOL     OW 6145   1.397   1.969   2.292
 1822SOL    HW1 6146   1.381   1.946   2.200
 1822SOL    HW2 6147   1.492   1.961   2.302
 1823SOL     OW 6148   0.251   3.656   3.092
 1823SOL    HW1 6149   0.298   3.592   3.146
 1823SOL    HW2 6150   0.247   3.616   3.005
 1824SOL     OW 6151   0.937   3.561   2.763
 1824SOL    HW1 6152   1.015   3.508   2.784
 1824SOL    HW2 6153   0.892   3.512   2.695
 1825SOL     OW 6154   0.395   2.556   2.335
 1825SOL    HW1 6155   0.423   2.465   2.348
 1825SOL    HW2 6156   0.304   2.557   2.361
 1826SOL     OW 6157   1.538   2.086   3.587
 1826SOL    HW1 6158   1.548   2.108   3.679
 1826SOL    HW2 6159   1.467   2.022   3.585
 1827SOL     OW 6160   0.632   1.983   1.963
 1827SOL    HW1 6161   0.703   1.920   1.979
 1827SOL    HW2 6162   0.587   1.950   1.885
 1828SOL     OW 6163   0.766   2.139   3.615
 1828SOL    HW1 6164   0.842   2.080   3.618
 1828SOL    HW2 6165   0.719   2.121   3.696
 1829SOL     OW 6166   0.876   3.382   3.056
 1829SOL    HW1 6167   0.861   3.347   2.968
 1829SOL    HW2 6168   0.946   3.328   3.092
 1830SOL     OW 6169   1.342   2.450   3.294
 1830SOL    HW1 6170   1.371   2.419   3.379
 1830SOL    HW2 6171   1.377   2.539   3.287
 1831SOL     OW 6172   0.814   3.258   2.800
 1831SOL    HW1 6173   0.899   3.246   2.756
 1831SOL    HW2 6174   0.751   3.257   2.728
 1832SOL     OW 6175   0.927   2.371   2.765
 1832SOL    HW1 6176   0.905   2.363   2.673
 1832SOL    HW2 6177   0.960   2.285   2.790
 1833SOL     OW 6178   0.552   1.924   2.361
 1833SOL    HW1 6179   0.470   1.929   2.410
 1833SOL    HW2 6180   0.557   2.007   2.313
 1834SOL     OW 6181   1.428   3.060   1.903
 1834SOL    HW1 6182   1.459   2.985   1.952
 1834SOL    HW2 6183   1.342   3.080   1.940
 1835SOL     OW 6184   0.306   1.912   2.032
 1835SOL    HW1 6185   0.372   1.953   1.976
 1835SOL    HW2 6186   0.354   1.847   2.083
 1836SOL     OW 6187   0.938   2.107   2.324
 1836SOL    HW1 6188   0.907   2.149   2.244
 1836SOL    HW2 6189   1.032   2.123   2.325
 1837SOL     OW 6190   1.080   2.542   3.321
 1837SOL    HW1 6191   1.011   2.476   3.327
 1837SOL    HW2 6192   1.161   2.492   3.315
 1838SOL     OW 6193   1.224   3.431   2.655
 1838SOL    HW1 6194   1.241   3.500   2.590
 1838SOL    HW2 6195   1.292   3.444   2.722
 1839SOL     OW 6196   0.466   3.011   2.600
 1839SOL    HW1 6197   0.393   2.989   2.658
 1839SOL    HW2 6198   0.433   2.995   2.512
 1840SOL     OW 6199   1.269   3.658   2.467
 1840SOL    HW1 6200   1.314   3.722   2.412
 1840SOL    HW2 6201   1.199   3.708   2.510
 1841SOL     OW 6202   1.024   2.404   1.884
 1841SOL    HW1 6203   0.982   2.488   1.864
 1841SOL    HW2 6204   1.091   2.425   1.950
 1842SOL     OW 6205   0.080   2.433   3.252
 1842SOL    HW1 6206   0.170   2.419   3.221
 1842SOL    HW2 6207   0.087   2.502   3.318
 1843SOL     OW 6208   0.567   2.089   3.025
 1843SOL    HW1 6209   0.607   2.011   3.065
 1843SOL    HW2 6210   0.476   2.087   3.055
 1844SOL     OW 6211   0.868   2.321   2.502
 1844SOL    HW1 6212   0.820   2.374   2.439
 1844SOL    HW2 6213   0.888   2.240   2.455
 1845SOL     OW 6214   1.015   1.915   2.614
 1845SOL    HW1 6215   0.957   1.908   2.539
 1845SOL    HW2 6216   0.993   1.839   2.668
 1846SOL     OW 6217   1.436   3.025   2.719
 1846SOL    HW1 6218   1.368   2.958   2.718
 1846SOL    HW2 6219   1.460   3.036   2.627
 1847SOL     OW 6220   1.466   2.466   2.840
 1847SOL    HW1 6221   1.416   2.385   2.843
 1847SOL    HW2 6222   1.526   2.461   2.914
 1848SOL     OW 6223   1.846   2.680   2.245
 1848SOL    HW1 6224   1.904   2.628   2.301
 1848SOL    HW2 6225   1.814   2.619   2.179
 1849SOL     OW 6226   0.490   3.277   2.023
 1849SOL    HW1 6227   0.414   3.247   2.074
 1849SOL    HW2 6228   0.467   3.257   1.932
 1850SOL     OW 6229   1.670   3.127   2.509
 1850SOL    HW1 6230   1.765   3.130   2.522
 1850SOL    HW2 6231   1.639   3.215   2.530
 1851SOL     OW 6232   1.392   2.436   1.931
 1851SOL    HW1 6233   1.338   2.413   2.006
 1851SOL    HW2 6234   1.481   2.414   1.958
 1852SOL     OW 6235   0.573   2.131   2.186
 1852SOL    HW1 6236   0.598   2.081   2.108
 1852SOL    HW2 6237   0.540   2.214   2.151
 1853SOL     OW 6238   1.753   3.101   3.436
 1853SOL    HW1 6239   1.840   3.061   3.434
 1853SOL    HW2 6240   1.768   3.191   3.464
 1854SOL     OW 6241   1.059   3.215   3.195
 1854SOL    HW1 6242   0.984   3.184   3.247
 1854SOL    HW2 6243   1.135   3.174   3.237
 1855SOL     OW 6244   1.608   3.487   3.516
 1855SOL    HW1 6245   1.602   3.521   3.426
 1855SOL    HW2 6246   1.691   3.441   3.518
 1856SOL     OW 6247   1.128   3.065   2.968
 1856SOL    HW1 6248   1.070   3.103   3.033
 1856SOL    HW2 6249   1.094   3.096   2.884
 1857SOL     OW 6250   1.629   2.961   2.939
 1857SOL    HW1 6251   1.625   3.023   3.012
 1857SOL    HW2 6252   1.549   2.977   2.889
 1858SOL     OW 6253   0.918   1.959   3.259
 1858SOL    HW1 6254   0.941   1.940   3.168
 1858SOL    HW2 6255   0.997   1.999   3.296
 1859SOL     OW 6256   0.984   2.977   3.584
 1859SOL    HW1 6257   0.892   2.992   3.605
 1859SOL    HW2 6258   0.983   2.899   3.528
 1860SOL     OW 6259   0.707   2.922   2.233
 1860SOL    HW1 6260   0.694   2.907   2.327
 1860SOL    HW2 6261   0.784   2.869   2.211
 1861SOL     OW 6262   0.420   2.677   3.114
 1861SOL    HW1 6263   0.489   2.685   3.180
 1861SOL    HW2 6264   0.385   2.588   3.126
 1862SOL     OW 6265   1.266   2.239   3.137
 1862SOL    HW1 6266   1.299   2.316   3.183
 1862SOL    HW2 6267   1.176   2.261   3.113
 1863SOL     OW 6268   0.064   3.441   3.207
 1863SOL    HW1 6269   0.067   3.508   3.139
 1863SOL    HW2 6270   0.156   3.428   3.231
 1864SOL     OW 6271   0.374   2.964   2.348
 1864SOL    HW1 6272   0.368   3.043   2.293
 1864SOL    HW2 6273   0.373   2.891   2.285
 1865SOL     OW 6274   0.553   2.400   2.724
 1865SOL    HW1 6275   0.568   2.456   2.648
 1865SOL    HW2 6276   0.618   2.427   2.788
 1866SOL     OW 6277   1.248   3.210   2.251
 1866SOL    HW1 6278   1.304   3.282   2.282
 1866SOL    HW2 6279   1.161   3.231   2.285
 1867SOL     OW 6280   1.280   3.319   3.009
 1867SOL    HW1 6281   1.335   3.322   3.086
 1867SOL    HW2 6282   1.224   3.242   3.021
 1868SOL     OW 6283   1.579   2.483   2.338
 1868SOL    HW1 6284   1.537   2.543   2.400
 1868SOL    HW2 6285   1.626   2.541   2.278
 1869SOL     OW 6286   0.346   3.387   3.181
 1869SOL    HW1 6287   0.336   3.338   3.100
 1869SOL    HW2 6288   0.440   3.403   3.189
 1870SOL     OW 6289   0.413   2.602   3.463
 1870SOL    HW1 6290   0.474   2.649   3.406
 1870SOL    HW2 6291   0.454   2.518   3.480
 1871SOL     OW 6292   1.598   2.646   3.536
 1871SOL    HW1 6293   1.512   2.688   3.531
 1871SOL    HW2 6294   1.651   2.689   3.470
 1872SOL     OW 6295   0.996   1.984   3.617
 1872SOL    HW1 6296   1.051   2.057   3.589
 1872SOL    HW2 6297   1.044   1.905   3.592
 1873SOL     OW 6298   0.498   1.900   3.606
 1873SOL    HW1 6299   0.455   1.847   3.540
 1873SOL    HW2 6300   0.441   1.977   3.616
 1874SOL     OW 6301   0.584   2.735   2.893
 1874SOL    HW1 6302   0.615   2.826   2.892
 1874SOL    HW2 6303   0.528   2.730   2.971
 1875SOL     OW 6304   1.359   2.721   2.893
 1875SOL    HW1 6305   1.276   2.712   2.845
 1875SOL    HW2 6306   1.398   2.634   2.888
 1876SOL     OW 6307   1.206   2.390   2.130
 1876SOL    HW1 6308   1.213   2.312   2.185
 1876SOL    HW2 6309   1.163   2.455   2.186
 1877SOL     OW 6310   0.312   2.061   3.109
 1877SOL    HW1 6311   0.266   2.098   3.185
 1877SOL    HW2 6312   0.286   1.968   3.109
 1878SOL     OW 6313   0.057   3.167   3.142
 1878SOL    HW1 6314   0.090   3.128   3.223
 1878SOL    HW2 6315   0.051   3.260   3.161
 1879SOL     OW 6316   0.725   2.494   2.921
 1879SOL    HW1 6317   0.799   2.477   2.863
 1879SOL    HW2 6318   0.698   2.583   2.898
 1880SOL     OW 6319   1.733   2.823   3.712
 1880SOL    HW1 6320   1.688   2.760   3.656
 1880SOL    HW2 6321   1.674   2.834   3.787
 1881SOL     OW 6322   0.311   1.926   2.483
 1881SOL    HW1 6323   0.292   2.017   2.505
 1881SOL    HW2 6324   0.315   1.881   2.568
 1882SOL     OW 6325   1.608   2.233   2.237
 1882SOL    HW1 6326   1.623   2.184   2.318
 1882SOL    HW2 6327   1.588   2.322   2.267
 1883SOL     OW 6328   1.027   2.621   2.823
 1883SOL    HW1 6329   1.025   2.639   2.917
 1883SOL    HW2 6330   1.001   2.530   2.815
 1884SOL     OW 6331   0.985   3.429   3.579
 1884SOL    HW1 6332   0.967   3.472   3.495
 1884SOL    HW2 6333   1.027   3.346   3.556
 1885SOL     OW 6334   1.855   3.368   3.467
 1885SOL    HW1 6335   1.873   3.395   3.377
 1885SOL    HW2 6336   1.936   3.389   3.515
 1886SOL     OW 6337   0.351   2.782   3.664
 1886SOL    HW1 6338   0.430   2.803   3.713
 1886SOL    HW2 6339   0.379   2.716   3.600
 1887SOL     OW 6340   1.531   2.132   1.990
 1887SOL    HW1 6341   1.463   2.070   2.018
 1887SOL    HW2 6342   1.562   2.172   2.071
 1888SOL     OW 6343   1.292   2.689   1.894
 1888SOL    HW1 6344   1.334   2.603   1.897
 1888SOL    HW2 6345   1.324   2.728   1.812
 1889SOL     OW 6346   1.065   3.198   2.715
 1889SOL    HW1 6347   1.068   3.125   2.653
 1889SOL    HW2 6348   1.127   3.261   2.681
 1890SOL     OW 6349   0.314   2.667   2.812
 1890SOL    HW1 6350   0.408   2.685   2.806
 1890SOL    HW2 6351   0.309   2.578   2.846
 1891SOL     OW 6352   0.332   2.381   2.875
 1891SOL    HW1 6353   0.297   2.293   2.857
 1891SOL    HW2 6354   0.408   2.389   2.817
 1892SOL     OW 6355   1.134   2.238   3.543
 1892SOL    HW1 6356   1.088   2.294   3.606
 1892SOL    HW2 6357   1.223   2.275   3.540
 1893SOL     OW 6358   1.161   2.065   3.332
 1893SOL    HW1 6359   1.150   2.128   3.404
 1893SOL    HW2 6360   1.199   2.117   3.261
 1894SOL     OW 6361   3.999   3.183   2.044
 1894SOL    HW1 6362   3.905   3.198   2.048
 1894SOL    HW2 6363   0.009   3.089   2.063
 1895SOL     OW 6364   0.075   3.663   2.756
 1895SOL    HW1 6365   0.085   3.568   2.760
 1895SOL    HW2 6366   0.165   3.696   2.753
 1896SOL     OW 6367   0.507   3.428   2.776
 1896SOL    HW1 6368   0.574   3.493   2.797
 1896SOL    HW2 6369   0.551   3.367   2.716
 1897SOL     OW 6370   0.984   2.655   3.089
 1897SOL    HW1 6371   1.040   2.631   3.163
 1897SOL    HW2 6372   0.899   2.618   3.110
 1898SOL     OW 6373   0.037   2.416   2.972
 1898SOL    HW1 6374   0.120   2.391   2.930
 1898SOL    HW2 6375   0.057   2.414   3.066
 1899SOL     OW 6376   0.206   2.376   3.589
 1899SOL    HW1 6377   0.249   2.333   3.515
 1899SOL    HW2 6378   0.155   2.447   3.548
 1900SOL     OW 6379   1.374   2.803   3.520
 1900SOL    HW1 6380   1.396   2.896   3.518
 1900SOL    HW2 6381   1.372   2.778   3.428
 1901SOL     OW 6382   0.817   2.431   2.220
 1901SOL    HW1 6383   0.820   2.355   2.161
 1901SOL    HW2 6384   0.743   2.482   2.188
 1902SOL     OW 6385   1.643   2.464   3.048
 1902SOL    HW1 6386   1.632   2.409   3.125
 1902SOL    HW2 6387   1.729   2.441   3.014
 1903SOL     OW 6388   0.296   3.409   3.593
 1903SOL    HW1 6389   0.246   3.479   3.635
 1903SOL    HW2 6390   0.262   3.328   3.631
 1904SOL     OW 6391   0.699   2.314   3.123
 1904SOL    HW1 6392   0.649   2.239   3.091
 1904SOL    HW2 6393   0.696   2.377   3.050
 1905SOL     OW 6394   0.931   3.535   3.329
 1905SOL    HW1 6395   0.903   3.501   3.244
 1905SOL    HW2 6396   0.924   3.631   3.320
 1906SOL     OW 6397   0.460   2.353   2.054
 1906SOL    HW1 6398   0.524   2.421   2.073
 1906SOL    HW2 6399   0.379   2.400   2.035
 1907SOL     OW 6400   0.157   2.998   3.335
 1907SOL    HW1 6401   0.160   2.947   3.416
 1907SOL    HW2 6402   0.172   2.935   3.265
 1908SOL     OW 6403   1.327   2.910   3.085
 1908SOL    HW1 6404   1.350   2.846   3.017
 1908SOL    HW2 6405   1.256   2.961   3.047
 1909SOL     OW 6406   1.310   2.719   2.169
 1909SOL    HW1 6407   1.234   2.688   2.218
 1909SOL    HW2 6408   1.286   2.705   2.077
 1910SOL     OW 6409   1.768   3.607   3.010
 1910SOL    HW1 6410   1.831   3.634   2.943
 1910SOL    HW2 6411   1.747   3.516   2.988
 1911SOL     OW 6412   1.243   3.596   2.975
 1911SOL    HW1 6413   1.326   3.615   2.930
 1911SOL    HW2 6414   1.247   3.502   2.994
 1912SOL     OW 6415   0.075   3.078   2.889
 1912SOL    HW1 6416   0.082   3.104   2.981
 1912SOL    HW2 6417   3.982   3.086   2.869
 1913SOL     OW 6418   0.679   3.525   3.589
 1913SOL    HW1 6419   0.623   3.603   3.593
 1913SOL    HW2 6420   0.738   3.541   3.516
 1914SOL     OW 6421   1.390   3.431   2.346
 1914SOL    HW1 6422   1.450   3.463   2.279
 1914SOL    HW2 6423   1.343   3.509   2.376
 1915SOL     OW 6424   0.167   3.628   3.692
 1915SOL    HW1 6425   0.110   3.577   3.750
 1915SOL    HW2 6426   0.214   3.686   3.751
 1916SOL     OW 6427   1.277   2.787   2.533
 1916SOL    HW1 6428   1.350   2.726   2.540
 1916SOL    HW2 6429   1.311   2.860   2.481
 1917SOL     OW 6430   0.816   3.135   3.293
 1917SOL    HW1 6431   0.788   3.174   3.376
 1917SOL    HW2 6432   0.745   3.155   3.232
 1918SOL     OW 6433   0.675   3.476   2.019
 1918SOL    HW1 6434   0.682   3.492   1.925
 1918SOL    HW2 6435   0.618   3.400   2.026
 1919SOL     OW 6436   1.627   3.588   3.252
 1919SOL    HW1 6437   1.677   3.594   3.171
 1919SOL    HW2 6438   1.614   3.678   3.280
 1920SOL     OW 6439   0.268   2.177   2.580
 1920SOL    HW1 6440   0.183   2.212   2.553
 1920SOL    HW2 6441   0.262   2.166   2.674
 1921SOL     OW 6442   1.207   3.468   1.897
 1921SOL    HW1 6443   1.197   3.376   1.921
 1921SOL    HW2 6444   1.146   3.481   1.824
 1922SOL     OW 6445   0.823   2.868   3.234
 1922SOL    HW1 6446   0.868   2.863   3.149
 1922SOL    HW2 6447   0.824   2.960   3.257
 1923SOL     OW 6448   0.915   2.772   2.152
 1923SOL    HW1 6449   0.977   2.804   2.085
 1923SOL    HW2 6450   0.963   2.702   2.197
 1924SOL     OW 6451   1.491   3.489   1.904
 1924SOL    HW1 6452   1.397   3.480   1.888
 1924SOL    HW2 6453   1.529   3.494   1.816
 1925SOL     OW 6454   0.373   3.164   3.353
 1925SOL    HW1 6455   0.359   3.245   3.303
 1925SOL    HW2 6456   0.296   3.111   3.336
 1926SOL     OW 6457   1.611   3.145   3.143
 1926SOL    HW1 6458   1.671   3.135   3.217
 1926SOL    HW2 6459   1.551   3.214   3.170
 1927SOL     OW 6460   1.051   2.969   2.568
 1927SOL    HW1 6461   0.980   2.917   2.607
 1927SOL    HW2 6462   1.113   2.903   2.536
 1928SOL     OW 6463   1.021   2.102   2.828
 1928SOL    HW1 6464   1.017   2.054   2.745
 1928SOL    HW2 6465   1.016   2.034   2.895
 1929SOL     OW 6466   0.604   3.352   2.343
 1929SOL    HW1 6467   0.646   3.301   2.274
 1929SOL    HW2 6468   0.535   3.401   2.298
 1930SOL     OW 6469   1.722   2.254   3.239
 1930SOL    HW1 6470   1.796   2.314   3.245
 1930SOL    HW2 6471   1.751   2.187   3.177
 1931SOL     OW 6472   0.252   3.204   2.152
 1931SOL    HW1 6473   0.159   3.214   2.132
 1931SOL    HW2 6474   0.263   3.241   2.240
 1932SOL     OW 6475   0.105   2.861   3.580
 1932SOL    HW1 6476   0.044   2.852   3.653
 1932SOL    HW2 6477   0.191   2.842   3.617
 1933SOL     OW 6478   0.674   2.058   3.361
 1933SOL    HW1 6479   0.758   2.039   3.319
 1933SOL    HW2 6480   0.697   2.089   3.449
 1934SOL     OW 6481   0.080   2.181   1.899
 1934SOL    HW1 6482   3.985   2.180   1.904
 1934SOL    HW2 6483   0.101   2.261   1.851
 1935SOL     OW 6484   1.430   2.721   3.263
 1935SOL    HW1 6485   1.382   2.782   3.206
 1935SOL    HW2 6486   1.520   2.723   3.229
 1936SOL     OW 6487   0.024   2.084   2.231
 1936SOL    HW1 6488   0.046   2.152   2.166
 1936SOL    HW2 6489   0.109   2.050   2.259
 1937SOL     OW 6490   1.179   3.202   1.979
 1937SOL    HW1 6491   1.088   3.173   1.981
 1937SOL    HW2 6492   1.207   3.201   2.070
 1938SOL     OW 6493   0.618   2.693   3.297
 1938SOL    HW1 6494   0.674   2.769   3.281
 1938SOL    HW2 6495   0.680   2.619   3.305
 1939SOL     OW 6496   1.485   3.639   2.841
 1939SOL    HW1 6497   1.511   3.694   2.766
 1939SOL    HW2 6498   1.568   3.619   2.885
 1940SOL     OW 6499   0.716   2.427   3.568
 1940SOL    HW1 6500   0.757   2.490   3.627
 1940SOL    HW2 6501   0.747   2.341   3.598
 1941SOL     OW 6502   1.471   3.063   3.494
 1941SOL    HW1 6503   1.459   3.076   3.588
 1941SOL    HW2 6504   1.564   3.077   3.480
 1942SOL     OW 6505   0.379   3.605   3.421
 1942SOL    HW1 6506   0.292   3.641   3.408
 1942SOL    HW2 6507   0.365   3.523   3.468
 1943SOL     OW 6508   1.671   2.744   3.116
 1943SOL    HW1 6509   1.662   2.659   3.074
 1943SOL    HW2 6510   1.660   2.807   3.045
 1944SOL     OW 6511   1.216   2.182   2.320
 1944SOL    HW1 6512   1.279   2.110   2.311
 1944SOL    HW2 6513   1.245   2.231   2.397
 1945SOL     OW 6514   0.590   2.601   2.531
 1945SOL    HW1 6515   0.629   2.687   2.516
 1945SOL    HW2 6516   0.522   2.593   2.465
 1946SOL     OW 6517   1.758   2.236   3.516
 1946SOL    HW1 6518   1.747   2.243   3.421
 1946SOL    HW2 6519   1.687   2.178   3.544
 1947SOL     OW 6520   1.746   2.798   3.372
 1947SOL    HW1 6521   1.743   2.893   3.385
 1947SOL    HW2 6522   1.730   2.787   3.278
 1948SOL     OW 6523   0.864   3.230   1.896
 1948SOL    HW1 6524   0.822   3.258   1.977
 1948SOL    HW2 6525   0.880   3.311   1.848
 1949SOL     OW 6526   0.658   3.653   2.803
 1949SOL    HW1 6527   0.636   3.744   2.782
 1949SOL    HW2 6528   0.754   3.651   2.799
 1950SOL     OW 6529   0.867   2.828   2.717
 1950SOL    HW1 6530   0.918   2.757   2.757
 1950SOL    HW2 6531   0.833   2.878   2.791
 1951SOL     OW 6532   1.078   2.849   1.950
 1951SOL    HW1 6533   1.058   2.901   1.872
 1951SOL    HW2 6534   1.154   2.797   1.925
 1952SOL     OW 6535   1.854   3.415   2.705
 1952SOL    HW1 6536   1.775   3.404   2.652
 1952SOL    HW2 6537   1.846   3.350   2.775
 1953SOL     OW 6538   0.223   3.166   3.717
 1953SOL    HW1 6539   0.152   3.107   3.692
 1953SOL    HW2 6540   0.211   3.179   3.811
 1954SOL     OW 6541   0.110   3.135   2.579
 1954SOL    HW1 6542   0.122   3.085   2.659
 1954SOL    HW2 6543   0.110   3.069   2.509
 1955SOL     OW 6544   0.680   3.264   3.490
 1955SOL    HW1 6545   0.600   3.222   3.519
 1955SOL    HW2 6546   0.676   3.352   3.526
 1956SOL     OW 6547   0.440   2.296   2.394
 1956SOL    HW1 6548   0.444   2.226   2.329
 1956SOL    HW2 6549   0.386   2.261   2.465
 1957SOL     OW 6550   1.701   3.351   2.958
 1957SOL    HW1 6551   1.619   3.327   2.915
 1957SOL    HW2 6552   1.714   3.283   3.025
 1958SOL     OW 6553   0.331   2.416   3.153
 1958SOL    HW1 6554   0.387   2.360   3.207
 1958SOL    HW2 6555   0.348   2.386   3.063
 1959SOL     OW 6556   0.826   3.441   2.540
 1959SOL    HW1 6557   0.816   3.488   2.457
 1959SOL    HW2 6558   0.750   3.383   2.543
 1960SOL     OW 6559   1.437   2.089   2.981
 1960SOL    HW1 6560   1.452   2.004   3.022
 1960SOL    HW2 6561   1.382   2.136   3.044
 1961SOL     OW 6562   1.009   1.881   3.005
 1961SOL    HW1 6563   0.955   1.813   2.965
 1961SOL    HW2 6564   1.097   1.843   3.007
 1962SOL     OW 6565   0.771   3.194   2.177
 1962SOL    HW1 6566   0.739   3.104   2.182
 1962SOL    HW2 6567   0.854   3.193   2.224
 1963SOL     OW 6568   0.620   3.418   3.146
 1963SOL    HW1 6569   0.622   3.499   3.197
 1963SOL    HW2 6570   0.708   3.411   3.108
 1964SOL     OW 6571   1.350   1.914   2.027
 1964SOL    HW1 6572   1.378   1.855   1.957
 1964SOL    HW2 6573   1.263   1.882   2.053
 1965SOL     OW 6574   1.297   2.322   2.543
 1965SOL    HW1 6575   1.244   2.401   2.551
 1965SOL    HW2 6576   1.293   2.283   2.631
 1966SOL     OW 6577   1.575   2.058   2.731
 1966SOL    HW1 6578   1.534   2.081   2.814
 1966SOL    HW2 6579   1.588   2.142   2.687
 1967SOL     OW 6580   0.045   2.914   2.101
 1967SOL    HW1 6581   0.139   2.897   2.093
 1967SOL    HW2 6582   0.010   2.834   2.140
 1968SOL     OW 6583   0.883   3.516   2.207
 1968SOL    HW1 6584   0.813   3.497   2.145
 1968SOL    HW2 6585   0.852   3.593   2.255
 1969SOL     OW 6586   0.231   2.483   3.845
 1969SOL    HW1 6587   0.138   2.493   3.865
 1969SOL    HW2 6588   0.233   2.454   3.754
 1970SOL     OW 6589   0.228   2.133   4.711
 1970SOL    HW1 6590   0.249   2.101   4.799
 1970SOL    HW2 6591   0.133   2.124   4.704
 1971SOL     OW 6592   0.012   2.225   4.357
 1971SOL    HW1 6593   3.925   2.243   4.394
 1971SOL    HW2 6594   3.994   2.188   4.270
 1972SOL     OW 6595   0.576   3.144   4.907
 1972SOL    HW1 6596   0.490   3.149   4.866
 1972SOL    HW2 6597   0.592   3.232   4.941
 1973SOL     OW 6598   1.559   3.373   4.431
 1973SOL    HW1 6599   1.517   3.353   4.514
 1973SOL    HW2 6600   1.488   3.377   4.367
 1974SOL     OW 6601   1.130   2.560   4.426
 1974SOL    HW1 6602   1.179   2.641   4.411
 1974SOL    HW2 6603   1.083   2.575   4.508
 1975SOL     OW 6604   1.753   2.475   3.957
 1975SOL    HW1 6605   1.740   2.469   3.862
 1975SOL    HW2 6606   1.747   2.385   3.988
 1976SOL     OW 6607   0.758   3.004   4.762
 1976SOL    HW1 6608   0.691   3.038   4.822
 1976SOL    HW2 6609   0.792   3.082   4.718
 1977SOL     OW 6610   0.865   2.639   5.545
 1977SOL    HW1 6611   0.854   2.711   5.607
 1977SOL    HW2 6612   0.889   2.681   5.463
 1978SOL     OW 6613   0.686   2.867   4.372
 1978SOL    HW1 6614   0.751   2.853   4.441
 1978SOL    HW2 6615   0.616   2.917   4.414
 1979SOL     OW 6616   0.709   3.012   5.536
 1979SOL    HW1 6617   0.757   3.091   5.562
 1979SOL    HW2 6618   0.627   3.045   5.501
 1980SOL     OW 6619   0.351   3.265   4.802
 1980SOL    HW1 6620   0.268   3.251   4.756
 1980SOL    HW2 6621   0.400   3.324   4.746
 1981SOL     OW 6622   1.461   3.361   5.077
 1981SOL    HW1 6623   1.511   3.442   5.087
 1981SOL    HW2 6624   1.400   3.360   5.151
 1982SOL     OW 6625   0.450   2.263   5.216
 1982SOL    HW1 6626   0.524   2.202   5.217
 1982SOL    HW2 6627   0.373   2.207   5.226
 1983SOL     OW 6628   1.609   2.307   4.460
 1983SOL    HW1 6629   1.531   2.333   4.412
 1983SOL    HW2 6630   1.631   2.384   4.514
 1984SOL     OW 6631   0.225   3.571   4.191
 1984SOL    HW1 6632   0.231   3.651   4.243
 1984SOL    HW2 6633   0.302   3.575   4.133
 1985SOL     OW 6634   1.136   3.203   5.416
 1985SOL    HW1 6635   1.177   3.198   5.503
 1985SOL    HW2 6636   1.084   3.123   5.410
 1986SOL     OW 6637   0.246   3.305   4.263
 1986SOL    HW1 6638   0.219   3.396   4.251
 1986SOL    HW2 6639   0.176   3.267   4.317
 1987SOL     OW 6640   0.246   2.932   4.608
 1987SOL    HW1 6641   0.264   2.848   4.651
 1987SOL    HW2 6642   0.194   2.980   4.672
 1988SOL     OW 6643   0.614   3.649   5.154
 1988SOL    HW1 6644   0.531   3.634   5.199
 1988SOL    HW2 6645   0.639   3.738   5.178
 1989SOL     OW 6646   0.582   2.845   3.860
 1989SOL    HW1 6647   0.628   2.893   3.790
 1989SOL    HW2 6648   0.625   2.874   3.940
 1990SOL     OW 6649   1.596   1.989   5.190
 1990SOL    HW1 6650   1.581   2.073   5.146
 1990SOL    HW2 6651   1.587   2.009   5.283
 1991SOL     OW 6652   0.141   2.510   4.298
 1991SOL    HW1 6653   0.086   2.431   4.298
 1991SOL    HW2 6654   0.105   2.565   4.367
 1992SOL     OW 6655   1.841   3.614   4.062
 1992SOL    HW1 6656   1.906   3.589   4.128
 1992SOL    HW2 6657   1.864   3.704   4.039
 1993SOL     OW 6658   0.041   3.455   3.864
 1993SOL    HW1 6659   0.031   3.362   3.886
 1993SOL    HW2 6660   3.963   3.496   3.901
 1994SOL     OW 6661   1.690   2.781   4.364
 1994SOL    HW1 6662   1.772   2.738   4.343
 1994SOL    HW2 6663   1.667   2.831   4.285
 1995SOL     OW 6664   1.645   2.969   4.153
 1995SOL    HW1 6665   1.731   2.975   4.111
 1995SOL    HW2 6666   1.651   3.030   4.227
 1996SOL     OW 6667   0.134   2.613   5.315
 1996SOL    HW1 6668   0.229   2.607   5.318
 1996SOL    HW2 6669   0.115   2.705   5.333
 1997SOL     OW 6670   0.614   3.246   4.458
 1997SOL    HW1 6671   0.567   3.163   4.468
 1997SOL    HW2 6672   0.596   3.273   4.368
 1998SOL     OW 6673   1.289   3.100   5.148
 1998SOL    HW1 6674   1.322   3.033   5.088
 1998SOL    HW2 6675   1.346   3.094   5.224
 1999SOL     OW 6676   0.816   1.861   4.232
 1999SOL    HW1 6677   0.856   1.946   4.214
 1999SOL    HW2 6678   0.722   1.880   4.240
 2000SOL     OW 6679   0.186   2.816   5.000
 2000SOL    HW1 6680   0.273   2.781   4.986
 2000SOL    HW2 6681   0.131   2.772   4.935
 2001SOL     OW 6682   1.531   2.856   3.922
 2001SOL    HW1 6683   1.462   2.797   3.952
 2001SOL    HW2 6684   1.572   2.889   4.001
 2002SOL     OW 6685   1.210   3.664   5.349
 2002SOL    HW1 6686   1.195   3.724   5.276
 2002SOL    HW2 6687   1.213   3.577   5.309
 2003SOL     OW 6688   0.338   2.109   5.537
 2003SOL    HW1 6689   0.378   2.196   5.543
 2003SOL    HW2 6690   0.247   2.124   5.563
 2004SOL     OW 6691   1.465   3.282   4.676
 2004SOL    HW1 6692   1.398   3.296   4.742
 2004SOL    HW2 6693   1.454   3.191   4.649
 2005SOL     OW 6694   1.656   3.598   4.304
 2005SOL    HW1 6695   1.641   3.568   4.214
 2005SOL    HW2 6696   1.632   3.524   4.359
 2006SOL     OW 6697   0.596   2.581   3.987
 2006SOL    HW1 6698   0.604   2.664   3.940
 2006SOL    HW2 6699   0.533   2.599   4.057
 2007SOL     OW 6700   1.279   2.216   4.658
 2007SOL    HW1 6701   1.190   2.180   4.667
 2007SOL    HW2 6702   1.333   2.161   4.715
 2008SOL     OW 6703   1.578   3.535   4.032
 2008SOL    HW1 6704   1.670   3.563   4.027
 2008SOL    HW2 6705   1.554   3.515   3.942
 2009SOL     OW 6706   0.791   2.480   5.176
 2009SOL    HW1 6707   0.765   2.456   5.265
 2009SOL    HW2 6708   0.751   2.413   5.120
 2010SOL     OW 6709   1.394   2.335   5.402
 2010SOL    HW1 6710   1.397   2.381   5.485
 2010SOL    HW2 6711   1.457   2.263   5.411
 2011SOL     OW 6712   0.955   2.749   5.306
 2011SOL    HW1 6713   1.010   2.679   5.271
 2011SOL    HW2 6714   0.908   2.783   5.230
 2012SOL     OW 6715   0.992   2.275   4.963
 2012SOL    HW1 6716   0.907   2.297   5.001
 2012SOL    HW2 6717   0.971   2.228   4.882
 2013SOL     OW 6718   1.051   2.561   4.150
 2013SOL    HW1 6719   1.066   2.554   4.245
 2013SOL    HW2 6720   0.969   2.513   4.136
 2014SOL     OW 6721   0.082   2.686   4.514
 2014SOL    HW1 6722   0.161   2.658   4.560
 2014SOL    HW2 6723   0.092   2.781   4.505
 2015SOL     OW 6724   0.128   3.712   5.298
 2015SOL    HW1 6725   0.134   3.682   5.388
 2015SOL    HW2 6726   0.035   3.701   5.275
 2016SOL     OW 6727   0.891   2.210   3.916
 2016SOL    HW1 6728   0.934   2.272   3.857
 2016SOL    HW2 6729   0.912   2.124   3.880
 2017SOL     OW 6730   1.680   2.448   5.554
 2017SOL    HW1 6731   1.655   2.517   5.493
 2017SOL    HW2 6732   1.728   2.385   5.499
 2018SOL     OW 6733   1.377   3.004   4.266
 2018SOL    HW1 6734   1.455   2.990   4.213
 2018SOL    HW2 6735   1.324   3.066   4.215
 2019SOL     OW 6736   0.545   2.042   4.617
 2019SOL    HW1 6737   0.552   2.073   4.707
 2019SOL    HW2 6738   0.548   2.122   4.564
 2020SOL     OW 6739   1.007   3.308   4.196
 2020SOL    HW1 6740   0.967   3.380   4.148
 2020SOL    HW2 6741   0.990   3.328   4.288
 2021SOL     OW 6742   0.359   3.668   4.581
 2021SOL    HW1 6743   0.434   3.610   4.591
 2021SOL    HW2 6744   0.394   3.756   4.591
 2022SOL     OW 6745   1.799   2.919   4.591
 2022SOL    HW1 6746   1.744   2.901   4.515
 2022SOL    HW2 6747   1.737   2.925   4.664
 2023SOL     OW 6748   1.228   3.399   5.235
 2023SOL    HW1 6749   1.213   3.327   5.296
 2023SOL    HW2 6750   1.163   3.385   5.166
 2024SOL     OW 6751   0.311   2.817   3.966
 2024SOL    HW1 6752   0.395   2.840   3.928
 2024SOL    HW2 6753   0.296   2.726   3.940
 2025SOL     OW 6754   1.477   2.604   4.452
 2025SOL    HW1 6755   1.469   2.559   4.536
 2025SOL    HW2 6756   1.555   2.658   4.462
 2026SOL     OW 6757   0.465   3.121   5.461
 2026SOL    HW1 6758   0.439   3.130   5.369
 2026SOL    HW2 6759   0.383   3.127   5.510
 2027SOL     OW 6760   1.113   3.642   3.948
 2027SOL    HW1 6761   1.051   3.594   4.003
 2027SOL    HW2 6762   1.142   3.578   3.883
 2028SOL     OW 6763   0.204   2.143   5.231
 2028SOL    HW1 6764   0.114   2.173   5.220
 2028SOL    HW2 6765   0.195   2.059   5.277
 2029SOL     OW 6766   1.628   3.242   3.812
 2029SOL    HW1 6767   1.587   3.327   3.795
 2029SOL    HW2 6768   1.559   3.178   3.793
 2030SOL     OW 6769   0.469   3.599   4.045
 2030SOL    HW1 6770   0.506   3.663   4.106
 2030SOL    HW2 6771   0.542   3.573   3.990
 2031SOL     OW 6772   1.397   1.969   4.154
 2031SOL    HW1 6773   1.381   1.946   4.062
 2031SOL    HW2 6774   1.492   1.961   4.164
 2032SOL     OW 6775   0.251   3.656   4.954
 2032SOL    HW1 6776   0.298   3.592   5.007
 2032SOL    HW2 6777   0.247   3.616   4.867
 2033SOL     OW 6778   0.937   3.561   4.626
 2033SOL    HW1 6779   1.015   3.508   4.645
 2033SOL    HW2 6780   0.892   3.512   4.557
 2034SOL     OW 6781   0.395   2.556   4.197
 2034SOL    HW1 6782   0.423   2.465   4.210
 2034SOL    HW2 6783   0.304   2.557   4.224
 2035SOL     OW 6784   1.536   2.086   5.449
 2035SOL    HW1 6785   1.547   2.109   5.541
 2035SOL    HW2 6786   1.468   2.019   5.449
 2036SOL     OW 6787   0.632   1.983   3.825
 2036SOL    HW1 6788   0.703   1.920   3.841
 2036SOL    HW2 6789   0.587   1.950   3.747
 2037SOL     OW 6790   0.767   2.140   5.478
 2037SOL    HW1 6791   0.842   2.081   5.479
 2037SOL    HW2 6792   0.716   2.116   5.556
 2038SOL     OW 6793   0.876   3.382   4.918
 2038SOL    HW1 6794   0.861   3.347   4.830
 2038SOL    HW2 6795   0.946   3.328   4.954
 2039SOL     OW 6796   1.341   2.450   5.157
 2039SOL    HW1 6797   1.372   2.418   5.241
 2039SOL    HW2 6798   1.377   2.539   5.150
 2040SOL     OW 6799   0.814   3.258   4.662
 2040SOL    HW1 6800   0.899   3.246   4.618
 2040SOL    HW2 6801   0.751   3.257   4.590
 2041SOL     OW 6802   0.927   2.371   4.627
 2041SOL    HW1 6803   0.905   2.363   4.535
 2041SOL    HW2 6804   0.960   2.285   4.652
 2042SOL     OW 6805   0.553   1.924   4.223
 2042SOL    HW1 6806   0.470   1.929   4.272
 2042SOL    HW2 6807   0.557   2.007   4.175
 2043SOL     OW 6808   1.428   3.060   3.765
 2043SOL    HW1 6809   1.459   2.985   3.814
 2043SOL    HW2 6810   1.342   3.080   3.802
 2044SOL     OW 6811   0.306   1.912   3.894
 2044SOL    HW1 6812   0.372   1.953   3.838
 2044SOL    HW2 6813   0.354   1.847   3.944
 2045SOL     OW 6814   0.938   2.107   4.186
 2045SOL    HW1 6815   0.907   2.149   4.106
 2045SOL    HW2 6816   1.032   2.123   4.187
 2046SOL     OW 6817   1.080   2.542   5.184
 2046SOL    HW1 6818   1.012   2.475   5.189
 2046SOL    HW2 6819   1.162   2.492   5.177
 2047SOL     OW 6820   1.223   3.432   4.517
 2047SOL    HW1 6821   1.240   3.500   4.452
 2047SOL    HW2 6822   1.292   3.444   4.583
 2048SOL     OW 6823   0.466   3.011   4.462
 2048SOL    HW1 6824   0.393   2.989   4.520
 2048SOL    HW2 6825   0.433   2.995   4.374
 2049SOL     OW 6826   1.269   3.658   4.329
 2049SOL    HW1 6827   1.314   3.722   4.274
 2049SOL    HW2 6828   1.199   3.708   4.372
 2050SOL     OW 6829   1.024   2.404   3.746
 2050SOL    HW1 6830   0.983   2.488   3.726
 2050SOL    HW2 6831   1.091   2.425   3.812
 2051SOL     OW 6832   0.080   2.432   5.114
 2051SOL    HW1 6833   0.170   2.419   5.083
 2051SOL    HW2 6834   0.087   2.502   5.180
 2052SOL     OW 6835   0.567   2.089   4.888
 2052SOL    HW1 6836   0.607   2.011   4.927
 2052SOL    HW2 6837   0.476   2.086   4.917
 2053SOL     OW 6838   0.868   2.321   4.364
 2053SOL    HW1 6839   0.820   2.374   4.300
 2053SOL    HW2 6840   0.888   2.240   4.317
 2054SOL     OW 6841   1.015   1.915   4.477
 2054SOL    HW1 6842   0.957   1.908   4.401
 2054SOL    HW2 6843   0.993   1.839   4.531
 2055SOL     OW 6844   1.436   3.025   4.581
 2055SOL    HW1 6845   1.368   2.958   4.580
 2055SOL    HW2 6846   1.460   3.036   4.489
 2056SOL     OW 6847   1.466   2.466   4.702
 2056SOL    HW1 6848   1.416   2.385   4.705
 2056SOL    HW2 6849   1.526   2.461   4.776
 2057SOL     OW 6850   1.846   2.680   4.107
 2057SOL    HW1 6851   1.904   2.628   4.163
 2057SOL    HW2 6852   1.814   2.619   4.041
 2058SOL     OW 6853   0.490   3.277   3.885
 2058SOL    HW1 6854   0.414   3.247   3.936
 2058SOL    HW2 6855   0.467   3.257   3.794
 2059SOL     OW 6856   1.670   3.127   4.371
 2059SOL    HW1 6857   1.765   3.130   4.384
 2059SOL    HW2 6858   1.639   3.215   4.392
 2060SOL     OW 6859   1.391   2.436   3.793
 2060SOL    HW1 6860   1.338   2.413   3.869
 2060SOL    HW2 6861   1.481   2.414   3.819
 2061SOL     OW 6862   0.573   2.131   4.048
 2061SOL    HW1 6863   0.598   2.081   3.970
 2061SOL    HW2 6864   0.540   2.214   4.013
 2062SOL     OW 6865   1.753   3.101   5.298
 2062SOL    HW1 6866   1.840   3.061   5.296
 2062SOL    HW2 6867   1.768   3.191   5.326
 2063SOL     OW 6868   1.059   3.215   5.058
 2063SOL    HW1 6869   0.984   3.184   5.109
 2063SOL    HW2 6870   1.135   3.174   5.099
 2064SOL     OW 6871   1.608   3.487   5.378
 2064SOL    HW1 6872   1.602   3.521   5.289
 2064SOL    HW2 6873   1.691   3.441   5.380
 2065SOL     OW 6874   1.128   3.065   4.830
 2065SOL    HW1 6875   1.069   3.103   4.895
 2065SOL    HW2 6876   1.094   3.096   4.746
 2066SOL     OW 6877   1.629   2.961   4.801
 2066SOL    HW1 6878   1.625   3.023   4.874
 2066SOL    HW2 6879   1.549   2.977   4.751
 2067SOL     OW 6880   0.918   1.960   5.121
 2067SOL    HW1 6881   0.941   1.941   5.030
 2067SOL    HW2 6882   0.997   1.999   5.158
 2068SOL     OW 6883   0.984   2.976   5.447
 2068SOL    HW1 6884   0.892   2.992   5.467
 2068SOL    HW2 6885   0.984   2.899   5.391
 2069SOL     OW 6886   0.707   2.922   4.095
 2069SOL    HW1 6887   0.694   2.907   4.189
 2069SOL    HW2 6888   0.784   2.869   4.073
 2070SOL     OW 6889   0.420   2.677   4.976
 2070SOL    HW1 6890   0.489   2.685   5.042
 2070SOL    HW2 6891   0.386   2.588   4.988
 2071SOL     OW 6892   1.266   2.239   4.999
 2071SOL    HW1 6893   1.299   2.316   5.045
 2071SOL    HW2 6894   1.176   2.261   4.975
 2072SOL     OW 6895   0.064   3.441   5.069
 2072SOL    HW1 6896   0.067   3.508   5.000
 2072SOL    HW2 6897   0.156   3.428   5.093
 2073SOL     OW 6898   0.374   2.964   4.210
 2073SOL    HW1 6899   0.368   3.043   4.155
 2073SOL    HW2 6900   0.373   2.891   4.147
 2074SOL     OW 6901   0.553   2.400   4.586
 2074SOL    HW1 6902   0.568   2.456   4.510
 2074SOL    HW2 6903   0.618   2.427   4.650
 2075SOL     OW 6904   1.248   3.210   4.113
 2075SOL    HW1 6905   1.304   3.282   4.144
 2075SOL    HW2 6906   1.161   3.231   4.147
 2076SOL     OW 6907   1.280   3.319   4.871
 2076SOL    HW1 6908   1.335   3.322   4.948
 2076SOL    HW2 6909   1.224   3.242   4.883
 2077SOL     OW 6910   1.578   2.484   4.200
 2077SOL    HW1 6911   1.537   2.543   4.262
 2077SOL    HW2 6912   1.626   2.541   4.140
 2078SOL     OW 6913   0.346   3.387   5.043
 2078SOL    HW1 6914   0.336   3.338   4.962
 2078SOL    HW2 6915   0.440   3.403   5.051
 2079SOL     OW 6916   0.413   2.603   5.325
 2079SOL    HW1 6917   0.474   2.649   5.268
 2079SOL    HW2 6918   0.454   2.518   5.341
 2080SOL     OW 6919   1.598   2.647   5.398
 2080SOL    HW1 6920   1.512   2.689   5.392
 2080SOL    HW2 6921   1.651   2.691   5.331
 2081SOL     OW 6922   0.994   1.984   5.478
 2081SOL    HW1 6923   1.051   2.056   5.451
 2081SOL    HW2 6924   1.043   1.905   5.454
 2082SOL     OW 6925   0.498   1.900   5.469
 2082SOL    HW1 6926   0.455   1.847   5.402
 2082SOL    HW2 6927   0.441   1.977   5.479
 2083SOL     OW 6928   0.584   2.735   4.755
 2083SOL    HW1 6929   0.615   2.826   4.754
 2083SOL    HW2 6930   0.528   2.730   4.833
 2084SOL     OW 6931   1.359   2.721   4.755
 2084SOL    HW1 6932   1.276   2.712   4.707
 2084SOL    HW2 6933   1.398   2.634   4.750
 2085SOL     OW 6934   1.206   2.390   3.992
 2085SOL    HW1 6935   1.213   2.312   4.047
 2085SOL    HW2 6936   1.163   2.455   4.048
 2086SOL     OW 6937   0.312   2.061   4.971
 2086SOL    HW1 6938   0.265   2.098   5.046
 2086SOL    HW2 6939   0.287   1.968   4.971
 2087SOL     OW 6940   0.057   3.167   5.004
 2087SOL    HW1 6941   0.090   3.128   5.085
 2087SOL    HW2 6942   0.051   3.260   5.023
 2088SOL     OW 6943   0.725   2.494   4.783
 2088SOL    HW1 6944   0.799   2.476   4.725
 2088SOL    HW2 6945   0.698   2.583   4.760
 2089SOL     OW 6946   1.733   2.822   5.577
 2089SOL    HW1 6947   1.691   2.759   5.518
 2089SOL    HW2 6948   1.670   2.834   5.648
 2090SOL     OW 6949   0.311   1.926   4.345
 2090SOL    HW1 6950   0.292   2.017   4.367
 2090SOL    HW2 6951   0.315   1.881   4.430
 2091SOL     OW 6952   1.608   2.234   4.099
 2091SOL    HW1 6953   1.622   2.184   4.179
 2091SOL    HW2 6954   1.588   2.322   4.129
 2092SOL     OW 6955   1.027   2.621   4.685
 2092SOL    HW1 6956   1.025   2.639   4.779
 2092SOL    HW2 6957   1.001   2.530   4.677
 2093SOL     OW 6958   0.985   3.429   5.441
 2093SOL    HW1 6959   0.967   3.472   5.358
 2093SOL    HW2 6960   1.027   3.346   5.418
 2094SOL     OW 6961   1.855   3.368   5.329
 2094SOL    HW1 6962   1.873   3.395   5.239
 2094SOL    HW2 6963   1.936   3.389   5.376
 2095SOL     OW 6964   0.351   2.782   5.526
 2095SOL    HW1 6965   0.431   2.803   5.575
 2095SOL    HW2 6966   0.379   2.716   5.462
 2096SOL     OW 6967   1.531   2.132   3.851
 2096SOL    HW1 6968   1.463   2.070   3.880
 2096SOL    HW2 6969   1.562   2.172   3.932
 2097SOL     OW 6970   1.292   2.689   3.756
 2097SOL    HW1 6971   1.334   2.603   3.759
 2097SOL    HW2 6972   1.324   2.728   3.674
 2098SOL     OW 6973   1.065   3.198   4.577
 2098SOL    HW1 6974   1.068   3.125   4.515
 2098SOL    HW2 6975   1.127   3.261   4.543
 2099SOL     OW 6976   0.314   2.667   4.675
 2099SOL    HW1 6977   0.408   2.685   4.668
 2099SOL    HW2 6978   0.309   2.578   4.708
 2100SOL     OW 6979   0.332   2.381   4.737
 2100SOL    HW1 6980   0.297   2.293   4.720
 2100SOL    HW2 6981   0.408   2.389   4.680
 2101SOL     OW 6982   1.134   2.239   5.405
 2101SOL    HW1 6983   1.088   2.294   5.468
 2101SOL    HW2 6984   1.223   2.275   5.402
 2102SOL     OW 6985   1.160   2.065   5.194
 2102SOL    HW1 6986   1.151   2.128   5.266
 2102SOL    HW2 6987   1.200   2.117   5.123
 2103SOL     OW 6988   3.999   3.183   3.906
 2103SOL    HW1 6989   3.905   3.198   3.910
 2103SOL    HW2 6990   0.009   3.089   3.925
 2104SOL     OW 6991   0.075   3.663   4.618
 2104SOL    HW1 6992   0.085   3.568   4.622
 2104SOL    HW2 6993   0.165   3.696   4.615
 2105SOL     OW 6994   0.507   3.428   4.638
 2105SOL    HW1 6995   0.574   3.493   4.659
 2105SOL    HW2 6996   0.551   3.367   4.578
 2106SOL     OW 6997   0.984   2.655   4.951
 2106SOL    HW1 6998   1.040   2.631   5.026
 2106SOL    HW2 6999   0.899   2.617   4.972
 2107SOL     OW 7000   0.037   2.416   4.834
 2107SOL    HW1 7001   0.119   2.390   4.792
 2107SOL    HW2 7002   0.057   2.414   4.928
 2108SOL     OW 7003   0.206   2.376   5.451
 2108SOL    HW1 7004   0.249   2.332   5.377
 2108SOL    HW2 7005   0.155   2.446   5.411
 2109SOL     OW 7006   1.373   2.804   5.382
 2109SOL    HW1 7007   1.396   2.897   5.380
 2109SOL    HW2 7008   1.371   2.778   5.290
 2110SOL     OW 7009   0.817   2.431   4.082
 2110SOL    HW1 7010   0.820   2.355   4.023
 2110SOL    HW2 7011   0.743   2.482   4.050
 2111SOL     OW 7012   1.643   2.464   4.910
 2111SOL    HW1 7013   1.632   2.408   4.987
 2111SOL    HW2 7014   1.729   2.441   4.876
 2112SOL     OW 7015   0.297   3.409   5.455
 2112SOL    HW1 7016   0.246   3.479   5.497
 2112SOL    HW2 7017   0.262   3.328   5.493
 2113SOL     OW 7018   0.699   2.314   4.985
 2113SOL    HW1 7019   0.649   2.239   4.953
 2113SOL    HW2 7020   0.696   2.377   4.912
 2114SOL     OW 7021   0.930   3.536   5.191
 2114SOL    HW1 7022   0.903   3.501   5.106
 2114SOL    HW2 7023   0.924   3.631   5.182
 2115SOL     OW 7024   0.460   2.353   3.916
 2115SOL    HW1 7025   0.524   2.421   3.935
 2115SOL    HW2 7026   0.379   2.400   3.897
 2116SOL     OW 7027   0.157   2.998   5.197
 2116SOL    HW1 7028   0.160   2.947   5.278
 2116SOL    HW2 7029   0.172   2.935   5.127
 2117SOL     OW 7030   1.327   2.910   4.947
 2117SOL    HW1 7031   1.350   2.846   4.880
 2117SOL    HW2 7032   1.256   2.961   4.909
 2118SOL     OW 7033   1.310   2.719   4.031
 2118SOL    HW1 7034   1.234   2.687   4.080
 2118SOL    HW2 7035   1.287   2.705   3.939
 2119SOL     OW 7036   1.768   3.607   4.872
 2119SOL    HW1 7037   1.831   3.634   4.805
 2119SOL    HW2 7038   1.747   3.516   4.851
 2120SOL     OW 7039   1.243   3.596   4.837
 2120SOL    HW1 7040   1.326   3.615   4.792
 2120SOL    HW2 7041   1.247   3.502   4.856
 2121SOL     OW 7042   0.075   3.078   4.751
 2121SOL    HW1 7043   0.082   3.104   4.843
 2121SOL    HW2 7044   3.982   3.086   4.731
 2122SOL     OW 7045   0.679   3.525   5.451
 2122SOL    HW1 7046   0.623   3.603   5.455
 2122SOL    HW2 7047   0.738   3.541   5.378
 2123SOL     OW 7048   1.390   3.431   4.208
 2123SOL    HW1 7049   1.450   3.463   4.141
 2123SOL    HW2 7050   1.343   3.509   4.238
 2124SOL     OW 7051   0.167   3.628   5.554
 2124SOL    HW1 7052   0.110   3.577   5.612
 2124SOL    HW2 7053   0.214   3.686   5.613
 2125SOL     OW 7054   1.277   2.787   4.395
 2125SOL    HW1 7055   1.350   2.726   4.402
 2125SOL    HW2 7056   1.311   2.860   4.343
 2126SOL     OW 7057   0.816   3.135   5.155
 2126SOL    HW1 7058   0.787   3.174   5.238
 2126SOL    HW2 7059   0.745   3.155   5.093
 2127SOL     OW 7060   0.675   3.476   3.881
 2127SOL    HW1 7061   0.682   3.492   3.787
 2127SOL    HW2 7062   0.618   3.400   3.888
 2128SOL     OW 7063   1.627   3.588   5.114
 2128SOL    HW1 7064   1.677   3.594   5.033
 2128SOL    HW2 7065   1.614   3.678   5.142
 2129SOL     OW 7066   0.268   2.177   4.442
 2129SOL    HW1 7067   0.183   2.212   4.415
 2129SOL    HW2 7068   0.262   2.166   4.536
 2130SOL     OW 7069   1.207   3.468   3.759
 2130SOL    HW1 7070   1.197   3.376   3.783
 2130SOL    HW2 7071   1.146   3.481   3.686
 2131SOL     OW 7072   0.823   2.868   5.096
 2131SOL    HW1 7073   0.868   2.863   5.012
 2131SOL    HW2 7074   0.824   2.961   5.119
 2132SOL     OW 7075   0.915   2.772   4.014
 2132SOL    HW1 7076   0.977   2.804   3.947
 2132SOL    HW2 7077   0.963   2.702   4.059
 2133SOL     OW 7078   1.491   3.489   3.766
 2133SOL    HW1 7079   1.397   3.480   3.750
 2133SOL    HW2 7080   1.529   3.494   3.678
 2134SOL     OW 7081   0.373   3.165   5.215
 2134SOL    HW1 7082   0.359   3.245   5.165
 2134SOL    HW2 7083   0.296   3.111   5.198
 2135SOL     OW 7084   1.611   3.145   5.005
 2135SOL    HW1 7085   1.671   3.135   5.079
 2135SOL    HW2 7086   1.551   3.214   5.032
 2136SOL     OW 7087   1.051   2.969   4.430
 2136SOL    HW1 7088   0.980   2.917   4.469
 2136SOL    HW2 7089   1.113   2.903   4.398
 2137SOL     OW 7090   1.021   2.102   4.690
 2137SOL    HW1 7091   1.017   2.054   4.608
 2137SOL    HW2 7092   1.016   2.034   4.758
 2138SOL     OW 7093   0.604   3.352   4.205
 2138SOL    HW1 7094   0.646   3.301   4.136
 2138SOL    HW2 7095   0.535   3.401   4.160
 2139SOL     OW 7096   1.722   2.253   5.100
 2139SOL    HW1 7097   1.796   2.314   5.107
 2139SOL    HW2 7098   1.753   2.184   5.042
 2140SOL     OW 7099   0.252   3.204   4.014
 2140SOL    HW1 7100   0.159   3.214   3.994
 2140SOL    HW2 7101   0.263   3.242   4.102
 2141SOL     OW 7102   0.105   2.862   5.442
 2141SOL    HW1 7103   0.044   2.851   5.514
 2141SOL    HW2 7104   0.191   2.842   5.479
 2142SOL     OW 7105   0.674   2.058   5.223
 2142SOL    HW1 7106   0.758   2.038   5.181
 2142SOL    HW2 7107   0.698   2.090   5.311
 2143SOL     OW 7108   0.080   2.181   3.761
 2143SOL    HW1 7109   3.985   2.180   3.766
 2143SOL    HW2 7110   0.101   2.261   3.713
 2144SOL     OW 7111   1.430   2.721   5.125
 2144SOL    HW1 7112   1.382   2.782   5.068
 2144SOL    HW2 7113   1.520   2.723   5.091
 2145SOL     OW 7114   0.024   2.084   4.093
 2145SOL    HW1 7115   0.046   2.151   4.028
 2145SOL    HW2 7116   0.109   2.050   4.121
 2146SOL     OW 7117   1.179   3.202   3.841
 2146SOL    HW1 7118   1.088   3.172   3.843
 2146SOL    HW2 7119   1.207   3.201   3.932
 2147SOL     OW 7120   0.618   2.693   5.159
 2147SOL    HW1 7121   0.674   2.769   5.143
 2147SOL    HW2 7122   0.679   2.619   5.167
 2148SOL     OW 7123   1.485   3.639   4.703
 2148SOL    HW1 7124   1.511   3.694   4.628
 2148SOL    HW2 7125   1.568   3.619   4.747
 2149SOL     OW 7126   0.716   2.426   5.430
 2149SOL    HW1 7127   0.758   2.489   5.489
 2149SOL    HW2 7128   0.747   2.341   5.460
 2150SOL     OW 7129   1.471   3.063   5.356
 2150SOL    HW1 7130   1.459   3.076   5.450
 2150SOL    HW2 7131   1.565   3.077   5.342
 2151SOL     OW 7132   0.379   3.605   5.283
 2151SOL    HW1 7133   0.292   3.641   5.269
 2151SOL    HW2 7134   0.365   3.523   5.330
 2152SOL     OW 7135   1.670   2.744   4.979
 2152SOL    HW1 7136   1.662   2.658   4.936
 2152SOL    HW2 7137   1.660   2.807   4.907
 2153SOL     OW 7138   1.216   2.182   4.182
 2153SOL    HW1 7139   1.279   2.110   4.173
 2153SOL    HW2 7140   1.245   2.230   4.259
 2154SOL     OW 7141   0.590   2.601   4.394
 2154SOL    HW1 7142   0.629   2.687   4.377
 2154SOL    HW2 7143   0.522   2.593   4.327
 2155SOL     OW 7144   1.757   2.235   5.376
 2155SOL    HW1 7145   1.745   2.241   5.282
 2155SOL    HW2 7146   1.688   2.177   5.406
 2156SOL     OW 7147   1.746   2.800   5.234
 2156SOL    HW1 7148   1.743   2.895   5.246
 2156SOL    HW2 7149   1.730   2.787   5.140
 2157SOL     OW 7150   0.864   3.230   3.758
 2157SOL    HW1 7151   0.822   3.258   3.839
 2157SOL    HW2 7152   0.880   3.311   3.710
 2158SOL     OW 7153   0.658   3.653   4.665
 2158SOL    HW1 7154   0.636   3.744   4.644
 2158SOL    HW2 7155   0.754   3.651   4.661
 2159SOL     OW 7156   0.867   2.828   4.579
 2159SOL    HW1 7157   0.917   2.757   4.619
 2159SOL    HW2 7158   0.833   2.878   4.653
 2160SOL     OW 7159   1.078   2.849   3.812
 2160SOL    HW1 7160   1.058   2.901   3.734
 2160SOL    HW2 7161   1.154   2.797   3.787
 2161SOL     OW 7162   1.854   3.416   4.567
 2161SOL    HW1 7163   1.775   3.404   4.514
 2161SOL    HW2 7164   1.846   3.350   4.637
 2162SOL     OW 7165   0.223   3.166   5.579
 2162SOL    HW1 7166   0.152   3.107   5.554
 2162SOL    HW2 7167   0.211   3.179   5.673
 2163SOL     OW 7168   0.111   3.135   4.441
 2163SOL    HW1 7169   0.122   3.085   4.521
 2163SOL    HW2 7170   0.110   3.070   4.371
 2164SOL     OW 7171   0.681   3.264   5.352
 2164SOL    HW1 7172   0.600   3.222   5.381
 2164SOL    HW2 7173   0.676   3.352   5.388
 2165SOL     OW 7174   0.440   2.296   4.256
 2165SOL    HW1 7175   0.444   2.227   4.191
 2165SOL    HW2 7176   0.386   2.261   4.326
 2166SOL     OW 7177   1.701   3.351   4.820
 2166SOL    HW1 7178   1.619   3.327   4.777
 2166SOL    HW2 7179   1.714   3.283   4.886
 2167SOL     OW 7180   0.332   2.416   5.015
 2167SOL    HW1 7181   0.387   2.360   5.069
 2167SOL    HW2 7182   0.348   2.387   4.925
 2168SOL     OW 7183   0.826   3.441   4.402
 2168SOL    HW1 7184   0.816   3.488   4.319
 2168SOL    HW2 7185   0.750   3.383   4.405
 2169SOL     OW 7186   1.437   2.089   4.843
 2169SOL    HW1 7187   1.453   2.004   4.884
 2169SOL    HW2 7188   1.382   2.136   4.906
 2170SOL     OW 7189   1.009   1.881   4.867
 2170SOL    HW1 7190   0.955   1.812   4.827
 2170SOL    HW2 7191   1.097   1.844   4.869
 2171SOL     OW 7192   0.771   3.194   4.039
 2171SOL    HW1 7193   0.739   3.104   4.044
 2171SOL    HW2 7194   0.854   3.193   4.086
 2172SOL     OW 7195   0.620   3.418   5.008
 2172SOL    HW1 7196   0.622   3.499   5.059
 2172SOL    HW2 7197   0.707   3.411   4.970
 2173SOL     OW 7198   1.350   1.914   3.889
 2173SOL    HW1 7199   1.378   1.855   3.819
 2173SOL    HW2 7200   1.263   1.882   3.915
 2174SOL     OW 7201   1.297   2.322   4.406
 2174SOL    HW1 7202   1.244   2.401   4.413
 2174SOL    HW2 7203   1.294   2.282   4.493
 2175SOL     OW 7204   1.573   2.058   4.593
 2175SOL    HW1 7205   1.533   2.081   4.676
 2175SOL    HW2 7206   1.588   2.142   4.549
 2176SOL     OW 7207   0.045   2.914   3.963
 2176SOL    HW1 7208   0.139   2.897   3.955
 2176SOL    HW2 7209   0.010   2.834   4.002
 2177SOL     OW 7210   0.883   3.516   4.069
 2177SOL    HW1 7211   0.813   3.497   4.007
 2177SOL    HW2 7212   0.852   3.593   4.117
 2178SOL     OW 7213   0.231   2.483   5.707
 2178SOL    HW1 7214   0.138   2.493   5.727
 2178SOL    HW2 7215   0.233   2.454   5.616
 2179SOL     OW 7216   0.228   2.133   6.573
 2179SOL    HW1 7217   0.249   2.101   6.661
 2179SOL    HW2 7218   0.133   2.124   6.566
 2180SOL     OW 7219   0.012   2.225   6.219
 2180SOL    HW1 7220   3.926   2.243   6.256
 2180SOL    HW2 7221   3.994   2.188   6.132
 2181SOL     OW 7222   0.576   3.145   6.769
 2181SOL    HW1 7223   0.490   3.149   6.728
 2181SOL    HW2 7224   0.591   3.233   6.803
 2182SOL     OW 7225   1.559   3.372   6.292
 2182SOL    HW1 7226   1.516   3.354   6.376
 2182SOL    HW2 7227   1.488   3.378   6.229
 2183SOL     OW 7228   1.717   2.463   5.824
 2183SOL    HW1 7229   1.720   2.465   5.728
 2183SOL    HW2 7230   1.730   2.371   5.847
 2184SOL     OW 7231   0.758   3.004   6.626
 2184SOL    HW1 7232   0.691   3.038   6.685
 2184SOL    HW2 7233   0.792   3.082   6.581
 2185SOL     OW 7234   0.859   2.644   7.405
 2185SOL    HW1 7235   0.853   2.714   7.470
 2185SOL    HW2 7236   0.885   2.688   7.324
 2186SOL     OW 7237   0.685   2.866   6.233
 2186SOL    HW1 7238   0.750   2.854   6.302
 2186SOL    HW2 7239   0.616   2.917   6.275
 2187SOL     OW 7240   0.709   3.013   7.398
 2187SOL    HW1 7241   0.757   3.091   7.424
 2187SOL    HW2 7242   0.626   3.046   7.363
 2188SOL     OW 7243   0.351   3.265   6.664
 2188SOL    HW1 7244   0.268   3.250   6.618
 2188SOL    HW2 7245   0.400   3.324   6.607
 2189SOL     OW 7246   1.461   3.361   6.938
 2189SOL    HW1 7247   1.510   3.443   6.950
 2189SOL    HW2 7248   1.401   3.359   7.012
 2190SOL     OW 7249   0.450   2.263   7.077
 2190SOL    HW1 7250   0.523   2.201   7.078
 2190SOL    HW2 7251   0.372   2.207   7.088
 2191SOL     OW 7252   1.619   2.294   6.274
 2191SOL    HW1 7253   1.557   2.350   6.226
 2191SOL    HW2 7254   1.603   2.314   6.366
 2192SOL     OW 7255   0.225   3.571   6.053
 2192SOL    HW1 7256   0.231   3.651   6.105
 2192SOL    HW2 7257   0.302   3.575   5.995
 2193SOL     OW 7258   1.136   3.203   7.277
 2193SOL    HW1 7259   1.177   3.198   7.364
 2193SOL    HW2 7260   1.084   3.124   7.270
 2194SOL     OW 7261   0.246   3.305   6.125
 2194SOL    HW1 7262   0.219   3.396   6.113
 2194SOL    HW2 7263   0.176   3.267   6.179
 2195SOL     OW 7264   0.246   2.932   6.470
 2195SOL    HW1 7265   0.264   2.848   6.512
 2195SOL    HW2 7266   0.194   2.980   6.534
 2196SOL     OW 7267   0.614   3.649   7.016
 2196SOL    HW1 7268   0.531   3.634   7.061
 2196SOL    HW2 7269   0.639   3.738   7.040
 2197SOL     OW 7270   0.582   2.845   5.722
 2197SOL    HW1 7271   0.628   2.893   5.652
 2197SOL    HW2 7272   0.625   2.874   5.802
 2198SOL     OW 7273   1.638   1.948   7.053
 2198SOL    HW1 7274   1.572   1.981   6.993
 2198SOL    HW2 7275   1.613   1.984   7.138
 2199SOL     OW 7276   0.141   2.510   6.160
 2199SOL    HW1 7277   0.085   2.432   6.160
 2199SOL    HW2 7278   0.105   2.565   6.229
 2200SOL     OW 7279   1.841   3.615   5.925
 2200SOL    HW1 7280   1.907   3.589   5.990
 2200SOL    HW2 7281   1.864   3.704   5.901
 2201SOL     OW 7282   0.041   3.455   5.726
 2201SOL    HW1 7283   0.032   3.362   5.748
 2201SOL    HW2 7284   3.963   3.496   5.762
 2202SOL     OW 7285   1.640   2.985   6.001
 2202SOL    HW1 7286   1.728   2.986   5.965
 2202SOL    HW2 7287   1.646   3.034   6.083
 2203SOL     OW 7288   0.134   2.613   7.177
 2203SOL    HW1 7289   0.229   2.607   7.180
 2203SOL    HW2 7290   0.115   2.705   7.195
 2204SOL     OW 7291   0.614   3.246   6.320
 2204SOL    HW1 7292   0.567   3.163   6.331
 2204SOL    HW2 7293   0.596   3.273   6.230
 2205SOL     OW 7294   1.291   3.103   7.010
 2205SOL    HW1 7295   1.320   3.030   6.954
 2205SOL    HW2 7296   1.345   3.095   7.089
 2206SOL     OW 7297   0.808   1.857   6.079
 2206SOL    HW1 7298   0.850   1.942   6.077
 2206SOL    HW2 7299   0.715   1.876   6.094
 2207SOL     OW 7300   0.186   2.816   6.862
 2207SOL    HW1 7301   0.273   2.781   6.848
 2207SOL    HW2 7302   0.131   2.772   6.797
 2208SOL     OW 7303   1.532   2.855   5.782
 2208SOL    HW1 7304   1.465   2.794   5.813
 2208SOL    HW2 7305   1.567   2.896   5.861
 2209SOL     OW 7306   1.211   3.664   7.211
 2209SOL    HW1 7307   1.194   3.724   7.139
 2209SOL    HW2 7308   1.213   3.577   7.171
 2210SOL     OW 7309   0.338   2.110   7.399
 2210SOL    HW1 7310   0.378   2.196   7.406
 2210SOL    HW2 7311   0.247   2.123   7.424
 2211SOL     OW 7312   1.466   3.280   6.539
 2211SOL    HW1 7313   1.398   3.297   6.604
 2211SOL    HW2 7314   1.451   3.189   6.512
 2212SOL     OW 7315   1.657   3.598   6.166
 2212SOL    HW1 7316   1.640   3.569   6.076
 2212SOL    HW2 7317   1.633   3.523   6.220
 2213SOL     OW 7318   0.596   2.582   5.850
 2213SOL    HW1 7319   0.602   2.665   5.802
 2213SOL    HW2 7320   0.533   2.600   5.919
 2214SOL     OW 7321   1.578   3.535   5.894
 2214SOL    HW1 7322   1.670   3.563   5.889
 2214SOL    HW2 7323   1.554   3.515   5.804
 2215SOL     OW 7324   0.789   2.477   7.039
 2215SOL    HW1 7325   0.763   2.455   7.129
 2215SOL    HW2 7326   0.744   2.412   6.985
 2216SOL     OW 7327   0.952   2.753   7.169
 2216SOL    HW1 7328   1.006   2.681   7.137
 2216SOL    HW2 7329   0.906   2.786   7.092
 2217SOL     OW 7330   0.969   2.283   6.816
 2217SOL    HW1 7331   0.887   2.313   6.854
 2217SOL    HW2 7332   0.943   2.213   6.756
 2218SOL     OW 7333   1.049   2.556   6.011
 2218SOL    HW1 7334   1.044   2.568   6.106
 2218SOL    HW2 7335   0.967   2.511   5.989
 2219SOL     OW 7336   0.082   2.686   6.376
 2219SOL    HW1 7337   0.161   2.658   6.423
 2219SOL    HW2 7338   0.091   2.781   6.368
 2220SOL     OW 7339   0.128   3.712   7.160
 2220SOL    HW1 7340   0.134   3.682   7.250
 2220SOL    HW2 7341   0.035   3.701   7.137
 2221SOL     OW 7342   0.895   2.209   5.777
 2221SOL    HW1 7343   0.935   2.272   5.717
 2221SOL    HW2 7344   0.904   2.125   5.733
 2222SOL     OW 7345   1.380   3.004   6.124
 2222SOL    HW1 7346   1.459   2.996   6.070
 2222SOL    HW2 7347   1.325   3.066   6.076
 2223SOL     OW 7348   0.545   2.043   6.478
 2223SOL    HW1 7349   0.551   2.073   6.569
 2223SOL    HW2 7350   0.546   2.124   6.426
 2224SOL     OW 7351   1.007   3.308   6.059
 2224SOL    HW1 7352   0.967   3.380   6.010
 2224SOL    HW2 7353   0.989   3.329   6.150
 2225SOL     OW 7354   0.358   3.668   6.443
 2225SOL    HW1 7355   0.434   3.610   6.453
 2225SOL    HW2 7356   0.394   3.756   6.453
 2226SOL     OW 7357   1.799   2.968   6.476
 2226SOL    HW1 7358   1.771   2.906   6.408
 2226SOL    HW2 7359   1.736   2.955   6.547
 2227SOL     OW 7360   1.228   3.399   7.097
 2227SOL    HW1 7361   1.214   3.327   7.158
 2227SOL    HW2 7362   1.163   3.386   7.029
 2228SOL     OW 7363   0.311   2.817   5.828
 2228SOL    HW1 7364   0.395   2.841   5.790
 2228SOL    HW2 7365   0.296   2.727   5.801
 2229SOL     OW 7366   0.465   3.122   7.323
 2229SOL    HW1 7367   0.439   3.130   7.231
 2229SOL    HW2 7368   0.383   3.127   7.372
 2230SOL     OW 7369   1.113   3.642   5.810
 2230SOL    HW1 7370   1.051   3.594   5.865
 2230SOL    HW2 7371   1.142   3.578   5.745
 2231SOL     OW 7372   0.204   2.143   7.094
 2231SOL    HW1 7373   0.114   2.174   7.082
 2231SOL    HW2 7374   0.195   2.059   7.139
 2232SOL     OW 7375   1.628   3.243   5.674
 2232SOL    HW1 7376   1.587   3.327   5.657
 2232SOL    HW2 7377   1.559   3.179   5.655
 2233SOL     OW 7378   0.469   3.599   5.907
 2233SOL    HW1 7379   0.506   3.663   5.968
 2233SOL    HW2 7380   0.542   3.573   5.852
 2234SOL     OW 7381   0.251   3.656   6.816
 2234SOL    HW1 7382   0.298   3.592   6.869
 2234SOL    HW2 7383   0.247   3.616   6.729
 2235SOL     OW 7384   0.937   3.561   6.487
 2235SOL    HW1 7385   1.014   3.508   6.508
 2235SOL    HW2 7386   0.892   3.512   6.418
 2236SOL     OW 7387   0.395   2.555   6.059
 2236SOL    HW1 7388   0.423   2.465   6.072
 2236SOL    HW2 7389   0.304   2.557   6.086
 2237SOL     OW 7390   1.576   2.063   7.296
 2237SOL    HW1 7391   1.591   2.118   7.373
 2237SOL    HW2 7392   1.500   2.010   7.318
 2238SOL     OW 7393   0.636   1.984   5.685
 2238SOL    HW1 7394   0.701   1.917   5.705
 2238SOL    HW2 7395   0.589   1.951   5.609
 2239SOL     OW 7396   0.749   2.137   7.334
 2239SOL    HW1 7397   0.826   2.085   7.359
 2239SOL    HW2 7398   0.695   2.139   7.413
 2240SOL     OW 7399   0.876   3.382   6.780
 2240SOL    HW1 7400   0.861   3.347   6.692
 2240SOL    HW2 7401   0.946   3.327   6.816
 2241SOL     OW 7402   1.324   2.481   6.980
 2241SOL    HW1 7403   1.359   2.440   7.059
 2241SOL    HW2 7404   1.361   2.570   6.981
 2242SOL     OW 7405   0.815   3.258   6.524
 2242SOL    HW1 7406   0.899   3.246   6.480
 2242SOL    HW2 7407   0.751   3.256   6.453
 2243SOL     OW 7408   0.923   2.377   6.485
 2243SOL    HW1 7409   0.900   2.368   6.392
 2243SOL    HW2 7410   0.979   2.302   6.503
 2244SOL     OW 7411   0.549   1.925   6.085
 2244SOL    HW1 7412   0.467   1.931   6.134
 2244SOL    HW2 7413   0.555   2.008   6.038
 2245SOL     OW 7414   1.428   3.061   5.627
 2245SOL    HW1 7415   1.459   2.984   5.676
 2245SOL    HW2 7416   1.342   3.080   5.664
 2246SOL     OW 7417   0.305   1.913   5.757
 2246SOL    HW1 7418   0.370   1.953   5.699
 2246SOL    HW2 7419   0.354   1.847   5.806
 2247SOL     OW 7420   0.922   2.112   6.040
 2247SOL    HW1 7421   0.894   2.151   5.957
 2247SOL    HW2 7422   1.015   2.093   6.027
 2248SOL     OW 7423   1.070   2.543   7.051
 2248SOL    HW1 7424   1.002   2.476   7.049
 2248SOL    HW2 7425   1.149   2.498   7.023
 2249SOL     OW 7426   1.225   3.431   6.379
 2249SOL    HW1 7427   1.240   3.499   6.313
 2249SOL    HW2 7428   1.291   3.447   6.446
 2250SOL     OW 7429   0.466   3.012   6.324
 2250SOL    HW1 7430   0.393   2.989   6.382
 2250SOL    HW2 7431   0.433   2.995   6.236
 2251SOL     OW 7432   1.269   3.658   6.192
 2251SOL    HW1 7433   1.314   3.722   6.136
 2251SOL    HW2 7434   1.199   3.708   6.234
 2252SOL     OW 7435   1.023   2.405   5.608
 2252SOL    HW1 7436   0.981   2.488   5.587
 2252SOL    HW2 7437   1.092   2.427   5.671
 2253SOL     OW 7438   0.080   2.433   6.976
 2253SOL    HW1 7439   0.170   2.419   6.945
 2253SOL    HW2 7440   0.087   2.501   7.042
 2254SOL     OW 7441   0.567   2.088   6.749
 2254SOL    HW1 7442   0.606   2.009   6.785
 2254SOL    HW2 7443   0.476   2.086   6.779
 2255SOL     OW 7444   0.874   2.326   6.221
 2255SOL    HW1 7445   0.815   2.377   6.165
 2255SOL    HW2 7446   0.888   2.245   6.172
 2256SOL     OW 7447   1.437   3.019   6.447
 2256SOL    HW1 7448   1.360   2.965   6.431
 2256SOL    HW2 7449   1.472   3.037   6.359
 2257SOL     OW 7450   0.490   3.277   5.747
 2257SOL    HW1 7451   0.414   3.247   5.798
 2257SOL    HW2 7452   0.467   3.257   5.656
 2258SOL     OW 7453   1.666   3.124   6.232
 2258SOL    HW1 7454   1.760   3.126   6.246
 2258SOL    HW2 7455   1.637   3.213   6.251
 2259SOL     OW 7456   1.394   2.438   5.654
 2259SOL    HW1 7457   1.341   2.413   5.730
 2259SOL    HW2 7458   1.484   2.413   5.679
 2260SOL     OW 7459   0.574   2.131   5.909
 2260SOL    HW1 7460   0.599   2.082   5.831
 2260SOL    HW2 7461   0.539   2.213   5.874
 2261SOL     OW 7462   1.747   3.110   7.164
 2261SOL    HW1 7463   1.827   3.063   7.141
 2261SOL    HW2 7464   1.778   3.198   7.189
 2262SOL     OW 7465   1.059   3.215   6.919
 2262SOL    HW1 7466   0.985   3.184   6.971
 2262SOL    HW2 7467   1.136   3.175   6.962
 2263SOL     OW 7468   1.609   3.488   7.240
 2263SOL    HW1 7469   1.603   3.521   7.151
 2263SOL    HW2 7470   1.692   3.439   7.242
 2264SOL     OW 7471   1.130   3.064   6.692
 2264SOL    HW1 7472   1.070   3.101   6.757
 2264SOL    HW2 7473   1.095   3.094   6.608
 2265SOL     OW 7474   1.612   2.952   6.671
 2265SOL    HW1 7475   1.613   3.018   6.740
 2265SOL    HW2 7476   1.550   2.985   6.606
 2266SOL     OW 7477   0.923   1.969   6.988
 2266SOL    HW1 7478   0.936   1.944   6.896
 2266SOL    HW2 7479   1.001   2.020   7.010
 2267SOL     OW 7480   0.982   2.980   7.309
 2267SOL    HW1 7481   0.889   2.992   7.327
 2267SOL    HW2 7482   0.985   2.902   7.253
 2268SOL     OW 7483   0.707   2.922   5.957
 2268SOL    HW1 7484   0.694   2.907   6.051
 2268SOL    HW2 7485   0.784   2.869   5.935
 2269SOL     OW 7486   0.420   2.677   6.838
 2269SOL    HW1 7487   0.489   2.685   6.904
 2269SOL    HW2 7488   0.385   2.588   6.850
 2270SOL     OW 7489   1.222   2.229   6.895
 2270SOL    HW1 7490   1.278   2.307   6.895
 2270SOL    HW2 7491   1.139   2.259   6.858
 2271SOL     OW 7492   0.064   3.441   6.931
 2271SOL    HW1 7493   0.067   3.508   6.862
 2271SOL    HW2 7494   0.156   3.428   6.955
 2272SOL     OW 7495   0.375   2.964   6.071
 2272SOL    HW1 7496   0.367   3.043   6.017
 2272SOL    HW2 7497   0.373   2.892   6.009
 2273SOL     OW 7498   0.554   2.400   6.447
 2273SOL    HW1 7499   0.569   2.457   6.372
 2273SOL    HW2 7500   0.619   2.428   6.512
 2274SOL     OW 7501   1.248   3.210   5.976
 2274SOL    HW1 7502   1.304   3.281   6.006
 2274SOL    HW2 7503   1.161   3.231   6.009
 2275SOL     OW 7504   1.280   3.319   6.732
 2275SOL    HW1 7505   1.335   3.322   6.811
 2275SOL    HW2 7506   1.223   3.244   6.746
 2276SOL     OW 7507   1.568   2.489   6.059
 2276SOL    HW1 7508   1.565   2.578   6.092
 2276SOL    HW2 7509   1.618   2.496   5.977
 2277SOL     OW 7510   0.345   3.387   6.905
 2277SOL    HW1 7511   0.336   3.338   6.824
 2277SOL    HW2 7512   0.440   3.403   6.913
 2278SOL     OW 7513   0.413   2.603   7.187
 2278SOL    HW1 7514   0.474   2.649   7.130
 2278SOL    HW2 7515   0.454   2.518   7.204
 2279SOL     OW 7516   0.498   1.901   7.329
 2279SOL    HW1 7517   0.454   1.847   7.263
 2279SOL    HW2 7518   0.441   1.977   7.340
 2280SOL     OW 7519   0.582   2.736   6.616
 2280SOL    HW1 7520   0.616   2.825   6.616
 2280SOL    HW2 7521   0.528   2.731   6.695
 2281SOL     OW 7522   1.207   2.392   5.853
 2281SOL    HW1 7523   1.227   2.316   5.908
 2281SOL    HW2 7524   1.161   2.453   5.911
 2282SOL     OW 7525   0.312   2.060   6.834
 2282SOL    HW1 7526   0.265   2.098   6.908
 2282SOL    HW2 7527   0.287   1.968   6.833
 2283SOL     OW 7528   0.058   3.167   6.866
 2283SOL    HW1 7529   0.090   3.127   6.947
 2283SOL    HW2 7530   0.051   3.260   6.885
 2284SOL     OW 7531   0.725   2.495   6.646
 2284SOL    HW1 7532   0.800   2.478   6.589
 2284SOL    HW2 7533   0.698   2.584   6.624
 2285SOL     OW 7534   0.309   1.926   6.208
 2285SOL    HW1 7535   0.291   2.017   6.230
 2285SOL    HW2 7536   0.315   1.882   6.292
 2286SOL     OW 7537   1.609   2.230   5.953
 2286SOL    HW1 7538   1.622   2.156   6.012
 2286SOL    HW2 7539   1.594   2.304   6.011
 2287SOL     OW 7540   1.013   2.634   6.548
 2287SOL    HW1 7541   1.020   2.639   6.644
 2287SOL    HW2 7542   1.003   2.540   6.530
 2288SOL     OW 7543   0.985   3.430   7.303
 2288SOL    HW1 7544   0.967   3.472   7.219
 2288SOL    HW2 7545   1.026   3.346   7.280
 2289SOL     OW 7546   1.858   3.366   7.190
 2289SOL    HW1 7547   1.873   3.396   7.100
 2289SOL    HW2 7548   1.938   3.390   7.237
 2290SOL     OW 7549   0.351   2.782   7.388
 2290SOL    HW1 7550   0.430   2.802   7.438
 2290SOL    HW2 7551   0.379   2.717   7.324
 2291SOL     OW 7552   1.527   2.135   5.711
 2291SOL    HW1 7553   1.466   2.067   5.738
 2291SOL    HW2 7554   1.562   2.170   5.793
 2292SOL     OW 7555   1.294   2.690   5.619
 2292SOL    HW1 7556   1.336   2.604   5.622
 2292SOL    HW2 7557   1.324   2.728   5.537
 2293SOL     OW 7558   1.065   3.197   6.439
 2293SOL    HW1 7559   1.068   3.124   6.376
 2293SOL    HW2 7560   1.127   3.261   6.403
 2294SOL     OW 7561   0.314   2.667   6.536
 2294SOL    HW1 7562   0.407   2.686   6.532
 2294SOL    HW2 7563   0.309   2.578   6.570
 2295SOL     OW 7564   0.333   2.381   6.599
 2295SOL    HW1 7565   0.298   2.293   6.581
 2295SOL    HW2 7566   0.408   2.389   6.541
 2296SOL     OW 7567   3.999   3.183   5.768
 2296SOL    HW1 7568   3.905   3.198   5.772
 2296SOL    HW2 7569   0.009   3.089   5.787
 2297SOL     OW 7570   0.075   3.663   6.480
 2297SOL    HW1 7571   0.085   3.568   6.484
 2297SOL    HW2 7572   0.165   3.696   6.476
 2298SOL     OW 7573   0.507   3.428   6.500
 2298SOL    HW1 7574   0.574   3.493   6.521
 2298SOL    HW2 7575   0.551   3.367   6.440
 2299SOL     OW 7576   0.986   2.657   6.817
 2299SOL    HW1 7577   1.037   2.634   6.895
 2299SOL    HW2 7578   0.900   2.618   6.831
 2300SOL     OW 7579   0.038   2.416   6.696
 2300SOL    HW1 7580   0.119   2.390   6.654
 2300SOL    HW2 7581   0.057   2.414   6.790
 2301SOL     OW 7582   0.207   2.376   7.313
 2301SOL    HW1 7583   0.249   2.332   7.239
 2301SOL    HW2 7584   0.155   2.446   7.273
 2302SOL     OW 7585   1.330   2.826   7.238
 2302SOL    HW1 7586   1.379   2.908   7.239
 2302SOL    HW2 7587   1.364   2.778   7.163
 2303SOL     OW 7588   0.818   2.434   5.939
 2303SOL    HW1 7589   0.818   2.356   5.883
 2303SOL    HW2 7590   0.742   2.484   5.910
 2304SOL     OW 7591   0.297   3.409   7.317
 2304SOL    HW1 7592   0.246   3.479   7.359
 2304SOL    HW2 7593   0.262   3.328   7.355
 2305SOL     OW 7594   0.691   2.316   6.847
 2305SOL    HW1 7595   0.644   2.239   6.814
 2305SOL    HW2 7596   0.691   2.377   6.774
 2306SOL     OW 7597   0.931   3.535   7.053
 2306SOL    HW1 7598   0.903   3.501   6.968
 2306SOL    HW2 7599   0.924   3.630   7.044
 2307SOL     OW 7600   0.461   2.353   5.778
 2307SOL    HW1 7601   0.524   2.422   5.797
 2307SOL    HW2 7602   0.379   2.400   5.759
 2308SOL     OW 7603   0.157   2.998   7.059
 2308SOL    HW1 7604   0.160   2.947   7.140
 2308SOL    HW2 7605   0.172   2.935   6.989
 2309SOL     OW 7606   1.323   2.907   6.813
 2309SOL    HW1 7607   1.371   2.878   6.736
 2309SOL    HW2 7608   1.247   2.954   6.778
 2310SOL     OW 7609   1.311   2.716   5.895
 2310SOL    HW1 7610   1.230   2.691   5.940
 2310SOL    HW2 7611   1.290   2.704   5.802
 2311SOL     OW 7612   1.768   3.607   6.734
 2311SOL    HW1 7613   1.831   3.634   6.667
 2311SOL    HW2 7614   1.747   3.516   6.712
 2312SOL     OW 7615   1.243   3.596   6.699
 2312SOL    HW1 7616   1.326   3.615   6.654
 2312SOL    HW2 7617   1.247   3.502   6.718
 2313SOL     OW 7618   0.075   3.078   6.613
 2313SOL    HW1 7619   0.082   3.104   6.705
 2313SOL    HW2 7620   3.982   3.086   6.593
 2314SOL     OW 7621   0.679   3.525   7.314
 2314SOL    HW1 7622   0.623   3.603   7.317
 2314SOL    HW2 7623   0.738   3.541   7.240
 2315SOL     OW 7624   1.671   1.992   6.074
 2315SOL    HW1 7625   1.760   1.981   6.040
 2315SOL    HW2 7626   1.661   1.923   6.139
 2316SOL     OW 7627   1.390   3.431   6.070
 2316SOL    HW1 7628   1.450   3.463   6.003
 2316SOL    HW2 7629   1.343   3.509   6.099
 2317SOL     OW 7630   0.167   3.628   7.417
 2317SOL    HW1 7631   0.110   3.577   7.474
 2317SOL    HW2 7632   0.214   3.686   7.476
 2318SOL     OW 7633   1.265   2.794   6.247
 2318SOL    HW1 7634   1.332   2.726   6.251
 2318SOL    HW2 7635   1.306   2.864   6.195
 2319SOL     OW 7636   0.816   3.135   7.017
 2319SOL    HW1 7637   0.788   3.174   7.099
 2319SOL    HW2 7638   0.745   3.155   6.956
 2320SOL     OW 7639   0.675   3.476   5.743
 2320SOL    HW1 7640   0.682   3.492   5.648
 2320SOL    HW2 7641   0.618   3.400   5.750
 2321SOL     OW 7642   1.628   3.588   6.977
 2321SOL    HW1 7643   1.677   3.594   6.895
 2321SOL    HW2 7644   1.614   3.678   7.004
 2322SOL     OW 7645   0.268   2.178   6.304
 2322SOL    HW1 7646   0.183   2.212   6.277
 2322SOL    HW2 7647   0.261   2.167   6.399
 2323SOL     OW 7648   1.207   3.468   5.621
 2323SOL    HW1 7649   1.197   3.376   5.645
 2323SOL    HW2 7650   1.146   3.481   5.548
 2324SOL     OW 7651   0.822   2.868   6.957
 2324SOL    HW1 7652   0.868   2.863   6.873
 2324SOL    HW2 7653   0.824   2.961   6.980
 2325SOL     OW 7654   0.916   2.773   5.876
 2325SOL    HW1 7655   0.976   2.806   5.809
 2325SOL    HW2 7656   0.963   2.701   5.917
 2326SOL     OW 7657   1.491   3.489   5.628
 2326SOL    HW1 7658   1.397   3.480   5.612
 2326SOL    HW2 7659   1.529   3.494   5.540
 2327SOL     OW 7660   0.373   3.165   7.077
 2327SOL    HW1 7661   0.359   3.245   7.027
 2327SOL    HW2 7662   0.296   3.111   7.060
 2328SOL     OW 7663   1.608   3.144   6.864
 2328SOL    HW1 7664   1.666   3.132   6.939
 2328SOL    HW2 7665   1.548   3.214   6.892
 2329SOL     OW 7666   1.052   2.967   6.293
 2329SOL    HW1 7667   0.981   2.918   6.332
 2329SOL    HW2 7668   1.116   2.901   6.266
 2330SOL     OW 7669   0.604   3.353   6.067
 2330SOL    HW1 7670   0.646   3.302   5.998
 2330SOL    HW2 7671   0.535   3.401   6.022
 2331SOL     OW 7672   0.252   3.204   5.877
 2331SOL    HW1 7673   0.160   3.214   5.856
 2331SOL    HW2 7674   0.263   3.241   5.964
 2332SOL     OW 7675   0.105   2.862   7.304
 2332SOL    HW1 7676   0.044   2.851   7.376
 2332SOL    HW2 7677   0.191   2.842   7.341
 2333SOL     OW 7678   0.670   2.057   7.081
 2333SOL    HW1 7679   0.756   2.040   7.042
 2333SOL    HW2 7680   0.690   2.087   7.170
 2334SOL     OW 7681   0.080   2.181   5.623
 2334SOL    HW1 7682   3.985   2.180   5.628
 2334SOL    HW2 7683   0.101   2.261   5.575
 2335SOL     OW 7684   1.436   2.728   6.991
 2335SOL    HW1 7685   1.388   2.791   6.938
 2335SOL    HW2 7686   1.526   2.733   6.959
 2336SOL     OW 7687   0.024   2.085   5.955
 2336SOL    HW1 7688   0.046   2.151   5.890
 2336SOL    HW2 7689   0.109   2.050   5.983
 2337SOL     OW 7690   1.179   3.202   5.703
 2337SOL    HW1 7691   1.088   3.173   5.705
 2337SOL    HW2 7692   1.206   3.201   5.795
 2338SOL     OW 7693   0.618   2.693   7.021
 2338SOL    HW1 7694   0.674   2.769   7.005
 2338SOL    HW2 7695   0.680   2.619   7.029
 2339SOL     OW 7696   1.486   3.638   6.564
 2339SOL    HW1 7697   1.510   3.694   6.490
 2339SOL    HW2 7698   1.568   3.620   6.609
 2340SOL     OW 7699   0.717   2.430   7.294
 2340SOL    HW1 7700   0.756   2.497   7.349
 2340SOL    HW2 7701   0.755   2.348   7.326
 2341SOL     OW 7702   1.473   3.066   7.220
 2341SOL    HW1 7703   1.463   3.077   7.315
 2341SOL    HW2 7704   1.566   3.082   7.204
 2342SOL     OW 7705   0.379   3.605   7.145
 2342SOL    HW1 7706   0.292   3.641   7.131
 2342SOL    HW2 7707   0.365   3.523   7.192
 2343SOL     OW 7708   1.669   2.739   6.846
 2343SOL    HW1 7709   1.685   2.662   6.791
 2343SOL    HW2 7710   1.663   2.812   6.784
 2344SOL     OW 7711   0.593   2.600   6.253
 2344SOL    HW1 7712   0.629   2.687   6.240
 2344SOL    HW2 7713   0.523   2.593   6.188
 2345SOL     OW 7714   1.756   2.241   7.218
 2345SOL    HW1 7715   1.776   2.236   7.124
 2345SOL    HW2 7716   1.691   2.173   7.232
 2346SOL     OW 7717   0.864   3.230   5.620
 2346SOL    HW1 7718   0.822   3.258   5.701
 2346SOL    HW2 7719   0.880   3.311   5.572
 2347SOL     OW 7720   0.658   3.653   6.527
 2347SOL    HW1 7721   0.636   3.744   6.506
 2347SOL    HW2 7722   0.754   3.651   6.523
 2348SOL     OW 7723   0.864   2.831   6.438
 2348SOL    HW1 7724   0.916   2.759   6.475
 2348SOL    HW2 7725   0.833   2.879   6.515
 2349SOL     OW 7726   1.079   2.849   5.674
 2349SOL    HW1 7727   1.058   2.900   5.596
 2349SOL    HW2 7728   1.155   2.797   5.649
 2350SOL     OW 7729   1.855   3.416   6.429
 2350SOL    HW1 7730   1.775   3.403   6.377
 2350SOL    HW2 7731   1.849   3.350   6.498
 2351SOL     OW 7732   0.223   3.166   7.441
 2351SOL    HW1 7733   0.153   3.106   7.416
 2351SOL    HW2 7734   0.211   3.179   7.535
 2352SOL     OW 7735   0.110   3.135   6.303
 2352SOL    HW1 7736   0.122   3.085   6.383
 2352SOL    HW2 7737   0.110   3.070   6.233
 2353SOL     OW 7738   0.681   3.264   7.214
 2353SOL    HW1 7739   0.600   3.222   7.243
 2353SOL    HW2 7740   0.676   3.352   7.251
 2354SOL     OW 7741   0.441   2.296   6.119
 2354SOL    HW1 7742   0.443   2.227   6.053
 2354SOL    HW2 7743   0.386   2.261   6.189
 2355SOL     OW 7744   1.701   3.351   6.683
 2355SOL    HW1 7745   1.619   3.328   6.638
 2355SOL    HW2 7746   1.712   3.284   6.750
 2356SOL     OW 7747   0.332   2.416   6.877
 2356SOL    HW1 7748   0.387   2.360   6.931
 2356SOL    HW2 7749   0.348   2.387   6.787
 2357SOL     OW 7750   0.826   3.440   6.264
 2357SOL    HW1 7751   0.816   3.488   6.181
 2357SOL    HW2 7752   0.750   3.383   6.267
 2358SOL     OW 7753   0.986   1.889   6.733
 2358SOL    HW1 7754   0.944   1.827   6.673
 2358SOL    HW2 7755   1.079   1.871   6.725
 2359SOL     OW 7756   0.771   3.194   5.901
 2359SOL    HW1 7757   0.739   3.104   5.906
 2359SOL    HW2 7758   0.854   3.192   5.948
 2360SOL     OW 7759   0.620   3.418   6.870
 2360SOL    HW1 7760   0.622   3.499   6.921
 2360SOL    HW2 7761   0.708   3.411   6.832
 2361SOL     OW 7762   1.348   1.925   5.742
 2361SOL    HW1 7763   1.384   1.851   5.692
 2361SOL    HW2 7764   1.268   1.890   5.782
 2362SOL     OW 7765   0.045   2.914   5.825
 2362SOL    HW1 7766   0.139   2.897   5.817
 2362SOL    HW2 7767   0.010   2.833   5.863
 2363SOL     OW 7768   0.883   3.516   5.931
 2363SOL    HW1 7769   0.813   3.497   5.869
 2363SOL    HW2 7770   0.852   3.593   5.979
 2364SOL     OW 7771   0.231   2.484   7.569
 2364SOL    HW1 7772   0.138   2.493   7.589
 2364SOL    HW2 7773   0.233   2.455   7.478
 2365SOL     OW 7774   0.228   2.133   8.435
 2365SOL    HW1 7775   0.249   2.101   8.523
 2365SOL    HW2 7776   0.133   2.124   8.428
 2366SOL     OW 7777   0.012   2.225   8.081
 2366SOL    HW1 7778   3.925   2.242   8.117
 2366SOL    HW2 7779   3.995   2.189   7.994
 2367SOL     OW 7780   0.576   3.144   8.631
 2367SOL    HW1 7781   0.490   3.149   8.590
 2367SOL    HW2 7782   0.592   3.233   8.665
 2368SOL     OW 7783   1.559   3.375   8.156
 2368SOL    HW1 7784   1.516   3.353   8.239
 2368SOL    HW2 7785   1.488   3.377   8.092
 2369SOL     OW 7786   1.129   2.562   8.154
 2369SOL    HW1 7787   1.179   2.641   8.135
 2369SOL    HW2 7788   1.084   2.581   8.237
 2370SOL     OW 7789   0.758   3.004   8.487
 2370SOL    HW1 7790   0.691   3.038   8.546
 2370SOL    HW2 7791   0.792   3.082   8.442
 2371SOL     OW 7792   0.865   2.638   9.269
 2371SOL    HW1 7793   0.855   2.710   9.332
 2371SOL    HW2 7794   0.889   2.681   9.187
 2372SOL     OW 7795   0.686   2.867   8.095
 2372SOL    HW1 7796   0.751   2.853   8.164
 2372SOL    HW2 7797   0.616   2.917   8.138
 2373SOL     OW 7798   0.709   3.013   9.260
 2373SOL    HW1 7799   0.757   3.091   9.286
 2373SOL    HW2 7800   0.627   3.045   9.225
 2374SOL     OW 7801   0.351   3.265   8.526
 2374SOL    HW1 7802   0.268   3.250   8.479
 2374SOL    HW2 7803   0.400   3.324   8.470
 2375SOL     OW 7804   1.461   3.361   8.801
 2375SOL    HW1 7805   1.510   3.442   8.811
 2375SOL    HW2 7806   1.400   3.360   8.875
 2376SOL     OW 7807   0.450   2.263   8.940
 2376SOL    HW1 7808   0.524   2.203   8.941
 2376SOL    HW2 7809   0.373   2.207   8.950
 2377SOL     OW 7810   0.225   3.572   7.915
 2377SOL    HW1 7811   0.231   3.651   7.967
 2377SOL    HW2 7812   0.302   3.575   7.857
 2378SOL     OW 7813   1.136   3.203   9.140
 2378SOL    HW1 7814   1.177   3.198   9.227
 2378SOL    HW2 7815   1.084   3.123   9.134
 2379SOL     OW 7816   0.246   3.305   7.987
 2379SOL    HW1 7817   0.219   3.396   7.975
 2379SOL    HW2 7818   0.176   3.267   8.040
 2380SOL     OW 7819   0.245   2.931   8.332
 2380SOL    HW1 7820   0.264   2.848   8.374
 2380SOL    HW2 7821   0.194   2.980   8.397
 2381SOL     OW 7822   0.614   3.649   8.878
 2381SOL    HW1 7823   0.531   3.634   8.923
 2381SOL    HW2 7824   0.639   3.738   8.902
 2382SOL     OW 7825   0.582   2.846   7.584
 2382SOL    HW1 7826   0.628   2.893   7.514
 2382SOL    HW2 7827   0.625   2.874   7.664
 2383SOL     OW 7828   1.588   1.989   8.911
 2383SOL    HW1 7829   1.578   2.074   8.867
 2383SOL    HW2 7830   1.582   2.010   9.005
 2384SOL     OW 7831   0.141   2.510   8.022
 2384SOL    HW1 7832   0.086   2.432   8.022
 2384SOL    HW2 7833   0.104   2.565   8.091
 2385SOL     OW 7834   1.841   3.614   7.786
 2385SOL    HW1 7835   1.906   3.589   7.852
 2385SOL    HW2 7836   1.865   3.704   7.762
 2386SOL     OW 7837   0.041   3.455   7.589
 2386SOL    HW1 7838   0.032   3.362   7.610
 2386SOL    HW2 7839   3.962   3.496   7.624
 2387SOL     OW 7840   1.694   2.786   8.093
 2387SOL    HW1 7841   1.773   2.740   8.064
 2387SOL    HW2 7842   1.661   2.829   8.014
 2388SOL     OW 7843   1.636   2.973   7.884
 2388SOL    HW1 7844   1.717   2.977   7.833
 2388SOL    HW2 7845   1.651   3.034   7.957
 2389SOL     OW 7846   0.134   2.613   9.039
 2389SOL    HW1 7847   0.229   2.608   9.042
 2389SOL    HW2 7848   0.115   2.706   9.057
 2390SOL     OW 7849   0.614   3.246   8.182
 2390SOL    HW1 7850   0.567   3.163   8.192
 2390SOL    HW2 7851   0.597   3.273   8.092
 2391SOL     OW 7852   1.289   3.100   8.872
 2391SOL    HW1 7853   1.321   3.033   8.812
 2391SOL    HW2 7854   1.346   3.093   8.948
 2392SOL     OW 7855   0.817   1.865   7.957
 2392SOL    HW1 7856   0.856   1.950   7.939
 2392SOL    HW2 7857   0.723   1.882   7.965
 2393SOL     OW 7858   0.185   2.816   8.725
 2393SOL    HW1 7859   0.273   2.781   8.710
 2393SOL    HW2 7860   0.131   2.772   8.658
 2394SOL     OW 7861   1.210   3.664   9.073
 2394SOL    HW1 7862   1.194   3.724   9.000
 2394SOL    HW2 7863   1.213   3.577   9.033
 2395SOL     OW 7864   0.338   2.109   9.261
 2395SOL    HW1 7865   0.379   2.196   9.267
 2395SOL    HW2 7866   0.247   2.124   9.286
 2396SOL     OW 7867   1.466   3.282   8.400
 2396SOL    HW1 7868   1.398   3.296   8.465
 2396SOL    HW2 7869   1.454   3.191   8.373
 2397SOL     OW 7870   1.658   3.598   8.027
 2397SOL    HW1 7871   1.640   3.568   7.938
 2397SOL    HW2 7872   1.632   3.524   8.083
 2398SOL     OW 7873   0.596   2.581   7.711
 2398SOL    HW1 7874   0.604   2.664   7.663
 2398SOL    HW2 7875   0.533   2.600   7.781
 2399SOL     OW 7876   1.282   2.216   8.388
 2399SOL    HW1 7877   1.192   2.181   8.392
 2399SOL    HW2 7878   1.332   2.159   8.446
 2400SOL     OW 7879   1.579   3.535   7.756
 2400SOL    HW1 7880   1.670   3.563   7.751
 2400SOL    HW2 7881   1.554   3.516   7.666
 2401SOL     OW 7882   0.792   2.479   8.900
 2401SOL    HW1 7883   0.765   2.456   8.989
 2401SOL    HW2 7884   0.751   2.413   8.844
 2402SOL     OW 7885   1.394   2.335   9.125
 2402SOL    HW1 7886   1.395   2.380   9.210
 2402SOL    HW2 7887   1.458   2.265   9.135
 2403SOL     OW 7888   0.955   2.750   9.030
 2403SOL    HW1 7889   1.010   2.679   8.995
 2403SOL    HW2 7890   0.908   2.783   8.954
 2404SOL     OW 7891   0.993   2.273   8.688
 2404SOL    HW1 7892   0.907   2.296   8.724
 2404SOL    HW2 7893   0.973   2.230   8.605
 2405SOL     OW 7894   1.034   2.568   7.885
 2405SOL    HW1 7895   1.056   2.555   7.978
 2405SOL    HW2 7896   0.956   2.515   7.871
 2406SOL     OW 7897   0.081   2.687   8.239
 2406SOL    HW1 7898   0.161   2.658   8.284
 2406SOL    HW2 7899   0.092   2.781   8.229
 2407SOL     OW 7900   0.128   3.712   9.022
 2407SOL    HW1 7901   0.134   3.682   9.112
 2407SOL    HW2 7902   0.035   3.701   8.999
 2408SOL     OW 7903   0.879   2.212   7.643
 2408SOL    HW1 7904   0.918   2.280   7.589
 2408SOL    HW2 7905   0.923   2.131   7.617
 2409SOL     OW 7906   1.707   2.440   9.280
 2409SOL    HW1 7907   1.671   2.511   9.227
 2409SOL    HW2 7908   1.737   2.375   9.217
 2410SOL     OW 7909   1.377   3.003   7.988
 2410SOL    HW1 7910   1.458   2.989   7.939
 2410SOL    HW2 7911   1.327   3.066   7.935
 2411SOL     OW 7912   0.544   2.042   8.341
 2411SOL    HW1 7913   0.552   2.073   8.431
 2411SOL    HW2 7914   0.548   2.121   8.287
 2412SOL     OW 7915   1.008   3.308   7.920
 2412SOL    HW1 7916   0.967   3.380   7.872
 2412SOL    HW2 7917   0.990   3.328   8.012
 2413SOL     OW 7918   0.359   3.668   8.306
 2413SOL    HW1 7919   0.434   3.610   8.315
 2413SOL    HW2 7920   0.395   3.756   8.315
 2414SOL     OW 7921   1.800   2.923   8.316
 2414SOL    HW1 7922   1.747   2.899   8.239
 2414SOL    HW2 7923   1.737   2.927   8.388
 2415SOL     OW 7924   1.228   3.399   8.959
 2415SOL    HW1 7925   1.213   3.327   9.020
 2415SOL    HW2 7926   1.163   3.385   8.890
 2416SOL     OW 7927   0.311   2.817   7.690
 2416SOL    HW1 7928   0.395   2.840   7.652
 2416SOL    HW2 7929   0.296   2.726   7.664
 2417SOL     OW 7930   1.481   2.605   8.180
 2417SOL    HW1 7931   1.472   2.550   8.258
 2417SOL    HW2 7932   1.558   2.658   8.196
 2418SOL     OW 7933   0.465   3.121   9.185
 2418SOL    HW1 7934   0.439   3.130   9.093
 2418SOL    HW2 7935   0.383   3.127   9.234
 2419SOL     OW 7936   1.113   3.642   7.672
 2419SOL    HW1 7937   1.051   3.594   7.727
 2419SOL    HW2 7938   1.142   3.578   7.607
 2420SOL     OW 7939   0.204   2.142   8.955
 2420SOL    HW1 7940   0.114   2.173   8.944
 2420SOL    HW2 7941   0.195   2.059   9.001
 2421SOL     OW 7942   1.628   3.243   7.535
 2421SOL    HW1 7943   1.587   3.328   7.518
 2421SOL    HW2 7944   1.559   3.179   7.519
 2422SOL     OW 7945   0.469   3.599   7.769
 2422SOL    HW1 7946   0.506   3.663   7.830
 2422SOL    HW2 7947   0.542   3.573   7.714
 2423SOL     OW 7948   0.251   3.656   8.678
 2423SOL    HW1 7949   0.298   3.592   8.731
 2423SOL    HW2 7950   0.247   3.616   8.591
 2424SOL     OW 7951   0.937   3.561   8.349
 2424SOL    HW1 7952   1.015   3.508   8.369
 2424SOL    HW2 7953   0.892   3.512   8.280
 2425SOL     OW 7954   0.395   2.556   7.921
 2425SOL    HW1 7955   0.423   2.466   7.934
 2425SOL    HW2 7956   0.303   2.557   7.948
 2426SOL     OW 7957   1.538   2.086   9.173
 2426SOL    HW1 7958   1.550   2.108   9.265
 2426SOL    HW2 7959   1.467   2.022   9.172
 2427SOL     OW 7960   0.628   1.981   7.551
 2427SOL    HW1 7961   0.692   1.913   7.572
 2427SOL    HW2 7962   0.585   1.949   7.472
 2428SOL     OW 7963   0.767   2.139   9.201
 2428SOL    HW1 7964   0.842   2.080   9.204
 2428SOL    HW2 7965   0.718   2.120   9.282
 2429SOL     OW 7966   0.876   3.382   8.642
 2429SOL    HW1 7967   0.861   3.347   8.554
 2429SOL    HW2 7968   0.946   3.328   8.678
 2430SOL     OW 7969   1.342   2.450   8.880
 2430SOL    HW1 7970   1.372   2.419   8.965
 2430SOL    HW2 7971   1.377   2.539   8.872
 2431SOL     OW 7972   0.814   3.258   8.386
 2431SOL    HW1 7973   0.899   3.246   8.342
 2431SOL    HW2 7974   0.750   3.257   8.314
 2432SOL     OW 7975   0.927   2.371   8.352
 2432SOL    HW1 7976   0.904   2.364   8.259
 2432SOL    HW2 7977   0.960   2.284   8.375
 2433SOL     OW 7978   0.553   1.924   7.947
 2433SOL    HW1 7979   0.470   1.929   7.996
 2433SOL    HW2 7980   0.557   2.006   7.899
 2434SOL     OW 7981   1.429   3.061   7.494
 2434SOL    HW1 7982   1.445   2.977   7.538
 2434SOL    HW2 7983   1.341   3.086   7.523
 2435SOL     OW 7984   0.305   1.912   7.618
 2435SOL    HW1 7985   0.371   1.953   7.562
 2435SOL    HW2 7986   0.354   1.847   7.668
 2436SOL     OW 7987   0.937   2.107   7.910
 2436SOL    HW1 7988   0.906   2.157   7.835
 2436SOL    HW2 7989   1.031   2.123   7.913
 2437SOL     OW 7990   1.080   2.542   8.908
 2437SOL    HW1 7991   1.011   2.476   8.912
 2437SOL    HW2 7992   1.161   2.491   8.900
 2438SOL     OW 7993   1.223   3.432   8.242
 2438SOL    HW1 7994   1.241   3.500   8.176
 2438SOL    HW2 7995   1.292   3.444   8.307
 2439SOL     OW 7996   0.466   3.012   8.187
 2439SOL    HW1 7997   0.393   2.989   8.244
 2439SOL    HW2 7998   0.433   2.995   8.098
 2440SOL     OW 7999   1.269   3.658   8.054
 2440SOL    HW1 8000   1.314   3.722   7.998
 2440SOL    HW2 8001   1.199   3.708   8.096
 2441SOL     OW 8002   0.990   2.400   7.486
 2441SOL    HW1 8003   0.968   2.488   7.456
 2441SOL    HW2 8004   1.075   2.410   7.530
 2442SOL     OW 8005   0.080   2.432   8.838
 2442SOL    HW1 8006   0.170   2.419   8.808
 2442SOL    HW2 8007   0.087   2.502   8.904
 2443SOL     OW 8008   0.567   2.089   8.612
 2443SOL    HW1 8009   0.606   2.011   8.650
 2443SOL    HW2 8010   0.476   2.087   8.641
 2444SOL     OW 8011   0.866   2.322   8.088
 2444SOL    HW1 8012   0.821   2.374   8.021
 2444SOL    HW2 8013   0.888   2.240   8.044
 2445SOL     OW 8014   0.998   1.923   8.211
 2445SOL    HW1 8015   0.956   1.912   8.126
 2445SOL    HW2 8016   0.981   1.841   8.257
 2446SOL     OW 8017   1.436   3.025   8.305
 2446SOL    HW1 8018   1.368   2.957   8.303
 2446SOL    HW2 8019   1.462   3.035   8.213
 2447SOL     OW 8020   1.462   2.465   8.429
 2447SOL    HW1 8021   1.411   2.384   8.434
 2447SOL    HW2 8022   1.525   2.459   8.501
 2448SOL     OW 8023   1.833   2.687   7.835
 2448SOL    HW1 8024   1.881   2.637   7.902
 2448SOL    HW2 8025   1.822   2.626   7.763
 2449SOL     OW 8026   0.489   3.277   7.609
 2449SOL    HW1 8027   0.414   3.247   7.660
 2449SOL    HW2 8028   0.468   3.256   7.518
 2450SOL     OW 8029   1.671   3.130   8.098
 2450SOL    HW1 8030   1.766   3.134   8.111
 2450SOL    HW2 8031   1.641   3.218   8.118
 2451SOL     OW 8032   0.571   2.130   7.773
 2451SOL    HW1 8033   0.597   2.081   7.695
 2451SOL    HW2 8034   0.541   2.215   7.739
 2452SOL     OW 8035   1.753   3.101   9.022
 2452SOL    HW1 8036   1.840   3.061   9.019
 2452SOL    HW2 8037   1.768   3.191   9.050
 2453SOL     OW 8038   1.059   3.216   8.782
 2453SOL    HW1 8039   0.984   3.184   8.834
 2453SOL    HW2 8040   1.135   3.174   8.823
 2454SOL     OW 8041   1.608   3.487   9.102
 2454SOL    HW1 8042   1.602   3.521   9.013
 2454SOL    HW2 8043   1.691   3.441   9.104
 2455SOL     OW 8044   1.129   3.066   8.554
 2455SOL    HW1 8045   1.069   3.103   8.619
 2455SOL    HW2 8046   1.095   3.096   8.470
 2456SOL     OW 8047   1.629   2.961   8.526
 2456SOL    HW1 8048   1.625   3.023   8.598
 2456SOL    HW2 8049   1.549   2.976   8.475
 2457SOL     OW 8050   0.918   1.959   8.846
 2457SOL    HW1 8051   0.940   1.941   8.755
 2457SOL    HW2 8052   0.997   1.999   8.882
 2458SOL     OW 8053   0.984   2.976   9.171
 2458SOL    HW1 8054   0.892   2.992   9.191
 2458SOL    HW2 8055   0.983   2.899   9.114
 2459SOL     OW 8056   0.708   2.921   7.819
 2459SOL    HW1 8057   0.696   2.906   7.912
 2459SOL    HW2 8058   0.785   2.868   7.796
 2460SOL     OW 8059   0.420   2.677   8.700
 2460SOL    HW1 8060   0.489   2.685   8.766
 2460SOL    HW2 8061   0.386   2.588   8.712
 2461SOL     OW 8062   1.267   2.238   8.723
 2461SOL    HW1 8063   1.299   2.316   8.768
 2461SOL    HW2 8064   1.177   2.260   8.698
 2462SOL     OW 8065   0.064   3.441   8.793
 2462SOL    HW1 8066   0.067   3.508   8.724
 2462SOL    HW2 8067   0.156   3.428   8.817
 2463SOL     OW 8068   0.374   2.964   7.934
 2463SOL    HW1 8069   0.368   3.042   7.879
 2463SOL    HW2 8070   0.374   2.891   7.872
 2464SOL     OW 8071   0.552   2.401   8.311
 2464SOL    HW1 8072   0.568   2.456   8.234
 2464SOL    HW2 8073   0.619   2.427   8.374
 2465SOL     OW 8074   1.248   3.211   7.836
 2465SOL    HW1 8075   1.304   3.281   7.868
 2465SOL    HW2 8076   1.161   3.231   7.871
 2466SOL     OW 8077   1.279   3.320   8.594
 2466SOL    HW1 8078   1.335   3.321   8.673
 2466SOL    HW2 8079   1.225   3.242   8.606
 2467SOL     OW 8080   1.551   2.587   7.903
 2467SOL    HW1 8081   1.534   2.586   7.997
 2467SOL    HW2 8082   1.646   2.591   7.896
 2468SOL     OW 8083   0.346   3.387   8.767
 2468SOL    HW1 8084   0.336   3.338   8.686
 2468SOL    HW2 8085   0.440   3.403   8.775
 2469SOL     OW 8086   0.413   2.602   9.049
 2469SOL    HW1 8087   0.474   2.649   8.992
 2469SOL    HW2 8088   0.454   2.518   9.065
 2470SOL     OW 8089   1.600   2.640   9.128
 2470SOL    HW1 8090   1.514   2.682   9.122
 2470SOL    HW2 8091   1.653   2.683   9.060
 2471SOL     OW 8092   0.996   1.984   9.204
 2471SOL    HW1 8093   1.051   2.057   9.174
 2471SOL    HW2 8094   1.045   1.905   9.178
 2472SOL     OW 8095   0.498   1.900   9.193
 2472SOL    HW1 8096   0.455   1.847   9.126
 2472SOL    HW2 8097   0.441   1.977   9.202
 2473SOL     OW 8098   0.584   2.735   8.480
 2473SOL    HW1 8099   0.615   2.825   8.477
 2473SOL    HW2 8100   0.528   2.731   8.557
 2474SOL     OW 8101   1.359   2.719   8.481
 2474SOL    HW1 8102   1.279   2.714   8.428
 2474SOL    HW2 8103   1.399   2.633   8.472
 2475SOL     OW 8104   1.160   2.386   7.723
 2475SOL    HW1 8105   1.186   2.318   7.785
 2475SOL    HW2 8106   1.136   2.460   7.778
 2476SOL     OW 8107   0.312   2.060   8.696
 2476SOL    HW1 8108   0.265   2.098   8.770
 2476SOL    HW2 8109   0.286   1.968   8.695
 2477SOL     OW 8110   0.056   3.166   8.728
 2477SOL    HW1 8111   0.090   3.128   8.809
 2477SOL    HW2 8112   0.050   3.260   8.747
 2478SOL     OW 8113   0.726   2.494   8.508
 2478SOL    HW1 8114   0.799   2.476   8.448
 2478SOL    HW2 8115   0.698   2.583   8.484
 2479SOL     OW 8116   1.734   2.821   9.300
 2479SOL    HW1 8117   1.688   2.760   9.242
 2479SOL    HW2 8118   1.674   2.834   9.373
 2480SOL     OW 8119   0.310   1.926   8.069
 2480SOL    HW1 8120   0.292   2.017   8.091
 2480SOL    HW2 8121   0.315   1.881   8.154
 2481SOL     OW 8122   1.025   2.622   8.409
 2481SOL    HW1 8123   1.024   2.639   8.503
 2481SOL    HW2 8124   1.000   2.530   8.401
 2482SOL     OW 8125   0.985   3.429   9.165
 2482SOL    HW1 8126   0.967   3.472   9.082
 2482SOL    HW2 8127   1.027   3.346   9.142
 2483SOL     OW 8128   1.855   3.368   9.053
 2483SOL    HW1 8129   1.873   3.395   8.963
 2483SOL    HW2 8130   1.936   3.389   9.100
 2484SOL     OW 8131   0.351   2.782   9.250
 2484SOL    HW1 8132   0.431   2.803   9.299
 2484SOL    HW2 8133   0.379   2.716   9.186
 2485SOL     OW 8134   1.065   3.197   8.301
 2485SOL    HW1 8135   1.068   3.124   8.239
 2485SOL    HW2 8136   1.127   3.261   8.266
 2486SOL     OW 8137   0.314   2.667   8.399
 2486SOL    HW1 8138   0.407   2.685   8.391
 2486SOL    HW2 8139   0.309   2.578   8.431
 2487SOL     OW 8140   0.331   2.381   8.462
 2487SOL    HW1 8141   0.297   2.294   8.443
 2487SOL    HW2 8142   0.407   2.390   8.404
 2488SOL     OW 8143   1.134   2.238   9.130
 2488SOL    HW1 8144   1.087   2.293   9.192
 2488SOL    HW2 8145   1.222   2.275   9.126
 2489SOL     OW 8146   1.161   2.065   8.918
 2489SOL    HW1 8147   1.151   2.128   8.990
 2489SOL    HW2 8148   1.199   2.116   8.847
 2490SOL     OW 8149   3.999   3.183   7.630
 2490SOL    HW1 8150   3.905   3.198   7.634
 2490SOL    HW2 8151   0.009   3.089   7.649
 2491SOL     OW 8152   0.075   3.663   8.342
 2491SOL    HW1 8153   0.085   3.568   8.345
 2491SOL    HW2 8154   0.165   3.696   8.338
 2492SOL     OW 8155   0.507   3.428   8.362
 2492SOL    HW1 8156   0.574   3.493   8.383
 2492SOL    HW2 8157   0.550   3.368   8.302
 2493SOL     OW 8158   0.984   2.655   8.676
 2493SOL    HW1 8159   1.039   2.631   8.751
 2493SOL    HW2 8160   0.899   2.617   8.696
 2494SOL     OW 8161   0.037   2.415   8.558
 2494SOL    HW1 8162   0.119   2.391   8.515
 2494SOL    HW2 8163   0.058   2.413   8.652
 2495SOL     OW 8164   0.206   2.376   9.175
 2495SOL    HW1 8165   0.249   2.333   9.101
 2495SOL    HW2 8166   0.156   2.447   9.134
 2496SOL     OW 8167   1.376   2.802   9.107
 2496SOL    HW1 8168   1.398   2.895   9.105
 2496SOL    HW2 8169   1.374   2.776   9.014
 2497SOL     OW 8170   0.809   2.426   7.813
 2497SOL    HW1 8171   0.820   2.356   7.749
 2497SOL    HW2 8172   0.740   2.482   7.777
 2498SOL     OW 8173   1.644   2.464   8.634
 2498SOL    HW1 8174   1.633   2.408   8.711
 2498SOL    HW2 8175   1.730   2.439   8.599
 2499SOL     OW 8176   0.297   3.409   9.179
 2499SOL    HW1 8177   0.246   3.479   9.221
 2499SOL    HW2 8178   0.262   3.328   9.217
 2500SOL     OW 8179   0.699   2.314   8.709
 2500SOL    HW1 8180   0.649   2.239   8.677
 2500SOL    HW2 8181   0.697   2.377   8.636
 2501SOL     OW 8182   0.930   3.536   8.915
 2501SOL    HW1 8183   0.903   3.501   8.830
 2501SOL    HW2 8184   0.923   3.631   8.906
 2502SOL     OW 8185   0.460   2.353   7.640
 2502SOL    HW1 8186   0.525   2.420   7.658
 2502SOL    HW2 8187   0.379   2.401   7.621
 2503SOL     OW 8188   0.157   2.998   8.921
 2503SOL    HW1 8189   0.160   2.947   9.002
 2503SOL    HW2 8190   0.172   2.935   8.851
 2504SOL     OW 8191   1.327   2.910   8.672
 2504SOL    HW1 8192   1.349   2.845   8.604
 2504SOL    HW2 8193   1.256   2.961   8.633
 2505SOL     OW 8194   1.768   3.607   8.596
 2505SOL    HW1 8195   1.831   3.634   8.529
 2505SOL    HW2 8196   1.747   3.516   8.574
 2506SOL     OW 8197   1.243   3.596   8.561
 2506SOL    HW1 8198   1.326   3.615   8.516
 2506SOL    HW2 8199   1.247   3.502   8.580
 2507SOL     OW 8200   0.075   3.078   8.476
 2507SOL    HW1 8201   0.082   3.104   8.567
 2507SOL    HW2 8202   3.982   3.086   8.455
 2508SOL     OW 8203   0.679   3.525   9.175
 2508SOL    HW1 8204   0.623   3.603   9.179
 2508SOL    HW2 8205   0.738   3.541   9.102
 2509SOL     OW 8206   1.689   1.957   7.954
 2509SOL    HW1 8207   1.778   1.954   7.919
 2509SOL    HW2 8208   1.676   1.872   7.995
 2510SOL     OW 8209   1.390   3.431   7.932
 2510SOL    HW1 8210   1.450   3.463   7.865
 2510SOL    HW2 8211   1.343   3.509   7.962
 2511SOL     OW 8212   0.167   3.628   9.278
 2511SOL    HW1 8213   0.110   3.577   9.336
 2511SOL    HW2 8214   0.214   3.686   9.337
 2512SOL     OW 8215   1.279   2.789   8.124
 2512SOL    HW1 8216   1.351   2.726   8.128
 2512SOL    HW2 8217   1.312   2.860   8.068
 2513SOL     OW 8218   0.815   3.135   8.879
 2513SOL    HW1 8219   0.787   3.174   8.961
 2513SOL    HW2 8220   0.745   3.155   8.817
 2514SOL     OW 8221   0.675   3.477   7.605
 2514SOL    HW1 8222   0.682   3.492   7.511
 2514SOL    HW2 8223   0.618   3.400   7.612
 2515SOL     OW 8224   1.627   3.588   8.839
 2515SOL    HW1 8225   1.677   3.594   8.757
 2515SOL    HW2 8226   1.614   3.678   8.866
 2516SOL     OW 8227   0.268   2.177   8.166
 2516SOL    HW1 8228   0.183   2.212   8.139
 2516SOL    HW2 8229   0.262   2.166   8.261
 2517SOL     OW 8230   1.207   3.468   7.483
 2517SOL    HW1 8231   1.197   3.376   7.506
 2517SOL    HW2 8232   1.146   3.481   7.410
 2518SOL     OW 8233   0.823   2.867   8.820
 2518SOL    HW1 8234   0.868   2.863   8.735
 2518SOL    HW2 8235   0.824   2.961   8.843
 2519SOL     OW 8236   0.917   2.773   7.735
 2519SOL    HW1 8237   0.981   2.804   7.671
 2519SOL    HW2 8238   0.963   2.705   7.785
 2520SOL     OW 8239   1.491   3.489   7.490
 2520SOL    HW1 8240   1.397   3.480   7.475
 2520SOL    HW2 8241   1.529   3.494   7.402
 2521SOL     OW 8242   0.373   3.165   8.940
 2521SOL    HW1 8243   0.359   3.245   8.889
 2521SOL    HW2 8244   0.296   3.111   8.922
 2522SOL     OW 8245   1.611   3.145   8.729
 2522SOL    HW1 8246   1.670   3.135   8.803
 2522SOL    HW2 8247   1.551   3.214   8.755
 2523SOL     OW 8248   1.051   2.969   8.154
 2523SOL    HW1 8249   0.980   2.917   8.193
 2523SOL    HW2 8250   1.113   2.904   8.122
 2524SOL     OW 8251   1.022   2.104   8.417
 2524SOL    HW1 8252   1.014   2.058   8.334
 2524SOL    HW2 8253   1.016   2.036   8.484
 2525SOL     OW 8254   0.604   3.353   7.929
 2525SOL    HW1 8255   0.646   3.301   7.861
 2525SOL    HW2 8256   0.535   3.401   7.884
 2526SOL     OW 8257   1.724   2.250   8.823
 2526SOL    HW1 8258   1.796   2.313   8.831
 2526SOL    HW2 8259   1.758   2.182   8.765
 2527SOL     OW 8260   0.253   3.204   7.738
 2527SOL    HW1 8261   0.160   3.214   7.718
 2527SOL    HW2 8262   0.263   3.241   7.826
 2528SOL     OW 8263   0.105   2.862   9.166
 2528SOL    HW1 8264   0.044   2.852   9.239
 2528SOL    HW2 8265   0.191   2.842   9.203
 2529SOL     OW 8266   0.674   2.058   8.947
 2529SOL    HW1 8267   0.757   2.039   8.905
 2529SOL    HW2 8268   0.697   2.089   9.035
 2530SOL     OW 8269   0.080   2.181   7.484
 2530SOL    HW1 8270   3.984   2.180   7.489
 2530SOL    HW2 8271   0.101   2.261   7.437
 2531SOL     OW 8272   1.430   2.720   8.849
 2531SOL    HW1 8273   1.382   2.780   8.792
 2531SOL    HW2 8274   1.520   2.723   8.815
 2532SOL     OW 8275   0.023   2.085   7.818
 2532SOL    HW1 8276   0.044   2.151   7.752
 2532SOL    HW2 8277   0.108   2.050   7.845
 2533SOL     OW 8278   1.181   3.200   7.564
 2533SOL    HW1 8279   1.089   3.172   7.565
 2533SOL    HW2 8280   1.207   3.201   7.656
 2534SOL     OW 8281   0.619   2.692   8.883
 2534SOL    HW1 8282   0.674   2.769   8.867
 2534SOL    HW2 8283   0.680   2.619   8.891
 2535SOL     OW 8284   1.485   3.639   8.427
 2535SOL    HW1 8285   1.510   3.694   8.352
 2535SOL    HW2 8286   1.568   3.619   8.471
 2536SOL     OW 8287   0.716   2.427   9.154
 2536SOL    HW1 8288   0.757   2.490   9.213
 2536SOL    HW2 8289   0.747   2.341   9.184
 2537SOL     OW 8290   1.471   3.063   9.080
 2537SOL    HW1 8291   1.459   3.076   9.174
 2537SOL    HW2 8292   1.564   3.077   9.066
 2538SOL     OW 8293   0.379   3.605   9.007
 2538SOL    HW1 8294   0.292   3.641   8.993
 2538SOL    HW2 8295   0.365   3.523   9.054
 2539SOL     OW 8296   1.671   2.743   8.703
 2539SOL    HW1 8297   1.662   2.658   8.660
 2539SOL    HW2 8298   1.660   2.807   8.632
 2540SOL     OW 8299   1.206   2.174   7.907
 2540SOL    HW1 8300   1.291   2.145   7.874
 2540SOL    HW2 8301   1.226   2.222   7.988
 2541SOL     OW 8302   0.588   2.602   8.119
 2541SOL    HW1 8303   0.629   2.687   8.101
 2541SOL    HW2 8304   0.522   2.593   8.051
 2542SOL     OW 8305   1.758   2.241   9.097
 2542SOL    HW1 8306   1.741   2.243   9.003
 2542SOL    HW2 8307   1.697   2.175   9.131
 2543SOL     OW 8308   1.744   2.797   8.960
 2543SOL    HW1 8309   1.742   2.891   8.973
 2543SOL    HW2 8310   1.729   2.785   8.866
 2544SOL     OW 8311   0.865   3.230   7.483
 2544SOL    HW1 8312   0.822   3.258   7.564
 2544SOL    HW2 8313   0.880   3.312   7.435
 2545SOL     OW 8314   0.658   3.653   8.389
 2545SOL    HW1 8315   0.636   3.744   8.368
 2545SOL    HW2 8316   0.754   3.651   8.385
 2546SOL     OW 8317   0.866   2.828   8.303
 2546SOL    HW1 8318   0.917   2.757   8.342
 2546SOL    HW2 8319   0.833   2.878   8.378
 2547SOL     OW 8320   1.082   2.858   7.533
 2547SOL    HW1 8321   1.051   2.910   7.459
 2547SOL    HW2 8322   1.155   2.807   7.497
 2548SOL     OW 8323   1.854   3.415   8.291
 2548SOL    HW1 8324   1.775   3.405   8.239
 2548SOL    HW2 8325   1.845   3.351   8.361
 2549SOL     OW 8326   0.223   3.166   9.303
 2549SOL    HW1 8327   0.153   3.107   9.278
 2549SOL    HW2 8328   0.211   3.179   9.397
 2550SOL     OW 8329   0.110   3.135   8.165
 2550SOL    HW1 8330   0.123   3.084   8.245
 2550SOL    HW2 8331   0.110   3.070   8.095
 2551SOL     OW 8332   0.681   3.264   9.076
 2551SOL    HW1 8333   0.600   3.222   9.105
 2551SOL    HW2 8334   0.676   3.352   9.112
 2552SOL     OW 8335   0.440   2.297   7.980
 2552SOL    HW1 8336   0.446   2.227   7.915
 2552SOL    HW2 8337   0.385   2.261   8.050
 2553SOL     OW 8338   1.701   3.351   8.544
 2553SOL    HW1 8339   1.620   3.327   8.500
 2553SOL    HW2 8340   1.714   3.283   8.610
 2554SOL     OW 8341   0.331   2.416   8.739
 2554SOL    HW1 8342   0.387   2.360   8.793
 2554SOL    HW2 8343   0.348   2.387   8.649
 2555SOL     OW 8344   0.826   3.441   8.126
 2555SOL    HW1 8345   0.816   3.488   8.043
 2555SOL    HW2 8346   0.750   3.383   8.129
 2556SOL     OW 8347   1.438   2.085   8.571
 2556SOL    HW1 8348   1.452   2.001   8.616
 2556SOL    HW2 8349   1.383   2.135   8.631
 2557SOL     OW 8350   1.009   1.881   8.592
 2557SOL    HW1 8351   0.954   1.814   8.551
 2557SOL    HW2 8352   1.096   1.843   8.592
 2558SOL     OW 8353   0.771   3.194   7.763
 2558SOL    HW1 8354   0.739   3.104   7.768
 2558SOL    HW2 8355   0.855   3.192   7.810
 2559SOL     OW 8356   0.620   3.418   8.732
 2559SOL    HW1 8357   0.622   3.499   8.783
 2559SOL    HW2 8358   0.707   3.411   8.694
 2560SOL     OW 8359   1.263   2.314   8.133
 2560SOL    HW1 8360   1.222   2.401   8.141
 2560SOL    HW2 8361   1.274   2.285   8.223
 2561SOL     OW 8362   1.576   2.064   8.327
 2561SOL    HW1 8363   1.531   2.078   8.410
 2561SOL    HW2 8364   1.565   2.146   8.279
 2562SOL     OW 8365   0.046   2.914   7.687
 2562SOL    HW1 8366   0.139   2.897   7.679
 2562SOL    HW2 8367   0.010   2.834   7.726
 2563SOL     OW 8368   0.883   3.516   7.793
 2563SOL    HW1 8369   0.813   3.497   7.731
 2563SOL    HW2 8370   0.852   3.593   7.841
 2564SOL     OW 8371   0.231   2.483   9.431
 2564SOL    HW1 8372   0.138   2.493   9.451
 2564SOL    HW2 8373   0.233   2.454   9.340
 2565SOL     OW 8374   0.228   2.133  10.297
 2565SOL    HW1 8375   0.249   2.101  10.385
 2565SOL    HW2 8376   0.133   2.124  10.290
 2566SOL     OW 8377   0.012   2.225   9.943
 2566SOL    HW1 8378   3.925   2.243   9.980
 2566SOL    HW2 8379   3.994   2.188   9.856
 2567SOL     OW 8380   0.576   3.144  10.493
 2567SOL    HW1 8381   0.490   3.149  10.452
 2567SOL    HW2 8382   0.592   3.232  10.527
 2568SOL     OW 8383   1.559   3.373  10.017
 2568SOL    HW1 8384   1.517   3.353  10.100
 2568SOL    HW2 8385   1.488   3.377   9.954
 2569SOL     OW 8386   1.130   2.560  10.012
 2569SOL    HW1 8387   1.180   2.641   9.998
 2569SOL    HW2 8388   1.083   2.575  10.094
 2570SOL     OW 8389   1.769   2.468   9.539
 2570SOL    HW1 8390   1.747   2.462   9.446
 2570SOL    HW2 8391   1.734   2.388   9.578
 2571SOL     OW 8392   0.758   3.004  10.348
 2571SOL    HW1 8393   0.691   3.038  10.408
 2571SOL    HW2 8394   0.792   3.082  10.304
 2572SOL     OW 8395   0.864   2.639  11.131
 2572SOL    HW1 8396   0.855   2.710  11.194
 2572SOL    HW2 8397   0.889   2.682  11.049
 2573SOL     OW 8398   0.686   2.867   9.958
 2573SOL    HW1 8399   0.751   2.853  10.027
 2573SOL    HW2 8400   0.616   2.917   9.999
 2574SOL     OW 8401   0.709   3.012  11.122
 2574SOL    HW1 8402   0.757   3.091  11.148
 2574SOL    HW2 8403   0.627   3.045  11.087
 2575SOL     OW 8404   0.351   3.265  10.388
 2575SOL    HW1 8405   0.268   3.251  10.342
 2575SOL    HW2 8406   0.400   3.324  10.332
 2576SOL     OW 8407   1.461   3.361  10.663
 2576SOL    HW1 8408   1.511   3.442  10.673
 2576SOL    HW2 8409   1.400   3.361  10.737
 2577SOL     OW 8410   0.450   2.263  10.801
 2577SOL    HW1 8411   0.524   2.202  10.803
 2577SOL    HW2 8412   0.373   2.207  10.812
 2578SOL     OW 8413   1.607   2.309  10.049
 2578SOL    HW1 8414   1.527   2.333  10.002
 2578SOL    HW2 8415   1.627   2.386  10.103
 2579SOL     OW 8416   0.225   3.571   9.777
 2579SOL    HW1 8417   0.231   3.651   9.829
 2579SOL    HW2 8418   0.302   3.575   9.719
 2580SOL     OW 8419   1.136   3.203  11.002
 2580SOL    HW1 8420   1.177   3.198  11.089
 2580SOL    HW2 8421   1.084   3.123  10.996
 2581SOL     OW 8422   0.246   3.305   9.849
 2581SOL    HW1 8423   0.219   3.396   9.837
 2581SOL    HW2 8424   0.176   3.267   9.903
 2582SOL     OW 8425   0.246   2.932  10.194
 2582SOL    HW1 8426   0.264   2.848  10.237
 2582SOL    HW2 8427   0.194   2.980  10.258
 2583SOL     OW 8428   0.614   3.649  10.740
 2583SOL    HW1 8429   0.531   3.634  10.785
 2583SOL    HW2 8430   0.639   3.738  10.764
 2584SOL     OW 8431   0.582   2.845   9.446
 2584SOL    HW1 8432   0.628   2.893   9.376
 2584SOL    HW2 8433   0.625   2.874   9.526
 2585SOL     OW 8434   1.590   1.989  10.775
 2585SOL    HW1 8435   1.581   2.072  10.729
 2585SOL    HW2 8436   1.583   2.011  10.868
 2586SOL     OW 8437   0.141   2.510   9.884
 2586SOL    HW1 8438   0.086   2.431   9.884
 2586SOL    HW2 8439   0.104   2.565   9.953
 2587SOL     OW 8440   1.841   3.614   9.648
 2587SOL    HW1 8441   1.906   3.589   9.714
 2587SOL    HW2 8442   1.864   3.704   9.625
 2588SOL     OW 8443   0.041   3.455   9.450
 2588SOL    HW1 8444   0.031   3.362   9.472
 2588SOL    HW2 8445   3.963   3.496   9.487
 2589SOL     OW 8446   1.689   2.781   9.950
 2589SOL    HW1 8447   1.773   2.739   9.929
 2589SOL    HW2 8448   1.667   2.831   9.871
 2590SOL     OW 8449   1.646   2.969   9.739
 2590SOL    HW1 8450   1.731   2.975   9.697
 2590SOL    HW2 8451   1.651   3.030   9.813
 2591SOL     OW 8452   0.134   2.613  10.900
 2591SOL    HW1 8453   0.229   2.608  10.904
 2591SOL    HW2 8454   0.115   2.705  10.919
 2592SOL     OW 8455   0.614   3.246  10.044
 2592SOL    HW1 8456   0.567   3.163  10.054
 2592SOL    HW2 8457   0.596   3.273   9.954
 2593SOL     OW 8458   1.289   3.100  10.734
 2593SOL    HW1 8459   1.322   3.033  10.674
 2593SOL    HW2 8460   1.346   3.094  10.810
 2594SOL     OW 8461   0.816   1.861   9.818
 2594SOL    HW1 8462   0.856   1.946   9.800
 2594SOL    HW2 8463   0.722   1.880   9.826
 2595SOL     OW 8464   0.186   2.816  10.586
 2595SOL    HW1 8465   0.274   2.781  10.572
 2595SOL    HW2 8466   0.131   2.772  10.521
 2596SOL     OW 8467   1.532   2.855   9.508
 2596SOL    HW1 8468   1.462   2.797   9.539
 2596SOL    HW2 8469   1.572   2.889   9.588
 2597SOL     OW 8470   1.210   3.664  10.935
 2597SOL    HW1 8471   1.195   3.724  10.862
 2597SOL    HW2 8472   1.213   3.577  10.895
 2598SOL     OW 8473   0.338   2.109  11.123
 2598SOL    HW1 8474   0.379   2.196  11.130
 2598SOL    HW2 8475   0.247   2.123  11.148
 2599SOL     OW 8476   1.465   3.282  10.262
 2599SOL    HW1 8477   1.398   3.296  10.328
 2599SOL    HW2 8478   1.454   3.191  10.235
 2600SOL     OW 8479   1.657   3.598   9.890
 2600SOL    HW1 8480   1.640   3.568   9.800
 2600SOL    HW2 8481   1.633   3.523   9.945
 2601SOL     OW 8482   0.596   2.581   9.574
 2601SOL    HW1 8483   0.603   2.664   9.526
 2601SOL    HW2 8484   0.533   2.599   9.643
 2602SOL     OW 8485   1.279   2.216  10.244
 2602SOL    HW1 8486   1.190   2.180  10.252
 2602SOL    HW2 8487   1.333   2.161  10.301
 2603SOL     OW 8488   1.578   3.535   9.618
 2603SOL    HW1 8489   1.670   3.563   9.613
 2603SOL    HW2 8490   1.554   3.515   9.528
 2604SOL     OW 8491   0.792   2.479  10.762
 2604SOL    HW1 8492   0.765   2.456  10.851
 2604SOL    HW2 8493   0.751   2.413  10.706
 2605SOL     OW 8494   1.394   2.335  10.987
 2605SOL    HW1 8495   1.396   2.380  11.072
 2605SOL    HW2 8496   1.458   2.265  10.996
 2606SOL     OW 8497   0.955   2.750  10.892
 2606SOL    HW1 8498   1.010   2.679  10.857
 2606SOL    HW2 8499   0.908   2.783  10.816
 2607SOL     OW 8500   0.992   2.275  10.549
 2607SOL    HW1 8501   0.907   2.297  10.587
 2607SOL    HW2 8502   0.971   2.228  10.468
 2608SOL     OW 8503   1.051   2.560   9.736
 2608SOL    HW1 8504   1.066   2.553   9.830
 2608SOL    HW2 8505   0.969   2.513   9.721
 2609SOL     OW 8506   0.082   2.686  10.100
 2609SOL    HW1 8507   0.161   2.658  10.146
 2609SOL    HW2 8508   0.092   2.781  10.091
 2610SOL     OW 8509   0.128   3.712  10.884
 2610SOL    HW1 8510   0.134   3.681  10.974
 2610SOL    HW2 8511   0.035   3.701  10.861
 2611SOL     OW 8512   0.891   2.210   9.503
 2611SOL    HW1 8513   0.933   2.272   9.442
 2611SOL    HW2 8514   0.911   2.124   9.466
 2612SOL     OW 8515   1.707   2.440  11.142
 2612SOL    HW1 8516   1.671   2.510  11.088
 2612SOL    HW2 8517   1.737   2.375  11.078
 2613SOL     OW 8518   1.376   3.004   9.852
 2613SOL    HW1 8519   1.455   2.991   9.799
 2613SOL    HW2 8520   1.324   3.066   9.801
 2614SOL     OW 8521   0.546   2.042  10.203
 2614SOL    HW1 8522   0.552   2.073  10.293
 2614SOL    HW2 8523   0.548   2.122  10.150
 2615SOL     OW 8524   1.007   3.308   9.783
 2615SOL    HW1 8525   0.967   3.380   9.734
 2615SOL    HW2 8526   0.990   3.328   9.874
 2616SOL     OW 8527   0.358   3.668  10.167
 2616SOL    HW1 8528   0.434   3.610  10.177
 2616SOL    HW2 8529   0.394   3.756  10.177
 2617SOL     OW 8530   1.799   2.919  10.178
 2617SOL    HW1 8531   1.743   2.902  10.101
 2617SOL    HW2 8532   1.737   2.925  10.251
 2618SOL     OW 8533   1.228   3.399  10.821
 2618SOL    HW1 8534   1.213   3.327  10.882
 2618SOL    HW2 8535   1.163   3.386  10.752
 2619SOL     OW 8536   0.311   2.817   9.552
 2619SOL    HW1 8537   0.395   2.840   9.514
 2619SOL    HW2 8538   0.296   2.727   9.525
 2620SOL     OW 8539   1.478   2.602  10.036
 2620SOL    HW1 8540   1.468   2.560  10.122
 2620SOL    HW2 8541   1.555   2.658  10.047
 2621SOL     OW 8542   0.465   3.121  11.047
 2621SOL    HW1 8543   0.439   3.130  10.955
 2621SOL    HW2 8544   0.383   3.127  11.096
 2622SOL     OW 8545   1.113   3.642   9.534
 2622SOL    HW1 8546   1.051   3.594   9.589
 2622SOL    HW2 8547   1.142   3.578   9.469
 2623SOL     OW 8548   0.204   2.143  10.817
 2623SOL    HW1 8549   0.114   2.173  10.806
 2623SOL    HW2 8550   0.195   2.059  10.864
 2624SOL     OW 8551   1.628   3.242   9.399
 2624SOL    HW1 8552   1.588   3.327   9.381
 2624SOL    HW2 8553   1.559   3.178   9.379
 2625SOL     OW 8554   0.469   3.599   9.631
 2625SOL    HW1 8555   0.506   3.663   9.692
 2625SOL    HW2 8556   0.542   3.573   9.576
 2626SOL     OW 8557   1.398   1.970   9.739
 2626SOL    HW1 8558   1.382   1.946   9.648
 2626SOL    HW2 8559   1.492   1.955   9.752
 2627SOL     OW 8560   0.251   3.656  10.540
 2627SOL    HW1 8561   0.298   3.592  10.593
 2627SOL    HW2 8562   0.247   3.616  10.453
 2628SOL     OW 8563   0.937   3.561  10.211
 2628SOL    HW1 8564   1.015   3.508  10.231
 2628SOL    HW2 8565   0.892   3.512  10.143
 2629SOL     OW 8566   0.395   2.556   9.783
 2629SOL    HW1 8567   0.423   2.465   9.796
 2629SOL    HW2 8568   0.304   2.557   9.810
 2630SOL     OW 8569   1.538   2.086  11.035
 2630SOL    HW1 8570   1.550   2.108  11.127
 2630SOL    HW2 8571   1.468   2.021  11.034
 2631SOL     OW 8572   0.633   1.983   9.411
 2631SOL    HW1 8573   0.703   1.920   9.426
 2631SOL    HW2 8574   0.587   1.950   9.333
 2632SOL     OW 8575   0.767   2.139  11.063
 2632SOL    HW1 8576   0.842   2.080  11.066
 2632SOL    HW2 8577   0.718   2.120  11.144
 2633SOL     OW 8578   0.876   3.382  10.504
 2633SOL    HW1 8579   0.861   3.347  10.416
 2633SOL    HW2 8580   0.946   3.328  10.540
 2634SOL     OW 8581   1.341   2.450  10.742
 2634SOL    HW1 8582   1.372   2.419  10.827
 2634SOL    HW2 8583   1.377   2.539  10.735
 2635SOL     OW 8584   0.814   3.257  10.248
 2635SOL    HW1 8585   0.899   3.246  10.204
 2635SOL    HW2 8586   0.751   3.257  10.176
 2636SOL     OW 8587   0.927   2.371  10.213
 2636SOL    HW1 8588   0.905   2.363  10.121
 2636SOL    HW2 8589   0.960   2.285  10.238
 2637SOL     OW 8590   0.553   1.924   9.809
 2637SOL    HW1 8591   0.470   1.929   9.858
 2637SOL    HW2 8592   0.557   2.007   9.761
 2638SOL     OW 8593   1.428   3.060   9.351
 2638SOL    HW1 8594   1.459   2.984   9.401
 2638SOL    HW2 8595   1.342   3.080   9.388
 2639SOL     OW 8596   0.305   1.912   9.480
 2639SOL    HW1 8597   0.371   1.953   9.423
 2639SOL    HW2 8598   0.354   1.847   9.530
 2640SOL     OW 8599   0.938   2.107   9.772
 2640SOL    HW1 8600   0.907   2.149   9.692
 2640SOL    HW2 8601   1.032   2.123   9.773
 2641SOL     OW 8602   1.080   2.542  10.769
 2641SOL    HW1 8603   1.011   2.476  10.775
 2641SOL    HW2 8604   1.161   2.492  10.763
 2642SOL     OW 8605   1.224   3.431  10.103
 2642SOL    HW1 8606   1.240   3.500  10.038
 2642SOL    HW2 8607   1.292   3.444  10.170
 2643SOL     OW 8608   0.466   3.011  10.048
 2643SOL    HW1 8609   0.393   2.989  10.106
 2643SOL    HW2 8610   0.433   2.995   9.960
 2644SOL     OW 8611   1.269   3.658   9.915
 2644SOL    HW1 8612   1.314   3.722   9.860
 2644SOL    HW2 8613   1.199   3.708   9.958
 2645SOL     OW 8614   1.024   2.405   9.332
 2645SOL    HW1 8615   0.982   2.488   9.312
 2645SOL    HW2 8616   1.090   2.426   9.398
 2646SOL     OW 8617   0.080   2.433  10.700
 2646SOL    HW1 8618   0.170   2.419  10.669
 2646SOL    HW2 8619   0.087   2.502  10.766
 2647SOL     OW 8620   0.567   2.089  10.474
 2647SOL    HW1 8621   0.607   2.011  10.513
 2647SOL    HW2 8622   0.476   2.087  10.503
 2648SOL     OW 8623   0.869   2.321   9.950
 2648SOL    HW1 8624   0.820   2.374   9.887
 2648SOL    HW2 8625   0.888   2.240   9.903
 2649SOL     OW 8626   1.015   1.915  10.062
 2649SOL    HW1 8627   0.957   1.908   9.987
 2649SOL    HW2 8628   0.993   1.839  10.116
 2650SOL     OW 8629   1.437   3.025  10.167
 2650SOL    HW1 8630   1.368   2.958  10.166
 2650SOL    HW2 8631   1.460   3.036  10.075
 2651SOL     OW 8632   1.466   2.466  10.288
 2651SOL    HW1 8633   1.416   2.385  10.291
 2651SOL    HW2 8634   1.526   2.461  10.362
 2652SOL     OW 8635   1.846   2.679   9.693
 2652SOL    HW1 8636   1.903   2.628   9.750
 2652SOL    HW2 8637   1.818   2.616   9.626
 2653SOL     OW 8638   0.490   3.277   9.471
 2653SOL    HW1 8639   0.414   3.247   9.522
 2653SOL    HW2 8640   0.467   3.257   9.380
 2654SOL     OW 8641   1.670   3.126   9.957
 2654SOL    HW1 8642   1.765   3.130   9.970
 2654SOL    HW2 8643   1.639   3.215   9.978
 2655SOL     OW 8644   1.393   2.435   9.380
 2655SOL    HW1 8645   1.334   2.414   9.453
 2655SOL    HW2 8646   1.479   2.404   9.409
 2656SOL     OW 8647   0.573   2.131   9.633
 2656SOL    HW1 8648   0.598   2.081   9.555
 2656SOL    HW2 8649   0.540   2.214   9.599
 2657SOL     OW 8650   1.753   3.101  10.884
 2657SOL    HW1 8651   1.840   3.061  10.881
 2657SOL    HW2 8652   1.768   3.191  10.912
 2658SOL     OW 8653   1.059   3.215  10.643
 2658SOL    HW1 8654   0.984   3.184  10.695
 2658SOL    HW2 8655   1.135   3.174  10.685
 2659SOL     OW 8656   1.608   3.487  10.964
 2659SOL    HW1 8657   1.602   3.521  10.874
 2659SOL    HW2 8658   1.691   3.441  10.966
 2660SOL     OW 8659   1.128   3.064  10.416
 2660SOL    HW1 8660   1.070   3.103  10.481
 2660SOL    HW2 8661   1.094   3.096  10.332
 2661SOL     OW 8662   1.629   2.961  10.387
 2661SOL    HW1 8663   1.625   3.023  10.460
 2661SOL    HW2 8664   1.549   2.977  10.337
 2662SOL     OW 8665   0.918   1.959  10.707
 2662SOL    HW1 8666   0.941   1.940  10.616
 2662SOL    HW2 8667   0.997   1.999  10.744
 2663SOL     OW 8668   0.984   2.976  11.032
 2663SOL    HW1 8669   0.892   2.992  11.053
 2663SOL    HW2 8670   0.983   2.899  10.976
 2664SOL     OW 8671   0.707   2.922   9.681
 2664SOL    HW1 8672   0.694   2.907   9.775
 2664SOL    HW2 8673   0.784   2.869   9.659
 2665SOL     OW 8674   0.420   2.677  10.562
 2665SOL    HW1 8675   0.489   2.685  10.628
 2665SOL    HW2 8676   0.385   2.588  10.574
 2666SOL     OW 8677   1.266   2.239  10.585
 2666SOL    HW1 8678   1.298   2.316  10.631
 2666SOL    HW2 8679   1.176   2.261  10.561
 2667SOL     OW 8680   0.064   3.441  10.655
 2667SOL    HW1 8681   0.067   3.508  10.587
 2667SOL    HW2 8682   0.156   3.428  10.679
 2668SOL     OW 8683   0.374   2.964   9.796
 2668SOL    HW1 8684   0.368   3.043   9.741
 2668SOL    HW2 8685   0.373   2.891   9.733
 2669SOL     OW 8686   0.553   2.400  10.172
 2669SOL    HW1 8687   0.568   2.456  10.096
 2669SOL    HW2 8688   0.618   2.427  10.236
 2670SOL     OW 8689   1.248   3.210   9.699
 2670SOL    HW1 8690   1.304   3.282   9.730
 2670SOL    HW2 8691   1.161   3.231   9.733
 2671SOL     OW 8692   1.280   3.319  10.457
 2671SOL    HW1 8693   1.335   3.322  10.534
 2671SOL    HW2 8694   1.224   3.242  10.469
 2672SOL     OW 8695   1.579   2.488   9.782
 2672SOL    HW1 8696   1.535   2.539   9.850
 2672SOL    HW2 8697   1.628   2.552   9.731
 2673SOL     OW 8698   0.346   3.387  10.629
 2673SOL    HW1 8699   0.336   3.338  10.548
 2673SOL    HW2 8700   0.440   3.403  10.637
 2674SOL     OW 8701   0.413   2.602  10.911
 2674SOL    HW1 8702   0.474   2.649  10.854
 2674SOL    HW2 8703   0.454   2.518  10.927
 2675SOL     OW 8704   1.600   2.640  10.991
 2675SOL    HW1 8705   1.514   2.682  10.984
 2675SOL    HW2 8706   1.653   2.683  10.923
 2676SOL     OW 8707   0.996   1.984  11.065
 2676SOL    HW1 8708   1.051   2.057  11.036
 2676SOL    HW2 8709   1.044   1.905  11.040
 2677SOL     OW 8710   0.498   1.900  11.054
 2677SOL    HW1 8711   0.455   1.847  10.988
 2677SOL    HW2 8712   0.441   1.977  11.064
 2678SOL     OW 8713   0.584   2.735  10.341
 2678SOL    HW1 8714   0.615   2.826  10.340
 2678SOL    HW2 8715   0.528   2.730  10.419
 2679SOL     OW 8716   1.359   2.721  10.340
 2679SOL    HW1 8717   1.276   2.712  10.293
 2679SOL    HW2 8718   1.398   2.634  10.336
 2680SOL     OW 8719   1.206   2.391   9.578
 2680SOL    HW1 8720   1.213   2.313   9.633
 2680SOL    HW2 8721   1.163   2.455   9.634
 2681SOL     OW 8722   0.312   2.061  10.557
 2681SOL    HW1 8723   0.265   2.098  10.632
 2681SOL    HW2 8724   0.287   1.968  10.557
 2682SOL     OW 8725   0.057   3.166  10.590
 2682SOL    HW1 8726   0.090   3.128  10.671
 2682SOL    HW2 8727   0.051   3.260  10.609
 2683SOL     OW 8728   0.725   2.494  10.369
 2683SOL    HW1 8729   0.799   2.477  10.310
 2683SOL    HW2 8730   0.698   2.583  10.347
 2684SOL     OW 8731   1.734   2.822  11.162
 2684SOL    HW1 8732   1.688   2.760  11.104
 2684SOL    HW2 8733   1.674   2.834  11.235
 2685SOL     OW 8734   0.311   1.926   9.931
 2685SOL    HW1 8735   0.292   2.017   9.953
 2685SOL    HW2 8736   0.315   1.881  10.016
 2686SOL     OW 8737   1.611   2.238   9.682
 2686SOL    HW1 8738   1.621   2.184   9.760
 2686SOL    HW2 8739   1.588   2.325   9.717
 2687SOL     OW 8740   1.028   2.621  10.271
 2687SOL    HW1 8741   1.025   2.639  10.365
 2687SOL    HW2 8742   1.001   2.530  10.263
 2688SOL     OW 8743   0.985   3.429  11.027
 2688SOL    HW1 8744   0.967   3.472  10.944
 2688SOL    HW2 8745   1.027   3.346  11.004
 2689SOL     OW 8746   1.855   3.368  10.915
 2689SOL    HW1 8747   1.873   3.395  10.825
 2689SOL    HW2 8748   1.936   3.389  10.963
 2690SOL     OW 8749   0.351   2.782  11.112
 2690SOL    HW1 8750   0.430   2.803  11.161
 2690SOL    HW2 8751   0.379   2.716  11.048
 2691SOL     OW 8752   1.528   2.135   9.438
 2691SOL    HW1 8753   1.462   2.071   9.465
 2691SOL    HW2 8754   1.560   2.172   9.520
 2692SOL     OW 8755   1.292   2.689   9.342
 2692SOL    HW1 8756   1.335   2.603   9.345
 2692SOL    HW2 8757   1.324   2.728   9.260
 2693SOL     OW 8758   1.065   3.198  10.163
 2693SOL    HW1 8759   1.068   3.125  10.101
 2693SOL    HW2 8760   1.127   3.261  10.129
 2694SOL     OW 8761   0.314   2.667  10.261
 2694SOL    HW1 8762   0.407   2.685  10.254
 2694SOL    HW2 8763   0.309   2.578  10.294
 2695SOL     OW 8764   0.332   2.381  10.323
 2695SOL    HW1 8765   0.297   2.293  10.305
 2695SOL    HW2 8766   0.408   2.389  10.265
 2696SOL     OW 8767   1.134   2.238  10.991
 2696SOL    HW1 8768   1.088   2.294  11.054
 2696SOL    HW2 8769   1.222   2.275  10.988
 2697SOL     OW 8770   1.160   2.065  10.780
 2697SOL    HW1 8771   1.150   2.128  10.852
 2697SOL    HW2 8772   1.200   2.116  10.709
 2698SOL     OW 8773   3.999   3.183   9.492
 2698SOL    HW1 8774   3.905   3.198   9.496
 2698SOL    HW2 8775   0.009   3.089   9.511
 2699SOL     OW 8776   0.075   3.663  10.204
 2699SOL    HW1 8777   0.085   3.568  10.208
 2699SOL    HW2 8778   0.165   3.696  10.201
 2700SOL     OW 8779   0.507   3.428  10.224
 2700SOL    HW1 8780   0.574   3.493  10.245
 2700SOL    HW2 8781   0.551   3.367  10.164
 2701SOL     OW 8782   0.984   2.655  10.537
 2701SOL    HW1 8783   1.039   2.631  10.612
 2701SOL    HW2 8784   0.899   2.617  10.558
 2702SOL     OW 8785   0.037   2.416  10.420
 2702SOL    HW1 8786   0.119   2.391  10.378
 2702SOL    HW2 8787   0.057   2.414  10.514
 2703SOL     OW 8788   0.206   2.376  11.037
 2703SOL    HW1 8789   0.249   2.332  10.963
 2703SOL    HW2 8790   0.155   2.447  10.997
 2704SOL     OW 8791   1.376   2.802  10.969
 2704SOL    HW1 8792   1.398   2.895  10.967
 2704SOL    HW2 8793   1.374   2.776  10.876
 2705SOL     OW 8794   0.817   2.431   9.668
 2705SOL    HW1 8795   0.820   2.355   9.610
 2705SOL    HW2 8796   0.743   2.482   9.636
 2706SOL     OW 8797   1.644   2.464  10.496
 2706SOL    HW1 8798   1.632   2.408  10.572
 2706SOL    HW2 8799   1.730   2.440  10.462
 2707SOL     OW 8800   0.296   3.409  11.041
 2707SOL    HW1 8801   0.246   3.479  11.083
 2707SOL    HW2 8802   0.262   3.328  11.079
 2708SOL     OW 8803   0.699   2.314  10.571
 2708SOL    HW1 8804   0.649   2.239  10.539
 2708SOL    HW2 8805   0.696   2.377  10.498
 2709SOL     OW 8806   0.931   3.535  10.777
 2709SOL    HW1 8807   0.903   3.501  10.692
 2709SOL    HW2 8808   0.924   3.631  10.768
 2710SOL     OW 8809   0.460   2.353   9.503
 2710SOL    HW1 8810   0.524   2.422   9.521
 2710SOL    HW2 8811   0.379   2.400   9.483
 2711SOL     OW 8812   0.157   2.998  10.783
 2711SOL    HW1 8813   0.160   2.947  10.864
 2711SOL    HW2 8814   0.172   2.935  10.713
 2712SOL     OW 8815   1.327   2.909  10.533
 2712SOL    HW1 8816   1.350   2.846  10.465
 2712SOL    HW2 8817   1.256   2.961  10.495
 2713SOL     OW 8818   1.310   2.719   9.617
 2713SOL    HW1 8819   1.234   2.688   9.666
 2713SOL    HW2 8820   1.286   2.705   9.525
 2714SOL     OW 8821   1.768   3.607  10.458
 2714SOL    HW1 8822   1.831   3.634  10.391
 2714SOL    HW2 8823   1.747   3.516  10.436
 2715SOL     OW 8824   1.243   3.596  10.423
 2715SOL    HW1 8825   1.326   3.615  10.378
 2715SOL    HW2 8826   1.247   3.502  10.442
 2716SOL     OW 8827   0.075   3.078  10.337
 2716SOL    HW1 8828   0.082   3.104  10.429
 2716SOL    HW2 8829   3.982   3.086  10.317
 2717SOL     OW 8830   0.679   3.525  11.037
 2717SOL    HW1 8831   0.623   3.603  11.041
 2717SOL    HW2 8832   0.738   3.541  10.964
 2718SOL     OW 8833   1.390   3.431   9.794
 2718SOL    HW1 8834   1.450   3.463   9.727
 2718SOL    HW2 8835   1.343   3.509   9.824
 2719SOL     OW 8836   0.167   3.628  11.140
 2719SOL    HW1 8837   0.110   3.577  11.198
 2719SOL    HW2 8838   0.214   3.686  11.199
 2720SOL     OW 8839   1.278   2.787   9.981
 2720SOL    HW1 8840   1.351   2.726   9.987
 2720SOL    HW2 8841   1.311   2.860   9.929
 2721SOL     OW 8842   0.815   3.135  10.741
 2721SOL    HW1 8843   0.788   3.174  10.824
 2721SOL    HW2 8844   0.745   3.155  10.680
 2722SOL     OW 8845   0.675   3.476   9.467
 2722SOL    HW1 8846   0.682   3.492   9.372
 2722SOL    HW2 8847   0.618   3.400   9.474
 2723SOL     OW 8848   1.627   3.588  10.700
 2723SOL    HW1 8849   1.677   3.594  10.619
 2723SOL    HW2 8850   1.614   3.678  10.728
 2724SOL     OW 8851   0.268   2.177  10.028
 2724SOL    HW1 8852   0.183   2.212  10.001
 2724SOL    HW2 8853   0.262   2.166  10.123
 2725SOL     OW 8854   1.207   3.468   9.345
 2725SOL    HW1 8855   1.197   3.376   9.369
 2725SOL    HW2 8856   1.146   3.481   9.272
 2726SOL     OW 8857   0.823   2.868  10.682
 2726SOL    HW1 8858   0.868   2.864  10.597
 2726SOL    HW2 8859   0.824   2.960  10.705
 2727SOL     OW 8860   0.916   2.772   9.600
 2727SOL    HW1 8861   0.977   2.804   9.534
 2727SOL    HW2 8862   0.963   2.702   9.645
 2728SOL     OW 8863   1.491   3.489   9.352
 2728SOL    HW1 8864   1.397   3.480   9.336
 2728SOL    HW2 8865   1.529   3.494   9.264
 2729SOL     OW 8866   0.373   3.164  10.801
 2729SOL    HW1 8867   0.359   3.245  10.751
 2729SOL    HW2 8868   0.296   3.111  10.784
 2730SOL     OW 8869   1.611   3.145  10.591
 2730SOL    HW1 8870   1.671   3.135  10.665
 2730SOL    HW2 8871   1.551   3.214  10.618
 2731SOL     OW 8872   1.051   2.969  10.016
 2731SOL    HW1 8873   0.980   2.917  10.055
 2731SOL    HW2 8874   1.113   2.903   9.984
 2732SOL     OW 8875   1.021   2.102  10.276
 2732SOL    HW1 8876   1.016   2.054  10.193
 2732SOL    HW2 8877   1.016   2.034  10.343
 2733SOL     OW 8878   0.604   3.352   9.791
 2733SOL    HW1 8879   0.646   3.301   9.722
 2733SOL    HW2 8880   0.535   3.401   9.746
 2734SOL     OW 8881   1.725   2.249  10.684
 2734SOL    HW1 8882   1.796   2.312  10.692
 2734SOL    HW2 8883   1.759   2.181  10.626
 2735SOL     OW 8884   0.252   3.204   9.600
 2735SOL    HW1 8885   0.160   3.214   9.580
 2735SOL    HW2 8886   0.263   3.241   9.688
 2736SOL     OW 8887   0.105   2.861  11.028
 2736SOL    HW1 8888   0.044   2.852  11.101
 2736SOL    HW2 8889   0.191   2.842  11.065
 2737SOL     OW 8890   0.674   2.058  10.809
 2737SOL    HW1 8891   0.758   2.038  10.767
 2737SOL    HW2 8892   0.697   2.089  10.897
 2738SOL     OW 8893   0.080   2.181   9.347
 2738SOL    HW1 8894   3.985   2.180   9.352
 2738SOL    HW2 8895   0.101   2.261   9.299
 2739SOL     OW 8896   1.430   2.720  10.711
 2739SOL    HW1 8897   1.382   2.781  10.655
 2739SOL    HW2 8898   1.520   2.723  10.678
 2740SOL     OW 8899   0.024   2.085   9.679
 2740SOL    HW1 8900   0.046   2.151   9.614
 2740SOL    HW2 8901   0.109   2.050   9.707
 2741SOL     OW 8902   1.179   3.202   9.427
 2741SOL    HW1 8903   1.088   3.173   9.429
 2741SOL    HW2 8904   1.207   3.201   9.518
 2742SOL     OW 8905   0.618   2.693  10.745
 2742SOL    HW1 8906   0.674   2.769  10.729
 2742SOL    HW2 8907   0.680   2.619  10.753
 2743SOL     OW 8908   1.485   3.639  10.289
 2743SOL    HW1 8909   1.510   3.694  10.214
 2743SOL    HW2 8910   1.568   3.619  10.333
 2744SOL     OW 8911   0.716   2.426  11.016
 2744SOL    HW1 8912   0.757   2.490  11.075
 2744SOL    HW2 8913   0.747   2.341  11.046
 2745SOL     OW 8914   1.471   3.063  10.942
 2745SOL    HW1 8915   1.459   3.076  11.036
 2745SOL    HW2 8916   1.564   3.077  10.928
 2746SOL     OW 8917   0.379   3.605  10.869
 2746SOL    HW1 8918   0.292   3.641  10.855
 2746SOL    HW2 8919   0.365   3.523  10.916
 2747SOL     OW 8920   1.671   2.744  10.565
 2747SOL    HW1 8921   1.663   2.658  10.522
 2747SOL    HW2 8922   1.661   2.807  10.494
 2748SOL     OW 8923   1.217   2.182   9.768
 2748SOL    HW1 8924   1.279   2.111   9.759
 2748SOL    HW2 8925   1.245   2.231   9.845
 2749SOL     OW 8926   0.590   2.601   9.979
 2749SOL    HW1 8927   0.629   2.687   9.963
 2749SOL    HW2 8928   0.522   2.593   9.913
 2750SOL     OW 8929   1.759   2.240  10.959
 2750SOL    HW1 8930   1.742   2.241  10.864
 2750SOL    HW2 8931   1.699   2.174  10.993
 2751SOL     OW 8932   1.743   2.797  10.822
 2751SOL    HW1 8933   1.742   2.892  10.835
 2751SOL    HW2 8934   1.729   2.785  10.728
 2752SOL     OW 8935   0.864   3.230   9.344
 2752SOL    HW1 8936   0.822   3.258   9.425
 2752SOL    HW2 8937   0.880   3.311   9.296
 2753SOL     OW 8938   0.658   3.653  10.251
 2753SOL    HW1 8939   0.636   3.744  10.230
 2753SOL    HW2 8940   0.754   3.651  10.247
 2754SOL     OW 8941   0.867   2.828  10.165
 2754SOL    HW1 8942   0.918   2.757  10.205
 2754SOL    HW2 8943   0.833   2.878  10.239
 2755SOL     OW 8944   1.079   2.850   9.398
 2755SOL    HW1 8945   1.057   2.901   9.320
 2755SOL    HW2 8946   1.154   2.797   9.373
 2756SOL     OW 8947   1.854   3.415  10.153
 2756SOL    HW1 8948   1.775   3.404  10.100
 2756SOL    HW2 8949   1.846   3.350  10.223
 2757SOL     OW 8950   0.223   3.166  11.165
 2757SOL    HW1 8951   0.152   3.107  11.140
 2757SOL    HW2 8952   0.211   3.179  11.259
 2758SOL     OW 8953   0.110   3.135  10.027
 2758SOL    HW1 8954   0.122   3.085  10.107
 2758SOL    HW2 8955   0.110   3.070   9.957
 2759SOL     OW 8956   0.681   3.264  10.938
 2759SOL    HW1 8957   0.600   3.222  10.967
 2759SOL    HW2 8958   0.676   3.352  10.974
 2760SOL     OW 8959   0.441   2.296   9.842
 2760SOL    HW1 8960   0.443   2.227   9.777
 2760SOL    HW2 8961   0.386   2.261   9.913
 2761SOL     OW 8962   1.701   3.351  10.406
 2761SOL    HW1 8963   1.619   3.327  10.363
 2761SOL    HW2 8964   1.714   3.283  10.472
 2762SOL     OW 8965   0.331   2.416  10.601
 2762SOL    HW1 8966   0.387   2.360  10.655
 2762SOL    HW2 8967   0.348   2.387  10.511
 2763SOL     OW 8968   0.826   3.441   9.988
 2763SOL    HW1 8969   0.816   3.488   9.905
 2763SOL    HW2 8970   0.750   3.383   9.991
 2764SOL     OW 8971   1.437   2.090  10.429
 2764SOL    HW1 8972   1.452   2.004  10.469
 2764SOL    HW2 8973   1.382   2.136  10.492
 2765SOL     OW 8974   1.009   1.881  10.453
 2765SOL    HW1 8975   0.955   1.813  10.413
 2765SOL    HW2 8976   1.097   1.843  10.455
 2766SOL     OW 8977   0.771   3.194   9.625
 2766SOL    HW1 8978   0.739   3.104   9.630
 2766SOL    HW2 8979   0.854   3.192   9.672
 2767SOL     OW 8980   0.620   3.418  10.594
 2767SOL    HW1 8981   0.622   3.499  10.645
 2767SOL    HW2 8982   0.708   3.411  10.556
 2768SOL     OW 8983   1.351   1.914   9.475
 2768SOL    HW1 8984   1.378   1.855   9.405
 2768SOL    HW2 8985   1.264   1.883   9.500
 2769SOL     OW 8986   1.298   2.323   9.992
 2769SOL    HW1 8987   1.244   2.401   9.999
 2769SOL    HW2 8988   1.294   2.282  10.079
 2770SOL     OW 8989   1.573   2.058  10.180
 2770SOL    HW1 8990   1.532   2.082  10.263
 2770SOL    HW2 8991   1.589   2.142  10.137
 2771SOL     OW 8992   0.045   2.914   9.549
 2771SOL    HW1 8993   0.139   2.897   9.541
 2771SOL    HW2 8994   0.010   2.834   9.588
 2772SOL     OW 8995   0.883   3.516   9.655
 2772SOL    HW1 8996   0.813   3.497   9.593
 2772SOL    HW2 8997   0.852   3.593   9.703
 2773SOL     OW 8998   0.231   2.483  11.293
 2773SOL    HW1 8999   0.138   2.493  11.313
 2773SOL    HW2 9000   0.233   2.454  11.202
 2774SOL     OW 9001   0.228   2.133  12.159
 2774SOL    HW1 9002   0.249   2.101  12.247
 2774SOL    HW2 9003   0.133   2.124  12.152
 2775SOL     OW 9004   0.012   2.225  11.805
 2775SOL    HW1 9005   3.925   2.243  11.842
 2775SOL    HW2 9006   3.994   2.188  11.718
 2776SOL     OW 9007   0.576   3.144  12.355
 2776SOL    HW1 9008   0.490   3.149  12.314
 2776SOL    HW2 9009   0.592   3.232  12.389
 2777SOL     OW 9010   1.559   3.373  11.879
 2777SOL    HW1 9011   1.517   3.353  11.962
 2777SOL    HW2 9012   1.488   3.377  11.816
 2778SOL     OW 9013   1.130   2.560  11.874
 2778SOL    HW1 9014   1.179   2.641  11.860
 2778SOL    HW2 9015   1.083   2.575  11.956
 2779SOL     OW 9016   1.769   2.468  11.401
 2779SOL    HW1 9017   1.747   2.462  11.308
 2779SOL    HW2 9018   1.735   2.388  11.440
 2780SOL     OW 9019   0.757   3.004  12.210
 2780SOL    HW1 9020   0.691   3.037  12.270
 2780SOL    HW2 9021   0.792   3.082  12.166
 2781SOL     OW 9022   0.864   2.639  12.993
 2781SOL    HW1 9023   0.856   2.710  13.056
 2781SOL    HW2 9024   0.889   2.681  12.911
 2782SOL     OW 9025   0.686   2.867  11.820
 2782SOL    HW1 9026   0.751   2.853  11.889
 2782SOL    HW2 9027   0.616   2.917  11.862
 2783SOL     OW 9028   0.709   3.012  12.984
 2783SOL    HW1 9029   0.757   3.091  13.010
 2783SOL    HW2 9030   0.627   3.045  12.949
 2784SOL     OW 9031   0.351   3.265  12.250
 2784SOL    HW1 9032   0.268   3.251  12.204
 2784SOL    HW2 9033   0.400   3.324  12.194
 2785SOL     OW 9034   1.461   3.361  12.525
 2785SOL    HW1 9035   1.511   3.442  12.535
 2785SOL    HW2 9036   1.400   3.360  12.599
 2786SOL     OW 9037   0.450   2.263  12.664
 2786SOL    HW1 9038   0.524   2.203  12.665
 2786SOL    HW2 9039   0.373   2.207  12.674
 2787SOL     OW 9040   1.607   2.310  11.911
 2787SOL    HW1 9041   1.527   2.333  11.864
 2787SOL    HW2 9042   1.625   2.386  11.966
 2788SOL     OW 9043   0.225   3.571  11.639
 2788SOL    HW1 9044   0.231   3.651  11.691
 2788SOL    HW2 9045   0.302   3.575  11.581
 2789SOL     OW 9046   1.136   3.203  12.864
 2789SOL    HW1 9047   1.177   3.199  12.951
 2789SOL    HW2 9048   1.084   3.123  12.858
 2790SOL     OW 9049   0.246   3.305  11.711
 2790SOL    HW1 9050   0.219   3.396  11.699
 2790SOL    HW2 9051   0.176   3.267  11.765
 2791SOL     OW 9052   0.246   2.932  12.056
 2791SOL    HW1 9053   0.264   2.848  12.099
 2791SOL    HW2 9054   0.194   2.980  12.120
 2792SOL     OW 9055   0.613   3.649  12.602
 2792SOL    HW1 9056   0.531   3.634  12.647
 2792SOL    HW2 9057   0.639   3.738  12.626
 2793SOL     OW 9058   0.582   2.845  11.308
 2793SOL    HW1 9059   0.628   2.893  11.238
 2793SOL    HW2 9060   0.625   2.874  11.388
 2794SOL     OW 9061   1.590   1.988  12.638
 2794SOL    HW1 9062   1.581   2.072  12.592
 2794SOL    HW2 9063   1.583   2.011  12.730
 2795SOL     OW 9064   0.141   2.510  11.746
 2795SOL    HW1 9065   0.086   2.432  11.746
 2795SOL    HW2 9066   0.105   2.565  11.815
 2796SOL     OW 9067   1.841   3.614  11.510
 2796SOL    HW1 9068   1.906   3.589  11.576
 2796SOL    HW2 9069   1.864   3.704  11.487
 2797SOL     OW 9070   0.041   3.455  11.312
 2797SOL    HW1 9071   0.031   3.362  11.334
 2797SOL    HW2 9072   3.963   3.496  11.349
 2798SOL     OW 9073   1.689   2.781  11.812
 2798SOL    HW1 9074   1.773   2.739  11.791
 2798SOL    HW2 9075   1.667   2.831  11.733
 2799SOL     OW 9076   1.646   2.969  11.601
 2799SOL    HW1 9077   1.731   2.975  11.559
 2799SOL    HW2 9078   1.651   3.030  11.675
 2800SOL     OW 9079   0.134   2.613  12.763
 2800SOL    HW1 9080   0.230   2.607  12.766
 2800SOL    HW2 9081   0.115   2.705  12.782
 2801SOL     OW 9082   0.614   3.246  11.906
 2801SOL    HW1 9083   0.567   3.163  11.916
 2801SOL    HW2 9084   0.596   3.273  11.816
 2802SOL     OW 9085   1.289   3.100  12.596
 2802SOL    HW1 9086   1.322   3.033  12.536
 2802SOL    HW2 9087   1.346   3.094  12.672
 2803SOL     OW 9088   0.816   1.861  11.680
 2803SOL    HW1 9089   0.856   1.946  11.662
 2803SOL    HW2 9090   0.722   1.880  11.688
 2804SOL     OW 9091   0.186   2.816  12.448
 2804SOL    HW1 9092   0.274   2.781  12.434
 2804SOL    HW2 9093   0.131   2.772  12.383
 2805SOL     OW 9094   1.532   2.855  11.370
 2805SOL    HW1 9095   1.462   2.797  11.401
 2805SOL    HW2 9096   1.572   2.889  11.450
 2806SOL     OW 9097   1.210   3.664  12.797
 2806SOL    HW1 9098   1.195   3.724  12.724
 2806SOL    HW2 9099   1.213   3.577  12.757
 2807SOL     OW 9100   0.338   2.109  12.984
 2807SOL    HW1 9101   0.379   2.195  12.992
 2807SOL    HW2 9102   0.247   2.124  13.010
 2808SOL     OW 9103   1.465   3.282  12.124
 2808SOL    HW1 9104   1.398   3.297  12.190
 2808SOL    HW2 9105   1.454   3.191  12.097
 2809SOL     OW 9106   1.657   3.598  11.752
 2809SOL    HW1 9107   1.640   3.568  11.662
 2809SOL    HW2 9108   1.633   3.523  11.807
 2810SOL     OW 9109   0.596   2.581  11.435
 2810SOL    HW1 9110   0.603   2.664  11.388
 2810SOL    HW2 9111   0.533   2.599  11.505
 2811SOL     OW 9112   1.279   2.215  12.105
 2811SOL    HW1 9113   1.190   2.180  12.114
 2811SOL    HW2 9114   1.332   2.161  12.163
 2812SOL     OW 9115   1.578   3.535  11.480
 2812SOL    HW1 9116   1.670   3.563  11.475
 2812SOL    HW2 9117   1.555   3.515  11.390
 2813SOL     OW 9118   0.792   2.479  12.624
 2813SOL    HW1 9119   0.765   2.456  12.713
 2813SOL    HW2 9120   0.751   2.413  12.569
 2814SOL     OW 9121   1.394   2.335  12.849
 2814SOL    HW1 9122   1.396   2.380  12.933
 2814SOL    HW2 9123   1.458   2.265  12.858
 2815SOL     OW 9124   0.955   2.749  12.754
 2815SOL    HW1 9125   1.010   2.679  12.719
 2815SOL    HW2 9126   0.908   2.783  12.678
 2816SOL     OW 9127   0.992   2.275  12.411
 2816SOL    HW1 9128   0.907   2.297  12.449
 2816SOL    HW2 9129   0.971   2.228  12.330
 2817SOL     OW 9130   1.051   2.560  11.598
 2817SOL    HW1 9131   1.066   2.553  11.692
 2817SOL    HW2 9132   0.969   2.513  11.583
 2818SOL     OW 9133   0.082   2.686  11.962
 2818SOL    HW1 9134   0.161   2.658  12.008
 2818SOL    HW2 9135   0.092   2.781  11.953
 2819SOL     OW 9136   0.128   3.712  12.746
 2819SOL    HW1 9137   0.134   3.682  12.837
 2819SOL    HW2 9138   0.035   3.701  12.724
 2820SOL     OW 9139   0.891   2.210  11.364
 2820SOL    HW1 9140   0.933   2.272  11.304
 2820SOL    HW2 9141   0.911   2.124  11.328
 2821SOL     OW 9142   1.706   2.439  13.003
 2821SOL    HW1 9143   1.670   2.510  12.950
 2821SOL    HW2 9144   1.737   2.375  12.940
 2822SOL     OW 9145   1.376   3.004  11.714
 2822SOL    HW1 9146   1.455   2.991  11.661
 2822SOL    HW2 9147   1.324   3.066  11.663
 2823SOL     OW 9148   0.546   2.042  12.065
 2823SOL    HW1 9149   0.552   2.073  12.155
 2823SOL    HW2 9150   0.548   2.122  12.012
 2824SOL     OW 9151   1.007   3.308  11.644
 2824SOL    HW1 9152   0.967   3.380  11.596
 2824SOL    HW2 9153   0.990   3.328  11.736
 2825SOL     OW 9154   0.359   3.668  12.029
 2825SOL    HW1 9155   0.434   3.610  12.039
 2825SOL    HW2 9156   0.394   3.756  12.039
 2826SOL     OW 9157   1.799   2.919  12.039
 2826SOL    HW1 9158   1.743   2.902  11.963
 2826SOL    HW2 9159   1.737   2.925  12.113
 2827SOL     OW 9160   1.228   3.399  12.683
 2827SOL    HW1 9161   1.214   3.327  12.745
 2827SOL    HW2 9162   1.163   3.385  12.614
 2828SOL     OW 9163   0.311   2.817  11.414
 2828SOL    HW1 9164   0.395   2.840  11.376
 2828SOL    HW2 9165   0.296   2.726  11.388
 2829SOL     OW 9166   1.478   2.602  11.899
 2829SOL    HW1 9167   1.468   2.560  11.984
 2829SOL    HW2 9168   1.555   2.658  11.909
 2830SOL     OW 9169   0.465   3.121  12.909
 2830SOL    HW1 9170   0.439   3.130  12.817
 2830SOL    HW2 9171   0.383   3.127  12.958
 2831SOL     OW 9172   1.113   3.642  11.396
 2831SOL    HW1 9173   1.051   3.594  11.451
 2831SOL    HW2 9174   1.142   3.578  11.331
 2832SOL     OW 9175   0.204   2.142  12.679
 2832SOL    HW1 9176   0.114   2.173  12.668
 2832SOL    HW2 9177   0.195   2.059  12.725
 2833SOL     OW 9178   1.628   3.242  11.261
 2833SOL    HW1 9179   1.588   3.327  11.243
 2833SOL    HW2 9180   1.559   3.178  11.241
 2834SOL     OW 9181   0.469   3.599  11.493
 2834SOL    HW1 9182   0.506   3.663  11.554
 2834SOL    HW2 9183   0.542   3.573  11.438
 2835SOL     OW 9184   1.398   1.970  11.601
 2835SOL    HW1 9185   1.382   1.946  11.510
 2835SOL    HW2 9186   1.492   1.955  11.614
 2836SOL     OW 9187   0.251   3.656  12.402
 2836SOL    HW1 9188   0.298   3.592  12.455
 2836SOL    HW2 9189   0.247   3.616  12.315
 2837SOL     OW 9190   0.937   3.561  12.073
 2837SOL    HW1 9191   1.015   3.508  12.094
 2837SOL    HW2 9192   0.892   3.512  12.005
 2838SOL     OW 9193   0.395   2.556  11.645
 2838SOL    HW1 9194   0.423   2.465  11.658
 2838SOL    HW2 9195   0.304   2.557  11.672
 2839SOL     OW 9196   1.538   2.086  12.897
 2839SOL    HW1 9197   1.550   2.108  12.989
 2839SOL    HW2 9198   1.468   2.021  12.897
 2840SOL     OW 9199   0.633   1.983  11.273
 2840SOL    HW1 9200   0.703   1.920  11.288
 2840SOL    HW2 9201   0.587   1.950  11.195
 2841SOL     OW 9202   0.766   2.139  12.925
 2841SOL    HW1 9203   0.842   2.080  12.928
 2841SOL    HW2 9204   0.719   2.121  13.006
 2842SOL     OW 9205   0.876   3.382  12.366
 2842SOL    HW1 9206   0.861   3.347  12.278
 2842SOL    HW2 9207   0.946   3.328  12.402
 2843SOL     OW 9208   1.341   2.450  12.604
 2843SOL    HW1 9209   1.372   2.419  12.689
 2843SOL    HW2 9210   1.377   2.539  12.597
 2844SOL     OW 9211   0.814   3.257  12.110
 2844SOL    HW1 9212   0.899   3.246  12.066
 2844SOL    HW2 9213   0.751   3.257  12.038
 2845SOL     OW 9214   0.927   2.371  12.075
 2845SOL    HW1 9215   0.905   2.363  11.983
 2845SOL    HW2 9216   0.960   2.285  12.100
 2846SOL     OW 9217   0.553   1.924  11.671
 2846SOL    HW1 9218   0.470   1.929  11.720
 2846SOL    HW2 9219   0.557   2.007  11.623
 2847SOL     OW 9220   1.428   3.060  11.213
 2847SOL    HW1 9221   1.459   2.984  11.263
 2847SOL    HW2 9222   1.342   3.080  11.250
 2848SOL     OW 9223   0.306   1.912  11.342
 2848SOL    HW1 9224   0.371   1.953  11.285
 2848SOL    HW2 9225   0.354   1.847  11.392
 2849SOL     OW 9226   0.938   2.107  11.634
 2849SOL    HW1 9227   0.907   2.149  11.554
 2849SOL    HW2 9228   1.032   2.123  11.635
 2850SOL     OW 9229   1.080   2.542  12.631
 2850SOL    HW1 9230   1.011   2.476  12.637
 2850SOL    HW2 9231   1.161   2.492  12.625
 2851SOL     OW 9232   1.224   3.431  11.965
 2851SOL    HW1 9233   1.240   3.500  11.900
 2851SOL    HW2 9234   1.292   3.444  12.032
 2852SOL     OW 9235   0.466   3.011  11.910
 2852SOL    HW1 9236   0.393   2.989  11.968
 2852SOL    HW2 9237   0.433   2.995  11.822
 2853SOL     OW 9238   1.269   3.658  11.777
 2853SOL    HW1 9239   1.314   3.722  11.722
 2853SOL    HW2 9240   1.199   3.708  11.820
 2854SOL     OW 9241   1.024   2.405  11.194
 2854SOL    HW1 9242   0.982   2.488  11.174
 2854SOL    HW2 9243   1.090   2.426  11.260
 2855SOL     OW 9244   0.080   2.433  12.562
 2855SOL    HW1 9245   0.170   2.419  12.531
 2855SOL    HW2 9246   0.087   2.502  12.628
 2856SOL     OW 9247   0.567   2.089  12.335
 2856SOL    HW1 9248   0.607   2.011  12.375
 2856SOL    HW2 9249   0.476   2.087  12.365
 2857SOL     OW 9250   0.869   2.321  11.812
 2857SOL    HW1 9251   0.820   2.374  11.749
 2857SOL    HW2 9252   0.888   2.240  11.765
 2858SOL     OW 9253   1.015   1.915  11.924
 2858SOL    HW1 9254   0.957   1.908  11.849
 2858SOL    HW2 9255   0.993   1.839  11.978
 2859SOL     OW 9256   1.436   3.025  12.029
 2859SOL    HW1 9257   1.368   2.958  12.029
 2859SOL    HW2 9258   1.460   3.036  11.937
 2860SOL     OW 9259   1.466   2.466  12.150
 2860SOL    HW1 9260   1.416   2.385  12.153
 2860SOL    HW2 9261   1.526   2.461  12.224
 2861SOL     OW 9262   1.846   2.679  11.555
 2861SOL    HW1 9263   1.903   2.628  11.612
 2861SOL    HW2 9264   1.818   2.616  11.488
 2862SOL     OW 9265   0.490   3.277  11.333
 2862SOL    HW1 9266   0.414   3.247  11.384
 2862SOL    HW2 9267   0.467   3.257  11.242
 2863SOL     OW 9268   1.670   3.126  11.818
 2863SOL    HW1 9269   1.765   3.130  11.832
 2863SOL    HW2 9270   1.639   3.215  11.840
 2864SOL     OW 9271   1.393   2.435  11.242
 2864SOL    HW1 9272   1.335   2.414  11.315
 2864SOL    HW2 9273   1.479   2.403  11.271
 2865SOL     OW 9274   0.573   2.131  11.495
 2865SOL    HW1 9275   0.598   2.081  11.417
 2865SOL    HW2 9276   0.540   2.214  11.461
 2866SOL     OW 9277   1.753   3.101  12.746
 2866SOL    HW1 9278   1.840   3.061  12.743
 2866SOL    HW2 9279   1.768   3.191  12.774
 2867SOL     OW 9280   1.059   3.215  12.505
 2867SOL    HW1 9281   0.984   3.184  12.557
 2867SOL    HW2 9282   1.135   3.174  12.547
 2868SOL     OW 9283   1.608   3.487  12.826
 2868SOL    HW1 9284   1.602   3.521  12.736
 2868SOL    HW2 9285   1.691   3.441  12.828
 2869SOL     OW 9286   1.128   3.064  12.278
 2869SOL    HW1 9287   1.070   3.103  12.343
 2869SOL    HW2 9288   1.094   3.096  12.194
 2870SOL     OW 9289   1.629   2.961  12.249
 2870SOL    HW1 9290   1.625   3.023  12.322
 2870SOL    HW2 9291   1.549   2.977  12.199
 2871SOL     OW 9292   0.918   1.959  12.569
 2871SOL    HW1 9293   0.941   1.940  12.478
 2871SOL    HW2 9294   0.997   1.999  12.606
 2872SOL     OW 9295   0.984   2.977  12.894
 2872SOL    HW1 9296   0.892   2.992  12.915
 2872SOL    HW2 9297   0.983   2.899  12.839
 2873SOL     OW 9298   0.707   2.922  11.543
 2873SOL    HW1 9299   0.694   2.907  11.637
 2873SOL    HW2 9300   0.784   2.869  11.521
 2874SOL     OW 9301   0.420   2.677  12.424
 2874SOL    HW1 9302   0.489   2.685  12.490
 2874SOL    HW2 9303   0.385   2.588  12.436
 2875SOL     OW 9304   1.266   2.239  12.447
 2875SOL    HW1 9305   1.298   2.316  12.493
 2875SOL    HW2 9306   1.176   2.261  12.423
 2876SOL     OW 9307   0.064   3.441  12.517
 2876SOL    HW1 9308   0.067   3.508  12.448
 2876SOL    HW2 9309   0.156   3.428  12.541
 2877SOL     OW 9310   0.374   2.964  11.658
 2877SOL    HW1 9311   0.368   3.043  11.603
 2877SOL    HW2 9312   0.373   2.891  11.595
 2878SOL     OW 9313   0.553   2.400  12.034
 2878SOL    HW1 9314   0.568   2.456  11.958
 2878SOL    HW2 9315   0.618   2.427  12.098
 2879SOL     OW 9316   1.248   3.210  11.561
 2879SOL    HW1 9317   1.304   3.282  11.592
 2879SOL    HW2 9318   1.161   3.231  11.595
 2880SOL     OW 9319   1.280   3.319  12.319
 2880SOL    HW1 9320   1.335   3.322  12.396
 2880SOL    HW2 9321   1.224   3.242  12.332
 2881SOL     OW 9322   1.578   2.488  11.644
 2881SOL    HW1 9323   1.535   2.539  11.712
 2881SOL    HW2 9324   1.628   2.552  11.593
 2882SOL     OW 9325   0.346   3.387  12.491
 2882SOL    HW1 9326   0.336   3.338  12.410
 2882SOL    HW2 9327   0.440   3.403  12.499
 2883SOL     OW 9328   0.413   2.602  12.773
 2883SOL    HW1 9329   0.474   2.649  12.716
 2883SOL    HW2 9330   0.454   2.518  12.789
 2884SOL     OW 9331   1.600   2.640  12.852
 2884SOL    HW1 9332   1.514   2.682  12.846
 2884SOL    HW2 9333   1.653   2.683  12.785
 2885SOL     OW 9334   0.996   1.984  12.927
 2885SOL    HW1 9335   1.051   2.057  12.898
 2885SOL    HW2 9336   1.044   1.905  12.901
 2886SOL     OW 9337   0.498   1.900  12.916
 2886SOL    HW1 9338   0.455   1.847  12.850
 2886SOL    HW2 9339   0.442   1.977  12.926
 2887SOL     OW 9340   0.584   2.735  12.203
 2887SOL    HW1 9341   0.615   2.826  12.202
 2887SOL    HW2 9342   0.528   2.730  12.281
 2888SOL     OW 9343   1.359   2.721  12.202
 2888SOL    HW1 9344   1.276   2.712  12.155
 2888SOL    HW2 9345   1.398   2.634  12.198
 2889SOL     OW 9346   1.206   2.391  11.440
 2889SOL    HW1 9347   1.213   2.313  11.494
 2889SOL    HW2 9348   1.163   2.455  11.496
 2890SOL     OW 9349   0.312   2.061  12.419
 2890SOL    HW1 9350   0.265   2.098  12.494
 2890SOL    HW2 9351   0.287   1.968  12.419
 2891SOL     OW 9352   0.057   3.167  12.452
 2891SOL    HW1 9353   0.090   3.128  12.533
 2891SOL    HW2 9354   0.051   3.260  12.471
 2892SOL     OW 9355   0.725   2.494  12.231
 2892SOL    HW1 9356   0.799   2.477  12.173
 2892SOL    HW2 9357   0.698   2.583  12.209
 2893SOL     OW 9358   1.734   2.822  13.024
 2893SOL    HW1 9359   1.688   2.760  12.967
 2893SOL    HW2 9360   1.674   2.834  13.098
 2894SOL     OW 9361   0.311   1.926  11.793
 2894SOL    HW1 9362   0.292   2.017  11.815
 2894SOL    HW2 9363   0.315   1.881  11.878
 2895SOL     OW 9364   1.611   2.239  11.544
 2895SOL    HW1 9365   1.621   2.184  11.622
 2895SOL    HW2 9366   1.588   2.325  11.579
 2896SOL     OW 9367   1.028   2.621  12.133
 2896SOL    HW1 9368   1.025   2.639  12.227
 2896SOL    HW2 9369   1.001   2.529  12.125
 2897SOL     OW 9370   0.985   3.429  12.889
 2897SOL    HW1 9371   0.967   3.472  12.805
 2897SOL    HW2 9372   1.027   3.346  12.866
 2898SOL     OW 9373   1.855   3.368  12.777
 2898SOL    HW1 9374   1.873   3.395  12.687
 2898SOL    HW2 9375   1.936   3.389  12.825
 2899SOL     OW 9376   0.351   2.781  12.974
 2899SOL    HW1 9377   0.431   2.803  13.023
 2899SOL    HW2 9378   0.379   2.716  12.910
 2900SOL     OW 9379   1.528   2.135  11.300
 2900SOL    HW1 9380   1.462   2.070  11.327
 2900SOL    HW2 9381   1.560   2.172  11.383
 2901SOL     OW 9382   1.292   2.689  11.204
 2901SOL    HW1 9383   1.335   2.603  11.207
 2901SOL    HW2 9384   1.324   2.728  11.122
 2902SOL     OW 9385   1.065   3.198  12.025
 2902SOL    HW1 9386   1.068   3.125  11.963
 2902SOL    HW2 9387   1.127   3.261  11.991
 2903SOL     OW 9388   0.314   2.667  12.123
 2903SOL    HW1 9389   0.407   2.685  12.116
 2903SOL    HW2 9390   0.309   2.578  12.156
 2904SOL     OW 9391   0.332   2.381  12.185
 2904SOL    HW1 9392   0.297   2.293  12.167
 2904SOL    HW2 9393   0.408   2.389  12.127
 2905SOL     OW 9394   1.134   2.238  12.853
 2905SOL    HW1 9395   1.088   2.294  12.916
 2905SOL    HW2 9396   1.223   2.275  12.850
 2906SOL     OW 9397   1.160   2.065  12.642
 2906SOL    HW1 9398   1.150   2.128  12.714
 2906SOL    HW2 9399   1.200   2.116  12.571
 2907SOL     OW 9400   3.999   3.183  11.354
 2907SOL    HW1 9401   3.905   3.198  11.358
 2907SOL    HW2 9402   0.009   3.089  11.373
 2908SOL     OW 9403   0.075   3.663  12.066
 2908SOL    HW1 9404   0.085   3.568  12.070
 2908SOL    HW2 9405   0.165   3.696  12.062
 2909SOL     OW 9406   0.507   3.428  12.086
 2909SOL    HW1 9407   0.574   3.493  12.107
 2909SOL    HW2 9408   0.551   3.367  12.026
 2910SOL     OW 9409   0.984   2.655  12.399
 2910SOL    HW1 9410   1.040   2.631  12.474
 2910SOL    HW2 9411   0.899   2.618  12.420
 2911SOL     OW 9412   0.037   2.416  12.282
 2911SOL    HW1 9413   0.119   2.391  12.240
 2911SOL    HW2 9414   0.057   2.414  12.376
 2912SOL     OW 9415   0.206   2.376  12.899
 2912SOL    HW1 9416   0.249   2.332  12.825
 2912SOL    HW2 9417   0.155   2.446  12.859
 2913SOL     OW 9418   1.376   2.802  12.830
 2913SOL    HW1 9419   1.398   2.895  12.829
 2913SOL    HW2 9420   1.374   2.776  12.738
 2914SOL     OW 9421   0.817   2.431  11.529
 2914SOL    HW1 9422   0.820   2.355  11.472
 2914SOL    HW2 9423   0.743   2.482  11.498
 2915SOL     OW 9424   1.644   2.464  12.358
 2915SOL    HW1 9425   1.632   2.408  12.434
 2915SOL    HW2 9426   1.730   2.440  12.324
 2916SOL     OW 9427   0.296   3.410  12.903
 2916SOL    HW1 9428   0.245   3.479  12.946
 2916SOL    HW2 9429   0.262   3.329  12.941
 2917SOL     OW 9430   0.699   2.314  12.433
 2917SOL    HW1 9431   0.649   2.239  12.401
 2917SOL    HW2 9432   0.696   2.377  12.360
 2918SOL     OW 9433   0.930   3.536  12.639
 2918SOL    HW1 9434   0.903   3.501  12.554
 2918SOL    HW2 9435   0.924   3.631  12.630
 2919SOL     OW 9436   0.460   2.353  11.364
 2919SOL    HW1 9437   0.524   2.422  11.383
 2919SOL    HW2 9438   0.379   2.400  11.345
 2920SOL     OW 9439   0.157   2.998  12.645
 2920SOL    HW1 9440   0.160   2.946  12.726
 2920SOL    HW2 9441   0.172   2.935  12.575
 2921SOL     OW 9442   1.327   2.909  12.395
 2921SOL    HW1 9443   1.350   2.846  12.327
 2921SOL    HW2 9444   1.256   2.961  12.357
 2922SOL     OW 9445   1.310   2.719  11.479
 2922SOL    HW1 9446   1.234   2.688  11.528
 2922SOL    HW2 9447   1.286   2.705  11.387
 2923SOL     OW 9448   1.768   3.607  12.320
 2923SOL    HW1 9449   1.831   3.634  12.253
 2923SOL    HW2 9450   1.747   3.516  12.298
 2924SOL     OW 9451   1.243   3.596  12.285
 2924SOL    HW1 9452   1.326   3.615  12.240
 2924SOL    HW2 9453   1.247   3.502  12.304
 2925SOL     OW 9454   0.075   3.078  12.199
 2925SOL    HW1 9455   0.082   3.104  12.291
 2925SOL    HW2 9456   3.982   3.086  12.179
 2926SOL     OW 9457   0.679   3.525  12.899
 2926SOL    HW1 9458   0.623   3.603  12.902
 2926SOL    HW2 9459   0.739   3.541  12.826
 2927SOL     OW 9460   1.390   3.431  11.656
 2927SOL    HW1 9461   1.450   3.463  11.589
 2927SOL    HW2 9462   1.343   3.509  11.686
 2928SOL     OW 9463   0.166   3.629  13.003
 2928SOL    HW1 9464   0.110   3.577  13.060
 2928SOL    HW2 9465   0.214   3.686  13.063
 2929SOL     OW 9466   1.278   2.787  11.843
 2929SOL    HW1 9467   1.351   2.726  11.849
 2929SOL    HW2 9468   1.311   2.860  11.791
 2930SOL     OW 9469   0.816   3.135  12.603
 2930SOL    HW1 9470   0.788   3.174  12.686
 2930SOL    HW2 9471   0.745   3.155  12.542
 2931SOL     OW 9472   0.675   3.476  11.329
 2931SOL    HW1 9473   0.682   3.492  11.235
 2931SOL    HW2 9474   0.618   3.400  11.336
 2932SOL     OW 9475   1.627   3.588  12.562
 2932SOL    HW1 9476   1.677   3.594  12.481
 2932SOL    HW2 9477   1.614   3.678  12.590
 2933SOL     OW 9478   0.268   2.177  11.890
 2933SOL    HW1 9479   0.183   2.212  11.863
 2933SOL    HW2 9480   0.262   2.166  11.984
 2934SOL     OW 9481   1.207   3.468  11.207
 2934SOL    HW1 9482   1.197   3.376  11.231
 2934SOL    HW2 9483   1.146   3.481  11.134
 2935SOL     OW 9484   0.823   2.868  12.544
 2935SOL    HW1 9485   0.868   2.864  12.459
 2935SOL    HW2 9486   0.824   2.960  12.567
 2936SOL     OW 9487   0.915   2.772  11.462
 2936SOL    HW1 9488   0.977   2.804  11.396
 2936SOL    HW2 9489   0.963   2.702  11.507
 2937SOL     OW 9490   1.491   3.489  11.214
 2937SOL    HW1 9491   1.397   3.480  11.198
 2937SOL    HW2 9492   1.529   3.494  11.126
 2938SOL     OW 9493   0.373   3.164  12.663
 2938SOL    HW1 9494   0.359   3.245  12.613
 2938SOL    HW2 9495   0.296   3.111  12.646
 2939SOL     OW 9496   1.611   3.145  12.453
 2939SOL    HW1 9497   1.671   3.135  12.527
 2939SOL    HW2 9498   1.551   3.214  12.480
 2940SOL     OW 9499   1.051   2.969  11.878
 2940SOL    HW1 9500   0.980   2.917  11.917
 2940SOL    HW2 9501   1.113   2.903  11.846
 2941SOL     OW 9502   1.021   2.102  12.138
 2941SOL    HW1 9503   1.016   2.054  12.055
 2941SOL    HW2 9504   1.016   2.034  12.205
 2942SOL     OW 9505   0.604   3.352  11.653
 2942SOL    HW1 9506   0.646   3.301  11.584
 2942SOL    HW2 9507   0.535   3.401  11.608
 2943SOL     OW 9508   1.725   2.248  12.545
 2943SOL    HW1 9509   1.796   2.312  12.553
 2943SOL    HW2 9510   1.761   2.180  12.487
 2944SOL     OW 9511   0.252   3.204  11.462
 2944SOL    HW1 9512   0.160   3.214  11.442
 2944SOL    HW2 9513   0.263   3.242  11.550
 2945SOL     OW 9514   0.105   2.861  12.889
 2945SOL    HW1 9515   0.044   2.852  12.962
 2945SOL    HW2 9516   0.191   2.842  12.927
 2946SOL     OW 9517   0.674   2.058  12.671
 2946SOL    HW1 9518   0.758   2.039  12.629
 2946SOL    HW2 9519   0.697   2.089  12.759
 2947SOL     OW 9520   0.080   2.181  11.209
 2947SOL    HW1 9521   3.985   2.180  11.214
 2947SOL    HW2 9522   0.101   2.261  11.161
 2948SOL     OW 9523   1.430   2.720  12.573
 2948SOL    HW1 9524   1.382   2.781  12.516
 2948SOL    HW2 9525   1.520   2.723  12.540
 2949SOL     OW 9526   0.024   2.085  11.541
 2949SOL    HW1 9527   0.046   2.151  11.476
 2949SOL    HW2 9528   0.109   2.050  11.569
 2950SOL     OW 9529   1.179   3.202  11.289
 2950SOL    HW1 9530   1.088   3.173  11.291
 2950SOL    HW2 9531   1.207   3.201  11.380
 2951SOL     OW 9532   0.618   2.693  12.607
 2951SOL    HW1 9533   0.674   2.769  12.591
 2951SOL    HW2 9534   0.679   2.619  12.615
 2952SOL     OW 9535   1.485   3.639  12.151
 2952SOL    HW1 9536   1.511   3.694  12.077
 2952SOL    HW2 9537   1.568   3.619  12.195
 2953SOL     OW 9538   0.716   2.426  12.878
 2953SOL    HW1 9539   0.757   2.490  12.937
 2953SOL    HW2 9540   0.747   2.341  12.908
 2954SOL     OW 9541   1.471   3.063  12.804
 2954SOL    HW1 9542   1.459   3.076  12.898
 2954SOL    HW2 9543   1.564   3.077  12.790
 2955SOL     OW 9544   0.379   3.605  12.731
 2955SOL    HW1 9545   0.292   3.641  12.718
 2955SOL    HW2 9546   0.365   3.523  12.779
 2956SOL     OW 9547   1.671   2.744  12.427
 2956SOL    HW1 9548   1.663   2.658  12.384
 2956SOL    HW2 9549   1.661   2.807  12.356
 2957SOL     OW 9550   1.217   2.182  11.630
 2957SOL    HW1 9551   1.279   2.111  11.621
 2957SOL    HW2 9552   1.245   2.231  11.707
 2958SOL     OW 9553   0.590   2.601  11.841
 2958SOL    HW1 9554   0.629   2.687  11.825
 2958SOL    HW2 9555   0.522   2.593  11.775
 2959SOL     OW 9556   1.760   2.240  12.820
 2959SOL    HW1 9557   1.742   2.241  12.726
 2959SOL    HW2 9558   1.700   2.173  12.855
 2960SOL     OW 9559   1.743   2.797  12.684
 2960SOL    HW1 9560   1.742   2.892  12.697
 2960SOL    HW2 9561   1.729   2.785  12.590
 2961SOL     OW 9562   0.864   3.230  11.206
 2961SOL    HW1 9563   0.822   3.258  11.287
 2961SOL    HW2 9564   0.880   3.311  11.158
 2962SOL     OW 9565   0.658   3.653  12.113
 2962SOL    HW1 9566   0.636   3.744  12.092
 2962SOL    HW2 9567   0.754   3.651  12.109
 2963SOL     OW 9568   0.867   2.828  12.027
 2963SOL    HW1 9569   0.918   2.757  12.067
 2963SOL    HW2 9570   0.833   2.878  12.101
 2964SOL     OW 9571   1.079   2.849  11.260
 2964SOL    HW1 9572   1.058   2.901  11.182
 2964SOL    HW2 9573   1.154   2.797  11.235
 2965SOL     OW 9574   1.854   3.415  12.015
 2965SOL    HW1 9575   1.775   3.404  11.963
 2965SOL    HW2 9576   1.846   3.350  12.085
 2966SOL     OW 9577   0.224   3.166  13.027
 2966SOL    HW1 9578   0.152   3.108  13.002
 2966SOL    HW2 9579   0.212   3.180  13.121
 2967SOL     OW 9580   0.110   3.135  11.889
 2967SOL    HW1 9581   0.122   3.085  11.969
 2967SOL    HW2 9582   0.110   3.070  11.819
 2968SOL     OW 9583   0.680   3.264  12.800
 2968SOL    HW1 9584   0.600   3.222  12.830
 2968SOL    HW2 9585   0.676   3.352  12.836
 2969SOL     OW 9586   0.441   2.296  11.704
 2969SOL    HW1 9587   0.443   2.227  11.639
 2969SOL    HW2 9588   0.386   2.261  11.775
 2970SOL     OW 9589   1.701   3.351  12.268
 2970SOL    HW1 9590   1.619   3.327  12.225
 2970SOL    HW2 9591   1.714   3.283  12.334
 2971SOL     OW 9592   0.331   2.416  12.463
 2971SOL    HW1 9593   0.387   2.360  12.517
 2971SOL    HW2 9594   0.348   2.387  12.373
 2972SOL     OW 9595   0.826   3.441  11.850
 2972SOL    HW1 9596   0.816   3.488  11.767
 2972SOL    HW2 9597   0.750   3.383  11.853
 2973SOL     OW 9598   1.437   2.090  12.291
 2973SOL    HW1 9599   1.452   2.004  12.332
 2973SOL    HW2 9600   1.382   2.136  12.354
 2974SOL     OW 9601   1.009   1.881  12.315
 2974SOL    HW1 9602   0.955   1.813  12.275
 2974SOL    HW2 9603   1.097   1.843  12.317
 2975SOL     OW 9604   0.771   3.194  11.487
 2975SOL    HW1 9605   0.739   3.104  11.492
 2975SOL    HW2 9606   0.854   3.193  11.534
 2976SOL     OW 9607   0.620   3.418  12.456
 2976SOL    HW1 9608   0.622   3.499  12.507
 2976SOL    HW2 9609   0.708   3.411  12.418
 2977SOL     OW 9610   1.350   1.914  11.337
 2977SOL    HW1 9611   1.378   1.855  11.267
 2977SOL    HW2 9612   1.264   1.883  11.362
 2978SOL     OW 9613   1.298   2.323  11.854
 2978SOL    HW1 9614   1.244   2.401  11.861
 2978SOL    HW2 9615   1.294   2.282  11.940
 2979SOL     OW 9616   1.573   2.059  12.043
 2979SOL    HW1 9617   1.532   2.082  12.126
 2979SOL    HW2 9618   1.589   2.142  11.999
 2980SOL     OW 9619   0.045   2.914  11.411
 2980SOL    HW1 9620   0.139   2.897  11.403
 2980SOL    HW2 9621   0.010   2.834  11.450
 2981SOL     OW 9622   0.883   3.516  11.517
 2981SOL    HW1 9623   0.813   3.497  11.455
 2981SOL    HW2 9624   0.852   3.593  11.565
 2982SOL     OW 9625   0.230   2.484  13.155
 2982SOL    HW1 9626   0.137   2.493  13.175
 2982SOL    HW2 9627   0.233   2.455  13.064
 2983SOL     OW 9628   0.284   2.127   0.131
 2983SOL    HW1 9629   0.316   2.183   0.202
 2983SOL    HW2 9630   0.199   2.163   0.107
 2984SOL     OW 9631   0.007   2.226  13.658
 2984SOL    HW1 9632   3.913   2.245  13.663
 2984SOL    HW2 9633   0.019   2.187  13.571
 2985SOL     OW 9634   1.530   3.362  13.724
 2985SOL    HW1 9635   1.473   3.304  13.773
 2985SOL    HW2 9636   1.483   3.379  13.642
 2986SOL     OW 9637   1.126   2.564  13.734
 2986SOL    HW1 9638   1.182   2.637  13.709
 2986SOL    HW2 9639   1.082   2.593  13.814
 2987SOL     OW 9640   1.775   2.466  13.261
 2987SOL    HW1 9641   1.749   2.461  13.169
 2987SOL    HW2 9642   1.733   2.391  13.302
 2988SOL     OW 9643   0.686   2.872  13.673
 2988SOL    HW1 9644   0.741   2.851  13.748
 2988SOL    HW2 9645   0.613   2.923  13.710
 2989SOL     OW 9646   1.623   2.315  13.741
 2989SOL    HW1 9647   1.531   2.327  13.717
 2989SOL    HW2 9648   1.633   2.365  13.822
 2990SOL     OW 9649   0.222   3.573  13.497
 2990SOL    HW1 9650   0.241   3.632  13.570
 2990SOL    HW2 9651   0.301   3.576  13.443
 2991SOL     OW 9652   0.244   3.304  13.571
 2991SOL    HW1 9653   0.218   3.396  13.562
 2991SOL    HW2 9654   0.179   3.266  13.630
 2992SOL     OW 9655   0.250   2.940   0.019
 2992SOL    HW1 9656   0.272   2.895   0.101
 2992SOL    HW2 9657   0.210   3.022   0.047
 2993SOL     OW 9658   0.582   2.845  13.169
 2993SOL    HW1 9659   0.628   2.893  13.099
 2993SOL    HW2 9660   0.624   2.875  13.249
 2994SOL     OW 9661   0.143   2.504  13.616
 2994SOL    HW1 9662   0.071   2.444  13.595
 2994SOL    HW2 9663   0.103   2.570  13.673
 2995SOL     OW 9664   1.842   3.615  13.373
 2995SOL    HW1 9665   1.907   3.590  13.438
 2995SOL    HW2 9666   1.864   3.705  13.349
 2996SOL     OW 9667   0.041   3.456  13.174
 2996SOL    HW1 9668   0.032   3.363  13.196
 2996SOL    HW2 9669   3.966   3.498  13.216
 2997SOL     OW 9670   1.688   2.778  13.669
 2997SOL    HW1 9671   1.774   2.743  13.648
 2997SOL    HW2 9672   1.665   2.832  13.593
 2998SOL     OW 9673   1.646   2.968  13.460
 2998SOL    HW1 9674   1.731   2.973  13.418
 2998SOL    HW2 9675   1.652   3.029  13.533
 2999SOL     OW 9676   0.612   3.247  13.762
 2999SOL    HW1 9677   0.563   3.167  13.778
 2999SOL    HW2 9678   0.584   3.275  13.675
 3000SOL     OW 9679   0.815   1.859  13.543
 3000SOL    HW1 9680   0.855   1.943  13.523
 3000SOL    HW2 9681   0.721   1.879  13.551
 3001SOL     OW 9682   1.531   2.854  13.232
 3001SOL    HW1 9683   1.461   2.797  13.264
 3001SOL    HW2 9684   1.571   2.890  13.312
 3002SOL     OW 9685   1.656   3.596  13.612
 3002SOL    HW1 9686   1.637   3.568  13.523
 3002SOL    HW2 9687   1.646   3.517  13.665
 3003SOL     OW 9688   0.595   2.582  13.296
 3003SOL    HW1 9689   0.603   2.664  13.249
 3003SOL    HW2 9690   0.533   2.600  13.366
 3004SOL     OW 9691   1.255   2.193   0.046
 3004SOL    HW1 9692   1.183   2.141   0.082
 3004SOL    HW2 9693   1.333   2.161   0.092
 3005SOL     OW 9694   1.579   3.537  13.341
 3005SOL    HW1 9695   1.671   3.563  13.337
 3005SOL    HW2 9696   1.556   3.516  13.250
 3006SOL     OW 9697   1.048   2.559  13.460
 3006SOL    HW1 9698   1.062   2.549  13.554
 3006SOL    HW2 9699   0.967   2.511  13.442
 3007SOL     OW 9700   0.082   2.696  13.808
 3007SOL    HW1 9701   0.167   2.680  13.849
 3007SOL    HW2 9702   0.074   2.792  13.806
 3008SOL     OW 9703   0.889   2.210  13.225
 3008SOL    HW1 9704   0.933   2.271  13.166
 3008SOL    HW2 9705   0.912   2.124  13.191
 3009SOL     OW 9706   1.365   2.998  13.558
 3009SOL    HW1 9707   1.453   2.995  13.522
 3009SOL    HW2 9708   1.321   3.069  13.509
 3010SOL     OW 9709   1.005   3.306  13.504
 3010SOL    HW1 9710   0.967   3.380  13.457
 3010SOL    HW2 9711   0.978   3.318  13.595
 3011SOL     OW 9712   0.405   3.671  13.820
 3011SOL    HW1 9713   0.436   3.586  13.852
 3011SOL    HW2 9714   0.443   3.734  13.881
 3012SOL     OW 9715   1.792   2.917  13.898
 3012SOL    HW1 9716   1.734   2.906  13.823
 3012SOL    HW2 9717   1.734   2.913   0.074
 3013SOL     OW 9718   0.311   2.817  13.277
 3013SOL    HW1 9719   0.395   2.841  13.238
 3013SOL    HW2 9720   0.296   2.727  13.249
 3014SOL     OW 9721   1.486   2.595  13.746
 3014SOL    HW1 9722   1.476   2.546  13.828
 3014SOL    HW2 9723   1.560   2.653  13.761
 3015SOL     OW 9724   1.112   3.643  13.257
 3015SOL    HW1 9725   1.051   3.595  13.313
 3015SOL    HW2 9726   1.142   3.578  13.193
 3016SOL     OW 9727   1.628   3.242  13.122
 3016SOL    HW1 9728   1.587   3.327  13.105
 3016SOL    HW2 9729   1.559   3.178  13.103
 3017SOL     OW 9730   0.468   3.599  13.353
 3017SOL    HW1 9731   0.505   3.661  13.416
 3017SOL    HW2 9732   0.542   3.572  13.299
 3018SOL     OW 9733   1.401   1.974  13.461
 3018SOL    HW1 9734   1.382   1.949  13.371
 3018SOL    HW2 9735   1.494   1.953  13.473
 3019SOL     OW 9736   0.932   3.550   0.013
 3019SOL    HW1 9737   0.962   3.482   0.073
 3019SOL    HW2 9738   0.885   3.504  13.844
 3020SOL     OW 9739   0.394   2.558  13.506
 3020SOL    HW1 9740   0.424   2.467  13.517
 3020SOL    HW2 9741   0.303   2.557  13.536
 3021SOL     OW 9742   0.632   1.983  13.135
 3021SOL    HW1 9743   0.703   1.920  13.151
 3021SOL    HW2 9744   0.587   1.950  13.057
 3022SOL     OW 9745   0.552   1.925  13.534
 3022SOL    HW1 9746   0.467   1.928  13.579
 3022SOL    HW2 9747   0.557   2.007  13.486
 3023SOL     OW 9748   1.428   3.060  13.075
 3023SOL    HW1 9749   1.459   2.984  13.125
 3023SOL    HW2 9750   1.343   3.080  13.113
 3024SOL     OW 9751   0.305   1.912  13.203
 3024SOL    HW1 9752   0.372   1.952  13.147
 3024SOL    HW2 9753   0.353   1.847  13.255
 3025SOL     OW 9754   0.938   2.102  13.496
 3025SOL    HW1 9755   0.906   2.148  13.419
 3025SOL    HW2 9756   1.032   2.122  13.498
 3026SOL     OW 9757   0.468   3.005  13.772
 3026SOL    HW1 9758   0.394   2.986  13.829
 3026SOL    HW2 9759   0.434   2.994  13.684
 3027SOL     OW 9760   1.271   3.660  13.630
 3027SOL    HW1 9761   1.314   3.727  13.577
 3027SOL    HW2 9762   1.204   3.709  13.679
 3028SOL     OW 9763   1.024   2.405  13.055
 3028SOL    HW1 9764   0.982   2.488  13.036
 3028SOL    HW2 9765   1.090   2.426  13.122
 3029SOL     OW 9766   0.891   2.333  13.668
 3029SOL    HW1 9767   0.822   2.377  13.618
 3029SOL    HW2 9768   0.895   2.245  13.630
 3030SOL     OW 9769   1.025   1.901  13.779
 3030SOL    HW1 9770   0.965   1.913  13.706
 3030SOL    HW2 9771   0.994   1.822  13.823
 3031SOL     OW 9772   1.846   2.679  13.413
 3031SOL    HW1 9773   1.903   2.629  13.472
 3031SOL    HW2 9774   1.819   2.617  13.346
 3032SOL     OW 9775   0.489   3.277  13.196
 3032SOL    HW1 9776   0.414   3.247  13.246
 3032SOL    HW2 9777   0.467   3.257  13.105
 3033SOL     OW 9778   1.680   3.131  13.667
 3033SOL    HW1 9779   1.772   3.134  13.691
 3033SOL    HW2 9780   1.643   3.211  13.702
 3034SOL     OW 9781   1.393   2.435  13.104
 3034SOL    HW1 9782   1.335   2.415  13.177
 3034SOL    HW2 9783   1.479   2.405  13.133
 3035SOL     OW 9784   0.572   2.131  13.357
 3035SOL    HW1 9785   0.598   2.081  13.280
 3035SOL    HW2 9786   0.541   2.214  13.322
 3036SOL     OW 9787   0.707   2.923  13.401
 3036SOL    HW1 9788   0.694   2.909  13.495
 3036SOL    HW2 9789   0.784   2.870  13.381
 3037SOL     OW 9790   0.377   2.964  13.520
 3037SOL    HW1 9791   0.368   3.044  13.467
 3037SOL    HW2 9792   0.374   2.893  13.456
 3038SOL     OW 9793   0.571   2.404  13.869
 3038SOL    HW1 9794   0.582   2.470  13.800
 3038SOL    HW2 9795   0.627   2.434   0.040
 3039SOL     OW 9796   1.247   3.212  13.419
 3039SOL    HW1 9797   1.302   3.285  13.448
 3039SOL    HW2 9798   1.160   3.232  13.455
 3040SOL     OW 9799   1.577   2.491  13.494
 3040SOL    HW1 9800   1.540   2.532  13.572
 3040SOL    HW2 9801   1.627   2.561  13.452
 3041SOL     OW 9802   1.205   2.390  13.301
 3041SOL    HW1 9803   1.212   2.312  13.356
 3041SOL    HW2 9804   1.163   2.455  13.357
 3042SOL     OW 9805   0.301   1.924  13.642
 3042SOL    HW1 9806   0.291   2.014  13.672
 3042SOL    HW2 9807   0.312   1.873  13.723
 3043SOL     OW 9808   1.613   2.238  13.409
 3043SOL    HW1 9809   1.610   2.185  13.489
 3043SOL    HW2 9810   1.590   2.326  13.439
 3044SOL     OW 9811   1.529   2.135  13.163
 3044SOL    HW1 9812   1.463   2.071  13.190
 3044SOL    HW2 9813   1.562   2.171  13.245
 3045SOL     OW 9814   1.291   2.688  13.065
 3045SOL    HW1 9815   1.335   2.603  13.068
 3045SOL    HW2 9816   1.323   2.728  12.983
 3046SOL     OW 9817   3.999   3.183  13.215
 3046SOL    HW1 9818   3.905   3.199  13.220
 3046SOL    HW2 9819   0.009   3.090  13.235
 3047SOL     OW 9820   0.817   2.433  13.385
 3047SOL    HW1 9821   0.818   2.355  13.330
 3047SOL    HW2 9822   0.741   2.483  13.356
 3048SOL     OW 9823   0.460   2.353  13.225
 3048SOL    HW1 9824   0.524   2.421  13.244
 3048SOL    HW2 9825   0.379   2.401  13.207
 3049SOL     OW 9826   1.311   2.716  13.339
 3049SOL    HW1 9827   1.234   2.689  13.389
 3049SOL    HW2 9828   1.286   2.703  13.247
 3050SOL     OW 9829   1.384   3.434  13.508
 3050SOL    HW1 9830   1.445   3.470  13.443
 3050SOL    HW2 9831   1.340   3.511  13.544
 3051SOL     OW 9832   1.286   2.777  13.686
 3051SOL    HW1 9833   1.363   2.721  13.672
 3051SOL    HW2 9834   1.310   2.860  13.647
 3052SOL     OW 9835   0.674   3.477  13.190
 3052SOL    HW1 9836   0.682   3.492  13.096
 3052SOL    HW2 9837   0.618   3.400  13.198
 3053SOL     OW 9838   0.280   2.172  13.741
 3053SOL    HW1 9839   0.196   2.215  13.721
 3053SOL    HW2 9840   0.286   2.176  13.837
 3054SOL     OW 9841   1.207   3.468  13.068
 3054SOL    HW1 9842   1.197   3.376  13.093
 3054SOL    HW2 9843   1.146   3.481  12.996
 3055SOL     OW 9844   0.917   2.773  13.326
 3055SOL    HW1 9845   0.977   2.804  13.259
 3055SOL    HW2 9846   0.963   2.701  13.368
 3056SOL     OW 9847   1.491   3.489  13.075
 3056SOL    HW1 9848   1.397   3.480  13.060
 3056SOL    HW2 9849   1.529   3.494  12.988
 3057SOL     OW 9850   1.049   2.953  13.753
 3057SOL    HW1 9851   0.963   2.912  13.748
 3057SOL    HW2 9852   1.101   2.908  13.687
 3058SOL     OW 9853   0.602   3.355  13.509
 3058SOL    HW1 9854   0.644   3.303  13.440
 3058SOL    HW2 9855   0.532   3.403  13.463
 3059SOL     OW 9856   0.252   3.203  13.324
 3059SOL    HW1 9857   0.159   3.214  13.303
 3059SOL    HW2 9858   0.262   3.242  13.411
 3060SOL     OW 9859   0.080   2.181  13.072
 3060SOL    HW1 9860   3.985   2.180  13.076
 3060SOL    HW2 9861   0.101   2.261  13.023
 3061SOL     OW 9862   0.023   2.093  13.405
 3061SOL    HW1 9863   0.048   2.151  13.333
 3061SOL    HW2 9864   0.105   2.049  13.429
 3062SOL     OW 9865   1.179   3.202  13.149
 3062SOL    HW1 9866   1.088   3.173  13.153
 3062SOL    HW2 9867   1.207   3.202  13.241
 3063SOL     OW 9868   1.217   2.182  13.491
 3063SOL    HW1 9869   1.280   2.111  13.482
 3063SOL    HW2 9870   1.246   2.230  13.568
 3064SOL     OW 9871   0.593   2.611  13.693
 3064SOL    HW1 9872   0.628   2.698  13.675
 3064SOL    HW2 9873   0.522   2.600  13.629
 3065SOL     OW 9874   0.863   3.230  13.067
 3065SOL    HW1 9875   0.823   3.257  13.149
 3065SOL    HW2 9876   0.880   3.312  13.021
 3066SOL     OW 9877   0.656   3.706   0.066
 3066SOL    HW1 9878   0.651   3.800   0.085
 3066SOL    HW2 9879   0.748   3.683   0.079
 3067SOL     OW 9880   0.832   2.824  13.893
 3067SOL    HW1 9881   0.874   2.747   0.033
 3067SOL    HW2 9882   0.843   2.893   0.059
 3068SOL     OW 9883   1.077   2.848  13.122
 3068SOL    HW1 9884   1.057   2.901  13.044
 3068SOL    HW2 9885   1.154   2.796  13.097
 3069SOL     OW 9886   0.113   3.132  13.752
 3069SOL    HW1 9887   0.057   3.083  13.813
 3069SOL    HW2 9888   0.126   3.073  13.678
 3070SOL     OW 9889   0.443   2.299  13.558
 3070SOL    HW1 9890   0.448   2.227  13.496
 3070SOL    HW2 9891   0.400   2.262  13.635
 3071SOL     OW 9892   1.680   3.329   0.335
 3071SOL    HW1 9893   1.651   3.305   0.247
 3071SOL    HW2 9894   1.763   3.283   0.346
 3072SOL     OW 9895   0.820   3.417  13.711
 3072SOL    HW1 9896   0.800   3.466  13.632
 3072SOL    HW2 9897   0.742   3.362  13.725
 3073SOL     OW 9898   0.772   3.194  13.345
 3073SOL    HW1 9899   0.740   3.104  13.352
 3073SOL    HW2 9900   0.854   3.194  13.395
 3074SOL     OW 9901   1.350   1.914  13.199
 3074SOL    HW1 9902   1.378   1.855  13.129
 3074SOL    HW2 9903   1.264   1.882  13.224
 3075SOL     OW 9904   1.304   2.321  13.713
 3075SOL    HW1 9905   1.248   2.399  13.720
 3075SOL    HW2 9906   1.291   2.275  13.796
 3076SOL     OW 9907   0.045   2.914  13.271
 3076SOL    HW1 9908   0.139   2.898  13.264
 3076SOL    HW2 9909   0.010   2.834  13.311
 3077SOL     OW 9910   0.883   3.516  13.379
 3077SOL    HW1 9911   0.812   3.497  13.317
 3077SOL    HW2 9912   0.852   3.592  13.429
 3078SOL     OW 9913   0.234   3.954   0.972
 3078SOL    HW1 9914   0.251   3.963   1.065
 3078SOL    HW2 9915   0.140   3.972   0.963
 3079SOL     OW 9916   0.019   0.093   0.640
 3079SOL    HW1 9917   3.930   0.086   0.674
 3079SOL    HW2 9918   0.015   0.052   0.553
 3080SOL     OW 9919   1.805   0.354   0.268
 3080SOL    HW1 9920   1.781   0.329   0.178
 3080SOL    HW2 9921   1.723   0.348   0.317
 3081SOL     OW 9922   0.441   0.101   1.511
 3081SOL    HW1 9923   0.511   0.060   1.461
 3081SOL    HW2 9924   0.363   0.051   1.487
 3082SOL     OW 9925   1.597   3.846   1.465
 3082SOL    HW1 9926   1.598   3.930   1.419
 3082SOL    HW2 9927   1.583   3.869   1.557
 3083SOL     OW 9928   0.805   3.727   0.503
 3083SOL    HW1 9929   0.834   3.818   0.494
 3083SOL    HW2 9930   0.710   3.733   0.515
 3084SOL     OW 9931   1.269   0.063   0.938
 3084SOL    HW1 9932   1.198   0.007   0.907
 3084SOL    HW2 9933   1.325   0.004   0.989
 3085SOL     OW 9934   0.553   3.905   0.889
 3085SOL    HW1 9935   0.549   3.926   0.982
 3085SOL    HW2 9936   0.548   3.990   0.845
 3086SOL     OW 9937   0.194   3.986   1.498
 3086SOL    HW1 9938   0.106   0.023   1.496
 3086SOL    HW2 9939   0.188   3.911   1.558
 3087SOL     OW 9940   1.408   3.840   0.425
 3087SOL    HW1 9941   1.400   3.796   0.340
 3087SOL    HW2 9942   1.499   3.826   0.451
 3088SOL     OW 9943   1.534   3.942   1.723
 3088SOL    HW1 9944   1.560   3.946   1.815
 3088SOL    HW2 9945   1.469   3.871   1.720
 3089SOL     OW 9946   0.773   3.961   1.745
 3089SOL    HW1 9947   0.832   3.931   1.814
 3089SOL    HW2 9948   0.689   3.976   1.789
 3090SOL     OW 9949   0.533   3.785   0.511
 3090SOL    HW1 9950   0.477   3.786   0.589
 3090SOL    HW2 9951   0.546   3.877   0.489
 3091SOL     OW 9952   0.268   3.739   0.188
 3091SOL    HW1 9953   0.301   3.827   0.175
 3091SOL    HW2 9954   0.340   3.691   0.227
 3092SOL     OW 9955   0.564   3.944   1.165
 3092SOL    HW1 9956   0.602   3.868   1.209
 3092SOL    HW2 9957   0.472   3.944   1.192
 3093SOL     OW 9958   1.018   3.769   0.743
 3093SOL    HW1 9959   0.954   3.758   0.673
 3093SOL    HW2 9960   0.995   3.702   0.807
 3094SOL     OW 9961   0.922   3.805   1.401
 3094SOL    HW1 9962   0.950   3.785   1.312
 3094SOL    HW2 9963   0.994   3.855   1.438
 3095SOL     OW 9964   1.265   0.078   1.264
 3095SOL    HW1 9965   1.284   0.145   1.330
 3095SOL    HW2 9966   1.197   0.117   1.209
 3096SOL     OW 9967   0.505   3.751   1.754
 3096SOL    HW1 9968   0.454   3.704   1.687
 3096SOL    HW2 9969   0.469   3.839   1.753
 3097SOL     OW 9970   0.305   3.926   1.255
 3097SOL    HW1 9971   0.261   3.944   1.338
 3097SOL    HW2 9972   0.288   3.833   1.238
 3098SOL     OW 9973   1.594   3.943   0.150
 3098SOL    HW1 9974   1.514   3.891   0.158
 3098SOL    HW2 9975   1.571   0.028   0.188
 3099SOL     OW 9976   1.164   3.925   1.473
 3099SOL    HW1 9977   1.169   3.997   1.536
 3099SOL    HW2 9978   1.203   3.960   1.393
 3100SOL     OW 9979   0.916   3.824   0.151
 3100SOL    HW1 9980   0.948   3.814   0.061
 3100SOL    HW2 9981   0.973   3.767   0.203
 3101SOL     OW 9982   1.713   3.860   0.515
 3101SOL    HW1 9983   1.791   3.849   0.461
 3101SOL    HW2 9984   1.701   3.774   0.557
 3102SOL     OW 9985   1.835   3.885   0.970
 3102SOL    HW1 9986   1.871   3.802   0.937
 3102SOL    HW2 9987   1.753   3.896   0.922
 3103SOL     OW 9988   0.673   3.911   1.494
 3103SOL    HW1 9989   0.755   3.906   1.444
 3103SOL    HW2 9990   0.700   3.933   1.583
 3104SOL     OW 9991   0.050   0.030   0.043
 3104SOL    HW1 9992   3.962   0.026   0.005
 3104SOL    HW2 9993   0.091   0.104  13.899
 3105SOL     OW 9994   0.126   3.929   0.371
 3105SOL    HW1 9995   0.074   3.976   0.306
 3105SOL    HW2 9996   0.165   3.856   0.323
 3106SOL     OW 9997   1.189   0.012   0.466
 3106SOL    HW1 9998   1.257   3.945   0.465
 3106SOL    HW2 9999   1.212   0.068   0.540
 3107SOL     OW10000   1.785   0.046   1.642
 3107SOL    HW110001   1.760   0.077   1.554
 3107SOL    HW210002   1.704   0.009   1.678
 3108SOL     OW10003   1.817   3.913   1.238
 3108SOL    HW110004   1.823   3.822   1.266
 3108SOL    HW210005   1.823   3.909   1.143
 3109SOL     OW10006   1.438   3.935   1.118
 3109SOL    HW110007   1.472   3.858   1.163
 3109SOL    HW210008   1.378   3.976   1.180
 3110SOL     OW10009   1.013   3.738   1.151
 3110SOL    HW110010   0.955   3.681   1.100
 3110SOL    HW210011   1.099   3.696   1.145
 3111SOL     OW10012   1.349   3.783   0.152
 3111SOL    HW110013   1.385   3.715   0.096
 3111SOL    HW210014   1.267   3.746   0.185
 3112SOL     OW10015   1.285   0.163   0.682
 3112SOL    HW110016   1.275   0.257   0.690
 3112SOL    HW210017   1.291   0.132   0.772
 3113SOL     OW10018   1.581   3.929   0.877
 3113SOL    HW110019   1.527   3.934   0.956
 3113SOL    HW210020   1.582   0.019   0.844
 3114SOL     OW10021   0.233   3.954   2.832
 3114SOL    HW110022   0.252   3.963   2.926
 3114SOL    HW210023   0.140   3.971   2.825
 3115SOL     OW10024   0.015   0.101   2.493
 3115SOL    HW110025   3.931   0.092   2.538
 3115SOL    HW210026   0.007   0.045   2.417
 3116SOL     OW10027   1.777   0.321   2.057
 3116SOL    HW110028   1.704   0.302   1.999
 3116SOL    HW210029   1.737   0.331   2.143
 3117SOL     OW10030   0.441   0.101   3.373
 3117SOL    HW110031   0.512   0.060   3.323
 3117SOL    HW210032   0.363   0.051   3.349
 3118SOL     OW10033   1.597   3.846   3.327
 3118SOL    HW110034   1.598   3.931   3.282
 3118SOL    HW210035   1.583   3.869   3.419
 3119SOL     OW10036   0.805   3.728   2.363
 3119SOL    HW110037   0.833   3.820   2.358
 3119SOL    HW210038   0.710   3.732   2.376
 3120SOL     OW10039   1.269   0.063   2.802
 3120SOL    HW110040   1.199   0.007   2.769
 3120SOL    HW210041   1.325   0.004   2.852
 3121SOL     OW10042   0.553   3.905   2.751
 3121SOL    HW110043   0.549   3.925   2.844
 3121SOL    HW210044   0.549   3.991   2.708
 3122SOL     OW10045   0.195   3.985   3.360
 3122SOL    HW110046   0.107   0.023   3.358
 3122SOL    HW210047   0.188   3.911   3.420
 3123SOL     OW10048   1.405   3.835   2.289
 3123SOL    HW110049   1.396   3.800   2.200
 3123SOL    HW210050   1.498   3.826   2.309
 3124SOL     OW10051   1.534   3.942   3.585
 3124SOL    HW110052   1.560   3.946   3.677
 3124SOL    HW210053   1.469   3.871   3.582
 3125SOL     OW10054   0.624   3.851   1.983
 3125SOL    HW110055   0.714   3.821   1.990
 3125SOL    HW210056   0.588   3.803   1.908
 3126SOL     OW10057   0.772   3.961   3.606
 3126SOL    HW110058   0.832   3.931   3.676
 3126SOL    HW210059   0.689   3.976   3.651
 3127SOL     OW10060   0.532   3.786   2.372
 3127SOL    HW110061   0.479   3.789   2.451
 3127SOL    HW210062   0.545   3.878   2.348
 3128SOL     OW10063   0.288   3.757   2.040
 3128SOL    HW110064   0.336   3.837   2.019
 3128SOL    HW210065   0.354   3.700   2.081
 3129SOL     OW10066   0.564   3.943   3.027
 3129SOL    HW110067   0.602   3.868   3.072
 3129SOL    HW210068   0.472   3.944   3.054
 3130SOL     OW10069   1.018   3.769   2.605
 3130SOL    HW110070   0.955   3.757   2.535
 3130SOL    HW210071   0.995   3.702   2.670
 3131SOL     OW10072   0.922   3.805   3.263
 3131SOL    HW110073   0.950   3.786   3.174
 3131SOL    HW210074   0.994   3.855   3.300
 3132SOL     OW10075   1.265   0.078   3.126
 3132SOL    HW110076   1.284   0.145   3.192
 3132SOL    HW210077   1.197   0.117   3.071
 3133SOL     OW10078   0.505   3.751   3.616
 3133SOL    HW110079   0.454   3.704   3.549
 3133SOL    HW210080   0.468   3.839   3.615
 3134SOL     OW10081   0.305   3.926   3.116
 3134SOL    HW110082   0.261   3.944   3.200
 3134SOL    HW210083   0.288   3.833   3.100
 3135SOL     OW10084   1.575   3.957   1.983
 3135SOL    HW110085   1.515   3.901   2.031
 3135SOL    HW210086   1.599   0.026   2.046
 3136SOL     OW10087   1.164   3.925   3.335
 3136SOL    HW110088   1.169   3.997   3.398
 3136SOL    HW210089   1.203   3.960   3.255
 3137SOL     OW10090   0.900   3.812   1.971
 3137SOL    HW110091   0.963   3.780   1.906
 3137SOL    HW210092   0.939   3.789   2.055
 3138SOL     OW10093   1.715   3.859   2.368
 3138SOL    HW110094   1.791   3.844   2.312
 3138SOL    HW210095   1.702   3.775   2.414
 3139SOL     OW10096   1.835   3.885   2.832
 3139SOL    HW110097   1.871   3.802   2.800
 3139SOL    HW210098   1.753   3.897   2.784
 3140SOL     OW10099   0.673   3.911   3.356
 3140SOL    HW110100   0.755   3.907   3.306
 3140SOL    HW210101   0.700   3.933   3.445
 3141SOL     OW10102   0.070   0.035   1.842
 3141SOL    HW110103   3.977   0.032   1.865
 3141SOL    HW210104   0.101   0.119   1.875
 3142SOL     OW10105   0.104   3.911   2.227
 3142SOL    HW110106   0.079   3.992   2.183
 3142SOL    HW210107   0.183   3.882   2.182
 3143SOL     OW10108   1.188   0.012   2.331
 3143SOL    HW110109   1.260   3.948   2.325
 3143SOL    HW210110   1.213   0.069   2.404
 3144SOL     OW10111   1.785   0.046   3.504
 3144SOL    HW110112   1.761   0.077   3.416
 3144SOL    HW210113   1.704   0.009   3.540
 3145SOL     OW10114   1.817   3.913   3.100
 3145SOL    HW110115   1.823   3.822   3.129
 3145SOL    HW210116   1.823   3.909   3.005
 3146SOL     OW10117   1.438   3.934   2.980
 3146SOL    HW110118   1.472   3.858   3.026
 3146SOL    HW210119   1.378   3.976   3.042
 3147SOL     OW10120   1.013   3.738   3.013
 3147SOL    HW110121   0.955   3.680   2.962
 3147SOL    HW210122   1.099   3.696   3.007
 3148SOL     OW10123   1.352   3.772   2.021
 3148SOL    HW110124   1.382   3.705   1.959
 3148SOL    HW210125   1.265   3.741   2.048
 3149SOL     OW10126   1.283   0.162   2.546
 3149SOL    HW110127   1.276   0.257   2.552
 3149SOL    HW210128   1.291   0.133   2.637
 3150SOL     OW10129   1.581   3.929   2.739
 3150SOL    HW110130   1.527   3.933   2.818
 3150SOL    HW210131   1.582   0.019   2.706
 3151SOL     OW10132   0.234   3.954   4.694
 3151SOL    HW110133   0.252   3.963   4.788
 3151SOL    HW210134   0.140   3.971   4.687
 3152SOL     OW10135   0.015   0.101   4.356
 3152SOL    HW110136   3.931   0.092   4.400
 3152SOL    HW210137   0.007   0.045   4.279
 3153SOL     OW10138   1.777   0.321   3.919
 3153SOL    HW110139   1.704   0.302   3.861
 3153SOL    HW210140   1.737   0.331   4.005
 3154SOL     OW10141   0.441   0.101   5.236
 3154SOL    HW110142   0.511   0.061   5.185
 3154SOL    HW210143   0.363   0.051   5.211
 3155SOL     OW10144   1.597   3.846   5.189
 3155SOL    HW110145   1.599   3.930   5.143
 3155SOL    HW210146   1.583   3.869   5.281
 3156SOL     OW10147   0.805   3.728   4.225
 3156SOL    HW110148   0.833   3.820   4.220
 3156SOL    HW210149   0.710   3.732   4.238
 3157SOL     OW10150   1.269   0.063   4.664
 3157SOL    HW110151   1.199   0.007   4.631
 3157SOL    HW210152   1.325   0.004   4.714
 3158SOL     OW10153   0.553   3.905   4.613
 3158SOL    HW110154   0.549   3.925   4.706
 3158SOL    HW210155   0.549   3.991   4.570
 3159SOL     OW10156   0.195   3.986   5.222
 3159SOL    HW110157   0.106   0.023   5.220
 3159SOL    HW210158   0.188   3.911   5.281
 3160SOL     OW10159   1.405   3.835   4.151
 3160SOL    HW110160   1.396   3.800   4.062
 3160SOL    HW210161   1.498   3.826   4.171
 3161SOL     OW10162   1.534   3.942   5.447
 3161SOL    HW110163   1.560   3.946   5.539
 3161SOL    HW210164   1.469   3.871   5.444
 3162SOL     OW10165   0.624   3.851   3.845
 3162SOL    HW110166   0.714   3.821   3.852
 3162SOL    HW210167   0.588   3.803   3.770
 3163SOL     OW10168   0.773   3.961   5.469
 3163SOL    HW110169   0.832   3.931   5.538
 3163SOL    HW210170   0.689   3.976   5.513
 3164SOL     OW10171   0.532   3.787   4.234
 3164SOL    HW110172   0.479   3.789   4.313
 3164SOL    HW210173   0.545   3.878   4.210
 3165SOL     OW10174   0.288   3.757   3.902
 3165SOL    HW110175   0.336   3.837   3.881
 3165SOL    HW210176   0.354   3.700   3.943
 3166SOL     OW10177   0.564   3.943   4.889
 3166SOL    HW110178   0.602   3.868   4.934
 3166SOL    HW210179   0.472   3.944   4.916
 3167SOL     OW10180   1.018   3.769   4.467
 3167SOL    HW110181   0.955   3.757   4.397
 3167SOL    HW210182   0.995   3.702   4.532
 3168SOL     OW10183   0.922   3.805   5.125
 3168SOL    HW110184   0.950   3.786   5.036
 3168SOL    HW210185   0.994   3.855   5.162
 3169SOL     OW10186   1.265   0.078   4.988
 3169SOL    HW110187   1.284   0.145   5.054
 3169SOL    HW210188   1.197   0.117   4.933
 3170SOL     OW10189   0.505   3.751   5.478
 3170SOL    HW110190   0.454   3.704   5.411
 3170SOL    HW210191   0.468   3.839   5.477
 3171SOL     OW10192   0.305   3.925   4.978
 3171SOL    HW110193   0.261   3.944   5.062
 3171SOL    HW210194   0.288   3.833   4.962
 3172SOL     OW10195   1.575   3.957   3.845
 3172SOL    HW110196   1.515   3.900   3.893
 3172SOL    HW210197   1.599   0.026   3.908
 3173SOL     OW10198   1.164   3.925   5.198
 3173SOL    HW110199   1.169   3.998   5.260
 3173SOL    HW210200   1.203   3.960   5.117
 3174SOL     OW10201   0.900   3.812   3.833
 3174SOL    HW110202   0.963   3.780   3.768
 3174SOL    HW210203   0.939   3.789   3.917
 3175SOL     OW10204   1.715   3.859   4.230
 3175SOL    HW110205   1.791   3.844   4.174
 3175SOL    HW210206   1.702   3.775   4.276
 3176SOL     OW10207   1.835   3.885   4.694
 3176SOL    HW110208   1.871   3.802   4.662
 3176SOL    HW210209   1.753   3.897   4.646
 3177SOL     OW10210   0.673   3.911   5.218
 3177SOL    HW110211   0.755   3.906   5.168
 3177SOL    HW210212   0.700   3.933   5.307
 3178SOL     OW10213   0.070   0.035   3.704
 3178SOL    HW110214   3.977   0.032   3.727
 3178SOL    HW210215   0.101   0.119   3.737
 3179SOL     OW10216   0.104   3.911   4.089
 3179SOL    HW110217   0.079   3.992   4.045
 3179SOL    HW210218   0.183   3.882   4.044
 3180SOL     OW10219   1.188   0.011   4.193
 3180SOL    HW110220   1.260   3.948   4.187
 3180SOL    HW210221   1.213   0.069   4.266
 3181SOL     OW10222   1.785   0.046   5.366
 3181SOL    HW110223   1.761   0.077   5.279
 3181SOL    HW210224   1.704   0.010   5.402
 3182SOL     OW10225   1.817   3.913   4.962
 3182SOL    HW110226   1.823   3.822   4.991
 3182SOL    HW210227   1.822   3.909   4.867
 3183SOL     OW10228   1.438   3.934   4.842
 3183SOL    HW110229   1.472   3.858   4.888
 3183SOL    HW210230   1.378   3.976   4.904
 3184SOL     OW10231   1.013   3.738   4.875
 3184SOL    HW110232   0.955   3.680   4.824
 3184SOL    HW210233   1.099   3.696   4.869
 3185SOL     OW10234   1.352   3.772   3.883
 3185SOL    HW110235   1.382   3.705   3.821
 3185SOL    HW210236   1.265   3.741   3.910
 3186SOL     OW10237   1.283   0.162   4.408
 3186SOL    HW110238   1.276   0.257   4.414
 3186SOL    HW210239   1.291   0.133   4.499
 3187SOL     OW10240   1.581   3.929   4.601
 3187SOL    HW110241   1.527   3.934   4.680
 3187SOL    HW210242   1.582   0.019   4.568
 3188SOL     OW10243   0.234   3.954   6.556
 3188SOL    HW110244   0.252   3.963   6.650
 3188SOL    HW210245   0.140   3.971   6.549
 3189SOL     OW10246   0.015   0.101   6.218
 3189SOL    HW110247   3.931   0.091   6.262
 3189SOL    HW210248   0.007   0.045   6.141
 3190SOL     OW10249   1.777   0.321   5.782
 3190SOL    HW110250   1.704   0.302   5.723
 3190SOL    HW210251   1.736   0.331   5.868
 3191SOL     OW10252   0.440   0.101   7.098
 3191SOL    HW110253   0.511   0.061   7.047
 3191SOL    HW210254   0.363   0.051   7.073
 3192SOL     OW10255   1.597   3.846   7.051
 3192SOL    HW110256   1.599   3.930   7.005
 3192SOL    HW210257   1.583   3.869   7.143
 3193SOL     OW10258   0.805   3.728   6.087
 3193SOL    HW110259   0.833   3.820   6.082
 3193SOL    HW210260   0.710   3.732   6.100
 3194SOL     OW10261   1.269   0.063   6.526
 3194SOL    HW110262   1.198   0.007   6.493
 3194SOL    HW210263   1.325   0.003   6.576
 3195SOL     OW10264   0.553   3.905   6.475
 3195SOL    HW110265   0.549   3.925   6.568
 3195SOL    HW210266   0.549   3.991   6.432
 3196SOL     OW10267   0.195   3.985   7.084
 3196SOL    HW110268   0.107   0.023   7.082
 3196SOL    HW210269   0.187   3.911   7.143
 3197SOL     OW10270   1.405   3.834   6.013
 3197SOL    HW110271   1.396   3.800   5.924
 3197SOL    HW210272   1.498   3.826   6.033
 3198SOL     OW10273   1.534   3.942   7.309
 3198SOL    HW110274   1.560   3.946   7.401
 3198SOL    HW210275   1.469   3.872   7.306
 3199SOL     OW10276   0.624   3.851   5.707
 3199SOL    HW110277   0.714   3.821   5.714
 3199SOL    HW210278   0.588   3.803   5.632
 3200SOL     OW10279   0.773   3.961   7.331
 3200SOL    HW110280   0.832   3.931   7.400
 3200SOL    HW210281   0.689   3.976   7.375
 3201SOL     OW10282   0.532   3.787   6.096
 3201SOL    HW110283   0.479   3.789   6.175
 3201SOL    HW210284   0.545   3.878   6.072
 3202SOL     OW10285   0.288   3.757   5.764
 3202SOL    HW110286   0.336   3.837   5.743
 3202SOL    HW210287   0.354   3.700   5.805
 3203SOL     OW10288   0.564   3.943   6.751
 3203SOL    HW110289   0.602   3.868   6.796
 3203SOL    HW210290   0.472   3.944   6.778
 3204SOL     OW10291   1.019   3.769   6.329
 3204SOL    HW110292   0.955   3.758   6.259
 3204SOL    HW210293   0.995   3.702   6.394
 3205SOL     OW10294   0.922   3.804   6.987
 3205SOL    HW110295   0.950   3.786   6.898
 3205SOL    HW210296   0.994   3.856   7.024
 3206SOL     OW10297   1.265   0.078   6.850
 3206SOL    HW110298   1.284   0.145   6.916
 3206SOL    HW210299   1.197   0.116   6.795
 3207SOL     OW10300   0.504   3.751   7.340
 3207SOL    HW110301   0.454   3.704   7.273
 3207SOL    HW210302   0.469   3.840   7.339
 3208SOL     OW10303   0.305   3.925   6.840
 3208SOL    HW110304   0.261   3.944   6.924
 3208SOL    HW210305   0.288   3.833   6.824
 3209SOL     OW10306   1.575   3.957   5.707
 3209SOL    HW110307   1.515   3.901   5.755
 3209SOL    HW210308   1.599   0.025   5.770
 3210SOL     OW10309   1.164   3.925   7.060
 3210SOL    HW110310   1.169   3.998   7.122
 3210SOL    HW210311   1.203   3.960   6.979
 3211SOL     OW10312   0.900   3.812   5.695
 3211SOL    HW110313   0.963   3.780   5.629
 3211SOL    HW210314   0.939   3.789   5.779
 3212SOL     OW10315   1.715   3.859   6.092
 3212SOL    HW110316   1.791   3.844   6.036
 3212SOL    HW210317   1.702   3.775   6.138
 3213SOL     OW10318   1.835   3.885   6.557
 3213SOL    HW110319   1.871   3.802   6.524
 3213SOL    HW210320   1.753   3.897   6.508
 3214SOL     OW10321   0.673   3.911   7.080
 3214SOL    HW110322   0.755   3.907   7.030
 3214SOL    HW210323   0.700   3.933   7.169
 3215SOL     OW10324   0.070   0.034   5.566
 3215SOL    HW110325   3.977   0.032   5.589
 3215SOL    HW210326   0.101   0.119   5.599
 3216SOL     OW10327   0.104   3.911   5.952
 3216SOL    HW110328   0.079   3.992   5.908
 3216SOL    HW210329   0.183   3.881   5.905
 3217SOL     OW10330   1.188   0.011   6.056
 3217SOL    HW110331   1.260   3.948   6.049
 3217SOL    HW210332   1.213   0.069   6.128
 3218SOL     OW10333   1.785   0.045   7.228
 3218SOL    HW110334   1.761   0.077   7.141
 3218SOL    HW210335   1.704   0.009   7.264
 3219SOL     OW10336   1.817   3.913   6.824
 3219SOL    HW110337   1.823   3.822   6.852
 3219SOL    HW210338   1.823   3.910   6.729
 3220SOL     OW10339   1.438   3.934   6.704
 3220SOL    HW110340   1.472   3.858   6.751
 3220SOL    HW210341   1.378   3.976   6.766
 3221SOL     OW10342   1.013   3.738   6.737
 3221SOL    HW110343   0.955   3.681   6.686
 3221SOL    HW210344   1.099   3.696   6.731
 3222SOL     OW10345   1.352   3.771   5.745
 3222SOL    HW110346   1.382   3.705   5.683
 3222SOL    HW210347   1.265   3.741   5.772
 3223SOL     OW10348   1.283   0.162   6.271
 3223SOL    HW110349   1.276   0.257   6.277
 3223SOL    HW210350   1.291   0.133   6.361
 3224SOL     OW10351   1.581   3.929   6.463
 3224SOL    HW110352   1.527   3.934   6.542
 3224SOL    HW210353   1.582   0.019   6.429
 3225SOL     OW10354   0.233   3.955   8.418
 3225SOL    HW110355   0.252   3.963   8.512
 3225SOL    HW210356   0.139   3.971   8.411
 3226SOL     OW10357   0.015   0.101   8.080
 3226SOL    HW110358   3.930   0.091   8.124
 3226SOL    HW210359   0.008   0.045   8.003
 3227SOL     OW10360   1.777   0.320   7.644
 3227SOL    HW110361   1.704   0.302   7.584
 3227SOL    HW210362   1.736   0.330   7.730
 3228SOL     OW10363   0.441   0.101   8.959
 3228SOL    HW110364   0.512   0.061   8.909
 3228SOL    HW210365   0.363   0.051   8.935
 3229SOL     OW10366   1.597   3.846   8.913
 3229SOL    HW110367   1.598   3.931   8.867
 3229SOL    HW210368   1.583   3.869   9.005
 3230SOL     OW10369   0.805   3.728   7.949
 3230SOL    HW110370   0.833   3.820   7.944
 3230SOL    HW210371   0.710   3.732   7.962
 3231SOL     OW10372   1.268   0.063   8.389
 3231SOL    HW110373   1.199   0.007   8.354
 3231SOL    HW210374   1.325   0.003   8.438
 3232SOL     OW10375   0.553   3.905   8.337
 3232SOL    HW110376   0.549   3.926   8.430
 3232SOL    HW210377   0.548   3.991   8.294
 3233SOL     OW10378   0.195   3.986   8.946
 3233SOL    HW110379   0.106   0.023   8.944
 3233SOL    HW210380   0.188   3.911   9.005
 3234SOL     OW10381   1.405   3.834   7.875
 3234SOL    HW110382   1.396   3.800   7.786
 3234SOL    HW210383   1.498   3.826   7.894
 3235SOL     OW10384   1.534   3.942   9.171
 3235SOL    HW110385   1.560   3.946   9.263
 3235SOL    HW210386   1.469   3.872   9.168
 3236SOL     OW10387   0.624   3.851   7.569
 3236SOL    HW110388   0.714   3.820   7.576
 3236SOL    HW210389   0.588   3.803   7.494
 3237SOL     OW10390   0.773   3.961   9.193
 3237SOL    HW110391   0.832   3.931   9.262
 3237SOL    HW210392   0.689   3.976   9.237
 3238SOL     OW10393   0.533   3.787   7.958
 3238SOL    HW110394   0.479   3.789   8.037
 3238SOL    HW210395   0.545   3.878   7.934
 3239SOL     OW10396   0.288   3.757   7.627
 3239SOL    HW110397   0.336   3.837   7.605
 3239SOL    HW210398   0.353   3.700   7.667
 3240SOL     OW10399   0.564   3.944   8.613
 3240SOL    HW110400   0.602   3.868   8.657
 3240SOL    HW210401   0.472   3.944   8.640
 3241SOL     OW10402   1.018   3.769   8.192
 3241SOL    HW110403   0.955   3.757   8.121
 3241SOL    HW210404   0.995   3.702   8.256
 3242SOL     OW10405   0.922   3.805   8.849
 3242SOL    HW110406   0.950   3.785   8.760
 3242SOL    HW210407   0.994   3.855   8.886
 3243SOL     OW10408   1.265   0.078   8.712
 3243SOL    HW110409   1.284   0.145   8.778
 3243SOL    HW210410   1.197   0.116   8.657
 3244SOL     OW10411   0.505   3.751   9.202
 3244SOL    HW110412   0.454   3.704   9.135
 3244SOL    HW210413   0.468   3.839   9.201
 3245SOL     OW10414   0.305   3.925   8.702
 3245SOL    HW110415   0.261   3.944   8.786
 3245SOL    HW210416   0.288   3.833   8.686
 3246SOL     OW10417   1.576   3.956   7.569
 3246SOL    HW110418   1.514   3.901   7.617
 3246SOL    HW210419   1.598   0.026   7.631
 3247SOL     OW10420   1.164   3.925   8.922
 3247SOL    HW110421   1.169   3.998   8.984
 3247SOL    HW210422   1.203   3.960   8.841
 3248SOL     OW10423   0.900   3.812   7.557
 3248SOL    HW110424   0.963   3.780   7.491
 3248SOL    HW210425   0.939   3.789   7.641
 3249SOL     OW10426   1.715   3.859   7.955
 3249SOL    HW110427   1.791   3.844   7.898
 3249SOL    HW210428   1.702   3.775   8.000
 3250SOL     OW10429   1.835   3.885   8.418
 3250SOL    HW110430   1.871   3.802   8.386
 3250SOL    HW210431   1.753   3.897   8.370
 3251SOL     OW10432   0.673   3.911   8.942
 3251SOL    HW110433   0.755   3.906   8.892
 3251SOL    HW210434   0.700   3.933   9.031
 3252SOL     OW10435   0.070   0.034   7.429
 3252SOL    HW110436   3.977   0.032   7.452
 3252SOL    HW210437   0.101   0.119   7.461
 3253SOL     OW10438   0.105   3.911   7.814
 3253SOL    HW110439   0.079   3.992   7.770
 3253SOL    HW210440   0.183   3.881   7.768
 3254SOL     OW10441   1.188   0.011   7.918
 3254SOL    HW110442   1.260   3.948   7.911
 3254SOL    HW210443   1.213   0.069   7.990
 3255SOL     OW10444   1.785   0.046   9.090
 3255SOL    HW110445   1.760   0.077   9.002
 3255SOL    HW210446   1.704   0.009   9.126
 3256SOL     OW10447   1.818   3.913   8.686
 3256SOL    HW110448   1.823   3.822   8.715
 3256SOL    HW210449   1.823   3.909   8.591
 3257SOL     OW10450   1.438   3.934   8.566
 3257SOL    HW110451   1.471   3.857   8.612
 3257SOL    HW210452   1.378   3.976   8.628
 3258SOL     OW10453   1.013   3.738   8.599
 3258SOL    HW110454   0.955   3.681   8.548
 3258SOL    HW210455   1.099   3.696   8.593
 3259SOL     OW10456   1.352   3.771   7.607
 3259SOL    HW110457   1.382   3.705   7.545
 3259SOL    HW210458   1.265   3.741   7.634
 3260SOL     OW10459   1.283   0.162   8.133
 3260SOL    HW110460   1.276   0.257   8.138
 3260SOL    HW210461   1.291   0.133   8.224
 3261SOL     OW10462   1.581   3.929   8.325
 3261SOL    HW110463   1.527   3.934   8.404
 3261SOL    HW210464   1.582   0.019   8.292
 3262SOL     OW10465   0.233   3.954  10.280
 3262SOL    HW110466   0.252   3.963  10.374
 3262SOL    HW210467   0.140   3.971  10.273
 3263SOL     OW10468   0.015   0.101   9.942
 3263SOL    HW110469   3.931   0.092   9.986
 3263SOL    HW210470   0.007   0.045   9.865
 3264SOL     OW10471   1.777   0.320   9.505
 3264SOL    HW110472   1.704   0.302   9.447
 3264SOL    HW210473   1.737   0.331   9.591
 3265SOL     OW10474   0.441   0.101  10.821
 3265SOL    HW110475   0.512   0.061  10.771
 3265SOL    HW210476   0.363   0.051  10.797
 3266SOL     OW10477   1.597   3.846  10.775
 3266SOL    HW110478   1.598   3.931  10.730
 3266SOL    HW210479   1.583   3.869  10.867
 3267SOL     OW10480   0.805   3.728   9.811
 3267SOL    HW110481   0.833   3.820   9.806
 3267SOL    HW210482   0.710   3.732   9.824
 3268SOL     OW10483   1.269   0.063  10.250
 3268SOL    HW110484   1.199   0.007  10.217
 3268SOL    HW210485   1.325   0.004  10.300
 3269SOL     OW10486   0.553   3.905  10.199
 3269SOL    HW110487   0.549   3.925  10.292
 3269SOL    HW210488   0.549   3.991  10.156
 3270SOL     OW10489   0.195   3.985  10.808
 3270SOL    HW110490   0.107   0.023  10.806
 3270SOL    HW210491   0.188   3.911  10.868
 3271SOL     OW10492   1.405   3.834   9.737
 3271SOL    HW110493   1.396   3.800   9.648
 3271SOL    HW210494   1.498   3.826   9.757
 3272SOL     OW10495   1.534   3.942  11.033
 3272SOL    HW110496   1.560   3.946  11.125
 3272SOL    HW210497   1.469   3.871  11.030
 3273SOL     OW10498   0.624   3.851   9.431
 3273SOL    HW110499   0.714   3.821   9.438
 3273SOL    HW210500   0.588   3.803   9.356
 3274SOL     OW10501   0.773   3.961  11.054
 3274SOL    HW110502   0.832   3.931  11.124
 3274SOL    HW210503   0.689   3.976  11.099
 3275SOL     OW10504   0.532   3.787   9.820
 3275SOL    HW110505   0.479   3.789   9.899
 3275SOL    HW210506   0.545   3.878   9.796
 3276SOL     OW10507   0.288   3.757   9.488
 3276SOL    HW110508   0.336   3.837   9.467
 3276SOL    HW210509   0.354   3.700   9.529
 3277SOL     OW10510   0.564   3.943  10.475
 3277SOL    HW110511   0.602   3.868  10.520
 3277SOL    HW210512   0.472   3.944  10.502
 3278SOL     OW10513   1.018   3.769  10.053
 3278SOL    HW110514   0.955   3.757   9.983
 3278SOL    HW210515   0.995   3.702  10.118
 3279SOL     OW10516   0.922   3.804  10.711
 3279SOL    HW110517   0.950   3.786  10.622
 3279SOL    HW210518   0.994   3.855  10.748
 3280SOL     OW10519   1.265   0.078  10.574
 3280SOL    HW110520   1.284   0.145  10.640
 3280SOL    HW210521   1.197   0.117  10.519
 3281SOL     OW10522   0.505   3.751  11.064
 3281SOL    HW110523   0.454   3.704  10.997
 3281SOL    HW210524   0.469   3.839  11.063
 3282SOL     OW10525   0.305   3.926  10.564
 3282SOL    HW110526   0.261   3.944  10.648
 3282SOL    HW210527   0.288   3.833  10.548
 3283SOL     OW10528   1.575   3.957   9.431
 3283SOL    HW110529   1.515   3.901   9.479
 3283SOL    HW210530   1.599   0.026   9.494
 3284SOL     OW10531   1.164   3.925  10.783
 3284SOL    HW110532   1.169   3.997  10.846
 3284SOL    HW210533   1.203   3.960  10.703
 3285SOL     OW10534   0.900   3.812   9.419
 3285SOL    HW110535   0.963   3.780   9.353
 3285SOL    HW210536   0.939   3.789   9.503
 3286SOL     OW10537   1.715   3.859   9.816
 3286SOL    HW110538   1.791   3.844   9.760
 3286SOL    HW210539   1.702   3.775   9.862
 3287SOL     OW10540   1.835   3.885  10.280
 3287SOL    HW110541   1.871   3.802  10.248
 3287SOL    HW210542   1.753   3.897  10.232
 3288SOL     OW10543   0.673   3.911  10.804
 3288SOL    HW110544   0.755   3.907  10.754
 3288SOL    HW210545   0.700   3.933  10.893
 3289SOL     OW10546   0.070   0.035   9.290
 3289SOL    HW110547   3.977   0.032   9.313
 3289SOL    HW210548   0.101   0.119   9.323
 3290SOL     OW10549   0.104   3.911   9.675
 3290SOL    HW110550   0.079   3.992   9.631
 3290SOL    HW210551   0.183   3.881   9.630
 3291SOL     OW10552   1.188   0.012   9.779
 3291SOL    HW110553   1.260   3.948   9.773
 3291SOL    HW210554   1.213   0.069   9.852
 3292SOL     OW10555   1.785   0.046  10.952
 3292SOL    HW110556   1.761   0.077  10.864
 3292SOL    HW210557   1.704   0.010  10.988
 3293SOL     OW10558   1.817   3.913  10.548
 3293SOL    HW110559   1.823   3.822  10.577
 3293SOL    HW210560   1.822   3.909  10.453
 3294SOL     OW10561   1.438   3.934  10.428
 3294SOL    HW110562   1.472   3.858  10.474
 3294SOL    HW210563   1.378   3.976  10.490
 3295SOL     OW10564   1.013   3.738  10.461
 3295SOL    HW110565   0.955   3.680  10.410
 3295SOL    HW210566   1.099   3.696  10.455
 3296SOL     OW10567   1.352   3.772   9.469
 3296SOL    HW110568   1.382   3.705   9.407
 3296SOL    HW210569   1.265   3.741   9.496
 3297SOL     OW10570   1.283   0.162   9.994
 3297SOL    HW110571   1.276   0.257  10.000
 3297SOL    HW210572   1.291   0.133  10.085
 3298SOL     OW10573   1.581   3.929  10.187
 3298SOL    HW110574   1.527   3.934  10.266
 3298SOL    HW210575   1.582   0.019  10.154
 3299SOL     OW10576   0.234   3.954  12.142
 3299SOL    HW110577   0.252   3.963  12.236
 3299SOL    HW210578   0.140   3.971  12.135
 3300SOL     OW10579   0.015   0.101  11.804
 3300SOL    HW110580   3.931   0.092  11.848
 3300SOL    HW210581   0.007   0.045  11.727
 3301SOL     OW10582   1.777   0.321  11.367
 3301SOL    HW110583   1.704   0.302  11.309
 3301SOL    HW210584   1.737   0.331  11.454
 3302SOL     OW10585   0.441   0.101  12.684
 3302SOL    HW110586   0.512   0.061  12.633
 3302SOL    HW210587   0.363   0.051  12.659
 3303SOL     OW10588   1.597   3.846  12.637
 3303SOL    HW110589   1.598   3.931  12.592
 3303SOL    HW210590   1.583   3.869  12.729
 3304SOL     OW10591   0.805   3.728  11.673
 3304SOL    HW110592   0.833   3.820  11.668
 3304SOL    HW210593   0.710   3.732  11.686
 3305SOL     OW10594   1.269   0.063  12.112
 3305SOL    HW110595   1.199   0.007  12.079
 3305SOL    HW210596   1.325   0.004  12.162
 3306SOL     OW10597   0.553   3.905  12.061
 3306SOL    HW110598   0.549   3.925  12.154
 3306SOL    HW210599   0.548   3.991  12.018
 3307SOL     OW10600   0.194   3.985  12.669
 3307SOL    HW110601   0.106   0.023  12.668
 3307SOL    HW210602   0.187   3.910  12.729
 3308SOL     OW10603   1.405   3.834  11.599
 3308SOL    HW110604   1.396   3.800  11.510
 3308SOL    HW210605   1.498   3.826  11.619
 3309SOL     OW10606   1.534   3.942  12.895
 3309SOL    HW110607   1.559   3.948  12.987
 3309SOL    HW210608   1.469   3.871  12.892
 3310SOL     OW10609   0.624   3.851  11.293
 3310SOL    HW110610   0.714   3.821  11.300
 3310SOL    HW210611   0.588   3.803  11.218
 3311SOL     OW10612   0.772   3.960  12.917
 3311SOL    HW110613   0.832   3.932  12.985
 3311SOL    HW210614   0.689   3.974  12.962
 3312SOL     OW10615   0.532   3.787  11.682
 3312SOL    HW110616   0.479   3.789  11.761
 3312SOL    HW210617   0.545   3.878  11.658
 3313SOL     OW10618   0.288   3.757  11.350
 3313SOL    HW110619   0.336   3.837  11.329
 3313SOL    HW210620   0.354   3.700  11.391
 3314SOL     OW10621   0.564   3.943  12.337
 3314SOL    HW110622   0.602   3.868  12.382
 3314SOL    HW210623   0.472   3.944  12.364
 3315SOL     OW10624   1.018   3.769  11.915
 3315SOL    HW110625   0.955   3.757  11.845
 3315SOL    HW210626   0.995   3.702  11.980
 3316SOL     OW10627   0.922   3.805  12.573
 3316SOL    HW110628   0.950   3.786  12.484
 3316SOL    HW210629   0.994   3.855  12.610
 3317SOL     OW10630   1.265   0.078  12.436
 3317SOL    HW110631   1.284   0.145  12.502
 3317SOL    HW210632   1.197   0.117  12.381
 3318SOL     OW10633   0.504   3.751  12.926
 3318SOL    HW110634   0.454   3.704  12.859
 3318SOL    HW210635   0.468   3.840  12.924
 3319SOL     OW10636   0.305   3.925  12.426
 3319SOL    HW110637   0.261   3.944  12.510
 3319SOL    HW210638   0.288   3.833  12.410
 3320SOL     OW10639   1.575   3.957  11.293
 3320SOL    HW110640   1.515   3.901  11.341
 3320SOL    HW210641   1.599   0.026  11.355
 3321SOL     OW10642   1.164   3.925  12.645
 3321SOL    HW110643   1.169   3.997  12.708
 3321SOL    HW210644   1.203   3.960  12.565
 3322SOL     OW10645   0.900   3.812  11.281
 3322SOL    HW110646   0.963   3.780  11.216
 3322SOL    HW210647   0.939   3.789  11.365
 3323SOL     OW10648   1.714   3.859  11.678
 3323SOL    HW110649   1.791   3.844  11.622
 3323SOL    HW210650   1.702   3.775  11.724
 3324SOL     OW10651   1.835   3.885  12.142
 3324SOL    HW110652   1.871   3.802  12.110
 3324SOL    HW210653   1.753   3.897  12.094
 3325SOL     OW10654   0.673   3.911  12.666
 3325SOL    HW110655   0.755   3.906  12.616
 3325SOL    HW210656   0.700   3.933  12.755
 3326SOL     OW10657   0.070   0.035  11.152
 3326SOL    HW110658   3.977   0.032  11.175
 3326SOL    HW210659   0.101   0.119  11.185
 3327SOL     OW10660   0.104   3.911  11.537
 3327SOL    HW110661   0.079   3.992  11.493
 3327SOL    HW210662   0.183   3.882  11.492
 3328SOL     OW10663   1.188   0.011  11.641
 3328SOL    HW110664   1.260   3.948  11.635
 3328SOL    HW210665   1.213   0.069  11.714
 3329SOL     OW10666   1.785   0.046  12.813
 3329SOL    HW110667   1.760   0.077  12.726
 3329SOL    HW210668   1.704   0.009  12.850
 3330SOL     OW10669   1.817   3.913  12.410
 3330SOL    HW110670   1.823   3.822  12.439
 3330SOL    HW210671   1.822   3.909  12.315
 3331SOL     OW10672   1.438   3.934  12.290
 3331SOL    HW110673   1.472   3.858  12.336
 3331SOL    HW210674   1.378   3.976  12.352
 3332SOL     OW10675   1.013   3.738  12.323
 3332SOL    HW110676   0.955   3.680  12.272
 3332SOL    HW210677   1.099   3.696  12.317
 3333SOL     OW10678   1.352   3.772  11.331
 3333SOL    HW110679   1.382   3.705  11.269
 3333SOL    HW210680   1.265   3.741  11.358
 3334SOL     OW10681   1.282   0.162  11.856
 3334SOL    HW110682   1.276   0.257  11.862
 3334SOL    HW210683   1.291   0.133  11.947
 3335SOL     OW10684   1.581   3.929  12.049
 3335SOL    HW110685   1.527   3.934  12.128
 3335SOL    HW210686   1.582   0.019  12.016
 3336SOL     OW10687   0.011   0.099  13.655
 3336SOL    HW110688   3.916   0.095  13.667
 3336SOL    HW210689   0.027   0.045  13.577
 3337SOL     OW10690   1.777   0.321  13.229
 3337SOL    HW110691   1.702   0.306  13.173
 3337SOL    HW210692   1.742   0.316  13.318
 3338SOL     OW10693   1.613   0.172  13.766
 3338SOL    HW110694   1.526   0.158  13.729
 3338SOL    HW210695   1.608   0.259  13.807
 3339SOL     OW10696   0.807   3.728  13.537
 3339SOL    HW110697   0.832   3.821  13.530
 3339SOL    HW210698   0.712   3.730  13.549
 3340SOL     OW10699   1.404   3.834  13.460
 3340SOL    HW110700   1.398   3.800  13.371
 3340SOL    HW210701   1.497   3.830  13.480
 3341SOL     OW10702   0.623   3.852  13.154
 3341SOL    HW110703   0.713   3.821  13.163
 3341SOL    HW210704   0.588   3.802  13.080
 3342SOL     OW10705   0.534   3.784  13.542
 3342SOL    HW110706   0.479   3.776  13.620
 3342SOL    HW210707   0.542   3.878  13.527
 3343SOL     OW10708   0.289   3.759  13.213
 3343SOL    HW110709   0.344   3.832  13.185
 3343SOL    HW210710   0.350   3.699  13.255
 3344SOL     OW10711   1.011   3.766  13.777
 3344SOL    HW110712   0.955   3.760  13.700
 3344SOL    HW210713   0.992   3.686  13.826
 3345SOL     OW10714   1.572   3.961  13.155
 3345SOL    HW110715   1.519   3.900  13.205
 3345SOL    HW210716   1.611   0.018  13.222
 3346SOL     OW10717   0.901   3.813  13.143
 3346SOL    HW110718   0.962   3.780  13.077
 3346SOL    HW210719   0.939   3.788  13.227
 3347SOL     OW10720   1.726   3.858  13.557
 3347SOL    HW110721   1.794   3.846  13.490
 3347SOL    HW210722   1.709   3.770  13.590
 3348SOL     OW10723   1.846   3.889   0.059
 3348SOL    HW110724   1.868   3.796   0.055
 3348SOL    HW210725   1.754   3.891   0.083
 3349SOL     OW10726   0.071   0.033  13.016
 3349SOL    HW110727   3.978   0.031  13.038
 3349SOL    HW210728   0.101   0.118  13.048
 3350SOL     OW10729   0.113   3.917  13.403
 3350SOL    HW110730   0.083   3.990  13.347
 3350SOL    HW210731   0.184   3.877  13.353
 3351SOL     OW10732   1.184   0.005  13.513
 3351SOL    HW110733   1.259   3.948  13.494
 3351SOL    HW210734   1.217   0.067  13.578
 3352SOL     OW10735   1.352   3.772  13.193
 3352SOL    HW110736   1.382   3.705  13.131
 3352SOL    HW210737   1.265   3.741  13.220
 3353SOL     OW10738   1.305   0.159  13.733
 3353SOL    HW110739   1.269   0.246  13.715
 3353SOL    HW210740   1.295   0.149  13.828
 3354SOL     OW10741   2.096   0.644   0.117
 3354SOL    HW110742   2.011   0.615   0.149
 3354SOL    HW210743   2.111   0.592   0.038
 3355SOL     OW10744   2.079   0.298   0.991
 3355SOL    HW110745   2.116   0.256   1.069
 3355SOL    HW210746   1.996   0.252   0.977
 3356SOL     OW10747   1.872   0.396   0.636
 3356SOL    HW110748   1.784   0.409   0.671
 3356SOL    HW210749   1.863   0.322   0.576
 3357SOL     OW10750   2.429   1.285   1.174
 3357SOL    HW110751   2.341   1.288   1.135
 3357SOL    HW210752   2.444   1.374   1.206
 3358SOL     OW10753   3.422   1.512   0.706
 3358SOL    HW110754   3.377   1.492   0.789
 3358SOL    HW210755   3.352   1.515   0.641
 3359SOL     OW10756   2.993   0.698   0.701
 3359SOL    HW110757   3.042   0.780   0.688
 3359SOL    HW210758   2.946   0.712   0.783
 3360SOL     OW10759   3.610   0.629   0.227
 3360SOL    HW110760   3.622   0.614   0.133
 3360SOL    HW210761   3.620   0.543   0.266
 3361SOL     OW10762   2.619   1.143   1.040
 3361SOL    HW110763   2.550   1.177   1.096
 3361SOL    HW210764   2.654   1.220   0.995
 3362SOL     OW10765   2.728   0.776   1.822
 3362SOL    HW110766   2.714   0.847   1.885
 3362SOL    HW210767   2.751   0.820   1.740
 3363SOL     OW10768   2.548   1.004   0.647
 3363SOL    HW110769   2.613   0.991   0.717
 3363SOL    HW210770   2.478   1.055   0.688
 3364SOL     OW10771   2.572   1.151   1.811
 3364SOL    HW110772   2.619   1.229   1.838
 3364SOL    HW210773   2.488   1.183   1.777
 3365SOL     OW10774   2.193   1.424   1.069
 3365SOL    HW110775   2.118   1.390   1.019
 3365SOL    HW210776   2.244   1.474   1.005
 3366SOL     OW10777   3.322   1.500   1.353
 3366SOL    HW110778   3.372   1.581   1.363
 3366SOL    HW210779   3.264   1.498   1.428
 3367SOL     OW10780   2.304   0.397   1.495
 3367SOL    HW110781   2.392   0.359   1.493
 3367SOL    HW210782   2.246   0.321   1.502
 3368SOL     OW10783   3.473   0.450   0.736
 3368SOL    HW110784   3.402   0.484   0.681
 3368SOL    HW210785   3.501   0.524   0.789
 3369SOL     OW10786   2.104   1.701   0.478
 3369SOL    HW110787   2.140   1.772   0.533
 3369SOL    HW210788   2.167   1.693   0.406
 3370SOL     OW10789   2.998   1.342   1.692
 3370SOL    HW110790   3.039   1.337   1.779
 3370SOL    HW210791   2.946   1.262   1.686
 3371SOL     OW10792   2.082   1.436   0.533
 3371SOL    HW110793   2.078   1.531   0.534
 3371SOL    HW210794   2.022   1.409   0.604
 3372SOL     OW10795   2.118   1.090   0.890
 3372SOL    HW110796   2.115   1.003   0.931
 3372SOL    HW210797   2.061   1.144   0.944
 3373SOL     OW10798   2.474   1.791   1.430
 3373SOL    HW110799   2.392   1.774   1.476
 3373SOL    HW210800   2.498   1.880   1.456
 3374SOL     OW10801   2.433   0.980   0.156
 3374SOL    HW110802   2.456   1.031   0.079
 3374SOL    HW210803   2.486   1.018   0.227
 3375SOL     OW10804   3.442   0.137   1.458
 3375SOL    HW110805   3.464   0.211   1.401
 3375SOL    HW210806   3.414   0.177   1.540
 3376SOL     OW10807   1.977   0.653   0.558
 3376SOL    HW110808   1.950   0.564   0.582
 3376SOL    HW210809   1.969   0.703   0.640
 3377SOL     OW10810   3.705   1.762   0.334
 3377SOL    HW110811   3.764   1.726   0.401
 3377SOL    HW210812   3.730   1.854   0.328
 3378SOL     OW10813   1.893   1.596   0.106
 3378SOL    HW110814   1.894   1.503   0.126
 3378SOL    HW210815   1.868   1.638   0.189
 3379SOL     OW10816   3.548   0.917   0.642
 3379SOL    HW110817   3.633   0.876   0.628
 3379SOL    HW210818   3.532   0.968   0.563
 3380SOL     OW10819   3.505   1.106   0.432
 3380SOL    HW110820   3.591   1.113   0.391
 3380SOL    HW210821   3.508   1.168   0.505
 3381SOL     OW10822   1.984   0.748   1.582
 3381SOL    HW110823   2.076   0.773   1.592
 3381SOL    HW210824   1.935   0.829   1.591
 3382SOL     OW10825   2.476   1.384   0.734
 3382SOL    HW110826   2.429   1.301   0.743
 3382SOL    HW210827   2.459   1.411   0.644
 3383SOL     OW10828   3.151   1.239   1.424
 3383SOL    HW110829   3.184   1.172   1.363
 3383SOL    HW210830   3.208   1.232   1.500
 3384SOL     OW10831   2.681   0.002   0.517
 3384SOL    HW110832   2.725   0.083   0.492
 3384SOL    HW210833   2.588   0.024   0.518
 3385SOL     OW10834   2.053   0.966   1.271
 3385SOL    HW110835   2.137   0.924   1.256
 3385SOL    HW210836   1.990   0.911   1.224
 3386SOL     OW10837   3.393   0.993   0.203
 3386SOL    HW110838   3.325   0.935   0.234
 3386SOL    HW210839   3.431   1.031   0.282
 3387SOL     OW10840   3.046   1.806   1.621
 3387SOL    HW110841   3.060   1.863   1.546
 3387SOL    HW210842   3.063   1.718   1.587
 3388SOL     OW10843   2.214   0.255   1.821
 3388SOL    HW110844   2.258   0.340   1.823
 3388SOL    HW210845   2.121   0.276   1.833
 3389SOL     OW10846   3.327   1.420   0.952
 3389SOL    HW110847   3.259   1.434   1.018
 3389SOL    HW210848   3.316   1.329   0.925
 3390SOL     OW10849   3.523   1.738   0.583
 3390SOL    HW110850   3.500   1.714   0.493
 3390SOL    HW210851   3.499   1.661   0.635
 3391SOL     OW10852   2.458   0.720   0.261
 3391SOL    HW110853   2.462   0.802   0.212
 3391SOL    HW210854   2.399   0.739   0.334
 3392SOL     OW10855   3.138   0.364   0.940
 3392SOL    HW110856   3.051   0.324   0.945
 3392SOL    HW210857   3.195   0.302   0.986
 3393SOL     OW10858   3.425   1.729   0.312
 3393SOL    HW110859   3.521   1.730   0.310
 3393SOL    HW210860   3.399   1.689   0.229
 3394SOL     OW10861   2.658   0.616   1.453
 3394SOL    HW110862   2.629   0.592   1.542
 3394SOL    HW210863   2.616   0.552   1.396
 3395SOL     OW10864   3.255   0.477   1.677
 3395SOL    HW110865   3.258   0.521   1.762
 3395SOL    HW210866   3.315   0.402   1.686
 3396SOL     OW10867   2.817   0.888   1.582
 3396SOL    HW110868   2.872   0.818   1.547
 3396SOL    HW210869   2.770   0.922   1.506
 3397SOL     OW10870   2.853   0.403   1.241
 3397SOL    HW110871   2.771   0.429   1.283
 3397SOL    HW210872   2.827   0.372   1.154
 3398SOL     OW10873   2.912   0.701   0.428
 3398SOL    HW110874   2.927   0.693   0.522
 3398SOL    HW210875   2.830   0.654   0.413
 3399SOL     OW10876   1.951   0.823   0.775
 3399SOL    HW110877   2.031   0.813   0.826
 3399SOL    HW210878   1.908   0.900   0.811
 3400SOL     OW10879   2.736   0.360   0.217
 3400SOL    HW110880   2.775   0.417   0.151
 3400SOL    HW210881   2.741   0.272   0.179
 3401SOL     OW10882   3.573   0.575   1.829
 3401SOL    HW110883   3.535   0.650   1.783
 3401SOL    HW210884   3.596   0.514   1.759
 3402SOL     OW10885   3.237   1.142   0.542
 3402SOL    HW110886   3.316   1.129   0.490
 3402SOL    HW210887   3.185   1.205   0.493
 3403SOL     OW10888   2.417   0.197   0.882
 3403SOL    HW110889   2.421   0.216   0.976
 3403SOL    HW210890   2.415   0.284   0.841
 3404SOL     OW10891   2.869   1.443   0.476
 3404SOL    HW110892   2.833   1.516   0.425
 3404SOL    HW210893   2.851   1.466   0.567
 3405SOL     OW10894   2.216   1.792   0.865
 3405SOL    HW110895   2.254   1.705   0.876
 3405SOL    HW210896   2.286   1.853   0.890
 3406SOL     OW10897   3.665   1.062   0.867
 3406SOL    HW110898   3.609   1.041   0.792
 3406SOL    HW210899   3.605   1.066   0.941
 3407SOL     OW10900   3.089   1.539   1.513
 3407SOL    HW110901   3.076   1.466   1.574
 3407SOL    HW210902   3.028   1.523   1.442
 3408SOL     OW10903   2.176   0.940   0.228
 3408SOL    HW110904   2.268   0.953   0.204
 3408SOL    HW210905   2.163   0.846   0.224
 3409SOL     OW10906   3.338   0.743   0.731
 3409SOL    HW110907   3.331   0.699   0.816
 3409SOL    HW210908   3.416   0.798   0.739
 3410SOL     OW10909   2.328   1.264   1.738
 3410SOL    HW110910   2.300   1.268   1.646
 3410SOL    HW210911   2.246   1.261   1.788
 3411SOL     OW10912   2.982   1.781   0.232
 3411SOL    HW110913   2.921   1.733   0.288
 3411SOL    HW210914   3.012   1.716   0.168
 3412SOL     OW10915   2.037   0.277   1.498
 3412SOL    HW110916   1.975   0.349   1.494
 3412SOL    HW210917   2.045   0.257   1.591
 3413SOL     OW10918   3.495   1.371   0.083
 3413SOL    HW110919   3.459   1.456   0.057
 3413SOL    HW210920   3.425   1.309   0.063
 3414SOL     OW10921   2.336   1.725   0.328
 3414SOL    HW110922   2.374   1.793   0.384
 3414SOL    HW210923   2.401   1.712   0.259
 3415SOL     OW10924   3.297   0.144   0.394
 3415SOL    HW110925   3.257   0.060   0.374
 3415SOL    HW210926   3.377   0.123   0.441
 3416SOL     OW10927   2.153   1.763   1.225
 3416SOL    HW110928   2.193   1.683   1.258
 3416SOL    HW210929   2.119   1.740   1.139
 3417SOL     OW10930   2.799   1.698   0.900
 3417SOL    HW110931   2.877   1.647   0.920
 3417SOL    HW210932   2.755   1.649   0.830
 3418SOL     OW10933   2.253   0.696   0.473
 3418SOL    HW110934   2.276   0.604   0.484
 3418SOL    HW210935   2.160   0.700   0.497
 3419SOL     OW10936   3.394   0.232   1.727
 3419SOL    HW110937   3.391   0.257   1.819
 3419SOL    HW210938   3.363   0.141   1.725
 3420SOL     OW10939   2.482   0.100   0.118
 3420SOL    HW110940   2.578   0.101   0.126
 3420SOL    HW210941   2.465   0.130   0.029
 3421SOL     OW10942   2.640   0.281   1.764
 3421SOL    HW110943   2.704   0.210   1.770
 3421SOL    HW210944   2.578   0.264   1.835
 3422SOL     OW10945   2.738   1.521   1.194
 3422SOL    HW110946   2.723   1.485   1.106
 3422SOL    HW210947   2.808   1.467   1.230
 3423SOL     OW10948   3.204   0.587   1.430
 3423SOL    HW110949   3.234   0.558   1.517
 3423SOL    HW210950   3.237   0.676   1.422
 3424SOL     OW10951   2.677   1.396   0.938
 3424SOL    HW110952   2.761   1.385   0.894
 3424SOL    HW210953   2.612   1.396   0.867
 3425SOL     OW10954   2.791   0.511   0.902
 3425SOL    HW110955   2.767   0.503   0.810
 3425SOL    HW210956   2.819   0.423   0.927
 3426SOL     OW10957   2.411   0.054   0.499
 3426SOL    HW110958   2.334   0.060   0.556
 3426SOL    HW210959   2.405   0.131   0.443
 3427SOL     OW10960   3.292   1.202   0.044
 3427SOL    HW110961   3.312   1.122   0.093
 3427SOL    HW210962   3.200   1.219   0.065
 3428SOL     OW10963   2.194   0.008   0.179
 3428SOL    HW110964   2.181   0.093   0.135
 3428SOL    HW210965   2.271   0.021   0.234
 3429SOL     OW10966   2.800   0.248   0.465
 3429SOL    HW110967   2.770   0.287   0.383
 3429SOL    HW210968   2.896   0.248   0.458
 3430SOL     OW10969   2.942   0.681   1.459
 3430SOL    HW110970   2.870   0.618   1.467
 3430SOL    HW210971   3.021   0.627   1.454
 3431SOL     OW10972   3.085   1.571   0.795
 3431SOL    HW110973   3.103   1.637   0.728
 3431SOL    HW210974   3.154   1.582   0.859
 3432SOL     OW10975   2.330   1.149   0.734
 3432SOL    HW110976   2.261   1.130   0.797
 3432SOL    HW210977   2.289   1.134   0.649
 3433SOL     OW10978   3.131   1.795   0.606
 3433SOL    HW110979   3.179   1.857   0.550
 3433SOL    HW210980   3.066   1.849   0.651
 3434SOL     OW10981   2.864   0.535   0.057
 3434SOL    HW110982   2.865   0.545  13.861
 3434SOL    HW210983   2.953   0.558   0.084
 3435SOL     OW10984   1.940   0.552   1.395
 3435SOL    HW110985   2.031   0.552   1.365
 3435SOL    HW210986   1.935   0.625   1.456
 3436SOL     OW10987   2.427   0.232   1.161
 3436SOL    HW110988   2.453   0.140   1.172
 3436SOL    HW210989   2.337   0.236   1.193
 3437SOL     OW10990   2.732   0.461   0.638
 3437SOL    HW110991   2.685   0.515   0.575
 3437SOL    HW210992   2.752   0.380   0.592
 3438SOL     OW10993   2.857   0.042   0.778
 3438SOL    HW110994   2.820   0.066   0.693
 3438SOL    HW210995   2.866   3.947   0.774
 3439SOL     OW10996   3.299   1.163   0.858
 3439SOL    HW110997   3.230   1.096   0.856
 3439SOL    HW210998   3.323   1.175   0.766
 3440SOL     OW10999   3.328   0.605   0.979
 3440SOL    HW111000   3.278   0.523   0.984
 3440SOL    HW211001   3.389   0.600   1.052
 3441SOL     OW11002   3.723   0.823   0.374
 3441SOL    HW111003   3.764   0.766   0.439
 3441SOL    HW211004   3.677   0.764   0.315
 3442SOL     OW11005   2.349   1.406   0.157
 3442SOL    HW111006   2.274   1.375   0.208
 3442SOL    HW211007   2.329   1.379   0.067
 3443SOL     OW11008   3.528   1.264   0.648
 3443SOL    HW111009   3.623   1.270   0.657
 3443SOL    HW211010   3.497   1.354   0.664
 3444SOL     OW11011   3.279   0.589   0.087
 3444SOL    HW111012   3.210   0.576   0.151
 3444SOL    HW211013   3.334   0.511   0.093
 3445SOL     OW11014   2.380   0.254   0.322
 3445SOL    HW111015   2.422   0.207   0.250
 3445SOL    HW211016   2.363   0.342   0.287
 3446SOL     OW11017   3.614   1.234   1.572
 3446SOL    HW111018   3.701   1.199   1.555
 3446SOL    HW211019   3.630   1.323   1.604
 3447SOL     OW11020   2.921   1.354   1.334
 3447SOL    HW111021   2.846   1.322   1.385
 3447SOL    HW211022   2.997   1.312   1.375
 3448SOL     OW11023   3.467   1.627   1.653
 3448SOL    HW111024   3.461   1.661   1.564
 3448SOL    HW211025   3.549   1.578   1.655
 3449SOL     OW11026   2.990   1.203   1.106
 3449SOL    HW111027   2.931   1.241   1.171
 3449SOL    HW211028   2.957   1.235   1.022
 3450SOL     OW11029   3.493   1.098   1.077
 3450SOL    HW111030   3.486   1.160   1.150
 3450SOL    HW211031   3.414   1.114   1.025
 3451SOL     OW11032   2.775   0.112   1.402
 3451SOL    HW111033   2.795   0.087   1.312
 3451SOL    HW211034   2.855   0.154   1.433
 3452SOL     OW11035   2.846   1.115   1.723
 3452SOL    HW111036   2.754   1.131   1.744
 3452SOL    HW211037   2.845   1.037   1.667
 3453SOL     OW11038   2.575   1.059   0.376
 3453SOL    HW111039   2.561   1.043   0.469
 3453SOL    HW211040   2.650   1.003   0.354
 3454SOL     OW11041   2.281   0.814   1.251
 3454SOL    HW111042   2.349   0.823   1.317
 3454SOL    HW211043   2.245   0.726   1.264
 3455SOL     OW11044   3.129   0.375   1.275
 3455SOL    HW111045   3.163   0.453   1.320
 3455SOL    HW211046   3.042   0.402   1.244
 3456SOL     OW11047   1.932   1.577   1.352
 3456SOL    HW111048   1.896   1.642   1.291
 3456SOL    HW211049   2.027   1.583   1.339
 3457SOL     OW11050   2.211   1.111   0.489
 3457SOL    HW111051   2.213   1.183   0.427
 3457SOL    HW211052   2.218   1.032   0.435
 3458SOL     OW11053   2.418   0.536   0.859
 3458SOL    HW111054   2.434   0.594   0.785
 3458SOL    HW211055   2.481   0.564   0.925
 3459SOL     OW11056   3.110   1.346   0.396
 3459SOL    HW111057   3.167   1.419   0.422
 3459SOL    HW211058   3.024   1.370   0.429
 3460SOL     OW11059   3.141   1.457   1.147
 3460SOL    HW111060   3.197   1.460   1.224
 3460SOL    HW211061   3.087   1.380   1.159
 3461SOL     OW11062   3.443   0.632   0.488
 3461SOL    HW111063   3.400   0.694   0.547
 3461SOL    HW211064   3.480   0.686   0.418
 3462SOL     OW11065   2.215   1.515   1.319
 3462SOL    HW111066   2.200   1.473   1.234
 3462SOL    HW211067   2.310   1.527   1.323
 3463SOL     OW11068   2.276   0.745   1.601
 3463SOL    HW111069   2.337   0.790   1.543
 3463SOL    HW211070   2.317   0.659   1.617
 3464SOL     OW11071   3.462   0.776   1.680
 3464SOL    HW111072   3.376   0.818   1.674
 3464SOL    HW211073   3.515   0.819   1.612
 3465SOL     OW11074   2.884   0.122   1.778
 3465SOL    HW111075   2.919   0.200   1.736
 3465SOL    HW211076   2.868   0.061   1.706
 3466SOL     OW11077   2.347   0.034   1.764
 3466SOL    HW111078   2.354   0.040   1.668
 3466SOL    HW211079   2.289   0.107   1.788
 3467SOL     OW11080   2.445   0.873   1.031
 3467SOL    HW111081   2.474   0.964   1.031
 3467SOL    HW211082   2.388   0.866   1.108
 3468SOL     OW11083   3.220   0.859   1.031
 3468SOL    HW111084   3.138   0.850   0.983
 3468SOL    HW211085   3.260   0.772   1.026
 3469SOL     OW11086   3.079   0.545   0.270
 3469SOL    HW111087   3.084   0.465   0.322
 3469SOL    HW211088   3.024   0.604   0.323
 3470SOL     OW11089   2.164   0.212   1.242
 3470SOL    HW111090   2.126   0.240   1.325
 3470SOL    HW211091   2.151   0.117   1.241
 3471SOL     OW11092   1.907   1.313   1.278
 3471SOL    HW111093   1.941   1.258   1.349
 3471SOL    HW211094   1.915   1.402   1.312
 3472SOL     OW11095   2.587   0.633   1.056
 3472SOL    HW111096   2.661   0.617   0.997
 3472SOL    HW211097   2.558   0.722   1.035
 3473SOL     OW11098   3.595   0.957   1.858
 3473SOL    HW111099   3.549   0.902   1.794
 3473SOL    HW211100   3.532   0.970   1.928
 3474SOL     OW11101   2.183   0.058   0.645
 3474SOL    HW111102   2.161   0.151   0.658
 3474SOL    HW211103   2.141   0.013   0.718
 3475SOL     OW11104   3.440   0.386   0.390
 3475SOL    HW111105   3.429   0.323   0.460
 3475SOL    HW211106   3.432   0.472   0.432
 3476SOL     OW11107   2.890   0.759   0.960
 3476SOL    HW111108   2.887   0.777   1.054
 3476SOL    HW211109   2.863   0.668   0.952
 3477SOL     OW11110   2.844   1.566   1.716
 3477SOL    HW111111   2.829   1.610   1.632
 3477SOL    HW211112   2.887   1.484   1.693
 3478SOL     OW11113   3.708   1.504   1.601
 3478SOL    HW111114   3.729   1.531   1.511
 3478SOL    HW211115   3.789   1.519   1.650
 3479SOL     OW11116   2.215   0.915   1.808
 3479SOL    HW111117   2.297   0.935   1.854
 3479SOL    HW211118   2.240   0.853   1.739
 3480SOL     OW11119   3.397   0.269   0.144
 3480SOL    HW111120   3.329   0.202   0.149
 3480SOL    HW211121   3.400   0.306   0.232
 3481SOL     OW11122   3.154   0.831   0.055
 3481SOL    HW111123   3.200   0.748   0.060
 3481SOL    HW211124   3.172   0.863  13.867
 3482SOL     OW11125   2.927   1.335   0.853
 3482SOL    HW111126   2.930   1.263   0.791
 3482SOL    HW211127   2.989   1.399   0.819
 3483SOL     OW11128   2.171   0.809   0.947
 3483SOL    HW111129   2.264   0.831   0.942
 3483SOL    HW211130   2.169   0.719   0.980
 3484SOL     OW11131   2.198   0.533   1.012
 3484SOL    HW111132   2.157   0.448   0.997
 3484SOL    HW211133   2.274   0.534   0.954
 3485SOL     OW11134   2.995   0.383   1.692
 3485SOL    HW111135   2.948   0.438   1.754
 3485SOL    HW211136   3.083   0.422   1.687
 3486SOL     OW11137   3.013   0.225   1.481
 3486SOL    HW111138   3.005   0.279   1.559
 3486SOL    HW211139   3.035   0.286   1.411
 3487SOL     OW11140   1.880   1.311   0.178
 3487SOL    HW111141   1.798   1.322   0.131
 3487SOL    HW211142   1.874   1.225   0.218
 3488SOL     OW11143   1.967   1.723   0.967
 3488SOL    HW111144   1.931   1.664   0.901
 3488SOL    HW211145   2.040   1.767   0.923
 3489SOL     OW11146   2.364   1.567   0.910
 3489SOL    HW111147   2.433   1.630   0.932
 3489SOL    HW211148   2.407   1.505   0.851
 3490SOL     OW11149   2.846   0.791   1.226
 3490SOL    HW111150   2.900   0.769   1.302
 3490SOL    HW211151   2.760   0.756   1.248
 3491SOL     OW11152   1.896   0.546   1.117
 3491SOL    HW111153   1.971   0.519   1.065
 3491SOL    HW211154   1.928   0.548   1.207
 3492SOL     OW11155   2.064   0.526   1.715
 3492SOL    HW111156   2.130   0.503   1.650
 3492SOL    HW211157   2.017   0.600   1.675
 3493SOL     OW11158   3.240   0.939   1.659
 3493SOL    HW111159   3.260   1.033   1.658
 3493SOL    HW211160   3.236   0.914   1.566
 3494SOL     OW11161   2.677   0.579   0.367
 3494SOL    HW111162   2.688   0.502   0.312
 3494SOL    HW211163   2.603   0.625   0.328
 3495SOL     OW11164   3.503   0.602   1.187
 3495SOL    HW111165   3.492   0.541   1.260
 3495SOL    HW211166   3.589   0.580   1.150
 3496SOL     OW11167   2.117   1.539   1.710
 3496SOL    HW111168   2.097   1.610   1.771
 3496SOL    HW211169   2.116   1.460   1.763
 3497SOL     OW11170   2.562   0.456   1.261
 3497SOL    HW111171   2.514   0.378   1.233
 3497SOL    HW211172   2.556   0.515   1.185
 3498SOL     OW11173   2.789   1.679   1.468
 3498SOL    HW111174   2.765   1.645   1.381
 3498SOL    HW211175   2.787   1.774   1.458
 3499SOL     OW11176   2.305   0.495   0.231
 3499SOL    HW111177   2.373   0.561   0.241
 3499SOL    HW211178   2.232   0.542   0.190
 3500SOL     OW11179   2.008   1.140   1.472
 3500SOL    HW111180   2.011   1.088   1.552
 3500SOL    HW211181   2.025   1.077   1.402
 3501SOL     OW11182   3.188   1.047   1.224
 3501SOL    HW111183   3.212   0.984   1.156
 3501SOL    HW211184   3.117   1.099   1.185
 3502SOL     OW11185   3.173   0.857   0.325
 3502SOL    HW111186   3.096   0.825   0.373
 3502SOL    HW211187   3.150   0.845   0.233
 3503SOL     OW11188   3.637   1.745   1.153
 3503SOL    HW111189   3.693   1.772   1.080
 3503SOL    HW211190   3.610   1.656   1.131
 3504SOL     OW11191   3.103   1.733   1.114
 3504SOL    HW111192   3.185   1.754   1.069
 3504SOL    HW211193   3.108   1.640   1.132
 3505SOL     OW11194   1.948   1.263   1.015
 3505SOL    HW111195   1.932   1.278   1.108
 3505SOL    HW211196   1.872   1.212   0.985
 3506SOL     OW11197   2.541   1.663   1.726
 3506SOL    HW111198   2.493   1.746   1.726
 3506SOL    HW211199   2.607   1.674   1.657
 3507SOL     OW11200   2.762   0.104   0.137
 3507SOL    HW111201   2.800   0.090   0.051
 3507SOL    HW211202   2.773   0.021   0.183
 3508SOL     OW11203   3.558   0.127   0.484
 3508SOL    HW111204   3.640   0.135   0.434
 3508SOL    HW211205   3.554   0.034   0.508
 3509SOL     OW11206   3.251   1.571   0.482
 3509SOL    HW111207   3.314   1.605   0.418
 3509SOL    HW211208   3.205   1.649   0.514
 3510SOL     OW11209   2.031   1.744   1.858
 3510SOL    HW111210   1.966   1.691   1.905
 3510SOL    HW211211   2.012   1.834   1.885
 3511SOL     OW11212   3.138   0.926   0.671
 3511SOL    HW111213   3.212   0.865   0.679
 3511SOL    HW211214   3.172   0.998   0.619
 3512SOL     OW11215   2.677   1.272   1.430
 3512SOL    HW111216   2.650   1.311   1.513
 3512SOL    HW211217   2.607   1.294   1.369
 3513SOL     OW11218   2.548   1.583   0.178
 3513SOL    HW111219   2.528   1.627   0.095
 3513SOL    HW211220   2.489   1.507   0.179
 3514SOL     OW11221   3.487   1.727   1.391
 3514SOL    HW111222   3.540   1.732   1.311
 3514SOL    HW211223   3.475   1.817   1.418
 3515SOL     OW11224   3.702   0.180   0.970
 3515SOL    HW111225   3.728   0.097   0.930
 3515SOL    HW211226   3.615   0.198   0.934
 3516SOL     OW11227   2.126   0.318   0.717
 3516SOL    HW111228   2.040   0.353   0.695
 3516SOL    HW211229   2.125   0.306   0.812
 3517SOL     OW11230   3.077   1.603   0.033
 3517SOL    HW111231   3.068   1.512   0.062
 3517SOL    HW211232   3.041   1.604  13.845
 3518SOL     OW11233   2.686   1.005   1.372
 3518SOL    HW111234   2.729   1.003   1.286
 3518SOL    HW211235   2.686   1.098   1.395
 3519SOL     OW11236   2.782   0.910   0.287
 3519SOL    HW111237   2.852   0.948   0.235
 3519SOL    HW211238   2.823   0.839   0.336
 3520SOL     OW11239   3.350   1.633   0.068
 3520SOL    HW111240   3.256   1.624   0.051
 3520SOL    HW211241   3.389   1.639  13.880
 3521SOL     OW11242   2.232   1.297   1.492
 3521SOL    HW111243   2.219   1.376   1.440
 3521SOL    HW211244   2.154   1.245   1.476
 3522SOL     OW11245   3.466   1.280   1.279
 3522SOL    HW111246   3.533   1.275   1.347
 3522SOL    HW211247   3.409   1.351   1.308
 3523SOL     OW11248   2.912   1.106   0.706
 3523SOL    HW111249   2.842   1.055   0.746
 3523SOL    HW211250   2.976   1.041   0.675
 3524SOL     OW11251   2.877   0.247   0.967
 3524SOL    HW111252   2.866   0.197   0.886
 3524SOL    HW211253   2.870   0.182   1.037
 3525SOL     OW11254   2.465   1.490   0.482
 3525SOL    HW111255   2.507   1.439   0.413
 3525SOL    HW211256   2.402   1.545   0.435
 3526SOL     OW11257   3.581   0.392   1.374
 3526SOL    HW111258   3.652   0.456   1.373
 3526SOL    HW211259   3.613   0.320   1.319
 3527SOL     OW11260   2.129   1.327   0.295
 3527SOL    HW111261   2.044   1.337   0.252
 3527SOL    HW211262   2.119   1.371   0.379
 3528SOL     OW11263   1.974   1.021   1.719
 3528SOL    HW111264   1.898   0.998   1.772
 3528SOL    HW211265   2.049   0.984   1.766
 3529SOL     OW11266   2.553   0.244   1.497
 3529SOL    HW111267   2.623   0.192   1.457
 3529SOL    HW211268   2.579   0.251   1.589
 3530SOL     OW11269   1.901   0.437   0.011
 3530SOL    HW111270   1.875   0.345   0.018
 3530SOL    HW211271   1.912   0.451  13.817
 3531SOL     OW11272   3.291   0.857   1.400
 3531SOL    HW111273   3.242   0.919   1.345
 3531SOL    HW211274   3.380   0.860   1.365
 3532SOL     OW11275   1.944   0.151   0.366
 3532SOL    HW111276   1.911   0.228   0.320
 3532SOL    HW211277   2.022   0.125   0.317
 3533SOL     OW11278   3.048   1.348   0.122
 3533SOL    HW111279   2.954   1.331   0.111
 3533SOL    HW211280   3.064   1.335   0.215
 3534SOL     OW11281   2.481   0.830   1.433
 3534SOL    HW111282   2.537   0.906   1.418
 3534SOL    HW211283   2.543   0.756   1.442
 3535SOL     OW11284   3.345   1.777   0.978
 3535SOL    HW111285   3.370   1.835   0.905
 3535SOL    HW211286   3.428   1.755   1.020
 3536SOL     OW11287   2.579   0.563   1.706
 3536SOL    HW111288   2.618   0.626   1.766
 3536SOL    HW211289   2.611   0.478   1.737
 3537SOL     OW11290   3.332   1.201   1.632
 3537SOL    HW111291   3.321   1.215   1.726
 3537SOL    HW211292   3.426   1.215   1.617
 3538SOL     OW11293   2.241   1.745   1.570
 3538SOL    HW111294   2.161   1.767   1.521
 3538SOL    HW211295   2.221   1.660   1.609
 3539SOL     OW11296   3.529   0.881   1.259
 3539SOL    HW111297   3.527   0.796   1.215
 3539SOL    HW211298   3.523   0.945   1.187
 3540SOL     OW11299   3.091   0.333   0.440
 3540SOL    HW111300   3.156   0.263   0.434
 3540SOL    HW211301   3.110   0.376   0.524
 3541SOL     OW11302   2.453   0.738   0.669
 3541SOL    HW111303   2.491   0.825   0.653
 3541SOL    HW211304   2.383   0.731   0.603
 3542SOL     OW11305   3.619   0.379   1.642
 3542SOL    HW111306   3.598   0.386   1.549
 3542SOL    HW211307   3.559   0.312   1.675
 3543SOL     OW11308   3.613   0.932   1.514
 3543SOL    HW111309   3.608   1.026   1.529
 3543SOL    HW211310   3.592   0.921   1.422
 3544SOL     OW11311   2.768   1.394   0.057
 3544SOL    HW111312   2.695   1.385   0.119
 3544SOL    HW211313   2.725   1.414  13.873
 3545SOL     OW11314   2.521   1.795   0.946
 3545SOL    HW111315   2.503   1.885   0.917
 3545SOL    HW211316   2.616   1.785   0.937
 3546SOL     OW11317   2.729   0.966   0.855
 3546SOL    HW111318   2.779   0.895   0.895
 3546SOL    HW211319   2.695   1.016   0.929
 3547SOL     OW11320   2.959   1.006   0.108
 3547SOL    HW111321   2.948   1.054   0.026
 3547SOL    HW211322   3.035   0.949   0.092
 3548SOL     OW11323   3.719   1.556   0.842
 3548SOL    HW111324   3.639   1.543   0.790
 3548SOL    HW211325   3.713   1.490   0.911
 3549SOL     OW11326   2.087   1.303   1.857
 3549SOL    HW111327   2.019   1.241   1.830
 3549SOL    HW211328   2.073   1.314   1.951
 3550SOL     OW11329   1.942   1.225   0.662
 3550SOL    HW111330   1.952   1.181   0.747
 3550SOL    HW211331   2.019   1.198   0.612
 3551SOL     OW11332   2.541   1.402   1.625
 3551SOL    HW111333   2.463   1.358   1.658
 3551SOL    HW211334   2.538   1.489   1.664
 3552SOL     OW11335   3.677   0.182   1.243
 3552SOL    HW111336   3.679   0.087   1.252
 3552SOL    HW211337   3.694   0.199   1.150
 3553SOL     OW11338   2.293   0.435   0.531
 3553SOL    HW111339   2.324   0.364   0.474
 3553SOL    HW211340   2.245   0.391   0.601
 3554SOL     OW11341   3.561   1.492   1.099
 3554SOL    HW111342   3.481   1.467   1.052
 3554SOL    HW211343   3.575   1.421   1.162
 3555SOL     OW11344   2.190   0.554   1.292
 3555SOL    HW111345   2.244   0.497   1.347
 3555SOL    HW211346   2.210   0.528   1.203
 3556SOL     OW11347   2.689   1.578   0.679
 3556SOL    HW111348   2.679   1.631   0.600
 3556SOL    HW211349   2.612   1.521   0.679
 3557SOL     OW11350   3.323   0.251   1.111
 3557SOL    HW111351   3.337   0.163   1.147
 3557SOL    HW211352   3.266   0.293   1.175
 3558SOL     OW11353   2.868   0.029   1.147
 3558SOL    HW111354   2.792   3.980   1.117
 3558SOL    HW211355   2.937   3.964   1.155
 3559SOL     OW11356   2.632   1.322   0.318
 3559SOL    HW111357   2.603   1.232   0.336
 3559SOL    HW211358   2.717   1.328   0.361
 3560SOL     OW11359   2.482   1.557   1.285
 3560SOL    HW111360   2.485   1.639   1.334
 3560SOL    HW211361   2.570   1.549   1.247
 3561SOL     OW11362   3.185   0.069   0.136
 3561SOL    HW111363   3.210   3.989   0.088
 3561SOL    HW211364   3.114   0.041   0.194
 3562SOL     OW11365   3.146   0.457   0.686
 3562SOL    HW111366   3.098   0.540   0.683
 3562SOL    HW211367   3.151   0.435   0.779
 3563SOL     OW11368   3.451   0.210   0.867
 3563SOL    HW111369   3.402   0.232   0.946
 3563SOL    HW211370   3.451   0.291   0.815
 3564SOL     OW11371   1.902   1.071   0.307
 3564SOL    HW111372   1.998   1.068   0.305
 3564SOL    HW211373   1.876   0.981   0.329
 3565SOL     OW11374   2.755   1.651   0.343
 3565SOL    HW111375   2.682   1.623   0.289
 3565SOL    HW211376   2.721   1.724   0.394
 3566SOL     OW11377   2.092   0.621   1.983
 3566SOL    HW111378   2.002   0.626   2.015
 3566SOL    HW211379   2.084   0.600   1.890
 3567SOL     OW11380   2.079   0.297   2.853
 3567SOL    HW111381   2.116   0.256   2.931
 3567SOL    HW211382   1.996   0.252   2.839
 3568SOL     OW11383   1.871   0.394   2.498
 3568SOL    HW111384   1.784   0.410   2.534
 3568SOL    HW211385   1.860   0.323   2.436
 3569SOL     OW11386   2.429   1.285   3.036
 3569SOL    HW111387   2.342   1.288   2.997
 3569SOL    HW211388   2.444   1.374   3.068
 3570SOL     OW11389   3.421   1.512   2.568
 3570SOL    HW111390   3.378   1.492   2.652
 3570SOL    HW211391   3.350   1.517   2.505
 3571SOL     OW11392   2.993   0.698   2.563
 3571SOL    HW111393   3.042   0.780   2.549
 3571SOL    HW211394   2.946   0.712   2.645
 3572SOL     OW11395   3.620   0.621   2.091
 3572SOL    HW111396   3.604   0.610   1.997
 3572SOL    HW211397   3.607   0.534   2.128
 3573SOL     OW11398   2.619   1.143   2.902
 3573SOL    HW111399   2.550   1.177   2.958
 3573SOL    HW211400   2.654   1.220   2.857
 3574SOL     OW11401   2.728   0.776   3.684
 3574SOL    HW111402   2.714   0.847   3.747
 3574SOL    HW211403   2.751   0.820   3.602
 3575SOL     OW11404   2.548   1.004   2.509
 3575SOL    HW111405   2.613   0.992   2.579
 3575SOL    HW211406   2.478   1.055   2.550
 3576SOL     OW11407   2.572   1.151   3.673
 3576SOL    HW111408   2.619   1.229   3.700
 3576SOL    HW211409   2.488   1.184   3.639
 3577SOL     OW11410   2.193   1.424   2.931
 3577SOL    HW111411   2.119   1.390   2.881
 3577SOL    HW211412   2.243   1.475   2.867
 3578SOL     OW11413   3.322   1.500   3.215
 3578SOL    HW111414   3.372   1.581   3.225
 3578SOL    HW211415   3.264   1.498   3.290
 3579SOL     OW11416   2.304   0.397   3.357
 3579SOL    HW111417   2.392   0.359   3.355
 3579SOL    HW211418   2.246   0.321   3.364
 3580SOL     OW11419   3.473   0.450   2.598
 3580SOL    HW111420   3.402   0.483   2.544
 3580SOL    HW211421   3.499   0.526   2.652
 3581SOL     OW11422   2.098   1.701   2.333
 3581SOL    HW111423   2.131   1.769   2.392
 3581SOL    HW211424   2.166   1.691   2.267
 3582SOL     OW11425   2.998   1.342   3.554
 3582SOL    HW111426   3.039   1.337   3.641
 3582SOL    HW211427   2.946   1.262   3.548
 3583SOL     OW11428   2.089   1.435   2.397
 3583SOL    HW111429   2.078   1.530   2.397
 3583SOL    HW211430   2.027   1.404   2.463
 3584SOL     OW11431   2.119   1.090   2.752
 3584SOL    HW111432   2.115   1.003   2.794
 3584SOL    HW211433   2.061   1.144   2.806
 3585SOL     OW11434   2.474   1.791   3.292
 3585SOL    HW111435   2.392   1.774   3.338
 3585SOL    HW211436   2.498   1.880   3.318
 3586SOL     OW11437   2.449   0.981   1.996
 3586SOL    HW111438   2.494   1.031   1.927
 3586SOL    HW211439   2.488   1.012   2.077
 3587SOL     OW11440   3.442   0.137   3.320
 3587SOL    HW111441   3.464   0.211   3.263
 3587SOL    HW211442   3.414   0.177   3.402
 3588SOL     OW11443   1.976   0.654   2.421
 3588SOL    HW111444   1.950   0.565   2.444
 3588SOL    HW211445   1.969   0.703   2.503
 3589SOL     OW11446   3.701   1.758   2.198
 3589SOL    HW111447   3.767   1.733   2.263
 3589SOL    HW211448   3.722   1.848   2.176
 3590SOL     OW11449   1.865   1.598   2.008
 3590SOL    HW111450   1.860   1.503   2.001
 3590SOL    HW211451   1.874   1.615   2.102
 3591SOL     OW11452   3.549   0.917   2.503
 3591SOL    HW111453   3.634   0.876   2.488
 3591SOL    HW211454   3.532   0.968   2.423
 3592SOL     OW11455   3.504   1.107   2.293
 3592SOL    HW111456   3.588   1.114   2.249
 3592SOL    HW211457   3.510   1.168   2.366
 3593SOL     OW11458   1.984   0.748   3.444
 3593SOL    HW111459   2.076   0.774   3.454
 3593SOL    HW211460   1.935   0.829   3.453
 3594SOL     OW11461   2.475   1.384   2.596
 3594SOL    HW111462   2.429   1.301   2.606
 3594SOL    HW211463   2.458   1.411   2.506
 3595SOL     OW11464   3.151   1.239   3.286
 3595SOL    HW111465   3.184   1.172   3.225
 3595SOL    HW211466   3.208   1.232   3.362
 3596SOL     OW11467   2.679   0.002   2.377
 3596SOL    HW111468   2.724   0.083   2.354
 3596SOL    HW211469   2.586   0.026   2.379
 3597SOL     OW11470   2.053   0.966   3.133
 3597SOL    HW111471   2.137   0.924   3.118
 3597SOL    HW211472   1.990   0.911   3.086
 3598SOL     OW11473   3.392   0.993   2.060
 3598SOL    HW111474   3.322   0.936   2.093
 3598SOL    HW211475   3.433   1.028   2.139
 3599SOL     OW11476   3.046   1.806   3.483
 3599SOL    HW111477   3.060   1.863   3.408
 3599SOL    HW211478   3.063   1.718   3.449
 3600SOL     OW11479   2.214   0.255   3.683
 3600SOL    HW111480   2.258   0.340   3.685
 3600SOL    HW211481   2.121   0.276   3.695
 3601SOL     OW11482   3.328   1.420   2.814
 3601SOL    HW111483   3.260   1.435   2.880
 3601SOL    HW211484   3.316   1.329   2.787
 3602SOL     OW11485   3.519   1.739   2.441
 3602SOL    HW111486   3.501   1.708   2.352
 3602SOL    HW211487   3.496   1.664   2.497
 3603SOL     OW11488   2.457   0.722   2.127
 3603SOL    HW111489   2.464   0.803   2.077
 3603SOL    HW211490   2.393   0.741   2.195
 3604SOL     OW11491   3.138   0.364   2.802
 3604SOL    HW111492   3.051   0.324   2.808
 3604SOL    HW211493   3.195   0.302   2.848
 3605SOL     OW11494   3.441   1.669   2.171
 3605SOL    HW111495   3.531   1.702   2.166
 3605SOL    HW211496   3.416   1.653   2.080
 3606SOL     OW11497   2.658   0.616   3.315
 3606SOL    HW111498   2.629   0.592   3.404
 3606SOL    HW211499   2.616   0.552   3.258
 3607SOL     OW11500   3.255   0.476   3.539
 3607SOL    HW111501   3.258   0.521   3.624
 3607SOL    HW211502   3.315   0.402   3.548
 3608SOL     OW11503   2.817   0.888   3.444
 3608SOL    HW111504   2.872   0.818   3.409
 3608SOL    HW211505   2.770   0.922   3.368
 3609SOL     OW11506   2.853   0.403   3.103
 3609SOL    HW111507   2.771   0.429   3.145
 3609SOL    HW211508   2.827   0.372   3.016
 3610SOL     OW11509   2.913   0.699   2.288
 3610SOL    HW111510   2.927   0.692   2.382
 3610SOL    HW211511   2.830   0.652   2.273
 3611SOL     OW11512   1.950   0.822   2.638
 3611SOL    HW111513   2.031   0.813   2.689
 3611SOL    HW211514   1.908   0.900   2.673
 3612SOL     OW11515   2.754   0.350   2.061
 3612SOL    HW111516   2.796   0.409   1.997
 3612SOL    HW211517   2.753   0.265   2.018
 3613SOL     OW11518   3.573   0.575   3.691
 3613SOL    HW111519   3.535   0.650   3.646
 3613SOL    HW211520   3.596   0.514   3.621
 3614SOL     OW11521   3.237   1.142   2.403
 3614SOL    HW111522   3.317   1.129   2.352
 3614SOL    HW211523   3.186   1.204   2.353
 3615SOL     OW11524   2.417   0.198   2.744
 3615SOL    HW111525   2.421   0.215   2.838
 3615SOL    HW211526   2.415   0.284   2.703
 3616SOL     OW11527   2.869   1.444   2.335
 3616SOL    HW111528   2.830   1.516   2.285
 3616SOL    HW211529   2.851   1.467   2.426
 3617SOL     OW11530   2.217   1.797   2.726
 3617SOL    HW111531   2.255   1.710   2.738
 3617SOL    HW211532   2.288   1.857   2.752
 3618SOL     OW11533   3.665   1.062   2.728
 3618SOL    HW111534   3.610   1.041   2.653
 3618SOL    HW211535   3.605   1.066   2.802
 3619SOL     OW11536   3.089   1.539   3.375
 3619SOL    HW111537   3.076   1.466   3.436
 3619SOL    HW211538   3.028   1.523   3.304
 3620SOL     OW11539   2.183   0.958   2.111
 3620SOL    HW111540   2.265   0.976   2.066
 3620SOL    HW211541   2.152   0.875   2.073
 3621SOL     OW11542   3.339   0.741   2.592
 3621SOL    HW111543   3.331   0.699   2.677
 3621SOL    HW211544   3.416   0.798   2.600
 3622SOL     OW11545   2.328   1.263   3.600
 3622SOL    HW111546   2.300   1.268   3.508
 3622SOL    HW211547   2.246   1.261   3.649
 3623SOL     OW11548   2.983   1.778   2.093
 3623SOL    HW111549   2.911   1.735   2.139
 3623SOL    HW211550   3.006   1.717   2.023
 3624SOL     OW11551   2.037   0.277   3.360
 3624SOL    HW111552   1.975   0.350   3.355
 3624SOL    HW211553   2.045   0.258   3.453
 3625SOL     OW11554   3.489   1.381   1.949
 3625SOL    HW111555   3.446   1.466   1.934
 3625SOL    HW211556   3.421   1.317   1.930
 3626SOL     OW11557   2.336   1.719   2.197
 3626SOL    HW111558   2.375   1.792   2.244
 3626SOL    HW211559   2.393   1.706   2.121
 3627SOL     OW11560   3.296   0.163   2.264
 3627SOL    HW111561   3.256   0.092   2.214
 3627SOL    HW211562   3.374   0.122   2.304
 3628SOL     OW11563   2.153   1.766   3.087
 3628SOL    HW111564   2.193   1.685   3.120
 3628SOL    HW211565   2.117   1.742   3.002
 3629SOL     OW11566   2.799   1.698   2.762
 3629SOL    HW111567   2.877   1.647   2.782
 3629SOL    HW211568   2.755   1.649   2.692
 3630SOL     OW11569   2.254   0.695   2.338
 3630SOL    HW111570   2.275   0.603   2.349
 3630SOL    HW211571   2.160   0.701   2.357
 3631SOL     OW11572   3.394   0.232   3.589
 3631SOL    HW111573   3.391   0.257   3.681
 3631SOL    HW211574   3.363   0.141   3.587
 3632SOL     OW11575   2.503   0.136   1.968
 3632SOL    HW111576   2.537   0.056   2.008
 3632SOL    HW211577   2.440   0.105   1.902
 3633SOL     OW11578   2.640   0.281   3.626
 3633SOL    HW111579   2.703   0.210   3.632
 3633SOL    HW211580   2.578   0.265   3.697
 3634SOL     OW11581   2.738   1.521   3.056
 3634SOL    HW111582   2.723   1.485   2.968
 3634SOL    HW211583   2.808   1.467   3.092
 3635SOL     OW11584   3.204   0.587   3.292
 3635SOL    HW111585   3.234   0.558   3.379
 3635SOL    HW211586   3.237   0.676   3.284
 3636SOL     OW11587   2.676   1.396   2.800
 3636SOL    HW111588   2.761   1.385   2.756
 3636SOL    HW211589   2.612   1.396   2.729
 3637SOL     OW11590   2.791   0.510   2.764
 3637SOL    HW111591   2.767   0.503   2.672
 3637SOL    HW211592   2.819   0.423   2.789
 3638SOL     OW11593   2.408   0.058   2.355
 3638SOL    HW111594   2.333   0.062   2.414
 3638SOL    HW211595   2.403   0.138   2.304
 3639SOL     OW11596   3.290   1.198   1.903
 3639SOL    HW111597   3.321   1.123   1.953
 3639SOL    HW211598   3.204   1.219   1.941
 3640SOL     OW11599   2.187   0.042   2.070
 3640SOL    HW111600   2.203   0.112   2.006
 3640SOL    HW211601   2.271   0.031   2.114
 3641SOL     OW11602   2.800   0.247   2.325
 3641SOL    HW111603   2.775   0.289   2.243
 3641SOL    HW211604   2.896   0.249   2.324
 3642SOL     OW11605   2.942   0.681   3.321
 3642SOL    HW111606   2.870   0.618   3.329
 3642SOL    HW211607   3.021   0.627   3.316
 3643SOL     OW11608   3.085   1.570   2.656
 3643SOL    HW111609   3.103   1.637   2.590
 3643SOL    HW211610   3.154   1.583   2.721
 3644SOL     OW11611   2.331   1.149   2.597
 3644SOL    HW111612   2.261   1.130   2.659
 3644SOL    HW211613   2.291   1.132   2.511
 3645SOL     OW11614   3.132   1.794   2.469
 3645SOL    HW111615   3.178   1.855   2.411
 3645SOL    HW211616   3.066   1.848   2.513
 3646SOL     OW11617   2.886   0.547   1.885
 3646SOL    HW111618   2.842   0.629   1.866
 3646SOL    HW211619   2.949   0.568   1.954
 3647SOL     OW11620   1.940   0.552   3.257
 3647SOL    HW111621   2.031   0.552   3.227
 3647SOL    HW211622   1.935   0.625   3.318
 3648SOL     OW11623   2.427   0.232   3.023
 3648SOL    HW111624   2.453   0.140   3.035
 3648SOL    HW211625   2.337   0.236   3.055
 3649SOL     OW11626   2.732   0.461   2.501
 3649SOL    HW111627   2.684   0.514   2.438
 3649SOL    HW211628   2.752   0.380   2.454
 3650SOL     OW11629   2.856   0.042   2.641
 3650SOL    HW111630   2.823   0.066   2.554
 3650SOL    HW211631   2.867   3.947   2.637
 3651SOL     OW11632   3.299   1.163   2.720
 3651SOL    HW111633   3.230   1.097   2.718
 3651SOL    HW211634   3.324   1.175   2.628
 3652SOL     OW11635   3.328   0.605   2.841
 3652SOL    HW111636   3.278   0.523   2.846
 3652SOL    HW211637   3.389   0.600   2.914
 3653SOL     OW11638   3.722   0.823   2.237
 3653SOL    HW111639   3.764   0.766   2.301
 3653SOL    HW211640   3.682   0.763   2.173
 3654SOL     OW11641   2.354   1.417   2.019
 3654SOL    HW111642   2.280   1.389   2.073
 3654SOL    HW211643   2.336   1.381   1.932
 3655SOL     OW11644   3.528   1.265   2.509
 3655SOL    HW111645   3.623   1.270   2.518
 3655SOL    HW211646   3.497   1.353   2.530
 3656SOL     OW11647   3.256   0.573   1.932
 3656SOL    HW111648   3.194   0.555   2.002
 3656SOL    HW211649   3.342   0.554   1.971
 3657SOL     OW11650   2.389   0.266   2.180
 3657SOL    HW111651   2.440   0.225   2.110
 3657SOL    HW211652   2.363   0.351   2.145
 3658SOL     OW11653   3.614   1.234   3.434
 3658SOL    HW111654   3.701   1.199   3.417
 3658SOL    HW211655   3.630   1.323   3.466
 3659SOL     OW11656   2.921   1.354   3.196
 3659SOL    HW111657   2.846   1.322   3.247
 3659SOL    HW211658   2.997   1.312   3.237
 3660SOL     OW11659   3.467   1.627   3.515
 3660SOL    HW111660   3.461   1.661   3.426
 3660SOL    HW211661   3.549   1.578   3.517
 3661SOL     OW11662   2.990   1.203   2.968
 3661SOL    HW111663   2.931   1.241   3.033
 3661SOL    HW211664   2.957   1.235   2.884
 3662SOL     OW11665   3.493   1.098   2.938
 3662SOL    HW111666   3.486   1.160   3.012
 3662SOL    HW211667   3.414   1.114   2.887
 3663SOL     OW11668   2.775   0.112   3.264
 3663SOL    HW111669   2.795   0.087   3.174
 3663SOL    HW211670   2.855   0.154   3.295
 3664SOL     OW11671   2.846   1.115   3.585
 3664SOL    HW111672   2.754   1.131   3.606
 3664SOL    HW211673   2.845   1.037   3.529
 3665SOL     OW11674   2.570   1.061   2.233
 3665SOL    HW111675   2.556   1.045   2.327
 3665SOL    HW211676   2.646   1.007   2.211
 3666SOL     OW11677   2.280   0.814   3.113
 3666SOL    HW111678   2.349   0.823   3.179
 3666SOL    HW211679   2.245   0.726   3.126
 3667SOL     OW11680   3.129   0.375   3.137
 3667SOL    HW111681   3.163   0.453   3.182
 3667SOL    HW211682   3.042   0.402   3.106
 3668SOL     OW11683   1.932   1.577   3.214
 3668SOL    HW111684   1.896   1.642   3.153
 3668SOL    HW211685   2.027   1.582   3.201
 3669SOL     OW11686   2.213   1.108   2.353
 3669SOL    HW111687   2.217   1.182   2.293
 3669SOL    HW211688   2.210   1.031   2.296
 3670SOL     OW11689   2.418   0.536   2.720
 3670SOL    HW111690   2.433   0.595   2.647
 3670SOL    HW211691   2.481   0.564   2.787
 3671SOL     OW11692   3.110   1.348   2.251
 3671SOL    HW111693   3.166   1.420   2.282
 3671SOL    HW211694   3.023   1.369   2.285
 3672SOL     OW11695   3.141   1.457   3.009
 3672SOL    HW111696   3.197   1.460   3.086
 3672SOL    HW211697   3.087   1.380   3.021
 3673SOL     OW11698   3.437   0.631   2.344
 3673SOL    HW111699   3.398   0.690   2.408
 3673SOL    HW211700   3.486   0.688   2.285
 3674SOL     OW11701   2.214   1.516   3.180
 3674SOL    HW111702   2.200   1.475   3.095
 3674SOL    HW211703   2.309   1.528   3.185
 3675SOL     OW11704   2.276   0.744   3.463
 3675SOL    HW111705   2.337   0.790   3.405
 3675SOL    HW211706   2.317   0.659   3.479
 3676SOL     OW11707   3.462   0.776   3.542
 3676SOL    HW111708   3.376   0.818   3.536
 3676SOL    HW211709   3.515   0.819   3.474
 3677SOL     OW11710   2.884   0.122   3.640
 3677SOL    HW111711   2.919   0.200   3.598
 3677SOL    HW211712   2.867   0.061   3.568
 3678SOL     OW11713   2.347   0.034   3.626
 3678SOL    HW111714   2.354   0.040   3.530
 3678SOL    HW211715   2.289   0.107   3.650
 3679SOL     OW11716   2.445   0.873   2.893
 3679SOL    HW111717   2.474   0.964   2.892
 3679SOL    HW211718   2.388   0.866   2.970
 3680SOL     OW11719   3.220   0.859   2.893
 3680SOL    HW111720   3.138   0.850   2.845
 3680SOL    HW211721   3.260   0.772   2.888
 3681SOL     OW11722   3.067   0.535   2.125
 3681SOL    HW111723   3.074   0.455   2.178
 3681SOL    HW211724   3.023   0.598   2.182
 3682SOL     OW11725   2.164   0.212   3.104
 3682SOL    HW111726   2.126   0.241   3.186
 3682SOL    HW211727   2.151   0.117   3.103
 3683SOL     OW11728   1.907   1.313   3.140
 3683SOL    HW111729   1.941   1.258   3.211
 3683SOL    HW211730   1.915   1.402   3.174
 3684SOL     OW11731   2.587   0.633   2.918
 3684SOL    HW111732   2.661   0.617   2.859
 3684SOL    HW211733   2.558   0.722   2.897
 3685SOL     OW11734   3.595   0.956   3.720
 3685SOL    HW111735   3.549   0.902   3.656
 3685SOL    HW211736   3.532   0.970   3.790
 3686SOL     OW11737   2.183   0.057   2.508
 3686SOL    HW111738   2.162   0.150   2.520
 3686SOL    HW211739   2.143   0.014   2.583
 3687SOL     OW11740   3.469   0.387   2.243
 3687SOL    HW111741   3.442   0.319   2.304
 3687SOL    HW211742   3.447   0.469   2.287
 3688SOL     OW11743   2.890   0.759   2.823
 3688SOL    HW111744   2.887   0.777   2.917
 3688SOL    HW211745   2.863   0.668   2.814
 3689SOL     OW11746   2.844   1.566   3.578
 3689SOL    HW111747   2.829   1.610   3.494
 3689SOL    HW211748   2.887   1.484   3.555
 3690SOL     OW11749   3.708   1.504   3.463
 3690SOL    HW111750   3.729   1.531   3.373
 3690SOL    HW211751   3.789   1.519   3.512
 3691SOL     OW11752   2.215   0.915   3.670
 3691SOL    HW111753   2.297   0.935   3.715
 3691SOL    HW211754   2.240   0.853   3.602
 3692SOL     OW11755   3.369   0.276   1.998
 3692SOL    HW111756   3.294   0.218   2.010
 3692SOL    HW211757   3.383   0.315   2.084
 3693SOL     OW11758   3.154   0.827   1.893
 3693SOL    HW111759   3.196   0.741   1.896
 3693SOL    HW211760   3.186   0.866   1.812
 3694SOL     OW11761   2.927   1.335   2.716
 3694SOL    HW111762   2.930   1.263   2.653
 3694SOL    HW211763   2.989   1.400   2.681
 3695SOL     OW11764   2.171   0.809   2.810
 3695SOL    HW111765   2.264   0.831   2.803
 3695SOL    HW211766   2.169   0.719   2.842
 3696SOL     OW11767   2.199   0.533   2.874
 3696SOL    HW111768   2.158   0.448   2.859
 3696SOL    HW211769   2.275   0.534   2.816
 3697SOL     OW11770   2.995   0.383   3.554
 3697SOL    HW111771   2.948   0.438   3.616
 3697SOL    HW211772   3.083   0.422   3.549
 3698SOL     OW11773   3.013   0.225   3.343
 3698SOL    HW111774   3.005   0.279   3.421
 3698SOL    HW211775   3.035   0.286   3.273
 3699SOL     OW11776   1.866   1.320   2.056
 3699SOL    HW111777   1.778   1.332   2.019
 3699SOL    HW211778   1.865   1.230   2.090
 3700SOL     OW11779   1.972   1.724   2.836
 3700SOL    HW111780   1.933   1.667   2.770
 3700SOL    HW211781   2.041   1.771   2.790
 3701SOL     OW11782   2.363   1.569   2.771
 3701SOL    HW111783   2.432   1.631   2.794
 3701SOL    HW211784   2.406   1.506   2.713
 3702SOL     OW11785   2.846   0.791   3.088
 3702SOL    HW111786   2.900   0.769   3.164
 3702SOL    HW211787   2.760   0.757   3.110
 3703SOL     OW11788   1.896   0.546   2.979
 3703SOL    HW111789   1.972   0.520   2.927
 3703SOL    HW211790   1.928   0.548   3.069
 3704SOL     OW11791   2.064   0.526   3.577
 3704SOL    HW111792   2.130   0.503   3.512
 3704SOL    HW211793   2.017   0.600   3.537
 3705SOL     OW11794   3.240   0.939   3.521
 3705SOL    HW111795   3.260   1.033   3.520
 3705SOL    HW211796   3.236   0.914   3.428
 3706SOL     OW11797   2.678   0.571   2.221
 3706SOL    HW111798   2.683   0.495   2.163
 3706SOL    HW211799   2.603   0.622   2.189
 3707SOL     OW11800   3.503   0.602   3.049
 3707SOL    HW111801   3.492   0.541   3.122
 3707SOL    HW211802   3.589   0.580   3.012
 3708SOL     OW11803   2.117   1.539   3.572
 3708SOL    HW111804   2.098   1.609   3.633
 3708SOL    HW211805   2.116   1.459   3.625
 3709SOL     OW11806   2.562   0.456   3.123
 3709SOL    HW111807   2.514   0.378   3.095
 3709SOL    HW211808   2.556   0.515   3.047
 3710SOL     OW11809   2.789   1.679   3.329
 3710SOL    HW111810   2.765   1.645   3.243
 3710SOL    HW211811   2.787   1.774   3.320
 3711SOL     OW11812   2.327   0.494   2.048
 3711SOL    HW111813   2.385   0.567   2.070
 3711SOL    HW211814   2.241   0.534   2.036
 3712SOL     OW11815   2.008   1.140   3.334
 3712SOL    HW111816   2.011   1.088   3.414
 3712SOL    HW211817   2.025   1.077   3.264
 3713SOL     OW11818   3.188   1.047   3.086
 3713SOL    HW111819   3.212   0.984   3.018
 3713SOL    HW211820   3.117   1.099   3.047
 3714SOL     OW11821   3.173   0.855   2.168
 3714SOL    HW111822   3.096   0.827   2.219
 3714SOL    HW211823   3.147   0.843   2.077
 3715SOL     OW11824   3.637   1.745   3.015
 3715SOL    HW111825   3.693   1.772   2.942
 3715SOL    HW211826   3.610   1.656   2.993
 3716SOL     OW11827   3.103   1.733   2.976
 3716SOL    HW111828   3.185   1.754   2.931
 3716SOL    HW211829   3.108   1.640   2.994
 3717SOL     OW11830   1.948   1.264   2.877
 3717SOL    HW111831   1.932   1.278   2.970
 3717SOL    HW211832   1.873   1.212   2.847
 3718SOL     OW11833   2.540   1.663   3.588
 3718SOL    HW111834   2.493   1.746   3.588
 3718SOL    HW211835   2.607   1.674   3.519
 3719SOL     OW11836   3.555   0.123   2.348
 3719SOL    HW111837   3.637   0.135   2.301
 3719SOL    HW211838   3.554   0.030   2.372
 3720SOL     OW11839   3.252   1.567   2.346
 3720SOL    HW111840   3.312   1.599   2.280
 3720SOL    HW211841   3.204   1.645   2.375
 3721SOL     OW11842   2.033   1.745   3.719
 3721SOL    HW111843   1.969   1.693   3.768
 3721SOL    HW211844   2.011   1.835   3.740
 3722SOL     OW11845   3.139   0.925   2.532
 3722SOL    HW111846   3.213   0.865   2.540
 3722SOL    HW211847   3.173   0.998   2.481
 3723SOL     OW11848   2.677   1.272   3.292
 3723SOL    HW111849   2.650   1.312   3.375
 3723SOL    HW211850   2.607   1.294   3.231
 3724SOL     OW11851   2.536   1.619   2.014
 3724SOL    HW111852   2.544   1.627   1.919
 3724SOL    HW211853   2.481   1.541   2.026
 3725SOL     OW11854   3.487   1.727   3.253
 3725SOL    HW111855   3.540   1.732   3.173
 3725SOL    HW211856   3.475   1.817   3.280
 3726SOL     OW11857   3.702   0.180   2.832
 3726SOL    HW111858   3.727   0.096   2.793
 3726SOL    HW211859   3.615   0.198   2.796
 3727SOL     OW11860   2.127   0.318   2.578
 3727SOL    HW111861   2.041   0.353   2.556
 3727SOL    HW211862   2.125   0.307   2.673
 3728SOL     OW11863   3.069   1.606   1.893
 3728SOL    HW111864   3.060   1.515   1.920
 3728SOL    HW211865   3.003   1.617   1.824
 3729SOL     OW11866   2.687   1.005   3.234
 3729SOL    HW111867   2.729   1.003   3.148
 3729SOL    HW211868   2.686   1.098   3.257
 3730SOL     OW11869   2.777   0.910   2.152
 3730SOL    HW111870   2.839   0.942   2.086
 3730SOL    HW211871   2.825   0.840   2.197
 3731SOL     OW11872   3.354   1.626   1.904
 3731SOL    HW111873   3.259   1.619   1.891
 3731SOL    HW211874   3.391   1.632   1.816
 3732SOL     OW11875   2.232   1.298   3.354
 3732SOL    HW111876   2.219   1.377   3.301
 3732SOL    HW211877   2.154   1.245   3.338
 3733SOL     OW11878   3.466   1.280   3.141
 3733SOL    HW111879   3.533   1.275   3.209
 3733SOL    HW211880   3.409   1.351   3.170
 3734SOL     OW11881   2.913   1.107   2.568
 3734SOL    HW111882   2.842   1.056   2.607
 3734SOL    HW211883   2.975   1.041   2.536
 3735SOL     OW11884   2.877   0.247   2.830
 3735SOL    HW111885   2.866   0.197   2.749
 3735SOL    HW211886   2.870   0.182   2.899
 3736SOL     OW11887   2.463   1.490   2.344
 3736SOL    HW111888   2.504   1.440   2.273
 3736SOL    HW211889   2.401   1.547   2.299
 3737SOL     OW11890   3.581   0.392   3.236
 3737SOL    HW111891   3.652   0.456   3.235
 3737SOL    HW211892   3.613   0.320   3.181
 3738SOL     OW11893   2.120   1.346   2.148
 3738SOL    HW111894   2.027   1.342   2.128
 3738SOL    HW211895   2.124   1.381   2.237
 3739SOL     OW11896   1.974   1.021   3.581
 3739SOL    HW111897   1.898   0.998   3.634
 3739SOL    HW211898   2.049   0.984   3.629
 3740SOL     OW11899   2.553   0.243   3.359
 3740SOL    HW111900   2.623   0.192   3.319
 3740SOL    HW211901   2.579   0.251   3.451
 3741SOL     OW11902   1.959   0.319   1.851
 3741SOL    HW111903   1.883   0.336   1.907
 3741SOL    HW211904   1.975   0.402   1.805
 3742SOL     OW11905   3.291   0.857   3.262
 3742SOL    HW111906   3.241   0.919   3.207
 3742SOL    HW211907   3.380   0.860   3.227
 3743SOL     OW11908   1.945   0.154   2.203
 3743SOL    HW111909   1.914   0.217   2.137
 3743SOL    HW211910   2.029   0.124   2.169
 3744SOL     OW11911   3.041   1.340   1.979
 3744SOL    HW111912   2.950   1.310   1.982
 3744SOL    HW211913   3.069   1.340   2.070
 3745SOL     OW11914   2.482   0.830   3.295
 3745SOL    HW111915   2.537   0.906   3.280
 3745SOL    HW211916   2.543   0.756   3.304
 3746SOL     OW11917   3.346   1.777   2.840
 3746SOL    HW111918   3.370   1.835   2.768
 3746SOL    HW211919   3.428   1.756   2.883
 3747SOL     OW11920   2.579   0.563   3.568
 3747SOL    HW111921   2.618   0.627   3.628
 3747SOL    HW211922   2.611   0.478   3.599
 3748SOL     OW11923   3.332   1.201   3.494
 3748SOL    HW111924   3.321   1.215   3.588
 3748SOL    HW211925   3.426   1.215   3.479
 3749SOL     OW11926   2.240   1.745   3.432
 3749SOL    HW111927   2.161   1.766   3.383
 3749SOL    HW211928   2.222   1.660   3.472
 3750SOL     OW11929   3.529   0.881   3.121
 3750SOL    HW111930   3.527   0.796   3.077
 3750SOL    HW211931   3.523   0.945   3.049
 3751SOL     OW11932   3.085   0.334   2.308
 3751SOL    HW111933   3.152   0.266   2.299
 3751SOL    HW211934   3.108   0.379   2.389
 3752SOL     OW11935   2.453   0.739   2.530
 3752SOL    HW111936   2.491   0.825   2.515
 3752SOL    HW211937   2.384   0.731   2.465
 3753SOL     OW11938   3.619   0.379   3.504
 3753SOL    HW111939   3.598   0.386   3.411
 3753SOL    HW211940   3.559   0.312   3.537
 3754SOL     OW11941   3.613   0.932   3.376
 3754SOL    HW111942   3.608   1.026   3.391
 3754SOL    HW211943   3.592   0.921   3.283
 3755SOL     OW11944   2.723   1.368   1.894
 3755SOL    HW111945   2.686   1.394   1.979
 3755SOL    HW211946   2.743   1.450   1.850
 3756SOL     OW11947   2.521   1.795   2.808
 3756SOL    HW111948   2.504   1.885   2.779
 3756SOL    HW211949   2.616   1.785   2.799
 3757SOL     OW11950   2.729   0.966   2.717
 3757SOL    HW111951   2.779   0.895   2.757
 3757SOL    HW211952   2.695   1.016   2.792
 3758SOL     OW11953   2.941   0.988   1.951
 3758SOL    HW111954   2.919   1.039   1.873
 3758SOL    HW211955   3.016   0.935   1.924
 3759SOL     OW11956   3.718   1.557   2.704
 3759SOL    HW111957   3.639   1.541   2.652
 3759SOL    HW211958   3.715   1.490   2.773
 3760SOL     OW11959   2.087   1.303   3.719
 3760SOL    HW111960   2.019   1.241   3.692
 3760SOL    HW211961   2.073   1.314   3.813
 3761SOL     OW11962   1.943   1.228   2.525
 3761SOL    HW111963   1.952   1.183   2.609
 3761SOL    HW211964   2.016   1.195   2.472
 3762SOL     OW11965   2.541   1.402   3.487
 3762SOL    HW111966   2.463   1.358   3.520
 3762SOL    HW211967   2.538   1.489   3.526
 3763SOL     OW11968   3.677   0.182   3.105
 3763SOL    HW111969   3.679   0.087   3.114
 3763SOL    HW211970   3.693   0.199   3.013
 3764SOL     OW11971   2.291   0.434   2.386
 3764SOL    HW111972   2.322   0.362   2.332
 3764SOL    HW211973   2.244   0.392   2.459
 3765SOL     OW11974   3.561   1.492   2.961
 3765SOL    HW111975   3.481   1.467   2.915
 3765SOL    HW211976   3.575   1.421   3.025
 3766SOL     OW11977   2.190   0.554   3.154
 3766SOL    HW111978   2.244   0.497   3.209
 3766SOL    HW211979   2.210   0.528   3.065
 3767SOL     OW11980   2.688   1.578   2.541
 3767SOL    HW111981   2.679   1.630   2.461
 3767SOL    HW211982   2.611   1.521   2.541
 3768SOL     OW11983   3.323   0.251   2.973
 3768SOL    HW111984   3.337   0.163   3.009
 3768SOL    HW211985   3.266   0.293   3.037
 3769SOL     OW11986   2.868   0.029   3.009
 3769SOL    HW111987   2.792   3.980   2.979
 3769SOL    HW211988   2.937   3.964   3.017
 3770SOL     OW11989   2.635   1.332   2.174
 3770SOL    HW111990   2.602   1.242   2.181
 3770SOL    HW211991   2.716   1.332   2.225
 3771SOL     OW11992   2.482   1.557   3.147
 3771SOL    HW111993   2.485   1.639   3.196
 3771SOL    HW211994   2.570   1.549   3.109
 3772SOL     OW11995   3.177   0.072   2.022
 3772SOL    HW111996   3.191   0.000   1.961
 3772SOL    HW211997   3.092   0.053   2.062
 3773SOL     OW11998   3.147   0.458   2.549
 3773SOL    HW111999   3.099   0.540   2.546
 3773SOL    HW212000   3.151   0.436   2.642
 3774SOL     OW12001   3.452   0.211   2.729
 3774SOL    HW112002   3.402   0.232   2.808
 3774SOL    HW212003   3.451   0.291   2.677
 3775SOL     OW12004   1.906   1.072   2.166
 3775SOL    HW112005   2.000   1.063   2.151
 3775SOL    HW212006   1.878   0.984   2.191
 3776SOL     OW12007   2.746   1.650   2.203
 3776SOL    HW112008   2.673   1.635   2.144
 3776SOL    HW212009   2.720   1.726   2.256
 3777SOL     OW12010   2.092   0.621   3.845
 3777SOL    HW112011   2.002   0.626   3.877
 3777SOL    HW212012   2.084   0.600   3.752
 3778SOL     OW12013   2.079   0.297   4.714
 3778SOL    HW112014   2.117   0.256   4.792
 3778SOL    HW212015   1.996   0.252   4.701
 3779SOL     OW12016   1.871   0.394   4.360
 3779SOL    HW112017   1.784   0.410   4.396
 3779SOL    HW212018   1.860   0.323   4.298
 3780SOL     OW12019   2.429   1.285   4.898
 3780SOL    HW112020   2.342   1.289   4.859
 3780SOL    HW212021   2.444   1.374   4.931
 3781SOL     OW12022   3.421   1.512   4.430
 3781SOL    HW112023   3.378   1.492   4.514
 3781SOL    HW212024   3.350   1.517   4.367
 3782SOL     OW12025   2.993   0.698   4.425
 3782SOL    HW112026   3.042   0.780   4.411
 3782SOL    HW212027   2.946   0.712   4.507
 3783SOL     OW12028   3.620   0.621   3.953
 3783SOL    HW112029   3.604   0.610   3.859
 3783SOL    HW212030   3.607   0.534   3.990
 3784SOL     OW12031   2.619   1.143   4.764
 3784SOL    HW112032   2.550   1.177   4.820
 3784SOL    HW212033   2.654   1.220   4.719
 3785SOL     OW12034   2.728   0.776   5.546
 3785SOL    HW112035   2.712   0.848   5.608
 3785SOL    HW212036   2.751   0.819   5.464
 3786SOL     OW12037   2.548   1.004   4.371
 3786SOL    HW112038   2.613   0.992   4.441
 3786SOL    HW212039   2.478   1.055   4.412
 3787SOL     OW12040   2.573   1.151   5.536
 3787SOL    HW112041   2.620   1.230   5.562
 3787SOL    HW212042   2.490   1.183   5.501
 3788SOL     OW12043   2.194   1.423   4.793
 3788SOL    HW112044   2.119   1.390   4.743
 3788SOL    HW212045   2.243   1.475   4.729
 3789SOL     OW12046   3.323   1.500   5.077
 3789SOL    HW112047   3.372   1.581   5.087
 3789SOL    HW212048   3.262   1.499   5.152
 3790SOL     OW12049   2.304   0.396   5.219
 3790SOL    HW112050   2.392   0.359   5.217
 3790SOL    HW212051   2.246   0.321   5.226
 3791SOL     OW12052   3.473   0.450   4.460
 3791SOL    HW112053   3.402   0.483   4.406
 3791SOL    HW212054   3.499   0.526   4.514
 3792SOL     OW12055   2.094   1.701   4.189
 3792SOL    HW112056   2.125   1.768   4.249
 3792SOL    HW212057   2.164   1.691   4.125
 3793SOL     OW12058   2.998   1.341   5.415
 3793SOL    HW112059   3.038   1.338   5.502
 3793SOL    HW212060   2.946   1.261   5.410
 3794SOL     OW12061   2.089   1.436   4.259
 3794SOL    HW112062   2.077   1.531   4.257
 3794SOL    HW212063   2.027   1.405   4.325
 3795SOL     OW12064   2.118   1.090   4.614
 3795SOL    HW112065   2.115   1.003   4.656
 3795SOL    HW212066   2.061   1.144   4.668
 3796SOL     OW12067   2.474   1.792   5.153
 3796SOL    HW112068   2.393   1.774   5.201
 3796SOL    HW212069   2.499   1.880   5.180
 3797SOL     OW12070   2.449   0.981   3.858
 3797SOL    HW112071   2.494   1.031   3.789
 3797SOL    HW212072   2.488   1.012   3.939
 3798SOL     OW12073   3.442   0.137   5.182
 3798SOL    HW112074   3.463   0.211   5.125
 3798SOL    HW212075   3.414   0.177   5.264
 3799SOL     OW12076   1.976   0.654   4.283
 3799SOL    HW112077   1.950   0.565   4.307
 3799SOL    HW212078   1.969   0.703   4.365
 3800SOL     OW12079   3.701   1.758   4.060
 3800SOL    HW112080   3.767   1.733   4.125
 3800SOL    HW212081   3.722   1.848   4.038
 3801SOL     OW12082   1.866   1.600   3.870
 3801SOL    HW112083   1.860   1.504   3.862
 3801SOL    HW212084   1.876   1.616   3.964
 3802SOL     OW12085   3.548   0.917   4.365
 3802SOL    HW112086   3.634   0.876   4.350
 3802SOL    HW212087   3.532   0.968   4.285
 3803SOL     OW12088   3.504   1.107   4.155
 3803SOL    HW112089   3.588   1.114   4.111
 3803SOL    HW212090   3.510   1.168   4.228
 3804SOL     OW12091   1.984   0.748   5.307
 3804SOL    HW112092   2.076   0.774   5.316
 3804SOL    HW212093   1.935   0.830   5.316
 3805SOL     OW12094   2.475   1.384   4.458
 3805SOL    HW112095   2.429   1.301   4.468
 3805SOL    HW212096   2.458   1.411   4.368
 3806SOL     OW12097   3.151   1.238   5.148
 3806SOL    HW112098   3.184   1.172   5.087
 3806SOL    HW212099   3.208   1.232   5.224
 3807SOL     OW12100   2.679   0.002   4.239
 3807SOL    HW112101   2.724   0.083   4.216
 3807SOL    HW212102   2.586   0.026   4.241
 3808SOL     OW12103   2.052   0.966   4.995
 3808SOL    HW112104   2.137   0.924   4.980
 3808SOL    HW212105   1.990   0.911   4.948
 3809SOL     OW12106   3.392   0.993   3.922
 3809SOL    HW112107   3.322   0.936   3.955
 3809SOL    HW212108   3.433   1.028   4.001
 3810SOL     OW12109   3.049   1.806   5.345
 3810SOL    HW112110   3.060   1.863   5.269
 3810SOL    HW212111   3.064   1.718   5.310
 3811SOL     OW12112   2.214   0.255   5.546
 3811SOL    HW112113   2.258   0.340   5.546
 3811SOL    HW212114   2.121   0.276   5.558
 3812SOL     OW12115   3.328   1.420   4.676
 3812SOL    HW112116   3.260   1.435   4.742
 3812SOL    HW212117   3.316   1.329   4.649
 3813SOL     OW12118   3.519   1.738   4.303
 3813SOL    HW112119   3.501   1.708   4.214
 3813SOL    HW212120   3.496   1.664   4.359
 3814SOL     OW12121   2.457   0.722   3.989
 3814SOL    HW112122   2.464   0.803   3.939
 3814SOL    HW212123   2.393   0.741   4.057
 3815SOL     OW12124   3.138   0.364   4.664
 3815SOL    HW112125   3.051   0.324   4.670
 3815SOL    HW212126   3.195   0.302   4.710
 3816SOL     OW12127   3.441   1.669   4.033
 3816SOL    HW112128   3.531   1.702   4.028
 3816SOL    HW212129   3.416   1.653   3.942
 3817SOL     OW12130   2.658   0.616   5.178
 3817SOL    HW112131   2.629   0.592   5.266
 3817SOL    HW212132   2.616   0.551   5.120
 3818SOL     OW12133   3.255   0.476   5.401
 3818SOL    HW112134   3.258   0.521   5.486
 3818SOL    HW212135   3.315   0.402   5.410
 3819SOL     OW12136   2.817   0.888   5.306
 3819SOL    HW112137   2.872   0.818   5.271
 3819SOL    HW212138   2.770   0.922   5.230
 3820SOL     OW12139   2.853   0.403   4.965
 3820SOL    HW112140   2.771   0.429   5.007
 3820SOL    HW212141   2.827   0.372   4.878
 3821SOL     OW12142   2.913   0.699   4.150
 3821SOL    HW112143   2.927   0.692   4.244
 3821SOL    HW212144   2.830   0.652   4.135
 3822SOL     OW12145   1.950   0.822   4.500
 3822SOL    HW112146   2.031   0.813   4.551
 3822SOL    HW212147   1.908   0.900   4.535
 3823SOL     OW12148   2.754   0.350   3.923
 3823SOL    HW112149   2.796   0.409   3.860
 3823SOL    HW212150   2.753   0.265   3.880
 3824SOL     OW12151   3.573   0.575   5.553
 3824SOL    HW112152   3.535   0.651   5.508
 3824SOL    HW212153   3.596   0.514   5.483
 3825SOL     OW12154   3.237   1.141   4.265
 3825SOL    HW112155   3.317   1.129   4.214
 3825SOL    HW212156   3.185   1.204   4.215
 3826SOL     OW12157   2.417   0.198   4.606
 3826SOL    HW112158   2.421   0.215   4.700
 3826SOL    HW212159   2.415   0.284   4.565
 3827SOL     OW12160   2.869   1.444   4.197
 3827SOL    HW112161   2.830   1.516   4.147
 3827SOL    HW212162   2.851   1.467   4.288
 3828SOL     OW12163   2.219   1.800   4.588
 3828SOL    HW112164   2.255   1.713   4.600
 3828SOL    HW212165   2.289   1.859   4.614
 3829SOL     OW12166   3.665   1.062   4.590
 3829SOL    HW112167   3.609   1.041   4.515
 3829SOL    HW212168   3.605   1.066   4.664
 3830SOL     OW12169   3.090   1.539   5.236
 3830SOL    HW112170   3.076   1.466   5.298
 3830SOL    HW212171   3.027   1.524   5.166
 3831SOL     OW12172   2.183   0.958   3.973
 3831SOL    HW112173   2.265   0.976   3.928
 3831SOL    HW212174   2.152   0.875   3.935
 3832SOL     OW12175   3.340   0.741   4.454
 3832SOL    HW112176   3.331   0.699   4.539
 3832SOL    HW212177   3.416   0.798   4.462
 3833SOL     OW12178   2.329   1.262   5.462
 3833SOL    HW112179   2.300   1.268   5.371
 3833SOL    HW212180   2.249   1.260   5.513
 3834SOL     OW12181   2.983   1.778   3.955
 3834SOL    HW112182   2.911   1.735   4.001
 3834SOL    HW212183   3.006   1.717   3.885
 3835SOL     OW12184   2.037   0.277   5.221
 3835SOL    HW112185   1.976   0.350   5.217
 3835SOL    HW212186   2.045   0.258   5.315
 3836SOL     OW12187   3.489   1.381   3.811
 3836SOL    HW112188   3.447   1.466   3.796
 3836SOL    HW212189   3.421   1.317   3.792
 3837SOL     OW12190   2.336   1.718   4.059
 3837SOL    HW112191   2.375   1.791   4.107
 3837SOL    HW212192   2.394   1.706   3.984
 3838SOL     OW12193   3.296   0.163   4.126
 3838SOL    HW112194   3.256   0.092   4.076
 3838SOL    HW212195   3.374   0.122   4.166
 3839SOL     OW12196   2.154   1.767   4.949
 3839SOL    HW112197   2.194   1.687   4.983
 3839SOL    HW212198   2.116   1.741   4.864
 3840SOL     OW12199   2.799   1.698   4.624
 3840SOL    HW112200   2.877   1.647   4.645
 3840SOL    HW212201   2.755   1.649   4.554
 3841SOL     OW12202   2.254   0.695   4.200
 3841SOL    HW112203   2.275   0.603   4.211
 3841SOL    HW212204   2.160   0.701   4.219
 3842SOL     OW12205   3.394   0.232   5.451
 3842SOL    HW112206   3.391   0.256   5.543
 3842SOL    HW212207   3.363   0.141   5.449
 3843SOL     OW12208   2.503   0.136   3.830
 3843SOL    HW112209   2.537   0.056   3.870
 3843SOL    HW212210   2.440   0.105   3.764
 3844SOL     OW12211   2.640   0.281   5.488
 3844SOL    HW112212   2.703   0.210   5.494
 3844SOL    HW212213   2.578   0.264   5.559
 3845SOL     OW12214   2.738   1.521   4.917
 3845SOL    HW112215   2.723   1.485   4.830
 3845SOL    HW212216   2.808   1.467   4.954
 3846SOL     OW12217   3.204   0.587   5.154
 3846SOL    HW112218   3.234   0.558   5.241
 3846SOL    HW212219   3.237   0.676   5.145
 3847SOL     OW12220   2.676   1.396   4.662
 3847SOL    HW112221   2.761   1.385   4.618
 3847SOL    HW212222   2.612   1.396   4.591
 3848SOL     OW12223   2.791   0.510   4.626
 3848SOL    HW112224   2.767   0.503   4.534
 3848SOL    HW212225   2.819   0.422   4.651
 3849SOL     OW12226   2.408   0.058   4.217
 3849SOL    HW112227   2.333   0.062   4.276
 3849SOL    HW212228   2.403   0.138   4.166
 3850SOL     OW12229   3.290   1.198   3.765
 3850SOL    HW112230   3.320   1.123   3.815
 3850SOL    HW212231   3.204   1.219   3.803
 3851SOL     OW12232   2.187   0.042   3.932
 3851SOL    HW112233   2.203   0.112   3.868
 3851SOL    HW212234   2.272   0.031   3.976
 3852SOL     OW12235   2.800   0.247   4.187
 3852SOL    HW112236   2.775   0.289   4.105
 3852SOL    HW212237   2.896   0.249   4.186
 3853SOL     OW12238   2.942   0.681   5.184
 3853SOL    HW112239   2.870   0.618   5.190
 3853SOL    HW212240   3.021   0.627   5.178
 3854SOL     OW12241   3.086   1.570   4.518
 3854SOL    HW112242   3.103   1.637   4.452
 3854SOL    HW212243   3.154   1.583   4.583
 3855SOL     OW12244   2.331   1.149   4.459
 3855SOL    HW112245   2.261   1.130   4.521
 3855SOL    HW212246   2.291   1.132   4.373
 3856SOL     OW12247   3.132   1.794   4.331
 3856SOL    HW112248   3.178   1.855   4.274
 3856SOL    HW212249   3.066   1.848   4.375
 3857SOL     OW12250   2.886   0.547   3.747
 3857SOL    HW112251   2.842   0.629   3.728
 3857SOL    HW212252   2.949   0.568   3.816
 3858SOL     OW12253   1.940   0.552   5.119
 3858SOL    HW112254   2.031   0.552   5.090
 3858SOL    HW212255   1.935   0.625   5.181
 3859SOL     OW12256   2.427   0.232   4.885
 3859SOL    HW112257   2.453   0.140   4.896
 3859SOL    HW212258   2.337   0.236   4.916
 3860SOL     OW12259   2.732   0.461   4.363
 3860SOL    HW112260   2.684   0.514   4.300
 3860SOL    HW212261   2.752   0.380   4.316
 3861SOL     OW12262   2.856   0.042   4.503
 3861SOL    HW112263   2.823   0.066   4.416
 3861SOL    HW212264   2.867   3.947   4.499
 3862SOL     OW12265   3.299   1.163   4.582
 3862SOL    HW112266   3.230   1.097   4.580
 3862SOL    HW212267   3.324   1.175   4.490
 3863SOL     OW12268   3.328   0.605   4.703
 3863SOL    HW112269   3.278   0.523   4.708
 3863SOL    HW212270   3.389   0.600   4.776
 3864SOL     OW12271   3.722   0.823   4.099
 3864SOL    HW112272   3.764   0.766   4.163
 3864SOL    HW212273   3.682   0.763   4.036
 3865SOL     OW12274   2.354   1.417   3.881
 3865SOL    HW112275   2.280   1.389   3.935
 3865SOL    HW212276   2.336   1.381   3.794
 3866SOL     OW12277   3.528   1.265   4.371
 3866SOL    HW112278   3.623   1.270   4.380
 3866SOL    HW212279   3.497   1.353   4.392
 3867SOL     OW12280   3.256   0.573   3.794
 3867SOL    HW112281   3.194   0.555   3.864
 3867SOL    HW212282   3.342   0.555   3.833
 3868SOL     OW12283   2.389   0.266   4.042
 3868SOL    HW112284   2.440   0.225   3.972
 3868SOL    HW212285   2.363   0.351   4.007
 3869SOL     OW12286   3.614   1.234   5.296
 3869SOL    HW112287   3.702   1.199   5.279
 3869SOL    HW212288   3.630   1.323   5.328
 3870SOL     OW12289   2.921   1.353   5.058
 3870SOL    HW112290   2.846   1.322   5.109
 3870SOL    HW212291   2.997   1.312   5.099
 3871SOL     OW12292   3.467   1.627   5.377
 3871SOL    HW112293   3.461   1.661   5.288
 3871SOL    HW212294   3.549   1.577   5.379
 3872SOL     OW12295   2.990   1.202   4.830
 3872SOL    HW112296   2.931   1.241   4.895
 3872SOL    HW212297   2.957   1.235   4.746
 3873SOL     OW12298   3.493   1.098   4.801
 3873SOL    HW112299   3.486   1.160   4.874
 3873SOL    HW212300   3.414   1.114   4.749
 3874SOL     OW12301   2.775   0.112   5.126
 3874SOL    HW112302   2.795   0.087   5.036
 3874SOL    HW212303   2.855   0.154   5.157
 3875SOL     OW12304   2.846   1.114   5.448
 3875SOL    HW112305   2.754   1.131   5.468
 3875SOL    HW212306   2.845   1.037   5.391
 3876SOL     OW12307   2.570   1.061   4.095
 3876SOL    HW112308   2.556   1.045   4.189
 3876SOL    HW212309   2.646   1.007   4.073
 3877SOL     OW12310   2.280   0.814   4.975
 3877SOL    HW112311   2.349   0.823   5.041
 3877SOL    HW212312   2.245   0.726   4.989
 3878SOL     OW12313   3.129   0.375   4.999
 3878SOL    HW112314   3.163   0.453   5.043
 3878SOL    HW212315   3.042   0.402   4.968
 3879SOL     OW12316   1.933   1.577   5.076
 3879SOL    HW112317   1.898   1.642   5.016
 3879SOL    HW212318   2.028   1.581   5.063
 3880SOL     OW12319   2.213   1.108   4.215
 3880SOL    HW112320   2.217   1.182   4.155
 3880SOL    HW212321   2.210   1.031   4.158
 3881SOL     OW12322   2.418   0.536   4.582
 3881SOL    HW112323   2.433   0.595   4.509
 3881SOL    HW212324   2.481   0.564   4.649
 3882SOL     OW12325   3.110   1.348   4.113
 3882SOL    HW112326   3.166   1.420   4.144
 3882SOL    HW212327   3.023   1.369   4.147
 3883SOL     OW12328   3.142   1.457   4.871
 3883SOL    HW112329   3.197   1.460   4.948
 3883SOL    HW212330   3.086   1.380   4.884
 3884SOL     OW12331   3.437   0.631   4.206
 3884SOL    HW112332   3.398   0.690   4.270
 3884SOL    HW212333   3.486   0.688   4.147
 3885SOL     OW12334   2.214   1.516   5.042
 3885SOL    HW112335   2.200   1.475   4.957
 3885SOL    HW212336   2.309   1.528   5.047
 3886SOL     OW12337   2.277   0.743   5.324
 3886SOL    HW112338   2.338   0.789   5.266
 3886SOL    HW212339   2.319   0.658   5.340
 3887SOL     OW12340   3.462   0.776   5.404
 3887SOL    HW112341   3.376   0.818   5.397
 3887SOL    HW212342   3.515   0.819   5.336
 3888SOL     OW12343   2.884   0.121   5.502
 3888SOL    HW112344   2.919   0.200   5.460
 3888SOL    HW212345   2.867   0.061   5.430
 3889SOL     OW12346   2.347   0.034   5.488
 3889SOL    HW112347   2.354   0.040   5.392
 3889SOL    HW212348   2.289   0.106   5.512
 3890SOL     OW12349   2.445   0.873   4.755
 3890SOL    HW112350   2.474   0.964   4.754
 3890SOL    HW212351   2.388   0.867   4.832
 3891SOL     OW12352   3.220   0.859   4.755
 3891SOL    HW112353   3.138   0.850   4.707
 3891SOL    HW212354   3.260   0.772   4.749
 3892SOL     OW12355   3.067   0.535   3.987
 3892SOL    HW112356   3.074   0.455   4.040
 3892SOL    HW212357   3.023   0.598   4.044
 3893SOL     OW12358   2.164   0.212   4.966
 3893SOL    HW112359   2.125   0.241   5.048
 3893SOL    HW212360   2.151   0.117   4.965
 3894SOL     OW12361   1.906   1.313   5.003
 3894SOL    HW112362   1.941   1.258   5.073
 3894SOL    HW212363   1.915   1.402   5.035
 3895SOL     OW12364   2.587   0.633   4.780
 3895SOL    HW112365   2.661   0.617   4.721
 3895SOL    HW212366   2.558   0.722   4.759
 3896SOL     OW12367   3.596   0.956   5.583
 3896SOL    HW112368   3.549   0.903   5.518
 3896SOL    HW212369   3.532   0.970   5.652
 3897SOL     OW12370   2.183   0.057   4.370
 3897SOL    HW112371   2.162   0.150   4.382
 3897SOL    HW212372   2.143   0.014   4.445
 3898SOL     OW12373   3.469   0.387   4.105
 3898SOL    HW112374   3.442   0.319   4.166
 3898SOL    HW212375   3.447   0.469   4.149
 3899SOL     OW12376   2.890   0.759   4.684
 3899SOL    HW112377   2.887   0.777   4.779
 3899SOL    HW212378   2.863   0.668   4.676
 3900SOL     OW12379   2.845   1.567   5.439
 3900SOL    HW112380   2.830   1.611   5.356
 3900SOL    HW212381   2.887   1.484   5.416
 3901SOL     OW12382   3.708   1.504   5.325
 3901SOL    HW112383   3.729   1.531   5.235
 3901SOL    HW212384   3.789   1.519   5.374
 3902SOL     OW12385   2.214   0.915   5.528
 3902SOL    HW112386   2.294   0.934   5.577
 3902SOL    HW212387   2.242   0.853   5.461
 3903SOL     OW12388   3.369   0.276   3.860
 3903SOL    HW112389   3.294   0.218   3.872
 3903SOL    HW212390   3.383   0.315   3.946
 3904SOL     OW12391   3.154   0.827   3.755
 3904SOL    HW112392   3.196   0.741   3.758
 3904SOL    HW212393   3.186   0.866   3.674
 3905SOL     OW12394   2.927   1.335   4.578
 3905SOL    HW112395   2.930   1.263   4.515
 3905SOL    HW212396   2.989   1.400   4.543
 3906SOL     OW12397   2.171   0.809   4.672
 3906SOL    HW112398   2.264   0.831   4.665
 3906SOL    HW212399   2.169   0.719   4.704
 3907SOL     OW12400   2.199   0.533   4.737
 3907SOL    HW112401   2.158   0.448   4.721
 3907SOL    HW212402   2.275   0.534   4.678
 3908SOL     OW12403   2.995   0.383   5.416
 3908SOL    HW112404   2.948   0.438   5.478
 3908SOL    HW212405   3.082   0.422   5.411
 3909SOL     OW12406   3.013   0.225   5.205
 3909SOL    HW112407   3.005   0.279   5.283
 3909SOL    HW212408   3.035   0.286   5.135
 3910SOL     OW12409   1.866   1.320   3.918
 3910SOL    HW112410   1.778   1.332   3.881
 3910SOL    HW212411   1.865   1.231   3.952
 3911SOL     OW12412   1.975   1.723   4.704
 3911SOL    HW112413   1.935   1.667   4.638
 3911SOL    HW212414   2.038   1.776   4.656
 3912SOL     OW12415   2.362   1.570   4.633
 3912SOL    HW112416   2.430   1.633   4.655
 3912SOL    HW212417   2.405   1.507   4.574
 3913SOL     OW12418   2.847   0.791   4.950
 3913SOL    HW112419   2.900   0.769   5.026
 3913SOL    HW212420   2.760   0.757   4.972
 3914SOL     OW12421   1.896   0.545   4.841
 3914SOL    HW112422   1.972   0.520   4.789
 3914SOL    HW212423   1.928   0.548   4.931
 3915SOL     OW12424   2.064   0.526   5.438
 3915SOL    HW112425   2.131   0.503   5.374
 3915SOL    HW212426   2.017   0.600   5.399
 3916SOL     OW12427   3.240   0.939   5.383
 3916SOL    HW112428   3.260   1.033   5.382
 3916SOL    HW212429   3.236   0.914   5.291
 3917SOL     OW12430   2.678   0.571   4.083
 3917SOL    HW112431   2.683   0.495   4.025
 3917SOL    HW212432   2.603   0.622   4.051
 3918SOL     OW12433   3.503   0.602   4.911
 3918SOL    HW112434   3.492   0.541   4.984
 3918SOL    HW212435   3.589   0.580   4.874
 3919SOL     OW12436   2.117   1.536   5.434
 3919SOL    HW112437   2.099   1.609   5.493
 3919SOL    HW212438   2.117   1.459   5.491
 3920SOL     OW12439   2.561   0.456   4.985
 3920SOL    HW112440   2.514   0.378   4.957
 3920SOL    HW212441   2.556   0.515   4.909
 3921SOL     OW12442   2.791   1.679   5.190
 3921SOL    HW112443   2.764   1.646   5.105
 3921SOL    HW212444   2.787   1.774   5.182
 3922SOL     OW12445   2.327   0.494   3.910
 3922SOL    HW112446   2.385   0.567   3.932
 3922SOL    HW212447   2.241   0.534   3.898
 3923SOL     OW12448   2.008   1.140   5.195
 3923SOL    HW112449   2.011   1.088   5.276
 3923SOL    HW212450   2.025   1.077   5.125
 3924SOL     OW12451   3.188   1.047   4.948
 3924SOL    HW112452   3.212   0.984   4.880
 3924SOL    HW212453   3.117   1.099   4.909
 3925SOL     OW12454   3.173   0.855   4.030
 3925SOL    HW112455   3.096   0.827   4.081
 3925SOL    HW212456   3.147   0.843   3.939
 3926SOL     OW12457   3.637   1.745   4.877
 3926SOL    HW112458   3.693   1.772   4.804
 3926SOL    HW212459   3.610   1.656   4.855
 3927SOL     OW12460   3.103   1.733   4.838
 3927SOL    HW112461   3.185   1.753   4.792
 3927SOL    HW212462   3.108   1.639   4.856
 3928SOL     OW12463   1.948   1.264   4.739
 3928SOL    HW112464   1.932   1.278   4.832
 3928SOL    HW212465   1.872   1.212   4.709
 3929SOL     OW12466   2.538   1.662   5.447
 3929SOL    HW112467   2.492   1.746   5.452
 3929SOL    HW212468   2.606   1.676   5.382
 3930SOL     OW12469   3.555   0.123   4.211
 3930SOL    HW112470   3.637   0.135   4.163
 3930SOL    HW212471   3.554   0.030   4.234
 3931SOL     OW12472   3.252   1.567   4.208
 3931SOL    HW112473   3.312   1.599   4.142
 3931SOL    HW212474   3.204   1.645   4.237
 3932SOL     OW12475   2.039   1.745   5.575
 3932SOL    HW112476   1.979   1.693   5.629
 3932SOL    HW212477   2.013   1.836   5.591
 3933SOL     OW12478   3.139   0.925   4.394
 3933SOL    HW112479   3.213   0.865   4.402
 3933SOL    HW212480   3.173   0.998   4.343
 3934SOL     OW12481   2.677   1.272   5.154
 3934SOL    HW112482   2.650   1.312   5.237
 3934SOL    HW212483   2.607   1.295   5.093
 3935SOL     OW12484   2.536   1.619   3.875
 3935SOL    HW112485   2.544   1.627   3.781
 3935SOL    HW212486   2.481   1.541   3.888
 3936SOL     OW12487   3.488   1.727   5.115
 3936SOL    HW112488   3.540   1.733   5.035
 3936SOL    HW212489   3.475   1.817   5.143
 3937SOL     OW12490   3.702   0.180   4.694
 3937SOL    HW112491   3.727   0.096   4.655
 3937SOL    HW212492   3.615   0.198   4.658
 3938SOL     OW12493   2.127   0.318   4.440
 3938SOL    HW112494   2.041   0.353   4.418
 3938SOL    HW212495   2.125   0.307   4.535
 3939SOL     OW12496   3.069   1.606   3.755
 3939SOL    HW112497   3.060   1.515   3.782
 3939SOL    HW212498   3.003   1.617   3.686
 3940SOL     OW12499   2.687   1.006   5.096
 3940SOL    HW112500   2.728   1.003   5.009
 3940SOL    HW212501   2.686   1.098   5.119
 3941SOL     OW12502   2.777   0.910   4.013
 3941SOL    HW112503   2.839   0.942   3.948
 3941SOL    HW212504   2.825   0.840   4.059
 3942SOL     OW12505   3.354   1.626   3.766
 3942SOL    HW112506   3.259   1.619   3.753
 3942SOL    HW212507   3.390   1.632   3.678
 3943SOL     OW12508   2.231   1.298   5.217
 3943SOL    HW112509   2.219   1.377   5.164
 3943SOL    HW212510   2.154   1.245   5.199
 3944SOL     OW12511   3.466   1.280   5.003
 3944SOL    HW112512   3.533   1.275   5.071
 3944SOL    HW212513   3.409   1.351   5.032
 3945SOL     OW12514   2.913   1.107   4.430
 3945SOL    HW112515   2.842   1.056   4.469
 3945SOL    HW212516   2.975   1.041   4.398
 3946SOL     OW12517   2.877   0.247   4.692
 3946SOL    HW112518   2.866   0.197   4.611
 3946SOL    HW212519   2.870   0.182   4.761
 3947SOL     OW12520   2.463   1.489   4.206
 3947SOL    HW112521   2.504   1.440   4.135
 3947SOL    HW212522   2.401   1.548   4.162
 3948SOL     OW12523   3.581   0.392   5.098
 3948SOL    HW112524   3.652   0.456   5.097
 3948SOL    HW212525   3.613   0.320   5.043
 3949SOL     OW12526   2.120   1.346   4.010
 3949SOL    HW112527   2.027   1.343   3.990
 3949SOL    HW212528   2.124   1.381   4.099
 3950SOL     OW12529   1.975   1.023   5.444
 3950SOL    HW112530   1.899   1.000   5.497
 3950SOL    HW212531   2.049   0.984   5.490
 3951SOL     OW12532   2.553   0.243   5.222
 3951SOL    HW112533   2.623   0.192   5.181
 3951SOL    HW212534   2.579   0.251   5.313
 3952SOL     OW12535   1.959   0.319   3.713
 3952SOL    HW112536   1.883   0.336   3.768
 3952SOL    HW212537   1.975   0.401   3.667
 3953SOL     OW12538   3.291   0.857   5.124
 3953SOL    HW112539   3.241   0.919   5.070
 3953SOL    HW212540   3.380   0.860   5.089
 3954SOL     OW12541   1.945   0.154   4.065
 3954SOL    HW112542   1.914   0.217   3.999
 3954SOL    HW212543   2.029   0.124   4.031
 3955SOL     OW12544   3.041   1.340   3.841
 3955SOL    HW112545   2.950   1.310   3.844
 3955SOL    HW212546   3.069   1.340   3.933
 3956SOL     OW12547   2.482   0.829   5.157
 3956SOL    HW112548   2.537   0.906   5.142
 3956SOL    HW212549   2.543   0.757   5.166
 3957SOL     OW12550   3.346   1.777   4.701
 3957SOL    HW112551   3.370   1.835   4.630
 3957SOL    HW212552   3.428   1.756   4.745
 3958SOL     OW12553   2.579   0.563   5.430
 3958SOL    HW112554   2.618   0.627   5.490
 3958SOL    HW212555   2.611   0.478   5.461
 3959SOL     OW12556   3.333   1.200   5.356
 3959SOL    HW112557   3.321   1.215   5.450
 3959SOL    HW212558   3.426   1.215   5.341
 3960SOL     OW12559   2.239   1.743   5.292
 3960SOL    HW112560   2.158   1.763   5.247
 3960SOL    HW212561   2.223   1.658   5.334
 3961SOL     OW12562   3.529   0.881   4.983
 3961SOL    HW112563   3.527   0.796   4.939
 3961SOL    HW212564   3.523   0.945   4.912
 3962SOL     OW12565   3.085   0.334   4.170
 3962SOL    HW112566   3.152   0.266   4.161
 3962SOL    HW212567   3.107   0.379   4.251
 3963SOL     OW12568   2.453   0.738   4.392
 3963SOL    HW112569   2.491   0.825   4.377
 3963SOL    HW212570   2.384   0.731   4.327
 3964SOL     OW12571   3.619   0.379   5.366
 3964SOL    HW112572   3.598   0.386   5.273
 3964SOL    HW212573   3.559   0.312   5.399
 3965SOL     OW12574   3.613   0.932   5.238
 3965SOL    HW112575   3.608   1.026   5.253
 3965SOL    HW212576   3.592   0.921   5.146
 3966SOL     OW12577   2.723   1.368   3.756
 3966SOL    HW112578   2.686   1.393   3.841
 3966SOL    HW212579   2.743   1.450   3.712
 3967SOL     OW12580   2.522   1.795   4.669
 3967SOL    HW112581   2.505   1.885   4.642
 3967SOL    HW212582   2.616   1.784   4.661
 3968SOL     OW12583   2.729   0.966   4.579
 3968SOL    HW112584   2.779   0.896   4.619
 3968SOL    HW212585   2.695   1.016   4.654
 3969SOL     OW12586   2.941   0.988   3.813
 3969SOL    HW112587   2.919   1.039   3.735
 3969SOL    HW212588   3.016   0.935   3.786
 3970SOL     OW12589   3.718   1.556   4.566
 3970SOL    HW112590   3.639   1.541   4.514
 3970SOL    HW212591   3.714   1.490   4.635
 3971SOL     OW12592   2.089   1.299   5.583
 3971SOL    HW112593   2.043   1.232   5.532
 3971SOL    HW212594   2.029   1.320   5.654
 3972SOL     OW12595   1.943   1.228   4.387
 3972SOL    HW112596   1.952   1.183   4.471
 3972SOL    HW212597   2.016   1.196   4.334
 3973SOL     OW12598   2.542   1.402   5.350
 3973SOL    HW112599   2.463   1.358   5.383
 3973SOL    HW212600   2.538   1.490   5.387
 3974SOL     OW12601   3.677   0.182   4.968
 3974SOL    HW112602   3.679   0.087   4.976
 3974SOL    HW212603   3.693   0.199   4.875
 3975SOL     OW12604   2.290   0.434   4.248
 3975SOL    HW112605   2.322   0.362   4.194
 3975SOL    HW212606   2.244   0.392   4.321
 3976SOL     OW12607   3.561   1.491   4.823
 3976SOL    HW112608   3.481   1.467   4.776
 3976SOL    HW212609   3.575   1.421   4.887
 3977SOL     OW12610   2.190   0.554   5.016
 3977SOL    HW112611   2.244   0.497   5.071
 3977SOL    HW212612   2.210   0.528   4.926
 3978SOL     OW12613   2.689   1.577   4.403
 3978SOL    HW112614   2.679   1.630   4.324
 3978SOL    HW212615   2.611   1.521   4.404
 3979SOL     OW12616   3.323   0.251   4.835
 3979SOL    HW112617   3.337   0.163   4.871
 3979SOL    HW212618   3.266   0.293   4.899
 3980SOL     OW12619   2.868   0.029   4.871
 3980SOL    HW112620   2.792   3.980   4.841
 3980SOL    HW212621   2.937   3.964   4.879
 3981SOL     OW12622   2.635   1.332   4.036
 3981SOL    HW112623   2.602   1.242   4.043
 3981SOL    HW212624   2.716   1.332   4.087
 3982SOL     OW12625   2.482   1.556   5.009
 3982SOL    HW112626   2.484   1.639   5.058
 3982SOL    HW212627   2.570   1.549   4.971
 3983SOL     OW12628   3.177   0.072   3.884
 3983SOL    HW112629   3.191   4.000   3.823
 3983SOL    HW212630   3.092   0.054   3.924
 3984SOL     OW12631   3.147   0.457   4.411
 3984SOL    HW112632   3.099   0.540   4.408
 3984SOL    HW212633   3.151   0.436   4.504
 3985SOL     OW12634   3.452   0.211   4.591
 3985SOL    HW112635   3.402   0.233   4.670
 3985SOL    HW212636   3.451   0.291   4.539
 3986SOL     OW12637   1.906   1.072   4.028
 3986SOL    HW112638   2.000   1.064   4.013
 3986SOL    HW212639   1.878   0.984   4.053
 3987SOL     OW12640   2.747   1.650   4.065
 3987SOL    HW112641   2.673   1.635   4.006
 3987SOL    HW212642   2.720   1.726   4.118
 3988SOL     OW12643   2.093   0.620   5.707
 3988SOL    HW112644   2.003   0.627   5.738
 3988SOL    HW212645   2.085   0.600   5.614
 3989SOL     OW12646   2.079   0.297   6.576
 3989SOL    HW112647   2.116   0.256   6.654
 3989SOL    HW212648   1.995   0.252   6.563
 3990SOL     OW12649   1.872   0.394   6.223
 3990SOL    HW112650   1.784   0.409   6.258
 3990SOL    HW212651   1.859   0.323   6.159
 3991SOL     OW12652   2.434   1.277   6.807
 3991SOL    HW112653   2.357   1.245   6.761
 3991SOL    HW212654   2.433   1.372   6.793
 3992SOL     OW12655   3.419   1.511   6.292
 3992SOL    HW112656   3.376   1.494   6.376
 3992SOL    HW212657   3.347   1.517   6.229
 3993SOL     OW12658   2.993   0.698   6.287
 3993SOL    HW112659   3.042   0.779   6.273
 3993SOL    HW212660   2.946   0.712   6.370
 3994SOL     OW12661   3.619   0.621   5.815
 3994SOL    HW112662   3.604   0.610   5.721
 3994SOL    HW212663   3.607   0.533   5.852
 3995SOL     OW12664   2.729   0.774   7.409
 3995SOL    HW112665   2.723   0.845   7.473
 3995SOL    HW212666   2.753   0.817   7.327
 3996SOL     OW12667   2.542   1.008   6.238
 3996SOL    HW112668   2.608   0.995   6.306
 3996SOL    HW212669   2.480   1.070   6.277
 3997SOL     OW12670   3.322   1.499   6.941
 3997SOL    HW112671   3.372   1.581   6.949
 3997SOL    HW212672   3.262   1.500   7.015
 3998SOL     OW12673   2.305   0.397   7.082
 3998SOL    HW112674   2.392   0.357   7.079
 3998SOL    HW212675   2.245   0.322   7.088
 3999SOL     OW12676   3.473   0.450   6.323
 3999SOL    HW112677   3.402   0.483   6.267
 3999SOL    HW212678   3.500   0.526   6.375
 4000SOL     OW12679   2.095   1.717   6.052
 4000SOL    HW112680   2.135   1.765   6.125
 4000SOL    HW212681   2.167   1.698   5.993
 4001SOL     OW12682   2.997   1.346   7.282
 4001SOL    HW112683   3.040   1.340   7.368
 4001SOL    HW212684   2.953   1.262   7.271
 4002SOL     OW12685   2.121   1.068   6.501
 4002SOL    HW112686   2.123   0.974   6.520
 4002SOL    HW212687   2.057   1.104   6.563
 4003SOL     OW12688   2.450   0.980   5.720
 4003SOL    HW112689   2.493   1.030   5.652
 4003SOL    HW212690   2.489   1.011   5.802
 4004SOL     OW12691   3.441   0.137   7.043
 4004SOL    HW112692   3.464   0.210   6.987
 4004SOL    HW212693   3.414   0.177   7.126
 4005SOL     OW12694   1.977   0.654   6.145
 4005SOL    HW112695   1.950   0.565   6.169
 4005SOL    HW212696   1.969   0.704   6.226
 4006SOL     OW12697   3.701   1.758   5.922
 4006SOL    HW112698   3.767   1.733   5.987
 4006SOL    HW212699   3.722   1.849   5.900
 4007SOL     OW12700   1.880   1.589   5.721
 4007SOL    HW112701   1.872   1.494   5.721
 4007SOL    HW212702   1.841   1.617   5.803
 4008SOL     OW12703   3.548   0.915   6.226
 4008SOL    HW112704   3.634   0.876   6.212
 4008SOL    HW212705   3.532   0.968   6.147
 4009SOL     OW12706   3.504   1.107   6.018
 4009SOL    HW112707   3.588   1.114   5.973
 4009SOL    HW212708   3.510   1.169   6.090
 4010SOL     OW12709   1.989   0.750   7.168
 4010SOL    HW112710   2.083   0.765   7.171
 4010SOL    HW212711   1.949   0.834   7.190
 4011SOL     OW12712   3.149   1.231   7.014
 4011SOL    HW112713   3.185   1.168   6.951
 4011SOL    HW212714   3.211   1.229   7.087
 4012SOL     OW12715   2.679   0.002   6.101
 4012SOL    HW112716   2.724   0.084   6.078
 4012SOL    HW212717   2.586   0.026   6.103
 4013SOL     OW12718   2.053   0.965   6.876
 4013SOL    HW112719   2.137   0.927   6.852
 4013SOL    HW212720   1.992   0.929   6.811
 4014SOL     OW12721   3.391   0.993   5.785
 4014SOL    HW112722   3.322   0.936   5.817
 4014SOL    HW212723   3.433   1.028   5.863
 4015SOL     OW12724   3.098   1.782   7.203
 4015SOL    HW112725   3.067   1.850   7.143
 4015SOL    HW212726   3.092   1.701   7.152
 4016SOL     OW12727   2.214   0.255   7.408
 4016SOL    HW112728   2.257   0.340   7.407
 4016SOL    HW212729   2.121   0.276   7.420
 4017SOL     OW12730   3.333   1.417   6.543
 4017SOL    HW112731   3.261   1.434   6.604
 4017SOL    HW212732   3.319   1.327   6.513
 4018SOL     OW12733   3.519   1.738   6.165
 4018SOL    HW112734   3.501   1.708   6.076
 4018SOL    HW212735   3.495   1.664   6.220
 4019SOL     OW12736   2.457   0.723   5.852
 4019SOL    HW112737   2.462   0.804   5.801
 4019SOL    HW212738   2.393   0.741   5.920
 4020SOL     OW12739   3.138   0.364   6.527
 4020SOL    HW112740   3.051   0.324   6.532
 4020SOL    HW212741   3.195   0.302   6.572
 4021SOL     OW12742   3.441   1.669   5.895
 4021SOL    HW112743   3.531   1.702   5.890
 4021SOL    HW212744   3.416   1.653   5.804
 4022SOL     OW12745   2.656   0.617   7.039
 4022SOL    HW112746   2.629   0.592   7.127
 4022SOL    HW212747   2.616   0.552   6.982
 4023SOL     OW12748   3.255   0.477   7.263
 4023SOL    HW112749   3.259   0.521   7.348
 4023SOL    HW212750   3.314   0.402   7.272
 4024SOL     OW12751   2.819   0.885   7.168
 4024SOL    HW112752   2.872   0.814   7.133
 4024SOL    HW212753   2.769   0.918   7.093
 4025SOL     OW12754   2.853   0.405   6.827
 4025SOL    HW112755   2.769   0.428   6.868
 4025SOL    HW212756   2.829   0.371   6.740
 4026SOL     OW12757   2.913   0.698   6.012
 4026SOL    HW112758   2.927   0.690   6.106
 4026SOL    HW212759   2.830   0.652   5.997
 4027SOL     OW12760   1.948   0.821   6.361
 4027SOL    HW112761   2.030   0.813   6.411
 4027SOL    HW212762   1.903   0.895   6.401
 4028SOL     OW12763   2.755   0.350   5.785
 4028SOL    HW112764   2.796   0.409   5.722
 4028SOL    HW212765   2.753   0.265   5.741
 4029SOL     OW12766   3.572   0.575   7.415
 4029SOL    HW112767   3.535   0.651   7.369
 4029SOL    HW212768   3.596   0.514   7.345
 4030SOL     OW12769   3.237   1.140   6.125
 4030SOL    HW112770   3.319   1.127   6.077
 4030SOL    HW212771   3.189   1.204   6.073
 4031SOL     OW12772   2.418   0.197   6.468
 4031SOL    HW112773   2.421   0.216   6.562
 4031SOL    HW212774   2.414   0.284   6.427
 4032SOL     OW12775   2.235   1.802   6.392
 4032SOL    HW112776   2.288   1.725   6.410
 4032SOL    HW212777   2.290   1.876   6.419
 4033SOL     OW12778   3.665   1.062   6.452
 4033SOL    HW112779   3.609   1.042   6.377
 4033SOL    HW212780   3.605   1.065   6.527
 4034SOL     OW12781   3.082   1.529   7.092
 4034SOL    HW112782   3.062   1.465   7.160
 4034SOL    HW212783   3.027   1.504   7.018
 4035SOL     OW12784   2.166   0.962   5.822
 4035SOL    HW112785   2.256   0.981   5.797
 4035SOL    HW212786   2.149   0.875   5.787
 4036SOL     OW12787   3.338   0.742   6.317
 4036SOL    HW112788   3.332   0.699   6.402
 4036SOL    HW212789   3.416   0.798   6.323
 4037SOL     OW12790   2.987   1.775   5.820
 4037SOL    HW112791   2.908   1.739   5.860
 4037SOL    HW212792   3.007   1.715   5.748
 4038SOL     OW12793   2.038   0.278   7.083
 4038SOL    HW112794   1.976   0.350   7.078
 4038SOL    HW212795   2.044   0.258   7.177
 4039SOL     OW12796   3.489   1.381   5.673
 4039SOL    HW112797   3.447   1.466   5.658
 4039SOL    HW212798   3.421   1.317   5.654
 4040SOL     OW12799   2.337   1.718   5.921
 4040SOL    HW112800   2.362   1.791   5.977
 4040SOL    HW212801   2.396   1.725   5.846
 4041SOL     OW12802   3.296   0.163   5.989
 4041SOL    HW112803   3.256   0.092   5.938
 4041SOL    HW212804   3.374   0.122   6.028
 4042SOL     OW12805   2.256   0.694   6.063
 4042SOL    HW112806   2.275   0.601   6.074
 4042SOL    HW212807   2.162   0.702   6.080
 4043SOL     OW12808   3.393   0.232   7.313
 4043SOL    HW112809   3.391   0.256   7.405
 4043SOL    HW212810   3.364   0.141   7.311
 4044SOL     OW12811   2.503   0.136   5.692
 4044SOL    HW112812   2.537   0.055   5.732
 4044SOL    HW212813   2.441   0.105   5.626
 4045SOL     OW12814   2.640   0.282   7.351
 4045SOL    HW112815   2.703   0.210   7.356
 4045SOL    HW212816   2.578   0.263   7.422
 4046SOL     OW12817   2.732   1.473   6.771
 4046SOL    HW112818   2.767   1.505   6.688
 4046SOL    HW212819   2.809   1.455   6.825
 4047SOL     OW12820   3.203   0.587   7.017
 4047SOL    HW112821   3.234   0.558   7.103
 4047SOL    HW212822   3.238   0.676   7.007
 4048SOL     OW12823   2.791   0.511   6.488
 4048SOL    HW112824   2.767   0.503   6.396
 4048SOL    HW212825   2.819   0.423   6.513
 4049SOL     OW12826   2.408   0.058   6.079
 4049SOL    HW112827   2.333   0.062   6.138
 4049SOL    HW212828   2.403   0.138   6.028
 4050SOL     OW12829   3.290   1.198   5.627
 4050SOL    HW112830   3.320   1.123   5.677
 4050SOL    HW212831   3.204   1.220   5.663
 4051SOL     OW12832   2.187   0.043   5.794
 4051SOL    HW112833   2.203   0.112   5.730
 4051SOL    HW212834   2.271   0.031   5.838
 4052SOL     OW12835   2.800   0.248   6.049
 4052SOL    HW112836   2.775   0.289   5.967
 4052SOL    HW212837   2.896   0.248   6.048
 4053SOL     OW12838   2.942   0.680   7.045
 4053SOL    HW112839   2.872   0.615   7.051
 4053SOL    HW212840   3.022   0.628   7.039
 4054SOL     OW12841   3.103   1.556   6.367
 4054SOL    HW112842   3.109   1.630   6.307
 4054SOL    HW212843   3.146   1.586   6.447
 4055SOL     OW12844   3.142   1.786   6.189
 4055SOL    HW112845   3.186   1.849   6.132
 4055SOL    HW212846   3.066   1.833   6.224
 4056SOL     OW12847   2.886   0.547   5.609
 4056SOL    HW112848   2.842   0.629   5.590
 4056SOL    HW212849   2.949   0.568   5.678
 4057SOL     OW12850   1.940   0.553   6.982
 4057SOL    HW112851   2.031   0.553   6.952
 4057SOL    HW212852   1.935   0.628   7.042
 4058SOL     OW12853   2.427   0.232   6.747
 4058SOL    HW112854   2.453   0.140   6.758
 4058SOL    HW212855   2.337   0.236   6.779
 4059SOL     OW12856   2.732   0.461   6.225
 4059SOL    HW112857   2.684   0.514   6.161
 4059SOL    HW212858   2.752   0.380   6.178
 4060SOL     OW12859   2.856   0.042   6.365
 4060SOL    HW112860   2.823   0.066   6.278
 4060SOL    HW212861   2.866   3.947   6.361
 4061SOL     OW12862   3.302   1.161   6.445
 4061SOL    HW112863   3.228   1.101   6.440
 4061SOL    HW212864   3.327   1.176   6.354
 4062SOL     OW12865   3.327   0.605   6.565
 4062SOL    HW112866   3.278   0.523   6.570
 4062SOL    HW212867   3.389   0.600   6.638
 4063SOL     OW12868   3.722   0.823   5.961
 4063SOL    HW112869   3.764   0.766   6.025
 4063SOL    HW212870   3.682   0.763   5.897
 4064SOL     OW12871   2.348   1.416   5.743
 4064SOL    HW112872   2.287   1.374   5.804
 4064SOL    HW212873   2.323   1.384   5.657
 4065SOL     OW12874   3.527   1.265   6.234
 4065SOL    HW112875   3.622   1.270   6.242
 4065SOL    HW212876   3.496   1.353   6.254
 4066SOL     OW12877   3.256   0.573   5.656
 4066SOL    HW112878   3.194   0.555   5.726
 4066SOL    HW212879   3.342   0.555   5.694
 4067SOL     OW12880   2.389   0.266   5.904
 4067SOL    HW112881   2.439   0.225   5.834
 4067SOL    HW212882   2.363   0.351   5.869
 4068SOL     OW12883   3.615   1.234   7.159
 4068SOL    HW112884   3.702   1.199   7.141
 4068SOL    HW212885   3.631   1.324   7.189
 4069SOL     OW12886   2.928   1.352   6.924
 4069SOL    HW112887   2.852   1.316   6.970
 4069SOL    HW212888   3.003   1.306   6.963
 4070SOL     OW12889   3.468   1.624   7.240
 4070SOL    HW112890   3.460   1.661   7.152
 4070SOL    HW212891   3.551   1.577   7.239
 4071SOL     OW12892   2.977   1.190   6.697
 4071SOL    HW112893   2.928   1.247   6.756
 4071SOL    HW212894   2.970   1.232   6.611
 4072SOL     OW12895   3.493   1.098   6.663
 4072SOL    HW112896   3.485   1.160   6.736
 4072SOL    HW212897   3.416   1.115   6.608
 4073SOL     OW12898   2.775   0.113   6.988
 4073SOL    HW112899   2.795   0.086   6.898
 4073SOL    HW212900   2.856   0.154   7.019
 4074SOL     OW12901   2.851   1.111   7.305
 4074SOL    HW112902   2.757   1.129   7.302
 4074SOL    HW212903   2.862   1.033   7.250
 4075SOL     OW12904   2.570   1.061   5.958
 4075SOL    HW112905   2.556   1.044   6.051
 4075SOL    HW212906   2.646   1.008   5.936
 4076SOL     OW12907   2.283   0.813   6.834
 4076SOL    HW112908   2.348   0.822   6.904
 4076SOL    HW212909   2.243   0.727   6.850
 4077SOL     OW12910   3.129   0.375   6.862
 4077SOL    HW112911   3.163   0.453   6.906
 4077SOL    HW212912   3.042   0.402   6.830
 4078SOL     OW12913   2.419   0.536   6.444
 4078SOL    HW112914   2.434   0.595   6.370
 4078SOL    HW212915   2.482   0.564   6.510
 4079SOL     OW12916   3.104   1.350   5.976
 4079SOL    HW112917   3.162   1.422   6.002
 4079SOL    HW212918   3.025   1.363   6.029
 4080SOL     OW12919   3.143   1.457   6.734
 4080SOL    HW112920   3.201   1.462   6.810
 4080SOL    HW212921   3.087   1.381   6.752
 4081SOL     OW12922   3.438   0.631   6.069
 4081SOL    HW112923   3.398   0.692   6.131
 4081SOL    HW212924   3.487   0.687   6.008
 4082SOL     OW12925   2.276   0.742   7.189
 4082SOL    HW112926   2.335   0.789   7.130
 4082SOL    HW212927   2.318   0.657   7.203
 4083SOL     OW12928   3.461   0.777   7.266
 4083SOL    HW112929   3.375   0.819   7.259
 4083SOL    HW212930   3.514   0.819   7.199
 4084SOL     OW12931   2.884   0.122   7.364
 4084SOL    HW112932   2.919   0.200   7.321
 4084SOL    HW212933   2.868   0.060   7.292
 4085SOL     OW12934   2.347   0.034   7.350
 4085SOL    HW112935   2.354   0.040   7.255
 4085SOL    HW212936   2.289   0.107   7.375
 4086SOL     OW12937   2.450   0.874   6.625
 4086SOL    HW112938   2.442   0.969   6.611
 4086SOL    HW212939   2.388   0.855   6.696
 4087SOL     OW12940   3.220   0.857   6.619
 4087SOL    HW112941   3.141   0.851   6.566
 4087SOL    HW212942   3.261   0.771   6.612
 4088SOL     OW12943   3.067   0.534   5.849
 4088SOL    HW112944   3.075   0.455   5.902
 4088SOL    HW212945   3.024   0.598   5.906
 4089SOL     OW12946   2.164   0.212   6.828
 4089SOL    HW112947   2.125   0.241   6.910
 4089SOL    HW212948   2.150   0.117   6.827
 4090SOL     OW12949   2.588   0.633   6.643
 4090SOL    HW112950   2.661   0.617   6.583
 4090SOL    HW212951   2.560   0.722   6.624
 4091SOL     OW12952   3.596   0.956   7.445
 4091SOL    HW112953   3.550   0.903   7.379
 4091SOL    HW212954   3.531   0.969   7.514
 4092SOL     OW12955   2.183   0.057   6.232
 4092SOL    HW112956   2.162   0.150   6.244
 4092SOL    HW212957   2.143   0.014   6.307
 4093SOL     OW12958   3.469   0.387   5.967
 4093SOL    HW112959   3.442   0.319   6.028
 4093SOL    HW212960   3.447   0.469   6.012
 4094SOL     OW12961   2.886   0.761   6.545
 4094SOL    HW112962   2.885   0.778   6.639
 4094SOL    HW212963   2.861   0.668   6.537
 4095SOL     OW12964   3.709   1.503   7.186
 4095SOL    HW112965   3.730   1.531   7.097
 4095SOL    HW212966   3.789   1.518   7.236
 4096SOL     OW12967   2.214   0.913   7.397
 4096SOL    HW112968   2.299   0.928   7.437
 4096SOL    HW212969   2.231   0.852   7.325
 4097SOL     OW12970   3.369   0.275   5.722
 4097SOL    HW112971   3.294   0.218   5.734
 4097SOL    HW212972   3.383   0.315   5.808
 4098SOL     OW12973   3.154   0.827   5.617
 4098SOL    HW112974   3.196   0.741   5.620
 4098SOL    HW212975   3.186   0.867   5.536
 4099SOL     OW12976   2.969   1.319   6.458
 4099SOL    HW112977   2.951   1.260   6.385
 4099SOL    HW212978   3.003   1.399   6.417
 4100SOL     OW12979   2.171   0.800   6.533
 4100SOL    HW112980   2.264   0.821   6.522
 4100SOL    HW212981   2.170   0.711   6.568
 4101SOL     OW12982   2.201   0.530   6.600
 4101SOL    HW112983   2.158   0.446   6.584
 4101SOL    HW212984   2.276   0.531   6.541
 4102SOL     OW12985   2.995   0.383   7.277
 4102SOL    HW112986   2.948   0.438   7.340
 4102SOL    HW212987   3.083   0.422   7.273
 4103SOL     OW12988   3.013   0.224   7.067
 4103SOL    HW112989   3.005   0.279   7.145
 4103SOL    HW212990   3.036   0.286   6.997
 4104SOL     OW12991   1.868   1.307   5.734
 4104SOL    HW112992   1.776   1.325   5.716
 4104SOL    HW212993   1.868   1.226   5.784
 4105SOL     OW12994   1.931   1.734   6.507
 4105SOL    HW112995   1.959   1.678   6.435
 4105SOL    HW212996   1.988   1.811   6.503
 4106SOL     OW12997   2.843   0.794   6.813
 4106SOL    HW112998   2.899   0.771   6.887
 4106SOL    HW212999   2.760   0.750   6.831
 4107SOL     OW13000   1.894   0.543   6.704
 4107SOL    HW113001   1.971   0.520   6.650
 4107SOL    HW213002   1.928   0.549   6.793
 4108SOL     OW13003   2.063   0.527   7.301
 4108SOL    HW113004   2.128   0.504   7.235
 4108SOL    HW213005   2.015   0.601   7.262
 4109SOL     OW13006   3.238   0.940   7.244
 4109SOL    HW113007   3.262   1.033   7.243
 4109SOL    HW213008   3.236   0.915   7.152
 4110SOL     OW13009   2.678   0.572   5.945
 4110SOL    HW113010   2.683   0.496   5.887
 4110SOL    HW213011   2.603   0.622   5.913
 4111SOL     OW13012   3.503   0.601   6.773
 4111SOL    HW113013   3.493   0.540   6.846
 4111SOL    HW213014   3.589   0.580   6.736
 4112SOL     OW13015   2.563   0.456   6.847
 4112SOL    HW113016   2.514   0.378   6.820
 4112SOL    HW213017   2.557   0.514   6.771
 4113SOL     OW13018   2.328   0.494   5.773
 4113SOL    HW113019   2.385   0.568   5.795
 4113SOL    HW213020   2.242   0.534   5.760
 4114SOL     OW13021   3.186   1.046   6.810
 4114SOL    HW113022   3.213   0.985   6.742
 4114SOL    HW213023   3.112   1.094   6.772
 4115SOL     OW13024   3.173   0.855   5.892
 4115SOL    HW113025   3.095   0.827   5.942
 4115SOL    HW213026   3.148   0.843   5.801
 4116SOL     OW13027   3.637   1.745   6.739
 4116SOL    HW113028   3.693   1.772   6.666
 4116SOL    HW213029   3.610   1.656   6.717
 4117SOL     OW13030   3.105   1.728   6.698
 4117SOL    HW113031   3.187   1.751   6.654
 4117SOL    HW213032   3.112   1.634   6.714
 4118SOL     OW13033   1.953   1.201   6.671
 4118SOL    HW113034   1.914   1.251   6.743
 4118SOL    HW213035   1.917   1.241   6.592
 4119SOL     OW13036   3.555   0.123   6.073
 4119SOL    HW113037   3.637   0.135   6.025
 4119SOL    HW213038   3.554   0.031   6.096
 4120SOL     OW13039   3.252   1.563   6.065
 4120SOL    HW113040   3.313   1.597   6.000
 4120SOL    HW213041   3.207   1.641   6.099
 4121SOL     OW13042   1.996   1.729   7.417
 4121SOL    HW113043   1.955   1.692   7.495
 4121SOL    HW213044   1.989   1.824   7.428
 4122SOL     OW13045   3.138   0.926   6.258
 4122SOL    HW113046   3.212   0.866   6.265
 4122SOL    HW213047   3.172   0.999   6.205
 4123SOL     OW13048   2.679   1.272   7.021
 4123SOL    HW113049   2.657   1.328   7.096
 4123SOL    HW213050   2.617   1.298   6.953
 4124SOL     OW13051   2.540   1.609   5.733
 4124SOL    HW113052   2.541   1.624   5.638
 4124SOL    HW213053   2.477   1.539   5.746
 4125SOL     OW13054   3.488   1.726   6.977
 4125SOL    HW113055   3.540   1.733   6.897
 4125SOL    HW213056   3.477   1.816   7.006
 4126SOL     OW13057   3.702   0.180   6.556
 4126SOL    HW113058   3.727   0.096   6.516
 4126SOL    HW213059   3.615   0.198   6.520
 4127SOL     OW13060   2.127   0.318   6.302
 4127SOL    HW113061   2.041   0.353   6.280
 4127SOL    HW213062   2.125   0.306   6.397
 4128SOL     OW13063   3.070   1.606   5.615
 4128SOL    HW113064   3.060   1.515   5.643
 4128SOL    HW213065   3.003   1.619   5.548
 4129SOL     OW13066   2.687   1.004   6.960
 4129SOL    HW113067   2.738   0.994   6.880
 4129SOL    HW213068   2.685   1.099   6.976
 4130SOL     OW13069   2.779   0.912   5.878
 4130SOL    HW113070   2.839   0.943   5.810
 4130SOL    HW213071   2.826   0.840   5.921
 4131SOL     OW13072   3.354   1.625   5.628
 4131SOL    HW113073   3.260   1.620   5.615
 4131SOL    HW213074   3.390   1.632   5.540
 4132SOL     OW13075   3.465   1.279   6.866
 4132SOL    HW113076   3.535   1.276   6.931
 4132SOL    HW213077   3.409   1.352   6.895
 4133SOL     OW13078   2.909   1.108   6.285
 4133SOL    HW113079   2.840   1.057   6.327
 4133SOL    HW213080   2.974   1.042   6.258
 4134SOL     OW13081   2.876   0.247   6.554
 4134SOL    HW113082   2.866   0.198   6.473
 4134SOL    HW213083   2.870   0.181   6.623
 4135SOL     OW13084   2.460   1.504   6.045
 4135SOL    HW113085   2.498   1.450   5.975
 4135SOL    HW213086   2.405   1.567   6.000
 4136SOL     OW13087   3.581   0.392   6.960
 4136SOL    HW113088   3.652   0.456   6.959
 4136SOL    HW213089   3.613   0.320   6.905
 4137SOL     OW13090   1.959   0.998   7.294
 4137SOL    HW113091   1.890   0.994   7.359
 4137SOL    HW213092   2.040   0.985   7.344
 4138SOL     OW13093   2.553   0.244   7.084
 4138SOL    HW113094   2.622   0.193   7.043
 4138SOL    HW213095   2.579   0.251   7.175
 4139SOL     OW13096   1.959   0.319   5.575
 4139SOL    HW113097   1.882   0.336   5.628
 4139SOL    HW213098   1.976   0.401   5.529
 4140SOL     OW13099   3.291   0.858   6.987
 4140SOL    HW113100   3.242   0.919   6.931
 4140SOL    HW213101   3.380   0.860   6.952
 4141SOL     OW13102   1.945   0.155   5.927
 4141SOL    HW113103   1.914   0.217   5.861
 4141SOL    HW213104   2.029   0.125   5.893
 4142SOL     OW13105   3.042   1.339   5.701
 4142SOL    HW113106   2.950   1.313   5.702
 4142SOL    HW213107   3.068   1.341   5.793
 4143SOL     OW13108   2.481   0.830   7.021
 4143SOL    HW113109   2.537   0.905   7.001
 4143SOL    HW213110   2.541   0.756   7.028
 4144SOL     OW13111   3.347   1.779   6.563
 4144SOL    HW113112   3.373   1.835   6.490
 4144SOL    HW213113   3.429   1.756   6.607
 4145SOL     OW13114   2.580   0.562   7.291
 4145SOL    HW113115   2.619   0.624   7.353
 4145SOL    HW213116   2.610   0.476   7.322
 4146SOL     OW13117   3.334   1.200   7.218
 4146SOL    HW113118   3.323   1.215   7.312
 4146SOL    HW213119   3.427   1.216   7.202
 4147SOL     OW13120   2.213   1.734   7.176
 4147SOL    HW113121   2.123   1.744   7.145
 4147SOL    HW213122   2.217   1.644   7.209
 4148SOL     OW13123   3.529   0.881   6.845
 4148SOL    HW113124   3.527   0.796   6.800
 4148SOL    HW213125   3.523   0.945   6.774
 4149SOL     OW13126   3.085   0.334   6.032
 4149SOL    HW113127   3.152   0.266   6.023
 4149SOL    HW213128   3.108   0.379   6.114
 4150SOL     OW13129   2.453   0.740   6.255
 4150SOL    HW113130   2.488   0.827   6.238
 4150SOL    HW213131   2.384   0.729   6.189
 4151SOL     OW13132   3.618   0.380   7.228
 4151SOL    HW113133   3.598   0.387   7.135
 4151SOL    HW213134   3.559   0.312   7.260
 4152SOL     OW13135   3.612   0.932   7.101
 4152SOL    HW113136   3.609   1.026   7.115
 4152SOL    HW213137   3.591   0.921   7.008
 4153SOL     OW13138   2.728   1.368   5.618
 4153SOL    HW113139   2.684   1.392   5.700
 4153SOL    HW213140   2.743   1.451   5.573
 4154SOL     OW13141   2.728   0.970   6.446
 4154SOL    HW113142   2.778   0.892   6.471
 4154SOL    HW213143   2.714   1.016   6.529
 4155SOL     OW13144   2.941   0.988   5.676
 4155SOL    HW113145   2.919   1.039   5.598
 4155SOL    HW213146   3.016   0.935   5.648
 4156SOL     OW13147   3.718   1.556   6.428
 4156SOL    HW113148   3.639   1.542   6.376
 4156SOL    HW213149   3.713   1.491   6.497
 4157SOL     OW13150   3.677   0.182   6.830
 4157SOL    HW113151   3.679   0.087   6.838
 4157SOL    HW213152   3.693   0.199   6.737
 4158SOL     OW13153   2.291   0.433   6.111
 4158SOL    HW113154   2.322   0.361   6.056
 4158SOL    HW213155   2.244   0.390   6.183
 4159SOL     OW13156   3.562   1.491   6.685
 4159SOL    HW113157   3.483   1.466   6.638
 4159SOL    HW213158   3.575   1.421   6.749
 4160SOL     OW13159   2.190   0.554   6.879
 4160SOL    HW113160   2.244   0.497   6.933
 4160SOL    HW213161   2.210   0.528   6.789
 4161SOL     OW13162   3.323   0.251   6.697
 4161SOL    HW113163   3.337   0.163   6.732
 4161SOL    HW213164   3.266   0.293   6.761
 4162SOL     OW13165   2.868   0.029   6.734
 4162SOL    HW113166   2.792   3.980   6.703
 4162SOL    HW213167   2.937   3.963   6.741
 4163SOL     OW13168   2.629   1.328   5.887
 4163SOL    HW113169   2.594   1.240   5.900
 4163SOL    HW213170   2.704   1.333   5.946
 4164SOL     OW13171   3.178   0.072   5.747
 4164SOL    HW113172   3.191   0.001   5.684
 4164SOL    HW213173   3.092   0.053   5.786
 4165SOL     OW13174   3.147   0.457   6.273
 4165SOL    HW113175   3.099   0.540   6.270
 4165SOL    HW213176   3.151   0.436   6.366
 4166SOL     OW13177   3.451   0.211   6.453
 4166SOL    HW113178   3.402   0.233   6.532
 4166SOL    HW213179   3.451   0.291   6.401
 4167SOL     OW13180   1.899   1.068   5.883
 4167SOL    HW113181   1.992   1.061   5.864
 4167SOL    HW213182   1.874   0.979   5.911
 4168SOL     OW13183   2.748   1.661   5.913
 4168SOL    HW113184   2.680   1.632   5.853
 4168SOL    HW213185   2.701   1.692   5.990
 4169SOL     OW13186   2.093   0.619   7.570
 4169SOL    HW113187   2.002   0.627   7.600
 4169SOL    HW213188   2.085   0.601   7.476
 4170SOL     OW13189   2.079   0.298   8.439
 4170SOL    HW113190   2.116   0.256   8.516
 4170SOL    HW213191   1.996   0.253   8.425
 4171SOL     OW13192   1.871   0.394   8.084
 4171SOL    HW113193   1.784   0.409   8.120
 4171SOL    HW213194   1.859   0.323   8.021
 4172SOL     OW13195   2.429   1.286   8.620
 4172SOL    HW113196   2.341   1.289   8.584
 4172SOL    HW213197   2.443   1.374   8.655
 4173SOL     OW13198   3.421   1.511   8.154
 4173SOL    HW113199   3.378   1.493   8.237
 4173SOL    HW213200   3.350   1.517   8.091
 4174SOL     OW13201   2.993   0.699   8.149
 4174SOL    HW113202   3.042   0.780   8.136
 4174SOL    HW213203   2.946   0.712   8.231
 4175SOL     OW13204   3.619   0.621   7.677
 4175SOL    HW113205   3.603   0.610   7.583
 4175SOL    HW213206   3.608   0.533   7.713
 4176SOL     OW13207   2.618   1.143   8.487
 4176SOL    HW113208   2.549   1.177   8.544
 4176SOL    HW213209   2.655   1.221   8.445
 4177SOL     OW13210   2.728   0.776   9.270
 4177SOL    HW113211   2.715   0.847   9.333
 4177SOL    HW213212   2.751   0.820   9.189
 4178SOL     OW13213   2.549   1.006   8.095
 4178SOL    HW113214   2.613   0.991   8.164
 4178SOL    HW213215   2.478   1.054   8.138
 4179SOL     OW13216   2.572   1.151   9.259
 4179SOL    HW113217   2.619   1.230   9.286
 4179SOL    HW213218   2.488   1.184   9.225
 4180SOL     OW13219   2.193   1.424   8.516
 4180SOL    HW113220   2.118   1.390   8.468
 4180SOL    HW213221   2.240   1.477   8.453
 4181SOL     OW13222   3.322   1.500   8.800
 4181SOL    HW113223   3.373   1.581   8.810
 4181SOL    HW213224   3.264   1.499   8.876
 4182SOL     OW13225   2.304   0.397   8.943
 4182SOL    HW113226   2.392   0.359   8.941
 4182SOL    HW213227   2.246   0.322   8.950
 4183SOL     OW13228   3.473   0.450   8.184
 4183SOL    HW113229   3.402   0.483   8.130
 4183SOL    HW213230   3.500   0.526   8.237
 4184SOL     OW13231   2.998   1.342   9.140
 4184SOL    HW113232   3.039   1.337   9.227
 4184SOL    HW213233   2.946   1.262   9.134
 4185SOL     OW13234   2.121   1.091   8.339
 4185SOL    HW113235   2.116   1.004   8.379
 4185SOL    HW213236   2.062   1.145   8.392
 4186SOL     OW13237   2.473   1.792   8.878
 4186SOL    HW113238   2.392   1.775   8.927
 4186SOL    HW213239   2.498   1.881   8.902
 4187SOL     OW13240   2.449   0.982   7.582
 4187SOL    HW113241   2.474   1.051   7.521
 4187SOL    HW213242   2.491   1.006   7.664
 4188SOL     OW13243   3.442   0.137   8.906
 4188SOL    HW113244   3.464   0.211   8.849
 4188SOL    HW213245   3.414   0.177   8.988
 4189SOL     OW13246   1.978   0.652   8.008
 4189SOL    HW113247   1.950   0.563   8.031
 4189SOL    HW213248   1.971   0.701   8.090
 4190SOL     OW13249   3.700   1.758   7.786
 4190SOL    HW113250   3.768   1.733   7.849
 4190SOL    HW213251   3.722   1.848   7.762
 4191SOL     OW13252   3.548   0.916   8.088
 4191SOL    HW113253   3.634   0.876   8.075
 4191SOL    HW213254   3.533   0.968   8.009
 4192SOL     OW13255   3.504   1.107   7.879
 4192SOL    HW113256   3.588   1.114   7.835
 4192SOL    HW213257   3.510   1.169   7.952
 4193SOL     OW13258   1.984   0.748   9.030
 4193SOL    HW113259   2.076   0.773   9.040
 4193SOL    HW213260   1.935   0.829   9.039
 4194SOL     OW13261   2.478   1.384   8.170
 4194SOL    HW113262   2.438   1.302   8.200
 4194SOL    HW213263   2.451   1.393   8.079
 4195SOL     OW13264   3.151   1.239   8.872
 4195SOL    HW113265   3.184   1.172   8.811
 4195SOL    HW213266   3.208   1.232   8.948
 4196SOL     OW13267   2.679   0.002   7.963
 4196SOL    HW113268   2.724   0.084   7.941
 4196SOL    HW213269   2.586   0.026   7.965
 4197SOL     OW13270   2.053   0.967   8.718
 4197SOL    HW113271   2.137   0.924   8.703
 4197SOL    HW213272   1.990   0.911   8.673
 4198SOL     OW13273   3.391   0.993   7.646
 4198SOL    HW113274   3.322   0.937   7.680
 4198SOL    HW213275   3.433   1.028   7.725
 4199SOL     OW13276   3.046   1.806   9.069
 4199SOL    HW113277   3.060   1.864   8.994
 4199SOL    HW213278   3.063   1.718   9.035
 4200SOL     OW13279   2.214   0.255   9.269
 4200SOL    HW113280   2.258   0.340   9.271
 4200SOL    HW213281   2.121   0.276   9.281
 4201SOL     OW13282   3.327   1.421   8.399
 4201SOL    HW113283   3.260   1.434   8.466
 4201SOL    HW213284   3.316   1.329   8.373
 4202SOL     OW13285   3.518   1.739   8.027
 4202SOL    HW113286   3.502   1.709   7.938
 4202SOL    HW213287   3.496   1.664   8.082
 4203SOL     OW13288   2.457   0.722   7.714
 4203SOL    HW113289   2.460   0.802   7.662
 4203SOL    HW213290   2.390   0.740   7.781
 4204SOL     OW13291   3.138   0.364   8.388
 4204SOL    HW113292   3.051   0.324   8.394
 4204SOL    HW213293   3.195   0.303   8.434
 4205SOL     OW13294   3.441   1.667   7.757
 4205SOL    HW113295   3.530   1.701   7.752
 4205SOL    HW213296   3.416   1.652   7.666
 4206SOL     OW13297   2.658   0.616   8.901
 4206SOL    HW113298   2.629   0.592   8.990
 4206SOL    HW213299   2.616   0.552   8.844
 4207SOL     OW13300   3.255   0.476   9.125
 4207SOL    HW113301   3.258   0.521   9.210
 4207SOL    HW213302   3.315   0.402   9.134
 4208SOL     OW13303   2.817   0.888   9.030
 4208SOL    HW113304   2.872   0.818   8.995
 4208SOL    HW213305   2.770   0.922   8.954
 4209SOL     OW13306   2.853   0.404   8.689
 4209SOL    HW113307   2.771   0.429   8.731
 4209SOL    HW213308   2.827   0.371   8.602
 4210SOL     OW13309   2.912   0.700   7.874
 4210SOL    HW113310   2.927   0.692   7.968
 4210SOL    HW213311   2.830   0.652   7.859
 4211SOL     OW13312   1.952   0.821   8.224
 4211SOL    HW113313   2.033   0.812   8.275
 4211SOL    HW213314   1.909   0.898   8.261
 4212SOL     OW13315   2.755   0.350   7.647
 4212SOL    HW113316   2.796   0.407   7.583
 4212SOL    HW213317   2.751   0.265   7.604
 4213SOL     OW13318   3.573   0.575   9.277
 4213SOL    HW113319   3.535   0.650   9.231
 4213SOL    HW213320   3.596   0.514   9.207
 4214SOL     OW13321   3.237   1.141   7.988
 4214SOL    HW113322   3.318   1.129   7.938
 4214SOL    HW213323   3.187   1.205   7.937
 4215SOL     OW13324   2.418   0.197   8.330
 4215SOL    HW113325   2.421   0.215   8.424
 4215SOL    HW213326   2.414   0.284   8.289
 4216SOL     OW13327   2.871   1.450   7.923
 4216SOL    HW113328   2.822   1.520   7.880
 4216SOL    HW213329   2.858   1.466   8.016
 4217SOL     OW13330   2.223   1.796   8.285
 4217SOL    HW113331   2.264   1.713   8.312
 4217SOL    HW213332   2.287   1.863   8.311
 4218SOL     OW13333   3.665   1.062   8.315
 4218SOL    HW113334   3.610   1.041   8.239
 4218SOL    HW213335   3.605   1.065   8.389
 4219SOL     OW13336   3.089   1.539   8.961
 4219SOL    HW113337   3.076   1.466   9.022
 4219SOL    HW213338   3.028   1.523   8.890
 4220SOL     OW13339   2.186   0.955   7.700
 4220SOL    HW113340   2.264   0.970   7.646
 4220SOL    HW213341   2.146   0.877   7.661
 4221SOL     OW13342   3.338   0.743   8.179
 4221SOL    HW113343   3.332   0.699   8.264
 4221SOL    HW213344   3.416   0.797   8.186
 4222SOL     OW13345   2.328   1.264   9.185
 4222SOL    HW113346   2.300   1.268   9.094
 4222SOL    HW213347   2.246   1.261   9.235
 4223SOL     OW13348   3.006   1.774   7.693
 4223SOL    HW113349   2.928   1.737   7.736
 4223SOL    HW213350   3.023   1.715   7.620
 4224SOL     OW13351   2.037   0.277   8.946
 4224SOL    HW113352   1.975   0.349   8.942
 4224SOL    HW213353   2.045   0.257   9.039
 4225SOL     OW13354   3.489   1.381   7.537
 4225SOL    HW113355   3.448   1.466   7.519
 4225SOL    HW213356   3.421   1.317   7.515
 4226SOL     OW13357   3.296   0.162   7.850
 4226SOL    HW113358   3.256   0.092   7.800
 4226SOL    HW213359   3.373   0.122   7.890
 4227SOL     OW13360   2.163   1.782   8.673
 4227SOL    HW113361   2.197   1.702   8.712
 4227SOL    HW213362   2.119   1.753   8.593
 4228SOL     OW13363   2.803   1.699   8.351
 4228SOL    HW113364   2.883   1.651   8.373
 4228SOL    HW213365   2.762   1.647   8.282
 4229SOL     OW13366   2.255   0.695   7.925
 4229SOL    HW113367   2.276   0.603   7.936
 4229SOL    HW213368   2.161   0.701   7.943
 4230SOL     OW13369   3.394   0.232   9.175
 4230SOL    HW113370   3.391   0.256   9.267
 4230SOL    HW213371   3.364   0.141   9.173
 4231SOL     OW13372   2.503   0.136   7.554
 4231SOL    HW113373   2.537   0.055   7.593
 4231SOL    HW213374   2.441   0.106   7.488
 4232SOL     OW13375   2.640   0.281   9.212
 4232SOL    HW113376   2.704   0.210   9.218
 4232SOL    HW213377   2.578   0.264   9.283
 4233SOL     OW13378   2.738   1.521   8.642
 4233SOL    HW113379   2.724   1.485   8.555
 4233SOL    HW213380   2.808   1.467   8.679
 4234SOL     OW13381   3.204   0.587   8.878
 4234SOL    HW113382   3.234   0.558   8.965
 4234SOL    HW213383   3.238   0.676   8.870
 4235SOL     OW13384   2.676   1.395   8.385
 4235SOL    HW113385   2.762   1.384   8.344
 4235SOL    HW213386   2.615   1.392   8.311
 4236SOL     OW13387   2.791   0.511   8.350
 4236SOL    HW113388   2.767   0.503   8.258
 4236SOL    HW213389   2.819   0.423   8.375
 4237SOL     OW13390   2.408   0.058   7.942
 4237SOL    HW113391   2.333   0.062   8.000
 4237SOL    HW213392   2.403   0.138   7.890
 4238SOL     OW13393   3.290   1.197   7.488
 4238SOL    HW113394   3.322   1.123   7.539
 4238SOL    HW213395   3.205   1.219   7.528
 4239SOL     OW13396   2.187   0.042   7.656
 4239SOL    HW113397   2.202   0.111   7.591
 4239SOL    HW213398   2.272   0.031   7.699
 4240SOL     OW13399   2.800   0.248   7.911
 4240SOL    HW113400   2.775   0.288   7.828
 4240SOL    HW213401   2.896   0.248   7.910
 4241SOL     OW13402   2.942   0.681   8.907
 4241SOL    HW113403   2.870   0.618   8.915
 4241SOL    HW213404   3.021   0.628   8.902
 4242SOL     OW13405   3.085   1.570   8.242
 4242SOL    HW113406   3.103   1.637   8.176
 4242SOL    HW213407   3.154   1.581   8.307
 4243SOL     OW13408   2.332   1.151   8.184
 4243SOL    HW113409   2.262   1.131   8.247
 4243SOL    HW213410   2.293   1.131   8.099
 4244SOL     OW13411   3.129   1.794   8.054
 4244SOL    HW113412   3.177   1.853   7.996
 4244SOL    HW213413   3.067   1.850   8.099
 4245SOL     OW13414   2.887   0.545   7.472
 4245SOL    HW113415   2.843   0.628   7.453
 4245SOL    HW213416   2.950   0.567   7.541
 4246SOL     OW13417   1.940   0.552   8.843
 4246SOL    HW113418   2.032   0.552   8.813
 4246SOL    HW213419   1.935   0.625   8.904
 4247SOL     OW13420   2.427   0.232   8.609
 4247SOL    HW113421   2.453   0.141   8.620
 4247SOL    HW213422   2.337   0.236   8.641
 4248SOL     OW13423   2.733   0.461   8.087
 4248SOL    HW113424   2.683   0.514   8.024
 4248SOL    HW213425   2.752   0.380   8.040
 4249SOL     OW13426   2.856   0.042   8.227
 4249SOL    HW113427   2.823   0.066   8.140
 4249SOL    HW213428   2.866   3.947   8.223
 4250SOL     OW13429   3.299   1.163   8.306
 4250SOL    HW113430   3.231   1.095   8.303
 4250SOL    HW213431   3.326   1.175   8.215
 4251SOL     OW13432   3.328   0.605   8.427
 4251SOL    HW113433   3.278   0.523   8.432
 4251SOL    HW213434   3.389   0.600   8.500
 4252SOL     OW13435   3.721   0.823   7.823
 4252SOL    HW113436   3.763   0.766   7.887
 4252SOL    HW213437   3.682   0.763   7.760
 4253SOL     OW13438   3.527   1.264   8.097
 4253SOL    HW113439   3.622   1.268   8.104
 4253SOL    HW213440   3.498   1.353   8.116
 4254SOL     OW13441   3.256   0.574   7.518
 4254SOL    HW113442   3.194   0.554   7.589
 4254SOL    HW213443   3.342   0.554   7.555
 4255SOL     OW13444   2.389   0.266   7.766
 4255SOL    HW113445   2.439   0.225   7.696
 4255SOL    HW213446   2.363   0.351   7.730
 4256SOL     OW13447   3.614   1.234   9.020
 4256SOL    HW113448   3.701   1.199   9.003
 4256SOL    HW213449   3.631   1.323   9.052
 4257SOL     OW13450   2.921   1.353   8.781
 4257SOL    HW113451   2.846   1.322   8.833
 4257SOL    HW213452   2.997   1.312   8.823
 4258SOL     OW13453   3.467   1.627   9.101
 4258SOL    HW113454   3.461   1.661   9.012
 4258SOL    HW213455   3.549   1.578   9.103
 4259SOL     OW13456   2.989   1.202   8.554
 4259SOL    HW113457   2.932   1.241   8.620
 4259SOL    HW213458   2.955   1.235   8.471
 4260SOL     OW13459   3.493   1.098   8.525
 4260SOL    HW113460   3.486   1.159   8.598
 4260SOL    HW213461   3.414   1.114   8.473
 4261SOL     OW13462   2.775   0.112   8.850
 4261SOL    HW113463   2.795   0.087   8.760
 4261SOL    HW213464   2.855   0.154   8.881
 4262SOL     OW13465   2.846   1.115   9.171
 4262SOL    HW113466   2.754   1.131   9.192
 4262SOL    HW213467   2.845   1.037   9.115
 4263SOL     OW13468   2.570   1.057   7.820
 4263SOL    HW113469   2.555   1.040   7.913
 4263SOL    HW213470   2.646   1.003   7.798
 4264SOL     OW13471   2.281   0.814   8.699
 4264SOL    HW113472   2.349   0.823   8.765
 4264SOL    HW213473   2.245   0.726   8.712
 4265SOL     OW13474   3.129   0.375   8.723
 4265SOL    HW113475   3.163   0.453   8.768
 4265SOL    HW213476   3.042   0.402   8.692
 4266SOL     OW13477   1.934   1.577   8.802
 4266SOL    HW113478   1.899   1.639   8.738
 4266SOL    HW213479   2.029   1.577   8.787
 4267SOL     OW13480   2.222   1.107   7.939
 4267SOL    HW113481   2.219   1.175   7.872
 4267SOL    HW213482   2.212   1.025   7.891
 4268SOL     OW13483   2.418   0.536   8.306
 4268SOL    HW113484   2.434   0.595   8.233
 4268SOL    HW213485   2.481   0.563   8.373
 4269SOL     OW13486   3.111   1.349   7.837
 4269SOL    HW113487   3.168   1.420   7.867
 4269SOL    HW213488   3.024   1.371   7.872
 4270SOL     OW13489   3.141   1.457   8.595
 4270SOL    HW113490   3.198   1.461   8.672
 4270SOL    HW213491   3.087   1.379   8.609
 4271SOL     OW13492   3.437   0.631   7.930
 4271SOL    HW113493   3.399   0.692   7.994
 4271SOL    HW213494   3.488   0.686   7.871
 4272SOL     OW13495   2.211   1.523   8.764
 4272SOL    HW113496   2.198   1.479   8.680
 4272SOL    HW213497   2.306   1.532   8.771
 4273SOL     OW13498   2.276   0.745   9.049
 4273SOL    HW113499   2.337   0.790   8.991
 4273SOL    HW213500   2.317   0.659   9.065
 4274SOL     OW13501   3.462   0.776   9.128
 4274SOL    HW113502   3.376   0.818   9.122
 4274SOL    HW213503   3.515   0.819   9.061
 4275SOL     OW13504   2.884   0.122   9.226
 4275SOL    HW113505   2.919   0.200   9.184
 4275SOL    HW213506   2.868   0.061   9.154
 4276SOL     OW13507   2.347   0.034   9.212
 4276SOL    HW113508   2.354   0.040   9.116
 4276SOL    HW213509   2.289   0.107   9.236
 4277SOL     OW13510   2.445   0.873   8.479
 4277SOL    HW113511   2.474   0.964   8.480
 4277SOL    HW213512   2.388   0.865   8.556
 4278SOL     OW13513   3.220   0.859   8.478
 4278SOL    HW113514   3.137   0.849   8.431
 4278SOL    HW213515   3.261   0.772   8.474
 4279SOL     OW13516   3.066   0.535   7.711
 4279SOL    HW113517   3.075   0.456   7.764
 4279SOL    HW213518   3.023   0.598   7.769
 4280SOL     OW13519   2.164   0.212   8.690
 4280SOL    HW113520   2.126   0.241   8.773
 4280SOL    HW213521   2.151   0.117   8.689
 4281SOL     OW13522   1.908   1.313   8.726
 4281SOL    HW113523   1.941   1.257   8.796
 4281SOL    HW213524   1.915   1.401   8.761
 4282SOL     OW13525   2.587   0.633   8.504
 4282SOL    HW113526   2.661   0.617   8.445
 4282SOL    HW213527   2.558   0.722   8.483
 4283SOL     OW13528   3.595   0.957   9.306
 4283SOL    HW113529   3.549   0.902   9.242
 4283SOL    HW213530   3.532   0.970   9.376
 4284SOL     OW13531   2.183   0.057   8.094
 4284SOL    HW113532   2.162   0.150   8.105
 4284SOL    HW213533   2.143   0.014   8.169
 4285SOL     OW13534   3.469   0.387   7.829
 4285SOL    HW113535   3.442   0.318   7.890
 4285SOL    HW213536   3.446   0.469   7.874
 4286SOL     OW13537   2.890   0.760   8.408
 4286SOL    HW113538   2.887   0.777   8.502
 4286SOL    HW213539   2.863   0.668   8.400
 4287SOL     OW13540   2.844   1.566   9.164
 4287SOL    HW113541   2.829   1.610   9.080
 4287SOL    HW213542   2.887   1.484   9.141
 4288SOL     OW13543   3.708   1.504   9.048
 4288SOL    HW113544   3.730   1.531   8.959
 4288SOL    HW213545   3.789   1.519   9.098
 4289SOL     OW13546   2.215   0.915   9.256
 4289SOL    HW113547   2.297   0.935   9.302
 4289SOL    HW213548   2.240   0.853   9.187
 4290SOL     OW13549   3.369   0.276   7.584
 4290SOL    HW113550   3.294   0.218   7.596
 4290SOL    HW213551   3.383   0.315   7.670
 4291SOL     OW13552   3.153   0.826   7.479
 4291SOL    HW113553   3.196   0.741   7.482
 4291SOL    HW213554   3.185   0.867   7.399
 4292SOL     OW13555   2.925   1.336   8.300
 4292SOL    HW113556   2.931   1.263   8.239
 4292SOL    HW213557   2.989   1.399   8.268
 4293SOL     OW13558   2.171   0.810   8.396
 4293SOL    HW113559   2.264   0.830   8.390
 4293SOL    HW213560   2.168   0.719   8.428
 4294SOL     OW13561   2.199   0.533   8.460
 4294SOL    HW113562   2.157   0.448   8.445
 4294SOL    HW213563   2.274   0.534   8.402
 4295SOL     OW13564   2.995   0.383   9.140
 4295SOL    HW113565   2.948   0.438   9.202
 4295SOL    HW213566   3.083   0.422   9.135
 4296SOL     OW13567   3.013   0.225   8.929
 4296SOL    HW113568   3.005   0.279   9.007
 4296SOL    HW213569   3.035   0.286   8.859
 4297SOL     OW13570   1.980   1.731   8.437
 4297SOL    HW113571   1.938   1.670   8.376
 4297SOL    HW213572   2.028   1.792   8.382
 4298SOL     OW13573   2.364   1.569   8.356
 4298SOL    HW113574   2.430   1.635   8.380
 4298SOL    HW213575   2.412   1.506   8.302
 4299SOL     OW13576   2.846   0.792   8.674
 4299SOL    HW113577   2.900   0.769   8.750
 4299SOL    HW213578   2.760   0.756   8.695
 4300SOL     OW13579   1.896   0.546   8.565
 4300SOL    HW113580   1.971   0.519   8.513
 4300SOL    HW213581   1.928   0.548   8.655
 4301SOL     OW13582   2.064   0.526   9.163
 4301SOL    HW113583   2.130   0.502   9.098
 4301SOL    HW213584   2.017   0.600   9.123
 4302SOL     OW13585   3.240   0.939   9.107
 4302SOL    HW113586   3.260   1.033   9.106
 4302SOL    HW213587   3.237   0.914   9.014
 4303SOL     OW13588   2.679   0.572   7.806
 4303SOL    HW113589   2.684   0.495   7.749
 4303SOL    HW213590   2.603   0.621   7.775
 4304SOL     OW13591   3.503   0.602   8.635
 4304SOL    HW113592   3.492   0.541   8.708
 4304SOL    HW213593   3.589   0.580   8.598
 4305SOL     OW13594   2.115   1.538   9.158
 4305SOL    HW113595   2.100   1.609   9.220
 4305SOL    HW213596   2.115   1.458   9.211
 4306SOL     OW13597   2.562   0.456   8.708
 4306SOL    HW113598   2.514   0.378   8.682
 4306SOL    HW213599   2.556   0.515   8.633
 4307SOL     OW13600   2.790   1.679   8.915
 4307SOL    HW113601   2.764   1.646   8.829
 4307SOL    HW213602   2.788   1.774   8.906
 4308SOL     OW13603   2.328   0.494   7.635
 4308SOL    HW113604   2.384   0.568   7.657
 4308SOL    HW213605   2.241   0.533   7.622
 4309SOL     OW13606   2.008   1.140   8.920
 4309SOL    HW113607   2.011   1.088   9.000
 4309SOL    HW213608   2.026   1.077   8.850
 4310SOL     OW13609   3.188   1.047   8.672
 4310SOL    HW113610   3.212   0.984   8.604
 4310SOL    HW213611   3.117   1.098   8.633
 4311SOL     OW13612   3.171   0.857   7.755
 4311SOL    HW113613   3.096   0.824   7.804
 4311SOL    HW213614   3.148   0.841   7.663
 4312SOL     OW13615   3.637   1.745   8.601
 4312SOL    HW113616   3.693   1.772   8.528
 4312SOL    HW213617   3.610   1.656   8.579
 4313SOL     OW13618   3.102   1.733   8.560
 4313SOL    HW113619   3.185   1.754   8.516
 4313SOL    HW213620   3.109   1.639   8.580
 4314SOL     OW13621   1.947   1.266   8.461
 4314SOL    HW113622   1.931   1.279   8.555
 4314SOL    HW213623   1.874   1.211   8.432
 4315SOL     OW13624   2.538   1.665   9.174
 4315SOL    HW113625   2.488   1.747   9.175
 4315SOL    HW213626   2.604   1.677   9.106
 4316SOL     OW13627   3.555   0.123   7.935
 4316SOL    HW113628   3.637   0.135   7.887
 4316SOL    HW213629   3.554   0.031   7.958
 4317SOL     OW13630   3.251   1.568   7.931
 4317SOL    HW113631   3.313   1.598   7.865
 4317SOL    HW213632   3.205   1.647   7.960
 4318SOL     OW13633   2.039   1.743   9.307
 4318SOL    HW113634   1.973   1.698   9.359
 4318SOL    HW213635   2.008   1.834   9.303
 4319SOL     OW13636   3.139   0.926   8.119
 4319SOL    HW113637   3.212   0.865   8.127
 4319SOL    HW213638   3.173   0.998   8.066
 4320SOL     OW13639   2.678   1.273   8.878
 4320SOL    HW113640   2.651   1.311   8.961
 4320SOL    HW213641   2.606   1.294   8.818
 4321SOL     OW13642   3.487   1.726   8.839
 4321SOL    HW113643   3.540   1.732   8.759
 4321SOL    HW213644   3.475   1.817   8.866
 4322SOL     OW13645   3.702   0.180   8.418
 4322SOL    HW113646   3.727   0.097   8.378
 4322SOL    HW213647   3.615   0.198   8.382
 4323SOL     OW13648   2.127   0.318   8.164
 4323SOL    HW113649   2.041   0.353   8.142
 4323SOL    HW213650   2.125   0.307   8.259
 4324SOL     OW13651   3.065   1.611   7.484
 4324SOL    HW113652   3.053   1.517   7.495
 4324SOL    HW213653   3.027   1.631   7.399
 4325SOL     OW13654   2.686   1.005   8.820
 4325SOL    HW113655   2.730   1.002   8.735
 4325SOL    HW213656   2.686   1.098   8.843
 4326SOL     OW13657   2.779   0.911   7.736
 4326SOL    HW113658   2.842   0.941   7.672
 4326SOL    HW213659   2.823   0.840   7.783
 4327SOL     OW13660   3.355   1.624   7.490
 4327SOL    HW113661   3.261   1.624   7.476
 4327SOL    HW213662   3.392   1.631   7.402
 4328SOL     OW13663   2.232   1.299   8.938
 4328SOL    HW113664   2.217   1.379   8.887
 4328SOL    HW213665   2.155   1.245   8.923
 4329SOL     OW13666   3.466   1.280   8.727
 4329SOL    HW113667   3.534   1.275   8.794
 4329SOL    HW213668   3.409   1.351   8.756
 4330SOL     OW13669   2.912   1.107   8.152
 4330SOL    HW113670   2.843   1.055   8.193
 4330SOL    HW213671   2.976   1.042   8.123
 4331SOL     OW13672   2.876   0.247   8.416
 4331SOL    HW113673   2.866   0.197   8.335
 4331SOL    HW213674   2.870   0.182   8.485
 4332SOL     OW13675   3.581   0.392   8.822
 4332SOL    HW113676   3.652   0.456   8.821
 4332SOL    HW213677   3.613   0.320   8.767
 4333SOL     OW13678   1.974   1.021   9.167
 4333SOL    HW113679   1.898   0.998   9.220
 4333SOL    HW213680   2.049   0.984   9.214
 4334SOL     OW13681   2.553   0.244   8.945
 4334SOL    HW113682   2.623   0.192   8.905
 4334SOL    HW213683   2.579   0.251   9.037
 4335SOL     OW13684   1.959   0.319   7.437
 4335SOL    HW113685   1.882   0.336   7.491
 4335SOL    HW213686   1.975   0.402   7.391
 4336SOL     OW13687   3.291   0.857   8.848
 4336SOL    HW113688   3.242   0.919   8.793
 4336SOL    HW213689   3.380   0.860   8.813
 4337SOL     OW13690   1.945   0.154   7.789
 4337SOL    HW113691   1.913   0.217   7.723
 4337SOL    HW213692   2.029   0.124   7.755
 4338SOL     OW13693   3.043   1.338   7.567
 4338SOL    HW113694   2.955   1.302   7.580
 4338SOL    HW213695   3.080   1.345   7.655
 4339SOL     OW13696   2.481   0.830   8.881
 4339SOL    HW113697   2.537   0.906   8.866
 4339SOL    HW213698   2.542   0.756   8.890
 4340SOL     OW13699   3.346   1.777   8.425
 4340SOL    HW113700   3.370   1.836   8.354
 4340SOL    HW213701   3.428   1.756   8.468
 4341SOL     OW13702   2.580   0.563   9.154
 4341SOL    HW113703   2.618   0.626   9.214
 4341SOL    HW213704   2.611   0.478   9.185
 4342SOL     OW13705   3.332   1.201   9.080
 4342SOL    HW113706   3.321   1.215   9.174
 4342SOL    HW213707   3.426   1.215   9.065
 4343SOL     OW13708   2.240   1.745   9.019
 4343SOL    HW113709   2.154   1.764   8.981
 4343SOL    HW213710   2.230   1.659   9.060
 4344SOL     OW13711   3.529   0.881   8.707
 4344SOL    HW113712   3.527   0.796   8.663
 4344SOL    HW213713   3.524   0.945   8.635
 4345SOL     OW13714   3.086   0.334   7.894
 4345SOL    HW113715   3.152   0.266   7.884
 4345SOL    HW213716   3.108   0.379   7.976
 4346SOL     OW13717   2.453   0.739   8.117
 4346SOL    HW113718   2.491   0.825   8.099
 4346SOL    HW213719   2.384   0.730   8.051
 4347SOL     OW13720   3.618   0.379   9.090
 4347SOL    HW113721   3.598   0.386   8.997
 4347SOL    HW213722   3.559   0.312   9.123
 4348SOL     OW13723   3.613   0.932   8.962
 4348SOL    HW113724   3.608   1.026   8.977
 4348SOL    HW213725   3.592   0.921   8.870
 4349SOL     OW13726   2.523   1.791   8.387
 4349SOL    HW113727   2.500   1.882   8.368
 4349SOL    HW213728   2.618   1.790   8.387
 4350SOL     OW13729   2.729   0.967   8.303
 4350SOL    HW113730   2.779   0.895   8.342
 4350SOL    HW213731   2.694   1.015   8.378
 4351SOL     OW13732   2.941   0.988   7.535
 4351SOL    HW113733   2.924   1.037   7.455
 4351SOL    HW213734   3.017   0.934   7.514
 4352SOL     OW13735   3.718   1.557   8.290
 4352SOL    HW113736   3.640   1.541   8.238
 4352SOL    HW213737   3.715   1.489   8.358
 4353SOL     OW13738   2.087   1.302   9.304
 4353SOL    HW113739   2.019   1.240   9.279
 4353SOL    HW213740   2.074   1.314   9.399
 4354SOL     OW13741   1.935   1.233   8.112
 4354SOL    HW113742   1.954   1.185   8.193
 4354SOL    HW213743   2.005   1.206   8.051
 4355SOL     OW13744   2.541   1.403   9.073
 4355SOL    HW113745   2.463   1.358   9.106
 4355SOL    HW213746   2.538   1.490   9.112
 4356SOL     OW13747   3.677   0.182   8.691
 4356SOL    HW113748   3.679   0.087   8.700
 4356SOL    HW213749   3.693   0.199   8.599
 4357SOL     OW13750   2.292   0.434   7.973
 4357SOL    HW113751   2.323   0.362   7.918
 4357SOL    HW213752   2.244   0.392   8.045
 4358SOL     OW13753   3.561   1.492   8.548
 4358SOL    HW113754   3.481   1.466   8.501
 4358SOL    HW213755   3.576   1.421   8.610
 4359SOL     OW13756   2.190   0.554   8.740
 4359SOL    HW113757   2.244   0.497   8.795
 4359SOL    HW213758   2.210   0.528   8.651
 4360SOL     OW13759   2.698   1.573   8.128
 4360SOL    HW113760   2.674   1.637   8.062
 4360SOL    HW213761   2.621   1.516   8.135
 4361SOL     OW13762   3.323   0.251   8.559
 4361SOL    HW113763   3.337   0.163   8.594
 4361SOL    HW213764   3.265   0.293   8.623
 4362SOL     OW13765   2.868   0.029   8.595
 4362SOL    HW113766   2.792   3.980   8.565
 4362SOL    HW213767   2.937   3.964   8.603
 4363SOL     OW13768   2.639   1.322   7.790
 4363SOL    HW113769   2.606   1.232   7.797
 4363SOL    HW213770   2.726   1.319   7.831
 4364SOL     OW13771   2.482   1.557   8.733
 4364SOL    HW113772   2.484   1.639   8.783
 4364SOL    HW213773   2.570   1.549   8.696
 4365SOL     OW13774   3.177   0.072   7.608
 4365SOL    HW113775   3.193   0.001   7.546
 4365SOL    HW213776   3.092   0.053   7.647
 4366SOL     OW13777   3.147   0.458   8.135
 4366SOL    HW113778   3.099   0.540   8.132
 4366SOL    HW213779   3.151   0.436   8.228
 4367SOL     OW13780   3.451   0.210   8.315
 4367SOL    HW113781   3.402   0.233   8.394
 4367SOL    HW213782   3.451   0.291   8.263
 4368SOL     OW13783   1.897   1.073   7.777
 4368SOL    HW113784   1.978   1.078   7.725
 4368SOL    HW213785   1.883   0.980   7.791
 4369SOL     OW13786   2.092   0.621   9.431
 4369SOL    HW113787   2.002   0.626   9.463
 4369SOL    HW213788   2.084   0.600   9.338
 4370SOL     OW13789   2.079   0.297  10.300
 4370SOL    HW113790   2.116   0.256  10.379
 4370SOL    HW213791   1.996   0.252  10.287
 4371SOL     OW13792   1.871   0.394   9.946
 4371SOL    HW113793   1.784   0.410   9.982
 4371SOL    HW213794   1.860   0.323   9.884
 4372SOL     OW13795   2.429   1.285  10.484
 4372SOL    HW113796   2.342   1.289  10.444
 4372SOL    HW213797   2.444   1.374  10.516
 4373SOL     OW13798   3.421   1.512  10.016
 4373SOL    HW113799   3.378   1.492  10.100
 4373SOL    HW213800   3.350   1.517   9.953
 4374SOL     OW13801   2.993   0.698  10.011
 4374SOL    HW113802   3.042   0.780   9.997
 4374SOL    HW213803   2.946   0.712  10.093
 4375SOL     OW13804   3.620   0.621   9.539
 4375SOL    HW113805   3.604   0.610   9.445
 4375SOL    HW213806   3.607   0.534   9.576
 4376SOL     OW13807   2.619   1.143  10.350
 4376SOL    HW113808   2.550   1.177  10.406
 4376SOL    HW213809   2.654   1.220  10.305
 4377SOL     OW13810   2.728   0.776  11.132
 4377SOL    HW113811   2.714   0.847  11.195
 4377SOL    HW213812   2.751   0.820  11.050
 4378SOL     OW13813   2.548   1.004   9.957
 4378SOL    HW113814   2.613   0.992  10.027
 4378SOL    HW213815   2.478   1.055   9.998
 4379SOL     OW13816   2.572   1.151  11.121
 4379SOL    HW113817   2.619   1.230  11.148
 4379SOL    HW213818   2.489   1.184  11.087
 4380SOL     OW13819   2.194   1.423  10.378
 4380SOL    HW113820   2.119   1.391  10.329
 4380SOL    HW213821   2.242   1.477  10.316
 4381SOL     OW13822   3.323   1.500  10.663
 4381SOL    HW113823   3.372   1.581  10.673
 4381SOL    HW213824   3.263   1.498  10.738
 4382SOL     OW13825   2.304   0.396  10.805
 4382SOL    HW113826   2.392   0.359  10.803
 4382SOL    HW213827   2.246   0.321  10.812
 4383SOL     OW13828   3.473   0.450  10.046
 4383SOL    HW113829   3.402   0.483   9.992
 4383SOL    HW213830   3.499   0.526  10.100
 4384SOL     OW13831   2.092   1.697   9.771
 4384SOL    HW113832   2.109   1.765   9.836
 4384SOL    HW213833   2.169   1.698   9.714
 4385SOL     OW13834   2.998   1.341  11.002
 4385SOL    HW113835   3.039   1.337  11.089
 4385SOL    HW213836   2.946   1.262  10.996
 4386SOL     OW13837   2.091   1.433   9.845
 4386SOL    HW113838   2.079   1.528   9.840
 4386SOL    HW213839   2.028   1.405   9.911
 4387SOL     OW13840   2.118   1.090  10.200
 4387SOL    HW113841   2.115   1.004  10.242
 4387SOL    HW213842   2.062   1.145  10.254
 4388SOL     OW13843   2.475   1.791  10.742
 4388SOL    HW113844   2.393   1.774  10.788
 4388SOL    HW213845   2.498   1.880  10.766
 4389SOL     OW13846   2.449   0.981   9.444
 4389SOL    HW113847   2.494   1.031   9.375
 4389SOL    HW213848   2.488   1.012   9.525
 4390SOL     OW13849   3.442   0.137  10.768
 4390SOL    HW113850   3.464   0.211  10.711
 4390SOL    HW213851   3.414   0.177  10.850
 4391SOL     OW13852   1.976   0.654   9.869
 4391SOL    HW113853   1.950   0.565   9.893
 4391SOL    HW213854   1.969   0.703   9.951
 4392SOL     OW13855   3.700   1.758   9.647
 4392SOL    HW113856   3.767   1.733   9.711
 4392SOL    HW213857   3.722   1.848   9.624
 4393SOL     OW13858   1.865   1.603   9.458
 4393SOL    HW113859   1.860   1.508   9.447
 4393SOL    HW213860   1.879   1.616   9.552
 4394SOL     OW13861   3.549   0.917   9.951
 4394SOL    HW113862   3.634   0.876   9.936
 4394SOL    HW213863   3.532   0.968   9.871
 4395SOL     OW13864   3.504   1.107   9.741
 4395SOL    HW113865   3.588   1.114   9.697
 4395SOL    HW213866   3.510   1.168   9.814
 4396SOL     OW13867   1.984   0.748  10.892
 4396SOL    HW113868   2.076   0.773  10.902
 4396SOL    HW213869   1.935   0.829  10.901
 4397SOL     OW13870   2.476   1.385  10.044
 4397SOL    HW113871   2.429   1.302  10.054
 4397SOL    HW213872   2.458   1.412   9.954
 4398SOL     OW13873   3.151   1.239  10.734
 4398SOL    HW113874   3.184   1.172  10.673
 4398SOL    HW213875   3.208   1.232  10.810
 4399SOL     OW13876   2.679   0.002   9.825
 4399SOL    HW113877   2.724   0.083   9.802
 4399SOL    HW213878   2.586   0.026   9.827
 4400SOL     OW13879   2.052   0.966  10.581
 4400SOL    HW113880   2.137   0.924  10.566
 4400SOL    HW213881   1.990   0.911  10.534
 4401SOL     OW13882   3.391   0.993   9.508
 4401SOL    HW113883   3.322   0.936   9.541
 4401SOL    HW213884   3.433   1.028   9.587
 4402SOL     OW13885   3.047   1.806  10.931
 4402SOL    HW113886   3.060   1.863  10.856
 4402SOL    HW213887   3.063   1.718  10.897
 4403SOL     OW13888   2.214   0.255  11.131
 4403SOL    HW113889   2.258   0.340  11.133
 4403SOL    HW213890   2.121   0.276  11.143
 4404SOL     OW13891   3.328   1.420  10.262
 4404SOL    HW113892   3.260   1.435  10.328
 4404SOL    HW213893   3.316   1.329  10.235
 4405SOL     OW13894   3.519   1.739   9.889
 4405SOL    HW113895   3.501   1.708   9.800
 4405SOL    HW213896   3.496   1.664   9.945
 4406SOL     OW13897   2.457   0.722   9.575
 4406SOL    HW113898   2.464   0.803   9.525
 4406SOL    HW213899   2.393   0.741   9.644
 4407SOL     OW13900   3.138   0.364  10.250
 4407SOL    HW113901   3.051   0.324  10.256
 4407SOL    HW213902   3.195   0.302  10.296
 4408SOL     OW13903   3.441   1.669   9.619
 4408SOL    HW113904   3.531   1.702   9.614
 4408SOL    HW213905   3.416   1.653   9.528
 4409SOL     OW13906   2.658   0.616  10.763
 4409SOL    HW113907   2.629   0.592  10.852
 4409SOL    HW213908   2.616   0.551  10.706
 4410SOL     OW13909   3.255   0.476  10.987
 4410SOL    HW113910   3.258   0.521  11.072
 4410SOL    HW213911   3.315   0.402  10.996
 4411SOL     OW13912   2.817   0.888  10.892
 4411SOL    HW113913   2.872   0.818  10.857
 4411SOL    HW213914   2.770   0.922  10.816
 4412SOL     OW13915   2.853   0.403  10.551
 4412SOL    HW113916   2.771   0.429  10.593
 4412SOL    HW213917   2.827   0.372  10.464
 4413SOL     OW13918   2.913   0.699   9.736
 4413SOL    HW113919   2.927   0.692   9.830
 4413SOL    HW213920   2.830   0.652   9.721
 4414SOL     OW13921   1.950   0.822  10.086
 4414SOL    HW113922   2.031   0.813  10.137
 4414SOL    HW213923   1.908   0.900  10.121
 4415SOL     OW13924   2.754   0.350   9.509
 4415SOL    HW113925   2.796   0.409   9.445
 4415SOL    HW213926   2.753   0.265   9.466
 4416SOL     OW13927   3.573   0.575  11.139
 4416SOL    HW113928   3.535   0.650  11.094
 4416SOL    HW213929   3.596   0.514  11.069
 4417SOL     OW13930   3.237   1.142   9.851
 4417SOL    HW113931   3.317   1.129   9.800
 4417SOL    HW213932   3.186   1.204   9.801
 4418SOL     OW13933   2.417   0.198  10.192
 4418SOL    HW113934   2.421   0.215  10.286
 4418SOL    HW213935   2.415   0.284  10.151
 4419SOL     OW13936   2.868   1.445   9.782
 4419SOL    HW113937   2.830   1.517   9.733
 4419SOL    HW213938   2.852   1.466   9.874
 4420SOL     OW13939   2.224   1.799  10.145
 4420SOL    HW113940   2.260   1.713  10.169
 4420SOL    HW213941   2.290   1.861  10.175
 4421SOL     OW13942   3.665   1.062  10.176
 4421SOL    HW113943   3.610   1.041  10.101
 4421SOL    HW213944   3.605   1.066  10.250
 4422SOL     OW13945   3.090   1.539  10.823
 4422SOL    HW113946   3.076   1.466  10.884
 4422SOL    HW213947   3.027   1.523  10.752
 4423SOL     OW13948   2.183   0.958   9.559
 4423SOL    HW113949   2.265   0.976   9.514
 4423SOL    HW213950   2.153   0.875   9.521
 4424SOL     OW13951   3.339   0.741  10.040
 4424SOL    HW113952   3.331   0.699  10.125
 4424SOL    HW213953   3.416   0.798  10.048
 4425SOL     OW13954   2.328   1.263  11.048
 4425SOL    HW113955   2.300   1.268  10.956
 4425SOL    HW213956   2.246   1.261  11.098
 4426SOL     OW13957   2.983   1.778   9.541
 4426SOL    HW113958   2.910   1.736   9.587
 4426SOL    HW213959   3.006   1.716   9.471
 4427SOL     OW13960   2.037   0.277  10.808
 4427SOL    HW113961   1.975   0.350  10.803
 4427SOL    HW213962   2.045   0.258  10.901
 4428SOL     OW13963   3.489   1.381   9.397
 4428SOL    HW113964   3.447   1.466   9.382
 4428SOL    HW213965   3.421   1.317   9.378
 4429SOL     OW13966   2.336   1.719   9.649
 4429SOL    HW113967   2.371   1.793   9.699
 4429SOL    HW213968   2.394   1.712   9.573
 4430SOL     OW13969   3.296   0.163   9.712
 4430SOL    HW113970   3.256   0.092   9.662
 4430SOL    HW213971   3.374   0.122   9.752
 4431SOL     OW13972   2.158   1.766  10.540
 4431SOL    HW113973   2.197   1.685  10.573
 4431SOL    HW213974   2.120   1.743  10.455
 4432SOL     OW13975   2.799   1.698  10.209
 4432SOL    HW113976   2.877   1.647  10.230
 4432SOL    HW213977   2.755   1.649  10.140
 4433SOL     OW13978   2.254   0.695   9.786
 4433SOL    HW113979   2.275   0.603   9.797
 4433SOL    HW213980   2.160   0.701   9.805
 4434SOL     OW13981   3.394   0.232  11.037
 4434SOL    HW113982   3.391   0.257  11.129
 4434SOL    HW213983   3.363   0.141  11.035
 4435SOL     OW13984   2.503   0.136   9.416
 4435SOL    HW113985   2.537   0.056   9.456
 4435SOL    HW213986   2.440   0.105   9.350
 4436SOL     OW13987   2.640   0.281  11.074
 4436SOL    HW113988   2.703   0.210  11.080
 4436SOL    HW213989   2.578   0.265  11.145
 4437SOL     OW13990   2.738   1.522  10.503
 4437SOL    HW113991   2.723   1.485  10.416
 4437SOL    HW213992   2.808   1.467  10.540
 4438SOL     OW13993   3.204   0.587  10.740
 4438SOL    HW113994   3.234   0.558  10.827
 4438SOL    HW213995   3.237   0.676  10.732
 4439SOL     OW13996   2.676   1.396  10.248
 4439SOL    HW113997   2.761   1.384  10.204
 4439SOL    HW213998   2.612   1.396  10.178
 4440SOL     OW13999   2.791   0.510  10.212
 4440SOL    HW114000   2.767   0.503  10.120
 4440SOL    HW214001   2.819   0.423  10.237
 4441SOL     OW14002   2.408   0.058   9.803
 4441SOL    HW114003   2.333   0.062   9.862
 4441SOL    HW214004   2.403   0.138   9.752
 4442SOL     OW14005   3.290   1.198   9.351
 4442SOL    HW114006   3.320   1.123   9.401
 4442SOL    HW214007   3.204   1.219   9.389
 4443SOL     OW14008   2.187   0.042   9.518
 4443SOL    HW114009   2.203   0.112   9.454
 4443SOL    HW214010   2.272   0.031   9.562
 4444SOL     OW14011   2.800   0.247   9.773
 4444SOL    HW114012   2.775   0.289   9.691
 4444SOL    HW214013   2.896   0.249   9.772
 4445SOL     OW14014   2.942   0.681  10.769
 4445SOL    HW114015   2.870   0.618  10.777
 4445SOL    HW214016   3.021   0.627  10.764
 4446SOL     OW14017   3.085   1.570  10.104
 4446SOL    HW114018   3.103   1.637  10.037
 4446SOL    HW214019   3.154   1.583  10.169
 4447SOL     OW14020   2.331   1.149  10.045
 4447SOL    HW114021   2.261   1.130  10.107
 4447SOL    HW214022   2.291   1.133   9.959
 4448SOL     OW14023   3.132   1.794   9.917
 4448SOL    HW114024   3.178   1.855   9.859
 4448SOL    HW214025   3.067   1.848   9.962
 4449SOL     OW14026   2.886   0.547   9.333
 4449SOL    HW114027   2.842   0.629   9.314
 4449SOL    HW214028   2.949   0.568   9.403
 4450SOL     OW14029   1.940   0.552  10.705
 4450SOL    HW114030   2.031   0.552  10.675
 4450SOL    HW214031   1.935   0.625  10.767
 4451SOL     OW14032   2.427   0.232  10.471
 4451SOL    HW114033   2.453   0.140  10.482
 4451SOL    HW214034   2.337   0.236  10.503
 4452SOL     OW14035   2.732   0.461   9.949
 4452SOL    HW114036   2.684   0.514   9.886
 4452SOL    HW214037   2.752   0.380   9.902
 4453SOL     OW14038   2.856   0.042  10.089
 4453SOL    HW114039   2.823   0.066  10.002
 4453SOL    HW214040   2.867   3.947  10.085
 4454SOL     OW14041   3.299   1.163  10.168
 4454SOL    HW114042   3.230   1.097  10.166
 4454SOL    HW214043   3.324   1.175  10.076
 4455SOL     OW14044   3.328   0.605  10.289
 4455SOL    HW114045   3.278   0.523  10.294
 4455SOL    HW214046   3.389   0.600  10.362
 4456SOL     OW14047   3.722   0.823   9.685
 4456SOL    HW114048   3.764   0.766   9.749
 4456SOL    HW214049   3.682   0.763   9.621
 4457SOL     OW14050   2.355   1.416   9.468
 4457SOL    HW114051   2.280   1.389   9.521
 4457SOL    HW214052   2.335   1.382   9.380
 4458SOL     OW14053   3.528   1.265   9.957
 4458SOL    HW114054   3.623   1.270   9.966
 4458SOL    HW214055   3.497   1.353   9.978
 4459SOL     OW14056   3.256   0.573   9.380
 4459SOL    HW114057   3.194   0.555   9.450
 4459SOL    HW214058   3.342   0.555   9.418
 4460SOL     OW14059   2.389   0.266   9.628
 4460SOL    HW114060   2.440   0.225   9.558
 4460SOL    HW214061   2.363   0.351   9.593
 4461SOL     OW14062   3.614   1.234  10.882
 4461SOL    HW114063   3.702   1.199  10.865
 4461SOL    HW214064   3.630   1.323  10.914
 4462SOL     OW14065   2.921   1.354  10.644
 4462SOL    HW114066   2.846   1.322  10.695
 4462SOL    HW214067   2.997   1.312  10.685
 4463SOL     OW14068   3.467   1.627  10.963
 4463SOL    HW114069   3.461   1.661  10.874
 4463SOL    HW214070   3.549   1.578  10.965
 4464SOL     OW14071   2.990   1.203  10.416
 4464SOL    HW114072   2.931   1.241  10.481
 4464SOL    HW214073   2.957   1.235  10.332
 4465SOL     OW14074   3.493   1.098  10.386
 4465SOL    HW114075   3.486   1.160  10.460
 4465SOL    HW214076   3.414   1.114  10.335
 4466SOL     OW14077   2.775   0.112  10.712
 4466SOL    HW114078   2.795   0.087  10.622
 4466SOL    HW214079   2.855   0.154  10.743
 4467SOL     OW14080   2.846   1.115  11.033
 4467SOL    HW114081   2.754   1.131  11.054
 4467SOL    HW214082   2.845   1.037  10.977
 4468SOL     OW14083   2.570   1.061   9.681
 4468SOL    HW114084   2.556   1.045   9.775
 4468SOL    HW214085   2.646   1.007   9.659
 4469SOL     OW14086   2.280   0.814  10.561
 4469SOL    HW114087   2.349   0.823  10.627
 4469SOL    HW214088   2.245   0.726  10.574
 4470SOL     OW14089   3.129   0.375  10.585
 4470SOL    HW114090   3.163   0.453  10.630
 4470SOL    HW214091   3.042   0.402  10.554
 4471SOL     OW14092   1.934   1.577  10.663
 4471SOL    HW114093   1.898   1.641  10.601
 4471SOL    HW214094   2.028   1.581  10.649
 4472SOL     OW14095   2.213   1.108   9.801
 4472SOL    HW114096   2.217   1.182   9.742
 4472SOL    HW214097   2.210   1.031   9.744
 4473SOL     OW14098   2.418   0.536  10.168
 4473SOL    HW114099   2.433   0.595  10.095
 4473SOL    HW214100   2.481   0.564  10.235
 4474SOL     OW14101   3.110   1.348   9.699
 4474SOL    HW114102   3.166   1.420   9.730
 4474SOL    HW214103   3.023   1.369   9.733
 4475SOL     OW14104   3.142   1.457  10.457
 4475SOL    HW114105   3.197   1.460  10.534
 4475SOL    HW214106   3.087   1.380  10.469
 4476SOL     OW14107   3.437   0.631   9.792
 4476SOL    HW114108   3.398   0.690   9.856
 4476SOL    HW214109   3.486   0.688   9.733
 4477SOL     OW14110   2.215   1.514  10.628
 4477SOL    HW114111   2.200   1.473  10.543
 4477SOL    HW214112   2.310   1.526  10.633
 4478SOL     OW14113   2.276   0.744  10.911
 4478SOL    HW114114   2.337   0.790  10.853
 4478SOL    HW214115   2.317   0.660  10.927
 4479SOL     OW14116   3.462   0.776  10.990
 4479SOL    HW114117   3.376   0.818  10.983
 4479SOL    HW214118   3.515   0.819  10.922
 4480SOL     OW14119   2.884   0.122  11.088
 4480SOL    HW114120   2.919   0.200  11.046
 4480SOL    HW214121   2.867   0.061  11.016
 4481SOL     OW14122   2.347   0.034  11.074
 4481SOL    HW114123   2.354   0.040  10.978
 4481SOL    HW214124   2.289   0.107  11.098
 4482SOL     OW14125   2.445   0.873  10.341
 4482SOL    HW114126   2.474   0.964  10.340
 4482SOL    HW214127   2.388   0.866  10.418
 4483SOL     OW14128   3.220   0.859  10.341
 4483SOL    HW114129   3.138   0.850  10.293
 4483SOL    HW214130   3.260   0.772  10.336
 4484SOL     OW14131   3.067   0.535   9.573
 4484SOL    HW114132   3.074   0.455   9.626
 4484SOL    HW214133   3.023   0.598   9.630
 4485SOL     OW14134   2.164   0.212  10.552
 4485SOL    HW114135   2.125   0.241  10.634
 4485SOL    HW214136   2.151   0.117  10.551
 4486SOL     OW14137   1.906   1.313  10.589
 4486SOL    HW114138   1.941   1.258  10.659
 4486SOL    HW214139   1.915   1.402  10.621
 4487SOL     OW14140   2.587   0.633  10.366
 4487SOL    HW114141   2.661   0.617  10.307
 4487SOL    HW214142   2.558   0.722  10.345
 4488SOL     OW14143   3.595   0.956  11.168
 4488SOL    HW114144   3.549   0.902  11.104
 4488SOL    HW214145   3.532   0.970  11.238
 4489SOL     OW14146   2.183   0.057   9.956
 4489SOL    HW114147   2.162   0.150   9.968
 4489SOL    HW214148   2.143   0.014  10.031
 4490SOL     OW14149   3.469   0.387   9.691
 4490SOL    HW114150   3.442   0.319   9.752
 4490SOL    HW214151   3.447   0.469   9.735
 4491SOL     OW14152   2.890   0.759  10.271
 4491SOL    HW114153   2.887   0.777  10.365
 4491SOL    HW214154   2.863   0.668  10.262
 4492SOL     OW14155   2.844   1.567  11.026
 4492SOL    HW114156   2.829   1.610  10.942
 4492SOL    HW214157   2.887   1.484  11.003
 4493SOL     OW14158   3.708   1.504  10.911
 4493SOL    HW114159   3.729   1.531  10.821
 4493SOL    HW214160   3.789   1.519  10.960
 4494SOL     OW14161   2.215   0.915  11.119
 4494SOL    HW114162   2.297   0.935  11.163
 4494SOL    HW214163   2.240   0.853  11.050
 4495SOL     OW14164   3.369   0.276   9.446
 4495SOL    HW114165   3.294   0.218   9.458
 4495SOL    HW214166   3.383   0.315   9.532
 4496SOL     OW14167   3.154   0.827   9.341
 4496SOL    HW114168   3.196   0.741   9.344
 4496SOL    HW214169   3.186   0.866   9.260
 4497SOL     OW14170   2.927   1.335  10.163
 4497SOL    HW114171   2.930   1.263  10.101
 4497SOL    HW214172   2.989   1.400  10.129
 4498SOL     OW14173   2.171   0.809  10.258
 4498SOL    HW114174   2.264   0.831  10.251
 4498SOL    HW214175   2.169   0.719  10.290
 4499SOL     OW14176   2.199   0.533  10.322
 4499SOL    HW114177   2.158   0.448  10.307
 4499SOL    HW214178   2.275   0.534  10.264
 4500SOL     OW14179   2.995   0.383  11.002
 4500SOL    HW114180   2.948   0.438  11.064
 4500SOL    HW214181   3.083   0.422  10.997
 4501SOL     OW14182   3.013   0.225  10.791
 4501SOL    HW114183   3.005   0.279  10.869
 4501SOL    HW214184   3.035   0.286  10.721
 4502SOL     OW14185   1.866   1.320   9.504
 4502SOL    HW114186   1.779   1.333   9.467
 4502SOL    HW214187   1.865   1.231   9.538
 4503SOL     OW14188   1.976   1.731  10.295
 4503SOL    HW114189   1.938   1.669  10.232
 4503SOL    HW214190   2.020   1.797  10.241
 4504SOL     OW14191   2.362   1.570  10.220
 4504SOL    HW114192   2.430   1.634  10.242
 4504SOL    HW214193   2.406   1.508  10.161
 4505SOL     OW14194   2.846   0.791  10.536
 4505SOL    HW114195   2.900   0.769  10.612
 4505SOL    HW214196   2.760   0.757  10.558
 4506SOL     OW14197   1.896   0.545  10.427
 4506SOL    HW114198   1.972   0.520  10.375
 4506SOL    HW214199   1.928   0.548  10.517
 4507SOL     OW14200   2.064   0.526  11.025
 4507SOL    HW114201   2.130   0.503  10.960
 4507SOL    HW214202   2.017   0.600  10.985
 4508SOL     OW14203   3.240   0.939  10.969
 4508SOL    HW114204   3.260   1.033  10.968
 4508SOL    HW214205   3.236   0.914  10.876
 4509SOL     OW14206   2.678   0.571   9.669
 4509SOL    HW114207   2.683   0.495   9.611
 4509SOL    HW214208   2.603   0.622   9.637
 4510SOL     OW14209   3.503   0.602  10.497
 4510SOL    HW114210   3.492   0.541  10.570
 4510SOL    HW214211   3.589   0.580  10.460
 4511SOL     OW14212   2.115   1.538  11.020
 4511SOL    HW114213   2.100   1.608  11.083
 4511SOL    HW214214   2.115   1.458  11.072
 4512SOL     OW14215   2.561   0.456  10.571
 4512SOL    HW114216   2.514   0.378  10.543
 4512SOL    HW214217   2.556   0.515  10.495
 4513SOL     OW14218   2.790   1.679  10.777
 4513SOL    HW114219   2.764   1.645  10.691
 4513SOL    HW214220   2.787   1.774  10.768
 4514SOL     OW14221   2.327   0.494   9.496
 4514SOL    HW114222   2.385   0.567   9.518
 4514SOL    HW214223   2.241   0.534   9.484
 4515SOL     OW14224   2.007   1.140  10.782
 4515SOL    HW114225   2.011   1.088  10.862
 4515SOL    HW214226   2.025   1.077  10.712
 4516SOL     OW14227   3.188   1.047  10.534
 4516SOL    HW114228   3.212   0.984  10.466
 4516SOL    HW214229   3.117   1.099  10.495
 4517SOL     OW14230   3.173   0.855   9.616
 4517SOL    HW114231   3.096   0.827   9.667
 4517SOL    HW214232   3.147   0.843   9.525
 4518SOL     OW14233   3.637   1.745  10.463
 4518SOL    HW114234   3.693   1.772  10.390
 4518SOL    HW214235   3.610   1.656  10.441
 4519SOL     OW14236   3.103   1.733  10.424
 4519SOL    HW114237   3.185   1.754  10.379
 4519SOL    HW214238   3.108   1.640  10.442
 4520SOL     OW14239   1.947   1.264  10.325
 4520SOL    HW114240   1.932   1.278  10.418
 4520SOL    HW214241   1.872   1.212  10.295
 4521SOL     OW14242   2.538   1.664  11.036
 4521SOL    HW114243   2.488   1.746  11.037
 4521SOL    HW214244   2.603   1.677  10.967
 4522SOL     OW14245   3.555   0.123   9.796
 4522SOL    HW114246   3.637   0.135   9.749
 4522SOL    HW214247   3.554   0.030   9.820
 4523SOL     OW14248   3.252   1.567   9.794
 4523SOL    HW114249   3.313   1.599   9.728
 4523SOL    HW214250   3.204   1.645   9.822
 4524SOL     OW14251   2.041   1.741  11.172
 4524SOL    HW114252   1.972   1.698  11.223
 4524SOL    HW214253   2.009   1.830  11.158
 4525SOL     OW14254   3.139   0.925   9.980
 4525SOL    HW114255   3.213   0.865   9.988
 4525SOL    HW214256   3.173   0.998   9.929
 4526SOL     OW14257   2.677   1.273  10.740
 4526SOL    HW114258   2.650   1.312  10.823
 4526SOL    HW214259   2.607   1.294  10.679
 4527SOL     OW14260   2.538   1.618   9.462
 4527SOL    HW114261   2.544   1.628   9.367
 4527SOL    HW214262   2.481   1.542   9.474
 4528SOL     OW14263   3.487   1.727  10.701
 4528SOL    HW114264   3.540   1.732  10.621
 4528SOL    HW214265   3.475   1.817  10.728
 4529SOL     OW14266   3.702   0.180  10.280
 4529SOL    HW114267   3.727   0.096  10.241
 4529SOL    HW214268   3.615   0.198  10.244
 4530SOL     OW14269   2.127   0.318  10.026
 4530SOL    HW114270   2.041   0.353  10.004
 4530SOL    HW214271   2.125   0.307  10.121
 4531SOL     OW14272   3.069   1.606   9.341
 4531SOL    HW114273   3.060   1.515   9.368
 4531SOL    HW214274   3.003   1.618   9.272
 4532SOL     OW14275   2.687   1.006  10.682
 4532SOL    HW114276   2.728   1.003  10.596
 4532SOL    HW214277   2.686   1.098  10.705
 4533SOL     OW14278   2.777   0.910   9.599
 4533SOL    HW114279   2.839   0.942   9.534
 4533SOL    HW214280   2.825   0.840   9.645
 4534SOL     OW14281   3.354   1.626   9.352
 4534SOL    HW114282   3.259   1.620   9.339
 4534SOL    HW214283   3.391   1.632   9.264
 4535SOL     OW14284   2.232   1.297  10.802
 4535SOL    HW114285   2.220   1.376  10.749
 4535SOL    HW214286   2.154   1.245  10.786
 4536SOL     OW14287   3.466   1.280  10.589
 4536SOL    HW114288   3.533   1.275  10.657
 4536SOL    HW214289   3.409   1.351  10.618
 4537SOL     OW14290   2.913   1.107  10.016
 4537SOL    HW114291   2.842   1.056  10.055
 4537SOL    HW214292   2.975   1.041   9.984
 4538SOL     OW14293   2.877   0.247  10.278
 4538SOL    HW114294   2.866   0.197  10.197
 4538SOL    HW214295   2.870   0.182  10.347
 4539SOL     OW14296   2.463   1.489   9.791
 4539SOL    HW114297   2.504   1.440   9.720
 4539SOL    HW214298   2.401   1.547   9.747
 4540SOL     OW14299   3.581   0.392  10.684
 4540SOL    HW114300   3.652   0.456  10.683
 4540SOL    HW214301   3.613   0.320  10.629
 4541SOL     OW14302   2.120   1.346   9.596
 4541SOL    HW114303   2.027   1.343   9.575
 4541SOL    HW214304   2.125   1.381   9.685
 4542SOL     OW14305   1.974   1.021  11.029
 4542SOL    HW114306   1.898   0.998  11.082
 4542SOL    HW214307   2.049   0.984  11.077
 4543SOL     OW14308   2.553   0.243  10.808
 4543SOL    HW114309   2.623   0.192  10.767
 4543SOL    HW214310   2.579   0.252  10.899
 4544SOL     OW14311   1.959   0.319   9.299
 4544SOL    HW114312   1.883   0.336   9.355
 4544SOL    HW214313   1.975   0.402   9.253
 4545SOL     OW14314   3.291   0.857  10.710
 4545SOL    HW114315   3.241   0.919  10.655
 4545SOL    HW214316   3.380   0.860  10.675
 4546SOL     OW14317   1.945   0.154   9.651
 4546SOL    HW114318   1.914   0.217   9.585
 4546SOL    HW214319   2.029   0.124   9.617
 4547SOL     OW14320   3.041   1.340   9.427
 4547SOL    HW114321   2.950   1.310   9.430
 4547SOL    HW214322   3.069   1.340   9.518
 4548SOL     OW14323   2.482   0.830  10.743
 4548SOL    HW114324   2.537   0.906  10.728
 4548SOL    HW214325   2.543   0.757  10.752
 4549SOL     OW14326   3.346   1.777  10.288
 4549SOL    HW114327   3.370   1.835  10.216
 4549SOL    HW214328   3.428   1.756  10.330
 4550SOL     OW14329   2.579   0.563  11.016
 4550SOL    HW114330   2.618   0.627  11.076
 4550SOL    HW214331   2.611   0.478  11.047
 4551SOL     OW14332   3.332   1.201  10.942
 4551SOL    HW114333   3.321   1.215  11.036
 4551SOL    HW214334   3.426   1.215  10.927
 4552SOL     OW14335   2.241   1.745  10.882
 4552SOL    HW114336   2.161   1.762  10.831
 4552SOL    HW214337   2.225   1.660  10.922
 4553SOL     OW14338   3.529   0.881  10.569
 4553SOL    HW114339   3.527   0.796  10.525
 4553SOL    HW214340   3.523   0.945  10.497
 4554SOL     OW14341   3.085   0.334   9.756
 4554SOL    HW114342   3.152   0.266   9.747
 4554SOL    HW214343   3.107   0.379   9.837
 4555SOL     OW14344   2.453   0.738   9.978
 4555SOL    HW114345   2.491   0.825   9.963
 4555SOL    HW214346   2.384   0.731   9.913
 4556SOL     OW14347   3.619   0.379  10.952
 4556SOL    HW114348   3.598   0.386  10.859
 4556SOL    HW214349   3.559   0.312  10.985
 4557SOL     OW14350   3.613   0.932  10.824
 4557SOL    HW114351   3.608   1.026  10.839
 4557SOL    HW214352   3.592   0.921  10.732
 4558SOL     OW14353   2.723   1.368   9.342
 4558SOL    HW114354   2.685   1.393   9.426
 4558SOL    HW214355   2.742   1.450   9.298
 4559SOL     OW14356   2.522   1.795  10.256
 4559SOL    HW114357   2.505   1.885  10.229
 4559SOL    HW214358   2.617   1.785  10.247
 4560SOL     OW14359   2.729   0.966  10.165
 4560SOL    HW114360   2.779   0.896  10.205
 4560SOL    HW214361   2.695   1.016  10.240
 4561SOL     OW14362   2.941   0.988   9.399
 4561SOL    HW114363   2.920   1.039   9.321
 4561SOL    HW214364   3.016   0.935   9.372
 4562SOL     OW14365   3.718   1.557  10.152
 4562SOL    HW114366   3.639   1.541  10.100
 4562SOL    HW214367   3.715   1.490  10.221
 4563SOL     OW14368   2.087   1.302  11.167
 4563SOL    HW114369   2.019   1.240  11.140
 4563SOL    HW214370   2.074   1.314  11.261
 4564SOL     OW14371   1.942   1.228   9.974
 4564SOL    HW114372   1.952   1.182  10.057
 4564SOL    HW214373   2.015   1.197   9.921
 4565SOL     OW14374   2.542   1.402  10.936
 4565SOL    HW114375   2.463   1.358  10.968
 4565SOL    HW214376   2.538   1.490  10.974
 4566SOL     OW14377   3.677   0.182  10.553
 4566SOL    HW114378   3.679   0.087  10.562
 4566SOL    HW214379   3.693   0.199  10.461
 4567SOL     OW14380   2.290   0.434   9.834
 4567SOL    HW114381   2.322   0.362   9.780
 4567SOL    HW214382   2.244   0.392   9.907
 4568SOL     OW14383   3.561   1.492  10.409
 4568SOL    HW114384   3.481   1.467  10.363
 4568SOL    HW214385   3.575   1.421  10.473
 4569SOL     OW14386   2.190   0.554  10.602
 4569SOL    HW114387   2.244   0.497  10.657
 4569SOL    HW214388   2.210   0.528  10.513
 4570SOL     OW14389   2.688   1.578   9.988
 4570SOL    HW114390   2.676   1.628   9.907
 4570SOL    HW214391   2.611   1.521   9.992
 4571SOL     OW14392   3.323   0.251  10.421
 4571SOL    HW114393   3.337   0.163  10.457
 4571SOL    HW214394   3.266   0.293  10.485
 4572SOL     OW14395   2.868   0.029  10.457
 4572SOL    HW114396   2.792   3.980  10.427
 4572SOL    HW214397   2.937   3.964  10.465
 4573SOL     OW14398   2.635   1.332   9.622
 4573SOL    HW114399   2.602   1.242   9.630
 4573SOL    HW214400   2.716   1.332   9.673
 4574SOL     OW14401   2.483   1.556  10.596
 4574SOL    HW114402   2.485   1.639  10.645
 4574SOL    HW214403   2.570   1.549  10.557
 4575SOL     OW14404   3.177   0.072   9.470
 4575SOL    HW114405   3.191   0.000   9.409
 4575SOL    HW214406   3.092   0.053   9.510
 4576SOL     OW14407   3.147   0.457   9.997
 4576SOL    HW114408   3.099   0.540   9.994
 4576SOL    HW214409   3.151   0.436  10.090
 4577SOL     OW14410   3.452   0.211  10.177
 4577SOL    HW114411   3.402   0.232  10.256
 4577SOL    HW214412   3.451   0.291  10.125
 4578SOL     OW14413   1.906   1.072   9.614
 4578SOL    HW114414   2.000   1.064   9.599
 4578SOL    HW214415   1.878   0.984   9.639
 4579SOL     OW14416   2.745   1.652   9.654
 4579SOL    HW114417   2.673   1.634   9.592
 4579SOL    HW214418   2.714   1.728   9.704
 4580SOL     OW14419   2.092   0.621  11.293
 4580SOL    HW114420   2.002   0.626  11.324
 4580SOL    HW214421   2.084   0.600  11.200
 4581SOL     OW14422   2.079   0.297  12.163
 4581SOL    HW114423   2.116   0.256  12.241
 4581SOL    HW214424   1.996   0.252  12.149
 4582SOL     OW14425   1.871   0.394  11.808
 4582SOL    HW114426   1.784   0.410  11.844
 4582SOL    HW214427   1.860   0.323  11.746
 4583SOL     OW14428   2.429   1.285  12.346
 4583SOL    HW114429   2.342   1.289  12.306
 4583SOL    HW214430   2.444   1.374  12.378
 4584SOL     OW14431   3.422   1.512  11.878
 4584SOL    HW114432   3.378   1.492  11.962
 4584SOL    HW214433   3.350   1.517  11.815
 4585SOL     OW14434   2.993   0.698  11.873
 4585SOL    HW114435   3.042   0.780  11.859
 4585SOL    HW214436   2.946   0.712  11.955
 4586SOL     OW14437   3.620   0.621  11.401
 4586SOL    HW114438   3.604   0.610  11.307
 4586SOL    HW214439   3.607   0.534  11.438
 4587SOL     OW14440   2.619   1.143  12.212
 4587SOL    HW114441   2.550   1.177  12.268
 4587SOL    HW214442   2.654   1.220  12.167
 4588SOL     OW14443   2.728   0.776  12.994
 4588SOL    HW114444   2.714   0.848  13.056
 4588SOL    HW214445   2.751   0.819  12.912
 4589SOL     OW14446   2.548   1.004  11.819
 4589SOL    HW114447   2.613   0.992  11.889
 4589SOL    HW214448   2.478   1.055  11.860
 4590SOL     OW14449   2.572   1.151  12.983
 4590SOL    HW114450   2.619   1.230  13.010
 4590SOL    HW214451   2.489   1.184  12.949
 4591SOL     OW14452   2.194   1.423  12.240
 4591SOL    HW114453   2.119   1.391  12.191
 4591SOL    HW214454   2.242   1.477  12.178
 4592SOL     OW14455   3.323   1.499  12.525
 4592SOL    HW114456   3.372   1.581  12.535
 4592SOL    HW214457   3.263   1.499  12.600
 4593SOL     OW14458   2.304   0.397  12.667
 4593SOL    HW114459   2.392   0.359  12.665
 4593SOL    HW214460   2.246   0.321  12.674
 4594SOL     OW14461   3.473   0.450  11.908
 4594SOL    HW114462   3.402   0.483  11.854
 4594SOL    HW214463   3.499   0.526  11.962
 4595SOL     OW14464   2.094   1.694  11.633
 4595SOL    HW114465   2.111   1.761  11.699
 4595SOL    HW214466   2.170   1.697  11.574
 4596SOL     OW14467   2.998   1.341  12.864
 4596SOL    HW114468   3.038   1.337  12.951
 4596SOL    HW214469   2.946   1.262  12.858
 4597SOL     OW14470   2.091   1.432  11.708
 4597SOL    HW114471   2.080   1.527  11.701
 4597SOL    HW214472   2.028   1.405  11.774
 4598SOL     OW14473   2.118   1.090  12.062
 4598SOL    HW114474   2.115   1.004  12.104
 4598SOL    HW214475   2.061   1.145  12.116
 4599SOL     OW14476   2.475   1.791  12.604
 4599SOL    HW114477   2.393   1.774  12.650
 4599SOL    HW214478   2.498   1.880  12.628
 4600SOL     OW14479   2.449   0.981  11.306
 4600SOL    HW114480   2.494   1.031  11.237
 4600SOL    HW214481   2.488   1.012  11.387
 4601SOL     OW14482   3.442   0.137  12.629
 4601SOL    HW114483   3.463   0.211  12.573
 4601SOL    HW214484   3.414   0.177  12.712
 4602SOL     OW14485   1.976   0.654  11.731
 4602SOL    HW114486   1.950   0.565  11.755
 4602SOL    HW214487   1.969   0.703  11.813
 4603SOL     OW14488   3.700   1.758  11.508
 4603SOL    HW114489   3.767   1.733  11.573
 4603SOL    HW214490   3.722   1.848  11.486
 4604SOL     OW14491   1.862   1.604  11.321
 4604SOL    HW114492   1.858   1.509  11.309
 4604SOL    HW214493   1.879   1.615  11.415
 4605SOL     OW14494   3.549   0.917  11.813
 4605SOL    HW114495   3.634   0.876  11.798
 4605SOL    HW214496   3.532   0.968  11.733
 4606SOL     OW14497   3.504   1.107  11.603
 4606SOL    HW114498   3.588   1.114  11.559
 4606SOL    HW214499   3.510   1.168  11.676
 4607SOL     OW14500   1.984   0.747  12.754
 4607SOL    HW114501   2.076   0.773  12.763
 4607SOL    HW214502   1.935   0.829  12.763
 4608SOL     OW14503   2.476   1.385  11.906
 4608SOL    HW114504   2.429   1.302  11.916
 4608SOL    HW214505   2.458   1.412  11.816
 4609SOL     OW14506   3.151   1.238  12.596
 4609SOL    HW114507   3.184   1.172  12.535
 4609SOL    HW214508   3.208   1.232  12.672
 4610SOL     OW14509   2.679   0.002  11.687
 4610SOL    HW114510   2.724   0.083  11.664
 4610SOL    HW214511   2.586   0.026  11.689
 4611SOL     OW14512   2.052   0.966  12.443
 4611SOL    HW114513   2.137   0.924  12.428
 4611SOL    HW214514   1.990   0.911  12.396
 4612SOL     OW14515   3.392   0.993  11.370
 4612SOL    HW114516   3.322   0.936  11.403
 4612SOL    HW214517   3.433   1.028  11.449
 4613SOL     OW14518   3.047   1.806  12.793
 4613SOL    HW114519   3.060   1.863  12.718
 4613SOL    HW214520   3.063   1.718  12.759
 4614SOL     OW14521   2.213   0.255  12.993
 4614SOL    HW114522   2.257   0.340  12.995
 4614SOL    HW214523   2.121   0.276  13.006
 4615SOL     OW14524   3.328   1.420  12.124
 4615SOL    HW114525   3.260   1.434  12.190
 4615SOL    HW214526   3.316   1.329  12.097
 4616SOL     OW14527   3.519   1.739  11.751
 4616SOL    HW114528   3.501   1.708  11.662
 4616SOL    HW214529   3.496   1.664  11.806
 4617SOL     OW14530   2.457   0.722  11.437
 4617SOL    HW114531   2.464   0.803  11.387
 4617SOL    HW214532   2.393   0.741  11.505
 4618SOL     OW14533   3.138   0.364  12.112
 4618SOL    HW114534   3.051   0.324  12.118
 4618SOL    HW214535   3.195   0.302  12.158
 4619SOL     OW14536   3.441   1.669  11.481
 4619SOL    HW114537   3.531   1.702  11.476
 4619SOL    HW214538   3.416   1.653  11.390
 4620SOL     OW14539   2.658   0.616  12.626
 4620SOL    HW114540   2.629   0.592  12.714
 4620SOL    HW214541   2.616   0.552  12.568
 4621SOL     OW14542   3.255   0.476  12.849
 4621SOL    HW114543   3.258   0.521  12.934
 4621SOL    HW214544   3.314   0.402  12.858
 4622SOL     OW14545   2.817   0.888  12.754
 4622SOL    HW114546   2.872   0.818  12.719
 4622SOL    HW214547   2.770   0.922  12.678
 4623SOL     OW14548   2.853   0.403  12.413
 4623SOL    HW114549   2.771   0.429  12.455
 4623SOL    HW214550   2.827   0.372  12.326
 4624SOL     OW14551   2.913   0.698  11.598
 4624SOL    HW114552   2.927   0.692  11.692
 4624SOL    HW214553   2.830   0.652  11.583
 4625SOL     OW14554   1.950   0.821  11.948
 4625SOL    HW114555   2.031   0.813  11.999
 4625SOL    HW214556   1.908   0.900  11.983
 4626SOL     OW14557   2.755   0.350  11.371
 4626SOL    HW114558   2.796   0.409  11.308
 4626SOL    HW214559   2.753   0.265  11.327
 4627SOL     OW14560   3.573   0.576  13.001
 4627SOL    HW114561   3.535   0.651  12.955
 4627SOL    HW214562   3.596   0.514  12.931
 4628SOL     OW14563   3.237   1.142  11.713
 4628SOL    HW114564   3.317   1.129  11.662
 4628SOL    HW214565   3.185   1.204  11.663
 4629SOL     OW14566   2.417   0.198  12.054
 4629SOL    HW114567   2.421   0.215  12.148
 4629SOL    HW214568   2.415   0.284  12.013
 4630SOL     OW14569   2.869   1.445  11.645
 4630SOL    HW114570   2.830   1.517  11.595
 4630SOL    HW214571   2.851   1.467  11.736
 4631SOL     OW14572   2.225   1.799  12.007
 4631SOL    HW114573   2.261   1.714  12.032
 4631SOL    HW214574   2.291   1.862  12.037
 4632SOL     OW14575   3.665   1.062  12.038
 4632SOL    HW114576   3.610   1.041  11.963
 4632SOL    HW214577   3.605   1.066  12.112
 4633SOL     OW14578   3.090   1.539  12.685
 4633SOL    HW114579   3.076   1.466  12.746
 4633SOL    HW214580   3.027   1.523  12.614
 4634SOL     OW14581   2.183   0.958  11.422
 4634SOL    HW114582   2.265   0.977  11.376
 4634SOL    HW214583   2.153   0.875  11.383
 4635SOL     OW14584   3.340   0.741  11.902
 4635SOL    HW114585   3.331   0.699  11.987
 4635SOL    HW214586   3.416   0.798  11.910
 4636SOL     OW14587   2.328   1.263  12.910
 4636SOL    HW114588   2.300   1.268  12.819
 4636SOL    HW214589   2.246   1.261  12.960
 4637SOL     OW14590   2.983   1.777  11.403
 4637SOL    HW114591   2.910   1.736  11.449
 4637SOL    HW214592   3.006   1.716  11.333
 4638SOL     OW14593   2.037   0.277  12.669
 4638SOL    HW114594   1.975   0.350  12.665
 4638SOL    HW214595   2.045   0.258  12.763
 4639SOL     OW14596   3.489   1.381  11.259
 4639SOL    HW114597   3.446   1.466  11.244
 4639SOL    HW214598   3.421   1.317  11.240
 4640SOL     OW14599   2.337   1.719  11.511
 4640SOL    HW114600   2.372   1.793  11.560
 4640SOL    HW214601   2.395   1.712  11.434
 4641SOL     OW14602   3.296   0.163  11.574
 4641SOL    HW114603   3.256   0.092  11.524
 4641SOL    HW214604   3.374   0.122  11.614
 4642SOL     OW14605   2.156   1.764  12.408
 4642SOL    HW114606   2.197   1.683  12.438
 4642SOL    HW214607   2.121   1.743  12.321
 4643SOL     OW14608   2.799   1.698  12.071
 4643SOL    HW114609   2.877   1.647  12.092
 4643SOL    HW214610   2.755   1.649  12.002
 4644SOL     OW14611   2.254   0.695  11.648
 4644SOL    HW114612   2.275   0.603  11.659
 4644SOL    HW214613   2.161   0.701  11.667
 4645SOL     OW14614   3.394   0.232  12.898
 4645SOL    HW114615   3.391   0.256  12.991
 4645SOL    HW214616   3.364   0.141  12.897
 4646SOL     OW14617   2.503   0.136  11.278
 4646SOL    HW114618   2.537   0.055  11.318
 4646SOL    HW214619   2.440   0.105  11.212
 4647SOL     OW14620   2.640   0.281  12.936
 4647SOL    HW114621   2.703   0.210  12.942
 4647SOL    HW214622   2.578   0.265  13.007
 4648SOL     OW14623   2.738   1.522  12.365
 4648SOL    HW114624   2.723   1.485  12.278
 4648SOL    HW214625   2.808   1.467  12.402
 4649SOL     OW14626   3.204   0.587  12.602
 4649SOL    HW114627   3.234   0.558  12.689
 4649SOL    HW214628   3.237   0.676  12.593
 4650SOL     OW14629   2.676   1.396  12.110
 4650SOL    HW114630   2.760   1.384  12.066
 4650SOL    HW214631   2.612   1.396  12.040
 4651SOL     OW14632   2.791   0.510  12.074
 4651SOL    HW114633   2.767   0.503  11.982
 4651SOL    HW214634   2.819   0.423  12.099
 4652SOL     OW14635   2.408   0.058  11.665
 4652SOL    HW114636   2.333   0.062  11.724
 4652SOL    HW214637   2.403   0.138  11.614
 4653SOL     OW14638   3.290   1.198  11.213
 4653SOL    HW114639   3.320   1.123  11.263
 4653SOL    HW214640   3.204   1.219  11.251
 4654SOL     OW14641   2.188   0.042  11.380
 4654SOL    HW114642   2.203   0.112  11.316
 4654SOL    HW214643   2.272   0.031  11.424
 4655SOL     OW14644   2.800   0.247  11.635
 4655SOL    HW114645   2.775   0.289  11.553
 4655SOL    HW214646   2.896   0.249  11.634
 4656SOL     OW14647   2.942   0.681  12.632
 4656SOL    HW114648   2.870   0.618  12.638
 4656SOL    HW214649   3.021   0.627  12.626
 4657SOL     OW14650   3.085   1.570  11.966
 4657SOL    HW114651   3.103   1.637  11.899
 4657SOL    HW214652   3.154   1.583  12.031
 4658SOL     OW14653   2.331   1.149  11.907
 4658SOL    HW114654   2.261   1.130  11.969
 4658SOL    HW214655   2.291   1.133  11.821
 4659SOL     OW14656   3.132   1.794  11.779
 4659SOL    HW114657   3.178   1.855  11.721
 4659SOL    HW214658   3.067   1.848  11.824
 4660SOL     OW14659   2.886   0.547  11.195
 4660SOL    HW114660   2.842   0.629  11.176
 4660SOL    HW214661   2.949   0.568  11.264
 4661SOL     OW14662   1.940   0.552  12.567
 4661SOL    HW114663   2.031   0.552  12.537
 4661SOL    HW214664   1.935   0.625  12.629
 4662SOL     OW14665   2.427   0.232  12.333
 4662SOL    HW114666   2.453   0.140  12.344
 4662SOL    HW214667   2.337   0.236  12.365
 4663SOL     OW14668   2.732   0.461  11.811
 4663SOL    HW114669   2.684   0.514  11.748
 4663SOL    HW214670   2.752   0.380  11.764
 4664SOL     OW14671   2.856   0.042  11.951
 4664SOL    HW114672   2.823   0.066  11.864
 4664SOL    HW214673   2.867   3.947  11.947
 4665SOL     OW14674   3.299   1.163  12.030
 4665SOL    HW114675   3.230   1.097  12.028
 4665SOL    HW214676   3.324   1.175  11.938
 4666SOL     OW14677   3.328   0.605  12.151
 4666SOL    HW114678   3.278   0.523  12.156
 4666SOL    HW214679   3.389   0.600  12.224
 4667SOL     OW14680   3.722   0.823  11.547
 4667SOL    HW114681   3.764   0.766  11.611
 4667SOL    HW214682   3.682   0.763  11.484
 4668SOL     OW14683   2.355   1.416  11.330
 4668SOL    HW114684   2.280   1.389  11.383
 4668SOL    HW214685   2.336   1.383  11.242
 4669SOL     OW14686   3.528   1.265  11.819
 4669SOL    HW114687   3.623   1.270  11.828
 4669SOL    HW214688   3.497   1.353  11.840
 4670SOL     OW14689   3.256   0.573  11.242
 4670SOL    HW114690   3.194   0.555  11.312
 4670SOL    HW214691   3.342   0.555  11.281
 4671SOL     OW14692   2.389   0.266  11.490
 4671SOL    HW114693   2.440   0.225  11.420
 4671SOL    HW214694   2.363   0.351  11.455
 4672SOL     OW14695   3.614   1.234  12.744
 4672SOL    HW114696   3.702   1.199  12.726
 4672SOL    HW214697   3.630   1.323  12.776
 4673SOL     OW14698   2.921   1.354  12.506
 4673SOL    HW114699   2.846   1.322  12.557
 4673SOL    HW214700   2.997   1.312  12.547
 4674SOL     OW14701   3.467   1.627  12.825
 4674SOL    HW114702   3.461   1.661  12.736
 4674SOL    HW214703   3.549   1.578  12.827
 4675SOL     OW14704   2.990   1.203  12.278
 4675SOL    HW114705   2.931   1.241  12.343
 4675SOL    HW214706   2.957   1.234  12.194
 4676SOL     OW14707   3.493   1.098  12.249
 4676SOL    HW114708   3.486   1.160  12.322
 4676SOL    HW214709   3.414   1.114  12.197
 4677SOL     OW14710   2.775   0.112  12.574
 4677SOL    HW114711   2.795   0.087  12.484
 4677SOL    HW214712   2.855   0.154  12.605
 4678SOL     OW14713   2.846   1.114  12.895
 4678SOL    HW114714   2.754   1.131  12.915
 4678SOL    HW214715   2.845   1.037  12.839
 4679SOL     OW14716   2.570   1.061  11.543
 4679SOL    HW114717   2.556   1.045  11.637
 4679SOL    HW214718   2.646   1.007  11.521
 4680SOL     OW14719   2.280   0.814  12.423
 4680SOL    HW114720   2.349   0.823  12.489
 4680SOL    HW214721   2.245   0.726  12.436
 4681SOL     OW14722   3.129   0.375  12.447
 4681SOL    HW114723   3.163   0.453  12.491
 4681SOL    HW214724   3.042   0.402  12.416
 4682SOL     OW14725   1.933   1.577  12.525
 4682SOL    HW114726   1.897   1.641  12.464
 4682SOL    HW214727   2.028   1.582  12.511
 4683SOL     OW14728   2.213   1.107  11.663
 4683SOL    HW114729   2.217   1.182  11.604
 4683SOL    HW214730   2.211   1.031  11.606
 4684SOL     OW14731   2.418   0.536  12.030
 4684SOL    HW114732   2.433   0.595  11.957
 4684SOL    HW214733   2.481   0.564  12.097
 4685SOL     OW14734   3.110   1.348  11.561
 4685SOL    HW114735   3.166   1.420  11.592
 4685SOL    HW214736   3.023   1.369  11.595
 4686SOL     OW14737   3.142   1.457  12.319
 4686SOL    HW114738   3.197   1.460  12.396
 4686SOL    HW214739   3.087   1.380  12.331
 4687SOL     OW14740   3.437   0.631  11.654
 4687SOL    HW114741   3.398   0.690  11.718
 4687SOL    HW214742   3.486   0.688  11.595
 4688SOL     OW14743   2.216   1.512  12.491
 4688SOL    HW114744   2.201   1.472  12.405
 4688SOL    HW214745   2.311   1.525  12.495
 4689SOL     OW14746   2.276   0.745  12.773
 4689SOL    HW114747   2.337   0.790  12.715
 4689SOL    HW214748   2.317   0.660  12.789
 4690SOL     OW14749   3.462   0.776  12.852
 4690SOL    HW114750   3.376   0.818  12.845
 4690SOL    HW214751   3.515   0.819  12.784
 4691SOL     OW14752   2.884   0.122  12.950
 4691SOL    HW114753   2.919   0.201  12.908
 4691SOL    HW214754   2.868   0.061  12.878
 4692SOL     OW14755   2.347   0.034  12.936
 4692SOL    HW114756   2.354   0.040  12.840
 4692SOL    HW214757   2.289   0.107  12.960
 4693SOL     OW14758   2.446   0.872  12.204
 4693SOL    HW114759   2.473   0.964  12.202
 4693SOL    HW214760   2.388   0.867  12.280
 4694SOL     OW14761   3.220   0.859  12.203
 4694SOL    HW114762   3.138   0.850  12.155
 4694SOL    HW214763   3.260   0.772  12.198
 4695SOL     OW14764   3.067   0.534  11.435
 4695SOL    HW114765   3.074   0.455  11.488
 4695SOL    HW214766   3.023   0.598  11.492
 4696SOL     OW14767   2.164   0.212  12.414
 4696SOL    HW114768   2.125   0.241  12.496
 4696SOL    HW214769   2.151   0.117  12.413
 4697SOL     OW14770   1.906   1.313  12.451
 4697SOL    HW114771   1.941   1.258  12.521
 4697SOL    HW214772   1.916   1.402  12.483
 4698SOL     OW14773   2.587   0.633  12.228
 4698SOL    HW114774   2.661   0.617  12.169
 4698SOL    HW214775   2.558   0.722  12.207
 4699SOL     OW14776   3.596   0.955  13.031
 4699SOL    HW114777   3.549   0.903  12.966
 4699SOL    HW214778   3.532   0.969  13.101
 4700SOL     OW14779   2.183   0.057  11.818
 4700SOL    HW114780   2.162   0.150  11.830
 4700SOL    HW214781   2.143   0.014  11.893
 4701SOL     OW14782   3.469   0.387  11.553
 4701SOL    HW114783   3.442   0.319  11.614
 4701SOL    HW214784   3.447   0.469  11.597
 4702SOL     OW14785   2.890   0.759  12.133
 4702SOL    HW114786   2.887   0.777  12.227
 4702SOL    HW214787   2.863   0.668  12.124
 4703SOL     OW14788   2.844   1.566  12.888
 4703SOL    HW114789   2.829   1.610  12.804
 4703SOL    HW214790   2.887   1.484  12.865
 4704SOL     OW14791   3.708   1.504  12.773
 4704SOL    HW114792   3.729   1.531  12.683
 4704SOL    HW214793   3.789   1.519  12.822
 4705SOL     OW14794   2.215   0.915  12.981
 4705SOL    HW114795   2.297   0.935  13.025
 4705SOL    HW214796   2.239   0.853  12.912
 4706SOL     OW14797   3.369   0.275  11.308
 4706SOL    HW114798   3.294   0.218  11.320
 4706SOL    HW214799   3.383   0.315  11.394
 4707SOL     OW14800   3.154   0.827  11.203
 4707SOL    HW114801   3.196   0.741  11.206
 4707SOL    HW214802   3.186   0.867  11.122
 4708SOL     OW14803   2.927   1.335  12.026
 4708SOL    HW114804   2.930   1.263  11.963
 4708SOL    HW214805   2.989   1.400  11.991
 4709SOL     OW14806   2.171   0.809  12.120
 4709SOL    HW114807   2.264   0.831  12.113
 4709SOL    HW214808   2.169   0.719  12.152
 4710SOL     OW14809   2.199   0.533  12.185
 4710SOL    HW114810   2.158   0.448  12.169
 4710SOL    HW214811   2.275   0.534  12.126
 4711SOL     OW14812   2.995   0.383  12.864
 4711SOL    HW114813   2.948   0.438  12.926
 4711SOL    HW214814   3.083   0.422  12.859
 4712SOL     OW14815   3.013   0.225  12.653
 4712SOL    HW114816   3.005   0.279  12.731
 4712SOL    HW214817   3.035   0.286  12.583
 4713SOL     OW14818   1.866   1.320  11.366
 4713SOL    HW114819   1.779   1.333  11.329
 4713SOL    HW214820   1.865   1.231  11.400
 4714SOL     OW14821   1.974   1.733  12.154
 4714SOL    HW114822   1.937   1.670  12.092
 4714SOL    HW214823   2.018   1.797  12.098
 4715SOL     OW14824   2.362   1.571  12.082
 4715SOL    HW114825   2.430   1.634  12.104
 4715SOL    HW214826   2.405   1.509  12.023
 4716SOL     OW14827   2.846   0.791  12.398
 4716SOL    HW114828   2.900   0.769  12.474
 4716SOL    HW214829   2.760   0.757  12.420
 4717SOL     OW14830   1.896   0.545  12.289
 4717SOL    HW114831   1.972   0.520  12.237
 4717SOL    HW214832   1.928   0.548  12.379
 4718SOL     OW14833   2.064   0.526  12.887
 4718SOL    HW114834   2.130   0.503  12.822
 4718SOL    HW214835   2.017   0.599  12.848
 4719SOL     OW14836   3.240   0.939  12.831
 4719SOL    HW114837   3.260   1.033  12.830
 4719SOL    HW214838   3.236   0.914  12.738
 4720SOL     OW14839   2.678   0.571  11.531
 4720SOL    HW114840   2.683   0.495  11.473
 4720SOL    HW214841   2.603   0.622  11.499
 4721SOL     OW14842   3.503   0.602  12.359
 4721SOL    HW114843   3.492   0.541  12.432
 4721SOL    HW214844   3.589   0.580  12.322
 4722SOL     OW14845   2.115   1.537  12.881
 4722SOL    HW114846   2.101   1.607  12.945
 4722SOL    HW214847   2.115   1.457  12.934
 4723SOL     OW14848   2.561   0.456  12.433
 4723SOL    HW114849   2.514   0.378  12.405
 4723SOL    HW214850   2.556   0.515  12.357
 4724SOL     OW14851   2.790   1.679  12.639
 4724SOL    HW114852   2.764   1.645  12.553
 4724SOL    HW214853   2.787   1.774  12.630
 4725SOL     OW14854   2.327   0.494  11.358
 4725SOL    HW114855   2.385   0.567  11.380
 4725SOL    HW214856   2.241   0.534  11.346
 4726SOL     OW14857   2.007   1.140  12.644
 4726SOL    HW114858   2.011   1.088  12.724
 4726SOL    HW214859   2.025   1.077  12.574
 4727SOL     OW14860   3.188   1.047  12.396
 4727SOL    HW114861   3.212   0.984  12.328
 4727SOL    HW214862   3.117   1.099  12.357
 4728SOL     OW14863   3.173   0.855  11.478
 4728SOL    HW114864   3.096   0.827  11.528
 4728SOL    HW214865   3.147   0.843  11.387
 4729SOL     OW14866   3.637   1.745  12.325
 4729SOL    HW114867   3.693   1.772  12.252
 4729SOL    HW214868   3.610   1.656  12.303
 4730SOL     OW14869   3.103   1.733  12.286
 4730SOL    HW114870   3.185   1.754  12.241
 4730SOL    HW214871   3.108   1.640  12.304
 4731SOL     OW14872   1.947   1.264  12.187
 4731SOL    HW114873   1.931   1.278  12.280
 4731SOL    HW214874   1.872   1.212  12.157
 4732SOL     OW14875   2.538   1.664  12.898
 4732SOL    HW114876   2.488   1.746  12.899
 4732SOL    HW214877   2.603   1.677  12.829
 4733SOL     OW14878   3.555   0.123  11.658
 4733SOL    HW114879   3.637   0.135  11.611
 4733SOL    HW214880   3.554   0.030  11.682
 4734SOL     OW14881   3.252   1.567  11.656
 4734SOL    HW114882   3.312   1.599  11.590
 4734SOL    HW214883   3.204   1.645  11.684
 4735SOL     OW14884   2.042   1.739  13.036
 4735SOL    HW114885   1.971   1.698  13.085
 4735SOL    HW214886   2.011   1.828  13.019
 4736SOL     OW14887   3.139   0.925  11.842
 4736SOL    HW114888   3.213   0.865  11.850
 4736SOL    HW214889   3.173   0.998  11.791
 4737SOL     OW14890   2.677   1.272  12.602
 4737SOL    HW114891   2.650   1.312  12.685
 4737SOL    HW214892   2.607   1.294  12.541
 4738SOL     OW14893   2.538   1.618  11.324
 4738SOL    HW114894   2.544   1.628  11.229
 4738SOL    HW214895   2.481   1.542  11.336
 4739SOL     OW14896   3.487   1.727  12.563
 4739SOL    HW114897   3.540   1.732  12.483
 4739SOL    HW214898   3.475   1.817  12.591
 4740SOL     OW14899   3.702   0.180  12.142
 4740SOL    HW114900   3.727   0.096  12.103
 4740SOL    HW214901   3.615   0.198  12.106
 4741SOL     OW14902   2.127   0.318  11.888
 4741SOL    HW114903   2.041   0.353  11.866
 4741SOL    HW214904   2.125   0.307  11.983
 4742SOL     OW14905   3.069   1.606  11.203
 4742SOL    HW114906   3.060   1.515  11.230
 4742SOL    HW214907   3.003   1.618  11.134
 4743SOL     OW14908   2.687   1.006  12.544
 4743SOL    HW114909   2.728   1.003  12.457
 4743SOL    HW214910   2.686   1.098  12.567
 4744SOL     OW14911   2.778   0.910  11.462
 4744SOL    HW114912   2.839   0.942  11.396
 4744SOL    HW214913   2.825   0.840  11.507
 4745SOL     OW14914   3.354   1.626  11.214
 4745SOL    HW114915   3.259   1.619  11.201
 4745SOL    HW214916   3.390   1.632  11.126
 4746SOL     OW14917   2.232   1.297  12.665
 4746SOL    HW114918   2.221   1.375  12.611
 4746SOL    HW214919   2.154   1.244  12.648
 4747SOL     OW14920   3.466   1.280  12.451
 4747SOL    HW114921   3.533   1.275  12.519
 4747SOL    HW214922   3.409   1.351  12.480
 4748SOL     OW14923   2.913   1.107  11.878
 4748SOL    HW114924   2.842   1.056  11.917
 4748SOL    HW214925   2.975   1.041  11.846
 4749SOL     OW14926   2.877   0.247  12.140
 4749SOL    HW114927   2.866   0.197  12.059
 4749SOL    HW214928   2.870   0.182  12.209
 4750SOL     OW14929   2.463   1.489  11.653
 4750SOL    HW114930   2.505   1.440  11.583
 4750SOL    HW214931   2.401   1.547  11.609
 4751SOL     OW14932   3.581   0.391  12.546
 4751SOL    HW114933   3.652   0.456  12.545
 4751SOL    HW214934   3.613   0.320  12.491
 4752SOL     OW14935   2.121   1.346  11.458
 4752SOL    HW114936   2.027   1.343  11.437
 4752SOL    HW214937   2.125   1.380  11.547
 4753SOL     OW14938   1.974   1.021  12.891
 4753SOL    HW114939   1.898   0.998  12.944
 4753SOL    HW214940   2.049   0.983  12.939
 4754SOL     OW14941   2.553   0.243  12.669
 4754SOL    HW114942   2.623   0.192  12.629
 4754SOL    HW214943   2.579   0.251  12.761
 4755SOL     OW14944   1.959   0.319  11.161
 4755SOL    HW114945   1.883   0.336  11.216
 4755SOL    HW214946   1.975   0.401  11.115
 4756SOL     OW14947   3.291   0.857  12.572
 4756SOL    HW114948   3.241   0.919  12.517
 4756SOL    HW214949   3.380   0.860  12.537
 4757SOL     OW14950   1.945   0.154  11.513
 4757SOL    HW114951   1.914   0.217  11.447
 4757SOL    HW214952   2.029   0.124  11.479
 4758SOL     OW14953   3.041   1.340  11.289
 4758SOL    HW114954   2.950   1.310  11.292
 4758SOL    HW214955   3.069   1.340  11.380
 4759SOL     OW14956   2.482   0.830  12.605
 4759SOL    HW114957   2.537   0.906  12.590
 4759SOL    HW214958   2.543   0.757  12.614
 4760SOL     OW14959   3.346   1.777  12.150
 4760SOL    HW114960   3.370   1.835  12.078
 4760SOL    HW214961   3.428   1.756  12.192
 4761SOL     OW14962   2.579   0.563  12.878
 4761SOL    HW114963   2.618   0.626  12.938
 4761SOL    HW214964   2.611   0.478  12.909
 4762SOL     OW14965   3.332   1.201  12.804
 4762SOL    HW114966   3.321   1.215  12.898
 4762SOL    HW214967   3.426   1.215  12.789
 4763SOL     OW14968   2.241   1.744  12.743
 4763SOL    HW114969   2.162   1.761  12.692
 4763SOL    HW214970   2.225   1.659  12.784
 4764SOL     OW14971   3.529   0.881  12.431
 4764SOL    HW114972   3.527   0.796  12.387
 4764SOL    HW214973   3.523   0.945  12.360
 4765SOL     OW14974   3.085   0.334  11.618
 4765SOL    HW114975   3.152   0.266  11.609
 4765SOL    HW214976   3.107   0.379  11.700
 4766SOL     OW14977   2.453   0.739  11.840
 4766SOL    HW114978   2.491   0.825  11.825
 4766SOL    HW214979   2.384   0.731  11.775
 4767SOL     OW14980   3.618   0.380  12.814
 4767SOL    HW114981   3.598   0.387  12.721
 4767SOL    HW214982   3.559   0.312  12.847
 4768SOL     OW14983   3.613   0.932  12.686
 4768SOL    HW114984   3.608   1.026  12.701
 4768SOL    HW214985   3.592   0.921  12.594
 4769SOL     OW14986   2.724   1.368  11.205
 4769SOL    HW114987   2.685   1.394  11.288
 4769SOL    HW214988   2.742   1.450  11.160
 4770SOL     OW14989   2.523   1.795  12.118
 4770SOL    HW114990   2.505   1.885  12.091
 4770SOL    HW214991   2.617   1.785  12.109
 4771SOL     OW14992   2.729   0.966  12.028
 4771SOL    HW114993   2.779   0.896  12.067
 4771SOL    HW214994   2.695   1.016  12.102
 4772SOL     OW14995   2.941   0.988  11.261
 4772SOL    HW114996   2.919   1.039  11.183
 4772SOL    HW214997   3.016   0.935  11.234
 4773SOL     OW14998   3.718   1.557  12.014
 4773SOL    HW114999   3.639   1.541  11.962
 4773SOL    HW215000   3.714   1.490  12.083
 4774SOL     OW15001   2.087   1.302  13.028
 4774SOL    HW115002   2.019   1.240  13.002
 4774SOL    HW215003   2.074   1.314  13.122
 4775SOL     OW15004   1.941   1.228  11.836
 4775SOL    HW115005   1.952   1.182  11.919
 4775SOL    HW215006   2.015   1.197  11.783
 4776SOL     OW15007   2.542   1.402  12.798
 4776SOL    HW115008   2.463   1.359  12.830
 4776SOL    HW215009   2.538   1.490  12.836
 4777SOL     OW15010   3.678   0.182  12.416
 4777SOL    HW115011   3.679   0.087  12.424
 4777SOL    HW215012   3.694   0.199  12.323
 4778SOL     OW15013   2.290   0.434  11.696
 4778SOL    HW115014   2.322   0.362  11.642
 4778SOL    HW215015   2.244   0.391  11.769
 4779SOL     OW15016   3.561   1.492  12.271
 4779SOL    HW115017   3.481   1.467  12.224
 4779SOL    HW215018   3.575   1.421  12.335
 4780SOL     OW15019   2.190   0.554  12.464
 4780SOL    HW115020   2.244   0.497  12.519
 4780SOL    HW215021   2.210   0.528  12.375
 4781SOL     OW15022   2.688   1.578  11.850
 4781SOL    HW115023   2.676   1.628  11.769
 4781SOL    HW215024   2.611   1.521  11.854
 4782SOL     OW15025   3.323   0.251  12.283
 4782SOL    HW115026   3.337   0.163  12.319
 4782SOL    HW215027   3.266   0.293  12.347
 4783SOL     OW15028   2.868   0.029  12.319
 4783SOL    HW115029   2.792   3.980  12.289
 4783SOL    HW215030   2.937   3.963  12.327
 4784SOL     OW15031   2.635   1.332  11.484
 4784SOL    HW115032   2.602   1.243  11.492
 4784SOL    HW215033   2.716   1.332  11.535
 4785SOL     OW15034   2.483   1.556  12.458
 4785SOL    HW115035   2.485   1.639  12.507
 4785SOL    HW215036   2.570   1.549  12.419
 4786SOL     OW15037   3.177   0.072  11.332
 4786SOL    HW115038   3.191   0.000  11.271
 4786SOL    HW215039   3.092   0.054  11.372
 4787SOL     OW15040   3.147   0.457  11.859
 4787SOL    HW115041   3.099   0.540  11.856
 4787SOL    HW215042   3.151   0.436  11.952
 4788SOL     OW15043   3.452   0.211  12.039
 4788SOL    HW115044   3.402   0.233  12.118
 4788SOL    HW215045   3.451   0.291  11.987
 4789SOL     OW15046   1.906   1.072  11.476
 4789SOL    HW115047   2.000   1.064  11.461
 4789SOL    HW215048   1.878   0.984  11.501
 4790SOL     OW15049   2.745   1.652  11.516
 4790SOL    HW115050   2.674   1.634  11.454
 4790SOL    HW215051   2.714   1.728  11.566
 4791SOL     OW15052   2.092   0.621  13.156
 4791SOL    HW115053   2.001   0.625  13.186
 4791SOL    HW215054   2.085   0.600  13.062
 4792SOL     OW15055   2.114   0.265   0.126
 4792SOL    HW115056   2.144   0.319   0.199
 4792SOL    HW215057   2.018   0.272   0.129
 4793SOL     OW15058   1.871   0.390  13.647
 4793SOL    HW115059   1.779   0.401  13.671
 4793SOL    HW215060   1.875   0.301  13.611
 4794SOL     OW15061   3.395   1.501  13.723
 4794SOL    HW115062   3.335   1.447  13.775
 4794SOL    HW215063   3.347   1.518  13.642
 4795SOL     OW15064   2.991   0.701  13.736
 4795SOL    HW115065   3.046   0.774  13.708
 4795SOL    HW215066   2.939   0.737  13.809
 4796SOL     OW15067   3.625   0.619  13.262
 4796SOL    HW115068   3.607   0.611  13.169
 4796SOL    HW215069   3.605   0.533  13.299
 4797SOL     OW15070   2.547   1.012  13.673
 4797SOL    HW115071   2.602   0.989  13.748
 4797SOL    HW215072   2.473   1.060  13.712
 4798SOL     OW15073   3.481   0.462  13.768
 4798SOL    HW115074   3.398   0.473  13.721
 4798SOL    HW215075   3.500   0.548  13.805
 4799SOL     OW15076   2.095   1.694  13.498
 4799SOL    HW115077   2.116   1.760  13.563
 4799SOL    HW215078   2.168   1.696  13.437
 4800SOL     OW15079   2.095   1.431  13.569
 4800SOL    HW115080   2.082   1.526  13.564
 4800SOL    HW215081   2.029   1.402  13.633
 4801SOL     OW15082   2.100   1.104   0.023
 4801SOL    HW115083   2.121   1.040   0.091
 4801SOL    HW215084   2.036   1.162   0.063
 4802SOL     OW15085   2.449   0.981  13.167
 4802SOL    HW115086   2.493   1.031  13.098
 4802SOL    HW215087   2.488   1.012  13.248
 4803SOL     OW15088   1.979   0.655  13.589
 4803SOL    HW115089   1.948   0.566  13.602
 4803SOL    HW215090   1.962   0.699  13.672
 4804SOL     OW15091   3.700   1.758  13.371
 4804SOL    HW115092   3.768   1.732  13.433
 4804SOL    HW215093   3.722   1.849  13.348
 4805SOL     OW15094   1.860   1.605  13.185
 4805SOL    HW115095   1.856   1.510  13.171
 4805SOL    HW215096   1.880   1.614  13.278
 4806SOL     OW15097   3.546   0.913  13.665
 4806SOL    HW115098   3.637   0.885  13.650
 4806SOL    HW215099   3.526   0.971  13.592
 4807SOL     OW15100   3.504   1.105  13.463
 4807SOL    HW115101   3.588   1.112  13.418
 4807SOL    HW215102   3.511   1.168  13.535
 4808SOL     OW15103   2.467   1.385  13.762
 4808SOL    HW115104   2.425   1.299  13.769
 4808SOL    HW215105   2.446   1.414  13.673
 4809SOL     OW15106   2.680   0.002  13.550
 4809SOL    HW115107   2.725   0.083  13.525
 4809SOL    HW215108   2.587   0.024  13.549
 4810SOL     OW15109   3.391   0.992  13.233
 4810SOL    HW115110   3.322   0.935  13.266
 4810SOL    HW215111   3.431   1.029  13.312
 4811SOL     OW15112   3.518   1.739  13.613
 4811SOL    HW115113   3.498   1.710  13.524
 4811SOL    HW215114   3.511   1.659  13.666
 4812SOL     OW15115   2.456   0.723  13.298
 4812SOL    HW115116   2.462   0.804  13.248
 4812SOL    HW215117   2.392   0.741  13.366
 4813SOL     OW15118   3.112   0.337   0.055
 4813SOL    HW115119   3.021   0.321   0.082
 4813SOL    HW215120   3.164   0.298   0.125
 4814SOL     OW15121   3.441   1.671  13.342
 4814SOL    HW115122   3.531   1.702  13.338
 4814SOL    HW215123   3.416   1.653  13.251
 4815SOL     OW15124   2.910   0.696  13.460
 4815SOL    HW115125   2.923   0.685  13.554
 4815SOL    HW215126   2.829   0.650  13.441
 4816SOL     OW15127   1.942   0.817  13.810
 4816SOL    HW115128   2.026   0.814  13.857
 4816SOL    HW215129   1.899   0.896  13.844
 4817SOL     OW15130   2.754   0.350  13.232
 4817SOL    HW115131   2.795   0.409  13.169
 4817SOL    HW215132   2.754   0.264  13.189
 4818SOL     OW15133   3.225   1.135  13.556
 4818SOL    HW115134   3.315   1.134  13.522
 4818SOL    HW215135   3.183   1.207  13.509
 4819SOL     OW15136   2.867   1.442  13.504
 4819SOL    HW115137   2.830   1.517  13.456
 4819SOL    HW215138   2.840   1.457  13.595
 4820SOL     OW15139   2.259   1.784  13.856
 4820SOL    HW115140   2.250   1.698  13.896
 4820SOL    HW215141   2.329   1.826   0.005
 4821SOL     OW15142   3.652   1.055  13.899
 4821SOL    HW115143   3.591   1.052  13.825
 4821SOL    HW215144   3.596   1.053   0.076
 4822SOL     OW15145   2.183   0.957  13.285
 4822SOL    HW115146   2.265   0.977  13.238
 4822SOL    HW215147   2.152   0.876  13.245
 4823SOL     OW15148   3.349   0.731  13.751
 4823SOL    HW115149   3.334   0.690  13.836
 4823SOL    HW215150   3.418   0.796  13.767
 4824SOL     OW15151   2.983   1.778  13.265
 4824SOL    HW115152   2.911   1.736  13.311
 4824SOL    HW215153   3.006   1.716  13.195
 4825SOL     OW15154   3.489   1.381  13.120
 4825SOL    HW115155   3.447   1.466  13.106
 4825SOL    HW215156   3.421   1.317  13.102
 4826SOL     OW15157   2.337   1.719  13.372
 4826SOL    HW115158   2.372   1.793  13.422
 4826SOL    HW215159   2.395   1.713  13.296
 4827SOL     OW15160   3.286   0.158  13.443
 4827SOL    HW115161   3.252   0.100  13.376
 4827SOL    HW215162   3.376   0.129  13.458
 4828SOL     OW15163   2.788   1.692   0.012
 4828SOL    HW115164   2.826   1.626   0.071
 4828SOL    HW215165   2.746   1.641  13.843
 4829SOL     OW15166   2.254   0.698  13.510
 4829SOL    HW115167   2.276   0.605  13.519
 4829SOL    HW215168   2.160   0.702  13.527
 4830SOL     OW15169   2.503   0.136  13.139
 4830SOL    HW115170   2.537   0.055  13.179
 4830SOL    HW215171   2.441   0.105  13.073
 4831SOL     OW15172   2.411   0.058  13.529
 4831SOL    HW115173   2.335   0.061  13.587
 4831SOL    HW215174   2.404   0.137  13.476
 4832SOL     OW15175   3.290   1.198  13.075
 4832SOL    HW115176   3.320   1.123  13.126
 4832SOL    HW215177   3.205   1.220  13.113
 4833SOL     OW15178   2.188   0.043  13.241
 4833SOL    HW115179   2.204   0.112  13.176
 4833SOL    HW215180   2.273   0.030  13.283
 4834SOL     OW15181   2.800   0.245  13.495
 4834SOL    HW115182   2.773   0.289  13.415
 4834SOL    HW215183   2.895   0.251  13.495
 4835SOL     OW15184   2.326   1.142  13.773
 4835SOL    HW115185   2.252   1.129  13.832
 4835SOL    HW215186   2.290   1.130  13.686
 4836SOL     OW15187   3.133   1.797  13.634
 4836SOL    HW115188   3.176   1.862  13.579
 4836SOL    HW215189   3.066   1.845  13.682
 4837SOL     OW15190   2.886   0.547  13.057
 4837SOL    HW115191   2.842   0.629  13.038
 4837SOL    HW215192   2.949   0.568  13.126
 4838SOL     OW15193   2.755   0.473  13.666
 4838SOL    HW115194   2.685   0.517  13.617
 4838SOL    HW215195   2.760   0.386  13.628
 4839SOL     OW15196   2.862   0.040  13.798
 4839SOL    HW115197   2.830   0.063  13.710
 4839SOL    HW215198   2.883   3.947  13.792
 4840SOL     OW15199   3.727   0.822  13.409
 4840SOL    HW115200   3.773   0.765  13.471
 4840SOL    HW215201   3.686   0.761  13.347
 4841SOL     OW15202   2.355   1.416  13.192
 4841SOL    HW115203   2.280   1.389  13.245
 4841SOL    HW215204   2.336   1.383  13.104
 4842SOL     OW15205   3.538   1.266  13.670
 4842SOL    HW115206   3.632   1.272  13.688
 4842SOL    HW215207   3.502   1.349  13.701
 4843SOL     OW15208   3.256   0.573  13.104
 4843SOL    HW115209   3.194   0.555  13.174
 4843SOL    HW215210   3.341   0.553  13.142
 4844SOL     OW15211   2.390   0.266  13.352
 4844SOL    HW115212   2.440   0.225  13.281
 4844SOL    HW215213   2.364   0.350  13.316
 4845SOL     OW15214   2.570   1.062  13.402
 4845SOL    HW115215   2.556   1.047  13.495
 4845SOL    HW215216   2.647   1.008  13.380
 4846SOL     OW15217   2.216   1.107  13.526
 4846SOL    HW115218   2.218   1.183  13.468
 4846SOL    HW215219   2.212   1.032  13.468
 4847SOL     OW15220   2.434   0.541  13.865
 4847SOL    HW115221   2.446   0.610  13.800
 4847SOL    HW215222   2.486   0.568   0.040
 4848SOL     OW15223   3.109   1.350  13.420
 4848SOL    HW115224   3.164   1.423  13.448
 4848SOL    HW215225   3.022   1.370  13.455
 4849SOL     OW15226   3.447   0.631  13.512
 4849SOL    HW115227   3.407   0.684  13.581
 4849SOL    HW215228   3.484   0.694  13.451
 4850SOL     OW15229   3.067   0.533  13.298
 4850SOL    HW115230   3.073   0.453  13.351
 4850SOL    HW215231   3.023   0.596  13.354
 4851SOL     OW15232   2.192   0.053  13.684
 4851SOL    HW115233   2.168   0.146  13.691
 4851SOL    HW215234   2.120   0.007  13.726
 4852SOL     OW15235   3.459   0.388  13.409
 4852SOL    HW115236   3.444   0.319  13.474
 4852SOL    HW215237   3.443   0.469  13.456
 4853SOL     OW15238   3.369   0.278  13.168
 4853SOL    HW115239   3.294   0.219  13.181
 4853SOL    HW215240   3.383   0.318  13.254
 4854SOL     OW15241   3.154   0.827  13.064
 4854SOL    HW115242   3.196   0.741  13.067
 4854SOL    HW215243   3.185   0.867  12.983
 4855SOL     OW15244   1.866   1.321  13.228
 4855SOL    HW115245   1.779   1.333  13.191
 4855SOL    HW215246   1.865   1.231  13.262
 4856SOL     OW15247   2.678   0.574  13.387
 4856SOL    HW115248   2.681   0.496  13.331
 4856SOL    HW215249   2.601   0.622  13.356
 4857SOL     OW15250   2.328   0.494  13.220
 4857SOL    HW115251   2.385   0.567  13.242
 4857SOL    HW215252   2.241   0.533  13.208
 4858SOL     OW15253   3.175   0.849  13.339
 4858SOL    HW115254   3.095   0.829  13.389
 4858SOL    HW215255   3.149   0.841  13.248
 4859SOL     OW15256   3.545   0.119  13.476
 4859SOL    HW115257   3.637   0.127  13.451
 4859SOL    HW215258   3.545   0.057  13.549
 4860SOL     OW15259   3.245   1.572  13.508
 4860SOL    HW115260   3.306   1.607  13.444
 4860SOL    HW215261   3.201   1.648  13.544
 4861SOL     OW15262   3.150   0.914  13.686
 4861SOL    HW115263   3.227   0.860  13.670
 4861SOL    HW215264   3.171   0.999  13.647
 4862SOL     OW15265   2.538   1.618  13.185
 4862SOL    HW115266   2.544   1.628  13.090
 4862SOL    HW215267   2.481   1.541  13.197
 4863SOL     OW15268   3.677   0.159   0.058
 4863SOL    HW115269   3.714   0.071   0.060
 4863SOL    HW215270   3.583   0.146   0.042
 4864SOL     OW15271   2.137   0.314  13.745
 4864SOL    HW115272   2.047   0.332  13.720
 4864SOL    HW215273   2.136   0.309  13.840
 4865SOL     OW15274   3.069   1.606  13.065
 4865SOL    HW115275   3.060   1.515  13.092
 4865SOL    HW215276   3.003   1.618  12.996
 4866SOL     OW15277   2.780   0.913  13.327
 4866SOL    HW115278   2.840   0.942  13.259
 4866SOL    HW215279   2.825   0.838  13.367
 4867SOL     OW15280   3.354   1.625  13.076
 4867SOL    HW115281   3.259   1.619  13.063
 4867SOL    HW215282   3.390   1.632  12.988
 4868SOL     OW15283   2.912   1.090  13.754
 4868SOL    HW115284   2.824   1.052  13.747
 4868SOL    HW215285   2.962   1.048  13.684
 4869SOL     OW15286   2.459   1.489  13.510
 4869SOL    HW115287   2.503   1.441  13.439
 4869SOL    HW215288   2.401   1.550  13.465
 4870SOL     OW15289   2.121   1.345  13.319
 4870SOL    HW115290   2.027   1.343  13.299
 4870SOL    HW215291   2.125   1.380  13.408
 4871SOL     OW15292   1.959   0.319  13.023
 4871SOL    HW115293   1.882   0.336  13.078
 4871SOL    HW215294   1.975   0.402  12.978
 4872SOL     OW15295   1.953   0.156  13.369
 4872SOL    HW115296   1.922   0.220  13.304
 4872SOL    HW215297   2.036   0.124  13.333
 4873SOL     OW15298   3.041   1.340  13.150
 4873SOL    HW115299   2.950   1.311  13.153
 4873SOL    HW215300   3.069   1.341  13.241
 4874SOL     OW15301   3.082   0.330  13.485
 4874SOL    HW115302   3.151   0.265  13.472
 4874SOL    HW215303   3.111   0.381  13.561
 4875SOL     OW15304   2.455   0.750  13.693
 4875SOL    HW115305   2.490   0.837  13.672
 4875SOL    HW215306   2.384   0.737  13.630
 4876SOL     OW15307   2.724   1.368  13.067
 4876SOL    HW115308   2.685   1.394  13.150
 4876SOL    HW215309   2.743   1.450  13.022
 4877SOL     OW15310   2.514   1.844   0.068
 4877SOL    HW115311   2.524   1.939   0.057
 4877SOL    HW215312   2.604   1.812   0.077
 4878SOL     OW15313   2.694   0.962  13.893
 4878SOL    HW115314   2.735   0.886   0.035
 4878SOL    HW215315   2.704   1.033   0.057
 4879SOL     OW15316   2.940   0.987  13.123
 4879SOL    HW115317   2.919   1.039  13.046
 4879SOL    HW215318   3.016   0.934  13.096
 4880SOL     OW15319   1.947   1.231  13.701
 4880SOL    HW115320   1.947   1.174  13.778
 4880SOL    HW215321   2.017   1.196  13.646
 4881SOL     OW15322   2.291   0.436  13.552
 4881SOL    HW115323   2.324   0.363  13.500
 4881SOL    HW215324   2.252   0.395  13.629
 4882SOL     OW15325   3.541   1.462   0.340
 4882SOL    HW115326   3.513   1.441   0.252
 4882SOL    HW215327   3.625   1.418   0.350
 4883SOL     OW15328   2.682   1.553  13.712
 4883SOL    HW115329   2.664   1.608  13.635
 4883SOL    HW215330   2.602   1.501  13.723
 4884SOL     OW15331   2.635   1.333  13.345
 4884SOL    HW115332   2.602   1.243  13.352
 4884SOL    HW215333   2.716   1.333  13.395
 4885SOL     OW15334   3.177   0.075  13.200
 4885SOL    HW115335   3.199   0.004  13.138
 4885SOL    HW215336   3.091   0.051  13.233
 4886SOL     OW15337   3.156   0.460  13.717
 4886SOL    HW115338   3.104   0.540  13.719
 4886SOL    HW215339   3.152   0.427  13.807
 4887SOL     OW15340   1.907   1.072  13.338
 4887SOL    HW115341   2.001   1.064  13.321
 4887SOL    HW215342   1.878   0.984  13.362
 4888SOL     OW15343   2.745   1.652  13.377
 4888SOL    HW115344   2.674   1.635  13.316
 4888SOL    HW215345   2.714   1.726  13.429
 4889SOL     OW15346   2.096   2.501   0.110
 4889SOL    HW115347   2.010   2.472   0.139
 4889SOL    HW215348   2.114   2.451   0.031
 4890SOL     OW15349   1.870   2.280   0.633
 4890SOL    HW115350   1.781   2.276   0.667
 4890SOL    HW215351   1.879   2.199   0.582
 4891SOL     OW15352   2.429   3.148   1.174
 4891SOL    HW115353   2.341   3.152   1.135
 4891SOL    HW215354   2.444   3.236   1.208
 4892SOL     OW15355   3.421   3.373   0.707
 4892SOL    HW115356   3.377   3.352   0.789
 4892SOL    HW215357   3.351   3.377   0.642
 4893SOL     OW15358   2.991   2.561   0.702
 4893SOL    HW115359   3.041   2.641   0.687
 4893SOL    HW215360   2.945   2.576   0.785
 4894SOL     OW15361   3.623   2.468   0.230
 4894SOL    HW115362   3.627   2.432   0.142
 4894SOL    HW215363   3.588   2.396   0.283
 4895SOL     OW15364   2.618   3.005   1.039
 4895SOL    HW115365   2.549   3.039   1.096
 4895SOL    HW215366   2.653   3.082   0.995
 4896SOL     OW15367   2.726   2.638   1.821
 4896SOL    HW115368   2.714   2.709   1.884
 4896SOL    HW215369   2.751   2.682   1.740
 4897SOL     OW15370   2.547   2.864   0.648
 4897SOL    HW115371   2.613   2.853   0.717
 4897SOL    HW215372   2.478   2.917   0.688
 4898SOL     OW15373   2.572   3.013   1.811
 4898SOL    HW115374   2.619   3.092   1.837
 4898SOL    HW215375   2.489   3.046   1.777
 4899SOL     OW15376   2.194   3.287   1.067
 4899SOL    HW115377   2.120   3.252   1.017
 4899SOL    HW215378   2.243   3.340   1.004
 4900SOL     OW15379   3.322   3.362   1.353
 4900SOL    HW115380   3.373   3.442   1.363
 4900SOL    HW215381   3.263   3.361   1.427
 4901SOL     OW15382   2.284   2.237   1.479
 4901SOL    HW115383   2.372   2.202   1.492
 4901SOL    HW215384   2.226   2.162   1.492
 4902SOL     OW15385   3.474   2.310   0.741
 4902SOL    HW115386   3.400   2.335   0.687
 4902SOL    HW215387   3.493   2.388   0.793
 4903SOL     OW15388   2.082   3.574   0.483
 4903SOL    HW115389   2.114   3.643   0.542
 4903SOL    HW215390   2.142   3.577   0.408
 4904SOL     OW15391   2.998   3.203   1.692
 4904SOL    HW115392   3.039   3.198   1.779
 4904SOL    HW215393   2.945   3.124   1.686
 4905SOL     OW15394   2.083   3.303   0.531
 4905SOL    HW115395   2.075   3.398   0.538
 4905SOL    HW215396   2.027   3.269   0.601
 4906SOL     OW15397   2.118   2.953   0.890
 4906SOL    HW115398   2.114   2.867   0.932
 4906SOL    HW215399   2.061   3.008   0.943
 4907SOL     OW15400   2.475   3.649   1.430
 4907SOL    HW115401   2.392   3.634   1.476
 4907SOL    HW215402   2.500   3.738   1.455
 4908SOL     OW15403   2.433   2.841   0.157
 4908SOL    HW115404   2.457   2.891   0.078
 4908SOL    HW215405   2.486   2.880   0.226
 4909SOL     OW15406   3.458   1.985   1.468
 4909SOL    HW115407   3.461   2.066   1.417
 4909SOL    HW215408   3.446   2.014   1.558
 4910SOL     OW15409   1.981   2.519   0.560
 4910SOL    HW115410   1.948   2.432   0.581
 4910SOL    HW215411   1.971   2.569   0.641
 4911SOL     OW15412   3.699   3.616   0.340
 4911SOL    HW115413   3.762   3.583   0.403
 4911SOL    HW215414   3.725   3.707   0.325
 4912SOL     OW15415   1.884   3.467   0.108
 4912SOL    HW115416   1.888   3.375   0.135
 4912SOL    HW215417   1.869   3.516   0.189
 4913SOL     OW15418   3.549   2.780   0.642
 4913SOL    HW115419   3.634   2.739   0.626
 4913SOL    HW215420   3.531   2.830   0.563
 4914SOL     OW15421   3.505   2.968   0.432
 4914SOL    HW115422   3.591   2.974   0.391
 4914SOL    HW215423   3.508   3.030   0.505
 4915SOL     OW15424   1.983   2.605   1.584
 4915SOL    HW115425   2.074   2.630   1.598
 4915SOL    HW215426   1.934   2.687   1.594
 4916SOL     OW15427   2.476   3.247   0.735
 4916SOL    HW115428   2.429   3.164   0.744
 4916SOL    HW215429   2.459   3.274   0.644
 4917SOL     OW15430   3.151   3.100   1.424
 4917SOL    HW115431   3.184   3.034   1.364
 4917SOL    HW215432   3.208   3.094   1.500
 4918SOL     OW15433   2.698   1.861   0.516
 4918SOL    HW115434   2.737   1.945   0.493
 4918SOL    HW215435   2.604   1.876   0.513
 4919SOL     OW15436   2.053   2.830   1.270
 4919SOL    HW115437   2.137   2.786   1.254
 4919SOL    HW215438   1.988   2.773   1.229
 4920SOL     OW15439   3.394   2.856   0.203
 4920SOL    HW115440   3.325   2.797   0.233
 4920SOL    HW215441   3.431   2.893   0.283
 4921SOL     OW15442   3.073   3.664   1.625
 4921SOL    HW115443   3.056   3.723   1.552
 4921SOL    HW215444   3.075   3.577   1.585
 4922SOL     OW15445   3.326   3.282   0.952
 4922SOL    HW115446   3.259   3.296   1.018
 4922SOL    HW215447   3.316   3.191   0.925
 4923SOL     OW15448   3.518   3.601   0.585
 4923SOL    HW115449   3.505   3.574   0.494
 4923SOL    HW215450   3.497   3.523   0.636
 4924SOL     OW15451   2.459   2.582   0.261
 4924SOL    HW115452   2.464   2.664   0.212
 4924SOL    HW215453   2.400   2.601   0.333
 4925SOL     OW15454   3.140   2.214   0.932
 4925SOL    HW115455   3.051   2.179   0.941
 4925SOL    HW215456   3.192   2.161   0.994
 4926SOL     OW15457   3.422   3.594   0.312
 4926SOL    HW115458   3.517   3.594   0.312
 4926SOL    HW215459   3.398   3.553   0.229
 4927SOL     OW15460   2.655   2.480   1.450
 4927SOL    HW115461   2.630   2.457   1.540
 4927SOL    HW215462   2.613   2.413   1.396
 4928SOL     OW15463   3.256   2.335   1.678
 4928SOL    HW115464   3.258   2.380   1.763
 4928SOL    HW215465   3.317   2.262   1.688
 4929SOL     OW15466   2.817   2.750   1.582
 4929SOL    HW115467   2.872   2.679   1.547
 4929SOL    HW215468   2.770   2.784   1.506
 4930SOL     OW15469   2.855   2.275   1.239
 4930SOL    HW115470   2.771   2.297   1.278
 4930SOL    HW215471   2.833   2.228   1.158
 4931SOL     OW15472   2.911   2.563   0.429
 4931SOL    HW115473   2.927   2.555   0.523
 4931SOL    HW215474   2.829   2.516   0.414
 4932SOL     OW15475   1.951   2.685   0.776
 4932SOL    HW115476   2.032   2.679   0.826
 4932SOL    HW215477   1.907   2.762   0.811
 4933SOL     OW15478   1.987   3.698   1.575
 4933SOL    HW115479   1.986   3.681   1.669
 4933SOL    HW215480   1.895   3.709   1.552
 4934SOL     OW15481   2.733   2.219   0.213
 4934SOL    HW115482   2.772   2.278   0.149
 4934SOL    HW215483   2.743   2.132   0.175
 4935SOL     OW15484   3.574   2.438   1.828
 4935SOL    HW115485   3.535   2.513   1.781
 4935SOL    HW215486   3.595   2.376   1.759
 4936SOL     OW15487   3.237   3.004   0.543
 4936SOL    HW115488   3.316   2.990   0.490
 4936SOL    HW215489   3.185   3.067   0.493
 4937SOL     OW15490   2.408   2.052   0.894
 4937SOL    HW115491   2.411   2.075   0.987
 4937SOL    HW215492   2.428   2.134   0.848
 4938SOL     OW15493   2.869   3.306   0.475
 4938SOL    HW115494   2.832   3.379   0.426
 4938SOL    HW215495   2.851   3.327   0.567
 4939SOL     OW15496   2.213   3.671   0.843
 4939SOL    HW115497   2.263   3.591   0.860
 4939SOL    HW215498   2.274   3.742   0.861
 4940SOL     OW15499   3.665   2.922   0.867
 4940SOL    HW115500   3.609   2.902   0.792
 4940SOL    HW215501   3.605   2.927   0.941
 4941SOL     OW15502   3.090   3.399   1.512
 4941SOL    HW115503   3.075   3.327   1.573
 4941SOL    HW215504   3.025   3.385   1.442
 4942SOL     OW15505   2.176   2.802   0.229
 4942SOL    HW115506   2.268   2.815   0.204
 4942SOL    HW215507   2.162   2.708   0.223
 4943SOL     OW15508   3.339   2.603   0.728
 4943SOL    HW115509   3.330   2.559   0.813
 4943SOL    HW215510   3.416   2.658   0.737
 4944SOL     OW15511   2.328   3.126   1.737
 4944SOL    HW115512   2.300   3.131   1.646
 4944SOL    HW215513   2.246   3.124   1.787
 4945SOL     OW15514   2.986   3.640   0.234
 4945SOL    HW115515   2.923   3.594   0.289
 4945SOL    HW215516   3.012   3.575   0.168
 4946SOL     OW15517   3.494   3.235   0.082
 4946SOL    HW115518   3.456   3.319   0.055
 4946SOL    HW215519   3.426   3.171   0.064
 4947SOL     OW15520   2.339   3.594   0.322
 4947SOL    HW115521   2.370   3.658   0.386
 4947SOL    HW215522   2.417   3.573   0.270
 4948SOL     OW15523   3.265   1.972   0.434
 4948SOL    HW115524   3.258   1.941   0.344
 4948SOL    HW215525   3.359   1.969   0.453
 4949SOL     OW15526   2.120   3.655   1.228
 4949SOL    HW115527   2.169   3.588   1.275
 4949SOL    HW215528   2.106   3.618   1.141
 4950SOL     OW15529   2.800   3.561   0.901
 4950SOL    HW115530   2.877   3.508   0.921
 4950SOL    HW215531   2.754   3.512   0.832
 4951SOL     OW15532   2.253   2.557   0.474
 4951SOL    HW115533   2.275   2.465   0.484
 4951SOL    HW215534   2.160   2.562   0.496
 4952SOL     OW15535   3.399   2.087   1.726
 4952SOL    HW115536   3.407   2.109   1.819
 4952SOL    HW215537   3.331   2.020   1.723
 4953SOL     OW15538   2.627   2.139   1.753
 4953SOL    HW115539   2.703   2.080   1.755
 4953SOL    HW215540   2.580   2.119   1.834
 4954SOL     OW15541   2.738   3.382   1.194
 4954SOL    HW115542   2.723   3.347   1.106
 4954SOL    HW215543   2.808   3.328   1.230
 4955SOL     OW15544   3.203   2.451   1.432
 4955SOL    HW115545   3.234   2.419   1.517
 4955SOL    HW215546   3.239   2.539   1.425
 4956SOL     OW15547   2.677   3.257   0.938
 4956SOL    HW115548   2.761   3.246   0.894
 4956SOL    HW215549   2.612   3.258   0.868
 4957SOL     OW15550   2.788   2.370   0.903
 4957SOL    HW115551   2.765   2.362   0.811
 4957SOL    HW215552   2.822   2.284   0.927
 4958SOL     OW15553   2.444   1.923   0.484
 4958SOL    HW115554   2.371   1.916   0.545
 4958SOL    HW215555   2.426   2.003   0.435
 4959SOL     OW15556   3.292   3.065   0.046
 4959SOL    HW115557   3.313   2.984   0.092
 4959SOL    HW215558   3.200   3.080   0.064
 4960SOL     OW15559   2.804   2.109   0.462
 4960SOL    HW115560   2.772   2.149   0.380
 4960SOL    HW215561   2.898   2.126   0.462
 4961SOL     OW15562   2.943   2.543   1.460
 4961SOL    HW115563   2.874   2.476   1.465
 4961SOL    HW215564   3.024   2.493   1.453
 4962SOL     OW15565   3.085   3.432   0.794
 4962SOL    HW115566   3.103   3.499   0.728
 4962SOL    HW215567   3.154   3.443   0.859
 4963SOL     OW15568   2.330   3.011   0.734
 4963SOL    HW115569   2.261   2.992   0.797
 4963SOL    HW215570   2.289   2.996   0.648
 4964SOL     OW15571   3.131   3.659   0.605
 4964SOL    HW115572   3.176   3.723   0.550
 4964SOL    HW215573   3.061   3.709   0.648
 4965SOL     OW15574   2.860   2.408   0.059
 4965SOL    HW115575   2.861   2.405  13.864
 4965SOL    HW215576   2.953   2.409   0.084
 4966SOL     OW15577   1.937   2.423   1.386
 4966SOL    HW115578   2.030   2.419   1.365
 4966SOL    HW215579   1.931   2.489   1.455
 4967SOL     OW15580   2.418   2.084   1.168
 4967SOL    HW115581   2.465   2.005   1.195
 4967SOL    HW215582   2.333   2.078   1.213
 4968SOL     OW15583   2.727   2.320   0.639
 4968SOL    HW115584   2.687   2.376   0.573
 4968SOL    HW215585   2.751   2.240   0.592
 4969SOL     OW15586   2.874   1.915   0.752
 4969SOL    HW115587   2.819   1.905   0.675
 4969SOL    HW215588   2.854   1.839   0.807
 4970SOL     OW15589   3.299   3.025   0.857
 4970SOL    HW115590   3.230   2.958   0.856
 4970SOL    HW215591   3.322   3.037   0.765
 4971SOL     OW15592   3.328   2.467   0.978
 4971SOL    HW115593   3.279   2.385   0.981
 4971SOL    HW215594   3.388   2.462   1.052
 4972SOL     OW15595   3.723   2.679   0.373
 4972SOL    HW115596   3.766   2.624   0.439
 4972SOL    HW215597   3.683   2.617   0.312
 4973SOL     OW15598   2.351   3.266   0.158
 4973SOL    HW115599   2.275   3.236   0.208
 4973SOL    HW215600   2.330   3.244   0.068
 4974SOL     OW15601   3.528   3.127   0.647
 4974SOL    HW115602   3.623   3.131   0.657
 4974SOL    HW215603   3.498   3.216   0.665
 4975SOL     OW15604   3.282   2.448   0.087
 4975SOL    HW115605   3.213   2.438   0.153
 4975SOL    HW215606   3.323   2.361   0.082
 4976SOL     OW15607   2.384   2.126   0.320
 4976SOL    HW115608   2.434   2.086   0.248
 4976SOL    HW215609   2.356   2.210   0.286
 4977SOL     OW15610   3.614   3.097   1.572
 4977SOL    HW115611   3.701   3.061   1.555
 4977SOL    HW215612   3.631   3.186   1.603
 4978SOL     OW15613   2.921   3.214   1.333
 4978SOL    HW115614   2.846   3.184   1.385
 4978SOL    HW215615   2.997   3.174   1.375
 4979SOL     OW15616   3.468   3.490   1.654
 4979SOL    HW115617   3.461   3.523   1.564
 4979SOL    HW215618   3.550   3.440   1.655
 4980SOL     OW15619   2.989   3.064   1.105
 4980SOL    HW115620   2.932   3.103   1.171
 4980SOL    HW215621   2.956   3.097   1.022
 4981SOL     OW15622   3.493   2.960   1.076
 4981SOL    HW115623   3.487   3.022   1.150
 4981SOL    HW215624   3.414   2.976   1.025
 4982SOL     OW15625   2.779   1.961   1.396
 4982SOL    HW115626   2.803   1.940   1.306
 4982SOL    HW215627   2.858   1.999   1.434
 4983SOL     OW15628   2.846   2.976   1.722
 4983SOL    HW115629   2.754   2.992   1.743
 4983SOL    HW215630   2.845   2.899   1.667
 4984SOL     OW15631   2.576   2.921   0.376
 4984SOL    HW115632   2.561   2.905   0.469
 4984SOL    HW215633   2.651   2.865   0.354
 4985SOL     OW15634   2.279   2.675   1.251
 4985SOL    HW115635   2.348   2.687   1.317
 4985SOL    HW215636   2.244   2.587   1.268
 4986SOL     OW15637   3.128   2.239   1.275
 4986SOL    HW115638   3.161   2.317   1.321
 4986SOL    HW215639   3.038   2.262   1.251
 4987SOL     OW15640   1.932   3.434   1.351
 4987SOL    HW115641   1.902   3.510   1.299
 4987SOL    HW215642   2.027   3.440   1.348
 4988SOL     OW15643   2.210   2.973   0.489
 4988SOL    HW115644   2.212   3.046   0.427
 4988SOL    HW215645   2.217   2.895   0.435
 4989SOL     OW15646   2.410   2.400   0.863
 4989SOL    HW115647   2.425   2.456   0.787
 4989SOL    HW215648   2.476   2.426   0.927
 4990SOL     OW15649   3.110   3.208   0.396
 4990SOL    HW115650   3.166   3.281   0.422
 4990SOL    HW215651   3.023   3.232   0.428
 4991SOL     OW15652   3.141   3.320   1.147
 4991SOL    HW115653   3.197   3.323   1.224
 4991SOL    HW215654   3.086   3.243   1.160
 4992SOL     OW15655   3.445   2.487   0.481
 4992SOL    HW115656   3.397   2.539   0.545
 4992SOL    HW215657   3.478   2.551   0.418
 4993SOL     OW15658   2.209   3.388   1.315
 4993SOL    HW115659   2.196   3.346   1.231
 4993SOL    HW215660   2.303   3.401   1.322
 4994SOL     OW15661   2.276   2.608   1.602
 4994SOL    HW115662   2.338   2.651   1.544
 4994SOL    HW215663   2.319   2.526   1.626
 4995SOL     OW15664   3.462   2.639   1.679
 4995SOL    HW115665   3.376   2.681   1.674
 4995SOL    HW215666   3.515   2.682   1.612
 4996SOL     OW15667   2.857   1.984   1.754
 4996SOL    HW115668   2.913   2.056   1.726
 4996SOL    HW215669   2.906   1.905   1.729
 4997SOL     OW15670   2.374   1.899   1.746
 4997SOL    HW115671   2.328   1.843   1.683
 4997SOL    HW215672   2.312   1.969   1.765
 4998SOL     OW15673   2.445   2.734   1.031
 4998SOL    HW115674   2.476   2.825   1.029
 4998SOL    HW215675   2.389   2.731   1.109
 4999SOL     OW15676   3.221   2.721   1.031
 4999SOL    HW115677   3.138   2.712   0.982
 4999SOL    HW215678   3.261   2.634   1.026
 5000SOL     OW15679   3.080   2.404   0.274
 5000SOL    HW115680   3.084   2.323   0.325
 5000SOL    HW215681   3.025   2.462   0.326
 5001SOL     OW15682   1.908   3.172   1.276
 5001SOL    HW115683   1.941   3.119   1.348
 5001SOL    HW215684   1.915   3.262   1.308
 5002SOL     OW15685   2.584   2.491   1.057
 5002SOL    HW115686   2.660   2.475   1.001
 5002SOL    HW215687   2.559   2.581   1.038
 5003SOL     OW15688   3.594   2.821   1.857
 5003SOL    HW115689   3.550   2.763   1.795
 5003SOL    HW215690   3.531   2.832   1.928
 5004SOL     OW15691   2.223   1.907   0.619
 5004SOL    HW115692   2.145   1.958   0.595
 5004SOL    HW215693   2.203   1.871   0.706
 5005SOL     OW15694   3.480   2.237   0.372
 5005SOL    HW115695   3.503   2.171   0.438
 5005SOL    HW215696   3.455   2.314   0.424
 5006SOL     OW15697   2.889   2.621   0.961
 5006SOL    HW115698   2.887   2.639   1.055
 5006SOL    HW215699   2.863   2.529   0.953
 5007SOL     OW15700   2.846   3.430   1.717
 5007SOL    HW115701   2.829   3.472   1.633
 5007SOL    HW215702   2.888   3.347   1.694
 5008SOL     OW15703   3.708   3.366   1.600
 5008SOL    HW115704   3.729   3.394   1.511
 5008SOL    HW215705   3.788   3.380   1.650
 5009SOL     OW15706   2.216   2.780   1.808
 5009SOL    HW115707   2.298   2.797   1.854
 5009SOL    HW215708   2.239   2.717   1.739
 5010SOL     OW15709   3.411   2.125   0.135
 5010SOL    HW115710   3.354   2.052   0.158
 5010SOL    HW215711   3.435   2.164   0.220
 5011SOL     OW15712   3.155   2.692   0.055
 5011SOL    HW115713   3.202   2.608   0.060
 5011SOL    HW215714   3.174   2.724  13.867
 5012SOL     OW15715   2.927   3.197   0.853
 5012SOL    HW115716   2.931   3.125   0.791
 5012SOL    HW215717   2.989   3.261   0.818
 5013SOL     OW15718   2.172   2.672   0.946
 5013SOL    HW115719   2.265   2.695   0.939
 5013SOL    HW215720   2.172   2.586   0.988
 5014SOL     OW15721   2.189   2.359   1.013
 5014SOL    HW115722   2.149   2.286   0.966
 5014SOL    HW215723   2.267   2.380   0.962
 5015SOL     OW15724   2.996   2.239   1.681
 5015SOL    HW115725   2.949   2.294   1.744
 5015SOL    HW215726   3.084   2.276   1.677
 5016SOL     OW15727   3.022   2.066   1.469
 5016SOL    HW115728   3.012   2.128   1.541
 5016SOL    HW215729   3.062   2.116   1.399
 5017SOL     OW15730   1.879   3.175   0.182
 5017SOL    HW115731   1.799   3.186   0.131
 5017SOL    HW215732   1.873   3.087   0.219
 5018SOL     OW15733   1.957   3.646   0.937
 5018SOL    HW115734   1.926   3.566   0.893
 5018SOL    HW215735   2.043   3.663   0.899
 5019SOL     OW15736   2.359   3.436   0.906
 5019SOL    HW115737   2.427   3.500   0.930
 5019SOL    HW215738   2.404   3.373   0.850
 5020SOL     OW15739   2.846   2.654   1.227
 5020SOL    HW115740   2.903   2.631   1.301
 5020SOL    HW215741   2.760   2.620   1.251
 5021SOL     OW15742   1.899   2.399   1.117
 5021SOL    HW115743   1.984   2.397   1.072
 5021SOL    HW215744   1.921   2.413   1.209
 5022SOL     OW15745   2.058   2.384   1.723
 5022SOL    HW115746   2.118   2.353   1.655
 5022SOL    HW215747   2.008   2.454   1.681
 5023SOL     OW15748   3.239   2.802   1.659
 5023SOL    HW115749   3.260   2.895   1.658
 5023SOL    HW215750   3.236   2.776   1.567
 5024SOL     OW15751   2.676   2.437   0.369
 5024SOL    HW115752   2.689   2.362   0.310
 5024SOL    HW215753   2.604   2.486   0.330
 5025SOL     OW15754   3.504   2.464   1.187
 5025SOL    HW115755   3.492   2.403   1.260
 5025SOL    HW215756   3.589   2.441   1.150
 5026SOL     OW15757   2.108   3.413   1.728
 5026SOL    HW115758   2.084   3.478   1.794
 5026SOL    HW215759   2.107   3.330   1.775
 5027SOL     OW15760   2.556   2.314   1.261
 5027SOL    HW115761   2.508   2.238   1.227
 5027SOL    HW215762   2.556   2.376   1.189
 5028SOL     OW15763   2.792   3.536   1.467
 5028SOL    HW115764   2.765   3.501   1.382
 5028SOL    HW215765   2.785   3.631   1.458
 5029SOL     OW15766   2.305   2.360   0.230
 5029SOL    HW115767   2.370   2.429   0.236
 5029SOL    HW215768   2.228   2.402   0.191
 5030SOL     OW15769   2.009   3.002   1.472
 5030SOL    HW115770   2.011   2.950   1.552
 5030SOL    HW215771   2.026   2.940   1.402
 5031SOL     OW15772   3.188   2.909   1.224
 5031SOL    HW115773   3.212   2.846   1.156
 5031SOL    HW215774   3.117   2.961   1.185
 5032SOL     OW15775   3.172   2.720   0.325
 5032SOL    HW115776   3.097   2.686   0.372
 5032SOL    HW215777   3.151   2.706   0.232
 5033SOL     OW15778   3.634   3.607   1.151
 5033SOL    HW115779   3.693   3.633   1.080
 5033SOL    HW215780   3.609   3.517   1.130
 5034SOL     OW15781   3.105   3.596   1.114
 5034SOL    HW115782   3.188   3.615   1.069
 5034SOL    HW215783   3.109   3.502   1.132
 5035SOL     OW15784   1.946   3.128   1.013
 5035SOL    HW115785   1.933   3.141   1.107
 5035SOL    HW215786   1.871   3.075   0.985
 5036SOL     OW15787   2.540   3.525   1.727
 5036SOL    HW115788   2.486   3.604   1.731
 5036SOL    HW215789   2.600   3.541   1.654
 5037SOL     OW15790   2.781   1.967   0.133
 5037SOL    HW115791   2.817   1.957   0.045
 5037SOL    HW215792   2.831   1.904   0.187
 5038SOL     OW15793   3.571   2.006   0.515
 5038SOL    HW115794   3.650   1.999   0.461
 5038SOL    HW215795   3.561   1.920   0.555
 5039SOL     OW15796   3.251   3.433   0.483
 5039SOL    HW115797   3.314   3.467   0.419
 5039SOL    HW215798   3.205   3.511   0.514
 5040SOL     OW15799   1.994   3.655   1.840
 5040SOL    HW115800   1.942   3.591   1.888
 5040SOL    HW215801   2.044   3.701   1.907
 5041SOL     OW15802   3.138   2.787   0.671
 5041SOL    HW115803   3.212   2.726   0.678
 5041SOL    HW215804   3.172   2.860   0.619
 5042SOL     OW15805   2.677   3.135   1.430
 5042SOL    HW115806   2.650   3.174   1.513
 5042SOL    HW215807   2.608   3.158   1.369
 5043SOL     OW15808   2.547   3.447   0.178
 5043SOL    HW115809   2.525   3.494   0.098
 5043SOL    HW215810   2.489   3.371   0.178
 5044SOL     OW15811   3.486   3.588   1.390
 5044SOL    HW115812   3.540   3.593   1.311
 5044SOL    HW215813   3.475   3.679   1.417
 5045SOL     OW15814   3.699   2.042   0.968
 5045SOL    HW115815   3.730   1.956   0.942
 5045SOL    HW215816   3.613   2.051   0.927
 5046SOL     OW15817   3.081   3.463   0.032
 5046SOL    HW115818   3.070   3.373   0.061
 5046SOL    HW215819   3.039   3.465  13.846
 5047SOL     OW15820   2.686   2.868   1.371
 5047SOL    HW115821   2.731   2.865   1.287
 5047SOL    HW215822   2.686   2.961   1.395
 5048SOL     OW15823   2.782   2.773   0.288
 5048SOL    HW115824   2.853   2.810   0.234
 5048SOL    HW215825   2.824   2.701   0.335
 5049SOL     OW15826   3.350   3.498   0.066
 5049SOL    HW115827   3.257   3.484   0.051
 5049SOL    HW215828   3.388   3.501  13.878
 5050SOL     OW15829   2.232   3.164   1.491
 5050SOL    HW115830   2.218   3.242   1.437
 5050SOL    HW215831   2.154   3.110   1.476
 5051SOL     OW15832   3.466   3.142   1.279
 5051SOL    HW115833   3.534   3.137   1.347
 5051SOL    HW215834   3.409   3.213   1.308
 5052SOL     OW15835   2.912   2.968   0.706
 5052SOL    HW115836   2.842   2.916   0.745
 5052SOL    HW215837   2.976   2.903   0.675
 5053SOL     OW15838   2.881   2.102   0.966
 5053SOL    HW115839   2.877   2.054   0.883
 5053SOL    HW215840   2.878   2.034   1.033
 5054SOL     OW15841   2.465   3.352   0.481
 5054SOL    HW115842   2.508   3.300   0.413
 5054SOL    HW215843   2.399   3.403   0.434
 5055SOL     OW15844   3.584   2.253   1.379
 5055SOL    HW115845   3.655   2.316   1.375
 5055SOL    HW215846   3.613   2.180   1.323
 5056SOL     OW15847   2.129   3.190   0.295
 5056SOL    HW115848   2.044   3.199   0.252
 5056SOL    HW215849   2.119   3.235   0.379
 5057SOL     OW15850   1.974   2.882   1.718
 5057SOL    HW115851   1.897   2.860   1.772
 5057SOL    HW215852   2.048   2.846   1.767
 5058SOL     OW15853   2.535   2.060   1.499
 5058SOL    HW115854   2.618   2.039   1.457
 5058SOL    HW215855   2.559   2.089   1.587
 5059SOL     OW15856   1.878   2.288   0.052
 5059SOL    HW115857   1.865   2.193   0.057
 5059SOL    HW215858   1.932   2.300  13.874
 5060SOL     OW15859   3.291   2.721   1.401
 5060SOL    HW115860   3.242   2.782   1.346
 5060SOL    HW215861   3.380   2.722   1.365
 5061SOL     OW15862   3.047   3.211   0.122
 5061SOL    HW115863   2.954   3.193   0.112
 5061SOL    HW215864   3.064   3.197   0.216
 5062SOL     OW15865   2.481   2.692   1.432
 5062SOL    HW115866   2.536   2.770   1.418
 5062SOL    HW215867   2.543   2.620   1.441
 5063SOL     OW15868   3.347   3.642   0.980
 5063SOL    HW115869   3.373   3.691   0.902
 5063SOL    HW215870   3.430   3.615   1.020
 5064SOL     OW15871   2.580   2.425   1.702
 5064SOL    HW115872   2.617   2.489   1.763
 5064SOL    HW215873   2.608   2.340   1.736
 5065SOL     OW15874   3.333   3.063   1.632
 5065SOL    HW115875   3.321   3.076   1.726
 5065SOL    HW215876   3.426   3.077   1.617
 5066SOL     OW15877   2.241   3.601   1.562
 5066SOL    HW115878   2.155   3.641   1.548
 5066SOL    HW215879   2.222   3.517   1.605
 5067SOL     OW15880   3.529   2.743   1.258
 5067SOL    HW115881   3.526   2.658   1.215
 5067SOL    HW215882   3.523   2.806   1.187
 5068SOL     OW15883   3.081   2.182   0.455
 5068SOL    HW115884   3.145   2.111   0.448
 5068SOL    HW215885   3.108   2.231   0.533
 5069SOL     OW15886   2.450   2.599   0.670
 5069SOL    HW115887   2.491   2.685   0.655
 5069SOL    HW215888   2.382   2.593   0.602
 5070SOL     OW15889   3.625   2.225   1.649
 5070SOL    HW115890   3.607   2.238   1.556
 5070SOL    HW215891   3.555   2.167   1.679
 5071SOL     OW15892   3.614   2.793   1.514
 5071SOL    HW115893   3.609   2.887   1.529
 5071SOL    HW215894   3.593   2.782   1.421
 5072SOL     OW15895   2.767   3.257   0.058
 5072SOL    HW115896   2.695   3.247   0.120
 5072SOL    HW215897   2.724   3.275  13.874
 5073SOL     OW15898   2.521   3.654   0.944
 5073SOL    HW115899   2.499   3.744   0.921
 5073SOL    HW215900   2.617   3.650   0.937
 5074SOL     OW15901   2.728   2.828   0.855
 5074SOL    HW115902   2.779   2.757   0.895
 5074SOL    HW215903   2.695   2.878   0.929
 5075SOL     OW15904   2.960   2.868   0.107
 5075SOL    HW115905   2.949   2.916   0.024
 5075SOL    HW215906   3.035   2.810   0.092
 5076SOL     OW15907   3.717   3.417   0.841
 5076SOL    HW115908   3.638   3.402   0.790
 5076SOL    HW215909   3.713   3.352   0.911
 5077SOL     OW15910   2.087   3.165   1.856
 5077SOL    HW115911   2.019   3.104   1.827
 5077SOL    HW215912   2.070   3.178   1.949
 5078SOL     OW15913   1.945   3.094   0.665
 5078SOL    HW115914   1.950   3.045   0.747
 5078SOL    HW215915   2.017   3.060   0.612
 5079SOL     OW15916   2.543   3.264   1.627
 5079SOL    HW115917   2.463   3.221   1.658
 5079SOL    HW215918   2.539   3.352   1.664
 5080SOL     OW15919   3.677   2.043   1.240
 5080SOL    HW115920   3.671   1.948   1.245
 5080SOL    HW215921   3.689   2.061   1.146
 5081SOL     OW15922   2.290   2.293   0.532
 5081SOL    HW115923   2.322   2.235   0.463
 5081SOL    HW215924   2.251   2.234   0.597
 5082SOL     OW15925   3.561   3.353   1.098
 5082SOL    HW115926   3.481   3.327   1.053
 5082SOL    HW215927   3.576   3.284   1.162
 5083SOL     OW15928   2.191   2.416   1.289
 5083SOL    HW115929   2.238   2.357   1.348
 5083SOL    HW215930   2.211   2.383   1.201
 5084SOL     OW15931   2.689   3.440   0.678
 5084SOL    HW115932   2.679   3.488   0.596
 5084SOL    HW215933   2.612   3.383   0.682
 5085SOL     OW15934   3.294   2.088   1.118
 5085SOL    HW115935   3.319   2.007   1.163
 5085SOL    HW215936   3.242   2.136   1.182
 5086SOL     OW15937   2.870   1.881   1.143
 5086SOL    HW115938   2.817   1.812   1.103
 5086SOL    HW215939   2.958   1.844   1.146
 5087SOL     OW15940   2.632   3.184   0.318
 5087SOL    HW115941   2.603   3.095   0.335
 5087SOL    HW215942   2.717   3.190   0.361
 5088SOL     OW15943   2.482   3.417   1.284
 5088SOL    HW115944   2.484   3.499   1.335
 5088SOL    HW215945   2.569   3.411   1.246
 5089SOL     OW15946   3.210   1.927   0.163
 5089SOL    HW115947   3.242   1.868   0.095
 5089SOL    HW215948   3.128   1.887   0.193
 5090SOL     OW15949   3.157   2.322   0.681
 5090SOL    HW115950   3.105   2.402   0.689
 5090SOL    HW215951   3.155   2.283   0.768
 5091SOL     OW15952   3.446   2.064   0.876
 5091SOL    HW115953   3.386   2.085   0.948
 5091SOL    HW215954   3.447   2.143   0.822
 5092SOL     OW15955   1.902   2.932   0.308
 5092SOL    HW115956   1.997   2.928   0.305
 5092SOL    HW215957   1.875   2.842   0.328
 5093SOL     OW15958   2.754   3.516   0.347
 5093SOL    HW115959   2.683   3.486   0.290
 5093SOL    HW215960   2.718   3.592   0.392
 5094SOL     OW15961   2.094   2.492   1.983
 5094SOL    HW115962   2.008   2.470   2.018
 5094SOL    HW215963   2.092   2.461   1.892
 5095SOL     OW15964   1.868   2.283   2.494
 5095SOL    HW115965   1.779   2.278   2.528
 5095SOL    HW215966   1.878   2.204   2.442
 5096SOL     OW15967   2.429   3.148   3.036
 5096SOL    HW115968   2.341   3.152   2.998
 5096SOL    HW215969   2.444   3.236   3.070
 5097SOL     OW15970   3.421   3.374   2.569
 5097SOL    HW115971   3.379   3.353   2.652
 5097SOL    HW215972   3.350   3.378   2.506
 5098SOL     OW15973   2.991   2.561   2.564
 5098SOL    HW115974   3.041   2.641   2.549
 5098SOL    HW215975   2.945   2.576   2.646
 5099SOL     OW15976   3.627   2.469   2.092
 5099SOL    HW115977   3.608   2.461   1.999
 5099SOL    HW215978   3.592   2.390   2.132
 5100SOL     OW15979   2.618   3.005   2.902
 5100SOL    HW115980   2.549   3.039   2.958
 5100SOL    HW215981   2.653   3.082   2.857
 5101SOL     OW15982   2.726   2.638   3.683
 5101SOL    HW115983   2.714   2.709   3.746
 5101SOL    HW215984   2.751   2.682   3.602
 5102SOL     OW15985   2.548   2.865   2.509
 5102SOL    HW115986   2.613   2.853   2.579
 5102SOL    HW215987   2.478   2.917   2.550
 5103SOL     OW15988   2.572   3.013   3.673
 5103SOL    HW115989   2.619   3.092   3.699
 5103SOL    HW215990   2.489   3.046   3.639
 5104SOL     OW15991   2.193   3.288   2.929
 5104SOL    HW115992   2.120   3.252   2.879
 5104SOL    HW215993   2.243   3.340   2.866
 5105SOL     OW15994   3.322   3.362   3.215
 5105SOL    HW115995   3.373   3.442   3.225
 5105SOL    HW215996   3.262   3.361   3.289
 5106SOL     OW15997   2.284   2.238   3.341
 5106SOL    HW115998   2.373   2.204   3.354
 5106SOL    HW215999   2.227   2.162   3.352
 5107SOL     OW16000   3.474   2.310   2.604
 5107SOL    HW116001   3.400   2.335   2.548
 5107SOL    HW216002   3.492   2.389   2.656
 5108SOL     OW16003   2.083   3.579   2.341
 5108SOL    HW116004   2.117   3.639   2.407
 5108SOL    HW216005   2.152   3.573   2.275
 5109SOL     OW16006   2.998   3.203   3.554
 5109SOL    HW116007   3.039   3.198   3.641
 5109SOL    HW216008   2.945   3.124   3.548
 5110SOL     OW16009   2.090   3.303   2.396
 5110SOL    HW116010   2.073   3.397   2.403
 5110SOL    HW216011   2.031   3.263   2.460
 5111SOL     OW16012   2.118   2.953   2.753
 5111SOL    HW116013   2.115   2.867   2.795
 5111SOL    HW216014   2.061   3.008   2.806
 5112SOL     OW16015   2.475   3.649   3.292
 5112SOL    HW116016   2.392   3.634   3.338
 5112SOL    HW216017   2.500   3.738   3.317
 5113SOL     OW16018   2.449   2.843   1.995
 5113SOL    HW116019   2.494   2.893   1.927
 5113SOL    HW216020   2.488   2.873   2.077
 5114SOL     OW16021   3.458   1.985   3.330
 5114SOL    HW116022   3.461   2.066   3.279
 5114SOL    HW216023   3.446   2.014   3.420
 5115SOL     OW16024   1.982   2.521   2.422
 5115SOL    HW116025   1.948   2.434   2.442
 5115SOL    HW216026   1.971   2.570   2.503
 5116SOL     OW16027   3.699   3.616   2.202
 5116SOL    HW116028   3.767   3.590   2.265
 5116SOL    HW216029   3.722   3.706   2.178
 5117SOL     OW16030   1.889   3.456   1.985
 5117SOL    HW116031   1.875   3.364   2.006
 5117SOL    HW216032   1.869   3.503   2.066
 5118SOL     OW16033   3.550   2.781   2.503
 5118SOL    HW116034   3.634   2.739   2.487
 5118SOL    HW216035   3.531   2.831   2.423
 5119SOL     OW16036   3.503   2.969   2.293
 5119SOL    HW116037   3.588   2.976   2.249
 5119SOL    HW216038   3.510   3.030   2.366
 5120SOL     OW16039   1.983   2.606   3.445
 5120SOL    HW116040   2.074   2.631   3.459
 5120SOL    HW216041   1.934   2.688   3.456
 5121SOL     OW16042   2.476   3.247   2.597
 5121SOL    HW116043   2.430   3.164   2.606
 5121SOL    HW216044   2.459   3.274   2.506
 5122SOL     OW16045   3.151   3.100   3.286
 5122SOL    HW116046   3.184   3.034   3.226
 5122SOL    HW216047   3.208   3.094   3.362
 5123SOL     OW16048   2.697   1.860   2.377
 5123SOL    HW116049   2.736   1.945   2.355
 5123SOL    HW216050   2.602   1.877   2.374
 5124SOL     OW16051   2.053   2.830   3.132
 5124SOL    HW116052   2.137   2.787   3.116
 5124SOL    HW216053   1.988   2.773   3.091
 5125SOL     OW16054   3.391   2.855   2.060
 5125SOL    HW116055   3.322   2.798   2.093
 5125SOL    HW216056   3.432   2.890   2.139
 5126SOL     OW16057   3.073   3.664   3.487
 5126SOL    HW116058   3.056   3.723   3.414
 5126SOL    HW216059   3.075   3.577   3.447
 5127SOL     OW16060   3.327   3.282   2.813
 5127SOL    HW116061   3.259   3.296   2.880
 5127SOL    HW216062   3.316   3.191   2.787
 5128SOL     OW16063   3.514   3.601   2.442
 5128SOL    HW116064   3.502   3.569   2.352
 5128SOL    HW216065   3.495   3.526   2.497
 5129SOL     OW16066   2.459   2.586   2.128
 5129SOL    HW116067   2.464   2.667   2.077
 5129SOL    HW216068   2.393   2.605   2.195
 5130SOL     OW16069   3.140   2.214   2.795
 5130SOL    HW116070   3.051   2.179   2.803
 5130SOL    HW216071   3.192   2.161   2.856
 5131SOL     OW16072   3.438   3.536   2.170
 5131SOL    HW116073   3.530   3.564   2.166
 5131SOL    HW216074   3.416   3.515   2.079
 5132SOL     OW16075   2.655   2.480   3.312
 5132SOL    HW116076   2.630   2.457   3.402
 5132SOL    HW216077   2.613   2.413   3.258
 5133SOL     OW16078   3.256   2.335   3.540
 5133SOL    HW116079   3.258   2.380   3.625
 5133SOL    HW216080   3.317   2.262   3.550
 5134SOL     OW16081   2.817   2.750   3.444
 5134SOL    HW116082   2.872   2.679   3.409
 5134SOL    HW216083   2.770   2.784   3.368
 5135SOL     OW16084   2.855   2.275   3.101
 5135SOL    HW116085   2.771   2.297   3.140
 5135SOL    HW216086   2.833   2.228   3.020
 5136SOL     OW16087   2.913   2.560   2.288
 5136SOL    HW116088   2.928   2.554   2.382
 5136SOL    HW216089   2.830   2.514   2.274
 5137SOL     OW16090   1.950   2.684   2.639
 5137SOL    HW116091   2.032   2.679   2.689
 5137SOL    HW216092   1.907   2.762   2.673
 5138SOL     OW16093   1.987   3.699   3.437
 5138SOL    HW116094   1.986   3.681   3.531
 5138SOL    HW216095   1.895   3.709   3.414
 5139SOL     OW16096   2.754   2.211   2.058
 5139SOL    HW116097   2.796   2.271   1.996
 5139SOL    HW216098   2.766   2.124   2.018
 5140SOL     OW16099   3.574   2.438   3.690
 5140SOL    HW116100   3.535   2.513   3.643
 5140SOL    HW216101   3.595   2.376   3.621
 5141SOL     OW16102   3.237   3.004   2.403
 5141SOL    HW116103   3.317   2.991   2.352
 5141SOL    HW216104   3.186   3.066   2.352
 5142SOL     OW16105   2.407   2.052   2.755
 5142SOL    HW116106   2.410   2.075   2.848
 5142SOL    HW216107   2.427   2.133   2.710
 5143SOL     OW16108   2.869   3.308   2.335
 5143SOL    HW116109   2.829   3.380   2.286
 5143SOL    HW216110   2.852   3.328   2.427
 5144SOL     OW16111   2.213   3.670   2.703
 5144SOL    HW116112   2.263   3.590   2.721
 5144SOL    HW216113   2.274   3.741   2.723
 5145SOL     OW16114   3.665   2.923   2.728
 5145SOL    HW116115   3.610   2.902   2.653
 5145SOL    HW216116   3.605   2.927   2.802
 5146SOL     OW16117   3.090   3.399   3.374
 5146SOL    HW116118   3.075   3.327   3.435
 5146SOL    HW216119   3.025   3.385   3.304
 5147SOL     OW16120   2.182   2.818   2.112
 5147SOL    HW116121   2.263   2.836   2.065
 5147SOL    HW216122   2.150   2.736   2.073
 5148SOL     OW16123   3.339   2.603   2.590
 5148SOL    HW116124   3.331   2.559   2.674
 5148SOL    HW216125   3.417   2.658   2.599
 5149SOL     OW16126   2.328   3.126   3.599
 5149SOL    HW116127   2.300   3.131   3.508
 5149SOL    HW216128   2.246   3.124   3.649
 5150SOL     OW16129   2.975   3.642   2.086
 5150SOL    HW116130   2.913   3.595   2.141
 5150SOL    HW216131   3.005   3.578   2.021
 5151SOL     OW16132   3.488   3.244   1.950
 5151SOL    HW116133   3.446   3.328   1.933
 5151SOL    HW216134   3.421   3.179   1.931
 5152SOL     OW16135   2.331   3.596   2.187
 5152SOL    HW116136   2.366   3.661   2.246
 5152SOL    HW216137   2.404   3.573   2.129
 5153SOL     OW16138   3.263   1.970   2.294
 5153SOL    HW116139   3.254   1.945   2.202
 5153SOL    HW216140   3.357   1.975   2.308
 5154SOL     OW16141   2.120   3.655   3.090
 5154SOL    HW116142   2.169   3.588   3.138
 5154SOL    HW216143   2.107   3.617   3.003
 5155SOL     OW16144   2.800   3.561   2.763
 5155SOL    HW116145   2.877   3.508   2.784
 5155SOL    HW216146   2.754   3.512   2.694
 5156SOL     OW16147   2.255   2.557   2.339
 5156SOL    HW116148   2.274   2.464   2.348
 5156SOL    HW216149   2.161   2.563   2.356
 5157SOL     OW16150   3.399   2.087   3.588
 5157SOL    HW116151   3.407   2.109   3.681
 5157SOL    HW216152   3.331   2.020   3.585
 5158SOL     OW16153   2.504   1.988   1.968
 5158SOL    HW116154   2.570   1.923   1.992
 5158SOL    HW216155   2.458   1.949   1.894
 5159SOL     OW16156   2.628   2.139   3.615
 5159SOL    HW116157   2.703   2.080   3.617
 5159SOL    HW216158   2.580   2.119   3.696
 5160SOL     OW16159   2.738   3.382   3.056
 5160SOL    HW116160   2.723   3.347   2.969
 5160SOL    HW216161   2.808   3.328   3.092
 5161SOL     OW16162   3.203   2.451   3.294
 5161SOL    HW116163   3.234   2.419   3.379
 5161SOL    HW216164   3.239   2.539   3.287
 5162SOL     OW16165   2.677   3.258   2.800
 5162SOL    HW116166   2.761   3.246   2.756
 5162SOL    HW216167   2.612   3.258   2.730
 5163SOL     OW16168   2.789   2.370   2.766
 5163SOL    HW116169   2.766   2.363   2.673
 5163SOL    HW216170   2.823   2.284   2.789
 5164SOL     OW16171   2.442   1.926   2.342
 5164SOL    HW116172   2.369   1.917   2.402
 5164SOL    HW216173   2.424   2.007   2.293
 5165SOL     OW16174   3.290   3.061   1.903
 5165SOL    HW116175   3.321   2.985   1.953
 5165SOL    HW216176   3.204   3.080   1.941
 5166SOL     OW16177   2.803   2.110   2.323
 5166SOL    HW116178   2.774   2.151   2.241
 5166SOL    HW216179   2.897   2.124   2.325
 5167SOL     OW16180   2.943   2.543   3.322
 5167SOL    HW116181   2.874   2.476   3.327
 5167SOL    HW216182   3.024   2.493   3.315
 5168SOL     OW16183   3.085   3.431   2.655
 5168SOL    HW116184   3.103   3.500   2.591
 5168SOL    HW216185   3.154   3.443   2.721
 5169SOL     OW16186   2.331   3.011   2.596
 5169SOL    HW116187   2.261   2.992   2.659
 5169SOL    HW216188   2.291   2.994   2.511
 5170SOL     OW16189   3.131   3.659   2.467
 5170SOL    HW116190   3.175   3.723   2.412
 5170SOL    HW216191   3.061   3.708   2.510
 5171SOL     OW16192   2.886   2.405   1.883
 5171SOL    HW116193   2.844   2.488   1.864
 5171SOL    HW216194   2.951   2.426   1.951
 5172SOL     OW16195   1.937   2.423   3.248
 5172SOL    HW116196   2.030   2.419   3.227
 5172SOL    HW216197   1.931   2.489   3.317
 5173SOL     OW16198   2.417   2.084   3.030
 5173SOL    HW116199   2.465   2.005   3.057
 5173SOL    HW216200   2.333   2.077   3.074
 5174SOL     OW16201   2.727   2.320   2.502
 5174SOL    HW116202   2.685   2.375   2.436
 5174SOL    HW216203   2.751   2.240   2.455
 5175SOL     OW16204   2.874   1.916   2.615
 5175SOL    HW116205   2.819   1.904   2.537
 5175SOL    HW216206   2.854   1.839   2.669
 5176SOL     OW16207   3.299   3.025   2.719
 5176SOL    HW116208   3.230   2.958   2.718
 5176SOL    HW216209   3.323   3.036   2.627
 5177SOL     OW16210   3.328   2.467   2.840
 5177SOL    HW116211   3.279   2.385   2.843
 5177SOL    HW216212   3.388   2.462   2.914
 5178SOL     OW16213   3.722   2.680   2.237
 5178SOL    HW116214   3.767   2.625   2.301
 5178SOL    HW216215   3.685   2.619   2.173
 5179SOL     OW16216   2.354   3.278   2.019
 5179SOL    HW116217   2.279   3.250   2.072
 5179SOL    HW216218   2.336   3.244   1.932
 5180SOL     OW16219   3.528   3.127   2.509
 5180SOL    HW116220   3.623   3.131   2.518
 5180SOL    HW216221   3.498   3.216   2.530
 5181SOL     OW16222   3.256   2.433   1.933
 5181SOL    HW116223   3.195   2.415   2.005
 5181SOL    HW216224   3.340   2.400   1.965
 5182SOL     OW16225   2.384   2.130   2.176
 5182SOL    HW116226   2.425   2.079   2.106
 5182SOL    HW216227   2.364   2.214   2.135
 5183SOL     OW16228   3.614   3.097   3.434
 5183SOL    HW116229   3.701   3.061   3.417
 5183SOL    HW216230   3.631   3.186   3.465
 5184SOL     OW16231   2.921   3.215   3.195
 5184SOL    HW116232   2.846   3.184   3.247
 5184SOL    HW216233   2.997   3.174   3.237
 5185SOL     OW16234   3.468   3.490   3.516
 5185SOL    HW116235   3.461   3.523   3.426
 5185SOL    HW216236   3.550   3.440   3.517
 5186SOL     OW16237   2.990   3.064   2.968
 5186SOL    HW116238   2.932   3.103   3.033
 5186SOL    HW216239   2.956   3.097   2.884
 5187SOL     OW16240   3.494   2.961   2.938
 5187SOL    HW116241   3.487   3.021   3.012
 5187SOL    HW216242   3.414   2.975   2.887
 5188SOL     OW16243   2.779   1.961   3.258
 5188SOL    HW116244   2.803   1.940   3.168
 5188SOL    HW216245   2.858   1.999   3.296
 5189SOL     OW16246   2.846   2.977   3.584
 5189SOL    HW116247   2.754   2.992   3.605
 5189SOL    HW216248   2.845   2.899   3.529
 5190SOL     OW16249   2.571   2.923   2.233
 5190SOL    HW116250   2.556   2.907   2.326
 5190SOL    HW216251   2.646   2.869   2.211
 5191SOL     OW16252   2.279   2.675   3.113
 5191SOL    HW116253   2.348   2.687   3.179
 5191SOL    HW216254   2.244   2.588   3.130
 5192SOL     OW16255   3.128   2.239   3.137
 5192SOL    HW116256   3.161   2.317   3.183
 5192SOL    HW216257   3.038   2.262   3.113
 5193SOL     OW16258   1.932   3.434   3.213
 5193SOL    HW116259   1.902   3.510   3.162
 5193SOL    HW216260   2.027   3.439   3.210
 5194SOL     OW16261   2.213   2.970   2.353
 5194SOL    HW116262   2.217   3.044   2.291
 5194SOL    HW216263   2.210   2.892   2.297
 5195SOL     OW16264   2.410   2.400   2.725
 5195SOL    HW116265   2.425   2.457   2.649
 5195SOL    HW216266   2.476   2.426   2.789
 5196SOL     OW16267   3.110   3.210   2.251
 5196SOL    HW116268   3.166   3.281   2.282
 5196SOL    HW216269   3.023   3.231   2.285
 5197SOL     OW16270   3.141   3.320   3.009
 5197SOL    HW116271   3.197   3.323   3.086
 5197SOL    HW216272   3.086   3.243   3.021
 5198SOL     OW16273   3.443   2.485   2.340
 5198SOL    HW116274   3.397   2.540   2.404
 5198SOL    HW216275   3.487   2.547   2.282
 5199SOL     OW16276   2.208   3.389   3.177
 5199SOL    HW116277   2.196   3.346   3.093
 5199SOL    HW216278   2.303   3.401   3.185
 5200SOL     OW16279   2.276   2.608   3.464
 5200SOL    HW116280   2.338   2.652   3.406
 5200SOL    HW216281   2.319   2.526   3.488
 5201SOL     OW16282   3.462   2.639   3.542
 5201SOL    HW116283   3.376   2.681   3.536
 5201SOL    HW216284   3.515   2.682   3.474
 5202SOL     OW16285   2.857   1.984   3.615
 5202SOL    HW116286   2.913   2.056   3.588
 5202SOL    HW216287   2.906   1.905   3.591
 5203SOL     OW16288   2.373   1.899   3.608
 5203SOL    HW116289   2.327   1.843   3.546
 5203SOL    HW216290   2.310   1.969   3.629
 5204SOL     OW16291   2.445   2.734   2.894
 5204SOL    HW116292   2.476   2.825   2.890
 5204SOL    HW216293   2.389   2.731   2.971
 5205SOL     OW16294   3.221   2.721   2.893
 5205SOL    HW116295   3.138   2.712   2.845
 5205SOL    HW216296   3.261   2.634   2.888
 5206SOL     OW16297   3.067   2.391   2.129
 5206SOL    HW116298   3.076   2.312   2.183
 5206SOL    HW216299   3.025   2.455   2.186
 5207SOL     OW16300   1.908   3.172   3.138
 5207SOL    HW116301   1.941   3.119   3.210
 5207SOL    HW216302   1.915   3.262   3.170
 5208SOL     OW16303   2.584   2.491   2.919
 5208SOL    HW116304   2.660   2.475   2.863
 5208SOL    HW216305   2.558   2.581   2.900
 5209SOL     OW16306   3.594   2.821   3.719
 5209SOL    HW116307   3.550   2.763   3.657
 5209SOL    HW216308   3.531   2.832   3.790
 5210SOL     OW16309   2.221   1.903   2.478
 5210SOL    HW116310   2.146   1.958   2.457
 5210SOL    HW216311   2.204   1.870   2.566
 5211SOL     OW16312   3.478   2.236   2.229
 5211SOL    HW116313   3.506   2.172   2.295
 5211SOL    HW216314   3.455   2.314   2.280
 5212SOL     OW16315   2.889   2.621   2.823
 5212SOL    HW116316   2.887   2.639   2.917
 5212SOL    HW216317   2.863   2.529   2.815
 5213SOL     OW16318   2.846   3.430   3.579
 5213SOL    HW116319   2.829   3.472   3.495
 5213SOL    HW216320   2.888   3.347   3.556
 5214SOL     OW16321   3.708   3.366   3.462
 5214SOL    HW116322   3.729   3.394   3.373
 5214SOL    HW216323   3.788   3.380   3.512
 5215SOL     OW16324   2.216   2.780   3.670
 5215SOL    HW116325   2.298   2.797   3.716
 5215SOL    HW216326   2.239   2.717   3.601
 5216SOL     OW16327   3.392   2.135   1.989
 5216SOL    HW116328   3.327   2.070   2.015
 5216SOL    HW216329   3.425   2.171   2.072
 5217SOL     OW16330   3.154   2.688   1.893
 5217SOL    HW116331   3.197   2.603   1.897
 5217SOL    HW216332   3.186   2.728   1.812
 5218SOL     OW16333   2.927   3.197   2.715
 5218SOL    HW116334   2.930   3.125   2.653
 5218SOL    HW216335   2.989   3.261   2.680
 5219SOL     OW16336   2.172   2.673   2.809
 5219SOL    HW116337   2.265   2.695   2.800
 5219SOL    HW216338   2.172   2.586   2.850
 5220SOL     OW16339   2.189   2.360   2.874
 5220SOL    HW116340   2.148   2.287   2.827
 5220SOL    HW216341   2.268   2.380   2.824
 5221SOL     OW16342   2.996   2.239   3.543
 5221SOL    HW116343   2.949   2.294   3.606
 5221SOL    HW216344   3.084   2.276   3.539
 5222SOL     OW16345   3.022   2.066   3.331
 5222SOL    HW116346   3.012   2.128   3.403
 5222SOL    HW216347   3.062   2.116   3.261
 5223SOL     OW16348   1.867   3.183   2.057
 5223SOL    HW116349   1.780   3.197   2.020
 5223SOL    HW216350   1.864   3.094   2.091
 5224SOL     OW16351   1.957   3.646   2.799
 5224SOL    HW116352   1.926   3.566   2.755
 5224SOL    HW216353   2.043   3.663   2.761
 5225SOL     OW16354   2.359   3.436   2.768
 5225SOL    HW116355   2.427   3.499   2.792
 5225SOL    HW216356   2.404   3.373   2.712
 5226SOL     OW16357   2.846   2.654   3.089
 5226SOL    HW116358   2.903   2.631   3.163
 5226SOL    HW216359   2.760   2.620   3.113
 5227SOL     OW16360   1.899   2.398   2.979
 5227SOL    HW116361   1.983   2.398   2.934
 5227SOL    HW216362   1.921   2.413   3.071
 5228SOL     OW16363   2.060   2.386   3.584
 5228SOL    HW116364   2.120   2.355   3.516
 5228SOL    HW216365   2.010   2.456   3.542
 5229SOL     OW16366   3.239   2.802   3.521
 5229SOL    HW116367   3.260   2.895   3.520
 5229SOL    HW216368   3.236   2.776   3.429
 5230SOL     OW16369   2.677   2.431   2.222
 5230SOL    HW116370   2.682   2.357   2.162
 5230SOL    HW216371   2.604   2.484   2.190
 5231SOL     OW16372   3.504   2.464   3.049
 5231SOL    HW116373   3.492   2.403   3.122
 5231SOL    HW216374   3.589   2.442   3.013
 5232SOL     OW16375   2.108   3.413   3.590
 5232SOL    HW116376   2.084   3.478   3.656
 5232SOL    HW216377   2.107   3.330   3.637
 5233SOL     OW16378   2.556   2.314   3.123
 5233SOL    HW116379   2.508   2.238   3.089
 5233SOL    HW216380   2.556   2.376   3.051
 5234SOL     OW16381   2.792   3.536   3.329
 5234SOL    HW116382   2.765   3.501   3.244
 5234SOL    HW216383   2.785   3.631   3.320
 5235SOL     OW16384   2.327   2.360   2.053
 5235SOL    HW116385   2.384   2.434   2.073
 5235SOL    HW216386   2.241   2.399   2.035
 5236SOL     OW16387   2.009   3.003   3.334
 5236SOL    HW116388   2.011   2.950   3.414
 5236SOL    HW216389   2.026   2.940   3.264
 5237SOL     OW16390   3.188   2.909   3.086
 5237SOL    HW116391   3.212   2.846   3.018
 5237SOL    HW216392   3.117   2.961   3.047
 5238SOL     OW16393   3.172   2.718   2.168
 5238SOL    HW116394   3.096   2.688   2.218
 5238SOL    HW216395   3.148   2.705   2.077
 5239SOL     OW16396   3.634   3.607   3.013
 5239SOL    HW116397   3.693   3.633   2.941
 5239SOL    HW216398   3.609   3.517   2.992
 5240SOL     OW16399   3.105   3.596   2.975
 5240SOL    HW116400   3.188   3.615   2.931
 5240SOL    HW216401   3.109   3.502   2.995
 5241SOL     OW16402   1.946   3.129   2.874
 5241SOL    HW116403   1.932   3.141   2.968
 5241SOL    HW216404   1.872   3.074   2.847
 5242SOL     OW16405   2.540   3.525   3.589
 5242SOL    HW116406   2.486   3.604   3.593
 5242SOL    HW216407   2.600   3.541   3.516
 5243SOL     OW16408   3.576   2.007   2.375
 5243SOL    HW116409   3.645   1.995   2.310
 5243SOL    HW216410   3.564   1.921   2.415
 5244SOL     OW16411   3.251   3.430   2.346
 5244SOL    HW116412   3.312   3.463   2.279
 5244SOL    HW216413   3.205   3.509   2.376
 5245SOL     OW16414   1.994   3.655   3.702
 5245SOL    HW116415   1.942   3.591   3.750
 5245SOL    HW216416   2.044   3.701   3.769
 5246SOL     OW16417   3.139   2.787   2.533
 5246SOL    HW116418   3.213   2.726   2.540
 5246SOL    HW216419   3.173   2.860   2.481
 5247SOL     OW16420   2.677   3.135   3.292
 5247SOL    HW116421   2.650   3.174   3.375
 5247SOL    HW216422   2.607   3.157   3.231
 5248SOL     OW16423   2.537   3.477   2.019
 5248SOL    HW116424   2.544   3.493   1.924
 5248SOL    HW216425   2.480   3.401   2.026
 5249SOL     OW16426   3.486   3.588   3.252
 5249SOL    HW116427   3.540   3.593   3.173
 5249SOL    HW216428   3.475   3.679   3.279
 5250SOL     OW16429   3.699   2.042   2.830
 5250SOL    HW116430   3.730   1.956   2.804
 5250SOL    HW216431   3.613   2.051   2.789
 5251SOL     OW16432   3.069   3.468   1.896
 5251SOL    HW116433   3.059   3.376   1.921
 5251SOL    HW216434   3.008   3.481   1.824
 5252SOL     OW16435   2.686   2.868   3.234
 5252SOL    HW116436   2.730   2.865   3.149
 5252SOL    HW216437   2.686   2.961   3.257
 5253SOL     OW16438   2.778   2.772   2.152
 5253SOL    HW116439   2.839   2.804   2.085
 5253SOL    HW216440   2.826   2.703   2.197
 5254SOL     OW16441   3.353   3.490   1.903
 5254SOL    HW116442   3.259   3.480   1.888
 5254SOL    HW216443   3.391   3.495   1.816
 5255SOL     OW16444   2.232   3.164   3.353
 5255SOL    HW116445   2.218   3.242   3.299
 5255SOL    HW216446   2.154   3.110   3.338
 5256SOL     OW16447   3.466   3.142   3.141
 5256SOL    HW116448   3.533   3.136   3.209
 5256SOL    HW216449   3.409   3.213   3.170
 5257SOL     OW16450   2.913   2.968   2.568
 5257SOL    HW116451   2.842   2.917   2.607
 5257SOL    HW216452   2.975   2.903   2.536
 5258SOL     OW16453   2.881   2.102   2.828
 5258SOL    HW116454   2.877   2.054   2.745
 5258SOL    HW216455   2.878   2.034   2.895
 5259SOL     OW16456   2.465   3.352   2.343
 5259SOL    HW116457   2.507   3.301   2.274
 5259SOL    HW216458   2.398   3.403   2.297
 5260SOL     OW16459   3.584   2.253   3.241
 5260SOL    HW116460   3.655   2.316   3.237
 5260SOL    HW216461   3.613   2.180   3.185
 5261SOL     OW16462   2.121   3.207   2.150
 5261SOL    HW116463   2.028   3.205   2.127
 5261SOL    HW216464   2.123   3.245   2.238
 5262SOL     OW16465   1.974   2.883   3.581
 5262SOL    HW116466   1.897   2.860   3.634
 5262SOL    HW216467   2.048   2.846   3.629
 5263SOL     OW16468   2.535   2.060   3.361
 5263SOL    HW116469   2.618   2.039   3.319
 5263SOL    HW216470   2.559   2.089   3.449
 5264SOL     OW16471   1.898   2.278   1.924
 5264SOL    HW116472   1.856   2.197   1.894
 5264SOL    HW216473   1.949   2.307   1.849
 5265SOL     OW16474   3.291   2.721   3.263
 5265SOL    HW116475   3.242   2.781   3.208
 5265SOL    HW216476   3.380   2.722   3.227
 5266SOL     OW16477   3.041   3.202   1.979
 5266SOL    HW116478   2.950   3.172   1.981
 5266SOL    HW216479   3.069   3.201   2.070
 5267SOL     OW16480   2.481   2.692   3.294
 5267SOL    HW116481   2.536   2.769   3.280
 5267SOL    HW216482   2.543   2.620   3.303
 5268SOL     OW16483   3.347   3.641   2.842
 5268SOL    HW116484   3.373   3.692   2.765
 5268SOL    HW216485   3.430   3.615   2.882
 5269SOL     OW16486   2.580   2.425   3.564
 5269SOL    HW116487   2.617   2.489   3.625
 5269SOL    HW216488   2.608   2.340   3.598
 5270SOL     OW16489   3.332   3.063   3.494
 5270SOL    HW116490   3.321   3.076   3.588
 5270SOL    HW216491   3.426   3.077   3.479
 5271SOL     OW16492   2.241   3.601   3.424
 5271SOL    HW116493   2.155   3.641   3.410
 5271SOL    HW216494   2.222   3.517   3.467
 5272SOL     OW16495   3.529   2.743   3.120
 5272SOL    HW116496   3.526   2.658   3.077
 5272SOL    HW216497   3.523   2.806   3.049
 5273SOL     OW16498   3.080   2.182   2.319
 5273SOL    HW116499   3.143   2.110   2.311
 5273SOL    HW216500   3.109   2.230   2.397
 5274SOL     OW16501   2.450   2.600   2.532
 5274SOL    HW116502   2.491   2.685   2.517
 5274SOL    HW216503   2.383   2.593   2.464
 5275SOL     OW16504   3.625   2.225   3.511
 5275SOL    HW116505   3.607   2.238   3.418
 5275SOL    HW216506   3.555   2.167   3.541
 5276SOL     OW16507   3.614   2.793   3.376
 5276SOL    HW116508   3.609   2.887   3.391
 5276SOL    HW216509   3.593   2.782   3.283
 5277SOL     OW16510   2.725   3.230   1.895
 5277SOL    HW116511   2.684   3.257   1.978
 5277SOL    HW216512   2.742   3.312   1.849
 5278SOL     OW16513   2.521   3.654   2.806
 5278SOL    HW116514   2.499   3.744   2.783
 5278SOL    HW216515   2.617   3.650   2.800
 5279SOL     OW16516   2.729   2.828   2.718
 5279SOL    HW116517   2.779   2.757   2.757
 5279SOL    HW216518   2.695   2.878   2.792
 5280SOL     OW16519   2.941   2.850   1.951
 5280SOL    HW116520   2.920   2.901   1.872
 5280SOL    HW216521   3.016   2.797   1.925
 5281SOL     OW16522   3.716   3.418   2.703
 5281SOL    HW116523   3.637   3.400   2.652
 5281SOL    HW216524   3.716   3.351   2.772
 5282SOL     OW16525   2.087   3.165   3.718
 5282SOL    HW116526   2.019   3.104   3.689
 5282SOL    HW216527   2.070   3.178   3.811
 5283SOL     OW16528   1.946   3.096   2.526
 5283SOL    HW116529   1.950   3.048   2.609
 5283SOL    HW216530   2.014   3.056   2.472
 5284SOL     OW16531   2.543   3.264   3.489
 5284SOL    HW116532   2.463   3.221   3.520
 5284SOL    HW216533   2.539   3.352   3.526
 5285SOL     OW16534   3.677   2.043   3.102
 5285SOL    HW116535   3.671   1.948   3.107
 5285SOL    HW216536   3.689   2.061   3.008
 5286SOL     OW16537   2.291   2.293   2.386
 5286SOL    HW116538   2.324   2.232   2.320
 5286SOL    HW216539   2.251   2.237   2.452
 5287SOL     OW16540   3.561   3.353   2.961
 5287SOL    HW116541   3.481   3.327   2.915
 5287SOL    HW216542   3.576   3.284   3.025
 5288SOL     OW16543   2.191   2.416   3.151
 5288SOL    HW116544   2.238   2.357   3.210
 5288SOL    HW216545   2.211   2.383   3.063
 5289SOL     OW16546   2.688   3.440   2.540
 5289SOL    HW116547   2.677   3.487   2.457
 5289SOL    HW216548   2.612   3.383   2.546
 5290SOL     OW16549   3.294   2.087   2.980
 5290SOL    HW116550   3.319   2.007   3.025
 5290SOL    HW216551   3.242   2.136   3.044
 5291SOL     OW16552   2.870   1.881   3.005
 5291SOL    HW116553   2.817   1.812   2.965
 5291SOL    HW216554   2.958   1.844   3.008
 5292SOL     OW16555   2.634   3.194   2.176
 5292SOL    HW116556   2.601   3.104   2.182
 5292SOL    HW216557   2.716   3.193   2.224
 5293SOL     OW16558   2.482   3.418   3.146
 5293SOL    HW116559   2.484   3.499   3.197
 5293SOL    HW216560   2.569   3.411   3.108
 5294SOL     OW16561   3.214   1.916   2.026
 5294SOL    HW116562   3.242   1.852   1.961
 5294SOL    HW216563   3.127   1.886   2.053
 5295SOL     OW16564   3.158   2.322   2.543
 5295SOL    HW116565   3.105   2.402   2.551
 5295SOL    HW216566   3.155   2.283   2.630
 5296SOL     OW16567   3.446   2.064   2.738
 5296SOL    HW116568   3.386   2.085   2.810
 5296SOL    HW216569   3.447   2.143   2.684
 5297SOL     OW16570   1.906   2.934   2.168
 5297SOL    HW116571   1.999   2.925   2.150
 5297SOL    HW216572   1.877   2.845   2.191
 5298SOL     OW16573   2.745   3.516   2.207
 5298SOL    HW116574   2.675   3.497   2.145
 5298SOL    HW216575   2.714   3.593   2.255
 5299SOL     OW16576   2.094   2.492   3.845
 5299SOL    HW116577   2.007   2.470   3.879
 5299SOL    HW216578   2.092   2.461   3.754
 5300SOL     OW16579   1.865   2.285   4.352
 5300SOL    HW116580   1.777   2.281   4.389
 5300SOL    HW216581   1.872   2.207   4.297
 5301SOL     OW16582   2.429   3.148   4.898
 5301SOL    HW116583   2.341   3.152   4.860
 5301SOL    HW216584   2.444   3.236   4.932
 5302SOL     OW16585   3.421   3.374   4.431
 5302SOL    HW116586   3.379   3.353   4.514
 5302SOL    HW216587   3.350   3.377   4.368
 5303SOL     OW16588   2.991   2.561   4.426
 5303SOL    HW116589   3.041   2.641   4.411
 5303SOL    HW216590   2.945   2.576   4.508
 5304SOL     OW16591   3.627   2.470   3.954
 5304SOL    HW116592   3.608   2.461   3.861
 5304SOL    HW216593   3.592   2.390   3.994
 5305SOL     OW16594   2.618   3.005   4.764
 5305SOL    HW116595   2.549   3.039   4.820
 5305SOL    HW216596   2.653   3.082   4.719
 5306SOL     OW16597   2.729   2.640   5.547
 5306SOL    HW116598   2.714   2.713   5.607
 5306SOL    HW216599   2.752   2.682   5.464
 5307SOL     OW16600   2.548   2.865   4.371
 5307SOL    HW116601   2.613   2.853   4.441
 5307SOL    HW216602   2.478   2.917   4.412
 5308SOL     OW16603   2.573   3.015   5.534
 5308SOL    HW116604   2.620   3.094   5.560
 5308SOL    HW216605   2.490   3.047   5.499
 5309SOL     OW16606   2.193   3.288   4.792
 5309SOL    HW116607   2.120   3.252   4.741
 5309SOL    HW216608   2.243   3.340   4.728
 5310SOL     OW16609   3.322   3.362   5.077
 5310SOL    HW116610   3.372   3.442   5.087
 5310SOL    HW216611   3.262   3.360   5.151
 5311SOL     OW16612   2.286   2.239   5.201
 5311SOL    HW116613   2.374   2.206   5.217
 5311SOL    HW216614   2.230   2.163   5.214
 5312SOL     OW16615   3.474   2.310   4.465
 5312SOL    HW116616   3.400   2.335   4.410
 5312SOL    HW216617   3.492   2.388   4.518
 5313SOL     OW16618   2.082   3.579   4.203
 5313SOL    HW116619   2.117   3.639   4.269
 5313SOL    HW216620   2.152   3.573   4.137
 5314SOL     OW16621   2.998   3.203   5.416
 5314SOL    HW116622   3.039   3.198   5.503
 5314SOL    HW216623   2.945   3.123   5.410
 5315SOL     OW16624   2.090   3.303   4.258
 5315SOL    HW116625   2.073   3.397   4.265
 5315SOL    HW216626   2.031   3.263   4.322
 5316SOL     OW16627   2.118   2.953   4.615
 5316SOL    HW116628   2.115   2.867   4.657
 5316SOL    HW216629   2.061   3.008   4.668
 5317SOL     OW16630   2.475   3.649   5.154
 5317SOL    HW116631   2.392   3.634   5.200
 5317SOL    HW216632   2.500   3.738   5.179
 5318SOL     OW16633   2.449   2.843   3.857
 5318SOL    HW116634   2.494   2.893   3.789
 5318SOL    HW216635   2.488   2.873   3.939
 5319SOL     OW16636   3.459   1.985   5.192
 5319SOL    HW116637   3.460   2.067   5.142
 5319SOL    HW216638   3.446   2.013   5.283
 5320SOL     OW16639   1.983   2.521   4.284
 5320SOL    HW116640   1.947   2.435   4.303
 5320SOL    HW216641   1.972   2.570   4.365
 5321SOL     OW16642   3.699   3.616   4.064
 5321SOL    HW116643   3.767   3.590   4.127
 5321SOL    HW216644   3.722   3.706   4.040
 5322SOL     OW16645   1.889   3.456   3.847
 5322SOL    HW116646   1.875   3.364   3.868
 5322SOL    HW216647   1.869   3.503   3.928
 5323SOL     OW16648   3.550   2.781   4.365
 5323SOL    HW116649   3.634   2.739   4.348
 5323SOL    HW216650   3.531   2.831   4.285
 5324SOL     OW16651   3.503   2.969   4.155
 5324SOL    HW116652   3.588   2.976   4.111
 5324SOL    HW216653   3.510   3.030   4.228
 5325SOL     OW16654   1.983   2.607   5.306
 5325SOL    HW116655   2.075   2.630   5.320
 5325SOL    HW216656   1.935   2.689   5.317
 5326SOL     OW16657   2.476   3.247   4.459
 5326SOL    HW116658   2.430   3.164   4.468
 5326SOL    HW216659   2.459   3.274   4.368
 5327SOL     OW16660   3.151   3.100   5.148
 5327SOL    HW116661   3.184   3.034   5.087
 5327SOL    HW216662   3.208   3.094   5.224
 5328SOL     OW16663   2.697   1.860   4.239
 5328SOL    HW116664   2.737   1.945   4.217
 5328SOL    HW216665   2.603   1.877   4.236
 5329SOL     OW16666   2.053   2.831   4.993
 5329SOL    HW116667   2.137   2.787   4.979
 5329SOL    HW216668   1.989   2.773   4.953
 5330SOL     OW16669   3.391   2.855   3.922
 5330SOL    HW116670   3.322   2.798   3.955
 5330SOL    HW216671   3.432   2.890   4.001
 5331SOL     OW16672   3.073   3.664   5.349
 5331SOL    HW116673   3.056   3.723   5.276
 5331SOL    HW216674   3.075   3.577   5.309
 5332SOL     OW16675   3.327   3.282   4.675
 5332SOL    HW116676   3.259   3.296   4.742
 5332SOL    HW216677   3.316   3.191   4.649
 5333SOL     OW16678   3.514   3.601   4.304
 5333SOL    HW116679   3.502   3.569   4.214
 5333SOL    HW216680   3.495   3.526   4.359
 5334SOL     OW16681   2.459   2.586   3.990
 5334SOL    HW116682   2.464   2.667   3.939
 5334SOL    HW216683   2.393   2.605   4.057
 5335SOL     OW16684   3.141   2.213   4.656
 5335SOL    HW116685   3.051   2.179   4.665
 5335SOL    HW216686   3.192   2.161   4.718
 5336SOL     OW16687   3.438   3.536   4.032
 5336SOL    HW116688   3.530   3.564   4.028
 5336SOL    HW216689   3.416   3.515   3.941
 5337SOL     OW16690   2.656   2.481   5.173
 5337SOL    HW116691   2.633   2.457   5.263
 5337SOL    HW216692   2.614   2.413   5.120
 5338SOL     OW16693   3.257   2.336   5.401
 5338SOL    HW116694   3.258   2.380   5.486
 5338SOL    HW216695   3.317   2.262   5.412
 5339SOL     OW16696   2.818   2.750   5.305
 5339SOL    HW116697   2.872   2.679   5.271
 5339SOL    HW216698   2.770   2.783   5.229
 5340SOL     OW16699   2.856   2.276   4.962
 5340SOL    HW116700   2.772   2.297   5.003
 5340SOL    HW216701   2.832   2.228   4.883
 5341SOL     OW16702   2.913   2.560   4.150
 5341SOL    HW116703   2.928   2.554   4.244
 5341SOL    HW216704   2.830   2.514   4.136
 5342SOL     OW16705   1.950   2.684   4.501
 5342SOL    HW116706   2.032   2.678   4.551
 5342SOL    HW216707   1.907   2.762   4.536
 5343SOL     OW16708   1.987   3.699   5.299
 5343SOL    HW116709   1.986   3.682   5.393
 5343SOL    HW216710   1.895   3.709   5.276
 5344SOL     OW16711   2.754   2.211   3.920
 5344SOL    HW116712   2.796   2.271   3.858
 5344SOL    HW216713   2.765   2.124   3.880
 5345SOL     OW16714   3.575   2.439   5.552
 5345SOL    HW116715   3.536   2.513   5.506
 5345SOL    HW216716   3.595   2.376   5.483
 5346SOL     OW16717   3.237   3.004   4.266
 5346SOL    HW116718   3.317   2.990   4.214
 5346SOL    HW216719   3.186   3.066   4.214
 5347SOL     OW16720   2.406   2.052   4.617
 5347SOL    HW116721   2.409   2.074   4.710
 5347SOL    HW216722   2.427   2.134   4.573
 5348SOL     OW16723   2.869   3.308   4.197
 5348SOL    HW116724   2.829   3.380   4.148
 5348SOL    HW216725   2.852   3.328   4.289
 5349SOL     OW16726   2.213   3.670   4.565
 5349SOL    HW116727   2.263   3.590   4.583
 5349SOL    HW216728   2.274   3.741   4.585
 5350SOL     OW16729   3.665   2.923   4.590
 5350SOL    HW116730   3.610   2.902   4.515
 5350SOL    HW216731   3.605   2.927   4.664
 5351SOL     OW16732   3.089   3.399   5.236
 5351SOL    HW116733   3.075   3.327   5.297
 5351SOL    HW216734   3.026   3.385   5.166
 5352SOL     OW16735   2.182   2.818   3.974
 5352SOL    HW116736   2.263   2.836   3.927
 5352SOL    HW216737   2.150   2.736   3.935
 5353SOL     OW16738   3.339   2.603   4.452
 5353SOL    HW116739   3.330   2.559   4.536
 5353SOL    HW216740   3.417   2.658   4.461
 5354SOL     OW16741   2.328   3.126   5.461
 5354SOL    HW116742   2.300   3.131   5.370
 5354SOL    HW216743   2.246   3.124   5.511
 5355SOL     OW16744   2.975   3.642   3.948
 5355SOL    HW116745   2.913   3.595   4.003
 5355SOL    HW216746   3.005   3.578   3.883
 5356SOL     OW16747   3.488   3.244   3.812
 5356SOL    HW116748   3.446   3.328   3.795
 5356SOL    HW216749   3.421   3.179   3.793
 5357SOL     OW16750   2.330   3.596   4.049
 5357SOL    HW116751   2.367   3.661   4.108
 5357SOL    HW216752   2.404   3.573   3.991
 5358SOL     OW16753   3.263   1.970   4.156
 5358SOL    HW116754   3.254   1.945   4.064
 5358SOL    HW216755   3.357   1.975   4.170
 5359SOL     OW16756   2.120   3.655   4.952
 5359SOL    HW116757   2.169   3.588   4.999
 5359SOL    HW216758   2.106   3.617   4.865
 5360SOL     OW16759   2.800   3.561   4.625
 5360SOL    HW116760   2.876   3.508   4.646
 5360SOL    HW216761   2.754   3.512   4.556
 5361SOL     OW16762   2.255   2.557   4.201
 5361SOL    HW116763   2.275   2.464   4.210
 5361SOL    HW216764   2.161   2.563   4.218
 5362SOL     OW16765   3.398   2.087   5.450
 5362SOL    HW116766   3.407   2.108   5.543
 5362SOL    HW216767   3.329   2.021   5.446
 5363SOL     OW16768   2.504   1.988   3.830
 5363SOL    HW116769   2.570   1.923   3.853
 5363SOL    HW216770   2.457   1.950   3.756
 5364SOL     OW16771   2.622   2.133   5.475
 5364SOL    HW116772   2.701   2.079   5.481
 5364SOL    HW216773   2.594   2.143   5.566
 5365SOL     OW16774   2.738   3.382   4.918
 5365SOL    HW116775   2.723   3.347   4.831
 5365SOL    HW216776   2.808   3.328   4.954
 5366SOL     OW16777   3.204   2.450   5.156
 5366SOL    HW116778   3.234   2.419   5.241
 5366SOL    HW216779   3.239   2.539   5.149
 5367SOL     OW16780   2.676   3.258   4.662
 5367SOL    HW116781   2.761   3.246   4.618
 5367SOL    HW216782   2.612   3.258   4.592
 5368SOL     OW16783   2.789   2.370   4.627
 5368SOL    HW116784   2.766   2.362   4.535
 5368SOL    HW216785   2.823   2.284   4.651
 5369SOL     OW16786   2.443   1.926   4.204
 5369SOL    HW116787   2.369   1.915   4.262
 5369SOL    HW216788   2.424   2.007   4.156
 5370SOL     OW16789   3.290   3.061   3.765
 5370SOL    HW116790   3.321   2.985   3.815
 5370SOL    HW216791   3.204   3.080   3.803
 5371SOL     OW16792   2.803   2.110   4.185
 5371SOL    HW116793   2.774   2.150   4.103
 5371SOL    HW216794   2.897   2.125   4.187
 5372SOL     OW16795   2.943   2.543   5.183
 5372SOL    HW116796   2.874   2.477   5.191
 5372SOL    HW216797   3.024   2.492   5.178
 5373SOL     OW16798   3.085   3.431   4.517
 5373SOL    HW116799   3.103   3.500   4.453
 5373SOL    HW216800   3.154   3.443   4.583
 5374SOL     OW16801   2.330   3.011   4.458
 5374SOL    HW116802   2.261   2.992   4.521
 5374SOL    HW216803   2.291   2.994   4.373
 5375SOL     OW16804   3.131   3.659   4.329
 5375SOL    HW116805   3.175   3.723   4.274
 5375SOL    HW216806   3.061   3.708   4.372
 5376SOL     OW16807   2.886   2.405   3.745
 5376SOL    HW116808   2.844   2.488   3.726
 5376SOL    HW216809   2.951   2.426   3.813
 5377SOL     OW16810   1.937   2.423   5.110
 5377SOL    HW116811   2.030   2.418   5.089
 5377SOL    HW216812   1.931   2.489   5.179
 5378SOL     OW16813   2.416   2.083   4.891
 5378SOL    HW116814   2.465   2.006   4.921
 5378SOL    HW216815   2.333   2.079   4.939
 5379SOL     OW16816   2.727   2.320   4.364
 5379SOL    HW116817   2.685   2.375   4.298
 5379SOL    HW216818   2.751   2.240   4.317
 5380SOL     OW16819   2.874   1.915   4.476
 5380SOL    HW116820   2.819   1.904   4.399
 5380SOL    HW216821   2.855   1.839   4.531
 5381SOL     OW16822   3.299   3.025   4.581
 5381SOL    HW116823   3.230   2.958   4.580
 5381SOL    HW216824   3.323   3.036   4.489
 5382SOL     OW16825   3.328   2.467   4.702
 5382SOL    HW116826   3.279   2.385   4.706
 5382SOL    HW216827   3.388   2.462   4.776
 5383SOL     OW16828   3.722   2.680   4.099
 5383SOL    HW116829   3.767   2.625   4.163
 5383SOL    HW216830   3.685   2.619   4.035
 5384SOL     OW16831   2.354   3.278   3.881
 5384SOL    HW116832   2.279   3.250   3.934
 5384SOL    HW216833   2.336   3.244   3.794
 5385SOL     OW16834   3.528   3.127   4.371
 5385SOL    HW116835   3.623   3.131   4.380
 5385SOL    HW216836   3.498   3.216   4.392
 5386SOL     OW16837   3.256   2.433   3.795
 5386SOL    HW116838   3.195   2.415   3.867
 5386SOL    HW216839   3.340   2.400   3.827
 5387SOL     OW16840   2.384   2.130   4.038
 5387SOL    HW116841   2.425   2.079   3.968
 5387SOL    HW216842   2.363   2.214   3.997
 5388SOL     OW16843   3.614   3.097   5.296
 5388SOL    HW116844   3.701   3.061   5.279
 5388SOL    HW216845   3.631   3.186   5.327
 5389SOL     OW16846   2.921   3.215   5.058
 5389SOL    HW116847   2.846   3.184   5.109
 5389SOL    HW216848   2.997   3.174   5.099
 5390SOL     OW16849   3.468   3.490   5.378
 5390SOL    HW116850   3.461   3.523   5.289
 5390SOL    HW216851   3.550   3.440   5.379
 5391SOL     OW16852   2.990   3.065   4.830
 5391SOL    HW116853   2.931   3.103   4.895
 5391SOL    HW216854   2.956   3.097   4.746
 5392SOL     OW16855   3.494   2.961   4.800
 5392SOL    HW116856   3.487   3.021   4.874
 5392SOL    HW216857   3.414   2.975   4.749
 5393SOL     OW16858   2.779   1.960   5.120
 5393SOL    HW116859   2.804   1.940   5.030
 5393SOL    HW216860   2.858   1.999   5.159
 5394SOL     OW16861   2.846   2.976   5.447
 5394SOL    HW116862   2.754   2.992   5.467
 5394SOL    HW216863   2.846   2.899   5.391
 5395SOL     OW16864   2.571   2.923   4.095
 5395SOL    HW116865   2.556   2.907   4.188
 5395SOL    HW216866   2.646   2.869   4.073
 5396SOL     OW16867   2.279   2.675   4.975
 5396SOL    HW116868   2.348   2.687   5.041
 5396SOL    HW216869   2.244   2.588   4.992
 5397SOL     OW16870   3.128   2.240   4.998
 5397SOL    HW116871   3.161   2.317   5.045
 5397SOL    HW216872   3.038   2.262   4.975
 5398SOL     OW16873   1.932   3.434   5.075
 5398SOL    HW116874   1.902   3.509   5.023
 5398SOL    HW216875   2.027   3.439   5.072
 5399SOL     OW16876   2.213   2.970   4.215
 5399SOL    HW116877   2.217   3.043   4.153
 5399SOL    HW216878   2.210   2.892   4.159
 5400SOL     OW16879   2.410   2.400   4.586
 5400SOL    HW116880   2.426   2.457   4.511
 5400SOL    HW216881   2.476   2.426   4.650
 5401SOL     OW16882   3.110   3.210   4.113
 5401SOL    HW116883   3.166   3.281   4.144
 5401SOL    HW216884   3.023   3.231   4.147
 5402SOL     OW16885   3.141   3.320   4.871
 5402SOL    HW116886   3.197   3.322   4.948
 5402SOL    HW216887   3.086   3.242   4.883
 5403SOL     OW16888   3.443   2.485   4.202
 5403SOL    HW116889   3.397   2.540   4.266
 5403SOL    HW216890   3.486   2.547   4.144
 5404SOL     OW16891   2.208   3.389   5.039
 5404SOL    HW116892   2.196   3.346   4.955
 5404SOL    HW216893   2.303   3.401   5.047
 5405SOL     OW16894   2.275   2.608   5.326
 5405SOL    HW116895   2.338   2.650   5.268
 5405SOL    HW216896   2.318   2.527   5.353
 5406SOL     OW16897   3.463   2.640   5.404
 5406SOL    HW116898   3.377   2.681   5.398
 5406SOL    HW216899   3.515   2.683   5.336
 5407SOL     OW16900   2.858   1.982   5.475
 5407SOL    HW116901   2.913   2.056   5.451
 5407SOL    HW216902   2.909   1.905   5.451
 5408SOL     OW16903   2.376   1.897   5.465
 5408SOL    HW116904   2.325   1.844   5.404
 5408SOL    HW216905   2.314   1.965   5.495
 5409SOL     OW16906   2.445   2.734   4.756
 5409SOL    HW116907   2.476   2.825   4.753
 5409SOL    HW216908   2.389   2.730   4.833
 5410SOL     OW16909   3.221   2.721   4.754
 5410SOL    HW116910   3.138   2.712   4.707
 5410SOL    HW216911   3.261   2.634   4.750
 5411SOL     OW16912   3.067   2.391   3.991
 5411SOL    HW116913   3.076   2.313   4.045
 5411SOL    HW216914   3.025   2.455   4.048
 5412SOL     OW16915   1.907   3.172   5.001
 5412SOL    HW116916   1.941   3.119   5.072
 5412SOL    HW216917   1.915   3.262   5.033
 5413SOL     OW16918   2.584   2.491   4.780
 5413SOL    HW116919   2.660   2.475   4.725
 5413SOL    HW216920   2.558   2.581   4.761
 5414SOL     OW16921   3.594   2.821   5.581
 5414SOL    HW116922   3.551   2.763   5.519
 5414SOL    HW216923   3.530   2.833   5.651
 5415SOL     OW16924   2.221   1.897   4.336
 5415SOL    HW116925   2.150   1.958   4.318
 5415SOL    HW216926   2.206   1.868   4.426
 5416SOL     OW16927   3.478   2.236   4.091
 5416SOL    HW116928   3.505   2.172   4.157
 5416SOL    HW216929   3.455   2.314   4.142
 5417SOL     OW16930   2.889   2.621   4.685
 5417SOL    HW116931   2.887   2.639   4.779
 5417SOL    HW216932   2.863   2.529   4.677
 5418SOL     OW16933   2.846   3.429   5.441
 5418SOL    HW116934   2.829   3.472   5.357
 5418SOL    HW216935   2.888   3.347   5.418
 5419SOL     OW16936   3.708   3.366   5.324
 5419SOL    HW116937   3.729   3.394   5.235
 5419SOL    HW216938   3.788   3.380   5.374
 5420SOL     OW16939   2.216   2.781   5.532
 5420SOL    HW116940   2.299   2.797   5.577
 5420SOL    HW216941   2.238   2.717   5.464
 5421SOL     OW16942   3.392   2.135   3.851
 5421SOL    HW116943   3.327   2.070   3.877
 5421SOL    HW216944   3.425   2.171   3.934
 5422SOL     OW16945   3.154   2.688   3.755
 5422SOL    HW116946   3.197   2.603   3.759
 5422SOL    HW216947   3.186   2.728   3.674
 5423SOL     OW16948   2.927   3.197   4.577
 5423SOL    HW116949   2.930   3.124   4.515
 5423SOL    HW216950   2.989   3.261   4.542
 5424SOL     OW16951   2.172   2.673   4.671
 5424SOL    HW116952   2.265   2.695   4.663
 5424SOL    HW216953   2.172   2.586   4.712
 5425SOL     OW16954   2.189   2.361   4.735
 5425SOL    HW116955   2.149   2.287   4.689
 5425SOL    HW216956   2.268   2.381   4.685
 5426SOL     OW16957   2.997   2.239   5.403
 5426SOL    HW116958   2.949   2.293   5.466
 5426SOL    HW216959   3.085   2.277   5.400
 5427SOL     OW16960   3.022   2.065   5.193
 5427SOL    HW116961   3.012   2.127   5.265
 5427SOL    HW216962   3.062   2.117   5.123
 5428SOL     OW16963   1.867   3.183   3.919
 5428SOL    HW116964   1.780   3.197   3.882
 5428SOL    HW216965   1.864   3.094   3.953
 5429SOL     OW16966   1.957   3.646   4.661
 5429SOL    HW116967   1.926   3.567   4.617
 5429SOL    HW216968   2.043   3.663   4.623
 5430SOL     OW16969   2.359   3.436   4.630
 5430SOL    HW116970   2.427   3.499   4.654
 5430SOL    HW216971   2.404   3.373   4.574
 5431SOL     OW16972   2.846   2.654   4.951
 5431SOL    HW116973   2.903   2.631   5.025
 5431SOL    HW216974   2.760   2.619   4.975
 5432SOL     OW16975   1.899   2.399   4.841
 5432SOL    HW116976   1.984   2.398   4.796
 5432SOL    HW216977   1.921   2.413   4.933
 5433SOL     OW16978   2.061   2.388   5.447
 5433SOL    HW116979   2.122   2.356   5.381
 5433SOL    HW216980   2.011   2.456   5.402
 5434SOL     OW16981   3.239   2.802   5.383
 5434SOL    HW116982   3.260   2.895   5.381
 5434SOL    HW216983   3.236   2.776   5.291
 5435SOL     OW16984   2.677   2.431   4.084
 5435SOL    HW116985   2.682   2.357   4.024
 5435SOL    HW216986   2.604   2.483   4.052
 5436SOL     OW16987   3.504   2.464   4.911
 5436SOL    HW116988   3.492   2.403   4.984
 5436SOL    HW216989   3.589   2.441   4.875
 5437SOL     OW16990   2.107   3.413   5.452
 5437SOL    HW116991   2.084   3.478   5.518
 5437SOL    HW216992   2.108   3.330   5.499
 5438SOL     OW16993   2.557   2.314   4.985
 5438SOL    HW116994   2.508   2.238   4.952
 5438SOL    HW216995   2.556   2.376   4.912
 5439SOL     OW16996   2.792   3.536   5.191
 5439SOL    HW116997   2.765   3.501   5.106
 5439SOL    HW216998   2.785   3.631   5.182
 5440SOL     OW16999   2.327   2.360   3.915
 5440SOL    HW117000   2.384   2.434   3.935
 5440SOL    HW217001   2.241   2.399   3.897
 5441SOL     OW17002   2.009   3.003   5.196
 5441SOL    HW117003   2.011   2.950   5.276
 5441SOL    HW217004   2.026   2.940   5.126
 5442SOL     OW17005   3.188   2.909   4.948
 5442SOL    HW117006   3.212   2.846   4.880
 5442SOL    HW217007   3.117   2.961   4.909
 5443SOL     OW17008   3.172   2.718   4.030
 5443SOL    HW117009   3.096   2.688   4.080
 5443SOL    HW217010   3.148   2.705   3.939
 5444SOL     OW17011   3.634   3.607   4.875
 5444SOL    HW117012   3.693   3.632   4.804
 5444SOL    HW217013   3.609   3.517   4.854
 5445SOL     OW17014   3.105   3.596   4.838
 5445SOL    HW117015   3.188   3.615   4.793
 5445SOL    HW217016   3.109   3.502   4.857
 5446SOL     OW17017   1.945   3.129   4.736
 5446SOL    HW117018   1.932   3.141   4.830
 5446SOL    HW217019   1.872   3.074   4.708
 5447SOL     OW17020   2.540   3.525   5.451
 5447SOL    HW117021   2.486   3.604   5.455
 5447SOL    HW217022   2.600   3.540   5.378
 5448SOL     OW17023   3.576   2.007   4.237
 5448SOL    HW117024   3.645   1.995   4.172
 5448SOL    HW217025   3.564   1.921   4.277
 5449SOL     OW17026   3.251   3.430   4.208
 5449SOL    HW117027   3.312   3.462   4.142
 5449SOL    HW217028   3.205   3.509   4.238
 5450SOL     OW17029   1.994   3.655   5.564
 5450SOL    HW117030   1.942   3.591   5.612
 5450SOL    HW217031   2.044   3.701   5.631
 5451SOL     OW17032   3.139   2.787   4.395
 5451SOL    HW117033   3.213   2.726   4.402
 5451SOL    HW217034   3.173   2.860   4.343
 5452SOL     OW17035   2.677   3.135   5.154
 5452SOL    HW117036   2.650   3.174   5.237
 5452SOL    HW217037   2.607   3.157   5.093
 5453SOL     OW17038   2.537   3.477   3.881
 5453SOL    HW117039   2.544   3.493   3.786
 5453SOL    HW217040   2.480   3.401   3.888
 5454SOL     OW17041   3.486   3.588   5.114
 5454SOL    HW117042   3.540   3.593   5.035
 5454SOL    HW217043   3.475   3.679   5.141
 5455SOL     OW17044   3.699   2.042   4.692
 5455SOL    HW117045   3.730   1.956   4.666
 5455SOL    HW217046   3.613   2.051   4.651
 5456SOL     OW17047   3.069   3.468   3.758
 5456SOL    HW117048   3.059   3.376   3.783
 5456SOL    HW217049   3.008   3.481   3.686
 5457SOL     OW17050   2.686   2.868   5.095
 5457SOL    HW117051   2.730   2.864   5.011
 5457SOL    HW217052   2.686   2.961   5.119
 5458SOL     OW17053   2.778   2.772   4.014
 5458SOL    HW117054   2.839   2.804   3.947
 5458SOL    HW217055   2.826   2.703   4.059
 5459SOL     OW17056   3.353   3.490   3.765
 5459SOL    HW117057   3.259   3.480   3.750
 5459SOL    HW217058   3.391   3.495   3.678
 5460SOL     OW17059   2.232   3.164   5.215
 5460SOL    HW117060   2.218   3.242   5.161
 5460SOL    HW217061   2.155   3.110   5.199
 5461SOL     OW17062   3.466   3.142   5.003
 5461SOL    HW117063   3.533   3.136   5.071
 5461SOL    HW217064   3.409   3.213   5.032
 5462SOL     OW17065   2.913   2.968   4.430
 5462SOL    HW117066   2.842   2.917   4.469
 5462SOL    HW217067   2.975   2.903   4.398
 5463SOL     OW17068   2.881   2.102   4.690
 5463SOL    HW117069   2.877   2.054   4.607
 5463SOL    HW217070   2.878   2.034   4.757
 5464SOL     OW17071   2.465   3.352   4.205
 5464SOL    HW117072   2.507   3.301   4.136
 5464SOL    HW217073   2.398   3.403   4.159
 5465SOL     OW17074   3.584   2.253   5.103
 5465SOL    HW117075   3.655   2.316   5.099
 5465SOL    HW217076   3.613   2.180   5.047
 5466SOL     OW17077   2.121   3.208   4.012
 5466SOL    HW117078   2.028   3.205   3.989
 5466SOL    HW217079   2.123   3.245   4.100
 5467SOL     OW17080   1.974   2.884   5.443
 5467SOL    HW117081   1.898   2.860   5.496
 5467SOL    HW217082   2.049   2.846   5.490
 5468SOL     OW17083   2.534   2.060   5.221
 5468SOL    HW117084   2.619   2.039   5.182
 5468SOL    HW217085   2.555   2.085   5.311
 5469SOL     OW17086   1.897   2.278   3.781
 5469SOL    HW117087   1.858   2.197   3.750
 5469SOL    HW217088   1.950   2.309   3.708
 5470SOL     OW17089   3.291   2.721   5.125
 5470SOL    HW117090   3.242   2.781   5.070
 5470SOL    HW217091   3.380   2.722   5.089
 5471SOL     OW17092   3.041   3.202   3.841
 5471SOL    HW117093   2.950   3.172   3.843
 5471SOL    HW217094   3.069   3.201   3.932
 5472SOL     OW17095   2.480   2.692   5.156
 5472SOL    HW117096   2.536   2.769   5.142
 5472SOL    HW217097   2.542   2.620   5.165
 5473SOL     OW17098   3.347   3.641   4.704
 5473SOL    HW117099   3.373   3.692   4.627
 5473SOL    HW217100   3.429   3.615   4.744
 5474SOL     OW17101   2.583   2.424   5.425
 5474SOL    HW117102   2.614   2.485   5.492
 5474SOL    HW217103   2.604   2.338   5.460
 5475SOL     OW17104   3.332   3.063   5.356
 5475SOL    HW117105   3.321   3.076   5.450
 5475SOL    HW217106   3.426   3.077   5.341
 5476SOL     OW17107   2.241   3.601   5.286
 5476SOL    HW117108   2.155   3.641   5.272
 5476SOL    HW217109   2.222   3.517   5.328
 5477SOL     OW17110   3.529   2.743   4.982
 5477SOL    HW117111   3.526   2.658   4.939
 5477SOL    HW217112   3.523   2.806   4.911
 5478SOL     OW17113   3.080   2.182   4.181
 5478SOL    HW117114   3.143   2.110   4.173
 5478SOL    HW217115   3.109   2.230   4.259
 5479SOL     OW17116   2.450   2.600   4.394
 5479SOL    HW117117   2.491   2.685   4.379
 5479SOL    HW217118   2.383   2.593   4.326
 5480SOL     OW17119   3.625   2.225   5.373
 5480SOL    HW117120   3.606   2.238   5.280
 5480SOL    HW217121   3.555   2.167   5.403
 5481SOL     OW17122   3.614   2.793   5.238
 5481SOL    HW117123   3.609   2.887   5.253
 5481SOL    HW217124   3.593   2.782   5.145
 5482SOL     OW17125   2.725   3.230   3.757
 5482SOL    HW117126   2.684   3.257   3.840
 5482SOL    HW217127   2.742   3.312   3.711
 5483SOL     OW17128   2.521   3.654   4.668
 5483SOL    HW117129   2.499   3.744   4.645
 5483SOL    HW217130   2.617   3.650   4.662
 5484SOL     OW17131   2.729   2.828   4.580
 5484SOL    HW117132   2.779   2.757   4.619
 5484SOL    HW217133   2.695   2.878   4.654
 5485SOL     OW17134   2.941   2.850   3.813
 5485SOL    HW117135   2.920   2.901   3.734
 5485SOL    HW217136   3.016   2.797   3.787
 5486SOL     OW17137   3.716   3.418   4.566
 5486SOL    HW117138   3.637   3.400   4.514
 5486SOL    HW217139   3.716   3.351   4.634
 5487SOL     OW17140   2.087   3.165   5.580
 5487SOL    HW117141   2.020   3.104   5.549
 5487SOL    HW217142   2.068   3.178   5.673
 5488SOL     OW17143   1.946   3.096   4.388
 5488SOL    HW117144   1.950   3.048   4.471
 5488SOL    HW217145   2.014   3.056   4.334
 5489SOL     OW17146   2.543   3.264   5.351
 5489SOL    HW117147   2.463   3.221   5.382
 5489SOL    HW217148   2.539   3.352   5.388
 5490SOL     OW17149   3.678   2.043   4.964
 5490SOL    HW117150   3.670   1.948   4.969
 5490SOL    HW217151   3.690   2.061   4.870
 5491SOL     OW17152   2.292   2.294   4.247
 5491SOL    HW117153   2.323   2.232   4.181
 5491SOL    HW217154   2.253   2.238   4.315
 5492SOL     OW17155   3.561   3.353   4.823
 5492SOL    HW117156   3.481   3.327   4.777
 5492SOL    HW217157   3.576   3.283   4.887
 5493SOL     OW17158   2.191   2.416   5.013
 5493SOL    HW117159   2.237   2.357   5.072
 5493SOL    HW217160   2.211   2.382   4.925
 5494SOL     OW17161   2.688   3.441   4.402
 5494SOL    HW117162   2.677   3.486   4.319
 5494SOL    HW217163   2.612   3.383   4.408
 5495SOL     OW17164   3.294   2.088   4.842
 5495SOL    HW117165   3.318   2.007   4.887
 5495SOL    HW217166   3.242   2.136   4.906
 5496SOL     OW17167   2.871   1.881   4.867
 5496SOL    HW117168   2.817   1.812   4.828
 5496SOL    HW217169   2.959   1.844   4.869
 5497SOL     OW17170   2.634   3.194   4.038
 5497SOL    HW117171   2.601   3.104   4.044
 5497SOL    HW217172   2.717   3.193   4.086
 5498SOL     OW17173   2.482   3.418   5.008
 5498SOL    HW117174   2.484   3.499   5.059
 5498SOL    HW217175   2.569   3.411   4.970
 5499SOL     OW17176   3.214   1.916   3.888
 5499SOL    HW117177   3.242   1.852   3.823
 5499SOL    HW217178   3.127   1.886   3.915
 5500SOL     OW17179   3.158   2.322   4.405
 5500SOL    HW117180   3.105   2.402   4.413
 5500SOL    HW217181   3.155   2.283   4.492
 5501SOL     OW17182   3.446   2.064   4.600
 5501SOL    HW117183   3.386   2.085   4.672
 5501SOL    HW217184   3.447   2.143   4.546
 5502SOL     OW17185   1.906   2.934   4.030
 5502SOL    HW117186   1.999   2.925   4.012
 5502SOL    HW217187   1.877   2.845   4.053
 5503SOL     OW17188   2.745   3.516   4.069
 5503SOL    HW117189   2.675   3.497   4.007
 5503SOL    HW217190   2.714   3.593   4.117
 5504SOL     OW17191   2.087   2.496   5.702
 5504SOL    HW117192   2.004   2.462   5.736
 5504SOL    HW217193   2.090   2.465   5.611
 5505SOL     OW17194   1.877   2.270   6.215
 5505SOL    HW117195   1.785   2.283   6.235
 5505SOL    HW217196   1.878   2.213   6.138
 5506SOL     OW17197   2.433   3.146   6.756
 5506SOL    HW117198   2.347   3.149   6.715
 5506SOL    HW217199   2.446   3.234   6.791
 5507SOL     OW17200   3.421   3.374   6.293
 5507SOL    HW117201   3.378   3.353   6.376
 5507SOL    HW217202   3.350   3.378   6.230
 5508SOL     OW17203   2.986   2.563   6.289
 5508SOL    HW117204   3.040   2.640   6.273
 5508SOL    HW217205   2.946   2.579   6.374
 5509SOL     OW17206   3.626   2.469   5.817
 5509SOL    HW117207   3.608   2.461   5.723
 5509SOL    HW217208   3.592   2.389   5.855
 5510SOL     OW17209   2.669   3.034   6.652
 5510SOL    HW117210   2.585   3.047   6.694
 5510SOL    HW217211   2.681   3.113   6.599
 5511SOL     OW17212   2.752   2.656   7.410
 5511SOL    HW117213   2.715   2.726   7.465
 5511SOL    HW217214   2.770   2.699   7.327
 5512SOL     OW17215   2.556   2.876   6.232
 5512SOL    HW117216   2.614   2.855   6.305
 5512SOL    HW217217   2.480   2.917   6.274
 5513SOL     OW17218   2.589   3.023   7.364
 5513SOL    HW117219   2.625   3.101   7.406
 5513SOL    HW217220   2.495   3.041   7.355
 5514SOL     OW17221   2.195   3.289   6.655
 5514SOL    HW117222   2.120   3.252   6.608
 5514SOL    HW217223   2.242   3.340   6.589
 5515SOL     OW17224   3.322   3.361   6.939
 5515SOL    HW117225   3.372   3.442   6.950
 5515SOL    HW217226   3.262   3.360   7.013
 5516SOL     OW17227   3.474   2.310   6.329
 5516SOL    HW117228   3.401   2.335   6.272
 5516SOL    HW217229   3.494   2.390   6.378
 5517SOL     OW17230   2.083   3.578   6.065
 5517SOL    HW117231   2.117   3.639   6.131
 5517SOL    HW217232   2.152   3.573   5.999
 5518SOL     OW17233   2.998   3.204   7.279
 5518SOL    HW117234   3.039   3.199   7.365
 5518SOL    HW217235   2.946   3.124   7.272
 5519SOL     OW17236   2.091   3.303   6.120
 5519SOL    HW117237   2.074   3.397   6.127
 5519SOL    HW217238   2.029   3.264   6.182
 5520SOL     OW17239   2.116   2.962   6.468
 5520SOL    HW117240   2.106   2.871   6.496
 5520SOL    HW217241   2.064   3.012   6.531
 5521SOL     OW17242   2.475   3.650   7.016
 5521SOL    HW117243   2.392   3.634   7.062
 5521SOL    HW217244   2.500   3.739   7.041
 5522SOL     OW17245   2.449   2.851   5.718
 5522SOL    HW117246   2.495   2.900   5.650
 5522SOL    HW217247   2.491   2.879   5.800
 5523SOL     OW17248   3.466   1.984   7.056
 5523SOL    HW117249   3.452   2.063   7.004
 5523SOL    HW217250   3.446   2.010   7.146
 5524SOL     OW17251   3.699   3.616   5.927
 5524SOL    HW117252   3.767   3.590   5.989
 5524SOL    HW217253   3.722   3.706   5.902
 5525SOL     OW17254   1.890   3.457   5.709
 5525SOL    HW117255   1.875   3.365   5.730
 5525SOL    HW217256   1.869   3.504   5.790
 5526SOL     OW17257   3.549   2.780   6.227
 5526SOL    HW117258   3.634   2.739   6.211
 5526SOL    HW217259   3.531   2.830   6.147
 5527SOL     OW17260   3.503   2.969   6.017
 5527SOL    HW117261   3.588   2.975   5.973
 5527SOL    HW217262   3.510   3.030   6.090
 5528SOL     OW17263   2.476   3.248   6.320
 5528SOL    HW117264   2.431   3.164   6.329
 5528SOL    HW217265   2.459   3.275   6.230
 5529SOL     OW17266   3.152   3.101   7.010
 5529SOL    HW117267   3.184   3.034   6.950
 5529SOL    HW217268   3.208   3.094   7.087
 5530SOL     OW17269   2.070   2.856   6.831
 5530SOL    HW117270   2.154   2.815   6.810
 5530SOL    HW217271   2.004   2.795   6.798
 5531SOL     OW17272   3.392   2.855   5.784
 5531SOL    HW117273   3.322   2.798   5.816
 5531SOL    HW217274   3.432   2.890   5.863
 5532SOL     OW17275   3.073   3.664   7.211
 5532SOL    HW117276   3.056   3.723   7.137
 5532SOL    HW217277   3.074   3.577   7.172
 5533SOL     OW17278   2.229   2.168   7.414
 5533SOL    HW117279   2.274   2.245   7.380
 5533SOL    HW217280   2.137   2.191   7.413
 5534SOL     OW17281   3.327   3.283   6.537
 5534SOL    HW117282   3.259   3.297   6.604
 5534SOL    HW217283   3.316   3.191   6.511
 5535SOL     OW17284   3.514   3.601   6.166
 5535SOL    HW117285   3.502   3.569   6.076
 5535SOL    HW217286   3.494   3.526   6.221
 5536SOL     OW17287   2.429   2.592   5.820
 5536SOL    HW117288   2.449   2.676   5.780
 5536SOL    HW217289   2.388   2.614   5.903
 5537SOL     OW17290   3.140   2.213   6.524
 5537SOL    HW117291   3.058   2.163   6.523
 5537SOL    HW217292   3.196   2.164   6.585
 5538SOL     OW17293   3.438   3.536   5.894
 5538SOL    HW117294   3.530   3.564   5.890
 5538SOL    HW217295   3.416   3.515   5.803
 5539SOL     OW17296   3.268   2.342   7.262
 5539SOL    HW117297   3.264   2.383   7.349
 5539SOL    HW217298   3.321   2.263   7.275
 5540SOL     OW17299   2.836   2.758   7.161
 5540SOL    HW117300   2.884   2.682   7.127
 5540SOL    HW217301   2.785   2.788   7.086
 5541SOL     OW17302   2.920   2.559   6.014
 5541SOL    HW117303   2.943   2.559   6.107
 5541SOL    HW217304   2.844   2.500   6.007
 5542SOL     OW17305   1.986   3.697   7.161
 5542SOL    HW117306   1.985   3.681   7.255
 5542SOL    HW217307   1.895   3.711   7.138
 5543SOL     OW17308   2.727   2.204   5.743
 5543SOL    HW117309   2.787   2.272   5.712
 5543SOL    HW217310   2.784   2.132   5.769
 5544SOL     OW17311   3.578   2.440   7.413
 5544SOL    HW117312   3.536   2.513   7.368
 5544SOL    HW217313   3.594   2.375   7.345
 5545SOL     OW17314   3.237   3.003   6.128
 5545SOL    HW117315   3.317   2.990   6.076
 5545SOL    HW217316   3.185   3.066   6.077
 5546SOL     OW17317   2.869   3.308   6.059
 5546SOL    HW117318   2.829   3.380   6.010
 5546SOL    HW217319   2.852   3.328   6.151
 5547SOL     OW17320   2.213   3.670   6.428
 5547SOL    HW117321   2.263   3.590   6.445
 5547SOL    HW217322   2.274   3.741   6.447
 5548SOL     OW17323   3.665   2.923   6.452
 5548SOL    HW117324   3.609   2.902   6.377
 5548SOL    HW217325   3.605   2.927   6.526
 5549SOL     OW17326   3.089   3.399   7.098
 5549SOL    HW117327   3.075   3.327   7.159
 5549SOL    HW217328   3.026   3.384   7.028
 5550SOL     OW17329   2.188   2.815   5.833
 5550SOL    HW117330   2.268   2.840   5.787
 5550SOL    HW217331   2.158   2.736   5.788
 5551SOL     OW17332   3.338   2.604   6.316
 5551SOL    HW117333   3.332   2.559   6.400
 5551SOL    HW217334   3.417   2.658   6.323
 5552SOL     OW17335   2.329   3.130   7.327
 5552SOL    HW117336   2.302   3.136   7.235
 5552SOL    HW217337   2.246   3.126   7.375
 5553SOL     OW17338   2.975   3.642   5.810
 5553SOL    HW117339   2.913   3.594   5.865
 5553SOL    HW217340   3.004   3.578   5.745
 5554SOL     OW17341   3.488   3.245   5.675
 5554SOL    HW117342   3.446   3.328   5.657
 5554SOL    HW217343   3.421   3.179   5.655
 5555SOL     OW17344   2.331   3.595   5.911
 5555SOL    HW117345   2.367   3.661   5.970
 5555SOL    HW217346   2.404   3.573   5.853
 5556SOL     OW17347   3.264   1.967   6.019
 5556SOL    HW117348   3.252   1.945   5.927
 5556SOL    HW217349   3.359   1.974   6.030
 5557SOL     OW17350   2.119   3.654   6.814
 5557SOL    HW117351   2.171   3.588   6.861
 5557SOL    HW217352   2.107   3.617   6.726
 5558SOL     OW17353   2.800   3.562   6.487
 5558SOL    HW117354   2.875   3.508   6.509
 5558SOL    HW217355   2.754   3.512   6.419
 5559SOL     OW17356   3.397   2.087   7.310
 5559SOL    HW117357   3.405   2.106   7.404
 5559SOL    HW217358   3.324   2.026   7.304
 5560SOL     OW17359   2.491   1.971   5.699
 5560SOL    HW117360   2.580   1.937   5.706
 5560SOL    HW217361   2.460   1.942   5.614
 5561SOL     OW17362   2.738   3.383   6.781
 5561SOL    HW117363   2.724   3.350   6.692
 5561SOL    HW217364   2.807   3.327   6.817
 5562SOL     OW17365   3.202   2.455   7.020
 5562SOL    HW117366   3.233   2.420   7.103
 5562SOL    HW217367   3.242   2.541   7.013
 5563SOL     OW17368   2.677   3.270   6.519
 5563SOL    HW117369   2.760   3.255   6.474
 5563SOL    HW217370   2.611   3.263   6.450
 5564SOL     OW17371   2.384   1.924   6.094
 5564SOL    HW117372   2.318   1.954   6.157
 5564SOL    HW217373   2.395   1.997   6.033
 5565SOL     OW17374   3.290   3.061   5.627
 5565SOL    HW117375   3.322   2.985   5.676
 5565SOL    HW217376   3.204   3.080   5.664
 5566SOL     OW17377   2.937   2.522   7.043
 5566SOL    HW117378   2.896   2.449   7.089
 5566SOL    HW217379   3.030   2.499   7.039
 5567SOL     OW17380   3.086   3.431   6.379
 5567SOL    HW117381   3.103   3.499   6.315
 5567SOL    HW217382   3.154   3.442   6.445
 5568SOL     OW17383   2.332   3.012   6.317
 5568SOL    HW117384   2.264   2.994   6.382
 5568SOL    HW217385   2.291   2.993   6.233
 5569SOL     OW17386   3.131   3.659   6.191
 5569SOL    HW117387   3.175   3.723   6.136
 5569SOL    HW217388   3.061   3.708   6.234
 5570SOL     OW17389   2.893   2.409   5.602
 5570SOL    HW117390   2.845   2.490   5.586
 5570SOL    HW217391   2.954   2.430   5.673
 5571SOL     OW17392   3.299   3.026   6.443
 5571SOL    HW117393   3.230   2.960   6.442
 5571SOL    HW217394   3.324   3.037   6.351
 5572SOL     OW17395   3.327   2.467   6.566
 5572SOL    HW117396   3.282   2.383   6.568
 5572SOL    HW217397   3.389   2.463   6.639
 5573SOL     OW17398   3.722   2.680   5.961
 5573SOL    HW117399   3.767   2.624   6.025
 5573SOL    HW217400   3.685   2.619   5.898
 5574SOL     OW17401   2.353   3.278   5.744
 5574SOL    HW117402   2.278   3.249   5.796
 5574SOL    HW217403   2.336   3.243   5.656
 5575SOL     OW17404   3.528   3.127   6.233
 5575SOL    HW117405   3.623   3.131   6.242
 5575SOL    HW217406   3.498   3.216   6.254
 5576SOL     OW17407   3.258   2.434   5.657
 5576SOL    HW117408   3.194   2.414   5.726
 5576SOL    HW217409   3.340   2.398   5.689
 5577SOL     OW17410   2.392   2.116   5.903
 5577SOL    HW117411   2.427   2.064   5.831
 5577SOL    HW217412   2.381   2.204   5.867
 5578SOL     OW17413   3.614   3.097   7.157
 5578SOL    HW117414   3.701   3.061   7.141
 5578SOL    HW217415   3.631   3.186   7.189
 5579SOL     OW17416   2.920   3.217   6.923
 5579SOL    HW117417   2.846   3.183   6.972
 5579SOL    HW217418   2.997   3.175   6.962
 5580SOL     OW17419   3.468   3.490   7.241
 5580SOL    HW117420   3.461   3.523   7.151
 5580SOL    HW217421   3.550   3.441   7.241
 5581SOL     OW17422   2.993   3.067   6.692
 5581SOL    HW117423   2.928   3.095   6.757
 5581SOL    HW217424   2.955   3.093   6.608
 5582SOL     OW17425   3.494   2.961   6.662
 5582SOL    HW117426   3.487   3.021   6.736
 5582SOL    HW217427   3.414   2.976   6.611
 5583SOL     OW17428   2.851   2.977   7.311
 5583SOL    HW117429   2.758   2.994   7.326
 5583SOL    HW217430   2.853   2.902   7.252
 5584SOL     OW17431   2.571   2.921   5.958
 5584SOL    HW117432   2.559   2.909   6.052
 5584SOL    HW217433   2.647   2.868   5.936
 5585SOL     OW17434   3.131   2.246   6.856
 5585SOL    HW117435   3.160   2.317   6.912
 5585SOL    HW217436   3.053   2.280   6.812
 5586SOL     OW17437   1.932   3.434   6.935
 5586SOL    HW117438   1.902   3.510   6.885
 5586SOL    HW217439   2.027   3.440   6.933
 5587SOL     OW17440   2.207   2.967   6.075
 5587SOL    HW117441   2.216   3.046   6.022
 5587SOL    HW217442   2.212   2.894   6.013
 5588SOL     OW17443   3.110   3.210   5.975
 5588SOL    HW117444   3.166   3.281   6.006
 5588SOL    HW217445   3.023   3.231   6.009
 5589SOL     OW17446   3.140   3.320   6.732
 5589SOL    HW117447   3.195   3.321   6.810
 5589SOL    HW217448   3.085   3.242   6.742
 5590SOL     OW17449   3.443   2.485   6.066
 5590SOL    HW117450   3.398   2.542   6.128
 5590SOL    HW217451   3.487   2.545   6.005
 5591SOL     OW17452   2.210   3.386   6.903
 5591SOL    HW117453   2.198   3.345   6.818
 5591SOL    HW217454   2.305   3.400   6.909
 5592SOL     OW17455   3.464   2.641   7.267
 5592SOL    HW117456   3.377   2.680   7.261
 5592SOL    HW217457   3.515   2.684   7.199
 5593SOL     OW17458   2.373   1.925   7.301
 5593SOL    HW117459   2.314   1.861   7.260
 5593SOL    HW217460   2.315   1.988   7.343
 5594SOL     OW17461   3.221   2.721   6.617
 5594SOL    HW117462   3.140   2.712   6.566
 5594SOL    HW217463   3.262   2.635   6.613
 5595SOL     OW17464   3.067   2.392   5.848
 5595SOL    HW117465   3.080   2.314   5.902
 5595SOL    HW217466   3.029   2.456   5.907
 5596SOL     OW17467   2.242   2.105   6.867
 5596SOL    HW117468   2.170   2.099   6.930
 5596SOL    HW217469   2.255   2.014   6.838
 5597SOL     OW17470   1.903   3.173   6.865
 5597SOL    HW117471   1.936   3.122   6.939
 5597SOL    HW217472   1.912   3.264   6.893
 5598SOL     OW17473   3.594   2.822   7.443
 5598SOL    HW117474   3.551   2.762   7.381
 5598SOL    HW217475   3.530   2.833   7.513
 5599SOL     OW17476   3.480   2.236   5.953
 5599SOL    HW117477   3.506   2.171   6.019
 5599SOL    HW217478   3.455   2.313   6.004
 5600SOL     OW17479   2.884   2.613   6.546
 5600SOL    HW117480   2.891   2.642   6.637
 5600SOL    HW217481   2.842   2.527   6.550
 5601SOL     OW17482   2.847   3.430   7.303
 5601SOL    HW117483   2.829   3.472   7.219
 5601SOL    HW217484   2.887   3.347   7.281
 5602SOL     OW17485   3.708   3.366   7.186
 5602SOL    HW117486   3.729   3.393   7.097
 5602SOL    HW217487   3.789   3.380   7.236
 5603SOL     OW17488   3.392   2.135   5.713
 5603SOL    HW117489   3.327   2.071   5.739
 5603SOL    HW217490   3.425   2.171   5.796
 5604SOL     OW17491   3.155   2.689   5.618
 5604SOL    HW117492   3.197   2.603   5.621
 5604SOL    HW217493   3.185   2.728   5.537
 5605SOL     OW17494   2.925   3.199   6.436
 5605SOL    HW117495   2.930   3.126   6.375
 5605SOL    HW217496   2.989   3.262   6.404
 5606SOL     OW17497   3.003   2.274   7.232
 5606SOL    HW117498   2.955   2.308   7.307
 5606SOL    HW217499   3.094   2.298   7.249
 5607SOL     OW17500   3.053   2.059   7.059
 5607SOL    HW117501   3.018   2.123   7.121
 5607SOL    HW217502   3.069   2.109   6.979
 5608SOL     OW17503   1.866   3.187   5.780
 5608SOL    HW117504   1.779   3.201   5.742
 5608SOL    HW217505   1.864   3.097   5.814
 5609SOL     OW17506   1.957   3.646   6.523
 5609SOL    HW117507   1.926   3.567   6.479
 5609SOL    HW217508   2.043   3.662   6.485
 5610SOL     OW17509   2.359   3.437   6.491
 5610SOL    HW117510   2.427   3.499   6.516
 5610SOL    HW217511   2.404   3.373   6.436
 5611SOL     OW17512   2.855   2.648   6.810
 5611SOL    HW117513   2.903   2.616   6.886
 5611SOL    HW217514   2.764   2.652   6.839
 5612SOL     OW17515   3.239   2.801   7.245
 5612SOL    HW117516   3.259   2.895   7.244
 5612SOL    HW217517   3.237   2.776   7.152
 5613SOL     OW17518   3.504   2.464   6.773
 5613SOL    HW117519   3.493   2.403   6.846
 5613SOL    HW217520   3.589   2.442   6.736
 5614SOL     OW17521   2.106   3.413   7.314
 5614SOL    HW117522   2.084   3.479   7.379
 5614SOL    HW217523   2.110   3.331   7.362
 5615SOL     OW17524   2.792   3.537   7.054
 5615SOL    HW117525   2.766   3.500   6.969
 5615SOL    HW217526   2.784   3.632   7.043
 5616SOL     OW17527   2.333   2.353   5.729
 5616SOL    HW117528   2.390   2.425   5.755
 5616SOL    HW217529   2.245   2.391   5.729
 5617SOL     OW17530   2.005   2.996   7.054
 5617SOL    HW117531   2.042   2.940   7.122
 5617SOL    HW217532   2.024   2.950   6.972
 5618SOL     OW17533   3.189   2.910   6.810
 5618SOL    HW117534   3.212   2.847   6.742
 5618SOL    HW217535   3.119   2.963   6.771
 5619SOL     OW17536   3.173   2.718   5.892
 5619SOL    HW117537   3.096   2.688   5.941
 5619SOL    HW217538   3.150   2.705   5.800
 5620SOL     OW17539   3.634   3.607   6.737
 5620SOL    HW117540   3.693   3.632   6.666
 5620SOL    HW217541   3.609   3.517   6.716
 5621SOL     OW17542   3.105   3.596   6.700
 5621SOL    HW117543   3.188   3.615   6.655
 5621SOL    HW217544   3.109   3.503   6.719
 5622SOL     OW17545   1.956   3.145   6.602
 5622SOL    HW117546   1.933   3.149   6.695
 5622SOL    HW217547   1.889   3.090   6.562
 5623SOL     OW17548   2.541   3.527   7.316
 5623SOL    HW117549   2.487   3.606   7.317
 5623SOL    HW217550   2.601   3.539   7.242
 5624SOL     OW17551   3.576   2.007   6.100
 5624SOL    HW117552   3.645   1.995   6.034
 5624SOL    HW217553   3.564   1.921   6.139
 5625SOL     OW17554   3.251   3.430   6.070
 5625SOL    HW117555   3.312   3.462   6.003
 5625SOL    HW217556   3.205   3.508   6.100
 5626SOL     OW17557   1.994   3.655   7.426
 5626SOL    HW117558   1.943   3.591   7.474
 5626SOL    HW217559   2.044   3.702   7.493
 5627SOL     OW17560   3.138   2.785   6.254
 5627SOL    HW117561   3.213   2.726   6.264
 5627SOL    HW217562   3.172   2.859   6.204
 5628SOL     OW17563   2.677   3.130   7.017
 5628SOL    HW117564   2.650   3.170   7.100
 5628SOL    HW217565   2.609   3.154   6.955
 5629SOL     OW17566   2.537   3.477   5.743
 5629SOL    HW117567   2.544   3.493   5.648
 5629SOL    HW217568   2.480   3.401   5.750
 5630SOL     OW17569   3.487   3.588   6.977
 5630SOL    HW117570   3.539   3.593   6.897
 5630SOL    HW217571   3.475   3.679   7.003
 5631SOL     OW17572   3.699   2.042   6.554
 5631SOL    HW117573   3.730   1.956   6.528
 5631SOL    HW217574   3.613   2.050   6.513
 5632SOL     OW17575   3.068   3.469   5.621
 5632SOL    HW117576   3.059   3.376   5.645
 5632SOL    HW217577   3.008   3.481   5.548
 5633SOL     OW17578   2.699   2.863   6.950
 5633SOL    HW117579   2.724   2.879   6.859
 5633SOL    HW217580   2.685   2.950   6.987
 5634SOL     OW17581   2.781   2.771   5.879
 5634SOL    HW117582   2.838   2.805   5.810
 5634SOL    HW217583   2.832   2.702   5.921
 5635SOL     OW17584   3.353   3.491   5.627
 5635SOL    HW117585   3.259   3.480   5.612
 5635SOL    HW217586   3.391   3.495   5.540
 5636SOL     OW17587   2.226   3.164   7.081
 5636SOL    HW117588   2.223   3.243   7.027
 5636SOL    HW217589   2.147   3.115   7.057
 5637SOL     OW17590   3.466   3.142   6.865
 5637SOL    HW117591   3.533   3.136   6.934
 5637SOL    HW217592   3.409   3.213   6.894
 5638SOL     OW17593   2.916   2.971   6.289
 5638SOL    HW117594   2.845   2.921   6.328
 5638SOL    HW217595   2.977   2.904   6.257
 5639SOL     OW17596   2.464   3.352   6.066
 5639SOL    HW117597   2.507   3.301   5.998
 5639SOL    HW217598   2.398   3.404   6.020
 5640SOL     OW17599   3.583   2.255   6.963
 5640SOL    HW117600   3.657   2.317   6.960
 5640SOL    HW217601   3.612   2.181   6.910
 5641SOL     OW17602   2.120   3.206   5.874
 5641SOL    HW117603   2.028   3.207   5.851
 5641SOL    HW217604   2.123   3.245   5.962
 5642SOL     OW17605   1.896   2.278   5.641
 5642SOL    HW117606   1.859   2.196   5.610
 5642SOL    HW217607   1.951   2.309   5.569
 5643SOL     OW17608   3.292   2.721   6.987
 5643SOL    HW117609   3.243   2.783   6.932
 5643SOL    HW217610   3.381   2.723   6.951
 5644SOL     OW17611   3.041   3.202   5.703
 5644SOL    HW117612   2.950   3.172   5.705
 5644SOL    HW217613   3.069   3.201   5.794
 5645SOL     OW17614   3.347   3.642   6.566
 5645SOL    HW117615   3.373   3.692   6.489
 5645SOL    HW217616   3.429   3.615   6.606
 5646SOL     OW17617   3.332   3.063   7.219
 5646SOL    HW117618   3.321   3.076   7.313
 5646SOL    HW217619   3.426   3.076   7.203
 5647SOL     OW17620   2.241   3.602   7.148
 5647SOL    HW117621   2.155   3.640   7.135
 5647SOL    HW217622   2.223   3.517   7.189
 5648SOL     OW17623   3.529   2.743   6.844
 5648SOL    HW117624   3.527   2.658   6.801
 5648SOL    HW217625   3.524   2.806   6.772
 5649SOL     OW17626   3.101   2.195   6.034
 5649SOL    HW117627   3.152   2.114   6.033
 5649SOL    HW217628   3.121   2.234   6.119
 5650SOL     OW17629   3.624   2.225   7.234
 5650SOL    HW117630   3.606   2.238   7.141
 5650SOL    HW217631   3.555   2.166   7.264
 5651SOL     OW17632   3.615   2.793   7.099
 5651SOL    HW117633   3.608   2.887   7.115
 5651SOL    HW217634   3.593   2.782   7.007
 5652SOL     OW17635   2.725   3.231   5.620
 5652SOL    HW117636   2.684   3.258   5.702
 5652SOL    HW217637   2.742   3.312   5.573
 5653SOL     OW17638   2.521   3.654   6.531
 5653SOL    HW117639   2.500   3.745   6.507
 5653SOL    HW217640   2.617   3.650   6.523
 5654SOL     OW17641   2.737   2.833   6.445
 5654SOL    HW117642   2.783   2.757   6.482
 5654SOL    HW217643   2.718   2.889   6.520
 5655SOL     OW17644   2.941   2.852   5.676
 5655SOL    HW117645   2.919   2.901   5.597
 5655SOL    HW217646   3.016   2.797   5.650
 5656SOL     OW17647   3.716   3.418   6.428
 5656SOL    HW117648   3.637   3.399   6.376
 5656SOL    HW217649   3.716   3.351   6.496
 5657SOL     OW17650   2.086   3.165   7.446
 5657SOL    HW117651   2.003   3.123   7.424
 5657SOL    HW217652   2.081   3.182   7.540
 5658SOL     OW17653   1.944   3.095   6.247
 5658SOL    HW117654   1.950   3.057   6.334
 5658SOL    HW217655   2.017   3.057   6.198
 5659SOL     OW17656   2.538   3.272   7.203
 5659SOL    HW117657   2.468   3.221   7.244
 5659SOL    HW217658   2.535   3.357   7.248
 5660SOL     OW17659   3.681   2.045   6.826
 5660SOL    HW117660   3.669   1.950   6.833
 5660SOL    HW217661   3.691   2.061   6.732
 5661SOL     OW17662   3.561   3.353   6.685
 5661SOL    HW117663   3.481   3.327   6.640
 5661SOL    HW217664   3.576   3.284   6.749
 5662SOL     OW17665   2.688   3.442   6.262
 5662SOL    HW117666   2.677   3.487   6.178
 5662SOL    HW217667   2.612   3.385   6.269
 5663SOL     OW17668   3.296   2.087   6.705
 5663SOL    HW117669   3.314   2.002   6.745
 5663SOL    HW217670   3.244   2.134   6.770
 5664SOL     OW17671   2.904   1.910   6.751
 5664SOL    HW117672   2.824   1.859   6.764
 5664SOL    HW217673   2.973   1.845   6.743
 5665SOL     OW17674   2.633   3.194   5.901
 5665SOL    HW117675   2.601   3.104   5.907
 5665SOL    HW217676   2.716   3.193   5.949
 5666SOL     OW17677   2.481   3.419   6.869
 5666SOL    HW117678   2.484   3.499   6.920
 5666SOL    HW217679   2.569   3.410   6.832
 5667SOL     OW17680   3.214   1.916   5.751
 5667SOL    HW117681   3.241   1.853   5.684
 5667SOL    HW217682   3.128   1.886   5.779
 5668SOL     OW17683   3.160   2.322   6.272
 5668SOL    HW117684   3.106   2.401   6.278
 5668SOL    HW217685   3.157   2.285   6.361
 5669SOL     OW17686   3.445   2.063   6.462
 5669SOL    HW117687   3.389   2.085   6.536
 5669SOL    HW217688   3.447   2.143   6.409
 5670SOL     OW17689   1.898   2.938   5.885
 5670SOL    HW117690   1.993   2.929   5.876
 5670SOL    HW217691   1.866   2.848   5.882
 5671SOL     OW17692   2.745   3.516   5.931
 5671SOL    HW117693   2.675   3.497   5.869
 5671SOL    HW217694   2.714   3.593   5.979
 5672SOL     OW17695   1.861   2.274   8.083
 5672SOL    HW117696   1.789   2.273   8.147
 5672SOL    HW217697   1.840   2.203   8.022
 5673SOL     OW17698   2.428   3.148   8.621
 5673SOL    HW117699   2.341   3.152   8.584
 5673SOL    HW217700   2.444   3.236   8.656
 5674SOL     OW17701   3.421   3.374   8.155
 5674SOL    HW117702   3.379   3.353   8.238
 5674SOL    HW217703   3.350   3.378   8.091
 5675SOL     OW17704   2.989   2.564   8.150
 5675SOL    HW117705   3.042   2.642   8.135
 5675SOL    HW217706   2.946   2.579   8.234
 5676SOL     OW17707   3.626   2.470   7.679
 5676SOL    HW117708   3.608   2.462   7.585
 5676SOL    HW217709   3.592   2.388   7.716
 5677SOL     OW17710   2.617   3.004   8.487
 5677SOL    HW117711   2.548   3.039   8.544
 5677SOL    HW217712   2.653   3.082   8.443
 5678SOL     OW17713   2.726   2.638   9.269
 5678SOL    HW117714   2.715   2.709   9.332
 5678SOL    HW217715   2.751   2.682   9.188
 5679SOL     OW17716   2.543   2.855   8.106
 5679SOL    HW117717   2.610   2.849   8.173
 5679SOL    HW217718   2.477   2.914   8.143
 5680SOL     OW17719   2.572   3.013   9.259
 5680SOL    HW117720   2.619   3.092   9.285
 5680SOL    HW217721   2.489   3.046   9.225
 5681SOL     OW17722   2.194   3.287   8.515
 5681SOL    HW117723   2.120   3.252   8.466
 5681SOL    HW217724   2.243   3.339   8.452
 5682SOL     OW17725   3.322   3.362   8.800
 5682SOL    HW117726   3.373   3.442   8.811
 5682SOL    HW217727   3.263   3.361   8.875
 5683SOL     OW17728   2.293   2.256   8.950
 5683SOL    HW117729   2.384   2.229   8.947
 5683SOL    HW217730   2.243   2.175   8.956
 5684SOL     OW17731   3.474   2.310   8.190
 5684SOL    HW117732   3.401   2.335   8.133
 5684SOL    HW217733   3.494   2.389   8.240
 5685SOL     OW17734   2.083   3.578   7.927
 5685SOL    HW117735   2.117   3.639   7.993
 5685SOL    HW217736   2.152   3.574   7.861
 5686SOL     OW17737   2.998   3.203   9.140
 5686SOL    HW117738   3.039   3.198   9.227
 5686SOL    HW217739   2.945   3.124   9.134
 5687SOL     OW17740   2.091   3.303   7.981
 5687SOL    HW117741   2.075   3.397   7.987
 5687SOL    HW217742   2.031   3.263   8.045
 5688SOL     OW17743   2.119   2.953   8.340
 5688SOL    HW117744   2.117   2.868   8.384
 5688SOL    HW217745   2.061   3.009   8.391
 5689SOL     OW17746   2.475   3.649   8.878
 5689SOL    HW117747   2.392   3.634   8.924
 5689SOL    HW217748   2.500   3.738   8.903
 5690SOL     OW17749   3.457   1.985   8.916
 5690SOL    HW117750   3.462   2.066   8.865
 5690SOL    HW217751   3.446   2.014   9.006
 5691SOL     OW17752   1.924   2.533   8.031
 5691SOL    HW117753   1.917   2.440   8.051
 5691SOL    HW217754   1.940   2.574   8.117
 5692SOL     OW17755   3.699   3.616   7.789
 5692SOL    HW117756   3.767   3.590   7.851
 5692SOL    HW217757   3.722   3.706   7.764
 5693SOL     OW17758   1.891   3.456   7.571
 5693SOL    HW117759   1.874   3.364   7.593
 5693SOL    HW217760   1.870   3.504   7.651
 5694SOL     OW17761   3.549   2.781   8.089
 5694SOL    HW117762   3.634   2.738   8.072
 5694SOL    HW217763   3.530   2.830   8.010
 5695SOL     OW17764   3.503   2.968   7.880
 5695SOL    HW117765   3.587   2.975   7.835
 5695SOL    HW217766   3.510   3.030   7.952
 5696SOL     OW17767   1.981   2.603   9.032
 5696SOL    HW117768   2.073   2.624   9.048
 5696SOL    HW217769   1.936   2.687   9.043
 5697SOL     OW17770   2.476   3.247   8.183
 5697SOL    HW117771   2.429   3.164   8.192
 5697SOL    HW217772   2.459   3.274   8.092
 5698SOL     OW17773   3.151   3.100   8.872
 5698SOL    HW117774   3.184   3.034   8.812
 5698SOL    HW217775   3.208   3.094   8.948
 5699SOL     OW17776   2.695   1.877   7.988
 5699SOL    HW117777   2.726   1.930   7.915
 5699SOL    HW217778   2.602   1.862   7.970
 5700SOL     OW17779   2.054   2.831   8.717
 5700SOL    HW117780   2.137   2.786   8.702
 5700SOL    HW217781   1.988   2.773   8.678
 5701SOL     OW17782   3.393   2.855   7.646
 5701SOL    HW117783   3.323   2.797   7.676
 5701SOL    HW217784   3.432   2.890   7.726
 5702SOL     OW17785   3.073   3.664   9.073
 5702SOL    HW117786   3.056   3.723   9.000
 5702SOL    HW217787   3.075   3.577   9.033
 5703SOL     OW17788   2.257   2.157   9.261
 5703SOL    HW117789   2.304   2.234   9.292
 5703SOL    HW217790   2.165   2.176   9.278
 5704SOL     OW17791   3.326   3.283   8.399
 5704SOL    HW117792   3.259   3.296   8.466
 5704SOL    HW217793   3.316   3.191   8.373
 5705SOL     OW17794   3.514   3.602   8.028
 5705SOL    HW117795   3.502   3.569   7.938
 5705SOL    HW217796   3.494   3.526   8.083
 5706SOL     OW17797   3.140   2.214   8.382
 5706SOL    HW117798   3.051   2.178   8.390
 5706SOL    HW217799   3.192   2.161   8.442
 5707SOL     OW17800   3.438   3.536   7.756
 5707SOL    HW117801   3.530   3.564   7.752
 5707SOL    HW217802   3.415   3.515   7.665
 5708SOL     OW17803   2.656   2.480   8.900
 5708SOL    HW117804   2.630   2.457   8.989
 5708SOL    HW217805   2.613   2.415   8.845
 5709SOL     OW17806   3.256   2.336   9.126
 5709SOL    HW117807   3.258   2.380   9.211
 5709SOL    HW217808   3.317   2.263   9.136
 5710SOL     OW17809   2.817   2.750   9.030
 5710SOL    HW117810   2.872   2.679   8.995
 5710SOL    HW217811   2.770   2.784   8.954
 5711SOL     OW17812   2.855   2.274   8.689
 5711SOL    HW117813   2.771   2.298   8.729
 5711SOL    HW217814   2.831   2.228   8.608
 5712SOL     OW17815   2.915   2.562   7.878
 5712SOL    HW117816   2.937   2.559   7.972
 5712SOL    HW217817   2.835   2.512   7.870
 5713SOL     OW17818   1.950   2.687   8.247
 5713SOL    HW117819   2.034   2.687   8.293
 5713SOL    HW217820   1.908   2.769   8.273
 5714SOL     OW17821   1.987   3.699   9.023
 5714SOL    HW117822   1.986   3.681   9.117
 5714SOL    HW217823   1.895   3.709   9.000
 5715SOL     OW17824   3.574   2.438   9.276
 5715SOL    HW117825   3.535   2.513   9.229
 5715SOL    HW217826   3.596   2.376   9.207
 5716SOL     OW17827   3.237   3.004   7.990
 5716SOL    HW117828   3.316   2.990   7.938
 5716SOL    HW217829   3.185   3.066   7.938
 5717SOL     OW17830   2.404   2.044   8.339
 5717SOL    HW117831   2.420   2.071   8.429
 5717SOL    HW217832   2.421   2.123   8.287
 5718SOL     OW17833   2.870   3.309   7.921
 5718SOL    HW117834   2.830   3.381   7.872
 5718SOL    HW217835   2.852   3.329   8.013
 5719SOL     OW17836   2.213   3.670   8.289
 5719SOL    HW117837   2.263   3.591   8.307
 5719SOL    HW217838   2.273   3.742   8.309
 5720SOL     OW17839   3.666   2.923   8.314
 5720SOL    HW117840   3.610   2.902   8.239
 5720SOL    HW217841   3.605   2.927   8.388
 5721SOL     OW17842   3.090   3.399   8.960
 5721SOL    HW117843   3.075   3.327   9.021
 5721SOL    HW217844   3.026   3.385   8.890
 5722SOL     OW17845   3.338   2.604   8.177
 5722SOL    HW117846   3.332   2.559   8.262
 5722SOL    HW217847   3.417   2.658   8.185
 5723SOL     OW17848   2.328   3.126   9.185
 5723SOL    HW117849   2.300   3.131   9.093
 5723SOL    HW217850   2.246   3.124   9.235
 5724SOL     OW17851   2.975   3.642   7.672
 5724SOL    HW117852   2.913   3.594   7.727
 5724SOL    HW217853   3.004   3.578   7.607
 5725SOL     OW17854   3.488   3.245   7.537
 5725SOL    HW117855   3.445   3.329   7.518
 5725SOL    HW217856   3.422   3.179   7.518
 5726SOL     OW17857   2.331   3.595   7.773
 5726SOL    HW117858   2.367   3.661   7.832
 5726SOL    HW217859   2.403   3.572   7.715
 5727SOL     OW17860   3.263   1.967   7.882
 5727SOL    HW117861   3.255   1.946   7.789
 5727SOL    HW217862   3.357   1.977   7.895
 5728SOL     OW17863   2.120   3.655   8.676
 5728SOL    HW117864   2.169   3.588   8.723
 5728SOL    HW217865   2.106   3.617   8.589
 5729SOL     OW17866   2.800   3.561   8.349
 5729SOL    HW117867   2.878   3.508   8.369
 5729SOL    HW217868   2.755   3.512   8.280
 5730SOL     OW17869   3.399   2.087   9.174
 5730SOL    HW117870   3.407   2.109   9.267
 5730SOL    HW217871   3.330   2.020   9.171
 5731SOL     OW17872   2.629   2.140   9.203
 5731SOL    HW117873   2.703   2.080   9.205
 5731SOL    HW217874   2.577   2.116   9.280
 5732SOL     OW17875   2.738   3.382   8.642
 5732SOL    HW117876   2.723   3.347   8.555
 5732SOL    HW217877   2.808   3.328   8.678
 5733SOL     OW17878   3.203   2.451   8.880
 5733SOL    HW117879   3.234   2.419   8.965
 5733SOL    HW217880   3.239   2.539   8.873
 5734SOL     OW17881   2.677   3.257   8.386
 5734SOL    HW117882   2.761   3.246   8.342
 5734SOL    HW217883   2.612   3.258   8.316
 5735SOL     OW17884   2.798   2.370   8.379
 5735SOL    HW117885   2.778   2.369   8.286
 5735SOL    HW217886   2.830   2.282   8.398
 5736SOL     OW17887   2.391   2.015   8.000
 5736SOL    HW117888   2.329   1.948   8.031
 5736SOL    HW217889   2.398   1.999   7.906
 5737SOL     OW17890   3.291   3.061   7.489
 5737SOL    HW117891   3.322   2.984   7.538
 5737SOL    HW217892   3.203   3.078   7.525
 5738SOL     OW17893   2.943   2.543   8.907
 5738SOL    HW117894   2.874   2.476   8.914
 5738SOL    HW217895   3.024   2.493   8.901
 5739SOL     OW17896   3.084   3.432   8.242
 5739SOL    HW117897   3.103   3.499   8.176
 5739SOL    HW217898   3.154   3.443   8.307
 5740SOL     OW17899   2.329   3.012   8.182
 5740SOL    HW117900   2.261   2.994   8.247
 5740SOL    HW217901   2.286   2.999   8.098
 5741SOL     OW17902   3.131   3.659   8.053
 5741SOL    HW117903   3.175   3.723   7.998
 5741SOL    HW217904   3.061   3.708   8.096
 5742SOL     OW17905   2.911   2.422   7.450
 5742SOL    HW117906   2.853   2.499   7.446
 5742SOL    HW217907   2.949   2.426   7.537
 5743SOL     OW17908   1.938   2.422   8.834
 5743SOL    HW117909   2.031   2.418   8.813
 5743SOL    HW217910   1.932   2.487   8.904
 5744SOL     OW17911   2.458   2.085   8.602
 5744SOL    HW117912   2.497   2.007   8.639
 5744SOL    HW217913   2.373   2.094   8.647
 5745SOL     OW17914   2.743   2.343   8.125
 5745SOL    HW117915   2.677   2.389   8.072
 5745SOL    HW217916   2.761   2.263   8.076
 5746SOL     OW17917   2.870   1.918   8.201
 5746SOL    HW117918   2.811   1.906   8.126
 5746SOL    HW217919   2.854   1.841   8.256
 5747SOL     OW17920   3.299   3.025   8.305
 5747SOL    HW117921   3.230   2.959   8.303
 5747SOL    HW217922   3.325   3.037   8.214
 5748SOL     OW17923   3.327   2.468   8.427
 5748SOL    HW117924   3.280   2.384   8.429
 5748SOL    HW217925   3.389   2.462   8.501
 5749SOL     OW17926   3.722   2.681   7.824
 5749SOL    HW117927   3.767   2.624   7.887
 5749SOL    HW217928   3.685   2.620   7.760
 5750SOL     OW17929   2.353   3.280   7.606
 5750SOL    HW117930   2.277   3.250   7.656
 5750SOL    HW217931   2.342   3.239   7.520
 5751SOL     OW17932   3.528   3.127   8.096
 5751SOL    HW117933   3.623   3.131   8.104
 5751SOL    HW217934   3.498   3.216   8.116
 5752SOL     OW17935   3.258   2.434   7.519
 5752SOL    HW117936   3.193   2.415   7.587
 5752SOL    HW217937   3.339   2.397   7.554
 5753SOL     OW17938   3.614   3.097   9.020
 5753SOL    HW117939   3.701   3.061   9.003
 5753SOL    HW217940   3.631   3.186   9.051
 5754SOL     OW17941   2.921   3.214   8.781
 5754SOL    HW117942   2.846   3.184   8.833
 5754SOL    HW217943   2.997   3.174   8.823
 5755SOL     OW17944   3.468   3.490   9.102
 5755SOL    HW117945   3.461   3.523   9.012
 5755SOL    HW217946   3.550   3.440   9.103
 5756SOL     OW17947   2.989   3.064   8.553
 5756SOL    HW117948   2.932   3.104   8.619
 5756SOL    HW217949   2.956   3.097   8.470
 5757SOL     OW17950   3.493   2.960   8.524
 5757SOL    HW117951   3.486   3.021   8.598
 5757SOL    HW217952   3.414   2.976   8.473
 5758SOL     OW17953   2.780   1.960   8.844
 5758SOL    HW117954   2.804   1.940   8.754
 5758SOL    HW217955   2.859   1.999   8.882
 5759SOL     OW17956   2.846   2.976   9.170
 5759SOL    HW117957   2.754   2.992   9.191
 5759SOL    HW217958   2.845   2.899   9.115
 5760SOL     OW17959   2.589   2.945   7.849
 5760SOL    HW117960   2.577   2.912   7.938
 5760SOL    HW217961   2.652   2.885   7.809
 5761SOL     OW17962   2.280   2.673   8.698
 5761SOL    HW117963   2.347   2.686   8.765
 5761SOL    HW217964   2.245   2.586   8.716
 5762SOL     OW17965   3.128   2.239   8.723
 5762SOL    HW117966   3.161   2.317   8.769
 5762SOL    HW217967   3.038   2.262   8.700
 5763SOL     OW17968   1.931   3.434   8.799
 5763SOL    HW117969   1.902   3.510   8.748
 5763SOL    HW217970   2.027   3.440   8.796
 5764SOL     OW17971   2.207   2.973   7.938
 5764SOL    HW117972   2.220   3.049   7.881
 5764SOL    HW217973   2.249   2.901   7.890
 5765SOL     OW17974   2.411   2.399   8.309
 5765SOL    HW117975   2.430   2.457   8.235
 5765SOL    HW217976   2.474   2.426   8.376
 5766SOL     OW17977   3.110   3.210   7.838
 5766SOL    HW117978   3.166   3.281   7.868
 5766SOL    HW217979   3.023   3.231   7.871
 5767SOL     OW17980   3.141   3.320   8.595
 5767SOL    HW117981   3.198   3.323   8.672
 5767SOL    HW217982   3.087   3.243   8.608
 5768SOL     OW17983   3.444   2.484   7.929
 5768SOL    HW117984   3.397   2.542   7.989
 5768SOL    HW217985   3.486   2.544   7.866
 5769SOL     OW17986   2.209   3.389   8.763
 5769SOL    HW117987   2.196   3.346   8.679
 5769SOL    HW217988   2.303   3.401   8.770
 5770SOL     OW17989   2.275   2.609   9.050
 5770SOL    HW117990   2.339   2.651   8.992
 5770SOL    HW217991   2.314   2.523   9.069
 5771SOL     OW17992   3.462   2.639   9.128
 5771SOL    HW117993   3.376   2.681   9.122
 5771SOL    HW217994   3.515   2.682   9.060
 5772SOL     OW17995   2.857   1.983   9.201
 5772SOL    HW117996   2.913   2.056   9.175
 5772SOL    HW217997   2.906   1.905   9.177
 5773SOL     OW17998   2.372   1.906   9.199
 5773SOL    HW117999   2.317   1.856   9.138
 5773SOL    HW218000   2.325   1.989   9.209
 5774SOL     OW18001   2.443   2.737   8.478
 5774SOL    HW118002   2.477   2.826   8.478
 5774SOL    HW218003   2.390   2.731   8.557
 5775SOL     OW18004   3.221   2.721   8.480
 5775SOL    HW118005   3.140   2.712   8.429
 5775SOL    HW218006   3.261   2.634   8.475
 5776SOL     OW18007   3.069   2.392   7.715
 5776SOL    HW118008   3.078   2.314   7.769
 5776SOL    HW218009   3.031   2.458   7.773
 5777SOL     OW18010   2.230   2.069   8.732
 5777SOL    HW118011   2.147   2.090   8.774
 5777SOL    HW218012   2.224   1.975   8.713
 5778SOL     OW18013   1.909   3.173   8.724
 5778SOL    HW118014   1.941   3.119   8.796
 5778SOL    HW218015   1.915   3.262   8.756
 5779SOL     OW18016   2.580   2.492   8.506
 5779SOL    HW118017   2.662   2.475   8.459
 5779SOL    HW218018   2.559   2.583   8.486
 5780SOL     OW18019   3.594   2.821   9.305
 5780SOL    HW118020   3.550   2.763   9.243
 5780SOL    HW218021   3.530   2.832   9.376
 5781SOL     OW18022   3.478   2.235   7.816
 5781SOL    HW118023   3.506   2.172   7.882
 5781SOL    HW218024   3.455   2.314   7.867
 5782SOL     OW18025   2.890   2.623   8.410
 5782SOL    HW118026   2.889   2.643   8.504
 5782SOL    HW218027   2.867   2.530   8.406
 5783SOL     OW18028   2.846   3.429   9.165
 5783SOL    HW118029   2.829   3.472   9.081
 5783SOL    HW218030   2.888   3.347   9.142
 5784SOL     OW18031   3.708   3.366   9.048
 5784SOL    HW118032   3.729   3.394   8.959
 5784SOL    HW218033   3.788   3.380   9.098
 5785SOL     OW18034   2.215   2.778   9.258
 5785SOL    HW118035   2.298   2.797   9.301
 5785SOL    HW218036   2.238   2.716   9.188
 5786SOL     OW18037   3.394   2.136   7.575
 5786SOL    HW118038   3.329   2.071   7.600
 5786SOL    HW218039   3.425   2.172   7.658
 5787SOL     OW18040   3.156   2.691   7.482
 5787SOL    HW118041   3.194   2.602   7.483
 5787SOL    HW218042   3.185   2.728   7.399
 5788SOL     OW18043   2.927   3.198   8.302
 5788SOL    HW118044   2.931   3.125   8.240
 5788SOL    HW218045   2.989   3.262   8.267
 5789SOL     OW18046   2.177   2.673   8.397
 5789SOL    HW118047   2.270   2.696   8.396
 5789SOL    HW218048   2.174   2.585   8.435
 5790SOL     OW18049   2.187   2.365   8.457
 5790SOL    HW118050   2.153   2.284   8.420
 5790SOL    HW218051   2.267   2.383   8.407
 5791SOL     OW18052   2.996   2.239   9.129
 5791SOL    HW118053   2.949   2.293   9.192
 5791SOL    HW218054   3.084   2.276   9.125
 5792SOL     OW18055   3.022   2.066   8.917
 5792SOL    HW118056   3.012   2.128   8.989
 5792SOL    HW218057   3.062   2.117   8.847
 5793SOL     OW18058   1.865   3.184   7.641
 5793SOL    HW118059   1.778   3.201   7.605
 5793SOL    HW218060   1.859   3.096   7.678
 5794SOL     OW18061   1.957   3.646   8.385
 5794SOL    HW118062   1.926   3.566   8.341
 5794SOL    HW218063   2.043   3.662   8.347
 5795SOL     OW18064   2.359   3.437   8.354
 5795SOL    HW118065   2.427   3.500   8.378
 5795SOL    HW218066   2.404   3.373   8.298
 5796SOL     OW18067   2.846   2.655   8.676
 5796SOL    HW118068   2.903   2.632   8.749
 5796SOL    HW218069   2.760   2.620   8.701
 5797SOL     OW18070   1.901   2.392   8.566
 5797SOL    HW118071   1.984   2.399   8.520
 5797SOL    HW218072   1.922   2.409   8.658
 5798SOL     OW18073   2.069   2.381   9.178
 5798SOL    HW118074   2.122   2.351   9.104
 5798SOL    HW218075   2.004   2.440   9.140
 5799SOL     OW18076   3.239   2.802   9.107
 5799SOL    HW118077   3.260   2.895   9.106
 5799SOL    HW218078   3.237   2.776   9.015
 5800SOL     OW18079   3.504   2.464   8.635
 5800SOL    HW118080   3.493   2.403   8.708
 5800SOL    HW218081   3.589   2.442   8.598
 5801SOL     OW18082   2.108   3.413   9.176
 5801SOL    HW118083   2.084   3.478   9.242
 5801SOL    HW218084   2.107   3.330   9.223
 5802SOL     OW18085   2.555   2.318   8.712
 5802SOL    HW118086   2.519   2.237   8.676
 5802SOL    HW218087   2.554   2.380   8.639
 5803SOL     OW18088   2.792   3.536   8.915
 5803SOL    HW118089   2.765   3.501   8.830
 5803SOL    HW218090   2.785   3.631   8.906
 5804SOL     OW18091   2.009   3.002   8.920
 5804SOL    HW118092   2.011   2.950   9.000
 5804SOL    HW218093   2.026   2.940   8.850
 5805SOL     OW18094   3.187   2.909   8.672
 5805SOL    HW118095   3.212   2.846   8.604
 5805SOL    HW218096   3.117   2.961   8.633
 5806SOL     OW18097   3.173   2.718   7.756
 5806SOL    HW118098   3.094   2.690   7.802
 5806SOL    HW218099   3.152   2.706   7.663
 5807SOL     OW18100   3.635   3.607   8.599
 5807SOL    HW118101   3.693   3.633   8.528
 5807SOL    HW218102   3.609   3.517   8.578
 5808SOL     OW18103   3.105   3.596   8.562
 5808SOL    HW118104   3.187   3.615   8.517
 5808SOL    HW218105   3.109   3.502   8.580
 5809SOL     OW18106   1.946   3.128   8.460
 5809SOL    HW118107   1.932   3.141   8.554
 5809SOL    HW218108   1.872   3.075   8.432
 5810SOL     OW18109   2.540   3.525   9.175
 5810SOL    HW118110   2.486   3.604   9.179
 5810SOL    HW218111   2.600   3.540   9.102
 5811SOL     OW18112   3.576   2.008   7.962
 5811SOL    HW118113   3.644   1.995   7.896
 5811SOL    HW218114   3.564   1.921   8.001
 5812SOL     OW18115   3.252   3.430   7.933
 5812SOL    HW118116   3.312   3.462   7.866
 5812SOL    HW218117   3.205   3.509   7.962
 5813SOL     OW18118   1.994   3.655   9.288
 5813SOL    HW118119   1.942   3.591   9.336
 5813SOL    HW218120   2.044   3.701   9.355
 5814SOL     OW18121   3.139   2.787   8.119
 5814SOL    HW118122   3.213   2.727   8.126
 5814SOL    HW218123   3.172   2.860   8.066
 5815SOL     OW18124   2.677   3.135   8.879
 5815SOL    HW118125   2.650   3.174   8.962
 5815SOL    HW218126   2.608   3.158   8.817
 5816SOL     OW18127   2.537   3.479   7.605
 5816SOL    HW118128   2.545   3.494   7.511
 5816SOL    HW218129   2.480   3.402   7.612
 5817SOL     OW18130   3.486   3.588   8.838
 5817SOL    HW118131   3.540   3.593   8.759
 5817SOL    HW218132   3.475   3.679   8.865
 5818SOL     OW18133   3.699   2.042   8.417
 5818SOL    HW118134   3.730   1.956   8.390
 5818SOL    HW218135   3.613   2.051   8.375
 5819SOL     OW18136   3.068   3.469   7.483
 5819SOL    HW118137   3.059   3.377   7.507
 5819SOL    HW218138   3.008   3.480   7.409
 5820SOL     OW18139   2.686   2.868   8.819
 5820SOL    HW118140   2.732   2.865   8.735
 5820SOL    HW218141   2.686   2.961   8.843
 5821SOL     OW18142   2.781   2.777   7.745
 5821SOL    HW118143   2.837   2.811   7.674
 5821SOL    HW218144   2.832   2.707   7.784
 5822SOL     OW18145   3.353   3.491   7.489
 5822SOL    HW118146   3.259   3.480   7.474
 5822SOL    HW218147   3.391   3.496   7.402
 5823SOL     OW18148   2.232   3.164   8.939
 5823SOL    HW118149   2.218   3.242   8.885
 5823SOL    HW218150   2.154   3.110   8.924
 5824SOL     OW18151   3.466   3.142   8.727
 5824SOL    HW118152   3.534   3.137   8.794
 5824SOL    HW218153   3.409   3.213   8.756
 5825SOL     OW18154   2.913   2.969   8.156
 5825SOL    HW118155   2.843   2.916   8.194
 5825SOL    HW218156   2.975   2.905   8.121
 5826SOL     OW18157   2.882   2.101   8.415
 5826SOL    HW118158   2.877   2.053   8.332
 5826SOL    HW218159   2.878   2.033   8.482
 5827SOL     OW18160   2.463   3.350   7.929
 5827SOL    HW118161   2.509   3.301   7.861
 5827SOL    HW218162   2.399   3.403   7.881
 5828SOL     OW18163   3.584   2.253   8.827
 5828SOL    HW118164   3.655   2.316   8.823
 5828SOL    HW218165   3.613   2.180   8.771
 5829SOL     OW18166   2.119   3.203   7.735
 5829SOL    HW118167   2.026   3.205   7.712
 5829SOL    HW218168   2.123   3.243   7.822
 5830SOL     OW18169   1.974   2.882   9.167
 5830SOL    HW118170   1.898   2.860   9.220
 5830SOL    HW218171   2.048   2.845   9.215
 5831SOL     OW18172   2.538   2.059   8.947
 5831SOL    HW118173   2.622   2.038   8.908
 5831SOL    HW218174   2.559   2.088   9.035
 5832SOL     OW18175   1.969   2.268   7.384
 5832SOL    HW118176   1.894   2.215   7.358
 5832SOL    HW218177   1.941   2.358   7.367
 5833SOL     OW18178   3.291   2.721   8.849
 5833SOL    HW118179   3.242   2.782   8.794
 5833SOL    HW218180   3.380   2.722   8.813
 5834SOL     OW18181   3.040   3.204   7.565
 5834SOL    HW118182   2.952   3.167   7.566
 5834SOL    HW218183   3.069   3.200   7.657
 5835SOL     OW18184   2.481   2.692   8.880
 5835SOL    HW118185   2.536   2.769   8.866
 5835SOL    HW218186   2.543   2.620   8.890
 5836SOL     OW18187   3.347   3.642   8.428
 5836SOL    HW118188   3.373   3.691   8.351
 5836SOL    HW218189   3.429   3.615   8.468
 5837SOL     OW18190   2.579   2.424   9.152
 5837SOL    HW118191   2.618   2.488   9.212
 5837SOL    HW218192   2.608   2.339   9.185
 5838SOL     OW18193   3.333   3.063   9.080
 5838SOL    HW118194   3.322   3.076   9.174
 5838SOL    HW218195   3.426   3.077   9.065
 5839SOL     OW18196   2.241   3.601   9.010
 5839SOL    HW118197   2.155   3.641   8.996
 5839SOL    HW218198   2.222   3.517   9.053
 5840SOL     OW18199   3.529   2.743   8.706
 5840SOL    HW118200   3.526   2.658   8.663
 5840SOL    HW218201   3.524   2.806   8.635
 5841SOL     OW18202   3.090   2.190   7.903
 5841SOL    HW118203   3.146   2.113   7.897
 5841SOL    HW218204   3.118   2.234   7.983
 5842SOL     OW18205   2.461   2.591   8.112
 5842SOL    HW118206   2.496   2.679   8.106
 5842SOL    HW218207   2.386   2.590   8.052
 5843SOL     OW18208   3.625   2.225   9.097
 5843SOL    HW118209   3.607   2.238   9.004
 5843SOL    HW218210   3.555   2.167   9.127
 5844SOL     OW18211   3.614   2.793   8.962
 5844SOL    HW118212   3.609   2.887   8.977
 5844SOL    HW218213   3.592   2.782   8.869
 5845SOL     OW18214   2.721   3.234   7.481
 5845SOL    HW118215   2.684   3.260   7.565
 5845SOL    HW218216   2.743   3.317   7.438
 5846SOL     OW18217   2.521   3.654   8.392
 5846SOL    HW118218   2.499   3.744   8.369
 5846SOL    HW218219   2.617   3.650   8.385
 5847SOL     OW18220   2.729   2.827   8.305
 5847SOL    HW118221   2.781   2.758   8.345
 5847SOL    HW218222   2.697   2.878   8.379
 5848SOL     OW18223   2.946   2.859   7.543
 5848SOL    HW118224   2.919   2.903   7.462
 5848SOL    HW218225   3.015   2.799   7.515
 5849SOL     OW18226   3.716   3.418   8.290
 5849SOL    HW118227   3.638   3.399   8.238
 5849SOL    HW218228   3.717   3.351   8.358
 5850SOL     OW18229   2.087   3.165   9.304
 5850SOL    HW118230   2.019   3.104   9.275
 5850SOL    HW218231   2.069   3.178   9.397
 5851SOL     OW18232   1.947   3.098   8.113
 5851SOL    HW118233   1.945   3.047   8.194
 5851SOL    HW218234   2.016   3.056   8.060
 5852SOL     OW18235   2.543   3.264   9.075
 5852SOL    HW118236   2.463   3.221   9.106
 5852SOL    HW218237   2.539   3.352   9.112
 5853SOL     OW18238   3.676   2.043   8.688
 5853SOL    HW118239   3.671   1.947   8.693
 5853SOL    HW218240   3.689   2.061   8.595
 5854SOL     OW18241   2.314   2.291   7.981
 5854SOL    HW118242   2.330   2.211   7.932
 5854SOL    HW218243   2.269   2.262   8.061
 5855SOL     OW18244   3.560   3.354   8.548
 5855SOL    HW118245   3.481   3.327   8.501
 5855SOL    HW218246   3.576   3.283   8.611
 5856SOL     OW18247   2.192   2.413   8.738
 5856SOL    HW118248   2.242   2.356   8.797
 5856SOL    HW218249   2.211   2.378   8.651
 5857SOL     OW18250   2.688   3.441   8.126
 5857SOL    HW118251   2.678   3.487   8.043
 5857SOL    HW218252   2.612   3.383   8.131
 5858SOL     OW18253   3.293   2.087   8.566
 5858SOL    HW118254   3.321   2.008   8.612
 5858SOL    HW218255   3.242   2.136   8.630
 5859SOL     OW18256   2.870   1.881   8.591
 5859SOL    HW118257   2.817   1.812   8.551
 5859SOL    HW218258   2.959   1.845   8.594
 5860SOL     OW18259   2.636   3.201   7.762
 5860SOL    HW118260   2.604   3.112   7.773
 5860SOL    HW218261   2.720   3.202   7.807
 5861SOL     OW18262   2.482   3.417   8.732
 5861SOL    HW118263   2.484   3.499   8.783
 5861SOL    HW218264   2.569   3.411   8.694
 5862SOL     OW18265   3.221   1.919   7.612
 5862SOL    HW118266   3.245   1.862   7.539
 5862SOL    HW218267   3.138   1.883   7.644
 5863SOL     OW18268   3.159   2.323   8.132
 5863SOL    HW118269   3.107   2.403   8.140
 5863SOL    HW218270   3.156   2.284   8.219
 5864SOL     OW18271   3.445   2.064   8.324
 5864SOL    HW118272   3.386   2.086   8.396
 5864SOL    HW218273   3.447   2.143   8.270
 5865SOL     OW18274   1.893   2.938   7.752
 5865SOL    HW118275   1.989   2.933   7.750
 5865SOL    HW218276   1.866   2.850   7.780
 5866SOL     OW18277   2.745   3.516   7.794
 5866SOL    HW118278   2.675   3.497   7.731
 5866SOL    HW218279   2.714   3.593   7.841
 5867SOL     OW18280   2.089   2.478   9.434
 5867SOL    HW118281   1.998   2.486   9.464
 5867SOL    HW218282   2.083   2.450   9.343
 5868SOL     OW18283   1.857   2.283   9.934
 5868SOL    HW118284   1.773   2.283   9.979
 5868SOL    HW218285   1.856   2.204   9.881
 5869SOL     OW18286   2.429   3.148  10.484
 5869SOL    HW118287   2.341   3.152  10.446
 5869SOL    HW218288   2.444   3.236  10.518
 5870SOL     OW18289   3.421   3.374  10.017
 5870SOL    HW118290   3.379   3.353  10.100
 5870SOL    HW218291   3.350   3.378   9.954
 5871SOL     OW18292   2.991   2.561  10.012
 5871SOL    HW118293   3.041   2.641   9.997
 5871SOL    HW218294   2.945   2.576  10.094
 5872SOL     OW18295   3.627   2.470   9.540
 5872SOL    HW118296   3.608   2.461   9.447
 5872SOL    HW218297   3.592   2.389   9.580
 5873SOL     OW18298   2.618   3.005  10.350
 5873SOL    HW118299   2.549   3.039  10.406
 5873SOL    HW218300   2.653   3.082  10.305
 5874SOL     OW18301   2.726   2.638  11.131
 5874SOL    HW118302   2.715   2.709  11.194
 5874SOL    HW218303   2.751   2.682  11.050
 5875SOL     OW18304   2.548   2.865   9.958
 5875SOL    HW118305   2.613   2.853  10.027
 5875SOL    HW218306   2.478   2.917   9.998
 5876SOL     OW18307   2.572   3.013  11.121
 5876SOL    HW118308   2.619   3.092  11.148
 5876SOL    HW218309   2.489   3.046  11.087
 5877SOL     OW18310   2.193   3.288  10.377
 5877SOL    HW118311   2.120   3.252  10.327
 5877SOL    HW218312   2.243   3.340  10.314
 5878SOL     OW18313   3.322   3.362  10.663
 5878SOL    HW118314   3.373   3.442  10.673
 5878SOL    HW218315   3.262   3.361  10.737
 5879SOL     OW18316   2.291   2.241  10.785
 5879SOL    HW118317   2.380   2.211  10.801
 5879SOL    HW218318   2.235   2.168  10.812
 5880SOL     OW18319   3.474   2.310  10.052
 5880SOL    HW118320   3.400   2.335   9.996
 5880SOL    HW218321   3.492   2.389  10.104
 5881SOL     OW18322   2.083   3.579   9.789
 5881SOL    HW118323   2.117   3.639   9.855
 5881SOL    HW218324   2.152   3.573   9.723
 5882SOL     OW18325   2.998   3.203  11.002
 5882SOL    HW118326   3.039   3.198  11.089
 5882SOL    HW218327   2.945   3.124  10.996
 5883SOL     OW18328   2.090   3.303   9.844
 5883SOL    HW118329   2.073   3.397   9.851
 5883SOL    HW218330   2.031   3.263   9.908
 5884SOL     OW18331   2.118   2.953  10.201
 5884SOL    HW118332   2.115   2.867  10.243
 5884SOL    HW218333   2.061   3.008  10.254
 5885SOL     OW18334   2.475   3.649  10.740
 5885SOL    HW118335   2.392   3.634  10.786
 5885SOL    HW218336   2.500   3.738  10.765
 5886SOL     OW18337   2.449   2.843   9.443
 5886SOL    HW118338   2.494   2.893   9.375
 5886SOL    HW218339   2.489   2.874   9.525
 5887SOL     OW18340   3.458   1.985  10.778
 5887SOL    HW118341   3.461   2.066  10.727
 5887SOL    HW218342   3.446   2.014  10.868
 5888SOL     OW18343   1.982   2.519   9.870
 5888SOL    HW118344   1.944   2.433   9.888
 5888SOL    HW218345   1.971   2.567   9.952
 5889SOL     OW18346   3.699   3.616   9.651
 5889SOL    HW118347   3.767   3.590   9.713
 5889SOL    HW218348   3.722   3.706   9.626
 5890SOL     OW18349   1.890   3.456   9.433
 5890SOL    HW118350   1.875   3.364   9.455
 5890SOL    HW218351   1.869   3.503   9.514
 5891SOL     OW18352   3.550   2.781   9.951
 5891SOL    HW118353   3.634   2.739   9.934
 5891SOL    HW218354   3.531   2.831   9.871
 5892SOL     OW18355   3.503   2.969   9.741
 5892SOL    HW118356   3.588   2.976   9.697
 5892SOL    HW218357   3.510   3.030   9.814
 5893SOL     OW18358   1.981   2.604  10.894
 5893SOL    HW118359   2.074   2.624  10.910
 5893SOL    HW218360   1.936   2.687  10.905
 5894SOL     OW18361   2.476   3.247  10.045
 5894SOL    HW118362   2.429   3.164  10.054
 5894SOL    HW218363   2.459   3.274   9.954
 5895SOL     OW18364   3.151   3.100  10.734
 5895SOL    HW118365   3.184   3.034  10.674
 5895SOL    HW218366   3.208   3.094  10.810
 5896SOL     OW18367   2.673   1.863   9.817
 5896SOL    HW118368   2.713   1.948   9.799
 5896SOL    HW218369   2.579   1.882   9.826
 5897SOL     OW18370   2.053   2.831  10.579
 5897SOL    HW118371   2.137   2.787  10.565
 5897SOL    HW218372   1.989   2.773  10.539
 5898SOL     OW18373   3.391   2.855   9.508
 5898SOL    HW118374   3.322   2.798   9.541
 5898SOL    HW218375   3.432   2.890   9.587
 5899SOL     OW18376   3.073   3.664  10.935
 5899SOL    HW118377   3.056   3.723  10.862
 5899SOL    HW218378   3.075   3.577  10.895
 5900SOL     OW18379   2.259   2.162  11.114
 5900SOL    HW118380   2.304   2.235  11.158
 5900SOL    HW218381   2.166   2.178  11.129
 5901SOL     OW18382   3.327   3.282  10.261
 5901SOL    HW118383   3.259   3.296  10.328
 5901SOL    HW218384   3.316   3.191  10.235
 5902SOL     OW18385   3.514   3.601   9.890
 5902SOL    HW118386   3.502   3.569   9.800
 5902SOL    HW218387   3.495   3.526   9.945
 5903SOL     OW18388   2.457   2.584   9.575
 5903SOL    HW118389   2.465   2.665   9.524
 5903SOL    HW218390   2.393   2.604   9.643
 5904SOL     OW18391   3.140   2.214  10.243
 5904SOL    HW118392   3.051   2.179  10.251
 5904SOL    HW218393   3.192   2.161  10.304
 5905SOL     OW18394   3.438   3.536   9.618
 5905SOL    HW118395   3.530   3.564   9.614
 5905SOL    HW218396   3.416   3.515   9.527
 5906SOL     OW18397   2.654   2.479  10.761
 5906SOL    HW118398   2.629   2.456  10.850
 5906SOL    HW218399   2.613   2.413  10.706
 5907SOL     OW18400   3.256   2.336  10.988
 5907SOL    HW118401   3.258   2.380  11.073
 5907SOL    HW218402   3.317   2.262  10.998
 5908SOL     OW18403   2.817   2.750  10.892
 5908SOL    HW118404   2.872   2.679  10.857
 5908SOL    HW218405   2.770   2.784  10.816
 5909SOL     OW18406   2.855   2.275  10.549
 5909SOL    HW118407   2.771   2.297  10.588
 5909SOL    HW218408   2.833   2.228  10.469
 5910SOL     OW18409   2.913   2.561   9.736
 5910SOL    HW118410   2.928   2.554   9.830
 5910SOL    HW218411   2.830   2.514   9.722
 5911SOL     OW18412   1.950   2.684  10.087
 5911SOL    HW118413   2.032   2.678  10.136
 5911SOL    HW218414   1.907   2.762  10.121
 5912SOL     OW18415   1.987   3.698  10.885
 5912SOL    HW118416   1.986   3.681  10.979
 5912SOL    HW218417   1.895   3.710  10.862
 5913SOL     OW18418   2.755   2.212   9.507
 5913SOL    HW118419   2.797   2.270   9.444
 5913SOL    HW218420   2.759   2.125   9.466
 5914SOL     OW18421   3.574   2.439  11.138
 5914SOL    HW118422   3.535   2.513  11.091
 5914SOL    HW218423   3.595   2.376  11.069
 5915SOL     OW18424   3.237   3.004   9.851
 5915SOL    HW118425   3.317   2.990   9.800
 5915SOL    HW218426   3.186   3.066   9.800
 5916SOL     OW18427   2.409   2.054  10.200
 5916SOL    HW118428   2.408   2.072  10.294
 5916SOL    HW218429   2.428   2.138  10.160
 5917SOL     OW18430   2.869   3.308   9.783
 5917SOL    HW118431   2.829   3.380   9.734
 5917SOL    HW218432   2.852   3.328   9.875
 5918SOL     OW18433   2.213   3.670  10.151
 5918SOL    HW118434   2.263   3.590  10.169
 5918SOL    HW218435   2.273   3.741  10.171
 5919SOL     OW18436   3.665   2.923  10.176
 5919SOL    HW118437   3.610   2.902  10.101
 5919SOL    HW218438   3.605   2.927  10.250
 5920SOL     OW18439   3.090   3.399  10.822
 5920SOL    HW118440   3.075   3.327  10.883
 5920SOL    HW218441   3.026   3.385  10.752
 5921SOL     OW18442   2.183   2.819   9.560
 5921SOL    HW118443   2.265   2.838   9.514
 5921SOL    HW218444   2.152   2.738   9.520
 5922SOL     OW18445   3.339   2.603  10.038
 5922SOL    HW118446   3.331   2.559  10.122
 5922SOL    HW218447   3.417   2.658  10.047
 5923SOL     OW18448   2.328   3.126  11.047
 5923SOL    HW118449   2.300   3.131  10.956
 5923SOL    HW218450   2.246   3.124  11.097
 5924SOL     OW18451   2.975   3.642   9.534
 5924SOL    HW118452   2.913   3.595   9.589
 5924SOL    HW218453   3.005   3.578   9.469
 5925SOL     OW18454   3.488   3.244   9.399
 5925SOL    HW118455   3.446   3.328   9.381
 5925SOL    HW218456   3.421   3.179   9.379
 5926SOL     OW18457   2.331   3.596   9.635
 5926SOL    HW118458   2.366   3.661   9.694
 5926SOL    HW218459   2.404   3.573   9.577
 5927SOL     OW18460   3.263   1.970   9.742
 5927SOL    HW118461   3.254   1.945   9.650
 5927SOL    HW218462   3.357   1.975   9.756
 5928SOL     OW18463   2.120   3.655  10.538
 5928SOL    HW118464   2.169   3.588  10.586
 5928SOL    HW218465   2.107   3.617  10.451
 5929SOL     OW18466   2.800   3.561  10.211
 5929SOL    HW118467   2.877   3.508  10.232
 5929SOL    HW218468   2.754   3.512  10.142
 5930SOL     OW18469   2.254   2.557   9.787
 5930SOL    HW118470   2.275   2.464   9.797
 5930SOL    HW218471   2.160   2.563   9.805
 5931SOL     OW18472   3.399   2.087  11.036
 5931SOL    HW118473   3.407   2.108  11.129
 5931SOL    HW218474   3.330   2.020  11.032
 5932SOL     OW18475   2.508   1.986   9.421
 5932SOL    HW118476   2.572   1.916   9.430
 5932SOL    HW218477   2.450   1.956   9.351
 5933SOL     OW18478   2.628   2.140  11.065
 5933SOL    HW118479   2.703   2.080  11.066
 5933SOL    HW218480   2.577   2.115  11.141
 5934SOL     OW18481   2.738   3.382  10.504
 5934SOL    HW118482   2.723   3.347  10.417
 5934SOL    HW218483   2.808   3.328  10.540
 5935SOL     OW18484   3.203   2.451  10.742
 5935SOL    HW118485   3.234   2.419  10.827
 5935SOL    HW218486   3.239   2.539  10.735
 5936SOL     OW18487   2.677   3.258  10.248
 5936SOL    HW118488   2.761   3.246  10.204
 5936SOL    HW218489   2.612   3.258  10.178
 5937SOL     OW18490   2.789   2.370  10.214
 5937SOL    HW118491   2.766   2.362  10.121
 5937SOL    HW218492   2.822   2.284  10.237
 5938SOL     OW18493   2.405   1.927   9.816
 5938SOL    HW118494   2.342   1.940   9.887
 5938SOL    HW218495   2.394   2.004   9.760
 5939SOL     OW18496   3.290   3.061   9.351
 5939SOL    HW118497   3.321   2.985   9.401
 5939SOL    HW218498   3.204   3.080   9.389
 5940SOL     OW18499   2.799   2.109   9.772
 5940SOL    HW118500   2.773   2.149   9.689
 5940SOL    HW218501   2.894   2.120   9.775
 5941SOL     OW18502   2.942   2.542  10.770
 5941SOL    HW118503   2.874   2.476  10.776
 5941SOL    HW218504   3.024   2.493  10.763
 5942SOL     OW18505   3.085   3.431  10.103
 5942SOL    HW118506   3.103   3.500  10.039
 5942SOL    HW218507   3.154   3.443  10.169
 5943SOL     OW18508   2.330   3.011  10.044
 5943SOL    HW118509   2.261   2.992  10.107
 5943SOL    HW218510   2.291   2.994   9.959
 5944SOL     OW18511   3.131   3.659   9.915
 5944SOL    HW118512   3.175   3.723   9.860
 5944SOL    HW218513   3.061   3.708   9.958
 5945SOL     OW18514   2.887   2.405   9.331
 5945SOL    HW118515   2.844   2.488   9.312
 5945SOL    HW218516   2.951   2.426   9.399
 5946SOL     OW18517   1.937   2.423  10.696
 5946SOL    HW118518   2.030   2.418  10.674
 5946SOL    HW218519   1.932   2.488  10.766
 5947SOL     OW18520   2.414   2.083  10.476
 5947SOL    HW118521   2.462   2.005  10.505
 5947SOL    HW218522   2.331   2.079  10.524
 5948SOL     OW18523   2.727   2.320   9.950
 5948SOL    HW118524   2.685   2.376   9.884
 5948SOL    HW218525   2.751   2.240   9.902
 5949SOL     OW18526   2.875   1.916  10.063
 5949SOL    HW118527   2.819   1.907   9.986
 5949SOL    HW218528   2.855   1.839  10.117
 5950SOL     OW18529   3.299   3.025  10.167
 5950SOL    HW118530   3.230   2.958  10.166
 5950SOL    HW218531   3.323   3.036  10.076
 5951SOL     OW18532   3.328   2.467  10.288
 5951SOL    HW118533   3.279   2.385  10.291
 5951SOL    HW218534   3.388   2.462  10.362
 5952SOL     OW18535   3.722   2.680   9.685
 5952SOL    HW118536   3.767   2.625   9.749
 5952SOL    HW218537   3.685   2.619   9.622
 5953SOL     OW18538   2.354   3.278   9.468
 5953SOL    HW118539   2.279   3.250   9.520
 5953SOL    HW218540   2.336   3.244   9.380
 5954SOL     OW18541   3.528   3.127   9.957
 5954SOL    HW118542   3.623   3.131   9.966
 5954SOL    HW218543   3.498   3.216   9.978
 5955SOL     OW18544   3.256   2.433   9.381
 5955SOL    HW118545   3.195   2.415   9.453
 5955SOL    HW218546   3.340   2.400   9.413
 5956SOL     OW18547   2.386   2.126   9.630
 5956SOL    HW118548   2.428   2.074   9.562
 5956SOL    HW218549   2.366   2.209   9.586
 5957SOL     OW18550   3.614   3.097  10.882
 5957SOL    HW118551   3.701   3.061  10.865
 5957SOL    HW218552   3.631   3.186  10.913
 5958SOL     OW18553   2.921   3.215  10.643
 5958SOL    HW118554   2.846   3.184  10.695
 5958SOL    HW218555   2.997   3.174  10.685
 5959SOL     OW18556   3.468   3.490  10.964
 5959SOL    HW118557   3.461   3.523  10.874
 5959SOL    HW218558   3.550   3.440  10.965
 5960SOL     OW18559   2.990   3.064  10.416
 5960SOL    HW118560   2.931   3.103  10.481
 5960SOL    HW218561   2.956   3.097  10.332
 5961SOL     OW18562   3.494   2.960  10.386
 5961SOL    HW118563   3.487   3.021  10.460
 5961SOL    HW218564   3.414   2.975  10.335
 5962SOL     OW18565   2.779   1.960  10.706
 5962SOL    HW118566   2.803   1.940  10.616
 5962SOL    HW218567   2.858   1.999  10.744
 5963SOL     OW18568   2.846   2.976  11.032
 5963SOL    HW118569   2.754   2.992  11.053
 5963SOL    HW218570   2.845   2.899  10.977
 5964SOL     OW18571   2.571   2.923   9.681
 5964SOL    HW118572   2.557   2.907   9.775
 5964SOL    HW218573   2.646   2.869   9.659
 5965SOL     OW18574   2.279   2.675  10.561
 5965SOL    HW118575   2.348   2.687  10.627
 5965SOL    HW218576   2.244   2.588  10.578
 5966SOL     OW18577   3.128   2.239  10.585
 5966SOL    HW118578   3.161   2.317  10.631
 5966SOL    HW218579   3.038   2.262  10.561
 5967SOL     OW18580   1.932   3.434  10.661
 5967SOL    HW118581   1.902   3.510  10.610
 5967SOL    HW218582   2.027   3.439  10.658
 5968SOL     OW18583   2.212   2.970   9.801
 5968SOL    HW118584   2.217   3.044   9.740
 5968SOL    HW218585   2.210   2.893   9.745
 5969SOL     OW18586   2.411   2.399  10.172
 5969SOL    HW118587   2.426   2.457  10.097
 5969SOL    HW218588   2.477   2.426  10.236
 5970SOL     OW18589   3.110   3.210   9.699
 5970SOL    HW118590   3.166   3.281   9.730
 5970SOL    HW218591   3.023   3.231   9.733
 5971SOL     OW18592   3.141   3.320  10.457
 5971SOL    HW118593   3.197   3.322  10.534
 5971SOL    HW218594   3.086   3.242  10.469
 5972SOL     OW18595   3.443   2.485   9.789
 5972SOL    HW118596   3.397   2.540   9.852
 5972SOL    HW218597   3.487   2.547   9.730
 5973SOL     OW18598   2.209   3.388  10.625
 5973SOL    HW118599   2.196   3.346  10.541
 5973SOL    HW218600   2.303   3.401  10.633
 5974SOL     OW18601   2.275   2.609  10.912
 5974SOL    HW118602   2.338   2.652  10.854
 5974SOL    HW218603   2.316   2.525  10.933
 5975SOL     OW18604   3.462   2.639  10.990
 5975SOL    HW118605   3.376   2.681  10.984
 5975SOL    HW218606   3.515   2.682  10.922
 5976SOL     OW18607   2.857   1.983  11.063
 5976SOL    HW118608   2.913   2.056  11.036
 5976SOL    HW218609   2.906   1.905  11.039
 5977SOL     OW18610   2.372   1.907  11.060
 5977SOL    HW118611   2.318   1.855  11.001
 5977SOL    HW218612   2.326   1.990  11.068
 5978SOL     OW18613   2.445   2.734  10.342
 5978SOL    HW118614   2.476   2.825  10.339
 5978SOL    HW218615   2.389   2.731  10.419
 5979SOL     OW18616   3.221   2.721  10.341
 5979SOL    HW118617   3.138   2.712  10.292
 5979SOL    HW218618   3.261   2.634  10.336
 5980SOL     OW18619   3.067   2.391   9.577
 5980SOL    HW118620   3.075   2.312   9.631
 5980SOL    HW218621   3.025   2.455   9.634
 5981SOL     OW18622   1.908   3.172  10.586
 5981SOL    HW118623   1.941   3.119  10.658
 5981SOL    HW218624   1.915   3.262  10.618
 5982SOL     OW18625   2.584   2.491  10.367
 5982SOL    HW118626   2.660   2.475  10.311
 5982SOL    HW218627   2.558   2.581  10.348
 5983SOL     OW18628   3.594   2.821  11.167
 5983SOL    HW118629   3.550   2.763  11.105
 5983SOL    HW218630   3.531   2.832  11.238
 5984SOL     OW18631   3.478   2.236   9.678
 5984SOL    HW118632   3.506   2.172   9.743
 5984SOL    HW218633   3.455   2.314   9.728
 5985SOL     OW18634   2.889   2.621  10.271
 5985SOL    HW118635   2.887   2.639  10.365
 5985SOL    HW218636   2.863   2.529  10.263
 5986SOL     OW18637   2.846   3.429  11.027
 5986SOL    HW118638   2.829   3.472  10.943
 5986SOL    HW218639   2.888   3.347  11.004
 5987SOL     OW18640   3.708   3.366  10.910
 5987SOL    HW118641   3.729   3.394  10.821
 5987SOL    HW218642   3.788   3.380  10.960
 5988SOL     OW18643   2.215   2.778  11.120
 5988SOL    HW118644   2.298   2.797  11.163
 5988SOL    HW218645   2.238   2.717  11.050
 5989SOL     OW18646   3.392   2.135   9.437
 5989SOL    HW118647   3.327   2.070   9.463
 5989SOL    HW218648   3.425   2.171   9.520
 5990SOL     OW18649   3.154   2.688   9.341
 5990SOL    HW118650   3.197   2.603   9.345
 5990SOL    HW218651   3.186   2.728   9.260
 5991SOL     OW18652   2.927   3.197  10.163
 5991SOL    HW118653   2.930   3.125  10.101
 5991SOL    HW218654   2.989   3.261  10.128
 5992SOL     OW18655   2.172   2.673  10.257
 5992SOL    HW118656   2.265   2.695  10.249
 5992SOL    HW218657   2.172   2.586  10.298
 5993SOL     OW18658   2.189   2.363  10.320
 5993SOL    HW118659   2.149   2.290  10.274
 5993SOL    HW218660   2.269   2.382  10.271
 5994SOL     OW18661   2.996   2.239  10.990
 5994SOL    HW118662   2.949   2.293  11.054
 5994SOL    HW218663   3.084   2.277  10.987
 5995SOL     OW18664   3.022   2.066  10.779
 5995SOL    HW118665   3.012   2.128  10.851
 5995SOL    HW218666   3.062   2.117  10.709
 5996SOL     OW18667   1.867   3.183   9.505
 5996SOL    HW118668   1.780   3.197   9.468
 5996SOL    HW218669   1.864   3.094   9.539
 5997SOL     OW18670   1.957   3.646  10.247
 5997SOL    HW118671   1.926   3.566  10.203
 5997SOL    HW218672   2.043   3.663  10.209
 5998SOL     OW18673   2.359   3.436  10.216
 5998SOL    HW118674   2.427   3.499  10.240
 5998SOL    HW218675   2.404   3.373  10.161
 5999SOL     OW18676   2.846   2.654  10.537
 5999SOL    HW118677   2.903   2.631  10.611
 5999SOL    HW218678   2.760   2.619  10.561
 6000SOL     OW18679   1.900   2.396  10.427
 6000SOL    HW118680   1.985   2.399  10.383
 6000SOL    HW218681   1.921   2.410  10.519
 6001SOL     OW18682   2.067   2.381  11.041
 6001SOL    HW118683   2.115   2.349  10.965
 6001SOL    HW218684   2.001   2.441  11.004
 6002SOL     OW18685   3.239   2.802  10.969
 6002SOL    HW118686   3.260   2.895  10.968
 6002SOL    HW218687   3.236   2.776  10.877
 6003SOL     OW18688   2.677   2.431   9.671
 6003SOL    HW118689   2.683   2.357   9.611
 6003SOL    HW218690   2.604   2.483   9.638
 6004SOL     OW18691   3.504   2.464  10.497
 6004SOL    HW118692   3.492   2.403  10.570
 6004SOL    HW218693   3.589   2.442  10.461
 6005SOL     OW18694   2.108   3.413  11.038
 6005SOL    HW118695   2.084   3.478  11.104
 6005SOL    HW218696   2.107   3.330  11.085
 6006SOL     OW18697   2.557   2.313  10.571
 6006SOL    HW118698   2.507   2.238  10.538
 6006SOL    HW218699   2.557   2.376  10.499
 6007SOL     OW18700   2.792   3.536  10.777
 6007SOL    HW118701   2.765   3.501  10.692
 6007SOL    HW218702   2.785   3.631  10.768
 6008SOL     OW18703   2.327   2.356   9.496
 6008SOL    HW118704   2.385   2.429   9.519
 6008SOL    HW218705   2.241   2.396   9.485
 6009SOL     OW18706   2.009   3.002  10.782
 6009SOL    HW118707   2.011   2.950  10.862
 6009SOL    HW218708   2.026   2.940  10.712
 6010SOL     OW18709   3.188   2.909  10.534
 6010SOL    HW118710   3.212   2.846  10.466
 6010SOL    HW218711   3.117   2.961  10.495
 6011SOL     OW18712   3.172   2.718   9.617
 6011SOL    HW118713   3.096   2.688   9.666
 6011SOL    HW218714   3.148   2.705   9.525
 6012SOL     OW18715   3.634   3.607  10.461
 6012SOL    HW118716   3.693   3.633  10.390
 6012SOL    HW218717   3.609   3.517  10.440
 6013SOL     OW18718   3.105   3.596  10.423
 6013SOL    HW118719   3.187   3.615  10.379
 6013SOL    HW218720   3.109   3.502  10.443
 6014SOL     OW18721   1.946   3.128  10.322
 6014SOL    HW118722   1.932   3.141  10.416
 6014SOL    HW218723   1.872   3.074  10.295
 6015SOL     OW18724   2.540   3.525  11.037
 6015SOL    HW118725   2.486   3.604  11.041
 6015SOL    HW218726   2.600   3.541  10.964
 6016SOL     OW18727   3.576   2.007   9.823
 6016SOL    HW118728   3.645   1.995   9.758
 6016SOL    HW218729   3.564   1.921   9.863
 6017SOL     OW18730   3.251   3.430   9.794
 6017SOL    HW118731   3.312   3.462   9.727
 6017SOL    HW218732   3.205   3.509   9.824
 6018SOL     OW18733   1.994   3.655  11.150
 6018SOL    HW118734   1.942   3.591  11.198
 6018SOL    HW218735   2.044   3.701  11.217
 6019SOL     OW18736   3.139   2.787   9.981
 6019SOL    HW118737   3.213   2.726   9.988
 6019SOL    HW218738   3.173   2.860   9.929
 6020SOL     OW18739   2.677   3.135  10.740
 6020SOL    HW118740   2.650   3.174  10.823
 6020SOL    HW218741   2.608   3.157  10.679
 6021SOL     OW18742   2.537   3.477   9.467
 6021SOL    HW118743   2.544   3.493   9.372
 6021SOL    HW218744   2.480   3.401   9.474
 6022SOL     OW18745   3.486   3.588  10.700
 6022SOL    HW118746   3.540   3.593  10.621
 6022SOL    HW218747   3.475   3.679  10.727
 6023SOL     OW18748   3.699   2.042  10.278
 6023SOL    HW118749   3.730   1.956  10.252
 6023SOL    HW218750   3.613   2.051  10.237
 6024SOL     OW18751   3.069   3.469   9.345
 6024SOL    HW118752   3.059   3.376   9.369
 6024SOL    HW218753   3.008   3.481   9.272
 6025SOL     OW18754   2.686   2.868  10.682
 6025SOL    HW118755   2.730   2.865  10.597
 6025SOL    HW218756   2.686   2.961  10.705
 6026SOL     OW18757   2.778   2.772   9.600
 6026SOL    HW118758   2.839   2.804   9.533
 6026SOL    HW218759   2.826   2.703   9.645
 6027SOL     OW18760   3.353   3.490   9.351
 6027SOL    HW118761   3.259   3.480   9.336
 6027SOL    HW218762   3.391   3.495   9.264
 6028SOL     OW18763   2.231   3.164  10.801
 6028SOL    HW118764   2.218   3.242  10.747
 6028SOL    HW218765   2.154   3.110  10.785
 6029SOL     OW18766   3.466   3.142  10.589
 6029SOL    HW118767   3.533   3.136  10.657
 6029SOL    HW218768   3.409   3.213  10.618
 6030SOL     OW18769   2.913   2.968  10.016
 6030SOL    HW118770   2.842   2.917  10.055
 6030SOL    HW218771   2.975   2.903   9.984
 6031SOL     OW18772   2.881   2.102  10.276
 6031SOL    HW118773   2.878   2.054  10.193
 6031SOL    HW218774   2.878   2.034  10.344
 6032SOL     OW18775   2.464   3.352   9.791
 6032SOL    HW118776   2.507   3.301   9.722
 6032SOL    HW218777   2.398   3.403   9.745
 6033SOL     OW18778   3.584   2.253  10.689
 6033SOL    HW118779   3.655   2.316  10.685
 6033SOL    HW218780   3.613   2.180  10.633
 6034SOL     OW18781   2.121   3.207   9.598
 6034SOL    HW118782   2.028   3.205   9.575
 6034SOL    HW218783   2.123   3.245   9.686
 6035SOL     OW18784   1.974   2.882  11.029
 6035SOL    HW118785   1.898   2.860  11.082
 6035SOL    HW218786   2.048   2.846  11.077
 6036SOL     OW18787   2.536   2.060  10.809
 6036SOL    HW118788   2.620   2.039  10.768
 6036SOL    HW218789   2.558   2.088  10.897
 6037SOL     OW18790   3.291   2.721  10.711
 6037SOL    HW118791   3.242   2.781  10.656
 6037SOL    HW218792   3.380   2.722  10.675
 6038SOL     OW18793   3.041   3.202   9.427
 6038SOL    HW118794   2.950   3.172   9.429
 6038SOL    HW218795   3.069   3.201   9.518
 6039SOL     OW18796   2.481   2.693  10.742
 6039SOL    HW118797   2.536   2.769  10.728
 6039SOL    HW218798   2.543   2.620  10.751
 6040SOL     OW18799   3.347   3.641  10.290
 6040SOL    HW118800   3.373   3.692  10.213
 6040SOL    HW218801   3.429   3.615  10.330
 6041SOL     OW18802   2.579   2.424  11.014
 6041SOL    HW118803   2.618   2.488  11.074
 6041SOL    HW218804   2.608   2.339  11.046
 6042SOL     OW18805   3.333   3.063  10.942
 6042SOL    HW118806   3.321   3.076  11.036
 6042SOL    HW218807   3.426   3.077  10.927
 6043SOL     OW18808   2.241   3.601  10.872
 6043SOL    HW118809   2.155   3.641  10.858
 6043SOL    HW218810   2.222   3.517  10.914
 6044SOL     OW18811   3.529   2.743  10.568
 6044SOL    HW118812   3.526   2.658  10.525
 6044SOL    HW218813   3.523   2.806  10.497
 6045SOL     OW18814   3.079   2.181   9.768
 6045SOL    HW118815   3.143   2.110   9.759
 6045SOL    HW218816   3.109   2.230   9.845
 6046SOL     OW18817   2.450   2.600   9.980
 6046SOL    HW118818   2.491   2.685   9.965
 6046SOL    HW218819   2.383   2.593   9.912
 6047SOL     OW18820   3.625   2.225  10.959
 6047SOL    HW118821   3.607   2.238  10.866
 6047SOL    HW218822   3.555   2.167  10.989
 6048SOL     OW18823   3.614   2.793  10.824
 6048SOL    HW118824   3.609   2.887  10.839
 6048SOL    HW218825   3.593   2.782  10.731
 6049SOL     OW18826   2.725   3.230   9.343
 6049SOL    HW118827   2.684   3.257   9.426
 6049SOL    HW218828   2.742   3.312   9.297
 6050SOL     OW18829   2.521   3.654  10.254
 6050SOL    HW118830   2.499   3.744  10.231
 6050SOL    HW218831   2.617   3.650  10.248
 6051SOL     OW18832   2.729   2.828  10.166
 6051SOL    HW118833   2.779   2.757  10.205
 6051SOL    HW218834   2.695   2.878  10.240
 6052SOL     OW18835   2.941   2.850   9.399
 6052SOL    HW118836   2.920   2.901   9.320
 6052SOL    HW218837   3.016   2.797   9.373
 6053SOL     OW18838   3.716   3.418  10.151
 6053SOL    HW118839   3.637   3.400  10.100
 6053SOL    HW218840   3.716   3.351  10.220
 6054SOL     OW18841   2.087   3.165  11.166
 6054SOL    HW118842   2.019   3.104  11.137
 6054SOL    HW218843   2.069   3.178  11.259
 6055SOL     OW18844   1.946   3.096   9.974
 6055SOL    HW118845   1.950   3.048  10.057
 6055SOL    HW218846   2.014   3.057   9.920
 6056SOL     OW18847   2.543   3.264  10.937
 6056SOL    HW118848   2.463   3.221  10.968
 6056SOL    HW218849   2.539   3.352  10.974
 6057SOL     OW18850   3.677   2.043  10.550
 6057SOL    HW118851   3.671   1.948  10.555
 6057SOL    HW218852   3.689   2.061  10.456
 6058SOL     OW18853   2.293   2.294   9.835
 6058SOL    HW118854   2.322   2.232   9.768
 6058SOL    HW218855   2.245   2.241   9.898
 6059SOL     OW18856   3.561   3.353  10.409
 6059SOL    HW118857   3.481   3.327  10.363
 6059SOL    HW218858   3.576   3.284  10.473
 6060SOL     OW18859   2.191   2.416  10.598
 6060SOL    HW118860   2.237   2.356  10.657
 6060SOL    HW218861   2.210   2.382  10.511
 6061SOL     OW18862   2.688   3.440   9.988
 6061SOL    HW118863   2.677   3.487   9.905
 6061SOL    HW218864   2.612   3.383   9.994
 6062SOL     OW18865   3.294   2.088  10.428
 6062SOL    HW118866   3.319   2.007  10.473
 6062SOL    HW218867   3.242   2.136  10.492
 6063SOL     OW18868   2.870   1.881  10.453
 6063SOL    HW118869   2.816   1.812  10.414
 6063SOL    HW218870   2.959   1.844  10.456
 6064SOL     OW18871   2.634   3.194   9.624
 6064SOL    HW118872   2.601   3.104   9.630
 6064SOL    HW218873   2.717   3.193   9.672
 6065SOL     OW18874   2.482   3.418  10.594
 6065SOL    HW118875   2.484   3.499  10.644
 6065SOL    HW218876   2.569   3.411  10.556
 6066SOL     OW18877   3.214   1.916   9.474
 6066SOL    HW118878   3.242   1.852   9.409
 6066SOL    HW218879   3.127   1.886   9.501
 6067SOL     OW18880   3.158   2.322   9.991
 6067SOL    HW118881   3.105   2.402   9.999
 6067SOL    HW218882   3.155   2.283  10.079
 6068SOL     OW18883   3.446   2.064  10.186
 6068SOL    HW118884   3.386   2.085  10.258
 6068SOL    HW218885   3.447   2.143  10.132
 6069SOL     OW18886   1.905   2.933   9.616
 6069SOL    HW118887   1.999   2.925   9.599
 6069SOL    HW218888   1.877   2.845   9.639
 6070SOL     OW18889   2.745   3.516   9.655
 6070SOL    HW118890   2.675   3.497   9.593
 6070SOL    HW218891   2.714   3.593   9.703
 6071SOL     OW18892   2.089   2.479  11.297
 6071SOL    HW118893   1.998   2.486  11.326
 6071SOL    HW218894   2.082   2.451  11.205
 6072SOL     OW18895   1.855   2.283  11.797
 6072SOL    HW118896   1.771   2.285  11.843
 6072SOL    HW218897   1.852   2.202  11.745
 6073SOL     OW18898   2.429   3.148  12.346
 6073SOL    HW118899   2.341   3.152  12.308
 6073SOL    HW218900   2.444   3.236  12.380
 6074SOL     OW18901   3.421   3.374  11.879
 6074SOL    HW118902   3.379   3.353  11.962
 6074SOL    HW218903   3.350   3.378  11.816
 6075SOL     OW18904   2.991   2.561  11.874
 6075SOL    HW118905   3.041   2.641  11.859
 6075SOL    HW218906   2.945   2.576  11.956
 6076SOL     OW18907   3.627   2.469  11.402
 6076SOL    HW118908   3.608   2.461  11.309
 6076SOL    HW218909   3.592   2.389  11.442
 6077SOL     OW18910   2.618   3.005  12.212
 6077SOL    HW118911   2.549   3.039  12.268
 6077SOL    HW218912   2.653   3.082  12.167
 6078SOL     OW18913   2.726   2.638  12.993
 6078SOL    HW118914   2.714   2.710  13.056
 6078SOL    HW218915   2.751   2.682  12.911
 6079SOL     OW18916   2.548   2.865  11.820
 6079SOL    HW118917   2.613   2.853  11.889
 6079SOL    HW218918   2.478   2.917  11.860
 6080SOL     OW18919   2.572   3.013  12.983
 6080SOL    HW118920   2.619   3.092  13.009
 6080SOL    HW218921   2.488   3.046  12.949
 6081SOL     OW18922   2.193   3.288  12.239
 6081SOL    HW118923   2.120   3.252  12.189
 6081SOL    HW218924   2.243   3.340  12.176
 6082SOL     OW18925   3.322   3.362  12.525
 6082SOL    HW118926   3.373   3.442  12.535
 6082SOL    HW218927   3.262   3.360  12.599
 6083SOL     OW18928   2.292   2.241  12.645
 6083SOL    HW118929   2.382   2.211  12.661
 6083SOL    HW218930   2.238   2.171  12.680
 6084SOL     OW18931   3.474   2.310  11.914
 6084SOL    HW118932   3.400   2.335  11.858
 6084SOL    HW218933   3.492   2.389  11.966
 6085SOL     OW18934   2.083   3.579  11.651
 6085SOL    HW118935   2.117   3.639  11.717
 6085SOL    HW218936   2.152   3.573  11.585
 6086SOL     OW18937   2.998   3.203  12.864
 6086SOL    HW118938   3.039   3.199  12.951
 6086SOL    HW218939   2.946   3.124  12.858
 6087SOL     OW18940   2.090   3.303  11.706
 6087SOL    HW118941   2.073   3.397  11.713
 6087SOL    HW218942   2.031   3.263  11.770
 6088SOL     OW18943   2.118   2.953  12.063
 6088SOL    HW118944   2.115   2.867  12.105
 6088SOL    HW218945   2.061   3.008  12.116
 6089SOL     OW18946   2.475   3.649  12.602
 6089SOL    HW118947   2.392   3.634  12.648
 6089SOL    HW218948   2.500   3.738  12.627
 6090SOL     OW18949   2.449   2.843  11.305
 6090SOL    HW118950   2.494   2.893  11.237
 6090SOL    HW218951   2.489   2.873  11.387
 6091SOL     OW18952   3.458   1.985  12.640
 6091SOL    HW118953   3.461   2.066  12.590
 6091SOL    HW218954   3.446   2.014  12.731
 6092SOL     OW18955   1.981   2.519  11.732
 6092SOL    HW118956   1.944   2.432  11.750
 6092SOL    HW218957   1.970   2.567  11.814
 6093SOL     OW18958   3.699   3.616  11.512
 6093SOL    HW118959   3.767   3.590  11.575
 6093SOL    HW218960   3.722   3.706  11.488
 6094SOL     OW18961   1.889   3.456  11.295
 6094SOL    HW118962   1.875   3.364  11.317
 6094SOL    HW218963   1.869   3.503  11.376
 6095SOL     OW18964   3.550   2.781  11.813
 6095SOL    HW118965   3.634   2.739  11.797
 6095SOL    HW218966   3.531   2.831  11.733
 6096SOL     OW18967   3.503   2.969  11.603
 6096SOL    HW118968   3.588   2.976  11.559
 6096SOL    HW218969   3.510   3.030  11.676
 6097SOL     OW18970   1.982   2.603  12.756
 6097SOL    HW118971   2.074   2.624  12.772
 6097SOL    HW218972   1.936   2.687  12.767
 6098SOL     OW18973   2.476   3.247  11.907
 6098SOL    HW118974   2.430   3.164  11.916
 6098SOL    HW218975   2.459   3.274  11.816
 6099SOL     OW18976   3.151   3.100  12.596
 6099SOL    HW118977   3.184   3.034  12.536
 6099SOL    HW218978   3.208   3.094  12.672
 6100SOL     OW18979   2.673   1.863  11.679
 6100SOL    HW118980   2.713   1.948  11.661
 6100SOL    HW218981   2.580   1.882  11.688
 6101SOL     OW18982   2.053   2.831  12.441
 6101SOL    HW118983   2.137   2.787  12.427
 6101SOL    HW218984   1.989   2.772  12.401
 6102SOL     OW18985   3.391   2.855  11.370
 6102SOL    HW118986   3.322   2.798  11.403
 6102SOL    HW218987   3.432   2.890  11.449
 6103SOL     OW18988   3.073   3.664  12.797
 6103SOL    HW118989   3.056   3.723  12.723
 6103SOL    HW218990   3.075   3.577  12.757
 6104SOL     OW18991   2.258   2.163  12.972
 6104SOL    HW118992   2.303   2.231  13.022
 6104SOL    HW218993   2.165   2.181  12.984
 6105SOL     OW18994   3.327   3.282  12.123
 6105SOL    HW118995   3.259   3.296  12.190
 6105SOL    HW218996   3.316   3.191  12.097
 6106SOL     OW18997   3.514   3.601  11.752
 6106SOL    HW118998   3.502   3.569  11.662
 6106SOL    HW218999   3.495   3.526  11.807
 6107SOL     OW19000   2.457   2.584  11.437
 6107SOL    HW119001   2.465   2.664  11.386
 6107SOL    HW219002   2.392   2.604  11.505
 6108SOL     OW19003   3.140   2.214  12.105
 6108SOL    HW119004   3.051   2.179  12.113
 6108SOL    HW219005   3.192   2.161  12.166
 6109SOL     OW19006   3.438   3.536  11.480
 6109SOL    HW119007   3.530   3.564  11.476
 6109SOL    HW219008   3.416   3.515  11.389
 6110SOL     OW19009   2.655   2.480  12.623
 6110SOL    HW119010   2.629   2.456  12.712
 6110SOL    HW219011   2.613   2.413  12.568
 6111SOL     OW19012   3.256   2.336  12.850
 6111SOL    HW119013   3.258   2.380  12.935
 6111SOL    HW219014   3.317   2.262  12.860
 6112SOL     OW19015   2.817   2.750  12.754
 6112SOL    HW119016   2.872   2.679  12.719
 6112SOL    HW219017   2.770   2.784  12.678
 6113SOL     OW19018   2.855   2.275  12.411
 6113SOL    HW119019   2.771   2.297  12.450
 6113SOL    HW219020   2.833   2.228  12.331
 6114SOL     OW19021   2.913   2.561  11.598
 6114SOL    HW119022   2.928   2.554  11.692
 6114SOL    HW219023   2.830   2.514  11.584
 6115SOL     OW19024   1.950   2.684  11.949
 6115SOL    HW119025   2.032   2.678  11.998
 6115SOL    HW219026   1.907   2.762  11.983
 6116SOL     OW19027   1.987   3.698  12.747
 6116SOL    HW119028   1.986   3.681  12.841
 6116SOL    HW219029   1.895   3.709  12.724
 6117SOL     OW19030   2.755   2.212  11.369
 6117SOL    HW119031   2.797   2.270  11.306
 6117SOL    HW219032   2.759   2.125  11.328
 6118SOL     OW19033   3.574   2.439  13.000
 6118SOL    HW119034   3.535   2.513  12.954
 6118SOL    HW219035   3.595   2.376  12.931
 6119SOL     OW19036   3.237   3.004  11.714
 6119SOL    HW119037   3.317   2.990  11.662
 6119SOL    HW219038   3.186   3.066  11.662
 6120SOL     OW19039   2.409   2.054  12.062
 6120SOL    HW119040   2.408   2.072  12.156
 6120SOL    HW219041   2.428   2.138  12.022
 6121SOL     OW19042   2.869   3.308  11.645
 6121SOL    HW119043   2.829   3.380  11.596
 6121SOL    HW219044   2.852   3.328  11.737
 6122SOL     OW19045   2.213   3.670  12.013
 6122SOL    HW119046   2.263   3.590  12.031
 6122SOL    HW219047   2.273   3.741  12.033
 6123SOL     OW19048   3.665   2.923  12.038
 6123SOL    HW119049   3.610   2.902  11.963
 6123SOL    HW219050   3.605   2.927  12.112
 6124SOL     OW19051   3.090   3.399  12.684
 6124SOL    HW119052   3.075   3.327  12.745
 6124SOL    HW219053   3.025   3.385  12.614
 6125SOL     OW19054   2.183   2.819  11.422
 6125SOL    HW119055   2.265   2.838  11.376
 6125SOL    HW219056   2.151   2.738  11.382
 6126SOL     OW19057   3.339   2.603  11.900
 6126SOL    HW119058   3.330   2.559  11.984
 6126SOL    HW219059   3.417   2.658  11.909
 6127SOL     OW19060   2.328   3.126  12.909
 6127SOL    HW119061   2.300   3.131  12.818
 6127SOL    HW219062   2.246   3.124  12.959
 6128SOL     OW19063   2.975   3.642  11.396
 6128SOL    HW119064   2.913   3.595  11.451
 6128SOL    HW219065   3.005   3.578  11.331
 6129SOL     OW19066   3.488   3.244  11.260
 6129SOL    HW119067   3.446   3.328  11.243
 6129SOL    HW219068   3.421   3.179  11.241
 6130SOL     OW19069   2.331   3.596  11.497
 6130SOL    HW119070   2.366   3.661  11.556
 6130SOL    HW219071   2.404   3.573  11.439
 6131SOL     OW19072   3.263   1.970  11.604
 6131SOL    HW119073   3.254   1.945  11.512
 6131SOL    HW219074   3.357   1.975  11.618
 6132SOL     OW19075   2.120   3.655  12.400
 6132SOL    HW119076   2.169   3.588  12.448
 6132SOL    HW219077   2.107   3.617  12.313
 6133SOL     OW19078   2.800   3.561  12.073
 6133SOL    HW119079   2.877   3.508  12.094
 6133SOL    HW219080   2.754   3.512  12.004
 6134SOL     OW19081   2.254   2.557  11.649
 6134SOL    HW119082   2.275   2.464  11.659
 6134SOL    HW219083   2.160   2.563  11.667
 6135SOL     OW19084   3.399   2.087  12.898
 6135SOL    HW119085   3.407   2.108  12.991
 6135SOL    HW219086   3.330   2.020  12.895
 6136SOL     OW19087   2.507   1.986  11.282
 6136SOL    HW119088   2.572   1.917  11.293
 6136SOL    HW219089   2.450   1.956  11.212
 6137SOL     OW19090   2.628   2.140  12.926
 6137SOL    HW119091   2.704   2.080  12.928
 6137SOL    HW219092   2.577   2.116  13.003
 6138SOL     OW19093   2.738   3.382  12.366
 6138SOL    HW119094   2.723   3.347  12.279
 6138SOL    HW219095   2.808   3.328  12.402
 6139SOL     OW19096   3.203   2.451  12.604
 6139SOL    HW119097   3.234   2.419  12.689
 6139SOL    HW219098   3.239   2.539  12.597
 6140SOL     OW19099   2.677   3.258  12.110
 6140SOL    HW119100   2.761   3.246  12.066
 6140SOL    HW219101   2.612   3.258  12.040
 6141SOL     OW19102   2.789   2.370  12.076
 6141SOL    HW119103   2.766   2.362  11.983
 6141SOL    HW219104   2.822   2.284  12.099
 6142SOL     OW19105   2.406   1.927  11.678
 6142SOL    HW119106   2.342   1.940  11.749
 6142SOL    HW219107   2.394   2.004  11.622
 6143SOL     OW19108   3.290   3.061  11.213
 6143SOL    HW119109   3.321   2.985  11.263
 6143SOL    HW219110   3.204   3.080  11.251
 6144SOL     OW19111   2.799   2.109  11.633
 6144SOL    HW119112   2.773   2.149  11.551
 6144SOL    HW219113   2.894   2.120  11.637
 6145SOL     OW19114   2.942   2.542  12.632
 6145SOL    HW119115   2.874   2.476  12.638
 6145SOL    HW219116   3.024   2.492  12.625
 6146SOL     OW19117   3.085   3.431  11.965
 6146SOL    HW119118   3.103   3.500  11.901
 6146SOL    HW219119   3.154   3.443  12.031
 6147SOL     OW19120   2.330   3.011  11.906
 6147SOL    HW119121   2.261   2.992  11.969
 6147SOL    HW219122   2.291   2.994  11.821
 6148SOL     OW19123   3.131   3.659  11.777
 6148SOL    HW119124   3.175   3.723  11.722
 6148SOL    HW219125   3.061   3.708  11.820
 6149SOL     OW19126   2.886   2.405  11.193
 6149SOL    HW119127   2.844   2.489  11.174
 6149SOL    HW219128   2.951   2.426  11.261
 6150SOL     OW19129   1.937   2.423  12.558
 6150SOL    HW119130   2.030   2.418  12.536
 6150SOL    HW219131   1.932   2.488  12.628
 6151SOL     OW19132   2.413   2.083  12.338
 6151SOL    HW119133   2.461   2.005  12.368
 6151SOL    HW219134   2.331   2.080  12.387
 6152SOL     OW19135   2.727   2.320  11.812
 6152SOL    HW119136   2.686   2.376  11.746
 6152SOL    HW219137   2.751   2.240  11.764
 6153SOL     OW19138   2.875   1.916  11.925
 6153SOL    HW119139   2.819   1.907  11.848
 6153SOL    HW219140   2.855   1.839  11.979
 6154SOL     OW19141   3.299   3.025  12.029
 6154SOL    HW119142   3.230   2.958  12.028
 6154SOL    HW219143   3.323   3.036  11.937
 6155SOL     OW19144   3.328   2.467  12.150
 6155SOL    HW119145   3.279   2.385  12.153
 6155SOL    HW219146   3.388   2.462  12.224
 6156SOL     OW19147   3.722   2.680  11.547
 6156SOL    HW119148   3.767   2.625  11.611
 6156SOL    HW219149   3.685   2.619  11.484
 6157SOL     OW19150   2.354   3.278  11.330
 6157SOL    HW119151   2.279   3.250  11.382
 6157SOL    HW219152   2.336   3.244  11.242
 6158SOL     OW19153   3.528   3.127  11.819
 6158SOL    HW119154   3.623   3.131  11.828
 6158SOL    HW219155   3.498   3.216  11.840
 6159SOL     OW19156   3.256   2.433  11.244
 6159SOL    HW119157   3.195   2.415  11.315
 6159SOL    HW219158   3.340   2.400  11.275
 6160SOL     OW19159   2.386   2.127  11.492
 6160SOL    HW119160   2.428   2.074  11.424
 6160SOL    HW219161   2.366   2.209  11.449
 6161SOL     OW19162   3.614   3.097  12.744
 6161SOL    HW119163   3.701   3.061  12.727
 6161SOL    HW219164   3.631   3.186  12.775
 6162SOL     OW19165   2.921   3.215  12.505
 6162SOL    HW119166   2.846   3.184  12.557
 6162SOL    HW219167   2.997   3.174  12.547
 6163SOL     OW19168   3.468   3.490  12.826
 6163SOL    HW119169   3.461   3.522  12.736
 6163SOL    HW219170   3.550   3.440  12.827
 6164SOL     OW19171   2.990   3.064  12.278
 6164SOL    HW119172   2.932   3.103  12.343
 6164SOL    HW219173   2.956   3.097  12.194
 6165SOL     OW19174   3.494   2.961  12.248
 6165SOL    HW119175   3.487   3.021  12.322
 6165SOL    HW219176   3.414   2.975  12.197
 6166SOL     OW19177   2.779   1.960  12.569
 6166SOL    HW119178   2.803   1.940  12.478
 6166SOL    HW219179   2.859   1.999  12.606
 6167SOL     OW19180   2.846   2.977  12.894
 6167SOL    HW119181   2.754   2.992  12.915
 6167SOL    HW219182   2.845   2.899  12.839
 6168SOL     OW19183   2.571   2.923  11.543
 6168SOL    HW119184   2.557   2.907  11.637
 6168SOL    HW219185   2.646   2.869  11.521
 6169SOL     OW19186   2.279   2.675  12.423
 6169SOL    HW119187   2.348   2.687  12.489
 6169SOL    HW219188   2.244   2.587  12.440
 6170SOL     OW19189   3.128   2.239  12.447
 6170SOL    HW119190   3.161   2.317  12.493
 6170SOL    HW219191   3.038   2.262  12.423
 6171SOL     OW19192   1.932   3.434  12.523
 6171SOL    HW119193   1.902   3.510  12.472
 6171SOL    HW219194   2.027   3.439  12.520
 6172SOL     OW19195   2.212   2.970  11.663
 6172SOL    HW119196   2.217   3.044  11.602
 6172SOL    HW219197   2.210   2.893  11.607
 6173SOL     OW19198   2.412   2.399  12.034
 6173SOL    HW119199   2.427   2.457  11.959
 6173SOL    HW219200   2.477   2.426  12.098
 6174SOL     OW19201   3.110   3.210  11.561
 6174SOL    HW119202   3.166   3.281  11.592
 6174SOL    HW219203   3.023   3.231  11.595
 6175SOL     OW19204   3.141   3.320  12.319
 6175SOL    HW119205   3.197   3.323  12.396
 6175SOL    HW219206   3.086   3.243  12.331
 6176SOL     OW19207   3.443   2.485  11.651
 6176SOL    HW119208   3.397   2.540  11.714
 6176SOL    HW219209   3.486   2.547  11.592
 6177SOL     OW19210   2.208   3.389  12.487
 6177SOL    HW119211   2.196   3.346  12.403
 6177SOL    HW219212   2.303   3.401  12.495
 6178SOL     OW19213   2.275   2.609  12.774
 6178SOL    HW119214   2.338   2.652  12.716
 6178SOL    HW219215   2.316   2.525  12.796
 6179SOL     OW19216   3.462   2.639  12.851
 6179SOL    HW119217   3.376   2.681  12.845
 6179SOL    HW219218   3.515   2.682  12.784
 6180SOL     OW19219   2.857   1.983  12.925
 6180SOL    HW119220   2.913   2.056  12.898
 6180SOL    HW219221   2.906   1.905  12.901
 6181SOL     OW19222   2.372   1.906  12.921
 6181SOL    HW119223   2.317   1.854  12.862
 6181SOL    HW219224   2.326   1.990  12.927
 6182SOL     OW19225   2.445   2.734  12.204
 6182SOL    HW119226   2.476   2.825  12.201
 6182SOL    HW219227   2.389   2.730  12.281
 6183SOL     OW19228   3.221   2.721  12.203
 6183SOL    HW119229   3.138   2.712  12.155
 6183SOL    HW219230   3.261   2.634  12.198
 6184SOL     OW19231   3.067   2.391  11.439
 6184SOL    HW119232   3.075   2.312  11.493
 6184SOL    HW219233   3.025   2.455  11.496
 6185SOL     OW19234   1.908   3.172  12.448
 6185SOL    HW119235   1.941   3.119  12.520
 6185SOL    HW219236   1.915   3.262  12.480
 6186SOL     OW19237   2.584   2.491  12.229
 6186SOL    HW119238   2.660   2.475  12.173
 6186SOL    HW219239   2.558   2.581  12.210
 6187SOL     OW19240   3.594   2.820  13.030
 6187SOL    HW119241   3.550   2.763  12.967
 6187SOL    HW219242   3.531   2.832  13.100
 6188SOL     OW19243   3.478   2.236  11.540
 6188SOL    HW119244   3.506   2.172  11.605
 6188SOL    HW219245   3.455   2.314  11.590
 6189SOL     OW19246   2.889   2.621  12.133
 6189SOL    HW119247   2.887   2.639  12.227
 6189SOL    HW219248   2.863   2.529  12.125
 6190SOL     OW19249   2.846   3.429  12.889
 6190SOL    HW119250   2.829   3.472  12.805
 6190SOL    HW219251   2.888   3.347  12.866
 6191SOL     OW19252   3.708   3.366  12.772
 6191SOL    HW119253   3.730   3.394  12.683
 6191SOL    HW219254   3.788   3.380  12.822
 6192SOL     OW19255   2.215   2.778  12.982
 6192SOL    HW119256   2.298   2.797  13.026
 6192SOL    HW219257   2.238   2.717  12.912
 6193SOL     OW19258   3.392   2.135  11.299
 6193SOL    HW119259   3.327   2.070  11.325
 6193SOL    HW219260   3.425   2.171  11.382
 6194SOL     OW19261   3.154   2.688  11.203
 6194SOL    HW119262   3.197   2.603  11.207
 6194SOL    HW219263   3.186   2.728  11.122
 6195SOL     OW19264   2.927   3.197  12.025
 6195SOL    HW119265   2.930   3.125  11.963
 6195SOL    HW219266   2.989   3.261  11.990
 6196SOL     OW19267   2.172   2.673  12.119
 6196SOL    HW119268   2.265   2.695  12.111
 6196SOL    HW219269   2.172   2.586  12.160
 6197SOL     OW19270   2.189   2.364  12.182
 6197SOL    HW119271   2.149   2.291  12.136
 6197SOL    HW219272   2.269   2.383  12.133
 6198SOL     OW19273   2.996   2.239  12.852
 6198SOL    HW119274   2.949   2.293  12.916
 6198SOL    HW219275   3.084   2.277  12.849
 6199SOL     OW19276   3.022   2.066  12.641
 6199SOL    HW119277   3.012   2.128  12.713
 6199SOL    HW219278   3.062   2.117  12.571
 6200SOL     OW19279   1.867   3.183  11.367
 6200SOL    HW119280   1.780   3.197  11.330
 6200SOL    HW219281   1.864   3.094  11.401
 6201SOL     OW19282   1.957   3.646  12.108
 6201SOL    HW119283   1.926   3.566  12.065
 6201SOL    HW219284   2.043   3.663  12.071
 6202SOL     OW19285   2.359   3.436  12.078
 6202SOL    HW119286   2.427   3.499  12.102
 6202SOL    HW219287   2.404   3.373  12.023
 6203SOL     OW19288   2.846   2.654  12.399
 6203SOL    HW119289   2.903   2.631  12.473
 6203SOL    HW219290   2.760   2.619  12.423
 6204SOL     OW19291   1.900   2.396  12.289
 6204SOL    HW119292   1.985   2.399  12.245
 6204SOL    HW219293   1.921   2.410  12.381
 6205SOL     OW19294   2.065   2.380  12.903
 6205SOL    HW119295   2.115   2.350  12.828
 6205SOL    HW219296   2.000   2.441  12.866
 6206SOL     OW19297   3.239   2.802  12.831
 6206SOL    HW119298   3.260   2.895  12.830
 6206SOL    HW219299   3.237   2.776  12.739
 6207SOL     OW19300   2.677   2.431  11.533
 6207SOL    HW119301   2.683   2.357  11.473
 6207SOL    HW219302   2.604   2.483  11.500
 6208SOL     OW19303   3.504   2.464  12.359
 6208SOL    HW119304   3.492   2.403  12.432
 6208SOL    HW219305   3.589   2.441  12.323
 6209SOL     OW19306   2.108   3.413  12.900
 6209SOL    HW119307   2.084   3.478  12.966
 6209SOL    HW219308   2.107   3.330  12.947
 6210SOL     OW19309   2.558   2.313  12.433
 6210SOL    HW119310   2.507   2.238  12.401
 6210SOL    HW219311   2.557   2.376  12.361
 6211SOL     OW19312   2.792   3.536  12.639
 6211SOL    HW119313   2.765   3.501  12.554
 6211SOL    HW219314   2.785   3.631  12.630
 6212SOL     OW19315   2.327   2.356  11.355
 6212SOL    HW119316   2.385   2.428  11.379
 6212SOL    HW219317   2.241   2.395  11.347
 6213SOL     OW19318   2.009   3.002  12.644
 6213SOL    HW119319   2.011   2.950  12.724
 6213SOL    HW219320   2.026   2.940  12.574
 6214SOL     OW19321   3.188   2.909  12.396
 6214SOL    HW119322   3.212   2.846  12.328
 6214SOL    HW219323   3.117   2.961  12.357
 6215SOL     OW19324   3.172   2.718  11.479
 6215SOL    HW119325   3.096   2.688  11.528
 6215SOL    HW219326   3.148   2.705  11.387
 6216SOL     OW19327   3.634   3.607  12.323
 6216SOL    HW119328   3.693   3.633  12.251
 6216SOL    HW219329   3.609   3.517  12.302
 6217SOL     OW19330   3.105   3.596  12.285
 6217SOL    HW119331   3.188   3.615  12.241
 6217SOL    HW219332   3.109   3.502  12.305
 6218SOL     OW19333   1.946   3.129  12.184
 6218SOL    HW119334   1.932   3.141  12.278
 6218SOL    HW219335   1.872   3.074  12.157
 6219SOL     OW19336   2.540   3.525  12.899
 6219SOL    HW119337   2.486   3.604  12.903
 6219SOL    HW219338   2.600   3.540  12.826
 6220SOL     OW19339   3.576   2.007  11.685
 6220SOL    HW119340   3.645   1.995  11.620
 6220SOL    HW219341   3.564   1.921  11.725
 6221SOL     OW19342   3.251   3.430  11.656
 6221SOL    HW119343   3.312   3.462  11.589
 6221SOL    HW219344   3.205   3.509  11.686
 6222SOL     OW19345   1.994   3.655  13.012
 6222SOL    HW119346   1.942   3.591  13.060
 6222SOL    HW219347   2.044   3.701  13.079
 6223SOL     OW19348   3.139   2.787  11.843
 6223SOL    HW119349   3.213   2.726  11.850
 6223SOL    HW219350   3.173   2.860  11.791
 6224SOL     OW19351   2.677   3.135  12.602
 6224SOL    HW119352   2.650   3.174  12.685
 6224SOL    HW219353   2.607   3.157  12.541
 6225SOL     OW19354   2.537   3.477  11.329
 6225SOL    HW119355   2.544   3.493  11.234
 6225SOL    HW219356   2.480   3.401  11.336
 6226SOL     OW19357   3.487   3.588  12.562
 6226SOL    HW119358   3.540   3.593  12.483
 6226SOL    HW219359   3.475   3.679  12.589
 6227SOL     OW19360   3.699   2.042  12.141
 6227SOL    HW119361   3.730   1.956  12.114
 6227SOL    HW219362   3.613   2.051  12.099
 6228SOL     OW19363   3.069   3.468  11.207
 6228SOL    HW119364   3.059   3.376  11.231
 6228SOL    HW219365   3.008   3.481  11.134
 6229SOL     OW19366   2.686   2.868  12.544
 6229SOL    HW119367   2.730   2.865  12.459
 6229SOL    HW219368   2.686   2.961  12.567
 6230SOL     OW19369   2.778   2.772  11.462
 6230SOL    HW119370   2.839   2.804  11.395
 6230SOL    HW219371   2.826   2.703  11.507
 6231SOL     OW19372   3.353   3.490  11.213
 6231SOL    HW119373   3.259   3.480  11.198
 6231SOL    HW219374   3.391   3.495  11.126
 6232SOL     OW19375   2.232   3.164  12.663
 6232SOL    HW119376   2.217   3.242  12.609
 6232SOL    HW219377   2.154   3.110  12.648
 6233SOL     OW19378   3.466   3.142  12.451
 6233SOL    HW119379   3.533   3.136  12.519
 6233SOL    HW219380   3.409   3.213  12.480
 6234SOL     OW19381   2.913   2.968  11.878
 6234SOL    HW119382   2.842   2.917  11.917
 6234SOL    HW219383   2.975   2.903  11.846
 6235SOL     OW19384   2.881   2.102  12.138
 6235SOL    HW119385   2.878   2.054  12.055
 6235SOL    HW219386   2.878   2.034  12.205
 6236SOL     OW19387   2.464   3.352  11.653
 6236SOL    HW119388   2.507   3.301  11.584
 6236SOL    HW219389   2.398   3.403  11.607
 6237SOL     OW19390   3.584   2.253  12.551
 6237SOL    HW119391   3.655   2.316  12.547
 6237SOL    HW219392   3.613   2.180  12.495
 6238SOL     OW19393   2.121   3.207  11.460
 6238SOL    HW119394   2.028   3.205  11.437
 6238SOL    HW219395   2.123   3.245  11.548
 6239SOL     OW19396   1.974   2.882  12.890
 6239SOL    HW119397   1.898   2.860  12.944
 6239SOL    HW219398   2.048   2.846  12.939
 6240SOL     OW19399   2.536   2.060  12.671
 6240SOL    HW119400   2.620   2.038  12.630
 6240SOL    HW219401   2.559   2.088  12.759
 6241SOL     OW19402   3.291   2.721  12.573
 6241SOL    HW119403   3.242   2.782  12.518
 6241SOL    HW219404   3.380   2.722  12.537
 6242SOL     OW19405   3.041   3.202  11.289
 6242SOL    HW119406   2.950   3.172  11.291
 6242SOL    HW219407   3.069   3.201  11.380
 6243SOL     OW19408   2.481   2.693  12.604
 6243SOL    HW119409   2.536   2.769  12.590
 6243SOL    HW219410   2.543   2.620  12.613
 6244SOL     OW19411   3.347   3.641  12.152
 6244SOL    HW119412   3.373   3.692  12.075
 6244SOL    HW219413   3.429   3.615  12.192
 6245SOL     OW19414   2.579   2.424  12.875
 6245SOL    HW119415   2.617   2.488  12.936
 6245SOL    HW219416   2.608   2.339  12.908
 6246SOL     OW19417   3.332   3.063  12.804
 6246SOL    HW119418   3.321   3.076  12.899
 6246SOL    HW219419   3.426   3.077  12.789
 6247SOL     OW19420   2.241   3.601  12.734
 6247SOL    HW119421   2.155   3.641  12.721
 6247SOL    HW219422   2.222   3.517  12.777
 6248SOL     OW19423   3.529   2.743  12.430
 6248SOL    HW119424   3.526   2.658  12.387
 6248SOL    HW219425   3.524   2.806  12.359
 6249SOL     OW19426   3.079   2.181  11.630
 6249SOL    HW119427   3.143   2.110  11.621
 6249SOL    HW219428   3.109   2.230  11.707
 6250SOL     OW19429   2.450   2.600  11.842
 6250SOL    HW119430   2.491   2.685  11.827
 6250SOL    HW219431   2.383   2.593  11.774
 6251SOL     OW19432   3.625   2.226  12.821
 6251SOL    HW119433   3.607   2.238  12.728
 6251SOL    HW219434   3.555   2.167  12.851
 6252SOL     OW19435   3.614   2.793  12.686
 6252SOL    HW119436   3.609   2.887  12.701
 6252SOL    HW219437   3.593   2.782  12.593
 6253SOL     OW19438   2.725   3.230  11.205
 6253SOL    HW119439   2.684   3.257  11.288
 6253SOL    HW219440   2.742   3.312  11.159
 6254SOL     OW19441   2.521   3.654  12.116
 6254SOL    HW119442   2.499   3.744  12.093
 6254SOL    HW219443   2.617   3.650  12.110
 6255SOL     OW19444   2.729   2.828  12.028
 6255SOL    HW119445   2.779   2.757  12.067
 6255SOL    HW219446   2.695   2.878  12.102
 6256SOL     OW19447   2.941   2.850  11.261
 6256SOL    HW119448   2.920   2.901  11.182
 6256SOL    HW219449   3.016   2.797  11.235
 6257SOL     OW19450   3.716   3.418  12.013
 6257SOL    HW119451   3.637   3.400  11.962
 6257SOL    HW219452   3.716   3.351  12.082
 6258SOL     OW19453   2.087   3.165  13.028
 6258SOL    HW119454   2.019   3.105  12.999
 6258SOL    HW219455   2.069   3.178  13.121
 6259SOL     OW19456   1.946   3.096  11.836
 6259SOL    HW119457   1.950   3.048  11.919
 6259SOL    HW219458   2.014   3.057  11.782
 6260SOL     OW19459   2.543   3.264  12.799
 6260SOL    HW119460   2.463   3.221  12.830
 6260SOL    HW219461   2.539   3.352  12.836
 6261SOL     OW19462   3.677   2.043  12.412
 6261SOL    HW119463   3.670   1.948  12.417
 6261SOL    HW219464   3.689   2.061  12.318
 6262SOL     OW19465   2.293   2.294  11.696
 6262SOL    HW119466   2.322   2.231  11.630
 6262SOL    HW219467   2.249   2.242  11.762
 6263SOL     OW19468   3.561   3.353  12.271
 6263SOL    HW119469   3.481   3.327  12.225
 6263SOL    HW219470   3.576   3.284  12.335
 6264SOL     OW19471   2.191   2.416  12.460
 6264SOL    HW119472   2.237   2.356  12.519
 6264SOL    HW219473   2.210   2.383  12.373
 6265SOL     OW19474   2.688   3.440  11.850
 6265SOL    HW119475   2.677   3.487  11.767
 6265SOL    HW219476   2.612   3.383  11.856
 6266SOL     OW19477   3.294   2.088  12.290
 6266SOL    HW119478   3.318   2.007  12.335
 6266SOL    HW219479   3.242   2.136  12.354
 6267SOL     OW19480   2.870   1.881  12.315
 6267SOL    HW119481   2.816   1.812  12.276
 6267SOL    HW219482   2.959   1.844  12.318
 6268SOL     OW19483   2.634   3.194  11.486
 6268SOL    HW119484   2.601   3.104  11.492
 6268SOL    HW219485   2.717   3.193  11.534
 6269SOL     OW19486   2.482   3.418  12.456
 6269SOL    HW119487   2.484   3.499  12.506
 6269SOL    HW219488   2.569   3.411  12.418
 6270SOL     OW19489   3.214   1.916  11.336
 6270SOL    HW119490   3.242   1.852  11.271
 6270SOL    HW219491   3.127   1.886  11.363
 6271SOL     OW19492   3.158   2.322  11.853
 6271SOL    HW119493   3.105   2.402  11.861
 6271SOL    HW219494   3.155   2.283  11.941
 6272SOL     OW19495   3.446   2.064  12.048
 6272SOL    HW119496   3.386   2.085  12.120
 6272SOL    HW219497   3.447   2.143  11.994
 6273SOL     OW19498   1.905   2.933  11.478
 6273SOL    HW119499   1.999   2.925  11.461
 6273SOL    HW219500   1.877   2.845  11.501
 6274SOL     OW19501   2.745   3.516  11.517
 6274SOL    HW119502   2.675   3.497  11.455
 6274SOL    HW219503   2.714   3.593  11.565
 6275SOL     OW19504   2.088   2.479  13.159
 6275SOL    HW119505   1.997   2.486  13.189
 6275SOL    HW219506   2.081   2.451  13.068
 6276SOL     OW19507   1.877   2.266  13.660
 6276SOL    HW119508   1.789   2.283  13.693
 6276SOL    HW219509   1.864   2.209  13.584
 6277SOL     OW19510   3.393   3.362  13.724
 6277SOL    HW119511   3.334   3.305  13.774
 6277SOL    HW219512   3.346   3.379  13.643
 6278SOL     OW19513   2.988   2.564  13.735
 6278SOL    HW119514   3.044   2.637  13.709
 6278SOL    HW219515   2.943   2.594  13.814
 6279SOL     OW19516   3.634   2.467  13.263
 6279SOL    HW119517   3.612   2.460  13.171
 6279SOL    HW219518   3.591   2.392  13.304
 6280SOL     OW19519   2.547   2.873  13.673
 6280SOL    HW119520   2.602   2.851  13.748
 6280SOL    HW219521   2.473   2.921  13.711
 6281SOL     OW19522   3.487   2.323  13.755
 6281SOL    HW119523   3.399   2.320  13.718
 6281SOL    HW219524   3.484   2.396  13.818
 6282SOL     OW19525   2.083   3.579  13.515
 6282SOL    HW119526   2.120   3.628  13.589
 6282SOL    HW219527   2.153   3.576  13.450
 6283SOL     OW19528   2.092   3.303  13.569
 6283SOL    HW119529   2.072   3.397  13.575
 6283SOL    HW219530   2.031   3.262  13.630
 6284SOL     OW19531   2.101   2.966   0.024
 6284SOL    HW119532   2.121   2.902   0.092
 6284SOL    HW219533   2.035   3.023   0.062
 6285SOL     OW19534   2.449   2.842  13.166
 6285SOL    HW119535   2.493   2.893  13.098
 6285SOL    HW219536   2.488   2.874  13.248
 6286SOL     OW19537   1.978   2.521  13.591
 6286SOL    HW119538   1.949   2.432  13.610
 6286SOL    HW219539   1.965   2.569  13.673
 6287SOL     OW19540   3.699   3.616  13.374
 6287SOL    HW119541   3.767   3.589  13.435
 6287SOL    HW219542   3.720   3.707  13.352
 6288SOL     OW19543   1.889   3.456  13.157
 6288SOL    HW119544   1.875   3.364  13.179
 6288SOL    HW219545   1.870   3.503  13.238
 6289SOL     OW19546   3.548   2.777  13.668
 6289SOL    HW119547   3.637   2.747  13.650
 6289SOL    HW219548   3.527   2.833  13.593
 6290SOL     OW19549   3.504   2.968  13.463
 6290SOL    HW119550   3.588   2.974  13.418
 6290SOL    HW219551   3.510   3.030  13.535
 6291SOL     OW19552   2.468   3.246  13.762
 6291SOL    HW119553   2.425   3.161  13.770
 6291SOL    HW219554   2.447   3.276  13.674
 6292SOL     OW19555   2.672   1.861  13.542
 6292SOL    HW119556   2.713   1.945  13.522
 6292SOL    HW219557   2.579   1.880  13.551
 6293SOL     OW19558   3.391   2.854  13.233
 6293SOL    HW119559   3.322   2.797  13.265
 6293SOL    HW219560   3.431   2.891  13.312
 6294SOL     OW19561   3.514   3.598  13.613
 6294SOL    HW119562   3.498   3.568  13.524
 6294SOL    HW219563   3.509   3.518  13.666
 6295SOL     OW19564   2.455   2.583  13.298
 6295SOL    HW119565   2.463   2.664  13.248
 6295SOL    HW219566   2.391   2.603  13.366
 6296SOL     OW19567   3.122   2.193   0.050
 6296SOL    HW119568   3.041   2.147   0.072
 6296SOL    HW219569   3.190   2.146   0.098
 6297SOL     OW19570   3.438   3.537  13.341
 6297SOL    HW119571   3.530   3.564  13.338
 6297SOL    HW219572   3.417   3.516  13.250
 6298SOL     OW19573   2.910   2.559  13.460
 6298SOL    HW119574   2.924   2.549  13.554
 6298SOL    HW219575   2.829   2.512  13.442
 6299SOL     OW19576   1.946   2.683  13.808
 6299SOL    HW119577   2.028   2.678  13.858
 6299SOL    HW219578   1.901   2.759  13.845
 6300SOL     OW19579   2.754   2.211  13.230
 6300SOL    HW119580   2.796   2.270  13.168
 6300SOL    HW219581   2.760   2.125  13.191
 6301SOL     OW19582   3.226   2.998  13.558
 6301SOL    HW119583   3.315   2.995  13.522
 6301SOL    HW219584   3.183   3.068  13.509
 6302SOL     OW19585   2.867   3.306  13.505
 6302SOL    HW119586   2.829   3.380  13.457
 6302SOL    HW219587   2.840   3.319  13.595
 6303SOL     OW19588   2.250   3.663  13.810
 6303SOL    HW119589   2.226   3.586  13.861
 6303SOL    HW219590   2.302   3.716  13.870
 6304SOL     OW19591   3.651   2.919  13.899
 6304SOL    HW119592   3.592   2.910  13.824
 6304SOL    HW219593   3.593   2.914   0.076
 6305SOL     OW19594   2.183   2.819  13.285
 6305SOL    HW119595   2.264   2.839  13.238
 6305SOL    HW219596   2.151   2.738  13.245
 6306SOL     OW19597   3.347   2.595  13.746
 6306SOL    HW119598   3.335   2.550  13.829
 6306SOL    HW219599   3.420   2.655  13.762
 6307SOL     OW19600   2.975   3.643  13.257
 6307SOL    HW119601   2.914   3.595  13.313
 6307SOL    HW219602   3.004   3.578  13.193
 6308SOL     OW19603   3.488   3.244  13.122
 6308SOL    HW119604   3.446   3.328  13.104
 6308SOL    HW219605   3.421   3.179  13.103
 6309SOL     OW19606   2.330   3.595  13.358
 6309SOL    HW119607   2.366   3.660  13.418
 6309SOL    HW219608   2.404   3.573  13.301
 6310SOL     OW19609   3.264   1.974  13.464
 6310SOL    HW119610   3.253   1.946  13.373
 6310SOL    HW219611   3.359   1.974  13.478
 6311SOL     OW19612   2.795   3.551   0.012
 6311SOL    HW119613   2.824   3.483   0.074
 6311SOL    HW219614   2.747   3.503  13.844
 6312SOL     OW19615   2.252   2.565  13.509
 6312SOL    HW119616   2.273   2.472  13.514
 6312SOL    HW219617   2.158   2.569  13.527
 6313SOL     OW19618   2.507   1.987  13.142
 6313SOL    HW119619   2.572   1.918  13.154
 6313SOL    HW219620   2.450   1.956  13.072
 6314SOL     OW19621   2.406   1.926  13.541
 6314SOL    HW119622   2.338   1.937  13.607
 6314SOL    HW219623   2.395   2.002  13.483
 6315SOL     OW19624   3.290   3.060  13.075
 6315SOL    HW119625   3.321   2.985  13.125
 6315SOL    HW219626   3.205   3.080  13.113
 6316SOL     OW19627   2.799   2.105  13.495
 6316SOL    HW119628   2.771   2.148  13.415
 6316SOL    HW219629   2.893   2.120  13.500
 6317SOL     OW19630   2.326   3.005  13.773
 6317SOL    HW119631   2.252   2.991  13.832
 6317SOL    HW219632   2.290   2.992  13.685
 6318SOL     OW19633   3.133   3.661  13.629
 6318SOL    HW119634   3.176   3.728  13.577
 6318SOL    HW219635   3.066   3.709  13.679
 6319SOL     OW19636   2.887   2.405  13.055
 6319SOL    HW119637   2.844   2.489  13.036
 6319SOL    HW219638   2.951   2.426  13.123
 6320SOL     OW19639   2.753   2.332  13.668
 6320SOL    HW119640   2.687   2.378  13.615
 6320SOL    HW219641   2.759   2.245  13.628
 6321SOL     OW19642   2.886   1.904  13.780
 6321SOL    HW119643   2.827   1.912  13.705
 6321SOL    HW219644   2.858   1.823  13.823
 6322SOL     OW19645   3.727   2.679  13.409
 6322SOL    HW119646   3.774   2.623  13.471
 6322SOL    HW219647   3.689   2.618  13.346
 6323SOL     OW19648   2.354   3.278  13.192
 6323SOL    HW119649   2.278   3.250  13.244
 6323SOL    HW219650   2.335   3.244  13.104
 6324SOL     OW19651   3.538   3.129  13.669
 6324SOL    HW119652   3.632   3.134  13.687
 6324SOL    HW219653   3.503   3.212  13.702
 6325SOL     OW19654   3.256   2.433  13.105
 6325SOL    HW119655   3.194   2.415  13.176
 6325SOL    HW219656   3.340   2.400  13.137
 6326SOL     OW19657   2.388   2.123  13.354
 6326SOL    HW119658   2.430   2.074  13.283
 6326SOL    HW219659   2.366   2.207  13.316
 6327SOL     OW19660   2.571   2.924  13.402
 6327SOL    HW119661   2.556   2.909  13.495
 6327SOL    HW219662   2.647   2.870  13.380
 6328SOL     OW19663   2.215   2.970  13.526
 6328SOL    HW119664   2.216   3.044  13.465
 6328SOL    HW219665   2.211   2.893  13.469
 6329SOL     OW19666   2.446   2.397  13.863
 6329SOL    HW119667   2.449   2.469  13.799
 6329SOL    HW219668   2.489   2.433   0.041
 6330SOL     OW19669   3.109   3.212  13.419
 6330SOL    HW119670   3.164   3.285  13.448
 6330SOL    HW219671   3.022   3.232  13.455
 6331SOL     OW19672   3.445   2.488  13.502
 6331SOL    HW119673   3.403   2.533  13.575
 6331SOL    HW219674   3.482   2.559  13.449
 6332SOL     OW19675   3.067   2.391  13.301
 6332SOL    HW119676   3.075   2.312  13.355
 6332SOL    HW219677   3.024   2.455  13.357
 6333SOL     OW19678   3.479   2.235  13.401
 6333SOL    HW119679   3.504   2.172  13.469
 6333SOL    HW219680   3.456   2.315  13.450
 6334SOL     OW19681   3.392   2.135  13.161
 6334SOL    HW119682   3.327   2.070  13.187
 6334SOL    HW219683   3.425   2.171  13.244
 6335SOL     OW19684   3.153   2.688  13.065
 6335SOL    HW119685   3.197   2.603  13.069
 6335SOL    HW219686   3.185   2.728  12.984
 6336SOL     OW19687   1.867   3.184  13.229
 6336SOL    HW119688   1.780   3.197  13.191
 6336SOL    HW219689   1.865   3.094  13.263
 6337SOL     OW19690   2.677   2.434  13.388
 6337SOL    HW119691   2.681   2.357  13.331
 6337SOL    HW219692   2.601   2.483  13.357
 6338SOL     OW19693   2.328   2.353  13.213
 6338SOL    HW119694   2.385   2.425  13.239
 6338SOL    HW219695   2.241   2.393  13.208
 6339SOL     OW19696   3.174   2.714  13.339
 6339SOL    HW119697   3.096   2.689  13.389
 6339SOL    HW219698   3.149   2.703  13.248
 6340SOL     OW19699   3.579   2.007  13.550
 6340SOL    HW119700   3.646   1.995  13.482
 6340SOL    HW219701   3.566   1.920  13.586
 6341SOL     OW19702   3.246   3.434  13.508
 6341SOL    HW119703   3.307   3.470  13.444
 6341SOL    HW219704   3.202   3.511  13.545
 6342SOL     OW19705   3.148   2.777  13.686
 6342SOL    HW119706   3.224   2.721  13.672
 6342SOL    HW219707   3.171   2.861  13.646
 6343SOL     OW19708   2.537   3.477  13.190
 6343SOL    HW119709   2.544   3.493  13.096
 6343SOL    HW219710   2.480   3.401  13.198
 6344SOL     OW19711   3.684   2.020   0.082
 6344SOL    HW119712   3.700   1.931   0.050
 6344SOL    HW219713   3.589   2.031   0.075
 6345SOL     OW19714   2.120   2.276  13.790
 6345SOL    HW119715   2.054   2.256  13.724
 6345SOL    HW219716   2.132   2.193  13.837
 6346SOL     OW19717   3.069   3.469  13.068
 6346SOL    HW119718   3.059   3.376  13.093
 6346SOL    HW219719   3.007   3.481  12.996
 6347SOL     OW19720   2.780   2.774  13.327
 6347SOL    HW119721   2.840   2.804  13.258
 6347SOL    HW219722   2.825   2.701  13.368
 6348SOL     OW19723   3.353   3.490  13.075
 6348SOL    HW119724   3.259   3.480  13.060
 6348SOL    HW219725   3.391   3.495  12.987
 6349SOL     OW19726   2.911   2.953  13.753
 6349SOL    HW119727   2.825   2.912  13.747
 6349SOL    HW219728   2.963   2.909  13.686
 6350SOL     OW19729   2.462   3.353  13.509
 6350SOL    HW119730   2.505   3.302  13.440
 6350SOL    HW219731   2.396   3.405  13.463
 6351SOL     OW19732   2.121   3.207  13.322
 6351SOL    HW119733   2.028   3.205  13.300
 6351SOL    HW219734   2.124   3.245  13.410
 6352SOL     OW19735   3.041   3.202  13.150
 6352SOL    HW119736   2.950   3.172  13.153
 6352SOL    HW219737   3.069   3.202  13.241
 6353SOL     OW19738   3.080   2.182  13.491
 6353SOL    HW119739   3.143   2.110  13.481
 6353SOL    HW219740   3.110   2.230  13.568
 6354SOL     OW19741   2.452   2.611  13.694
 6354SOL    HW119742   2.489   2.697  13.674
 6354SOL    HW219743   2.381   2.600  13.630
 6355SOL     OW19744   2.725   3.230  13.067
 6355SOL    HW119745   2.684   3.257  13.150
 6355SOL    HW219746   2.742   3.312  13.021
 6356SOL     OW19747   2.512   3.708   0.066
 6356SOL    HW119748   2.510   3.802   0.081
 6356SOL    HW219749   2.604   3.684   0.079
 6357SOL     OW19750   2.694   2.824  13.893
 6357SOL    HW119751   2.735   2.747   0.032
 6357SOL    HW219752   2.707   2.893   0.059
 6358SOL     OW19753   2.940   2.849  13.123
 6358SOL    HW119754   2.919   2.901  13.045
 6358SOL    HW219755   3.016   2.796  13.097
 6359SOL     OW19756   1.952   3.096  13.699
 6359SOL    HW119757   1.945   3.040  13.776
 6359SOL    HW219758   2.019   3.054  13.644
 6360SOL     OW19759   2.286   2.304  13.545
 6360SOL    HW119760   2.320   2.225  13.505
 6360SOL    HW219761   2.271   2.280  13.637
 6361SOL     OW19762   3.541   3.328   0.337
 6361SOL    HW119763   3.512   3.300   0.251
 6361SOL    HW219764   3.623   3.281   0.351
 6362SOL     OW19765   2.681   3.416  13.712
 6362SOL    HW119766   2.663   3.466  13.633
 6362SOL    HW219767   2.602   3.363  13.726
 6363SOL     OW19768   2.634   3.194  13.346
 6363SOL    HW119769   2.601   3.105  13.352
 6363SOL    HW219770   2.717   3.193  13.394
 6364SOL     OW19771   3.214   1.916  13.198
 6364SOL    HW119772   3.242   1.851  13.132
 6364SOL    HW219773   3.127   1.886  13.225
 6365SOL     OW19774   3.165   2.321  13.714
 6365SOL    HW119775   3.108   2.398  13.721
 6365SOL    HW219776   3.154   2.276  13.798
 6366SOL     OW19777   1.906   2.934  13.339
 6366SOL    HW119778   2.000   2.925  13.321
 6366SOL    HW219779   1.877   2.845  13.361
 6367SOL     OW19780   2.745   3.516  13.379
 6367SOL    HW119781   2.675   3.497  13.317
 6367SOL    HW219782   2.714   3.592  13.429
 6368SOL     OW19783   2.094   3.985   0.986
 6368SOL    HW119784   2.118   3.964   1.076
 6368SOL    HW219785   2.004   3.953   0.978
 6369SOL     OW19786   1.879   0.064   0.707
 6369SOL    HW119787   1.804   0.117   0.682
 6369SOL    HW219788   1.899   0.012   0.629
 6370SOL     OW19789   3.660   0.359   0.250
 6370SOL    HW119790   3.634   0.312   0.171
 6370SOL    HW219791   3.583   0.355   0.307
 6371SOL     OW19792   2.299   0.098   1.507
 6371SOL    HW119793   2.373   0.058   1.463
 6371SOL    HW219794   2.224   0.043   1.485
 6372SOL     OW19795   3.460   3.847   1.464
 6372SOL    HW119796   3.458   3.932   1.420
 6372SOL    HW219797   3.447   3.868   1.557
 6373SOL     OW19798   2.667   3.727   0.503
 6373SOL    HW119799   2.696   3.818   0.494
 6373SOL    HW219800   2.572   3.732   0.514
 6374SOL     OW19801   3.131   0.063   0.938
 6374SOL    HW119802   3.060   0.007   0.906
 6374SOL    HW219803   3.187   0.004   0.989
 6375SOL     OW19804   2.415   3.906   0.890
 6375SOL    HW119805   2.410   3.925   0.983
 6375SOL    HW219806   2.410   3.991   0.847
 6376SOL     OW19807   2.053   3.984   1.491
 6376SOL    HW119808   1.997   0.062   1.492
 6376SOL    HW219809   2.021   3.931   1.564
 6377SOL     OW19810   3.270   3.841   0.424
 6377SOL    HW119811   3.261   3.797   0.339
 6377SOL    HW219812   3.360   3.823   0.451
 6378SOL     OW19813   3.398   3.942   1.725
 6378SOL    HW119814   3.423   3.946   1.817
 6378SOL    HW219815   3.333   3.872   1.720
 6379SOL     OW19816   2.636   3.963   1.745
 6379SOL    HW119817   2.691   3.931   1.816
 6379SOL    HW219818   2.550   3.977   1.786
 6380SOL     OW19819   2.394   3.784   0.509
 6380SOL    HW119820   2.343   3.785   0.590
 6380SOL    HW219821   2.407   3.877   0.488
 6381SOL     OW19822   2.135   3.743   0.211
 6381SOL    HW119823   2.166   3.828   0.178
 6381SOL    HW219824   2.215   3.695   0.232
 6382SOL     OW19825   2.421   3.943   1.166
 6382SOL    HW119826   2.461   3.868   1.209
 6382SOL    HW219827   2.330   3.942   1.195
 6383SOL     OW19828   2.880   3.769   0.743
 6383SOL    HW119829   2.817   3.758   0.673
 6383SOL    HW219830   2.857   3.702   0.807
 6384SOL     OW19831   2.784   3.805   1.401
 6384SOL    HW119832   2.812   3.785   1.312
 6384SOL    HW219833   2.856   3.855   1.438
 6385SOL     OW19834   3.127   0.079   1.264
 6385SOL    HW119835   3.145   0.146   1.330
 6385SOL    HW219836   3.058   0.116   1.209
 6386SOL     OW19837   2.369   3.750   1.753
 6386SOL    HW119838   2.317   3.704   1.687
 6386SOL    HW219839   2.331   3.838   1.757
 6387SOL     OW19840   2.158   3.922   1.252
 6387SOL    HW119841   2.115   3.941   1.336
 6387SOL    HW219842   2.145   3.829   1.239
 6388SOL     OW19843   3.458   3.944   0.149
 6388SOL    HW119844   3.378   3.891   0.157
 6388SOL    HW219845   3.437   0.026   0.194
 6389SOL     OW19846   3.026   3.925   1.473
 6389SOL    HW119847   3.030   3.997   1.536
 6389SOL    HW219848   3.065   3.961   1.393
 6390SOL     OW19849   2.777   3.823   0.151
 6390SOL    HW119850   2.809   3.813   0.061
 6390SOL    HW219851   2.834   3.767   0.203
 6391SOL     OW19852   3.585   3.863   0.526
 6391SOL    HW119853   3.656   3.849   0.463
 6391SOL    HW219854   3.567   3.775   0.560
 6392SOL     OW19855   3.696   3.895   0.964
 6392SOL    HW119856   3.730   3.809   0.939
 6392SOL    HW219857   3.610   3.901   0.922
 6393SOL     OW19858   2.534   3.912   1.494
 6393SOL    HW119859   2.616   3.907   1.445
 6393SOL    HW219860   2.561   3.934   1.583
 6394SOL     OW19861   1.930   3.864   0.341
 6394SOL    HW119862   1.908   3.937   0.282
 6394SOL    HW219863   2.011   3.829   0.305
 6395SOL     OW19864   3.050   0.011   0.467
 6395SOL    HW119865   3.119   3.945   0.465
 6395SOL    HW219866   3.074   0.068   0.540
 6396SOL     OW19867   3.647   0.051   1.633
 6396SOL    HW119868   3.609   0.080   1.550
 6396SOL    HW219869   3.574   0.009   1.679
 6397SOL     OW19870   3.680   3.911   1.237
 6397SOL    HW119871   3.671   3.819   1.261
 6397SOL    HW219872   3.687   3.911   1.142
 6398SOL     OW19873   3.300   3.935   1.118
 6398SOL    HW119874   3.330   3.855   1.162
 6398SOL    HW219875   3.240   3.976   1.181
 6399SOL     OW19876   2.875   3.738   1.151
 6399SOL    HW119877   2.817   3.681   1.100
 6399SOL    HW219878   2.961   3.696   1.145
 6400SOL     OW19879   3.212   3.783   0.152
 6400SOL    HW119880   3.249   3.714   0.096
 6400SOL    HW219881   3.129   3.746   0.184
 6401SOL     OW19882   3.147   0.162   0.682
 6401SOL    HW119883   3.138   0.258   0.689
 6401SOL    HW219884   3.153   0.132   0.773
 6402SOL     OW19885   3.442   3.932   0.877
 6402SOL    HW119886   3.388   3.933   0.956
 6402SOL    HW219887   3.440   0.022   0.845
 6403SOL     OW19888   2.094   3.984   2.847
 6403SOL    HW119889   2.118   3.965   2.938
 6403SOL    HW219890   2.004   3.953   2.839
 6404SOL     OW19891   1.878   0.062   2.571
 6404SOL    HW119892   1.807   0.120   2.546
 6404SOL    HW219893   1.898   0.012   2.492
 6405SOL     OW19894   3.636   0.321   2.049
 6405SOL    HW119895   3.560   0.308   1.992
 6405SOL    HW219896   3.600   0.336   2.136
 6406SOL     OW19897   2.299   0.098   3.369
 6406SOL    HW119898   2.373   0.058   3.325
 6406SOL    HW219899   2.224   0.043   3.347
 6407SOL     OW19900   3.460   3.847   3.326
 6407SOL    HW119901   3.458   3.932   3.283
 6407SOL    HW219902   3.447   3.867   3.419
 6408SOL     OW19903   2.668   3.728   2.363
 6408SOL    HW119904   2.695   3.820   2.358
 6408SOL    HW219905   2.573   3.732   2.376
 6409SOL     OW19906   3.131   0.063   2.802
 6409SOL    HW119907   3.061   0.007   2.769
 6409SOL    HW219908   3.187   0.003   2.852
 6410SOL     OW19909   2.415   3.906   2.751
 6410SOL    HW119910   2.411   3.925   2.845
 6410SOL    HW219911   2.410   3.992   2.709
 6411SOL     OW19912   2.053   3.984   3.353
 6411SOL    HW119913   1.998   0.062   3.354
 6411SOL    HW219914   2.021   3.931   3.426
 6412SOL     OW19915   3.267   3.836   2.288
 6412SOL    HW119916   3.258   3.800   2.199
 6412SOL    HW219917   3.359   3.823   2.309
 6413SOL     OW19918   3.398   3.941   3.587
 6413SOL    HW119919   3.423   3.946   3.679
 6413SOL    HW219920   3.332   3.872   3.582
 6414SOL     OW19921   2.487   3.850   1.984
 6414SOL    HW119922   2.578   3.820   1.989
 6414SOL    HW219923   2.450   3.804   1.909
 6415SOL     OW19924   2.636   3.963   3.607
 6415SOL    HW119925   2.691   3.930   3.678
 6415SOL    HW219926   2.550   3.977   3.648
 6416SOL     OW19927   2.395   3.786   2.373
 6416SOL    HW119928   2.345   3.789   2.454
 6416SOL    HW219929   2.407   3.878   2.348
 6417SOL     OW19930   2.151   3.755   2.040
 6417SOL    HW119931   2.194   3.839   2.024
 6417SOL    HW219932   2.218   3.700   2.080
 6418SOL     OW19933   2.421   3.943   3.028
 6418SOL    HW119934   2.461   3.868   3.071
 6418SOL    HW219935   2.330   3.942   3.057
 6419SOL     OW19936   2.880   3.769   2.605
 6419SOL    HW119937   2.817   3.757   2.535
 6419SOL    HW219938   2.858   3.702   2.670
 6420SOL     OW19939   2.784   3.805   3.263
 6420SOL    HW119940   2.812   3.786   3.174
 6420SOL    HW219941   2.856   3.855   3.300
 6421SOL     OW19942   3.127   0.079   3.126
 6421SOL    HW119943   3.145   0.146   3.192
 6421SOL    HW219944   3.059   0.116   3.071
 6422SOL     OW19945   2.369   3.750   3.615
 6422SOL    HW119946   2.317   3.704   3.549
 6422SOL    HW219947   2.331   3.838   3.619
 6423SOL     OW19948   2.158   3.923   3.114
 6423SOL    HW119949   2.115   3.941   3.198
 6423SOL    HW219950   2.145   3.829   3.101
 6424SOL     OW19951   3.442   3.958   1.986
 6424SOL    HW119952   3.378   3.900   2.028
 6424SOL    HW219953   3.454   0.030   2.047
 6425SOL     OW19954   3.026   3.925   3.335
 6425SOL    HW119955   3.030   3.997   3.398
 6425SOL    HW219956   3.065   3.961   3.255
 6426SOL     OW19957   2.763   3.812   1.970
 6426SOL    HW119958   2.825   3.780   1.905
 6426SOL    HW219959   2.801   3.789   2.054
 6427SOL     OW19960   3.587   3.860   2.383
 6427SOL    HW119961   3.656   3.846   2.319
 6427SOL    HW219962   3.569   3.773   2.419
 6428SOL     OW19963   3.696   3.896   2.826
 6428SOL    HW119964   3.730   3.810   2.802
 6428SOL    HW219965   3.610   3.901   2.784
 6429SOL     OW19966   2.534   3.912   3.356
 6429SOL    HW119967   2.616   3.907   3.307
 6429SOL    HW219968   2.561   3.934   3.445
 6430SOL     OW19969   1.909   0.053   1.897
 6430SOL    HW119970   1.864   0.033   1.815
 6430SOL    HW219971   1.944   0.141   1.884
 6431SOL     OW19972   1.927   3.868   2.173
 6431SOL    HW119973   1.914   3.957   2.141
 6431SOL    HW219974   2.010   3.840   2.134
 6432SOL     OW19975   3.051   0.012   2.331
 6432SOL    HW119976   3.122   3.948   2.325
 6432SOL    HW219977   3.076   0.069   2.403
 6433SOL     OW19978   3.647   0.051   3.495
 6433SOL    HW119979   3.609   0.080   3.412
 6433SOL    HW219980   3.574   0.009   3.541
 6434SOL     OW19981   3.680   3.911   3.099
 6434SOL    HW119982   3.671   3.819   3.123
 6434SOL    HW219983   3.687   3.911   3.004
 6435SOL     OW19984   3.300   3.935   2.980
 6435SOL    HW119985   3.330   3.855   3.024
 6435SOL    HW219986   3.241   3.976   3.043
 6436SOL     OW19987   2.875   3.738   3.013
 6436SOL    HW119988   2.817   3.680   2.962
 6436SOL    HW219989   2.961   3.696   3.007
 6437SOL     OW19990   3.215   3.772   2.019
 6437SOL    HW119991   3.245   3.704   1.959
 6437SOL    HW219992   3.128   3.742   2.047
 6438SOL     OW19993   3.146   0.162   2.546
 6438SOL    HW119994   3.139   0.257   2.552
 6438SOL    HW219995   3.153   0.133   2.637
 6439SOL     OW19996   3.442   3.931   2.739
 6439SOL    HW119997   3.387   3.933   2.817
 6439SOL    HW219998   3.440   0.022   2.707
 6440SOL     OW19999   2.094   3.984   4.709
 6440SOL    HW120000   2.118   3.965   4.800
 6440SOL    HW220001   2.004   3.953   4.701
 6441SOL     OW20002   1.878   0.062   4.433
 6441SOL    HW120003   1.807   0.120   4.408
 6441SOL    HW220004   1.898   0.012   4.354
 6442SOL     OW20005   3.636   0.321   3.911
 6442SOL    HW120006   3.560   0.308   3.854
 6442SOL    HW220007   3.600   0.336   3.998
 6443SOL     OW20008   2.299   0.098   5.232
 6443SOL    HW120009   2.373   0.058   5.187
 6443SOL    HW220010   2.224   0.043   5.209
 6444SOL     OW20011   3.460   3.847   5.188
 6444SOL    HW120012   3.458   3.932   5.144
 6444SOL    HW220013   3.447   3.868   5.281
 6445SOL     OW20014   2.668   3.728   4.225
 6445SOL    HW120015   2.695   3.820   4.220
 6445SOL    HW220016   2.573   3.732   4.238
 6446SOL     OW20017   3.131   0.063   4.664
 6446SOL    HW120018   3.061   0.007   4.631
 6446SOL    HW220019   3.187   0.003   4.714
 6447SOL     OW20020   2.415   3.906   4.613
 6447SOL    HW120021   2.411   3.925   4.707
 6447SOL    HW220022   2.410   3.992   4.571
 6448SOL     OW20023   2.053   3.984   5.215
 6448SOL    HW120024   1.998   0.063   5.216
 6448SOL    HW220025   2.021   3.931   5.288
 6449SOL     OW20026   3.267   3.836   4.150
 6449SOL    HW120027   3.257   3.800   4.061
 6449SOL    HW220028   3.359   3.823   4.171
 6450SOL     OW20029   3.398   3.942   5.449
 6450SOL    HW120030   3.423   3.945   5.541
 6450SOL    HW220031   3.332   3.871   5.444
 6451SOL     OW20032   2.487   3.850   3.846
 6451SOL    HW120033   2.578   3.820   3.851
 6451SOL    HW220034   2.450   3.804   3.771
 6452SOL     OW20035   2.636   3.963   5.469
 6452SOL    HW120036   2.691   3.930   5.540
 6452SOL    HW220037   2.550   3.977   5.510
 6453SOL     OW20038   2.395   3.786   4.235
 6453SOL    HW120039   2.345   3.789   4.316
 6453SOL    HW220040   2.407   3.878   4.210
 6454SOL     OW20041   2.151   3.755   3.902
 6454SOL    HW120042   2.194   3.839   3.886
 6454SOL    HW220043   2.218   3.700   3.942
 6455SOL     OW20044   2.421   3.943   4.890
 6455SOL    HW120045   2.461   3.867   4.933
 6455SOL    HW220046   2.330   3.941   4.918
 6456SOL     OW20047   2.880   3.769   4.467
 6456SOL    HW120048   2.817   3.757   4.396
 6456SOL    HW220049   2.858   3.702   4.532
 6457SOL     OW20050   2.784   3.805   5.125
 6457SOL    HW120051   2.812   3.786   5.036
 6457SOL    HW220052   2.856   3.855   5.162
 6458SOL     OW20053   3.127   0.079   4.988
 6458SOL    HW120054   3.144   0.146   5.054
 6458SOL    HW220055   3.059   0.116   4.933
 6459SOL     OW20056   2.368   3.750   5.478
 6459SOL    HW120057   2.317   3.704   5.411
 6459SOL    HW220058   2.331   3.838   5.480
 6460SOL     OW20059   2.158   3.922   4.976
 6460SOL    HW120060   2.115   3.941   5.059
 6460SOL    HW220061   2.145   3.829   4.963
 6461SOL     OW20062   3.442   3.958   3.848
 6461SOL    HW120063   3.378   3.900   3.890
 6461SOL    HW220064   3.454   0.030   3.909
 6462SOL     OW20065   3.026   3.925   5.197
 6462SOL    HW120066   3.030   3.997   5.260
 6462SOL    HW220067   3.065   3.961   5.117
 6463SOL     OW20068   2.763   3.812   3.832
 6463SOL    HW120069   2.826   3.780   3.767
 6463SOL    HW220070   2.801   3.789   3.916
 6464SOL     OW20071   3.587   3.860   4.245
 6464SOL    HW120072   3.656   3.846   4.181
 6464SOL    HW220073   3.569   3.773   4.281
 6465SOL     OW20074   3.696   3.896   4.688
 6465SOL    HW120075   3.730   3.810   4.664
 6465SOL    HW220076   3.610   3.901   4.646
 6466SOL     OW20077   2.534   3.912   5.218
 6466SOL    HW120078   2.616   3.907   5.169
 6466SOL    HW220079   2.561   3.934   5.307
 6467SOL     OW20080   1.909   0.053   3.759
 6467SOL    HW120081   1.864   0.033   3.677
 6467SOL    HW220082   1.944   0.141   3.747
 6468SOL     OW20083   1.927   3.868   4.035
 6468SOL    HW120084   1.914   3.957   4.003
 6468SOL    HW220085   2.010   3.840   3.996
 6469SOL     OW20086   3.051   0.012   4.193
 6469SOL    HW120087   3.122   3.948   4.187
 6469SOL    HW220088   3.076   0.069   4.265
 6470SOL     OW20089   3.647   0.051   5.357
 6470SOL    HW120090   3.610   0.080   5.274
 6470SOL    HW220091   3.574   0.009   5.403
 6471SOL     OW20092   3.680   3.911   4.961
 6471SOL    HW120093   3.671   3.819   4.985
 6471SOL    HW220094   3.687   3.911   4.866
 6472SOL     OW20095   3.300   3.935   4.842
 6472SOL    HW120096   3.330   3.855   4.886
 6472SOL    HW220097   3.241   3.976   4.905
 6473SOL     OW20098   2.875   3.738   4.875
 6473SOL    HW120099   2.817   3.680   4.824
 6473SOL    HW220100   2.961   3.696   4.869
 6474SOL     OW20101   3.215   3.772   3.881
 6474SOL    HW120102   3.245   3.704   3.821
 6474SOL    HW220103   3.128   3.742   3.909
 6475SOL     OW20104   3.146   0.162   4.408
 6475SOL    HW120105   3.139   0.257   4.414
 6475SOL    HW220106   3.153   0.133   4.499
 6476SOL     OW20107   3.442   3.932   4.601
 6476SOL    HW120108   3.388   3.933   4.679
 6476SOL    HW220109   3.440   0.022   4.569
 6477SOL     OW20110   2.094   3.984   6.572
 6477SOL    HW120111   2.118   3.964   6.662
 6477SOL    HW220112   2.004   3.953   6.563
 6478SOL     OW20113   1.878   0.062   6.295
 6478SOL    HW120114   1.807   0.121   6.270
 6478SOL    HW220115   1.898   0.012   6.216
 6479SOL     OW20116   3.636   0.321   5.773
 6479SOL    HW120117   3.560   0.309   5.716
 6479SOL    HW220118   3.599   0.336   5.860
 6480SOL     OW20119   2.300   0.098   7.094
 6480SOL    HW120120   2.373   0.057   7.048
 6480SOL    HW220121   2.224   0.043   7.071
 6481SOL     OW20122   3.460   3.847   7.050
 6481SOL    HW120123   3.458   3.932   7.006
 6481SOL    HW220124   3.447   3.868   7.143
 6482SOL     OW20125   2.668   3.729   6.087
 6482SOL    HW120126   2.695   3.820   6.082
 6482SOL    HW220127   2.573   3.732   6.099
 6483SOL     OW20128   3.130   0.063   6.527
 6483SOL    HW120129   3.061   0.007   6.492
 6483SOL    HW220130   3.187   0.004   6.576
 6484SOL     OW20131   2.415   3.906   6.475
 6484SOL    HW120132   2.411   3.925   6.569
 6484SOL    HW220133   2.410   3.992   6.433
 6485SOL     OW20134   2.053   3.984   7.077
 6485SOL    HW120135   1.997   0.062   7.077
 6485SOL    HW220136   2.021   3.933   7.151
 6486SOL     OW20137   3.267   3.836   6.012
 6486SOL    HW120138   3.257   3.801   5.923
 6486SOL    HW220139   3.359   3.823   6.033
 6487SOL     OW20140   3.397   3.942   7.310
 6487SOL    HW120141   3.422   3.946   7.403
 6487SOL    HW220142   3.333   3.871   7.306
 6488SOL     OW20143   2.487   3.850   5.708
 6488SOL    HW120144   2.578   3.820   5.713
 6488SOL    HW220145   2.450   3.804   5.633
 6489SOL     OW20146   2.636   3.964   7.331
 6489SOL    HW120147   2.691   3.930   7.402
 6489SOL    HW220148   2.550   3.976   7.372
 6490SOL     OW20149   2.395   3.786   6.096
 6490SOL    HW120150   2.345   3.789   6.178
 6490SOL    HW220151   2.407   3.878   6.072
 6491SOL     OW20152   2.150   3.755   5.764
 6491SOL    HW120153   2.194   3.838   5.747
 6491SOL    HW220154   2.219   3.700   5.804
 6492SOL     OW20155   2.421   3.944   6.752
 6492SOL    HW120156   2.461   3.867   6.794
 6492SOL    HW220157   2.330   3.941   6.781
 6493SOL     OW20158   2.880   3.769   6.329
 6493SOL    HW120159   2.817   3.757   6.258
 6493SOL    HW220160   2.858   3.702   6.394
 6494SOL     OW20161   2.783   3.806   6.987
 6494SOL    HW120162   2.811   3.786   6.897
 6494SOL    HW220163   2.856   3.855   7.024
 6495SOL     OW20164   3.127   0.078   6.850
 6495SOL    HW120165   3.145   0.146   6.916
 6495SOL    HW220166   3.059   0.115   6.795
 6496SOL     OW20167   2.368   3.751   7.340
 6496SOL    HW120168   2.317   3.704   7.273
 6496SOL    HW220169   2.331   3.839   7.342
 6497SOL     OW20170   2.158   3.922   6.838
 6497SOL    HW120171   2.115   3.941   6.922
 6497SOL    HW220172   2.144   3.828   6.825
 6498SOL     OW20173   3.442   3.958   5.710
 6498SOL    HW120174   3.378   3.900   5.752
 6498SOL    HW220175   3.454   0.030   5.771
 6499SOL     OW20176   3.025   3.925   7.059
 6499SOL    HW120177   3.030   3.997   7.122
 6499SOL    HW220178   3.064   3.960   6.979
 6500SOL     OW20179   2.763   3.812   5.694
 6500SOL    HW120180   2.825   3.780   5.629
 6500SOL    HW220181   2.801   3.788   5.778
 6501SOL     OW20182   3.587   3.860   6.107
 6501SOL    HW120183   3.656   3.846   6.043
 6501SOL    HW220184   3.569   3.774   6.143
 6502SOL     OW20185   3.696   3.896   6.551
 6502SOL    HW120186   3.730   3.810   6.526
 6502SOL    HW220187   3.610   3.901   6.508
 6503SOL     OW20188   2.535   3.913   7.080
 6503SOL    HW120189   2.616   3.906   7.031
 6503SOL    HW220190   2.562   3.935   7.169
 6504SOL     OW20191   1.908   0.053   5.621
 6504SOL    HW120192   1.864   0.033   5.539
 6504SOL    HW220193   1.944   0.141   5.609
 6505SOL     OW20194   1.927   3.868   5.897
 6505SOL    HW120195   1.914   3.957   5.864
 6505SOL    HW220196   2.010   3.840   5.858
 6506SOL     OW20197   3.051   0.012   6.055
 6506SOL    HW120198   3.122   3.948   6.048
 6506SOL    HW220199   3.076   0.069   6.128
 6507SOL     OW20200   3.647   0.051   7.220
 6507SOL    HW120201   3.610   0.079   7.136
 6507SOL    HW220202   3.574   0.009   7.265
 6508SOL     OW20203   3.680   3.911   6.823
 6508SOL    HW120204   3.671   3.819   6.847
 6508SOL    HW220205   3.687   3.911   6.728
 6509SOL     OW20206   3.301   3.935   6.704
 6509SOL    HW120207   3.330   3.855   6.747
 6509SOL    HW220208   3.241   3.975   6.767
 6510SOL     OW20209   2.875   3.738   6.737
 6510SOL    HW120210   2.817   3.681   6.687
 6510SOL    HW220211   2.960   3.696   6.732
 6511SOL     OW20212   3.215   3.772   5.743
 6511SOL    HW120213   3.245   3.703   5.683
 6511SOL    HW220214   3.128   3.742   5.771
 6512SOL     OW20215   3.146   0.162   6.270
 6512SOL    HW120216   3.139   0.257   6.275
 6512SOL    HW220217   3.153   0.133   6.362
 6513SOL     OW20218   3.442   3.932   6.462
 6513SOL    HW120219   3.388   3.933   6.541
 6513SOL    HW220220   3.440   0.022   6.431
 6514SOL     OW20221   2.094   3.984   8.434
 6514SOL    HW120222   2.118   3.965   8.524
 6514SOL    HW220223   2.004   3.953   8.425
 6515SOL     OW20224   1.879   0.062   8.157
 6515SOL    HW120225   1.807   0.120   8.132
 6515SOL    HW220226   1.897   0.011   8.078
 6516SOL     OW20227   3.636   0.322   7.635
 6516SOL    HW120228   3.560   0.309   7.578
 6516SOL    HW220229   3.599   0.336   7.722
 6517SOL     OW20230   2.299   0.098   8.955
 6517SOL    HW120231   2.373   0.057   8.911
 6517SOL    HW220232   2.224   0.043   8.933
 6518SOL     OW20233   3.460   3.847   8.912
 6518SOL    HW120234   3.458   3.932   8.868
 6518SOL    HW220235   3.447   3.868   9.005
 6519SOL     OW20236   2.668   3.728   7.950
 6519SOL    HW120237   2.695   3.820   7.944
 6519SOL    HW220238   2.573   3.732   7.962
 6520SOL     OW20239   3.131   0.063   8.388
 6520SOL    HW120240   3.061   0.006   8.354
 6520SOL    HW220241   3.187   0.004   8.438
 6521SOL     OW20242   2.415   3.906   8.337
 6521SOL    HW120243   2.411   3.925   8.431
 6521SOL    HW220244   2.410   3.991   8.295
 6522SOL     OW20245   2.053   3.984   8.939
 6522SOL    HW120246   1.997   0.062   8.940
 6522SOL    HW220247   2.021   3.931   9.012
 6523SOL     OW20248   3.267   3.836   7.874
 6523SOL    HW120249   3.257   3.800   7.785
 6523SOL    HW220250   3.359   3.823   7.895
 6524SOL     OW20251   3.398   3.942   9.173
 6524SOL    HW120252   3.423   3.946   9.265
 6524SOL    HW220253   3.333   3.871   9.168
 6525SOL     OW20254   2.487   3.850   7.570
 6525SOL    HW120255   2.578   3.820   7.575
 6525SOL    HW220256   2.450   3.804   7.495
 6526SOL     OW20257   2.636   3.963   9.193
 6526SOL    HW120258   2.691   3.931   9.264
 6526SOL    HW220259   2.550   3.977   9.234
 6527SOL     OW20260   2.395   3.786   7.958
 6527SOL    HW120261   2.344   3.790   8.040
 6527SOL    HW220262   2.407   3.878   7.934
 6528SOL     OW20263   2.151   3.755   7.626
 6528SOL    HW120264   2.193   3.839   7.610
 6528SOL    HW220265   2.219   3.700   7.665
 6529SOL     OW20266   2.421   3.943   8.614
 6529SOL    HW120267   2.461   3.868   8.657
 6529SOL    HW220268   2.330   3.942   8.643
 6530SOL     OW20269   2.880   3.769   8.192
 6530SOL    HW120270   2.817   3.757   8.121
 6530SOL    HW220271   2.857   3.702   8.256
 6531SOL     OW20272   2.784   3.805   8.849
 6531SOL    HW120273   2.811   3.786   8.760
 6531SOL    HW220274   2.856   3.855   8.886
 6532SOL     OW20275   3.127   0.078   8.712
 6532SOL    HW120276   3.145   0.146   8.778
 6532SOL    HW220277   3.059   0.116   8.657
 6533SOL     OW20278   2.369   3.750   9.201
 6533SOL    HW120279   2.317   3.704   9.135
 6533SOL    HW220280   2.331   3.838   9.205
 6534SOL     OW20281   2.158   3.923   8.700
 6534SOL    HW120282   2.115   3.941   8.784
 6534SOL    HW220283   2.145   3.829   8.687
 6535SOL     OW20284   3.441   3.958   7.571
 6535SOL    HW120285   3.378   3.900   7.614
 6535SOL    HW220286   3.455   0.029   7.634
 6536SOL     OW20287   3.026   3.925   8.921
 6536SOL    HW120288   3.030   3.997   8.984
 6536SOL    HW220289   3.065   3.961   8.841
 6537SOL     OW20290   2.763   3.812   7.556
 6537SOL    HW120291   2.825   3.780   7.490
 6537SOL    HW220292   2.802   3.788   7.640
 6538SOL     OW20293   3.587   3.861   7.969
 6538SOL    HW120294   3.656   3.846   7.905
 6538SOL    HW220295   3.569   3.774   8.005
 6539SOL     OW20296   3.696   3.896   8.413
 6539SOL    HW120297   3.730   3.810   8.388
 6539SOL    HW220298   3.610   3.901   8.370
 6540SOL     OW20299   2.534   3.912   8.942
 6540SOL    HW120300   2.616   3.907   8.893
 6540SOL    HW220301   2.561   3.934   9.031
 6541SOL     OW20302   1.910   0.053   7.483
 6541SOL    HW120303   1.864   0.033   7.401
 6541SOL    HW220304   1.944   0.141   7.470
 6542SOL     OW20305   1.928   3.868   7.760
 6542SOL    HW120306   1.914   3.957   7.727
 6542SOL    HW220307   2.010   3.840   7.720
 6543SOL     OW20308   3.051   0.013   7.917
 6543SOL    HW120309   3.121   3.949   7.910
 6543SOL    HW220310   3.076   0.069   7.990
 6544SOL     OW20311   3.647   0.051   9.081
 6544SOL    HW120312   3.609   0.080   8.998
 6544SOL    HW220313   3.574   0.009   9.127
 6545SOL     OW20314   3.680   3.911   8.685
 6545SOL    HW120315   3.671   3.819   8.709
 6545SOL    HW220316   3.687   3.911   8.590
 6546SOL     OW20317   3.301   3.935   8.566
 6546SOL    HW120318   3.330   3.855   8.609
 6546SOL    HW220319   3.241   3.976   8.629
 6547SOL     OW20320   2.875   3.738   8.599
 6547SOL    HW120321   2.817   3.680   8.548
 6547SOL    HW220322   2.961   3.696   8.593
 6548SOL     OW20323   3.215   3.771   7.605
 6548SOL    HW120324   3.246   3.703   7.545
 6548SOL    HW220325   3.128   3.742   7.632
 6549SOL     OW20326   3.145   0.162   8.132
 6549SOL    HW120327   3.139   0.257   8.138
 6549SOL    HW220328   3.153   0.133   8.223
 6550SOL     OW20329   3.442   3.931   8.324
 6550SOL    HW120330   3.388   3.933   8.403
 6550SOL    HW220331   3.440   0.022   8.293
 6551SOL     OW20332   2.094   3.984  10.295
 6551SOL    HW120333   2.118   3.965  10.386
 6551SOL    HW220334   2.004   3.953  10.287
 6552SOL     OW20335   1.878   0.062  10.019
 6552SOL    HW120336   1.807   0.120   9.994
 6552SOL    HW220337   1.898   0.012   9.940
 6553SOL     OW20338   3.636   0.321   9.497
 6553SOL    HW120339   3.560   0.308   9.440
 6553SOL    HW220340   3.600   0.336   9.584
 6554SOL     OW20341   2.299   0.098  10.817
 6554SOL    HW120342   2.373   0.058  10.773
 6554SOL    HW220343   2.224   0.042  10.795
 6555SOL     OW20344   3.460   3.847  10.774
 6555SOL    HW120345   3.458   3.932  10.730
 6555SOL    HW220346   3.447   3.867  10.867
 6556SOL     OW20347   2.668   3.728   9.811
 6556SOL    HW120348   2.695   3.820   9.806
 6556SOL    HW220349   2.573   3.732   9.824
 6557SOL     OW20350   3.131   0.063  10.250
 6557SOL    HW120351   3.061   0.007  10.217
 6557SOL    HW220352   3.187   0.003  10.300
 6558SOL     OW20353   2.415   3.906  10.199
 6558SOL    HW120354   2.411   3.925  10.293
 6558SOL    HW220355   2.410   3.992  10.157
 6559SOL     OW20356   2.052   3.984  10.801
 6559SOL    HW120357   1.998   0.063  10.802
 6559SOL    HW220358   2.021   3.932  10.875
 6560SOL     OW20359   3.267   3.836   9.736
 6560SOL    HW120360   3.258   3.800   9.647
 6560SOL    HW220361   3.359   3.823   9.757
 6561SOL     OW20362   3.398   3.942  11.035
 6561SOL    HW120363   3.423   3.946  11.127
 6561SOL    HW220364   3.332   3.872  11.030
 6562SOL     OW20365   2.487   3.850   9.432
 6562SOL    HW120366   2.578   3.820   9.437
 6562SOL    HW220367   2.450   3.804   9.357
 6563SOL     OW20368   2.636   3.963  11.055
 6563SOL    HW120369   2.691   3.930  11.126
 6563SOL    HW220370   2.550   3.977  11.096
 6564SOL     OW20371   2.395   3.786   9.821
 6564SOL    HW120372   2.345   3.789   9.902
 6564SOL    HW220373   2.407   3.878   9.796
 6565SOL     OW20374   2.151   3.755   9.488
 6565SOL    HW120375   2.193   3.839   9.472
 6565SOL    HW220376   2.219   3.700   9.528
 6566SOL     OW20377   2.421   3.943  10.476
 6566SOL    HW120378   2.461   3.868  10.519
 6566SOL    HW220379   2.330   3.942  10.504
 6567SOL     OW20380   2.880   3.769  10.053
 6567SOL    HW120381   2.817   3.757   9.983
 6567SOL    HW220382   2.858   3.702  10.118
 6568SOL     OW20383   2.784   3.805  10.711
 6568SOL    HW120384   2.812   3.786  10.622
 6568SOL    HW220385   2.856   3.855  10.748
 6569SOL     OW20386   3.127   0.079  10.574
 6569SOL    HW120387   3.145   0.146  10.640
 6569SOL    HW220388   3.059   0.116  10.519
 6570SOL     OW20389   2.369   3.750  11.063
 6570SOL    HW120390   2.317   3.704  10.997
 6570SOL    HW220391   2.331   3.838  11.067
 6571SOL     OW20392   2.158   3.923  10.562
 6571SOL    HW120393   2.115   3.941  10.646
 6571SOL    HW220394   2.145   3.829  10.549
 6572SOL     OW20395   3.442   3.958   9.434
 6572SOL    HW120396   3.378   3.900   9.476
 6572SOL    HW220397   3.454   0.030   9.495
 6573SOL     OW20398   3.026   3.925  10.783
 6573SOL    HW120399   3.030   3.997  10.846
 6573SOL    HW220400   3.065   3.961  10.703
 6574SOL     OW20401   2.763   3.812   9.418
 6574SOL    HW120402   2.825   3.780   9.353
 6574SOL    HW220403   2.801   3.789   9.502
 6575SOL     OW20404   3.587   3.860   9.831
 6575SOL    HW120405   3.656   3.846   9.767
 6575SOL    HW220406   3.569   3.773   9.867
 6576SOL     OW20407   3.696   3.896  10.274
 6576SOL    HW120408   3.730   3.810  10.249
 6576SOL    HW220409   3.610   3.901  10.232
 6577SOL     OW20410   2.534   3.912  10.804
 6577SOL    HW120411   2.616   3.907  10.755
 6577SOL    HW220412   2.561   3.934  10.893
 6578SOL     OW20413   1.909   0.053   9.345
 6578SOL    HW120414   1.864   0.033   9.263
 6578SOL    HW220415   1.944   0.141   9.332
 6579SOL     OW20416   1.927   3.868   9.621
 6579SOL    HW120417   1.914   3.957   9.589
 6579SOL    HW220418   2.010   3.840   9.582
 6580SOL     OW20419   3.051   0.012   9.779
 6580SOL    HW120420   3.122   3.948   9.773
 6580SOL    HW220421   3.076   0.069   9.851
 6581SOL     OW20422   3.647   0.051  10.943
 6581SOL    HW120423   3.609   0.080  10.860
 6581SOL    HW220424   3.574   0.009  10.989
 6582SOL     OW20425   3.680   3.911  10.547
 6582SOL    HW120426   3.671   3.819  10.571
 6582SOL    HW220427   3.687   3.911  10.452
 6583SOL     OW20428   3.300   3.935  10.428
 6583SOL    HW120429   3.330   3.855  10.472
 6583SOL    HW220430   3.241   3.976  10.491
 6584SOL     OW20431   2.875   3.738  10.461
 6584SOL    HW120432   2.817   3.680  10.410
 6584SOL    HW220433   2.961   3.696  10.455
 6585SOL     OW20434   3.215   3.772   9.467
 6585SOL    HW120435   3.245   3.704   9.407
 6585SOL    HW220436   3.128   3.742   9.495
 6586SOL     OW20437   3.145   0.162   9.994
 6586SOL    HW120438   3.139   0.257  10.000
 6586SOL    HW220439   3.153   0.133  10.085
 6587SOL     OW20440   3.442   3.931  10.187
 6587SOL    HW120441   3.387   3.933  10.265
 6587SOL    HW220442   3.440   0.022  10.155
 6588SOL     OW20443   2.094   3.984  12.157
 6588SOL    HW120444   2.118   3.965  12.248
 6588SOL    HW220445   2.004   3.953  12.149
 6589SOL     OW20446   1.878   0.062  11.881
 6589SOL    HW120447   1.807   0.120  11.856
 6589SOL    HW220448   1.898   0.012  11.802
 6590SOL     OW20449   3.636   0.321  11.359
 6590SOL    HW120450   3.560   0.308  11.302
 6590SOL    HW220451   3.600   0.336  11.446
 6591SOL     OW20452   2.299   0.098  12.679
 6591SOL    HW120453   2.373   0.058  12.635
 6591SOL    HW220454   2.224   0.043  12.657
 6592SOL     OW20455   3.460   3.847  12.636
 6592SOL    HW120456   3.458   3.933  12.593
 6592SOL    HW220457   3.447   3.867  12.729
 6593SOL     OW20458   2.668   3.728  11.673
 6593SOL    HW120459   2.695   3.820  11.668
 6593SOL    HW220460   2.573   3.732  11.686
 6594SOL     OW20461   3.131   0.063  12.112
 6594SOL    HW120462   3.061   0.007  12.079
 6594SOL    HW220463   3.187   0.003  12.162
 6595SOL     OW20464   2.415   3.906  12.061
 6595SOL    HW120465   2.411   3.925  12.155
 6595SOL    HW220466   2.410   3.992  12.019
 6596SOL     OW20467   2.053   3.984  12.663
 6596SOL    HW120468   1.998   0.062  12.664
 6596SOL    HW220469   2.021   3.931  12.736
 6597SOL     OW20470   3.267   3.836  11.598
 6597SOL    HW120471   3.258   3.800  11.509
 6597SOL    HW220472   3.359   3.823  11.619
 6598SOL     OW20473   3.398   3.941  12.896
 6598SOL    HW120474   3.421   3.947  12.989
 6598SOL    HW220475   3.332   3.872  12.893
 6599SOL     OW20476   2.487   3.850  11.294
 6599SOL    HW120477   2.578   3.820  11.299
 6599SOL    HW220478   2.450   3.804  11.219
 6600SOL     OW20479   2.636   3.963  12.917
 6600SOL    HW120480   2.691   3.931  12.988
 6600SOL    HW220481   2.550   3.977  12.958
 6601SOL     OW20482   2.395   3.786  11.683
 6601SOL    HW120483   2.345   3.789  11.764
 6601SOL    HW220484   2.407   3.878  11.658
 6602SOL     OW20485   2.151   3.755  11.350
 6602SOL    HW120486   2.193   3.839  11.334
 6602SOL    HW220487   2.219   3.700  11.390
 6603SOL     OW20488   2.421   3.943  12.338
 6603SOL    HW120489   2.461   3.868  12.381
 6603SOL    HW220490   2.330   3.942  12.367
 6604SOL     OW20491   2.880   3.769  11.915
 6604SOL    HW120492   2.817   3.757  11.845
 6604SOL    HW220493   2.858   3.702  11.980
 6605SOL     OW20494   2.784   3.805  12.573
 6605SOL    HW120495   2.812   3.786  12.484
 6605SOL    HW220496   2.856   3.855  12.610
 6606SOL     OW20497   3.127   0.079  12.436
 6606SOL    HW120498   3.144   0.146  12.502
 6606SOL    HW220499   3.059   0.116  12.381
 6607SOL     OW20500   2.369   3.750  12.925
 6607SOL    HW120501   2.317   3.704  12.859
 6607SOL    HW220502   2.331   3.838  12.929
 6608SOL     OW20503   2.158   3.923  12.424
 6608SOL    HW120504   2.115   3.941  12.508
 6608SOL    HW220505   2.145   3.829  12.411
 6609SOL     OW20506   3.442   3.958  11.296
 6609SOL    HW120507   3.378   3.900  11.338
 6609SOL    HW220508   3.454   0.030  11.357
 6610SOL     OW20509   3.026   3.925  12.645
 6610SOL    HW120510   3.030   3.997  12.708
 6610SOL    HW220511   3.065   3.961  12.565
 6611SOL     OW20512   2.763   3.812  11.280
 6611SOL    HW120513   2.825   3.781  11.215
 6611SOL    HW220514   2.801   3.789  11.364
 6612SOL     OW20515   3.587   3.860  11.693
 6612SOL    HW120516   3.656   3.846  11.629
 6612SOL    HW220517   3.569   3.773  11.729
 6613SOL     OW20518   3.696   3.896  12.136
 6613SOL    HW120519   3.730   3.810  12.111
 6613SOL    HW220520   3.610   3.901  12.094
 6614SOL     OW20521   2.534   3.912  12.666
 6614SOL    HW120522   2.616   3.907  12.617
 6614SOL    HW220523   2.561   3.934  12.755
 6615SOL     OW20524   1.909   0.053  11.207
 6615SOL    HW120525   1.864   0.033  11.125
 6615SOL    HW220526   1.944   0.141  11.195
 6616SOL     OW20527   1.927   3.868  11.483
 6616SOL    HW120528   1.914   3.957  11.451
 6616SOL    HW220529   2.010   3.840  11.444
 6617SOL     OW20530   3.051   0.012  11.641
 6617SOL    HW120531   3.122   3.948  11.635
 6617SOL    HW220532   3.076   0.069  11.713
 6618SOL     OW20533   3.647   0.051  12.804
 6618SOL    HW120534   3.609   0.080  12.722
 6618SOL    HW220535   3.575   0.009  12.851
 6619SOL     OW20536   3.680   3.911  12.409
 6619SOL    HW120537   3.670   3.819  12.433
 6619SOL    HW220538   3.687   3.911  12.314
 6620SOL     OW20539   3.300   3.935  12.290
 6620SOL    HW120540   3.330   3.855  12.334
 6620SOL    HW220541   3.241   3.976  12.353
 6621SOL     OW20542   2.875   3.738  12.323
 6621SOL    HW120543   2.817   3.680  12.272
 6621SOL    HW220544   2.961   3.696  12.317
 6622SOL     OW20545   3.215   3.772  11.329
 6622SOL    HW120546   3.245   3.704  11.269
 6622SOL    HW220547   3.128   3.742  11.357
 6623SOL     OW20548   3.146   0.162  11.856
 6623SOL    HW120549   3.139   0.257  11.862
 6623SOL    HW220550   3.153   0.133  11.947
 6624SOL     OW20551   3.442   3.932  12.049
 6624SOL    HW120552   3.388   3.933  12.127
 6624SOL    HW220553   3.440   0.022  12.017
 6625SOL     OW20554   1.884   0.090  13.687
 6625SOL    HW120555   1.804   0.108  13.737
 6625SOL    HW220556   1.873   0.001  13.654
 6626SOL     OW20557   3.636   0.319  13.220
 6626SOL    HW120558   3.559   0.309  13.164
 6626SOL    HW220559   3.601   0.327  13.309
 6627SOL     OW20560   3.467   0.175  13.763
 6627SOL    HW120561   3.378   0.162  13.729
 6627SOL    HW220562   3.463   0.257  13.812
 6628SOL     OW20563   2.669   3.729  13.537
 6628SOL    HW120564   2.694   3.821  13.531
 6628SOL    HW220565   2.574   3.730  13.549
 6629SOL     OW20566   3.267   3.837  13.459
 6629SOL    HW120567   3.261   3.800  13.371
 6629SOL    HW220568   3.360   3.829  13.481
 6630SOL     OW20569   2.487   3.851  13.156
 6630SOL    HW120570   2.577   3.820  13.162
 6630SOL    HW220571   2.450   3.804  13.081
 6631SOL     OW20572   2.397   3.784  13.543
 6631SOL    HW120573   2.341   3.777  13.621
 6631SOL    HW220574   2.404   3.878  13.527
 6632SOL     OW20575   2.151   3.755  13.211
 6632SOL    HW120576   2.195   3.838  13.195
 6632SOL    HW220577   2.218   3.700  13.252
 6633SOL     OW20578   2.873   3.766  13.776
 6633SOL    HW120579   2.817   3.761  13.699
 6633SOL    HW220580   2.854   3.687  13.826
 6634SOL     OW20581   3.440   3.961  13.157
 6634SOL    HW120582   3.381   3.899  13.201
 6634SOL    HW220583   3.466   0.022  13.226
 6635SOL     OW20584   2.763   3.812  13.142
 6635SOL    HW120585   2.825   3.781  13.077
 6635SOL    HW220586   2.802   3.787  13.226
 6636SOL     OW20587   3.589   3.858  13.563
 6636SOL    HW120588   3.657   3.847  13.496
 6636SOL    HW220589   3.572   3.769  13.594
 6637SOL     OW20590   3.711   3.889   0.049
 6637SOL    HW120591   3.741   3.799   0.059
 6637SOL    HW220592   3.620   3.889   0.080
 6638SOL     OW20593   1.910   0.053  13.068
 6638SOL    HW120594   1.864   0.033  12.986
 6638SOL    HW220595   1.944   0.141  13.056
 6639SOL     OW20596   1.926   3.869  13.345
 6639SOL    HW120597   1.915   3.960  13.317
 6639SOL    HW220598   2.008   3.842  13.305
 6640SOL     OW20599   3.047   0.006  13.512
 6640SOL    HW120600   3.121   3.948  13.494
 6640SOL    HW220601   3.080   0.067  13.578
 6641SOL     OW20602   3.215   3.772  13.191
 6641SOL    HW120603   3.245   3.703  13.131
 6641SOL    HW220604   3.128   3.743  13.219
 6642SOL     OW20605   3.169   0.159  13.733
 6642SOL    HW120606   3.130   0.245  13.715
 6642SOL    HW220607   3.157   0.146  13.827
 6643SOL     OW20608   3.955   0.632   0.124
 6643SOL    HW120609   3.885   0.627   0.189
 6643SOL    HW220610   3.924   0.578   0.051
 6644SOL     OW20611   3.952   0.293   0.990
 6644SOL    HW120612   3.965   0.273   1.082
 6644SOL    HW220613   3.866   0.258   0.969
 6645SOL     OW20614   3.731   0.392   0.640
 6645SOL    HW120615   3.644   0.407   0.676
 6645SOL    HW220616   3.721   0.315   0.584
 6646SOL     OW20617   0.014   1.519   1.049
 6646SOL    HW120618   3.967   1.436   1.035
 6646SOL    HW220619   0.084   1.519   0.984
 6647SOL     OW20620   3.945   1.718   0.472
 6647SOL    HW120621   3.950   1.792   0.533
 6647SOL    HW220622   0.036   1.705   0.444
 6648SOL     OW20623   3.937   1.438   0.510
 6648SOL    HW120624   3.926   1.533   0.515
 6648SOL    HW220625   3.884   1.403   0.582
 6649SOL     OW20626   3.811   0.648   0.556
 6649SOL    HW120627   3.797   0.557   0.581
 6649SOL    HW220628   3.814   0.695   0.639
 6650SOL     OW20629   3.700   1.616   0.103
 6650SOL    HW120630   3.734   1.528   0.121
 6650SOL    HW220631   3.702   1.660   0.188
 6651SOL     OW20632   3.829   0.748   1.579
 6651SOL    HW120633   3.914   0.781   1.608
 6651SOL    HW220634   3.772   0.824   1.578
 6652SOL     OW20635   3.803   0.818   0.772
 6652SOL    HW120636   3.896   0.810   0.795
 6652SOL    HW220637   3.771   0.892   0.824
 6653SOL     OW20638   3.848   1.861   1.568
 6653SOL    HW120639   3.850   1.832   1.659
 6653SOL    HW220640   3.761   1.837   1.537
 6654SOL     OW20641   3.924   0.310   1.519
 6654SOL    HW120642   3.847   0.355   1.484
 6654SOL    HW220643   3.889   0.247   1.581
 6655SOL     OW20644   3.805   0.549   1.390
 6655SOL    HW120645   3.900   0.546   1.378
 6655SOL    HW220646   3.792   0.625   1.447
 6656SOL     OW20647   3.789   1.572   1.348
 6656SOL    HW120648   3.762   1.637   1.283
 6656SOL    HW220649   3.885   1.578   1.349
 6657SOL     OW20650   0.070   1.091   0.528
 6657SOL    HW120651   0.084   1.153   0.456
 6657SOL    HW220652   0.137   1.025   0.517
 6658SOL     OW20653   0.008   0.215   1.243
 6658SOL    HW120654   3.983   0.241   1.332
 6658SOL    HW220655   0.007   0.120   1.244
 6659SOL     OW20656   3.753   1.311   1.278
 6659SOL    HW120657   3.798   1.262   1.348
 6659SOL    HW220658   3.767   1.403   1.301
 6660SOL     OW20659   3.741   1.316   0.174
 6660SOL    HW120660   3.658   1.331   0.128
 6660SOL    HW220661   3.729   1.233   0.219
 6661SOL     OW20662   3.801   1.795   0.936
 6661SOL    HW120663   3.780   1.713   0.892
 6661SOL    HW220664   3.895   1.807   0.921
 6662SOL     OW20665   0.216   1.555   0.874
 6662SOL    HW120666   0.285   1.620   0.876
 6662SOL    HW220667   0.242   1.494   0.805
 6663SOL     OW20668   3.754   0.535   1.116
 6663SOL    HW120669   3.834   0.525   1.065
 6663SOL    HW220670   3.784   0.548   1.206
 6664SOL     OW20671   3.908   0.529   1.715
 6664SOL    HW120672   3.946   0.477   1.644
 6664SOL    HW220673   3.859   0.598   1.670
 6665SOL     OW20674   3.945   1.537   1.727
 6665SOL    HW120675   3.939   1.613   1.785
 6665SOL    HW220676   3.987   1.469   1.780
 6666SOL     OW20677   3.859   1.128   1.474
 6666SOL    HW120678   3.931   1.116   1.537
 6666SOL    HW220679   3.895   1.094   1.392
 6667SOL     OW20680   3.811   1.265   1.014
 6667SOL    HW120681   3.784   1.277   1.105
 6667SOL    HW220682   3.747   1.203   0.979
 6668SOL     OW20683   3.839   1.793   1.828
 6668SOL    HW120684   3.789   1.726   1.875
 6668SOL    HW220685   3.892   1.836   1.896
 6669SOL     OW20686   3.804   0.400   0.004
 6669SOL    HW120687   3.766   0.318   0.035
 6669SOL    HW220688   3.774   0.408  13.813
 6670SOL     OW20689   3.794   0.146   0.344
 6670SOL    HW120690   3.760   0.223   0.299
 6670SOL    HW220691   3.889   0.159   0.345
 6671SOL     OW20692   3.800   1.236   0.662
 6671SOL    HW120693   3.794   1.188   0.745
 6671SOL    HW220694   3.884   1.209   0.625
 6672SOL     OW20695   3.752   1.079   0.306
 6672SOL    HW120696   3.848   1.083   0.302
 6672SOL    HW220697   3.733   0.988   0.328
 6673SOL     OW20698   3.956   0.630   1.971
 6673SOL    HW120699   3.874   0.632   2.020
 6673SOL    HW220700   3.931   0.598   1.884
 6674SOL     OW20701   3.953   0.291   2.851
 6674SOL    HW120702   3.966   0.273   2.944
 6674SOL    HW220703   3.865   0.258   2.831
 6675SOL     OW20704   3.731   0.391   2.502
 6675SOL    HW120705   3.644   0.407   2.538
 6675SOL    HW220706   3.720   0.314   2.446
 6676SOL     OW20707   0.013   1.519   2.911
 6676SOL    HW120708   3.968   1.436   2.897
 6676SOL    HW220709   0.084   1.519   2.846
 6677SOL     OW20710   3.941   1.719   2.336
 6677SOL    HW120711   3.950   1.792   2.397
 6677SOL    HW220712   0.031   1.701   2.307
 6678SOL     OW20713   3.942   1.439   2.373
 6678SOL    HW120714   3.922   1.532   2.377
 6678SOL    HW220715   3.886   1.399   2.440
 6679SOL     OW20716   3.811   0.648   2.419
 6679SOL    HW120717   3.797   0.557   2.445
 6679SOL    HW220718   3.814   0.696   2.502
 6680SOL     OW20719   3.753   1.597   1.991
 6680SOL    HW120720   3.734   1.505   2.009
 6680SOL    HW220721   3.724   1.643   2.069
 6681SOL     OW20722   3.829   0.748   3.441
 6681SOL    HW120723   3.914   0.781   3.470
 6681SOL    HW220724   3.772   0.824   3.440
 6682SOL     OW20725   3.803   0.817   2.635
 6682SOL    HW120726   3.896   0.810   2.657
 6682SOL    HW220727   3.771   0.892   2.686
 6683SOL     OW20728   3.848   1.861   3.430
 6683SOL    HW120729   3.850   1.832   3.521
 6683SOL    HW220730   3.761   1.837   3.399
 6684SOL     OW20731   3.924   0.310   3.380
 6684SOL    HW120732   3.847   0.355   3.346
 6684SOL    HW220733   3.889   0.247   3.443
 6685SOL     OW20734   3.805   0.549   3.252
 6685SOL    HW120735   3.900   0.546   3.240
 6685SOL    HW220736   3.792   0.625   3.309
 6686SOL     OW20737   0.266   0.288   2.196
 6686SOL    HW120738   0.307   0.224   2.138
 6686SOL    HW220739   0.293   0.373   2.160
 6687SOL     OW20740   3.789   1.572   3.210
 6687SOL    HW120741   3.762   1.637   3.145
 6687SOL    HW220742   3.885   1.578   3.211
 6688SOL     OW20743   0.069   1.091   2.385
 6688SOL    HW120744   0.070   1.143   2.305
 6688SOL    HW220745   0.127   1.017   2.367
 6689SOL     OW20746   0.008   0.216   3.105
 6689SOL    HW120747   3.983   0.241   3.194
 6689SOL    HW220748   0.007   0.120   3.107
 6690SOL     OW20749   3.753   1.311   3.140
 6690SOL    HW120750   3.798   1.262   3.210
 6690SOL    HW220751   3.767   1.403   3.163
 6691SOL     OW20752   3.729   1.327   2.050
 6691SOL    HW120753   3.643   1.339   2.010
 6691SOL    HW220754   3.723   1.242   2.095
 6692SOL     OW20755   3.801   1.795   2.798
 6692SOL    HW120756   3.780   1.713   2.754
 6692SOL    HW220757   3.895   1.807   2.783
 6693SOL     OW20758   0.216   1.555   2.736
 6693SOL    HW120759   0.286   1.620   2.738
 6693SOL    HW220760   0.243   1.493   2.668
 6694SOL     OW20761   3.754   0.535   2.979
 6694SOL    HW120762   3.834   0.526   2.928
 6694SOL    HW220763   3.783   0.547   3.069
 6695SOL     OW20764   3.908   0.529   3.577
 6695SOL    HW120765   3.946   0.477   3.506
 6695SOL    HW220766   3.859   0.598   3.532
 6696SOL     OW20767   3.945   1.537   3.589
 6696SOL    HW120768   3.939   1.613   3.646
 6696SOL    HW220769   3.987   1.469   3.642
 6697SOL     OW20770   3.859   1.127   3.336
 6697SOL    HW120771   3.931   1.116   3.399
 6697SOL    HW220772   3.895   1.094   3.254
 6698SOL     OW20773   3.810   1.265   2.876
 6698SOL    HW120774   3.784   1.277   2.967
 6698SOL    HW220775   3.747   1.203   2.841
 6699SOL     OW20776   3.839   1.793   3.690
 6699SOL    HW120777   3.789   1.726   3.737
 6699SOL    HW220778   3.892   1.836   3.758
 6700SOL     OW20779   3.822   0.317   1.854
 6700SOL    HW120780   3.750   0.334   1.914
 6700SOL    HW220781   3.828   0.395   1.800
 6701SOL     OW20782   3.781   0.152   2.207
 6701SOL    HW120783   3.749   0.210   2.137
 6701SOL    HW220784   3.876   0.150   2.195
 6702SOL     OW20785   3.800   1.238   2.525
 6702SOL    HW120786   3.794   1.188   2.607
 6702SOL    HW220787   3.880   1.206   2.484
 6703SOL     OW20788   3.753   1.082   2.171
 6703SOL    HW120789   3.843   1.082   2.140
 6703SOL    HW220790   3.735   0.990   2.191
 6704SOL     OW20791   3.956   0.630   3.833
 6704SOL    HW120792   3.874   0.633   3.882
 6704SOL    HW220793   3.931   0.598   3.746
 6705SOL     OW20794   3.953   0.291   4.713
 6705SOL    HW120795   3.966   0.273   4.806
 6705SOL    HW220796   3.866   0.258   4.693
 6706SOL     OW20797   3.731   0.391   4.364
 6706SOL    HW120798   3.644   0.407   4.400
 6706SOL    HW220799   3.720   0.314   4.308
 6707SOL     OW20800   0.014   1.519   4.773
 6707SOL    HW120801   3.968   1.436   4.759
 6707SOL    HW220802   0.084   1.519   4.708
 6708SOL     OW20803   3.941   1.719   4.198
 6708SOL    HW120804   3.950   1.792   4.259
 6708SOL    HW220805   0.031   1.701   4.169
 6709SOL     OW20806   3.942   1.439   4.235
 6709SOL    HW120807   3.922   1.532   4.239
 6709SOL    HW220808   3.885   1.399   4.302
 6710SOL     OW20809   3.811   0.648   4.281
 6710SOL    HW120810   3.797   0.557   4.307
 6710SOL    HW220811   3.814   0.696   4.364
 6711SOL     OW20812   3.753   1.597   3.853
 6711SOL    HW120813   3.733   1.505   3.871
 6711SOL    HW220814   3.724   1.643   3.931
 6712SOL     OW20815   3.829   0.748   5.303
 6712SOL    HW120816   3.914   0.781   5.332
 6712SOL    HW220817   3.772   0.824   5.302
 6713SOL     OW20818   3.803   0.817   4.497
 6713SOL    HW120819   3.896   0.810   4.519
 6713SOL    HW220820   3.771   0.891   4.548
 6714SOL     OW20821   3.848   1.861   5.292
 6714SOL    HW120822   3.850   1.832   5.383
 6714SOL    HW220823   3.761   1.837   5.261
 6715SOL     OW20824   3.924   0.310   5.242
 6715SOL    HW120825   3.847   0.355   5.208
 6715SOL    HW220826   3.889   0.247   5.305
 6716SOL     OW20827   3.805   0.549   5.114
 6716SOL    HW120828   3.900   0.546   5.102
 6716SOL    HW220829   3.792   0.625   5.171
 6717SOL     OW20830   0.266   0.288   4.058
 6717SOL    HW120831   0.307   0.224   4.000
 6717SOL    HW220832   0.293   0.373   4.022
 6718SOL     OW20833   3.789   1.572   5.072
 6718SOL    HW120834   3.762   1.637   5.008
 6718SOL    HW220835   3.885   1.578   5.073
 6719SOL     OW20836   0.069   1.091   4.248
 6719SOL    HW120837   0.070   1.143   4.167
 6719SOL    HW220838   0.127   1.017   4.229
 6720SOL     OW20839   0.009   0.216   4.967
 6720SOL    HW120840   3.983   0.241   5.056
 6720SOL    HW220841   0.007   0.120   4.969
 6721SOL     OW20842   3.754   1.311   5.002
 6721SOL    HW120843   3.798   1.262   5.072
 6721SOL    HW220844   3.767   1.403   5.025
 6722SOL     OW20845   3.729   1.326   3.912
 6722SOL    HW120846   3.643   1.339   3.872
 6722SOL    HW220847   3.723   1.242   3.957
 6723SOL     OW20848   3.801   1.795   4.660
 6723SOL    HW120849   3.780   1.713   4.616
 6723SOL    HW220850   3.895   1.807   4.645
 6724SOL     OW20851   0.216   1.555   4.598
 6724SOL    HW120852   0.286   1.620   4.600
 6724SOL    HW220853   0.243   1.493   4.530
 6725SOL     OW20854   3.754   0.534   4.841
 6725SOL    HW120855   3.834   0.526   4.790
 6725SOL    HW220856   3.784   0.547   4.931
 6726SOL     OW20857   3.908   0.529   5.439
 6726SOL    HW120858   3.946   0.477   5.368
 6726SOL    HW220859   3.860   0.599   5.394
 6727SOL     OW20860   3.946   1.537   5.451
 6727SOL    HW120861   3.938   1.613   5.508
 6727SOL    HW220862   3.986   1.469   5.505
 6728SOL     OW20863   3.860   1.128   5.198
 6728SOL    HW120864   3.931   1.116   5.261
 6728SOL    HW220865   3.895   1.094   5.116
 6729SOL     OW20866   3.810   1.265   4.738
 6729SOL    HW120867   3.784   1.277   4.829
 6729SOL    HW220868   3.747   1.203   4.703
 6730SOL     OW20869   3.840   1.793   5.552
 6730SOL    HW120870   3.789   1.726   5.599
 6730SOL    HW220871   3.892   1.835   5.620
 6731SOL     OW20872   3.822   0.317   3.716
 6731SOL    HW120873   3.750   0.334   3.776
 6731SOL    HW220874   3.828   0.395   3.662
 6732SOL     OW20875   3.781   0.152   4.069
 6732SOL    HW120876   3.749   0.210   3.999
 6732SOL    HW220877   3.876   0.150   4.057
 6733SOL     OW20878   3.800   1.238   4.387
 6733SOL    HW120879   3.794   1.189   4.469
 6733SOL    HW220880   3.880   1.206   4.346
 6734SOL     OW20881   3.753   1.082   4.033
 6734SOL    HW120882   3.843   1.082   4.002
 6734SOL    HW220883   3.735   0.990   4.053
 6735SOL     OW20884   3.957   0.630   5.695
 6735SOL    HW120885   3.874   0.633   5.744
 6735SOL    HW220886   3.931   0.598   5.608
 6736SOL     OW20887   3.953   0.291   6.575
 6736SOL    HW120888   3.966   0.273   6.668
 6736SOL    HW220889   3.865   0.258   6.555
 6737SOL     OW20890   3.731   0.391   6.226
 6737SOL    HW120891   3.644   0.407   6.262
 6737SOL    HW220892   3.720   0.314   6.169
 6738SOL     OW20893   0.014   1.519   6.635
 6738SOL    HW120894   3.968   1.436   6.620
 6738SOL    HW220895   0.084   1.519   6.570
 6739SOL     OW20896   3.941   1.719   6.060
 6739SOL    HW120897   3.950   1.792   6.121
 6739SOL    HW220898   0.031   1.701   6.031
 6740SOL     OW20899   3.942   1.439   6.097
 6740SOL    HW120900   3.922   1.532   6.101
 6740SOL    HW220901   3.885   1.400   6.164
 6741SOL     OW20902   3.811   0.648   6.143
 6741SOL    HW120903   3.798   0.557   6.169
 6741SOL    HW220904   3.814   0.696   6.226
 6742SOL     OW20905   3.754   1.596   5.715
 6742SOL    HW120906   3.733   1.505   5.733
 6742SOL    HW220907   3.724   1.644   5.793
 6743SOL     OW20908   3.829   0.748   7.165
 6743SOL    HW120909   3.915   0.781   7.193
 6743SOL    HW220910   3.773   0.825   7.164
 6744SOL     OW20911   3.803   0.816   6.359
 6744SOL    HW120912   3.896   0.810   6.381
 6744SOL    HW220913   3.771   0.892   6.409
 6745SOL     OW20914   3.848   1.861   7.154
 6745SOL    HW120915   3.850   1.831   7.245
 6745SOL    HW220916   3.760   1.840   7.123
 6746SOL     OW20917   3.924   0.310   7.104
 6746SOL    HW120918   3.847   0.355   7.070
 6746SOL    HW220919   3.889   0.247   7.167
 6747SOL     OW20920   3.805   0.549   6.976
 6747SOL    HW120921   3.900   0.546   6.964
 6747SOL    HW220922   3.792   0.625   7.033
 6748SOL     OW20923   0.267   0.288   5.920
 6748SOL    HW120924   0.307   0.224   5.862
 6748SOL    HW220925   0.293   0.373   5.884
 6749SOL     OW20926   3.789   1.571   6.933
 6749SOL    HW120927   3.761   1.638   6.871
 6749SOL    HW220928   3.885   1.579   6.935
 6750SOL     OW20929   0.069   1.091   6.109
 6750SOL    HW120930   0.070   1.143   6.030
 6750SOL    HW220931   0.128   1.017   6.090
 6751SOL     OW20932   0.008   0.215   6.829
 6751SOL    HW120933   3.983   0.241   6.918
 6751SOL    HW220934   0.007   0.120   6.831
 6752SOL     OW20935   3.752   1.311   6.865
 6752SOL    HW120936   3.799   1.263   6.933
 6752SOL    HW220937   3.766   1.403   6.886
 6753SOL     OW20938   3.729   1.326   5.774
 6753SOL    HW120939   3.643   1.339   5.734
 6753SOL    HW220940   3.723   1.242   5.818
 6754SOL     OW20941   3.801   1.795   6.522
 6754SOL    HW120942   3.780   1.713   6.478
 6754SOL    HW220943   3.895   1.807   6.507
 6755SOL     OW20944   0.216   1.555   6.460
 6755SOL    HW120945   0.286   1.620   6.462
 6755SOL    HW220946   0.243   1.493   6.392
 6756SOL     OW20947   3.753   0.535   6.703
 6756SOL    HW120948   3.834   0.526   6.651
 6756SOL    HW220949   3.784   0.548   6.792
 6757SOL     OW20950   3.908   0.529   7.301
 6757SOL    HW120951   3.947   0.478   7.230
 6757SOL    HW220952   3.860   0.599   7.256
 6758SOL     OW20953   3.945   1.536   7.313
 6758SOL    HW120954   3.939   1.613   7.369
 6758SOL    HW220955   3.989   1.470   7.367
 6759SOL     OW20956   3.859   1.126   7.061
 6759SOL    HW120957   3.932   1.117   7.123
 6759SOL    HW220958   3.895   1.095   6.978
 6760SOL     OW20959   3.811   1.265   6.600
 6760SOL    HW120960   3.784   1.277   6.691
 6760SOL    HW220961   3.747   1.203   6.565
 6761SOL     OW20962   3.840   1.793   7.414
 6761SOL    HW120963   3.789   1.726   7.461
 6761SOL    HW220964   3.892   1.835   7.482
 6762SOL     OW20965   3.822   0.317   5.578
 6762SOL    HW120966   3.749   0.335   5.637
 6762SOL    HW220967   3.828   0.395   5.523
 6763SOL     OW20968   3.781   0.152   5.931
 6763SOL    HW120969   3.749   0.210   5.861
 6763SOL    HW220970   3.876   0.150   5.919
 6764SOL     OW20971   3.800   1.238   6.249
 6764SOL    HW120972   3.795   1.189   6.331
 6764SOL    HW220973   3.880   1.207   6.208
 6765SOL     OW20974   3.752   1.082   5.895
 6765SOL    HW120975   3.843   1.082   5.864
 6765SOL    HW220976   3.735   0.990   5.915
 6766SOL     OW20977   3.956   0.630   7.557
 6766SOL    HW120978   3.874   0.632   7.606
 6766SOL    HW220979   3.932   0.598   7.470
 6767SOL     OW20980   3.953   0.292   8.437
 6767SOL    HW120981   3.965   0.273   8.530
 6767SOL    HW220982   3.865   0.258   8.417
 6768SOL     OW20983   3.731   0.391   8.088
 6768SOL    HW120984   3.644   0.406   8.124
 6768SOL    HW220985   3.721   0.314   8.032
 6769SOL     OW20986   0.014   1.518   8.498
 6769SOL    HW120987   3.968   1.436   8.482
 6769SOL    HW220988   0.084   1.519   8.432
 6770SOL     OW20989   3.941   1.719   7.922
 6770SOL    HW120990   3.950   1.792   7.983
 6770SOL    HW220991   0.030   1.701   7.892
 6771SOL     OW20992   3.942   1.439   7.960
 6771SOL    HW120993   3.923   1.532   7.963
 6771SOL    HW220994   3.885   1.400   8.026
 6772SOL     OW20995   3.810   0.648   8.005
 6772SOL    HW120996   3.798   0.557   8.031
 6772SOL    HW220997   3.814   0.696   8.088
 6773SOL     OW20998   3.754   1.597   7.578
 6773SOL    HW120999   3.734   1.505   7.595
 6773SOL    HW221000   3.723   1.644   7.655
 6774SOL     OW21001   3.829   0.748   9.027
 6774SOL    HW121002   3.914   0.781   9.056
 6774SOL    HW221003   3.772   0.825   9.026
 6775SOL     OW21004   3.803   0.817   8.221
 6775SOL    HW121005   3.896   0.810   8.243
 6775SOL    HW221006   3.772   0.892   8.272
 6776SOL     OW21007   3.848   1.861   9.016
 6776SOL    HW121008   3.850   1.832   9.107
 6776SOL    HW221009   3.761   1.837   8.985
 6777SOL     OW21010   3.924   0.310   8.967
 6777SOL    HW121011   3.847   0.355   8.932
 6777SOL    HW221012   3.889   0.247   9.029
 6778SOL     OW21013   3.805   0.549   8.838
 6778SOL    HW121014   3.900   0.546   8.826
 6778SOL    HW221015   3.792   0.625   8.895
 6779SOL     OW21016   0.266   0.289   7.782
 6779SOL    HW121017   0.307   0.224   7.725
 6779SOL    HW221018   0.294   0.373   7.746
 6780SOL     OW21019   3.789   1.572   8.796
 6780SOL    HW121020   3.762   1.637   8.731
 6780SOL    HW221021   3.885   1.578   8.797
 6781SOL     OW21022   0.069   1.090   7.971
 6781SOL    HW121023   0.071   1.144   7.892
 6781SOL    HW221024   0.129   1.018   7.953
 6782SOL     OW21025   0.008   0.215   8.691
 6782SOL    HW121026   3.983   0.241   8.780
 6782SOL    HW221027   0.007   0.120   8.693
 6783SOL     OW21028   3.752   1.311   8.726
 6783SOL    HW121029   3.798   1.262   8.795
 6783SOL    HW221030   3.767   1.403   8.748
 6784SOL     OW21031   3.729   1.326   7.636
 6784SOL    HW121032   3.643   1.340   7.597
 6784SOL    HW221033   3.723   1.242   7.681
 6785SOL     OW21034   3.801   1.795   8.385
 6785SOL    HW121035   3.780   1.714   8.340
 6785SOL    HW221036   3.895   1.807   8.369
 6786SOL     OW21037   0.216   1.555   8.322
 6786SOL    HW121038   0.286   1.621   8.324
 6786SOL    HW221039   0.242   1.494   8.254
 6787SOL     OW21040   3.753   0.535   8.564
 6787SOL    HW121041   3.834   0.526   8.513
 6787SOL    HW221042   3.784   0.547   8.654
 6788SOL     OW21043   3.908   0.529   9.163
 6788SOL    HW121044   3.946   0.477   9.092
 6788SOL    HW221045   3.859   0.598   9.118
 6789SOL     OW21046   3.945   1.537   9.175
 6789SOL    HW121047   3.939   1.613   9.233
 6789SOL    HW221048   3.987   1.469   9.228
 6790SOL     OW21049   3.859   1.127   8.922
 6790SOL    HW121050   3.931   1.116   8.985
 6790SOL    HW221051   3.895   1.094   8.840
 6791SOL     OW21052   3.810   1.265   8.462
 6791SOL    HW121053   3.784   1.277   8.553
 6791SOL    HW221054   3.747   1.202   8.427
 6792SOL     OW21055   3.839   1.793   9.276
 6792SOL    HW121056   3.789   1.726   9.323
 6792SOL    HW221057   3.892   1.836   9.344
 6793SOL     OW21058   3.822   0.317   7.440
 6793SOL    HW121059   3.749   0.335   7.499
 6793SOL    HW221060   3.829   0.395   7.385
 6794SOL     OW21061   3.781   0.153   7.793
 6794SOL    HW121062   3.750   0.211   7.723
 6794SOL    HW221063   3.876   0.150   7.781
 6795SOL     OW21064   3.799   1.238   8.111
 6795SOL    HW121065   3.795   1.189   8.193
 6795SOL    HW221066   3.880   1.207   8.069
 6796SOL     OW21067   3.752   1.081   7.757
 6796SOL    HW121068   3.843   1.082   7.726
 6796SOL    HW221069   3.735   0.989   7.777
 6797SOL     OW21070   3.956   0.630   9.419
 6797SOL    HW121071   3.874   0.632   9.468
 6797SOL    HW221072   3.931   0.598   9.332
 6798SOL     OW21073   3.953   0.291  10.299
 6798SOL    HW121074   3.965   0.273  10.392
 6798SOL    HW221075   3.865   0.258  10.279
 6799SOL     OW21076   3.731   0.391   9.950
 6799SOL    HW121077   3.644   0.407   9.986
 6799SOL    HW221078   3.720   0.314   9.894
 6800SOL     OW21079   0.014   1.519  10.359
 6800SOL    HW121080   3.968   1.436  10.345
 6800SOL    HW221081   0.084   1.519  10.294
 6801SOL     OW21082   3.941   1.719   9.784
 6801SOL    HW121083   3.950   1.792   9.845
 6801SOL    HW221084   0.030   1.701   9.755
 6802SOL     OW21085   3.942   1.439   9.821
 6802SOL    HW121086   3.922   1.532   9.825
 6802SOL    HW221087   3.885   1.399   9.888
 6803SOL     OW21088   3.811   0.648   9.867
 6803SOL    HW121089   3.797   0.557   9.893
 6803SOL    HW221090   3.814   0.696   9.950
 6804SOL     OW21091   3.753   1.597   9.439
 6804SOL    HW121092   3.734   1.505   9.457
 6804SOL    HW221093   3.724   1.643   9.517
 6805SOL     OW21094   3.829   0.748  10.889
 6805SOL    HW121095   3.914   0.781  10.918
 6805SOL    HW221096   3.772   0.824  10.888
 6806SOL     OW21097   3.803   0.817  10.083
 6806SOL    HW121098   3.896   0.810  10.105
 6806SOL    HW221099   3.771   0.892  10.134
 6807SOL     OW21100   3.848   1.862  10.878
 6807SOL    HW121101   3.850   1.832  10.969
 6807SOL    HW221102   3.761   1.837  10.847
 6808SOL     OW21103   3.924   0.310  10.828
 6808SOL    HW121104   3.847   0.355  10.794
 6808SOL    HW221105   3.889   0.247  10.891
 6809SOL     OW21106   3.805   0.549  10.700
 6809SOL    HW121107   3.900   0.546  10.688
 6809SOL    HW221108   3.792   0.625  10.757
 6810SOL     OW21109   0.266   0.289   9.644
 6810SOL    HW121110   0.307   0.224   9.587
 6810SOL    HW221111   0.294   0.373   9.608
 6811SOL     OW21112   3.789   1.572  10.658
 6811SOL    HW121113   3.762   1.637  10.593
 6811SOL    HW221114   3.885   1.578  10.659
 6812SOL     OW21115   0.069   1.091   9.834
 6812SOL    HW121116   0.070   1.143   9.753
 6812SOL    HW221117   0.127   1.017   9.815
 6813SOL     OW21118   0.008   0.216  10.553
 6813SOL    HW121119   3.983   0.241  10.642
 6813SOL    HW221120   0.007   0.120  10.555
 6814SOL     OW21121   3.753   1.311  10.588
 6814SOL    HW121122   3.798   1.262  10.658
 6814SOL    HW221123   3.767   1.403  10.611
 6815SOL     OW21124   3.729   1.327   9.498
 6815SOL    HW121125   3.643   1.339   9.458
 6815SOL    HW221126   3.723   1.242   9.543
 6816SOL     OW21127   3.801   1.795  10.246
 6816SOL    HW121128   3.780   1.713  10.202
 6816SOL    HW221129   3.895   1.807  10.231
 6817SOL     OW21130   0.216   1.555  10.184
 6817SOL    HW121131   0.286   1.620  10.186
 6817SOL    HW221132   0.243   1.493  10.116
 6818SOL     OW21133   3.754   0.535  10.427
 6818SOL    HW121134   3.834   0.526  10.376
 6818SOL    HW221135   3.783   0.547  10.517
 6819SOL     OW21136   3.908   0.529  11.025
 6819SOL    HW121137   3.946   0.477  10.954
 6819SOL    HW221138   3.859   0.598  10.980
 6820SOL     OW21139   3.945   1.537  11.037
 6820SOL    HW121140   3.939   1.613  11.095
 6820SOL    HW221141   3.987   1.469  11.090
 6821SOL     OW21142   3.859   1.128  10.784
 6821SOL    HW121143   3.931   1.116  10.847
 6821SOL    HW221144   3.895   1.094  10.702
 6822SOL     OW21145   3.810   1.265  10.324
 6822SOL    HW121146   3.784   1.277  10.415
 6822SOL    HW221147   3.747   1.203  10.289
 6823SOL     OW21148   3.839   1.793  11.138
 6823SOL    HW121149   3.789   1.726  11.185
 6823SOL    HW221150   3.892   1.836  11.206
 6824SOL     OW21151   3.822   0.317   9.302
 6824SOL    HW121152   3.750   0.335   9.362
 6824SOL    HW221153   3.828   0.395   9.248
 6825SOL     OW21154   3.781   0.152   9.655
 6825SOL    HW121155   3.749   0.210   9.585
 6825SOL    HW221156   3.876   0.150   9.643
 6826SOL     OW21157   3.800   1.238   9.974
 6826SOL    HW121158   3.794   1.188  10.055
 6826SOL    HW221159   3.880   1.206   9.932
 6827SOL     OW21160   3.753   1.082   9.619
 6827SOL    HW121161   3.843   1.082   9.588
 6827SOL    HW221162   3.735   0.990   9.639
 6828SOL     OW21163   3.956   0.630  11.281
 6828SOL    HW121164   3.874   0.633  11.330
 6828SOL    HW221165   3.931   0.598  11.194
 6829SOL     OW21166   3.953   0.291  12.161
 6829SOL    HW121167   3.966   0.273  12.254
 6829SOL    HW221168   3.866   0.258  12.141
 6830SOL     OW21169   3.731   0.391  11.812
 6830SOL    HW121170   3.644   0.407  11.848
 6830SOL    HW221171   3.720   0.314  11.755
 6831SOL     OW21172   0.014   1.519  12.221
 6831SOL    HW121173   3.968   1.436  12.207
 6831SOL    HW221174   0.084   1.519  12.156
 6832SOL     OW21175   3.941   1.719  11.645
 6832SOL    HW121176   3.950   1.792  11.707
 6832SOL    HW221177   0.030   1.701  11.617
 6833SOL     OW21178   3.942   1.439  11.683
 6833SOL    HW121179   3.922   1.532  11.687
 6833SOL    HW221180   3.885   1.399  11.750
 6834SOL     OW21181   3.811   0.648  11.729
 6834SOL    HW121182   3.797   0.557  11.755
 6834SOL    HW221183   3.814   0.696  11.812
 6835SOL     OW21184   3.753   1.597  11.301
 6835SOL    HW121185   3.733   1.505  11.319
 6835SOL    HW221186   3.724   1.643  11.379
 6836SOL     OW21187   3.829   0.748  12.751
 6836SOL    HW121188   3.914   0.781  12.780
 6836SOL    HW221189   3.772   0.825  12.749
 6837SOL     OW21190   3.803   0.817  11.945
 6837SOL    HW121191   3.896   0.810  11.967
 6837SOL    HW221192   3.771   0.891  11.996
 6838SOL     OW21193   3.848   1.862  12.741
 6838SOL    HW121194   3.850   1.832  12.832
 6838SOL    HW221195   3.761   1.837  12.710
 6839SOL     OW21196   3.924   0.310  12.691
 6839SOL    HW121197   3.847   0.355  12.655
 6839SOL    HW221198   3.888   0.246  12.753
 6840SOL     OW21199   3.805   0.549  12.562
 6840SOL    HW121200   3.900   0.546  12.550
 6840SOL    HW221201   3.792   0.625  12.619
 6841SOL     OW21202   0.266   0.289  11.506
 6841SOL    HW121203   0.307   0.224  11.448
 6841SOL    HW221204   0.293   0.373  11.470
 6842SOL     OW21205   3.789   1.572  12.520
 6842SOL    HW121206   3.762   1.637  12.455
 6842SOL    HW221207   3.885   1.578  12.521
 6843SOL     OW21208   0.069   1.091  11.696
 6843SOL    HW121209   0.070   1.143  11.615
 6843SOL    HW221210   0.127   1.017  11.677
 6844SOL     OW21211   0.009   0.215  12.415
 6844SOL    HW121212   3.983   0.241  12.504
 6844SOL    HW221213   0.007   0.120  12.417
 6845SOL     OW21214   3.753   1.311  12.450
 6845SOL    HW121215   3.798   1.262  12.520
 6845SOL    HW221216   3.767   1.403  12.473
 6846SOL     OW21217   3.729   1.326  11.360
 6846SOL    HW121218   3.643   1.339  11.320
 6846SOL    HW221219   3.723   1.242  11.405
 6847SOL     OW21220   3.801   1.795  12.108
 6847SOL    HW121221   3.780   1.713  12.064
 6847SOL    HW221222   3.895   1.807  12.093
 6848SOL     OW21223   0.216   1.555  12.046
 6848SOL    HW121224   0.286   1.620  12.048
 6848SOL    HW221225   0.243   1.493  11.978
 6849SOL     OW21226   3.753   0.534  12.289
 6849SOL    HW121227   3.834   0.526  12.238
 6849SOL    HW221228   3.784   0.547  12.379
 6850SOL     OW21229   3.909   0.530  12.887
 6850SOL    HW121230   3.946   0.477  12.816
 6850SOL    HW221231   3.860   0.599  12.842
 6851SOL     OW21232   3.945   1.537  12.899
 6851SOL    HW121233   3.939   1.613  12.957
 6851SOL    HW221234   3.986   1.469  12.953
 6852SOL     OW21235   3.860   1.128  12.646
 6852SOL    HW121236   3.931   1.116  12.709
 6852SOL    HW221237   3.895   1.094  12.564
 6853SOL     OW21238   3.810   1.265  12.186
 6853SOL    HW121239   3.784   1.277  12.277
 6853SOL    HW221240   3.747   1.203  12.150
 6854SOL     OW21241   3.840   1.793  13.001
 6854SOL    HW121242   3.790   1.727  13.048
 6854SOL    HW221243   3.892   1.836  13.069
 6855SOL     OW21244   3.822   0.317  11.164
 6855SOL    HW121245   3.750   0.334  11.224
 6855SOL    HW221246   3.828   0.395  11.110
 6856SOL     OW21247   3.781   0.152  11.517
 6856SOL    HW121248   3.749   0.210  11.447
 6856SOL    HW221249   3.876   0.150  11.505
 6857SOL     OW21250   3.800   1.238  11.836
 6857SOL    HW121251   3.794   1.188  11.917
 6857SOL    HW221252   3.880   1.206  11.794
 6858SOL     OW21253   3.753   1.082  11.481
 6858SOL    HW121254   3.843   1.082  11.450
 6858SOL    HW221255   3.735   0.990  11.501
 6859SOL     OW21256   3.955   0.629  13.144
 6859SOL    HW121257   3.871   0.633  13.190
 6859SOL    HW221258   3.933   0.597  13.057
 6860SOL     OW21259   3.722   0.391  13.648
 6860SOL    HW121260   3.632   0.409  13.676
 6860SOL    HW221261   3.721   0.300  13.618
 6861SOL     OW21262   3.941   1.716  13.503
 6861SOL    HW121263   3.945   1.792  13.561
 6861SOL    HW221264   0.033   1.699  13.480
 6862SOL     OW21265   3.942   1.436  13.544
 6862SOL    HW121266   3.924   1.530  13.548
 6862SOL    HW221267   3.884   1.398  13.610
 6863SOL     OW21268   3.949   1.090  13.900
 6863SOL    HW121269   3.982   1.044   0.077
 6863SOL    HW221270   3.876   1.142   0.033
 6864SOL     OW21271   3.827   0.649  13.593
 6864SOL    HW121272   3.784   0.565  13.610
 6864SOL    HW221273   3.816   0.698  13.674
 6865SOL     OW21274   3.752   1.597  13.162
 6865SOL    HW121275   3.733   1.505  13.181
 6865SOL    HW221276   3.723   1.643  13.241
 6866SOL     OW21277   3.798   0.809  13.812
 6866SOL    HW121278   3.892   0.814  13.830
 6866SOL    HW221279   3.763   0.889  13.850
 6867SOL     OW21280   0.098   1.809  13.880
 6867SOL    HW121281   0.057   1.734   0.023
 6867SOL    HW221282   0.168   1.836   0.039
 6868SOL     OW21283   0.266   0.292  13.369
 6868SOL    HW121284   0.308   0.223  13.318
 6868SOL    HW221285   0.299   0.373  13.331
 6869SOL     OW21286   0.071   1.089  13.553
 6869SOL    HW121287   0.071   1.146  13.476
 6869SOL    HW221288   0.132   1.018  13.530
 6870SOL     OW21289   3.729   1.327  13.221
 6870SOL    HW121290   3.643   1.340  13.182
 6870SOL    HW221291   3.723   1.243  13.267
 6871SOL     OW21292   0.310   1.534   0.026
 6871SOL    HW121293   0.269   1.619   0.037
 6871SOL    HW221294   0.254   1.488  13.864
 6872SOL     OW21295   3.822   0.317  13.026
 6872SOL    HW121296   3.749   0.334  13.085
 6872SOL    HW221297   3.828   0.396  12.971
 6873SOL     OW21298   3.789   0.154  13.375
 6873SOL    HW121299   3.755   0.211  13.306
 6873SOL    HW221300   3.883   0.151  13.359
 6874SOL     OW21301   3.807   1.235  13.695
 6874SOL    HW121302   3.796   1.172  13.766
 6874SOL    HW221303   3.885   1.205  13.648
 6875SOL     OW21304   3.753   1.081  13.342
 6875SOL    HW121305   3.843   1.082  13.310
 6875SOL    HW221306   3.736   0.989  13.362
 6876SOL     OW21307   3.955   2.496   0.126
 6876SOL    HW121308   3.879   2.491   0.185
 6876SOL    HW221309   3.927   2.448   0.048
 6877SOL     OW21310   3.960   2.126   0.985
 6877SOL    HW121311   3.967   2.123   1.081
 6877SOL    HW221312   3.867   2.111   0.968
 6878SOL     OW21313   3.727   2.245   0.636
 6878SOL    HW121314   3.646   2.266   0.682
 6878SOL    HW221315   3.709   2.161   0.593
 6879SOL     OW21316   0.014   3.378   1.050
 6879SOL    HW121317   3.968   3.296   1.031
 6879SOL    HW221318   0.084   3.383   0.985
 6880SOL     OW21319   3.940   3.577   0.478
 6880SOL    HW121320   3.956   3.651   0.538
 6880SOL    HW221321   0.025   3.563   0.435
 6881SOL     OW21322   3.935   3.299   0.509
 6881SOL    HW121323   3.927   3.394   0.514
 6881SOL    HW221324   3.883   3.266   0.583
 6882SOL     OW21325   3.818   2.504   0.558
 6882SOL    HW121326   3.789   2.416   0.583
 6882SOL    HW221327   3.814   2.554   0.640
 6883SOL     OW21328   3.732   3.472   0.111
 6883SOL    HW121329   3.727   3.379   0.134
 6883SOL    HW221330   3.708   3.517   0.192
 6884SOL     OW21331   3.830   2.603   1.583
 6884SOL    HW121332   3.915   2.635   1.613
 6884SOL    HW221333   3.774   2.680   1.582
 6885SOL     OW21334   3.803   2.678   0.770
 6885SOL    HW121335   3.895   2.673   0.794
 6885SOL    HW221336   3.769   2.752   0.821
 6886SOL     OW21337   3.849   3.715   1.567
 6886SOL    HW121338   3.851   3.688   1.659
 6886SOL    HW221339   3.758   3.703   1.540
 6887SOL     OW21340   3.925   2.158   1.514
 6887SOL    HW121341   3.844   2.199   1.486
 6887SOL    HW221342   3.897   2.077   1.558
 6888SOL     OW21343   3.806   2.412   1.389
 6888SOL    HW121344   3.901   2.407   1.378
 6888SOL    HW221345   3.792   2.486   1.448
 6889SOL     OW21346   3.789   3.434   1.347
 6889SOL    HW121347   3.763   3.501   1.285
 6889SOL    HW221348   3.885   3.440   1.351
 6890SOL     OW21349   0.071   2.951   0.527
 6890SOL    HW121350   0.084   3.016   0.458
 6890SOL    HW221351   0.142   2.888   0.515
 6891SOL     OW21352   0.010   2.075   1.249
 6891SOL    HW121353   3.981   2.104   1.335
 6891SOL    HW221354   0.010   1.979   1.254
 6892SOL     OW21355   3.753   3.173   1.278
 6892SOL    HW121356   3.798   3.124   1.347
 6892SOL    HW221357   3.767   3.265   1.300
 6893SOL     OW21358   0.000   1.921   0.651
 6893SOL    HW121359   0.021   2.013   0.667
 6893SOL    HW221360   0.022   1.877   0.734
 6894SOL     OW21361   3.739   3.178   0.175
 6894SOL    HW121362   3.657   3.189   0.127
 6894SOL    HW221363   3.729   3.094   0.220
 6895SOL     OW21364   3.803   3.654   0.936
 6895SOL    HW121365   3.782   3.572   0.891
 6895SOL    HW221366   3.897   3.665   0.923
 6896SOL     OW21367   0.216   3.420   0.875
 6896SOL    HW121368   0.277   3.494   0.872
 6896SOL    HW221369   0.248   3.360   0.808
 6897SOL     OW21370   3.756   2.400   1.117
 6897SOL    HW121371   3.840   2.394   1.071
 6897SOL    HW221372   3.780   2.409   1.209
 6898SOL     OW21373   3.904   2.378   1.722
 6898SOL    HW121374   3.935   2.321   1.652
 6898SOL    HW221375   3.856   2.448   1.676
 6899SOL     OW21376   3.944   3.397   1.727
 6899SOL    HW121377   3.939   3.476   1.782
 6899SOL    HW221378   3.988   3.333   1.783
 6900SOL     OW21379   3.859   2.989   1.474
 6900SOL    HW121380   3.930   2.978   1.538
 6900SOL    HW221381   3.896   2.958   1.392
 6901SOL     OW21382   3.810   3.126   1.013
 6901SOL    HW121383   3.785   3.139   1.105
 6901SOL    HW221384   3.746   3.064   0.979
 6902SOL     OW21385   3.839   3.653   1.828
 6902SOL    HW121386   3.790   3.587   1.876
 6902SOL    HW221387   3.889   3.700   1.895
 6903SOL     OW21388   3.781   2.268   0.028
 6903SOL    HW121389   3.742   2.185   0.057
 6903SOL    HW221390   3.762   2.271  13.835
 6904SOL     OW21391   3.789   2.023   0.347
 6904SOL    HW121392   3.765   2.055   0.261
 6904SOL    HW221393   3.884   2.020   0.346
 6905SOL     OW21394   3.799   3.097   0.663
 6905SOL    HW121395   3.795   3.050   0.746
 6905SOL    HW221396   3.884   3.073   0.626
 6906SOL     OW21397   3.751   2.938   0.307
 6906SOL    HW121398   3.847   2.942   0.301
 6906SOL    HW221399   3.732   2.847   0.328
 6907SOL     OW21400   3.955   2.494   1.972
 6907SOL    HW121401   3.873   2.491   2.022
 6907SOL    HW221402   3.932   2.456   1.887
 6908SOL     OW21403   3.960   2.125   2.847
 6908SOL    HW121404   3.967   2.123   2.943
 6908SOL    HW221405   3.867   2.111   2.830
 6909SOL     OW21406   3.726   2.242   2.498
 6909SOL    HW121407   3.646   2.267   2.544
 6909SOL    HW221408   3.706   2.158   2.457
 6910SOL     OW21409   0.013   3.379   2.911
 6910SOL    HW121410   3.969   3.296   2.895
 6910SOL    HW221411   0.084   3.382   2.847
 6911SOL     OW21412   3.941   3.583   2.337
 6911SOL    HW121413   3.954   3.655   2.397
 6911SOL    HW221414   0.029   3.562   2.304
 6912SOL     OW21415   3.940   3.301   2.372
 6912SOL    HW121416   3.924   3.395   2.379
 6912SOL    HW221417   3.885   3.262   2.440
 6913SOL     OW21418   3.819   2.504   2.421
 6913SOL    HW121419   3.790   2.416   2.445
 6913SOL    HW221420   3.815   2.554   2.503
 6914SOL     OW21421   3.751   3.459   1.991
 6914SOL    HW121422   3.733   3.367   2.009
 6914SOL    HW221423   3.723   3.504   2.071
 6915SOL     OW21424   3.830   2.603   3.445
 6915SOL    HW121425   3.915   2.635   3.475
 6915SOL    HW221426   3.774   2.680   3.444
 6916SOL     OW21427   3.803   2.677   2.634
 6916SOL    HW121428   3.896   2.672   2.656
 6916SOL    HW221429   3.770   2.752   2.684
 6917SOL     OW21430   3.849   3.715   3.429
 6917SOL    HW121431   3.851   3.688   3.521
 6917SOL    HW221432   3.758   3.703   3.403
 6918SOL     OW21433   3.925   2.158   3.376
 6918SOL    HW121434   3.844   2.199   3.348
 6918SOL    HW221435   3.897   2.077   3.420
 6919SOL     OW21436   0.002   1.881   2.025
 6919SOL    HW121437   0.031   1.971   2.011
 6919SOL    HW221438   0.068   1.843   2.083
 6920SOL     OW21439   3.806   2.412   3.251
 6920SOL    HW121440   3.901   2.407   3.240
 6920SOL    HW221441   3.792   2.486   3.310
 6921SOL     OW21442   0.281   2.148   2.188
 6921SOL    HW121443   0.298   2.079   2.124
 6921SOL    HW221444   0.299   2.229   2.141
 6922SOL     OW21445   3.790   3.433   3.209
 6922SOL    HW121446   3.763   3.501   3.147
 6922SOL    HW221447   3.885   3.440   3.213
 6923SOL     OW21448   0.069   2.951   2.385
 6923SOL    HW121449   0.070   3.006   2.307
 6923SOL    HW221450   0.131   2.880   2.365
 6924SOL     OW21451   0.010   2.075   3.111
 6924SOL    HW121452   3.981   2.104   3.198
 6924SOL    HW221453   0.010   1.979   3.116
 6925SOL     OW21454   3.753   3.173   3.140
 6925SOL    HW121455   3.798   3.124   3.209
 6925SOL    HW221456   3.767   3.265   3.162
 6926SOL     OW21457   0.003   1.919   2.512
 6926SOL    HW121458   0.019   2.012   2.526
 6926SOL    HW221459   0.023   1.878   2.597
 6927SOL     OW21460   3.729   3.188   2.050
 6927SOL    HW121461   3.643   3.201   2.011
 6927SOL    HW221462   3.723   3.104   2.095
 6928SOL     OW21463   3.803   3.654   2.798
 6928SOL    HW121464   3.782   3.572   2.754
 6928SOL    HW221465   3.897   3.665   2.785
 6929SOL     OW21466   0.216   3.420   2.737
 6929SOL    HW121467   0.278   3.493   2.733
 6929SOL    HW221468   0.248   3.358   2.671
 6930SOL     OW21469   3.756   2.400   2.979
 6930SOL    HW121470   3.839   2.394   2.933
 6930SOL    HW221471   3.780   2.409   3.071
 6931SOL     OW21472   3.904   2.378   3.584
 6931SOL    HW121473   3.935   2.321   3.514
 6931SOL    HW221474   3.856   2.448   3.538
 6932SOL     OW21475   3.944   3.397   3.589
 6932SOL    HW121476   3.939   3.476   3.644
 6932SOL    HW221477   3.988   3.332   3.645
 6933SOL     OW21478   3.859   2.990   3.336
 6933SOL    HW121479   3.930   2.978   3.400
 6933SOL    HW221480   3.896   2.957   3.254
 6934SOL     OW21481   3.810   3.127   2.875
 6934SOL    HW121482   3.784   3.139   2.967
 6934SOL    HW221483   3.746   3.064   2.841
 6935SOL     OW21484   3.839   3.653   3.690
 6935SOL    HW121485   3.790   3.587   3.738
 6935SOL    HW221486   3.889   3.700   3.757
 6936SOL     OW21487   3.801   2.200   1.903
 6936SOL    HW121488   3.717   2.165   1.874
 6936SOL    HW221489   3.821   2.270   1.841
 6937SOL     OW21490   3.767   2.021   2.175
 6937SOL    HW121491   3.758   2.091   2.111
 6937SOL    HW221492   3.860   2.021   2.198
 6938SOL     OW21493   3.800   3.100   2.526
 6938SOL    HW121494   3.794   3.051   2.608
 6938SOL    HW221495   3.880   3.069   2.484
 6939SOL     OW21496   3.752   2.942   2.171
 6939SOL    HW121497   3.843   2.943   2.140
 6939SOL    HW221498   3.734   2.850   2.191
 6940SOL     OW21499   3.955   2.494   3.834
 6940SOL    HW121500   3.873   2.491   3.884
 6940SOL    HW221501   3.932   2.456   3.749
 6941SOL     OW21502   3.960   2.125   4.709
 6941SOL    HW121503   3.967   2.123   4.805
 6941SOL    HW221504   3.867   2.111   4.692
 6942SOL     OW21505   3.726   2.242   4.360
 6942SOL    HW121506   3.646   2.267   4.406
 6942SOL    HW221507   3.706   2.158   4.319
 6943SOL     OW21508   0.013   3.379   4.774
 6943SOL    HW121509   3.969   3.296   4.757
 6943SOL    HW221510   0.084   3.382   4.709
 6944SOL     OW21511   3.941   3.583   4.199
 6944SOL    HW121512   3.954   3.655   4.259
 6944SOL    HW221513   0.029   3.562   4.166
 6945SOL     OW21514   3.940   3.301   4.234
 6945SOL    HW121515   3.924   3.395   4.241
 6945SOL    HW221516   3.886   3.262   4.302
 6946SOL     OW21517   3.819   2.504   4.283
 6946SOL    HW121518   3.790   2.416   4.307
 6946SOL    HW221519   3.815   2.554   4.365
 6947SOL     OW21520   3.751   3.459   3.853
 6947SOL    HW121521   3.733   3.367   3.871
 6947SOL    HW221522   3.723   3.504   3.933
 6948SOL     OW21523   3.830   2.603   5.307
 6948SOL    HW121524   3.914   2.635   5.337
 6948SOL    HW221525   3.773   2.680   5.306
 6949SOL     OW21526   3.803   2.677   4.495
 6949SOL    HW121527   3.896   2.672   4.518
 6949SOL    HW221528   3.770   2.752   4.546
 6950SOL     OW21529   3.849   3.715   5.291
 6950SOL    HW121530   3.851   3.688   5.383
 6950SOL    HW221531   3.759   3.702   5.264
 6951SOL     OW21532   3.925   2.158   5.238
 6951SOL    HW121533   3.843   2.199   5.209
 6951SOL    HW221534   3.897   2.077   5.282
 6952SOL     OW21535   0.002   1.881   3.887
 6952SOL    HW121536   0.031   1.971   3.873
 6952SOL    HW221537   0.068   1.843   3.945
 6953SOL     OW21538   3.806   2.412   5.112
 6953SOL    HW121539   3.901   2.407   5.102
 6953SOL    HW221540   3.792   2.486   5.172
 6954SOL     OW21541   0.281   2.148   4.050
 6954SOL    HW121542   0.298   2.079   3.986
 6954SOL    HW221543   0.299   2.229   4.003
 6955SOL     OW21544   3.790   3.434   5.071
 6955SOL    HW121545   3.763   3.501   5.009
 6955SOL    HW221546   3.885   3.440   5.075
 6956SOL     OW21547   0.069   2.951   4.247
 6956SOL    HW121548   0.070   3.006   4.169
 6956SOL    HW221549   0.130   2.880   4.227
 6957SOL     OW21550   0.010   2.075   4.973
 6957SOL    HW121551   3.981   2.104   5.060
 6957SOL    HW221552   0.009   1.980   4.978
 6958SOL     OW21553   3.753   3.173   5.002
 6958SOL    HW121554   3.798   3.124   5.072
 6958SOL    HW221555   3.767   3.265   5.024
 6959SOL     OW21556   0.003   1.919   4.374
 6959SOL    HW121557   0.019   2.012   4.388
 6959SOL    HW221558   0.023   1.878   4.459
 6960SOL     OW21559   3.729   3.188   3.912
 6960SOL    HW121560   3.643   3.201   3.873
 6960SOL    HW221561   3.723   3.104   3.957
 6961SOL     OW21562   3.803   3.654   4.660
 6961SOL    HW121563   3.782   3.572   4.616
 6961SOL    HW221564   3.897   3.665   4.647
 6962SOL     OW21565   0.216   3.420   4.599
 6962SOL    HW121566   0.278   3.493   4.595
 6962SOL    HW221567   0.248   3.358   4.533
 6963SOL     OW21568   3.756   2.400   4.841
 6963SOL    HW121569   3.839   2.394   4.795
 6963SOL    HW221570   3.780   2.409   4.933
 6964SOL     OW21571   3.904   2.378   5.446
 6964SOL    HW121572   3.935   2.320   5.376
 6964SOL    HW221573   3.856   2.447   5.400
 6965SOL     OW21574   3.945   3.397   5.451
 6965SOL    HW121575   3.939   3.476   5.506
 6965SOL    HW221576   3.987   3.332   5.507
 6966SOL     OW21577   3.859   2.990   5.198
 6966SOL    HW121578   3.930   2.978   5.262
 6966SOL    HW221579   3.895   2.957   5.116
 6967SOL     OW21580   3.810   3.127   4.737
 6967SOL    HW121581   3.784   3.139   4.829
 6967SOL    HW221582   3.746   3.064   4.703
 6968SOL     OW21583   3.839   3.653   5.552
 6968SOL    HW121584   3.790   3.587   5.600
 6968SOL    HW221585   3.889   3.700   5.619
 6969SOL     OW21586   3.801   2.200   3.765
 6969SOL    HW121587   3.717   2.165   3.736
 6969SOL    HW221588   3.821   2.270   3.703
 6970SOL     OW21589   3.767   2.021   4.037
 6970SOL    HW121590   3.758   2.091   3.973
 6970SOL    HW221591   3.860   2.021   4.060
 6971SOL     OW21592   3.800   3.100   4.388
 6971SOL    HW121593   3.794   3.051   4.470
 6971SOL    HW221594   3.880   3.069   4.346
 6972SOL     OW21595   3.752   2.942   4.033
 6972SOL    HW121596   3.843   2.943   4.002
 6972SOL    HW221597   3.734   2.850   4.053
 6973SOL     OW21598   3.955   2.494   5.696
 6973SOL    HW121599   3.873   2.491   5.745
 6973SOL    HW221600   3.932   2.456   5.611
 6974SOL     OW21601   3.960   2.125   6.572
 6974SOL    HW121602   3.967   2.123   6.667
 6974SOL    HW221603   3.867   2.111   6.554
 6975SOL     OW21604   3.726   2.242   6.222
 6975SOL    HW121605   3.647   2.266   6.269
 6975SOL    HW221606   3.706   2.158   6.181
 6976SOL     OW21607   0.013   3.379   6.636
 6976SOL    HW121608   3.969   3.296   6.619
 6976SOL    HW221609   0.084   3.382   6.571
 6977SOL     OW21610   3.941   3.583   6.061
 6977SOL    HW121611   3.954   3.655   6.121
 6977SOL    HW221612   0.028   3.562   6.028
 6978SOL     OW21613   3.940   3.301   6.096
 6978SOL    HW121614   3.924   3.395   6.103
 6978SOL    HW221615   3.886   3.262   6.164
 6979SOL     OW21616   3.820   2.504   6.145
 6979SOL    HW121617   3.790   2.416   6.169
 6979SOL    HW221618   3.815   2.554   6.227
 6980SOL     OW21619   3.751   3.459   5.716
 6980SOL    HW121620   3.733   3.367   5.733
 6980SOL    HW221621   3.723   3.504   5.795
 6981SOL     OW21622   3.830   2.603   7.169
 6981SOL    HW121623   3.914   2.635   7.200
 6981SOL    HW221624   3.773   2.680   7.168
 6982SOL     OW21625   3.802   2.677   6.358
 6982SOL    HW121626   3.895   2.672   6.380
 6982SOL    HW221627   3.770   2.752   6.408
 6983SOL     OW21628   3.849   3.716   7.154
 6983SOL    HW121629   3.851   3.689   7.245
 6983SOL    HW221630   3.759   3.701   7.126
 6984SOL     OW21631   3.924   2.158   7.100
 6984SOL    HW121632   3.843   2.199   7.071
 6984SOL    HW221633   3.897   2.078   7.144
 6985SOL     OW21634   0.002   1.881   5.749
 6985SOL    HW121635   0.032   1.971   5.734
 6985SOL    HW221636   0.068   1.843   5.807
 6986SOL     OW21637   3.806   2.412   6.974
 6986SOL    HW121638   3.901   2.407   6.964
 6986SOL    HW221639   3.792   2.485   7.034
 6987SOL     OW21640   0.282   2.148   5.912
 6987SOL    HW121641   0.298   2.078   5.849
 6987SOL    HW221642   0.297   2.229   5.864
 6988SOL     OW21643   3.790   3.434   6.934
 6988SOL    HW121644   3.763   3.501   6.870
 6988SOL    HW221645   3.885   3.440   6.937
 6989SOL     OW21646   0.070   2.951   6.109
 6989SOL    HW121647   0.070   3.006   6.031
 6989SOL    HW221648   0.130   2.880   6.089
 6990SOL     OW21649   0.012   2.075   6.836
 6990SOL    HW121650   3.980   2.104   6.921
 6990SOL    HW221651   0.008   1.980   6.840
 6991SOL     OW21652   3.754   3.173   6.864
 6991SOL    HW121653   3.797   3.124   6.934
 6991SOL    HW221654   3.767   3.265   6.886
 6992SOL     OW21655   0.002   1.919   6.236
 6992SOL    HW121656   0.018   2.012   6.250
 6992SOL    HW221657   0.023   1.878   6.321
 6993SOL     OW21658   3.729   3.188   5.774
 6993SOL    HW121659   3.643   3.201   5.735
 6993SOL    HW221660   3.723   3.104   5.819
 6994SOL     OW21661   3.803   3.654   6.522
 6994SOL    HW121662   3.782   3.572   6.478
 6994SOL    HW221663   3.897   3.665   6.509
 6995SOL     OW21664   0.216   3.420   6.461
 6995SOL    HW121665   0.278   3.493   6.457
 6995SOL    HW221666   0.248   3.358   6.395
 6996SOL     OW21667   3.756   2.401   6.702
 6996SOL    HW121668   3.840   2.394   6.657
 6996SOL    HW221669   3.780   2.409   6.795
 6997SOL     OW21670   3.905   2.378   7.308
 6997SOL    HW121671   3.934   2.320   7.238
 6997SOL    HW221672   3.855   2.447   7.263
 6998SOL     OW21673   3.945   3.398   7.313
 6998SOL    HW121674   3.939   3.475   7.369
 6998SOL    HW221675   3.988   3.332   7.368
 6999SOL     OW21676   3.859   2.991   7.060
 6999SOL    HW121677   3.929   2.978   7.124
 6999SOL    HW221678   3.895   2.957   6.978
 7000SOL     OW21679   3.810   3.127   6.599
 7000SOL    HW121680   3.785   3.139   6.691
 7000SOL    HW221681   3.746   3.064   6.565
 7001SOL     OW21682   3.839   3.653   7.414
 7001SOL    HW121683   3.790   3.587   7.462
 7001SOL    HW221684   3.889   3.700   7.481
 7002SOL     OW21685   3.801   2.200   5.627
 7002SOL    HW121686   3.717   2.165   5.599
 7002SOL    HW221687   3.821   2.270   5.565
 7003SOL     OW21688   3.768   2.021   5.899
 7003SOL    HW121689   3.758   2.091   5.835
 7003SOL    HW221690   3.861   2.021   5.922
 7004SOL     OW21691   3.800   3.100   6.250
 7004SOL    HW121692   3.794   3.051   6.332
 7004SOL    HW221693   3.880   3.070   6.208
 7005SOL     OW21694   3.752   2.942   5.896
 7005SOL    HW121695   3.842   2.943   5.864
 7005SOL    HW221696   3.734   2.850   5.915
 7006SOL     OW21697   3.954   2.494   7.558
 7006SOL    HW121698   3.872   2.491   7.607
 7006SOL    HW221699   3.933   2.456   7.472
 7007SOL     OW21700   3.960   2.125   8.434
 7007SOL    HW121701   3.967   2.123   8.529
 7007SOL    HW221702   3.867   2.111   8.416
 7008SOL     OW21703   3.727   2.242   8.084
 7008SOL    HW121704   3.646   2.266   8.131
 7008SOL    HW221705   3.706   2.159   8.043
 7009SOL     OW21706   0.013   3.379   8.498
 7009SOL    HW121707   3.969   3.296   8.480
 7009SOL    HW221708   0.084   3.382   8.433
 7010SOL     OW21709   3.941   3.583   7.923
 7010SOL    HW121710   3.955   3.655   7.983
 7010SOL    HW221711   0.028   3.562   7.890
 7011SOL     OW21712   3.940   3.301   7.958
 7011SOL    HW121713   3.924   3.395   7.965
 7011SOL    HW221714   3.886   3.262   8.026
 7012SOL     OW21715   3.820   2.504   8.007
 7012SOL    HW121716   3.790   2.416   8.031
 7012SOL    HW221717   3.815   2.554   8.089
 7013SOL     OW21718   3.752   3.459   7.578
 7013SOL    HW121719   3.733   3.367   7.595
 7013SOL    HW221720   3.722   3.504   7.657
 7014SOL     OW21721   3.830   2.603   9.031
 7014SOL    HW121722   3.915   2.635   9.061
 7014SOL    HW221723   3.774   2.681   9.030
 7015SOL     OW21724   3.803   2.676   8.221
 7015SOL    HW121725   3.896   2.672   8.242
 7015SOL    HW221726   3.770   2.752   8.270
 7016SOL     OW21727   3.849   3.715   9.015
 7016SOL    HW121728   3.851   3.688   9.107
 7016SOL    HW221729   3.759   3.702   8.988
 7017SOL     OW21730   3.925   2.158   8.962
 7017SOL    HW121731   3.844   2.199   8.934
 7017SOL    HW221732   3.897   2.077   9.006
 7018SOL     OW21733   0.002   1.881   7.612
 7018SOL    HW121734   0.031   1.970   7.596
 7018SOL    HW221735   0.069   1.843   7.668
 7019SOL     OW21736   3.806   2.412   8.837
 7019SOL    HW121737   3.901   2.407   8.826
 7019SOL    HW221738   3.792   2.486   8.897
 7020SOL     OW21739   0.280   2.148   7.773
 7020SOL    HW121740   0.299   2.079   7.710
 7020SOL    HW221741   0.301   2.229   7.727
 7021SOL     OW21742   3.790   3.434   8.795
 7021SOL    HW121743   3.763   3.501   8.732
 7021SOL    HW221744   3.885   3.440   8.799
 7022SOL     OW21745   0.069   2.951   7.971
 7022SOL    HW121746   0.070   3.006   7.893
 7022SOL    HW221747   0.130   2.880   7.951
 7023SOL     OW21748   0.010   2.075   8.697
 7023SOL    HW121749   3.981   2.103   8.784
 7023SOL    HW221750   0.010   1.979   8.702
 7024SOL     OW21751   3.752   3.173   8.726
 7024SOL    HW121752   3.798   3.124   8.795
 7024SOL    HW221753   3.767   3.265   8.748
 7025SOL     OW21754   0.002   1.919   8.099
 7025SOL    HW121755   0.019   2.012   8.111
 7025SOL    HW221756   0.023   1.879   8.183
 7026SOL     OW21757   3.729   3.188   7.636
 7026SOL    HW121758   3.643   3.201   7.597
 7026SOL    HW221759   3.723   3.104   7.681
 7027SOL     OW21760   3.803   3.655   8.384
 7027SOL    HW121761   3.782   3.572   8.340
 7027SOL    HW221762   3.898   3.665   8.371
 7028SOL     OW21763   0.216   3.420   8.323
 7028SOL    HW121764   0.278   3.493   8.319
 7028SOL    HW221765   0.247   3.358   8.257
 7029SOL     OW21766   3.756   2.400   8.565
 7029SOL    HW121767   3.839   2.393   8.518
 7029SOL    HW221768   3.780   2.409   8.657
 7030SOL     OW21769   3.904   2.378   9.170
 7030SOL    HW121770   3.936   2.321   9.100
 7030SOL    HW221771   3.856   2.448   9.124
 7031SOL     OW21772   3.944   3.397   9.175
 7031SOL    HW121773   3.939   3.476   9.230
 7031SOL    HW221774   3.988   3.332   9.230
 7032SOL     OW21775   3.859   2.989   8.922
 7032SOL    HW121776   3.930   2.978   8.986
 7032SOL    HW221777   3.896   2.957   8.840
 7033SOL     OW21778   3.810   3.128   8.461
 7033SOL    HW121779   3.784   3.139   8.553
 7033SOL    HW221780   3.747   3.064   8.427
 7034SOL     OW21781   3.839   3.653   9.276
 7034SOL    HW121782   3.790   3.587   9.324
 7034SOL    HW221783   3.889   3.700   9.343
 7035SOL     OW21784   3.801   2.199   7.489
 7035SOL    HW121785   3.716   2.165   7.459
 7035SOL    HW221786   3.820   2.270   7.427
 7036SOL     OW21787   3.767   2.021   7.761
 7036SOL    HW121788   3.758   2.090   7.696
 7036SOL    HW221789   3.860   2.021   7.784
 7037SOL     OW21790   3.800   3.101   8.112
 7037SOL    HW121791   3.795   3.051   8.193
 7037SOL    HW221792   3.880   3.069   8.069
 7038SOL     OW21793   3.752   2.942   7.758
 7038SOL    HW121794   3.842   2.943   7.726
 7038SOL    HW221795   3.734   2.850   7.777
 7039SOL     OW21796   3.955   2.494   9.420
 7039SOL    HW121797   3.873   2.491   9.469
 7039SOL    HW221798   3.932   2.456   9.335
 7040SOL     OW21799   3.960   2.125  10.295
 7040SOL    HW121800   3.967   2.123  10.391
 7040SOL    HW221801   3.867   2.111  10.278
 7041SOL     OW21802   3.726   2.242   9.946
 7041SOL    HW121803   3.646   2.267   9.992
 7041SOL    HW221804   3.706   2.158   9.905
 7042SOL     OW21805   0.013   3.379  10.359
 7042SOL    HW121806   3.969   3.296  10.342
 7042SOL    HW221807   0.084   3.382  10.295
 7043SOL     OW21808   3.941   3.583   9.784
 7043SOL    HW121809   3.954   3.655   9.845
 7043SOL    HW221810   0.029   3.562   9.752
 7044SOL     OW21811   3.940   3.301   9.820
 7044SOL    HW121812   3.924   3.395   9.827
 7044SOL    HW221813   3.885   3.262   9.888
 7045SOL     OW21814   3.819   2.504   9.869
 7045SOL    HW121815   3.790   2.416   9.893
 7045SOL    HW221816   3.815   2.554   9.951
 7046SOL     OW21817   3.751   3.459   9.439
 7046SOL    HW121818   3.733   3.367   9.457
 7046SOL    HW221819   3.723   3.504   9.519
 7047SOL     OW21820   3.830   2.603  10.893
 7047SOL    HW121821   3.915   2.635  10.923
 7047SOL    HW221822   3.774   2.680  10.892
 7048SOL     OW21823   3.803   2.677  10.082
 7048SOL    HW121824   3.896   2.672  10.104
 7048SOL    HW221825   3.770   2.752  10.132
 7049SOL     OW21826   3.849   3.715  10.877
 7049SOL    HW121827   3.851   3.688  10.969
 7049SOL    HW221828   3.758   3.703  10.850
 7050SOL     OW21829   3.925   2.158  10.824
 7050SOL    HW121830   3.844   2.199  10.796
 7050SOL    HW221831   3.897   2.077  10.868
 7051SOL     OW21832   0.002   1.881   9.473
 7051SOL    HW121833   0.032   1.971   9.458
 7051SOL    HW221834   0.068   1.843   9.531
 7052SOL     OW21835   3.806   2.412  10.699
 7052SOL    HW121836   3.901   2.407  10.688
 7052SOL    HW221837   3.792   2.486  10.758
 7053SOL     OW21838   0.282   2.148   9.636
 7053SOL    HW121839   0.298   2.079   9.572
 7053SOL    HW221840   0.299   2.229   9.588
 7054SOL     OW21841   3.790   3.433  10.657
 7054SOL    HW121842   3.763   3.501  10.595
 7054SOL    HW221843   3.885   3.440  10.661
 7055SOL     OW21844   0.069   2.951   9.833
 7055SOL    HW121845   0.070   3.006   9.755
 7055SOL    HW221846   0.130   2.880   9.813
 7056SOL     OW21847   0.010   2.075  10.559
 7056SOL    HW121848   3.981   2.104  10.646
 7056SOL    HW221849   0.010   1.980  10.564
 7057SOL     OW21850   3.753   3.173  10.588
 7057SOL    HW121851   3.798   3.124  10.657
 7057SOL    HW221852   3.767   3.265  10.610
 7058SOL     OW21853   0.003   1.919   9.960
 7058SOL    HW121854   0.019   2.012   9.974
 7058SOL    HW221855   0.023   1.878  10.045
 7059SOL     OW21856   3.729   3.188   9.498
 7059SOL    HW121857   3.643   3.201   9.459
 7059SOL    HW221858   3.723   3.104   9.543
 7060SOL     OW21859   3.803   3.654  10.246
 7060SOL    HW121860   3.782   3.572  10.202
 7060SOL    HW221861   3.897   3.665  10.233
 7061SOL     OW21862   0.216   3.420  10.185
 7061SOL    HW121863   0.278   3.493  10.181
 7061SOL    HW221864   0.248   3.358  10.119
 7062SOL     OW21865   3.756   2.400  10.427
 7062SOL    HW121866   3.839   2.394  10.381
 7062SOL    HW221867   3.780   2.409  10.519
 7063SOL     OW21868   3.904   2.378  11.032
 7063SOL    HW121869   3.935   2.321  10.962
 7063SOL    HW221870   3.856   2.448  10.986
 7064SOL     OW21871   3.944   3.397  11.037
 7064SOL    HW121872   3.939   3.476  11.092
 7064SOL    HW221873   3.988   3.332  11.093
 7065SOL     OW21874   3.859   2.990  10.784
 7065SOL    HW121875   3.930   2.978  10.848
 7065SOL    HW221876   3.895   2.957  10.702
 7066SOL     OW21877   3.810   3.127  10.323
 7066SOL    HW121878   3.784   3.139  10.415
 7066SOL    HW221879   3.746   3.064  10.289
 7067SOL     OW21880   3.839   3.653  11.138
 7067SOL    HW121881   3.790   3.587  11.186
 7067SOL    HW221882   3.889   3.700  11.205
 7068SOL     OW21883   3.801   2.200   9.351
 7068SOL    HW121884   3.717   2.165   9.322
 7068SOL    HW221885   3.821   2.270   9.289
 7069SOL     OW21886   3.767   2.021   9.623
 7069SOL    HW121887   3.759   2.091   9.558
 7069SOL    HW221888   3.860   2.021   9.646
 7070SOL     OW21889   3.800   3.100   9.974
 7070SOL    HW121890   3.794   3.051  10.056
 7070SOL    HW221891   3.880   3.070   9.932
 7071SOL     OW21892   3.752   2.942   9.620
 7071SOL    HW121893   3.842   2.943   9.588
 7071SOL    HW221894   3.734   2.850   9.639
 7072SOL     OW21895   3.955   2.494  11.282
 7072SOL    HW121896   3.873   2.491  11.332
 7072SOL    HW221897   3.932   2.456  11.197
 7073SOL     OW21898   3.960   2.125  12.157
 7073SOL    HW121899   3.967   2.123  12.253
 7073SOL    HW221900   3.867   2.111  12.140
 7074SOL     OW21901   3.726   2.242  11.808
 7074SOL    HW121902   3.646   2.267  11.854
 7074SOL    HW221903   3.706   2.158  11.767
 7075SOL     OW21904   0.013   3.379  12.221
 7075SOL    HW121905   3.969   3.296  12.205
 7075SOL    HW221906   0.084   3.382  12.157
 7076SOL     OW21907   3.941   3.583  11.646
 7076SOL    HW121908   3.954   3.655  11.707
 7076SOL    HW221909   0.029   3.562  11.614
 7077SOL     OW21910   3.940   3.301  11.682
 7077SOL    HW121911   3.924   3.395  11.689
 7077SOL    HW221912   3.885   3.262  11.750
 7078SOL     OW21913   3.819   2.504  11.731
 7078SOL    HW121914   3.790   2.416  11.755
 7078SOL    HW221915   3.815   2.554  11.813
 7079SOL     OW21916   3.751   3.459  11.301
 7079SOL    HW121917   3.733   3.367  11.319
 7079SOL    HW221918   3.723   3.504  11.381
 7080SOL     OW21919   3.830   2.603  12.755
 7080SOL    HW121920   3.915   2.635  12.785
 7080SOL    HW221921   3.774   2.680  12.754
 7081SOL     OW21922   3.803   2.677  11.944
 7081SOL    HW121923   3.896   2.672  11.966
 7081SOL    HW221924   3.770   2.752  11.994
 7082SOL     OW21925   3.849   3.715  12.740
 7082SOL    HW121926   3.851   3.688  12.832
 7082SOL    HW221927   3.759   3.702  12.713
 7083SOL     OW21928   3.925   2.158  12.686
 7083SOL    HW121929   3.844   2.199  12.658
 7083SOL    HW221930   3.897   2.077  12.730
 7084SOL     OW21931   0.002   1.881  11.335
 7084SOL    HW121932   0.032   1.971  11.321
 7084SOL    HW221933   0.068   1.843  11.393
 7085SOL     OW21934   3.806   2.412  12.561
 7085SOL    HW121935   3.901   2.407  12.550
 7085SOL    HW221936   3.792   2.486  12.620
 7086SOL     OW21937   0.282   2.148  11.498
 7086SOL    HW121938   0.298   2.078  11.434
 7086SOL    HW221939   0.299   2.229  11.450
 7087SOL     OW21940   3.790   3.433  12.519
 7087SOL    HW121941   3.763   3.501  12.457
 7087SOL    HW221942   3.885   3.440  12.523
 7088SOL     OW21943   0.069   2.951  11.695
 7088SOL    HW121944   0.070   3.006  11.617
 7088SOL    HW221945   0.130   2.880  11.675
 7089SOL     OW21946   0.010   2.075  12.421
 7089SOL    HW121947   3.981   2.104  12.508
 7089SOL    HW221948   0.009   1.980  12.426
 7090SOL     OW21949   3.753   3.173  12.450
 7090SOL    HW121950   3.798   3.124  12.520
 7090SOL    HW221951   3.767   3.265  12.472
 7091SOL     OW21952   0.003   1.919  11.822
 7091SOL    HW121953   0.019   2.012  11.836
 7091SOL    HW221954   0.023   1.878  11.907
 7092SOL     OW21955   3.729   3.188  11.360
 7092SOL    HW121956   3.643   3.201  11.321
 7092SOL    HW221957   3.723   3.104  11.405
 7093SOL     OW21958   3.803   3.654  12.108
 7093SOL    HW121959   3.782   3.572  12.064
 7093SOL    HW221960   3.897   3.665  12.095
 7094SOL     OW21961   0.216   3.420  12.047
 7094SOL    HW121962   0.278   3.493  12.043
 7094SOL    HW221963   0.248   3.358  11.981
 7095SOL     OW21964   3.756   2.400  12.289
 7095SOL    HW121965   3.839   2.394  12.243
 7095SOL    HW221966   3.780   2.409  12.381
 7096SOL     OW21967   3.904   2.379  12.894
 7096SOL    HW121968   3.935   2.321  12.824
 7096SOL    HW221969   3.856   2.448  12.849
 7097SOL     OW21970   3.945   3.398  12.899
 7097SOL    HW121971   3.938   3.476  12.955
 7097SOL    HW221972   3.986   3.332  12.955
 7098SOL     OW21973   3.859   2.990  12.646
 7098SOL    HW121974   3.930   2.978  12.710
 7098SOL    HW221975   3.895   2.957  12.564
 7099SOL     OW21976   3.810   3.127  12.185
 7099SOL    HW121977   3.784   3.139  12.277
 7099SOL    HW221978   3.746   3.064  12.151
 7100SOL     OW21979   3.841   3.654  13.001
 7100SOL    HW121980   3.791   3.587  13.049
 7100SOL    HW221981   3.889   3.701  13.069
 7101SOL     OW21982   3.801   2.200  11.213
 7101SOL    HW121983   3.717   2.165  11.184
 7101SOL    HW221984   3.821   2.270  11.151
 7102SOL     OW21985   3.768   2.021  11.485
 7102SOL    HW121986   3.759   2.091  11.420
 7102SOL    HW221987   3.860   2.021  11.508
 7103SOL     OW21988   3.800   3.100  11.836
 7103SOL    HW121989   3.794   3.051  11.918
 7103SOL    HW221990   3.880   3.069  11.794
 7104SOL     OW21991   3.752   2.942  11.481
 7104SOL    HW121992   3.843   2.943  11.450
 7104SOL    HW221993   3.734   2.850  11.501
 7105SOL     OW21994   3.953   2.493  13.145
 7105SOL    HW121995   3.870   2.490  13.192
 7105SOL    HW221996   3.933   2.456  13.059
 7106SOL     OW21997   3.725   2.244  13.661
 7106SOL    HW121998   3.637   2.273  13.689
 7106SOL    HW221999   3.711   2.159  13.621
 7107SOL     OW22000   3.942   3.579  13.502
 7107SOL    HW122001   3.943   3.657  13.558
 7107SOL    HW222002   0.034   3.563  13.480
 7108SOL     OW22003   3.940   3.298  13.543
 7108SOL    HW122004   3.926   3.392  13.548
 7108SOL    HW222005   3.884   3.261  13.611
 7109SOL     OW22006   3.949   2.951  13.899
 7109SOL    HW122007   3.982   2.906   0.077
 7109SOL    HW222008   3.877   3.004   0.031
 7110SOL     OW22009   3.833   2.505  13.597
 7110SOL    HW122010   3.782   2.425  13.612
 7110SOL    HW222011   3.817   2.558  13.675
 7111SOL     OW22012   3.749   3.459  13.162
 7111SOL    HW122013   3.733   3.367  13.181
 7111SOL    HW222014   3.722   3.505  13.242
 7112SOL     OW22015   3.800   2.673  13.809
 7112SOL    HW122016   3.894   2.678  13.828
 7112SOL    HW222017   3.762   2.751  13.849
 7113SOL     OW22018   0.109   3.636  13.841
 7113SOL    HW122019   0.068   3.575   0.002
 7113SOL    HW222020   0.179   3.677  13.892
 7114SOL     OW22021   0.002   1.883  13.200
 7114SOL    HW122022   0.038   1.969  13.178
 7114SOL    HW222023   0.068   1.843  13.256
 7115SOL     OW22024   0.280   2.148  13.356
 7115SOL    HW122025   0.300   2.077  13.295
 7115SOL    HW222026   0.303   2.228  13.309
 7116SOL     OW22027   0.071   2.950  13.553
 7116SOL    HW122028   0.070   3.009  13.477
 7116SOL    HW222029   0.133   2.882  13.529
 7117SOL     OW22030   3.988   1.928  13.667
 7117SOL    HW122031   0.016   2.018  13.682
 7117SOL    HW222032   0.024   1.878  13.740
 7118SOL     OW22033   3.729   3.189  13.222
 7118SOL    HW122034   3.643   3.202  13.182
 7118SOL    HW222035   3.723   3.105  13.267
 7119SOL     OW22036   0.319   3.404   0.019
 7119SOL    HW122037   0.270   3.485   0.033
 7119SOL    HW222038   0.261   3.350  13.865
 7120SOL     OW22039   3.801   2.199  13.075
 7120SOL    HW122040   3.717   2.165  13.046
 7120SOL    HW222041   3.821   2.270  13.013
 7121SOL     OW22042   3.767   2.021  13.347
 7121SOL    HW122043   3.759   2.089  13.280
 7121SOL    HW222044   3.860   2.022  13.370
 7122SOL     OW22045   3.807   3.097  13.696
 7122SOL    HW122046   3.796   3.033  13.766
 7122SOL    HW222047   3.885   3.068  13.648
 7123SOL     OW22048   3.753   2.942  13.343
 7123SOL    HW122049   3.843   2.943  13.310
 7123SOL    HW222050   3.735   2.849  13.362
 7124SOL     OW22051   3.961   3.976   0.990
 7124SOL    HW122052   3.967   3.971   1.085
 7124SOL    HW222053   3.871   3.952   0.970
 7125SOL     OW22054   3.750   0.066   0.688
 7125SOL    HW122055   3.671   0.120   0.692
 7125SOL    HW222056   3.725   3.990   0.636
 7126SOL     OW22057   3.918   0.007   1.506
 7126SOL    HW122058   3.829   0.040   1.494
 7126SOL    HW222059   3.909   3.938   1.572
 7127SOL     OW22060   3.984   3.766   0.182
 7127SOL    HW122061   0.023   3.831   0.124
 7127SOL    HW222062   0.053   3.699   0.192
 7128SOL     OW22063   0.002   3.936   1.255
 7128SOL    HW122064   3.972   3.945   1.345
 7128SOL    HW222065   0.024   3.843   1.246
 7129SOL     OW22066   0.024   3.777   0.648
 7129SOL    HW122067   0.043   3.871   0.653
 7129SOL    HW222068   0.034   3.746   0.738
 7130SOL     OW22069   3.789   3.869   0.342
 7130SOL    HW122070   3.786   3.961   0.316
 7130SOL    HW222071   3.869   3.836   0.301
 7131SOL     OW22072   3.962   3.975   2.851
 7131SOL    HW122073   3.967   3.971   2.946
 7131SOL    HW222074   3.871   3.952   2.831
 7132SOL     OW22075   3.749   0.064   2.553
 7132SOL    HW122076   3.672   0.121   2.556
 7132SOL    HW222077   3.721   3.990   2.499
 7133SOL     OW22078   3.918   0.007   3.368
 7133SOL    HW122079   3.829   0.040   3.357
 7133SOL    HW222080   3.910   3.938   3.434
 7134SOL     OW22081   3.992   3.752   2.026
 7134SOL    HW122082   0.029   3.831   1.987
 7134SOL    HW222083   0.063   3.717   2.080
 7135SOL     OW22084   0.002   3.936   3.116
 7135SOL    HW122085   3.972   3.945   3.207
 7135SOL    HW222086   0.024   3.843   3.108
 7136SOL     OW22087   0.020   3.778   2.512
 7136SOL    HW122088   0.045   3.870   2.519
 7136SOL    HW222089   0.032   3.744   2.601
 7137SOL     OW22090   3.804   0.053   1.896
 7137SOL    HW122091   3.735   0.021   1.837
 7137SOL    HW222092   3.809   0.147   1.878
 7138SOL     OW22093   3.784   3.871   2.185
 7138SOL    HW122094   3.779   3.962   2.157
 7138SOL    HW222095   3.874   3.845   2.164
 7139SOL     OW22096   3.962   3.975   4.713
 7139SOL    HW122097   3.967   3.971   4.808
 7139SOL    HW222098   3.871   3.952   4.693
 7140SOL     OW22099   3.749   0.064   4.415
 7140SOL    HW122100   3.672   0.121   4.418
 7140SOL    HW222101   3.721   3.990   4.361
 7141SOL     OW22102   3.918   0.007   5.230
 7141SOL    HW122103   3.829   0.040   5.218
 7141SOL    HW222104   3.909   3.938   5.296
 7142SOL     OW22105   3.992   3.752   3.888
 7142SOL    HW122106   0.029   3.831   3.849
 7142SOL    HW222107   0.063   3.717   3.942
 7143SOL     OW22108   0.003   3.936   4.978
 7143SOL    HW122109   3.972   3.945   5.069
 7143SOL    HW222110   0.024   3.843   4.969
 7144SOL     OW22111   0.020   3.778   4.374
 7144SOL    HW122112   0.045   3.870   4.381
 7144SOL    HW222113   0.032   3.744   4.463
 7145SOL     OW22114   3.804   0.053   3.758
 7145SOL    HW122115   3.735   0.021   3.699
 7145SOL    HW222116   3.809   0.147   3.740
 7146SOL     OW22117   3.784   3.871   4.047
 7146SOL    HW122118   3.779   3.962   4.019
 7146SOL    HW222119   3.874   3.845   4.026
 7147SOL     OW22120   3.962   3.975   6.575
 7147SOL    HW122121   3.967   3.971   6.670
 7147SOL    HW222122   3.871   3.952   6.555
 7148SOL     OW22123   3.749   0.064   6.277
 7148SOL    HW122124   3.672   0.121   6.280
 7148SOL    HW222125   3.722   3.990   6.223
 7149SOL     OW22126   3.918   0.007   7.092
 7149SOL    HW122127   3.829   0.040   7.080
 7149SOL    HW222128   3.909   3.937   7.157
 7150SOL     OW22129   3.992   3.752   5.750
 7150SOL    HW122130   0.029   3.831   5.711
 7150SOL    HW222131   0.063   3.717   5.804
 7151SOL     OW22132   0.003   3.936   6.840
 7151SOL    HW122133   3.972   3.945   6.931
 7151SOL    HW222134   0.024   3.843   6.831
 7152SOL     OW22135   0.020   3.778   6.236
 7152SOL    HW122136   0.045   3.870   6.242
 7152SOL    HW222137   0.032   3.744   6.325
 7153SOL     OW22138   3.804   0.053   5.620
 7153SOL    HW122139   3.735   0.021   5.561
 7153SOL    HW222140   3.809   0.147   5.603
 7154SOL     OW22141   3.784   3.871   5.909
 7154SOL    HW122142   3.779   3.962   5.880
 7154SOL    HW222143   3.873   3.844   5.887
 7155SOL     OW22144   3.962   3.975   8.437
 7155SOL    HW122145   3.967   3.971   8.532
 7155SOL    HW222146   3.871   3.952   8.417
 7156SOL     OW22147   3.749   0.064   8.139
 7156SOL    HW122148   3.672   0.121   8.142
 7156SOL    HW222149   3.722   3.990   8.085
 7157SOL     OW22150   3.918   0.007   8.954
 7157SOL    HW122151   3.829   0.040   8.942
 7157SOL    HW222152   3.910   3.938   9.020
 7158SOL     OW22153   3.992   3.752   7.612
 7158SOL    HW122154   0.029   3.831   7.573
 7158SOL    HW222155   0.063   3.717   7.666
 7159SOL     OW22156   0.002   3.936   8.702
 7159SOL    HW122157   3.972   3.945   8.793
 7159SOL    HW222158   0.024   3.843   8.693
 7160SOL     OW22159   0.019   3.778   8.099
 7160SOL    HW122160   0.045   3.870   8.104
 7160SOL    HW222161   0.032   3.744   8.187
 7161SOL     OW22162   3.803   0.053   7.482
 7161SOL    HW122163   3.736   0.021   7.422
 7161SOL    HW222164   3.809   0.147   7.465
 7162SOL     OW22165   3.784   3.871   7.771
 7162SOL    HW122166   3.779   3.962   7.742
 7162SOL    HW222167   3.873   3.844   7.749
 7163SOL     OW22168   3.962   3.975  10.299
 7163SOL    HW122169   3.967   3.971  10.394
 7163SOL    HW222170   3.871   3.952  10.279
 7164SOL     OW22171   3.749   0.064  10.001
 7164SOL    HW122172   3.672   0.121  10.004
 7164SOL    HW222173   3.721   3.990   9.947
 7165SOL     OW22174   3.918   0.007  10.816
 7165SOL    HW122175   3.829   0.040  10.805
 7165SOL    HW222176   3.909   3.938  10.882
 7166SOL     OW22177   3.992   3.752   9.474
 7166SOL    HW122178   0.029   3.831   9.435
 7166SOL    HW222179   0.063   3.717   9.528
 7167SOL     OW22180   0.002   3.936  10.564
 7167SOL    HW122181   3.972   3.945  10.655
 7167SOL    HW222182   0.024   3.843  10.556
 7168SOL     OW22183   0.020   3.778   9.960
 7168SOL    HW122184   0.045   3.870   9.966
 7168SOL    HW222185   0.032   3.744  10.049
 7169SOL     OW22186   3.804   0.053   9.344
 7169SOL    HW122187   3.735   0.021   9.285
 7169SOL    HW222188   3.809   0.147   9.327
 7170SOL     OW22189   3.784   3.871   9.633
 7170SOL    HW122190   3.779   3.962   9.605
 7170SOL    HW222191   3.873   3.845   9.612
 7171SOL     OW22192   3.962   3.975  12.161
 7171SOL    HW122193   3.967   3.971  12.256
 7171SOL    HW222194   3.871   3.952  12.141
 7172SOL     OW22195   3.749   0.064  11.863
 7172SOL    HW122196   3.672   0.121  11.866
 7172SOL    HW222197   3.721   3.990  11.809
 7173SOL     OW22198   3.918   0.007  12.678
 7173SOL    HW122199   3.829   0.040  12.666
 7173SOL    HW222200   3.909   3.937  12.744
 7174SOL     OW22201   3.992   3.752  11.336
 7174SOL    HW122202   0.029   3.831  11.297
 7174SOL    HW222203   0.063   3.717  11.390
 7175SOL     OW22204   0.002   3.936  12.427
 7175SOL    HW122205   3.972   3.945  12.517
 7175SOL    HW222206   0.024   3.843  12.417
 7176SOL     OW22207   0.020   3.778  11.822
 7176SOL    HW122208   0.045   3.870  11.829
 7176SOL    HW222209   0.032   3.744  11.911
 7177SOL     OW22210   3.804   0.053  11.206
 7177SOL    HW122211   3.735   0.021  11.147
 7177SOL    HW222212   3.809   0.147  11.189
 7178SOL     OW22213   3.784   3.871  11.495
 7178SOL    HW122214   3.779   3.962  11.467
 7178SOL    HW222215   3.874   3.845  11.474
 7179SOL     OW22216   3.743   0.084  13.686
 7179SOL    HW122217   3.671   0.110  13.744
 7179SOL    HW222218   3.722   3.994  13.661
 7180SOL     OW22219   3.993   3.755  13.201
 7180SOL    HW122220   0.034   3.830  13.158
 7180SOL    HW222221   0.063   3.718  13.255
 7181SOL     OW22222   3.987   3.794  13.665
 7181SOL    HW122223   0.028   3.878  13.681
 7181SOL    HW222224   0.028   3.734  13.728
 7182SOL     OW22225   3.805   0.053  13.067
 7182SOL    HW122226   3.735   0.021  13.010
 7182SOL    HW222227   3.809   0.147  13.050
 7183SOL     OW22228   3.781   3.871  13.355
 7183SOL    HW122229   3.778   3.964  13.331
 7183SOL    HW222230   3.870   3.844  13.333
   4.00000   4.00000  13.90000
