2gCDOC_1PEG_l8
22143
    1LIG      O    1   2.769   2.595   8.078
    1LIG      C    2   2.753   2.629   0.135
    1LIG     C1    3   2.620   2.567   0.187
    1LIG     O1    4   2.561   2.656   0.281
    1LIG     C2    5   2.589   2.616   0.413
    1LIG     C3    6   2.736   2.655   0.447
    1LIG     O2    7   2.768   2.608   0.576
    1LIG     C4    8   2.710   2.692   0.674
    1LIG     C5    9   2.580   2.627   0.727
    1LIG     O3   10   2.540   2.697   0.841
    1LIG     C6   11   2.590   2.640   0.961
    1LIG     C7   12   2.737   2.684   0.994
    1LIG     O4   13   2.783   2.626   1.115
    1LIG     C8   14   2.726   2.686   1.230
    1LIG     C9   15   2.599   2.602   1.267
    1LIG     O5   16   2.521   2.663   1.368
    1LIG    C10   17   2.580   2.631   1.492
    1LIG    C11   18   2.685   2.737   1.528
    1LIG     O6   19   2.642   2.789   1.650
    1LIG    C12   20   2.687   2.713   1.759
    1LIG    C13   21   2.600   2.588   1.794
    1LIG     O7   22   2.658   2.527   1.909
    1LIG    C14   23   2.617   2.590   2.030
    1LIG    C15   24   2.711   2.708   2.074
    1LIG     O8   25   2.644   2.792   2.169
    1LIG    C16   26   2.668   2.743   2.299
    1LIG    C17   27   2.554   2.644   2.335
    1LIG     O9   28   2.604   2.550   2.429
    1LIG    C18   29   2.587   2.604   2.559
    1LIG    C19   30   2.706   2.697   2.596
    1LIG    O10   31   2.778   2.638   2.701
    1LIG    C20   32   2.734   2.681   2.828
    1LIG    C21   33   2.591   2.625   2.870
    1LIG    O11   34   2.528   2.709   2.968
    1LIG    C22   35   2.553   2.665   3.101
    1LIG    C23   36   2.704   2.687   3.136
    1LIG    O12   37   2.741   2.620   3.253
    1LIG    C24   38   2.685   2.678   3.368
    1LIG    C25   39   2.563   2.593   3.409
    1LIG    O13   40   2.501   2.652   3.522
    1LIG    C26   41   2.567   2.614   3.642
    1LIG    C27   42   2.684   2.710   3.675
    1LIG    O14   43   2.653   2.774   3.797
    1LIG    C28   44   2.706   2.703   3.908
    1LIG    C29   45   2.610   2.586   3.951
    1LIG    O15   46   2.649   2.527   4.077
    1LIG    C30   47   2.593   2.597   4.190
    1LIG    C31   48   2.693   2.709   4.234
    1LIG    O16   49   2.641   2.794   4.334
    1LIG    C32   50   2.673   2.744   4.462
    1LIG    C33   51   2.564   2.644   4.501
    1LIG    O17   52   2.526   2.671   4.634
    1LIG    C34   53   2.601   2.591   4.724
    1LIG    C35   54   2.738   2.654   4.756
    1LIG    O18   55   2.766   2.624   4.892
    1LIG    C36   56   2.704   2.721   4.977
    1LIG    C37   57   2.556   2.686   5.018
    1LIG    O19   58   2.532   2.722   5.153
    1LIG    C38   59   2.595   2.630   5.243
    1LIG    C39   60   2.736   2.683   5.286
    1LIG    O20   61   2.783   2.623   5.403
    1LIG    C40   62   2.716   2.674   5.514
    1LIG    C41   63   2.598   2.581   5.549
    1LIG    O21   64   2.633   2.515   5.667
    1LIG    C42   65   2.598   2.592   5.780
    1LIG    C43   66   2.690   2.717   5.804
    1LIG    O22   67   2.638   2.795   5.909
    1LIG    C44   68   2.677   2.742   6.034
    1LIG    C45   69   2.568   2.642   6.084
    1LIG    O23   70   2.628   2.551   6.176
    1LIG    C46   71   2.597   2.592   6.307
    1LIG    C47   72   2.689   2.710   6.346
    1LIG    O24   73   2.648   2.760   6.469
    1LIG    C48   74   2.712   2.694   6.575
    1LIG    C49   75   2.613   2.591   6.633
    1LIG    O25   76   2.668   2.529   6.747
    1LIG    C50   77   2.624   2.593   6.866
    1LIG    C51   78   2.702   2.726   6.892
    1LIG    O26   79   2.635   2.794   6.995
    1LIG    C52   80   2.677   2.746   7.120
    1LIG    C53   81   2.584   2.632   7.165
    1LIG    O27   82   2.551   2.667   7.295
    1LIG    C54   83   2.604   2.591   7.398
    1LIG    C55   84   2.732   2.666   7.449
    1LIG    O28   85   2.790   2.602   7.563
    1LIG    C56   86   2.740   2.659   7.685
    1LIG    C57   87   2.598   2.601   7.710
    1LIG    O29   88   2.535   2.662   7.821
    1LIG    C58   89   2.568   2.595   7.940
    1LIG    C59   90   2.683   2.678   8.000
    1LIG      H   91   2.749   2.739   0.146
    1LIG     H1   92   2.840   2.593   0.190
    1LIG     H2   93   2.639   2.468   0.230
    1LIG     H3   94   2.547   2.554   0.107
    1LIG     H4   95   2.572   2.509   0.427
    1LIG     H5   96   2.519   2.672   0.475
    1LIG     H6   97   2.750   2.764   0.441
    1LIG     H7   98   2.807   2.608   0.379
    1LIG     H8   99   2.690   2.793   0.636
    1LIG     H9  100   2.787   2.705   0.749
    1LIG    H10  101   2.593   2.520   0.746
    1LIG    H11  102   2.497   2.636   0.657
    1LIG    H12  103   2.583   2.531   0.958
    1LIG    H13  104   2.519   2.679   1.034
    1LIG    H14  105   2.745   2.793   0.997
    1LIG    H15  106   2.807   2.645   0.920
    1LIG    H16  107   2.703   2.792   1.212
    1LIG    H17  108   2.800   2.680   1.310
    1LIG    H18  109   2.634   2.504   1.298
    1LIG    H19  110   2.530   2.582   1.187
    1LIG    H20  111   2.625   2.531   1.493
    1LIG    H21  112   2.500   2.630   1.566
    1LIG    H22  113   2.690   2.818   1.456
    1LIG    H23  114   2.785   2.693   1.539
    1LIG    H24  115   2.678   2.786   1.836
    1LIG    H25  116   2.792   2.682   1.748
    1LIG    H26  117   2.600   2.514   1.714
    1LIG    H27  118   2.495   2.617   1.813
    1LIG    H28  119   2.622   2.512   2.106
    1LIG    H29  120   2.512   2.620   2.024
    1LIG    H30  121   2.739   2.777   1.998
    1LIG    H31  122   2.806   2.669   2.111
    1LIG    H32  123   2.669   2.828   2.369
    1LIG    H33  124   2.766   2.694   2.305
    1LIG    H34  125   2.520   2.585   2.250
    1LIG    H35  126   2.467   2.699   2.371
    1LIG    H36  127   2.583   2.519   2.628
    1LIG    H37  128   2.493   2.659   2.568
    1LIG    H38  129   2.670   2.797   2.625
    1LIG    H39  130   2.777   2.709   2.514
    1LIG    H40  131   2.734   2.790   2.833
    1LIG    H41  132   2.814   2.644   2.893
    1LIG    H42  133   2.596   2.521   2.905
    1LIG    H43  134   2.521   2.628   2.786
    1LIG    H44  135   2.527   2.559   3.112
    1LIG    H45  136   2.491   2.724   3.169
    1LIG    H46  137   2.728   2.794   3.139
    1LIG    H47  138   2.769   2.641   3.065
    1LIG    H48  139   2.654   2.780   3.349
    1LIG    H49  140   2.764   2.678   3.444
    1LIG    H50  141   2.593   2.489   3.429
    1LIG    H51  142   2.488   2.591   3.329
    1LIG    H52  143   2.605   2.511   3.635
    1LIG    H53  144   2.492   2.616   3.722
    1LIG    H54  145   2.698   2.789   3.600
    1LIG    H55  146   2.778   2.654   3.683
    1LIG    H56  147   2.714   2.782   3.980
    1LIG    H57  148   2.806   2.664   3.889
    1LIG    H58  149   2.614   2.507   3.875
    1LIG    H59  150   2.506   2.622   3.956
    1LIG    H60  151   2.580   2.524   4.270
    1LIG    H61  152   2.494   2.638   4.166
    1LIG    H62  153   2.717   2.776   4.155
    1LIG    H63  154   2.788   2.666   4.265
    1LIG    H64  155   2.680   2.828   4.531
    1LIG    H65  156   2.771   2.694   4.462
    1LIG    H66  157   2.603   2.542   4.490
    1LIG    H67  158   2.476   2.652   4.436
    1LIG    H68  159   2.620   2.490   4.686
    1LIG    H69  160   2.537   2.578   4.811
    1LIG    H70  161   2.738   2.763   4.740
    1LIG    H71  162   2.815   2.611   4.691
    1LIG    H72  163   2.707   2.819   4.931
    1LIG    H73  164   2.771   2.731   5.059
    1LIG    H74  165   2.533   2.580   5.006
    1LIG    H75  166   2.487   2.742   4.953
    1LIG    H76  167   2.602   2.529   5.201
    1LIG    H77  168   2.526   2.626   5.327
    1LIG    H78  169   2.733   2.793   5.297
    1LIG    H79  170   2.815   2.657   5.216
    1LIG    H80  171   2.681   2.777   5.499
    1LIG    H81  172   2.793   2.674   5.592
    1LIG    H82  173   2.583   2.504   5.472
    1LIG    H83  174   2.505   2.638   5.560
    1LIG    H84  175   2.611   2.521   5.860
    1LIG    H85  176   2.492   2.621   5.775
    1LIG    H86  177   2.690   2.785   5.719
    1LIG    H87  178   2.794   2.685   5.823
    1LIG    H88  179   2.687   2.828   6.100
    1LIG    H89  180   2.777   2.695   6.029
    1LIG    H90  181   2.524   2.579   6.008
    1LIG    H91  182   2.484   2.696   6.126
    1LIG    H92  183   2.614   2.507   6.372
    1LIG    H93  184   2.491   2.621   6.315
    1LIG    H94  185   2.679   2.795   6.280
    1LIG    H95  186   2.794   2.679   6.347
    1LIG    H96  187   2.743   2.774   6.641
    1LIG    H97  188   2.805   2.645   6.544
    1LIG    H98  189   2.596   2.511   6.561
    1LIG    H99  190   2.515   2.636   6.653
    1LIG   H100  191   2.640   2.523   6.947
    1LIG   H101  192   2.516   2.614   6.860
    1LIG   H102  193   2.698   2.797   6.811
    1LIG   H103  194   2.807   2.706   6.916
    1LIG   H104  195   2.670   2.830   7.189
    1LIG   H105  196   2.782   2.713   7.118
    1LIG   H106  197   2.627   2.531   7.155
    1LIG   H107  198   2.487   2.635   7.114
    1LIG   H108  199   2.621   2.485   7.375
    1LIG   H109  200   2.517   2.597   7.461
    1LIG   H110  201   2.706   2.770   7.472
    1LIG   H111  202   2.808   2.667   7.370
    1LIG   H112  203   2.736   2.769   7.678
    1LIG   H113  204   2.809   2.632   7.765
    1LIG   H114  205   2.602   2.492   7.717
    1LIG   H115  206   2.531   2.628   7.632
    1LIG   H116  207   2.598   2.491   7.922
    1LIG   H117  208   2.480   2.595   8.005
    1LIG   H118  209   2.744   2.727   7.924
    1LIG   H119  210   2.640   2.759   8.057
    2MOL     C1  211   3.178   2.194   3.634
    2MOL     H1  212   3.194   2.087   3.650
    2MOL     O1  213   3.223   2.231   3.504
    2MOL     C2  214   3.202   2.371   3.472
    2MOL     H2  215   3.098   2.397   3.493
    2MOL     C3  216   3.227   2.387   3.320
    2MOL     H3  217   3.191   2.485   3.288
    2MOL     H4  218   3.171   2.310   3.266
    2MOL     O2  219   3.368   2.376   3.292
    2MOL     C4  220   3.399   2.404   3.155
    2MOL     C5  221   3.261   2.273   3.738
    2MOL     H5  222   3.365   2.239   3.733
    2MOL     O3  223   3.208   2.250   3.869
    2MOL     C6  224   3.245   2.124   3.926
    2MOL     C7  225   3.263   2.425   3.712
    2MOL     H6  226   3.166   2.467   3.741
    2MOL     O4  227   3.372   2.478   3.790
    2MOL     C8  228   3.334   2.584   3.878
    2MOL     C9  229   3.292   2.457   3.564
    2MOL     H7  230   3.397   2.434   3.544
    2MOL     O5  231   3.264   2.598   3.546
    2MOL    C10  232   3.351   2.667   3.454
    2MOL     H8  233   3.434   2.602   3.423
    2MOL     O6  234   3.274   2.705   3.337
    2MOL    C11  235   3.161   2.791   3.363
    2MOL     H9  236   3.094   2.744   3.435
    2MOL    C12  237   3.084   2.808   3.230
    2MOL    H10  238   2.985   2.851   3.250
    2MOL    H11  239   3.069   2.710   3.183
    2MOL     O7  240   3.158   2.895   3.141
    2MOL    C13  241   3.087   2.935   3.023
    2MOL    C14  242   3.410   2.795   3.521
    2MOL    H12  243   3.487   2.837   3.454
    2MOL     O8  244   3.469   2.761   3.648
    2MOL    C15  245   3.589   2.683   3.645
    2MOL    C16  246   3.303   2.903   3.545
    2MOL    H13  247   3.240   2.873   3.630
    2MOL     O9  248   3.370   3.029   3.570
    2MOL    C17  249   3.361   3.080   3.704
    2MOL    C18  250   3.215   2.924   3.421
    2MOL    H14  251   3.278   2.974   3.346
    2MOL    O10  252   3.104   3.008   3.460
    2MOL    C19  253   3.075   3.117   3.370
    2MOL    H15  254   3.155   3.125   3.295
    2MOL    O11  255   2.951   3.090   3.303
    2MOL    C20  256   2.840   3.077   3.394
    2MOL    H16  257   2.863   3.002   3.471
    2MOL    C21  258   2.716   3.027   3.319
    2MOL    H17  259   2.642   2.991   3.392
    2MOL    H18  260   2.748   2.944   3.257
    2MOL    O12  261   2.660   3.130   3.237
    2MOL    C22  262   2.542   3.087   3.169
    2MOL    C23  263   3.064   3.251   3.449
    2MOL    H19  264   3.050   3.333   3.378
    2MOL    O13  265   3.184   3.272   3.525
    2MOL    C24  266   3.300   3.304   3.447
    2MOL    C25  267   2.943   3.252   3.544
    2MOL    H20  268   2.957   3.181   3.626
    2MOL    O14  269   2.927   3.388   3.593
    2MOL    C26  270   2.991   3.421   3.717
    2MOL    C27  271   2.817   3.211   3.461
    2MOL    H21  272   2.794   3.288   3.386
    2MOL    O15  273   2.705   3.186   3.543
    2MOL    C28  274   2.637   3.301   3.590
    2MOL    H22  275   2.703   3.388   3.593
    2MOL    O16  276   2.524   3.327   3.508
    2MOL    C29  277   2.424   3.224   3.500
    2MOL    H23  278   2.465   3.134   3.452
    2MOL    C30  279   2.319   3.289   3.411
    2MOL    H24  280   2.245   3.218   3.376
    2MOL    H25  281   2.371   3.330   3.324
    2MOL    O17  282   2.261   3.396   3.489
    2MOL    C31  283   2.164   3.473   3.421
    2MOL    C32  284   2.596   3.266   3.729
    2MOL    H26  285   2.554   3.358   3.775
    2MOL    O18  286   2.720   3.225   3.789
    2MOL    C33  287   2.733   3.285   3.912
    2MOL    C34  288   2.488   3.153   3.736
    2MOL    H27  289   2.535   3.058   3.706
    2MOL    O19  290   2.436   3.144   3.870
    2MOL    C35  291   2.388   3.014   3.909
    2MOL    C36  292   2.371   3.188   3.642
    2MOL    H28  293   2.322   3.276   3.688
    2MOL    O20  294   2.279   3.077   3.637
    2MOL    C37  295   2.140   3.108   3.612
    2MOL    H29  296   2.124   3.217   3.618
    2MOL    O21  297   2.108   3.062   3.479
    2MOL    C38  298   2.133   2.920   3.458
    2MOL    H30  299   2.234   2.894   3.489
    2MOL    C39  300   2.123   2.895   3.306
    2MOL    H31  301   2.155   2.792   3.284
    2MOL    H32  302   2.192   2.963   3.254
    2MOL    O22  303   1.989   2.918   3.261
    2MOL    C40  304   1.967   2.877   3.124
    2MOL    C41  305   2.045   3.037   3.712
    2MOL    H33  306   1.942   3.071   3.694
    2MOL    O23  307   2.081   3.064   3.849
    2MOL    C42  308   2.048   3.195   3.897
    2MOL    C43  309   2.048   2.884   3.694
    2MOL    H34  310   2.145   2.846   3.730
    2MOL    O24  311   1.938   2.829   3.770
    2MOL    C44  312   1.974   2.727   3.865
    2MOL    C45  313   2.031   2.843   3.546
    2MOL    H35  314   1.929   2.867   3.516
    2MOL    O25  315   2.055   2.701   3.540
    2MOL    C46  316   1.967   2.628   3.452
    2MOL    H36  317   1.885   2.691   3.417
    2MOL    O26  318   2.045   2.583   3.339
    2MOL    C47  319   2.158   2.499   3.373
    2MOL    H37  320   2.224   2.550   3.444
    2MOL    C48  321   2.241   2.474   3.245
    2MOL    H38  322   2.333   2.421   3.270
    2MOL    H39  323   2.269   2.570   3.200
    2MOL    O27  324   2.163   2.397   3.151
    2MOL    C49  325   2.239   2.361   3.035
    2MOL    C50  326   1.908   2.504   3.527
    2MOL    H40  327   1.838   2.454   3.460
    2MOL    O28  328   1.839   2.544   3.648
    2MOL    C51  329   1.716   2.617   3.630
    2MOL    C52  330   2.020   2.405   3.565
    2MOL    H41  331   2.086   2.450   3.640
    2MOL    O29  332   1.960   2.283   3.613
    2MOL    C53  333   1.954   2.263   3.755
    2MOL    C54  334   2.102   2.371   3.439
    2MOL    H42  335   2.034   2.321   3.368
    2MOL    O30  336   2.211   2.285   3.477
    2MOL    C55  337   2.220   2.164   3.400
    2MOL    H43  338   2.131   2.151   3.338
    2MOL    O31  339   2.337   2.170   3.316
    2MOL    C56  340   2.462   2.189   3.388
    2MOL    H44  341   2.461   2.285   3.442
    2MOL    C57  342   2.579   2.188   3.288
    2MOL    H45  343   2.568   2.103   3.220
    2MOL    H46  344   2.673   2.174   3.343
    2MOL    O32  345   2.586   2.311   3.216
    2MOL    C58  346   2.694   2.310   3.121
    2MOL    C59  347   2.231   2.042   3.493
    2MOL    H47  348   2.240   1.953   3.430
    2MOL    O33  349   2.113   2.032   3.575
    2MOL    C60  350   1.996   1.982   3.508
    2MOL    C61  351   2.357   2.051   3.582
    2MOL    H48  352   2.348   2.136   3.651
    2MOL    O34  353   2.372   1.926   3.653
    2MOL    C62  354   2.302   1.918   3.779
    2MOL    C63  355   2.481   2.075   3.490
    2MOL    H49  356   2.503   1.983   3.435
    2MOL    O35  357   2.593   2.111   3.572
    2MOL    C64  358   2.677   2.001   3.610
    2MOL    H50  359   2.617   1.909   3.616
    2MOL    O36  360   2.781   1.984   3.513
    2MOL    C65  361   2.884   2.087   3.507
    2MOL    H51  362   2.840   2.183   3.476
    2MOL    C66  363   2.982   2.039   3.400
    2MOL    H52  364   3.004   1.933   3.413
    2MOL    H53  365   3.075   2.095   3.404
    2MOL    O37  366   2.919   2.062   3.273
    2MOL    C67  367   3.004   2.028   3.164
    2MOL    C68  368   2.738   2.028   3.748
    2MOL    H54  369   2.789   1.937   3.782
    2MOL    O38  370   2.632   2.065   3.837
    2MOL    C69  371   2.582   1.950   3.902
    2MOL    C70  372   2.840   2.141   3.748
    2MOL    H55  373   2.791   2.234   3.720
    2MOL    O39  374   2.898   2.147   3.880
    2MOL    C71  375   2.867   2.269   3.950
    2MOL    C72  376   2.949   2.108   3.647
    2MOL    H56  377   3.001   2.017   3.679
    2MOL    O40  378   3.037   2.222   3.645
    2MOL    H57  379   3.508   2.408   3.142
    2MOL    H58  380   3.358   2.326   3.090
    2MOL    H59  381   3.358   2.501   3.126
    2MOL    H60  382   2.958   2.061   3.071
    2MOL    H61  383   3.102   2.075   3.175
    2MOL    H62  384   3.017   1.919   3.160
    2MOL    H63  385   2.706   2.409   3.075
    2MOL    H64  386   2.788   2.284   3.171
    2MOL    H65  387   2.675   2.237   3.042
    2MOL    H66  388   2.179   2.300   2.967
    2MOL    H67  389   2.271   2.451   2.980
    2MOL    H68  390   2.328   2.304   3.063
    2MOL    H69  391   1.864   2.901   3.094
    2MOL    H70  392   2.036   2.931   3.058
    2MOL    H71  393   1.983   2.769   3.113
    2MOL    H72  394   2.113   3.539   3.491
    2MOL    H73  395   2.213   3.534   3.343
    2MOL    H74  396   2.092   3.406   3.375
    2MOL    H75  397   2.505   3.167   3.104
    2MOL    H76  398   2.565   2.998   3.108
    2MOL    H77  399   2.463   3.059   3.241
    2MOL    H78  400   3.154   2.991   2.957
    2MOL    H79  401   3.050   2.847   2.969
    2MOL    H80  402   3.002   2.999   3.050
    2MOL    H81  403   3.398   3.183   3.707
    2MOL    H82  404   3.257   3.079   3.739
    2MOL    H83  405   3.423   3.020   3.770
    2MOL    H84  406   3.634   2.681   3.745
    2MOL    H85  407   3.567   2.580   3.615
    2MOL    H86  408   3.660   2.726   3.574
    2MOL    H87  409   3.423   2.622   3.929
    2MOL    H88  410   3.287   2.666   3.822
    2MOL    H89  411   3.264   2.548   3.953
    2MOL    H90  412   3.238   2.133   4.034
    2MOL    H91  413   3.177   2.045   3.892
    2MOL    H92  414   3.349   2.098   3.901
    2MOL    H93  415   2.902   2.261   4.054
    2MOL    H94  416   2.919   2.353   3.902
    2MOL    H95  417   2.759   2.287   3.951
    2MOL    H96  418   2.511   1.981   3.981
    2MOL    H97  419   2.536   1.882   3.831
    2MOL    H98  420   2.666   1.894   3.942
    2MOL    H99  421   2.324   1.823   3.828
    2MOL   H100  422   2.333   2.001   3.845
    2MOL   H101  423   2.194   1.925   3.766
    2MOL   H102  424   1.914   1.972   3.580
    2MOL   H103  425   1.964   2.052   3.430
    2MOL   H104  426   2.016   1.884   3.462
    2MOL   H105  427   1.892   2.176   3.776
    2MOL   H106  428   2.055   2.246   3.795
    2MOL   H107  429   1.910   2.350   3.804
    2MOL   H108  430   1.663   2.628   3.726
    2MOL   H109  431   1.737   2.718   3.593
    2MOL   H110  432   1.650   2.566   3.559
    2MOL   H111  433   1.882   2.690   3.913
    2MOL   H112  434   2.023   2.643   3.815
    2MOL   H113  435   2.041   2.768   3.941
    2MOL   H114  436   2.069   3.203   4.005
    2MOL   H115  437   2.107   3.272   3.845
    2MOL   H116  438   1.941   3.215   3.882
    2MOL   H117  439   2.351   3.018   4.012
    2MOL   H118  440   2.306   2.979   3.846
    2MOL   H119  441   2.469   2.940   3.902
    2MOL   H120  442   2.815   3.243   3.971
    2MOL   H121  443   2.739   3.394   3.906
    2MOL   H122  444   2.637   3.261   3.952
    2MOL   H123  445   2.984   3.529   3.734
    2MOL   H124  446   2.942   3.370   3.800
    2MOL   H125  447   3.097   3.392   3.718
    2MOL   H126  448   3.386   3.316   3.513
    2MOL   H127  449   3.324   3.222   3.378
    2MOL   H128  450   3.284   3.397   3.391
    3MOL     C1  451   2.119   2.195   4.426
    3MOL     H1  452   2.100   2.088   4.409
    3MOL     O1  453   2.071   2.231   4.555
    3MOL     C2  454   2.091   2.370   4.590
    3MOL     H2  455   2.195   2.399   4.575
    3MOL     C3  456   2.059   2.383   4.739
    3MOL     H3  457   2.095   2.479   4.777
    3MOL     H4  458   2.110   2.303   4.793
    3MOL     O2  459   1.916   2.372   4.753
    3MOL     C4  460   1.873   2.382   4.887
    3MOL     C5  461   2.040   2.278   4.320
    3MOL     H5  462   1.935   2.245   4.323
    3MOL     O3  463   2.093   2.258   4.188
    3MOL     C6  464   2.064   2.131   4.128
    3MOL     C7  465   2.041   2.430   4.350
    3MOL     H6  466   2.140   2.470   4.328
    3MOL     O4  467   1.939   2.491   4.269
    3MOL     C8  468   1.987   2.590   4.176
    3MOL     C9  469   2.006   2.460   4.497
    3MOL     H7  470   1.900   2.439   4.513
    3MOL     O5  471   2.037   2.599   4.521
    3MOL    C10  472   1.951   2.667   4.615
    3MOL     H8  473   1.868   2.602   4.645
    3MOL     O6  474   2.027   2.702   4.732
    3MOL    C11  475   2.138   2.792   4.712
    3MOL     H9  476   2.207   2.750   4.638
    3MOL    C12  477   2.213   2.805   4.846
    3MOL    H10  478   2.310   2.854   4.831
    3MOL    H11  479   2.233   2.704   4.886
    3MOL     O7  480   2.132   2.880   4.939
    3MOL    C13  481   2.196   2.906   5.064
    3MOL    C14  482   1.893   2.796   4.552
    3MOL    H12  483   1.815   2.837   4.618
    3MOL     O8  484   1.837   2.767   4.422
    3MOL    C15  485   1.711   2.701   4.426
    3MOL    C16  486   1.998   2.905   4.530
    3MOL    H13  487   2.065   2.875   4.448
    3MOL     O9  488   1.929   3.029   4.500
    3MOL    C17  489   1.941   3.072   4.364
    3MOL    C18  490   2.082   2.926   4.657
    3MOL    H14  491   2.018   2.974   4.733
    3MOL    O10  492   2.190   3.012   4.618
    3MOL    C19  493   2.221   3.118   4.710
    3MOL    H15  494   2.143   3.128   4.786
    3MOL    O11  495   2.347   3.086   4.772
    3MOL    C20  496   2.454   3.069   4.677
    3MOL    H16  497   2.425   2.998   4.598
    3MOL    C21  498   2.578   3.011   4.747
    3MOL    H17  499   2.649   2.975   4.670
    3MOL    H18  500   2.549   2.925   4.809
    3MOL    O12  501   2.640   3.114   4.825
    3MOL    C22  502   2.758   3.071   4.892
    3MOL    C23  503   2.234   3.251   4.629
    3MOL    H19  504   2.253   3.333   4.700
    3MOL    O13  505   2.113   3.277   4.556
    3MOL    C24  506   2.000   3.314   4.637
    3MOL    C25  507   2.353   3.247   4.530
    3MOL    H20  508   2.336   3.173   4.452
    3MOL    O14  509   2.369   3.381   4.474
    3MOL    C26  510   2.303   3.402   4.347
    3MOL    C27  511   2.479   3.206   4.614
    3MOL    H21  512   2.499   3.280   4.691
    3MOL    O15  513   2.595   3.185   4.534
    3MOL    C28  514   2.661   3.302   4.486
    3MOL    H22  515   2.594   3.388   4.484
    3MOL    O16  516   2.774   3.327   4.566
    3MOL    C29  517   2.873   3.224   4.574
    3MOL    H23  518   2.831   3.133   4.620
    3MOL    C30  519   2.978   3.286   4.665
    3MOL    H24  520   3.055   3.215   4.693
    3MOL    H25  521   2.929   3.319   4.758
    3MOL    O17  522   3.033   3.400   4.596
    3MOL    C31  523   3.128   3.475   4.672
    3MOL    C32  524   2.701   3.269   4.345
    3MOL    H26  525   2.739   3.361   4.297
    3MOL    O18  526   2.573   3.230   4.294
    3MOL    C33  527   2.558   3.269   4.164
    3MOL    C34  528   2.807   3.156   4.334
    3MOL    H27  529   2.760   3.059   4.362
    3MOL    O19  530   2.861   3.149   4.200
    3MOL    C35  531   2.898   3.018   4.151
    3MOL    C36  532   2.924   3.186   4.431
    3MOL    H28  533   2.979   3.272   4.388
    3MOL    O20  534   3.010   3.071   4.438
    3MOL    C37  535   3.149   3.098   4.465
    3MOL    H29  536   3.169   3.206   4.456
    3MOL    O21  537   3.179   3.055   4.599
    3MOL    C38  538   3.155   2.915   4.625
    3MOL    H30  539   3.054   2.888   4.596
    3MOL    C39  540   3.168   2.894   4.778
    3MOL    H31  541   3.131   2.794   4.804
    3MOL    H32  542   3.106   2.968   4.829
    3MOL    O22  543   3.305   2.909   4.820
    3MOL    C40  544   3.323   2.887   4.960
    3MOL    C41  545   3.241   3.023   4.367
    3MOL    H33  546   3.343   3.058   4.383
    3MOL    O23  547   3.203   3.045   4.229
    3MOL    C42  548   3.236   3.174   4.178
    3MOL    C43  549   3.240   2.871   4.391
    3MOL    H34  550   3.146   2.830   4.354
    3MOL    O24  551   3.354   2.815   4.324
    3MOL    C44  552   3.321   2.747   4.202
    3MOL    C45  553   3.257   2.836   4.540
    3MOL    H35  554   3.358   2.863   4.570
    3MOL    O25  555   3.233   2.694   4.551
    3MOL    C46  556   3.322   2.626   4.642
    3MOL    H36  557   3.400   2.693   4.679
    3MOL    O26  558   3.243   2.578   4.751
    3MOL    C47  559   3.137   2.486   4.716
    3MOL    H37  560   3.070   2.533   4.643
    3MOL    C48  561   3.054   2.458   4.842
    3MOL    H38  562   2.958   2.415   4.812
    3MOL    H39  563   3.034   2.552   4.895
    3MOL    O27  564   3.126   2.367   4.927
    3MOL    C49  565   3.052   2.326   5.042
    3MOL    C50  566   3.391   2.506   4.570
    3MOL    H40  567   3.469   2.466   4.635
    3MOL    O28  568   3.448   2.550   4.445
    3MOL    C51  569   3.573   2.618   4.456
    3MOL    C52  570   3.293   2.394   4.535
    3MOL    H41  571   3.231   2.425   4.450
    3MOL    O29  572   3.372   2.277   4.504
    3MOL    C53  573   3.364   2.236   4.367
    3MOL    C54  574   3.201   2.359   4.653
    3MOL    H42  575   3.263   2.309   4.728
    3MOL    O30  576   3.097   2.272   4.601
    3MOL    C55  577   3.081   2.149   4.675
    3MOL    H43  578   3.168   2.132   4.739
    3MOL    O31  579   2.963   2.159   4.757
    3MOL    C56  580   2.839   2.177   4.684
    3MOL    H44  581   2.842   2.271   4.628
    3MOL    C57  582   2.724   2.181   4.785
    3MOL    H45  583   2.733   2.096   4.854
    3MOL    H46  584   2.628   2.174   4.733
    3MOL    O32  585   2.728   2.305   4.857
    3MOL    C58  586   2.630   2.311   4.961
    3MOL    C59  587   3.068   2.027   4.581
    3MOL    H47  588   3.063   1.937   4.643
    3MOL    O33  589   3.184   2.020   4.496
    3MOL    C60  590   3.304   1.968   4.556
    3MOL    C61  591   2.941   2.032   4.495
    3MOL    H48  592   2.949   2.113   4.422
    3MOL    O34  593   2.923   1.903   4.430
    3MOL    C62  594   2.996   1.882   4.307
    3MOL    C63  595   2.817   2.060   4.585
    3MOL    H49  596   2.793   1.970   4.643
    3MOL    O35  597   2.707   2.100   4.502
    3MOL    C64  598   2.620   1.993   4.461
    3MOL    H50  599   2.677   1.900   4.455
    3MOL    O36  600   2.513   1.979   4.556
    3MOL    C65  601   2.419   2.089   4.563
    3MOL    H51  602   2.474   2.180   4.586
    3MOL    C66  603   2.327   2.059   4.681
    3MOL    H52  604   2.279   1.962   4.667
    3MOL    H53  605   2.250   2.137   4.689
    3MOL    O37  606   2.408   2.060   4.800
    3MOL    C67  607   2.345   2.008   4.918
    3MOL    C68  608   2.560   2.025   4.322
    3MOL    H54  609   2.511   1.934   4.286
    3MOL    O38  610   2.665   2.066   4.235
    3MOL    C69  611   2.721   1.952   4.174
    3MOL    C70  612   2.455   2.136   4.320
    3MOL    H55  613   2.503   2.231   4.345
    3MOL    O39  614   2.395   2.137   4.189
    3MOL    C71  615   2.408   2.263   4.120
    3MOL    C72  616   2.348   2.107   4.425
    3MOL    H56  617   2.294   2.015   4.398
    3MOL    O40  618   2.261   2.222   4.421
    3MOL    H57  619   1.764   2.370   4.893
    3MOL    H58  620   1.920   2.302   4.946
    3MOL    H59  621   1.902   2.479   4.928
    3MOL    H60  622   2.412   2.015   5.003
    3MOL    H61  623   2.254   2.064   4.941
    3MOL    H62  624   2.319   1.902   4.903
    3MOL    H63  625   2.645   2.401   5.021
    3MOL    H64  626   2.529   2.312   4.918
    3MOL    H65  627   2.640   2.224   5.027
    3MOL    H66  628   3.118   2.268   5.108
    3MOL    H67  629   3.017   2.414   5.098
    3MOL    H68  630   2.966   2.265   5.013
    3MOL    H69  631   3.424   2.915   4.991
    3MOL    H70  632   3.253   2.949   5.018
    3MOL    H71  633   3.307   2.781   4.985
    3MOL    H72  634   3.164   3.560   4.614
    3MOL    H73  635   3.083   3.511   4.765
    3MOL    H74  636   3.214   3.412   4.698
    3MOL    H75  637   2.808   3.158   4.933
    3MOL    H76  638   2.730   3.006   4.976
    3MOL    H77  639   2.826   3.019   4.824
    3MOL    H78  640   2.125   2.957   5.131
    3MOL    H79  641   2.227   2.813   5.112
    3MOL    H80  642   2.284   2.971   5.050
    3MOL    H81  643   1.881   3.161   4.347
    3MOL    H82  644   2.046   3.095   4.341
    3MOL    H83  645   1.907   2.992   4.297
    3MOL    H84  646   1.669   2.697   4.325
    3MOL    H85  647   1.723   2.598   4.463
    3MOL    H86  648   1.642   2.756   4.491
    3MOL    H87  649   1.902   2.633   4.123
    3MOL    H88  650   2.039   2.670   4.230
    3MOL    H89  651   2.055   2.544   4.104
    3MOL    H90  652   2.092   2.132   4.022
    3MOL    H91  653   2.120   2.051   4.178
    3MOL    H92  654   1.956   2.109   4.135
    3MOL    H93  655   2.361   2.256   4.021
    3MOL    H94  656   2.358   2.342   4.176
    3MOL    H95  657   2.514   2.289   4.106
    3MOL    H96  658   2.796   1.983   4.098
    3MOL    H97  659   2.764   1.886   4.248
    3MOL    H98  660   2.641   1.894   4.130
    3MOL    H99  661   2.968   1.786   4.262
    3MOL   H100  662   2.969   1.960   4.234
    3MOL   H101  663   3.103   1.884   4.322
    3MOL   H102  664   3.376   1.942   4.477
    3MOL   H103  665   3.348   2.043   4.622
    3MOL   H104  666   3.282   1.878   4.614
    3MOL   H105  667   3.418   2.142   4.353
    3MOL   H106  668   3.260   2.221   4.339
    3MOL   H107  669   3.407   2.313   4.303
    3MOL   H108  670   3.616   2.634   4.357
    3MOL   H109  671   3.559   2.716   4.504
    3MOL   H110  672   3.643   2.558   4.516
    3MOL   H111  673   3.414   2.725   4.149
    3MOL   H112  674   3.268   2.654   4.223
    3MOL   H113  675   3.258   2.811   4.139
    3MOL   H114  676   3.230   3.174   4.068
    3MOL   H115  677   3.165   3.249   4.217
    3MOL   H116  678   3.338   3.203   4.206
    3MOL   H117  679   2.954   3.025   4.057
    3MOL   H118  680   2.960   2.963   4.223
    3MOL   H119  681   2.808   2.959   4.131
    3MOL   H120  682   2.463   3.236   4.121
    3MOL   H121  683   2.571   3.378   4.153
    3MOL   H122  684   2.640   3.213   4.121
    3MOL   H123  685   2.328   3.501   4.307
    3MOL   H124  686   2.334   3.327   4.274
    3MOL   H125  687   2.194   3.395   4.357
    3MOL   H126  688   1.916   3.343   4.572
    3MOL   H127  689   1.967   3.229   4.698
    3MOL   H128  690   2.026   3.398   4.702
    4SOL     OW  691   0.224   0.625   0.106
    4SOL    HW1  692   0.167   0.583   0.171
    4SOL    HW2  693   0.247   0.554   0.046
    5SOL     OW  694   0.232   0.281   0.990
    5SOL    HW1  695   0.251   0.243   1.076
    5SOL    HW2  696   0.152   0.237   0.961
    6SOL     OW  697   0.001   0.407   0.661
    6SOL    HW1  698   5.209   0.428   0.668
    6SOL    HW2  699   0.003   0.316   0.631
    7SOL     OW  700   0.574   1.284   1.181
    7SOL    HW1  701   0.491   1.292   1.134
    7SOL    HW2  702   0.590   1.372   1.216
    8SOL     OW  703   1.561   1.512   0.707
    8SOL    HW1  704   1.518   1.492   0.790
    8SOL    HW2  705   1.489   1.515   0.644
    9SOL     OW  706   1.131   0.698   0.702
    9SOL    HW1  707   1.180   0.779   0.687
    9SOL    HW2  708   1.084   0.712   0.784
   10SOL     OW  709   1.771   0.600   0.231
   10SOL    HW1  710   1.728   0.604   0.146
   10SOL    HW2  711   1.730   0.525   0.275
   11SOL     OW  712   0.756   1.141   1.039
   11SOL    HW1  713   0.689   1.175   1.098
   11SOL    HW2  714   0.791   1.219   0.995
   12SOL     OW  715   0.865   0.778   1.822
   12SOL    HW1  716   0.857   0.850   1.885
   12SOL    HW2  717   0.889   0.820   1.740
   13SOL     OW  718   0.684   1.002   0.650
   13SOL    HW1  719   0.750   0.990   0.718
   13SOL    HW2  720   0.617   1.056   0.691
   14SOL     OW  721   0.709   1.151   1.813
   14SOL    HW1  722   0.758   1.229   1.839
   14SOL    HW2  723   0.627   1.184   1.777
   15SOL     OW  724   0.358   1.405   1.060
   15SOL    HW1  725   0.271   1.401   1.021
   15SOL    HW2  726   0.406   1.467   1.006
   16SOL     OW  727   1.461   1.499   1.354
   16SOL    HW1  728   1.511   1.580   1.364
   16SOL    HW2  729   1.399   1.500   1.427
   17SOL     OW  730   0.448   0.399   1.490
   17SOL    HW1  731   0.528   0.346   1.485
   17SOL    HW2  732   0.377   0.336   1.497
   18SOL     OW  733   1.611   0.451   0.738
   18SOL    HW1  734   1.532   0.473   0.687
   18SOL    HW2  735   1.628   0.530   0.790
   19SOL     OW  736   0.217   1.730   0.466
   19SOL    HW1  737   0.259   1.785   0.531
   19SOL    HW2  738   0.287   1.707   0.404
   20SOL     OW  739   1.136   1.342   1.692
   20SOL    HW1  740   1.177   1.337   1.779
   20SOL    HW2  741   1.084   1.262   1.686
   21SOL     OW  742   0.221   1.448   0.533
   21SOL    HW1  743   0.201   1.542   0.540
   21SOL    HW2  744   0.159   1.406   0.593
   22SOL     OW  745   0.253   1.079   0.878
   22SOL    HW1  746   0.260   0.992   0.918
   22SOL    HW2  747   0.199   1.129   0.938
   23SOL     OW  748   0.614   1.790   1.433
   23SOL    HW1  749   0.530   1.773   1.475
   23SOL    HW2  750   0.634   1.881   1.455
   24SOL     OW  751   0.622   0.959   0.137
   24SOL    HW1  752   0.578   1.039   0.108
   24SOL    HW2  753   0.678   0.988   0.209
   25SOL     OW  754   1.587   0.135   1.456
   25SOL    HW1  755   1.608   0.220   1.417
   25SOL    HW2  756   1.584   0.152   1.551
   26SOL     OW  757   0.128   0.639   0.582
   26SOL    HW1  758   0.092   0.555   0.609
   26SOL    HW2  759   0.097   0.701   0.649
   27SOL     OW  760   1.845   1.758   0.332
   27SOL    HW1  761   1.909   1.728   0.396
   27SOL    HW2  762   1.870   1.849   0.314
   28SOL     OW  763   0.032   1.585   0.105
   28SOL    HW1  764   0.024   1.499   0.147
   28SOL    HW2  765   0.006   1.647   0.172
   29SOL     OW  766   1.689   0.919   0.644
   29SOL    HW1  767   1.771   0.876   0.621
   29SOL    HW2  768   1.666   0.970   0.566
   30SOL     OW  769   1.646   1.105   0.434
   30SOL    HW1  770   1.726   1.119   0.385
   30SOL    HW2  771   1.651   1.167   0.507
   31SOL     OW  772   0.130   0.749   1.587
   31SOL    HW1  773   0.224   0.763   1.588
   31SOL    HW2  774   0.092   0.836   1.600
   32SOL     OW  775   0.615   1.386   0.734
   32SOL    HW1  776   0.568   1.303   0.745
   32SOL    HW2  777   0.598   1.412   0.644
   33SOL     OW  778   1.289   1.238   1.424
   33SOL    HW1  779   1.321   1.171   1.363
   33SOL    HW2  780   1.346   1.232   1.500
   34SOL     OW  781   0.815   0.027   0.528
   34SOL    HW1  782   0.844   0.114   0.499
   34SOL    HW2  783   0.720   0.029   0.521
   35SOL     OW  784   0.176   0.945   1.278
   35SOL    HW1  785   0.267   0.917   1.268
   35SOL    HW2  786   0.134   0.923   1.195
   36SOL     OW  787   1.510   1.006   0.212
   36SOL    HW1  788   1.448   0.941   0.245
   36SOL    HW2  789   1.562   1.031   0.288
   37SOL     OW  790   1.185   1.806   1.622
   37SOL    HW1  791   1.196   1.865   1.547
   37SOL    HW2  792   1.202   1.719   1.586
   38SOL     OW  793   0.327   0.276   1.797
   38SOL    HW1  794   0.387   0.337   1.840
   38SOL    HW2  795   0.246   0.281   1.848
   39SOL     OW  796   1.467   1.419   0.952
   39SOL    HW1  797   1.398   1.435   1.017
   39SOL    HW2  798   1.454   1.328   0.925
   40SOL     OW  799   1.660   1.740   0.581
   40SOL    HW1  800   1.638   1.712   0.492
   40SOL    HW2  801   1.634   1.666   0.636
   41SOL     OW  802   0.595   0.714   0.279
   41SOL    HW1  803   0.617   0.794   0.231
   41SOL    HW2  804   0.535   0.742   0.348
   42SOL     OW  805   1.278   0.347   0.932
   42SOL    HW1  806   1.187   0.318   0.944
   42SOL    HW2  807   1.327   0.296   0.996
   43SOL     OW  808   1.587   1.671   0.319
   43SOL    HW1  809   1.677   1.700   0.312
   43SOL    HW2  810   1.560   1.654   0.229
   44SOL     OW  811   0.794   0.618   1.451
   44SOL    HW1  812   0.766   0.596   1.540
   44SOL    HW2  813   0.752   0.552   1.396
   45SOL     OW  814   1.395   0.475   1.678
   45SOL    HW1  815   1.397   0.520   1.763
   45SOL    HW2  816   1.458   0.404   1.687
   46SOL     OW  817   0.955   0.887   1.582
   46SOL    HW1  818   1.009   0.817   1.547
   46SOL    HW2  819   0.907   0.921   1.507
   47SOL     OW  820   0.993   0.417   1.235
   47SOL    HW1  821   0.908   0.438   1.273
   47SOL    HW2  822   0.973   0.368   1.156
   48SOL     OW  823   1.052   0.699   0.428
   48SOL    HW1  824   1.068   0.691   0.522
   48SOL    HW2  825   0.970   0.653   0.413
   49SOL     OW  826   0.068   0.790   0.816
   49SOL    HW1  827   0.151   0.794   0.863
   49SOL    HW2  828   0.066   0.870   0.765
   50SOL     OW  829   0.130   1.883   1.585
   50SOL    HW1  830   0.133   1.854   1.675
   50SOL    HW2  831   0.059   1.833   1.545
   51SOL     OW  832   0.886   0.359   0.202
   51SOL    HW1  833   0.930   0.406   0.131
   51SOL    HW2  834   0.868   0.272   0.166
   52SOL     OW  835   1.708   0.574   1.828
   52SOL    HW1  836   1.671   0.648   1.780
   52SOL    HW2  837   1.737   0.514   1.760
   53SOL     OW  838   1.376   1.142   0.541
   53SOL    HW1  839   1.455   1.128   0.488
   53SOL    HW2  840   1.323   1.204   0.492
   54SOL     OW  841   0.537   0.201   0.884
   54SOL    HW1  842   0.554   0.220   0.977
   54SOL    HW2  843   0.549   0.284   0.839
   55SOL     OW  844   1.005   1.444   0.473
   55SOL    HW1  845   0.967   1.517   0.423
   55SOL    HW2  846   0.986   1.466   0.564
   56SOL     OW  847   0.357   1.802   0.868
   56SOL    HW1  848   0.398   1.716   0.882
   56SOL    HW2  849   0.423   1.864   0.899
   57SOL     OW  850   1.799   1.058   0.868
   57SOL    HW1  851   1.745   1.038   0.792
   57SOL    HW2  852   1.737   1.063   0.941
   58SOL     OW  853   1.228   1.539   1.513
   58SOL    HW1  854   1.214   1.466   1.573
   58SOL    HW2  855   1.164   1.524   1.443
   59SOL     OW  856   0.326   0.948   0.248
   59SOL    HW1  857   0.407   0.967   0.200
   59SOL    HW2  858   0.319   0.853   0.246
   60SOL     OW  859   1.478   0.743   0.726
   60SOL    HW1  860   1.469   0.699   0.811
   60SOL    HW2  861   1.556   0.798   0.736
   61SOL     OW  862   0.465   1.264   1.737
   61SOL    HW1  863   0.438   1.270   1.646
   61SOL    HW2  864   0.383   1.265   1.787
   62SOL     OW  865   1.108   1.781   0.224
   62SOL    HW1  866   1.052   1.741   0.290
   62SOL    HW2  867   1.128   1.710   0.163
   63SOL     OW  868   0.197   0.278   1.493
   63SOL    HW1  869   0.158   0.366   1.488
   63SOL    HW2  870   0.206   0.262   1.587
   64SOL     OW  871   1.634   1.373   0.082
   64SOL    HW1  872   1.592   1.459   0.082
   64SOL    HW2  873   1.562   1.312   0.064
   65SOL     OW  874   0.470   1.734   0.325
   65SOL    HW1  875   0.513   1.794   0.386
   65SOL    HW2  876   0.540   1.708   0.265
   66SOL     OW  877   1.415   0.100   0.446
   66SOL    HW1  878   1.406   0.079   0.352
   66SOL    HW2  879   1.506   0.127   0.456
   67SOL     OW  880   0.277   1.801   1.213
   67SOL    HW1  881   0.306   1.724   1.262
   67SOL    HW2  882   0.225   1.765   1.141
   68SOL     OW  883   0.938   1.699   0.899
   68SOL    HW1  884   1.016   1.646   0.920
   68SOL    HW2  885   0.894   1.649   0.830
   69SOL     OW  886   0.380   0.698   0.475
   69SOL    HW1  887   0.413   0.609   0.485
   69SOL    HW2  888   0.289   0.694   0.503
   70SOL     OW  889   1.539   0.228   1.723
   70SOL    HW1  890   1.546   0.245   1.817
   70SOL    HW2  891   1.464   0.169   1.716
   71SOL     OW  892   0.625   0.138   0.122
   71SOL    HW1  893   0.715   0.109   0.134
   71SOL    HW2  894   0.597   0.097   0.040
   72SOL     OW  895   0.781   0.313   1.766
   72SOL    HW1  896   0.840   0.237   1.767
   72SOL    HW2  897   0.734   0.307   1.849
   73SOL     OW  898   0.877   1.522   1.193
   73SOL    HW1  899   0.861   1.485   1.106
   73SOL    HW2  900   0.947   1.467   1.230
   74SOL     OW  901   1.341   0.589   1.432
   74SOL    HW1  902   1.371   0.558   1.517
   74SOL    HW2  903   1.377   0.677   1.425
   75SOL     OW  904   0.815   1.394   0.939
   75SOL    HW1  905   0.900   1.383   0.895
   75SOL    HW2  906   0.751   1.396   0.868
   76SOL     OW  907   0.927   0.510   0.903
   76SOL    HW1  908   0.904   0.502   0.810
   76SOL    HW2  909   0.958   0.423   0.927
   77SOL     OW  910   0.549   0.058   0.508
   77SOL    HW1  911   0.469   0.058   0.560
   77SOL    HW2  912   0.536   0.129   0.444
   78SOL     OW  913   1.433   1.199   0.036
   78SOL    HW1  914   1.457   1.125   0.092
   78SOL    HW2  915   1.345   1.223   0.065
   79SOL     OW  916   0.317   0.072   0.198
   79SOL    HW1  917   0.378   0.141   0.172
   79SOL    HW2  918   0.367   5.291   0.192
   80SOL     OW  919   0.945   0.258   0.454
   80SOL    HW1  920   0.918   0.304   0.374
   80SOL    HW2  921   1.037   0.280   0.464
   81SOL     OW  922   1.081   0.681   1.460
   81SOL    HW1  923   1.012   0.615   1.464
   81SOL    HW2  924   1.162   0.631   1.452
   82SOL     OW  925   1.224   1.569   0.794
   82SOL    HW1  926   1.239   1.637   0.728
   82SOL    HW2  927   1.292   1.584   0.860
   83SOL     OW  928   0.468   1.151   0.732
   83SOL    HW1  929   0.399   1.131   0.795
   83SOL    HW2  930   0.427   1.135   0.647
   84SOL     OW  931   1.268   1.794   0.607
   84SOL    HW1  932   1.317   1.857   0.555
   84SOL    HW2  933   1.201   1.846   0.651
   85SOL     OW  934   1.030   0.529   0.031
   85SOL    HW1  935   0.991   0.611   0.002
   85SOL    HW2  936   1.093   0.554   0.098
   86SOL     OW  937   0.098   0.531   1.412
   86SOL    HW1  938   0.179   0.550   1.363
   86SOL    HW2  939   0.078   0.612   1.457
   87SOL     OW  940   0.560   0.240   1.159
   87SOL    HW1  941   0.591   0.153   1.184
   87SOL    HW2  942   0.467   0.240   1.182
   88SOL     OW  943   0.868   0.461   0.639
   88SOL    HW1  944   0.824   0.514   0.573
   88SOL    HW2  945   0.889   0.379   0.594
   89SOL     OW  946   0.978   0.061   0.762
   89SOL    HW1  947   0.914   0.056   0.691
   89SOL    HW2  948   0.986   5.271   0.793
   90SOL     OW  949   1.437   1.163   0.857
   90SOL    HW1  950   1.368   1.097   0.856
   90SOL    HW2  951   1.460   1.174   0.765
   91SOL     OW  952   1.467   0.606   0.977
   91SOL    HW1  953   1.417   0.524   0.981
   91SOL    HW2  954   1.527   0.600   1.052
   92SOL     OW  955   1.848   0.815   0.387
   92SOL    HW1  956   1.900   0.762   0.448
   92SOL    HW2  957   1.817   0.753   0.321
   93SOL     OW  958   0.483   1.440   0.173
   93SOL    HW1  959   0.410   1.401   0.221
   93SOL    HW2  960   0.487   1.391   0.091
   94SOL     OW  961   1.671   1.265   0.647
   94SOL    HW1  962   1.765   1.269   0.660
   94SOL    HW2  963   1.640   1.354   0.668
   95SOL     OW  964   1.399   0.578   0.087
   95SOL    HW1  965   1.336   0.559   0.157
   95SOL    HW2  966   1.454   0.500   0.083
   96SOL     OW  967   0.523   0.268   0.328
   96SOL    HW1  968   0.565   0.213   0.263
   96SOL    HW2  969   0.507   0.351   0.282
   97SOL     OW  970   1.752   1.239   1.573
   97SOL    HW1  971   1.840   1.200   1.570
   97SOL    HW2  972   1.768   1.329   1.602
   98SOL     OW  973   1.059   1.353   1.334
   98SOL    HW1  974   0.984   1.322   1.385
   98SOL    HW2  975   1.135   1.312   1.375
   99SOL     OW  976   1.607   1.625   1.654
   99SOL    HW1  977   1.602   1.659   1.564
   99SOL    HW2  978   1.690   1.578   1.656
  100SOL     OW  979   1.129   1.203   1.105
  100SOL    HW1  980   1.070   1.241   1.170
  100SOL    HW2  981   1.096   1.235   1.021
  101SOL     OW  982   1.628   1.098   1.077
  101SOL    HW1  983   1.624   1.160   1.150
  101SOL    HW2  984   1.549   1.115   1.026
  102SOL     OW  985   0.905   0.107   1.390
  102SOL    HW1  986   0.936   0.073   1.306
  102SOL    HW2  987   0.982   0.149   1.428
  103SOL     OW  988   0.984   1.115   1.722
  103SOL    HW1  989   0.892   1.131   1.743
  103SOL    HW2  990   0.983   1.037   1.667
  104SOL     OW  991   0.714   1.062   0.381
  104SOL    HW1  992   0.698   1.045   0.474
  104SOL    HW2  993   0.792   1.010   0.360
  105SOL     OW  994   0.420   0.820   1.252
  105SOL    HW1  995   0.490   0.826   1.318
  105SOL    HW2  996   0.386   0.731   1.262
  106SOL     OW  997   1.267   0.379   1.273
  106SOL    HW1  998   1.300   0.456   1.319
  106SOL    HW2  999   1.177   0.401   1.250
  107SOL     OW 1000   0.102   1.624   1.367
  107SOL    HW1 1001   0.079   1.630   1.274
  107SOL    HW2 1002   0.188   1.581   1.367
  108SOL     OW 1003   0.345   1.108   0.488
  108SOL    HW1 1004   0.345   1.187   0.434
  108SOL    HW2 1005   0.361   1.037   0.426
  109SOL     OW 1006   0.556   0.537   0.860
  109SOL    HW1 1007   0.571   0.595   0.786
  109SOL    HW2 1008   0.621   0.564   0.925
  110SOL     OW 1009   1.247   1.347   0.393
  110SOL    HW1 1010   1.303   1.420   0.422
  110SOL    HW2 1011   1.160   1.370   0.425
  111SOL     OW 1012   1.281   1.457   1.147
  111SOL    HW1 1013   1.336   1.460   1.225
  111SOL    HW2 1014   1.225   1.380   1.159
  112SOL     OW 1015   1.582   0.625   0.481
  112SOL    HW1 1016   1.533   0.675   0.546
  112SOL    HW2 1017   1.618   0.692   0.422
  113SOL     OW 1018   0.352   1.519   1.311
  113SOL    HW1 1019   0.341   1.476   1.226
  113SOL    HW2 1020   0.445   1.537   1.317
  114SOL     OW 1021   0.415   0.741   1.602
  114SOL    HW1 1022   0.473   0.789   1.544
  114SOL    HW2 1023   0.460   0.658   1.618
  115SOL     OW 1024   1.601   0.778   1.681
  115SOL    HW1 1025   1.515   0.820   1.675
  115SOL    HW2 1026   1.653   0.821   1.613
  116SOL     OW 1027   1.044   0.117   1.782
  116SOL    HW1 1028   1.070   0.196   1.735
  116SOL    HW2 1029   1.050   0.047   1.718
  117SOL     OW 1030   0.483   0.059   1.738
  117SOL    HW1 1031   0.427   5.291   1.700
  117SOL    HW2 1032   0.424   0.132   1.755
  118SOL     OW 1033   0.586   0.873   1.032
  118SOL    HW1 1034   0.616   0.964   1.031
  118SOL    HW2 1035   0.529   0.869   1.109
  119SOL     OW 1036   1.358   0.859   1.030
  119SOL    HW1 1037   1.275   0.850   0.983
  119SOL    HW2 1038   1.398   0.772   1.024
  120SOL     OW 1039   1.203   0.527   0.270
  120SOL    HW1 1040   1.211   0.448   0.322
  120SOL    HW2 1041   1.161   0.590   0.328
  121SOL     OW 1042   0.304   0.205   1.245
  121SOL    HW1 1043   0.263   0.236   1.326
  121SOL    HW2 1044   0.299   0.110   1.250
  122SOL     OW 1045   0.069   1.319   1.281
  122SOL    HW1 1046   0.091   1.259   1.352
  122SOL    HW2 1047   5.299   1.374   1.316
  123SOL     OW 1048   0.727   0.632   1.061
  123SOL    HW1 1049   0.800   0.615   1.001
  123SOL    HW2 1050   0.698   0.721   1.038
  124SOL     OW 1051   1.734   0.959   1.852
  124SOL    HW1 1052   1.688   0.898   1.795
  124SOL    HW2 1053   1.675   0.973   1.926
  125SOL     OW 1054   0.318   0.066   0.654
  125SOL    HW1 1055   0.299   0.160   0.662
  125SOL    HW2 1056   0.320   0.035   0.744
  126SOL     OW 1057   1.621   0.378   0.367
  126SOL    HW1 1058   1.648   0.312   0.431
  126SOL    HW2 1059   1.595   0.453   0.421
  127SOL     OW 1060   1.028   0.759   0.961
  127SOL    HW1 1061   1.025   0.777   1.055
  127SOL    HW2 1062   1.001   0.668   0.952
  128SOL     OW 1063   0.982   1.566   1.717
  128SOL    HW1 1064   0.967   1.610   1.633
  128SOL    HW2 1065   1.026   1.484   1.693
  129SOL     OW 1066   1.854   1.506   1.605
  129SOL    HW1 1067   1.873   1.532   1.515
  129SOL    HW2 1068   1.935   1.524   1.653
  130SOL     OW 1069   0.354   0.917   1.807
  130SOL    HW1 1070   0.434   0.937   1.853
  130SOL    HW2 1071   0.380   0.853   1.741
  131SOL     OW 1072   1.521   0.302   0.126
  131SOL    HW1 1073   1.484   0.215   0.141
  131SOL    HW2 1074   1.561   0.325   0.210
  132SOL     OW 1075   1.295   0.824   0.021
  132SOL    HW1 1076   1.333   0.738   0.039
  132SOL    HW2 1077   1.355   0.865   8.039
  133SOL     OW 1078   1.066   1.335   0.854
  133SOL    HW1 1079   1.069   1.263   0.791
  133SOL    HW2 1080   1.127   1.400   0.819
  134SOL     OW 1081   0.314   0.810   0.949
  134SOL    HW1 1082   0.408   0.828   0.945
  134SOL    HW2 1083   0.309   0.719   0.981
  135SOL     OW 1084   0.336   0.526   1.015
  135SOL    HW1 1085   0.299   0.440   0.999
  135SOL    HW2 1086   0.411   0.531   0.956
  136SOL     OW 1087   1.135   0.378   1.688
  136SOL    HW1 1088   1.088   0.432   1.751
  136SOL    HW2 1089   1.223   0.417   1.684
  137SOL     OW 1090   1.133   0.223   1.466
  137SOL    HW1 1091   1.138   0.282   1.541
  137SOL    HW2 1092   1.189   0.264   1.400
  138SOL     OW 1093   0.009   1.329   0.202
  138SOL    HW1 1094   5.235   1.316   0.143
  138SOL    HW2 1095   0.015   1.247   0.251
  139SOL     OW 1096   0.093   1.783   0.948
  139SOL    HW1 1097   0.059   1.710   0.895
  139SOL    HW2 1098   0.181   1.798   0.914
  140SOL     OW 1099   0.505   1.573   0.907
  140SOL    HW1 1100   0.572   1.638   0.928
  140SOL    HW2 1101   0.548   1.512   0.848
  141SOL     OW 1102   0.983   0.793   1.227
  141SOL    HW1 1103   1.039   0.769   1.301
  141SOL    HW2 1104   0.898   0.755   1.248
  142SOL     OW 1105   0.036   0.567   1.120
  142SOL    HW1 1106   0.117   0.534   1.080
  142SOL    HW2 1107   0.038   0.533   1.209
  143SOL     OW 1108   0.168   0.515   1.715
  143SOL    HW1 1109   0.251   0.495   1.673
  143SOL    HW2 1110   0.137   0.594   1.671
  144SOL     OW 1111   1.377   0.939   1.659
  144SOL    HW1 1112   1.398   1.032   1.657
  144SOL    HW2 1113   1.374   0.913   1.566
  145SOL     OW 1114   0.818   0.571   0.366
  145SOL    HW1 1115   0.828   0.499   0.304
  145SOL    HW2 1116   0.741   0.618   0.335
  146SOL     OW 1117   1.642   0.601   1.186
  146SOL    HW1 1118   1.631   0.542   1.260
  146SOL    HW2 1119   1.729   0.581   1.152
  147SOL     OW 1120   0.257   1.556   1.735
  147SOL    HW1 1121   0.234   1.619   1.803
  147SOL    HW2 1122   0.249   1.470   1.777
  148SOL     OW 1123   0.698   0.453   1.262
  148SOL    HW1 1124   0.648   0.379   1.227
  148SOL    HW2 1125   0.697   0.517   1.190
  149SOL     OW 1126   0.929   1.679   1.467
  149SOL    HW1 1127   0.902   1.645   1.382
  149SOL    HW2 1128   0.923   1.774   1.458
  150SOL     OW 1129   0.469   0.491   0.176
  150SOL    HW1 1130   0.536   0.556   0.195
  150SOL    HW2 1131   0.386   0.534   0.195
  151SOL     OW 1132   0.148   1.137   1.471
  151SOL    HW1 1133   0.146   1.089   1.553
  151SOL    HW2 1134   0.160   1.070   1.404
  152SOL     OW 1135   1.326   1.047   1.223
  152SOL    HW1 1136   1.349   0.984   1.155
  152SOL    HW2 1137   1.256   1.099   1.184
  153SOL     OW 1138   1.306   0.849   0.308
  153SOL    HW1 1139   1.229   0.819   0.357
  153SOL    HW2 1140   1.282   0.837   0.216
  154SOL     OW 1141   1.771   1.745   1.150
  154SOL    HW1 1142   1.832   1.770   1.080
  154SOL    HW2 1143   1.747   1.654   1.129
  155SOL     OW 1144   1.241   1.733   1.113
  155SOL    HW1 1145   1.323   1.753   1.068
  155SOL    HW2 1146   1.247   1.639   1.131
  156SOL     OW 1147   0.083   1.217   1.027
  156SOL    HW1 1148   0.069   1.243   1.119
  156SOL    HW2 1149   5.294   1.206   0.992
  157SOL     OW 1150   0.678   1.666   1.729
  157SOL    HW1 1151   0.622   1.744   1.724
  157SOL    HW2 1152   0.742   1.677   1.659
  158SOL     OW 1153   0.893   0.086   0.139
  158SOL    HW1 1154   0.943   0.077   0.057
  158SOL    HW2 1155   0.911   0.005   0.187
  159SOL     OW 1156   1.713   0.149   0.504
  159SOL    HW1 1157   1.787   0.127   0.448
  159SOL    HW2 1158   1.705   0.074   0.563
  160SOL     OW 1159   1.390   1.568   0.486
  160SOL    HW1 1160   1.453   1.601   0.422
  160SOL    HW2 1161   1.342   1.646   0.515
  161SOL     OW 1162   0.145   1.798   1.842
  161SOL    HW1 1163   0.090   1.735   1.889
  161SOL    HW2 1164   0.191   1.846   1.911
  162SOL     OW 1165   1.277   0.926   0.671
  162SOL    HW1 1166   1.351   0.865   0.678
  162SOL    HW2 1167   1.310   0.998   0.619
  163SOL     OW 1168   0.814   1.273   1.430
  163SOL    HW1 1169   0.786   1.313   1.512
  163SOL    HW2 1170   0.745   1.294   1.368
  164SOL     OW 1171   0.678   1.620   0.156
  164SOL    HW1 1172   0.681   1.628   0.060
  164SOL    HW2 1173   0.617   1.548   0.171
  165SOL     OW 1174   1.626   1.727   1.391
  165SOL    HW1 1175   1.676   1.733   1.310
  165SOL    HW2 1176   1.613   1.817   1.419
  166SOL     OW 1177   1.846   0.157   0.957
  166SOL    HW1 1178   1.845   0.062   0.944
  166SOL    HW2 1179   1.759   0.185   0.929
  167SOL     OW 1180   0.271   0.329   0.719
  167SOL    HW1 1181   0.184   0.366   0.702
  167SOL    HW2 1182   0.272   0.313   0.813
  168SOL     OW 1183   1.156   1.581   0.051
  168SOL    HW1 1184   1.172   1.489   0.071
  168SOL    HW2 1185   1.167   1.588   8.036
  169SOL     OW 1186   0.824   1.006   1.372
  169SOL    HW1 1187   0.868   1.001   1.288
  169SOL    HW2 1188   0.824   1.099   1.394
  170SOL     OW 1189   0.917   0.913   0.297
  170SOL    HW1 1190   0.972   0.938   0.222
  170SOL    HW2 1191   0.965   0.842   0.339
  171SOL     OW 1192   1.510   1.624   0.061
  171SOL    HW1 1193   1.415   1.625   0.050
  171SOL    HW2 1194   1.545   1.625   8.051
  172SOL     OW 1195   0.368   1.304   1.493
  172SOL    HW1 1196   0.359   1.378   1.434
  172SOL    HW2 1197   0.292   1.249   1.474
  173SOL     OW 1198   1.611   1.283   1.281
  173SOL    HW1 1199   1.670   1.272   1.355
  173SOL    HW2 1200   1.550   1.352   1.308
  174SOL     OW 1201   1.051   1.107   0.706
  174SOL    HW1 1202   0.981   1.055   0.746
  174SOL    HW2 1203   1.114   1.042   0.675
  175SOL     OW 1204   1.019   0.243   0.968
  175SOL    HW1 1205   0.999   0.197   0.886
  175SOL    HW2 1206   1.012   0.175   1.036
  176SOL     OW 1207   0.602   1.487   0.479
  176SOL    HW1 1208   0.645   1.438   0.409
  176SOL    HW2 1209   0.535   1.538   0.435
  177SOL     OW 1210   1.724   0.387   1.378
  177SOL    HW1 1211   1.794   0.452   1.377
  177SOL    HW2 1212   1.756   0.317   1.320
  178SOL     OW 1213   0.269   1.325   0.299
  178SOL    HW1 1214   0.183   1.336   0.258
  178SOL    HW2 1215   0.261   1.372   0.383
  179SOL     OW 1216   0.116   1.016   1.718
  179SOL    HW1 1217   0.044   0.982   1.772
  179SOL    HW2 1218   0.195   0.985   1.761
  180SOL     OW 1219   0.674   0.215   1.489
  180SOL    HW1 1220   0.757   0.197   1.446
  180SOL    HW2 1221   0.698   0.260   1.570
  181SOL     OW 1222   0.086   0.354   0.003
  181SOL    HW1 1223   0.003   0.320   0.036
  181SOL    HW2 1224   0.065   0.441   8.049
  182SOL     OW 1225   1.430   0.858   1.400
  182SOL    HW1 1226   1.381   0.919   1.345
  182SOL    HW2 1227   1.519   0.861   1.366
  183SOL     OW 1228   0.079   0.141   0.289
  183SOL    HW1 1229   0.078   0.236   0.281
  183SOL    HW2 1230   0.168   0.116   0.265
  184SOL     OW 1231   1.184   1.318   0.121
  184SOL    HW1 1232   1.089   1.307   0.121
  184SOL    HW2 1233   1.208   1.320   0.214
  185SOL     OW 1234   0.619   0.831   1.435
  185SOL    HW1 1235   0.675   0.907   1.419
  185SOL    HW2 1236   0.681   0.758   1.443
  186SOL     OW 1237   1.484   1.776   0.978
  186SOL    HW1 1238   1.508   1.836   0.907
  186SOL    HW2 1239   1.566   1.758   1.023
  187SOL     OW 1240   0.713   0.573   1.704
  187SOL    HW1 1241   0.756   0.636   1.762
  187SOL    HW2 1242   0.745   0.488   1.734
  188SOL     OW 1243   1.471   1.200   1.632
  188SOL    HW1 1244   1.459   1.214   1.726
  188SOL    HW2 1245   1.565   1.215   1.617
  189SOL     OW 1246   0.378   1.742   1.564
  189SOL    HW1 1247   0.295   1.788   1.548
  189SOL    HW2 1248   0.353   1.662   1.609
  190SOL     OW 1249   1.670   0.881   1.255
  190SOL    HW1 1250   1.663   0.796   1.212
  190SOL    HW2 1251   1.660   0.945   1.184
  191SOL     OW 1252   1.216   0.328   0.473
  191SOL    HW1 1253   1.274   0.254   0.458
  191SOL    HW2 1254   1.255   0.374   0.547
  192SOL     OW 1255   0.589   0.737   0.669
  192SOL    HW1 1256   0.628   0.823   0.654
  192SOL    HW2 1257   0.519   0.732   0.604
  193SOL     OW 1258   1.766   0.362   1.649
  193SOL    HW1 1259   1.747   0.376   1.556
  193SOL    HW2 1260   1.695   0.306   1.680
  194SOL     OW 1261   1.744   0.934   1.512
  194SOL    HW1 1262   1.742   1.028   1.525
  194SOL    HW2 1263   1.729   0.922   1.418
  195SOL     OW 1264   0.893   1.372   0.035
  195SOL    HW1 1265   0.831   1.363   0.107
  195SOL    HW2 1266   0.878   1.460   0.000
  196SOL     OW 1267   0.663   1.794   0.944
  196SOL    HW1 1268   0.642   1.884   0.921
  196SOL    HW2 1269   0.758   1.789   0.937
  197SOL     OW 1270   0.867   0.966   0.855
  197SOL    HW1 1271   0.917   0.895   0.894
  197SOL    HW2 1272   0.833   1.016   0.929
  198SOL     OW 1273   1.076   0.976   0.085
  198SOL    HW1 1274   1.068   1.041   0.015
  198SOL    HW2 1275   1.154   0.926   0.062
  199SOL     OW 1276   1.854   1.555   0.844
  199SOL    HW1 1277   1.776   1.543   0.790
  199SOL    HW2 1278   1.846   1.488   0.913
  200SOL     OW 1279   0.225   1.305   1.860
  200SOL    HW1 1280   0.157   1.243   1.834
  200SOL    HW2 1281   0.214   1.315   1.954
  201SOL     OW 1282   0.094   1.233   0.660
  201SOL    HW1 1283   0.098   1.188   0.744
  201SOL    HW2 1284   0.171   1.202   0.613
  202SOL     OW 1285   0.681   1.402   1.628
  202SOL    HW1 1286   0.600   1.360   1.658
  202SOL    HW2 1287   0.677   1.491   1.664
  203SOL     OW 1288   1.814   0.177   1.233
  203SOL    HW1 1289   1.781   0.088   1.238
  203SOL    HW2 1290   1.832   0.190   1.139
  204SOL     OW 1291   0.430   0.440   0.521
  204SOL    HW1 1292   0.465   0.366   0.471
  204SOL    HW2 1293   0.386   0.399   0.596
  205SOL     OW 1294   1.700   1.490   1.097
  205SOL    HW1 1295   1.619   1.466   1.051
  205SOL    HW2 1296   1.712   1.421   1.162
  206SOL     OW 1297   0.336   0.561   1.289
  206SOL    HW1 1298   0.393   0.503   1.339
  206SOL    HW2 1299   0.350   0.534   1.198
  207SOL     OW 1300   0.828   1.577   0.678
  207SOL    HW1 1301   0.815   1.631   0.600
  207SOL    HW2 1302   0.751   1.520   0.680
  208SOL     OW 1303   1.428   0.218   1.117
  208SOL    HW1 1304   1.464   0.143   1.164
  208SOL    HW2 1305   1.379   0.267   1.183
  209SOL     OW 1306   1.001   0.021   1.141
  209SOL    HW1 1307   0.951   5.253   1.096
  209SOL    HW2 1308   1.088   5.282   1.154
  210SOL     OW 1309   0.771   1.326   0.307
  210SOL    HW1 1310   0.740   1.237   0.323
  210SOL    HW2 1311   0.852   1.333   0.358
  211SOL     OW 1312   0.623   1.556   1.287
  211SOL    HW1 1313   0.624   1.638   1.336
  211SOL    HW2 1314   0.709   1.550   1.247
  212SOL     OW 1315   1.393   0.044   0.169
  212SOL    HW1 1316   1.385   0.027   0.076
  212SOL    HW2 1317   1.306   0.071   0.197
  213SOL     OW 1318   1.308   0.467   0.690
  213SOL    HW1 1319   1.249   0.543   0.693
  213SOL    HW2 1320   1.297   0.425   0.775
  214SOL     OW 1321   1.595   0.216   0.882
  214SOL    HW1 1322   1.528   0.227   0.950
  214SOL    HW2 1323   1.587   0.294   0.828
  215SOL     OW 1324   0.046   1.075   0.313
  215SOL    HW1 1325   0.135   1.048   0.291
  215SOL    HW2 1326   5.297   0.993   0.322
  216SOL     OW 1327   0.883   1.653   0.347
  216SOL    HW1 1328   0.814   1.637   0.282
  216SOL    HW2 1329   0.852   1.729   0.396
  217SOL     OW 1330   0.233   0.633   1.979
  217SOL    HW1 1331   0.157   0.606   2.031
  217SOL    HW2 1332   0.214   0.600   1.891
  218SOL     OW 1333   0.233   0.280   2.852
  218SOL    HW1 1334   0.252   0.243   2.938
  218SOL    HW2 1335   0.153   0.236   2.824
  219SOL     OW 1336   5.300   0.406   2.526
  219SOL    HW1 1337   5.207   0.428   2.530
  219SOL    HW2 1338   0.002   0.316   2.495
  220SOL     OW 1339   0.574   1.284   3.043
  220SOL    HW1 1340   0.491   1.292   2.996
  220SOL    HW2 1341   0.590   1.372   3.078
  221SOL     OW 1342   1.561   1.511   2.569
  221SOL    HW1 1343   1.518   1.492   2.652
  221SOL    HW2 1344   1.489   1.516   2.505
  222SOL     OW 1345   1.131   0.698   2.563
  222SOL    HW1 1346   1.180   0.779   2.549
  222SOL    HW2 1347   1.084   0.713   2.645
  223SOL     OW 1348   1.766   0.606   2.091
  223SOL    HW1 1349   1.746   0.598   1.997
  223SOL    HW2 1350   1.732   0.526   2.129
  224SOL     OW 1351   0.755   1.141   2.901
  224SOL    HW1 1352   0.688   1.175   2.960
  224SOL    HW2 1353   0.791   1.219   2.857
  225SOL     OW 1354   0.865   0.778   3.684
  225SOL    HW1 1355   0.857   0.850   3.747
  225SOL    HW2 1356   0.889   0.820   3.602
  226SOL     OW 1357   0.685   1.003   2.509
  226SOL    HW1 1358   0.751   0.991   2.578
  226SOL    HW2 1359   0.617   1.056   2.551
  227SOL     OW 1360   0.709   1.151   3.675
  227SOL    HW1 1361   0.758   1.229   3.701
  227SOL    HW2 1362   0.627   1.184   3.639
  228SOL     OW 1363   0.358   1.405   2.922
  228SOL    HW1 1364   0.270   1.405   2.885
  228SOL    HW2 1365   0.407   1.467   2.868
  229SOL     OW 1366   1.460   1.499   3.216
  229SOL    HW1 1367   1.512   1.579   3.225
  229SOL    HW2 1368   1.399   1.501   3.289
  230SOL     OW 1369   0.449   0.399   3.352
  230SOL    HW1 1370   0.528   0.346   3.347
  230SOL    HW2 1371   0.378   0.336   3.359
  231SOL     OW 1372   1.610   0.451   2.600
  231SOL    HW1 1373   1.535   0.475   2.546
  231SOL    HW2 1374   1.629   0.530   2.651
  232SOL     OW 1375   0.231   1.714   2.339
  232SOL    HW1 1376   0.264   1.783   2.397
  232SOL    HW2 1377   0.293   1.711   2.267
  233SOL     OW 1378   1.136   1.341   3.554
  233SOL    HW1 1379   1.177   1.337   3.641
  233SOL    HW2 1380   1.084   1.261   3.548
  234SOL     OW 1381   0.222   1.444   2.401
  234SOL    HW1 1382   0.215   1.539   2.397
  234SOL    HW2 1383   0.152   1.417   2.461
  235SOL     OW 1384   0.250   1.078   2.737
  235SOL    HW1 1385   0.261   0.993   2.780
  235SOL    HW2 1386   0.198   1.129   2.799
  236SOL     OW 1387   0.614   1.790   3.295
  236SOL    HW1 1388   0.530   1.773   3.337
  236SOL    HW2 1389   0.635   1.881   3.317
  237SOL     OW 1390   0.583   0.983   1.997
  237SOL    HW1 1391   0.629   1.031   1.928
  237SOL    HW2 1392   0.625   1.012   2.078
  238SOL     OW 1393   1.586   0.135   3.318
  238SOL    HW1 1394   1.608   0.220   3.279
  238SOL    HW2 1395   1.584   0.152   3.412
  239SOL     OW 1396   0.124   0.637   2.439
  239SOL    HW1 1397   0.090   0.553   2.472
  239SOL    HW2 1398   0.098   0.701   2.505
  240SOL     OW 1399   1.842   1.759   2.197
  240SOL    HW1 1400   1.907   1.730   2.262
  240SOL    HW2 1401   1.866   1.849   2.178
  241SOL     OW 1402   0.038   1.599   1.994
  241SOL    HW1 1403   0.024   1.507   2.019
  241SOL    HW2 1404   5.283   1.649   2.054
  242SOL     OW 1405   1.689   0.918   2.503
  242SOL    HW1 1406   1.772   0.876   2.482
  242SOL    HW2 1407   1.667   0.969   2.424
  243SOL     OW 1408   1.646   1.107   2.291
  243SOL    HW1 1409   1.732   1.112   2.249
  243SOL    HW2 1410   1.651   1.168   2.365
  244SOL     OW 1411   0.130   0.749   3.449
  244SOL    HW1 1412   0.224   0.763   3.449
  244SOL    HW2 1413   0.092   0.836   3.463
  245SOL     OW 1414   0.615   1.385   2.597
  245SOL    HW1 1415   0.568   1.303   2.607
  245SOL    HW2 1416   0.598   1.412   2.506
  246SOL     OW 1417   1.288   1.238   3.286
  246SOL    HW1 1418   1.321   1.171   3.226
  246SOL    HW2 1419   1.346   1.232   3.362
  247SOL     OW 1420   0.814   0.027   2.389
  247SOL    HW1 1421   0.842   0.115   2.365
  247SOL    HW2 1422   0.719   0.029   2.381
  248SOL     OW 1423   0.176   0.946   3.141
  248SOL    HW1 1424   0.267   0.917   3.131
  248SOL    HW2 1425   0.134   0.923   3.057
  249SOL     OW 1426   1.531   0.993   2.060
  249SOL    HW1 1427   1.462   0.936   2.092
  249SOL    HW2 1428   1.572   1.028   2.140
  250SOL     OW 1429   1.184   1.806   3.484
  250SOL    HW1 1430   1.198   1.866   3.411
  250SOL    HW2 1431   1.202   1.719   3.448
  251SOL     OW 1432   0.327   0.276   3.659
  251SOL    HW1 1433   0.387   0.337   3.702
  251SOL    HW2 1434   0.246   0.281   3.710
  252SOL     OW 1435   1.467   1.419   2.814
  252SOL    HW1 1436   1.399   1.435   2.879
  252SOL    HW2 1437   1.454   1.328   2.787
  253SOL     OW 1438   1.658   1.739   2.440
  253SOL    HW1 1439   1.639   1.710   2.351
  253SOL    HW2 1440   1.634   1.665   2.496
  254SOL     OW 1441   0.594   0.721   2.127
  254SOL    HW1 1442   0.603   0.802   2.077
  254SOL    HW2 1443   0.530   0.741   2.195
  255SOL     OW 1444   1.278   0.347   2.793
  255SOL    HW1 1445   1.188   0.318   2.805
  255SOL    HW2 1446   1.328   0.297   2.857
  256SOL     OW 1447   1.581   1.670   2.171
  256SOL    HW1 1448   1.671   1.701   2.164
  256SOL    HW2 1449   1.554   1.653   2.081
  257SOL     OW 1450   0.794   0.618   3.313
  257SOL    HW1 1451   0.766   0.596   3.402
  257SOL    HW2 1452   0.751   0.552   3.258
  258SOL     OW 1453   1.395   0.475   3.540
  258SOL    HW1 1454   1.397   0.520   3.625
  258SOL    HW2 1455   1.458   0.404   3.549
  259SOL     OW 1456   0.955   0.887   3.444
  259SOL    HW1 1457   1.009   0.817   3.409
  259SOL    HW2 1458   0.907   0.922   3.368
  260SOL     OW 1459   0.994   0.417   3.097
  260SOL    HW1 1460   0.908   0.438   3.136
  260SOL    HW2 1461   0.972   0.368   3.018
  261SOL     OW 1462   1.051   0.698   2.289
  261SOL    HW1 1463   1.066   0.691   2.383
  261SOL    HW2 1464   0.968   0.652   2.275
  262SOL     OW 1465   0.071   0.788   2.674
  262SOL    HW1 1466   0.153   0.793   2.723
  262SOL    HW2 1467   0.063   0.873   2.632
  263SOL     OW 1468   0.130   1.883   3.447
  263SOL    HW1 1469   0.133   1.853   3.537
  263SOL    HW2 1470   0.059   1.833   3.407
  264SOL     OW 1471   0.873   0.364   2.050
  264SOL    HW1 1472   0.915   0.423   1.988
  264SOL    HW2 1473   0.927   0.285   2.048
  265SOL     OW 1474   1.708   0.574   3.690
  265SOL    HW1 1475   1.671   0.648   3.642
  265SOL    HW2 1476   1.737   0.514   3.622
  266SOL     OW 1477   1.376   1.142   2.403
  266SOL    HW1 1478   1.456   1.129   2.351
  266SOL    HW2 1479   1.324   1.204   2.353
  267SOL     OW 1480   0.537   0.202   2.745
  267SOL    HW1 1481   0.553   0.220   2.838
  267SOL    HW2 1482   0.549   0.286   2.702
  268SOL     OW 1483   1.005   1.444   2.334
  268SOL    HW1 1484   0.968   1.517   2.285
  268SOL    HW2 1485   0.989   1.466   2.426
  269SOL     OW 1486   0.357   1.802   2.731
  269SOL    HW1 1487   0.397   1.717   2.744
  269SOL    HW2 1488   0.423   1.865   2.760
  270SOL     OW 1489   1.799   1.057   2.730
  270SOL    HW1 1490   1.744   1.040   2.654
  270SOL    HW2 1491   1.737   1.062   2.803
  271SOL     OW 1492   1.228   1.539   3.375
  271SOL    HW1 1493   1.214   1.465   3.435
  271SOL    HW2 1494   1.165   1.525   3.305
  272SOL     OW 1495   0.316   0.952   2.110
  272SOL    HW1 1496   0.398   0.976   2.066
  272SOL    HW2 1497   0.294   0.866   2.073
  273SOL     OW 1498   1.478   0.743   2.589
  273SOL    HW1 1499   1.470   0.700   2.674
  273SOL    HW2 1500   1.556   0.798   2.598
  274SOL     OW 1501   0.465   1.263   3.599
  274SOL    HW1 1502   0.438   1.270   3.508
  274SOL    HW2 1503   0.383   1.265   3.649
  275SOL     OW 1504   1.122   1.778   2.093
  275SOL    HW1 1505   1.049   1.735   2.139
  275SOL    HW2 1506   1.145   1.716   2.023
  276SOL     OW 1507   0.197   0.279   3.355
  276SOL    HW1 1508   0.158   0.366   3.350
  276SOL    HW2 1509   0.207   0.262   3.449
  277SOL     OW 1510   1.628   1.380   1.949
  277SOL    HW1 1511   1.587   1.465   1.935
  277SOL    HW2 1512   1.559   1.316   1.930
  278SOL     OW 1513   0.471   1.735   2.182
  278SOL    HW1 1514   0.513   1.793   2.245
  278SOL    HW2 1515   0.542   1.704   2.126
  279SOL     OW 1516   1.407   0.100   2.293
  279SOL    HW1 1517   1.399   0.082   2.199
  279SOL    HW2 1518   1.499   0.122   2.306
  280SOL     OW 1519   0.276   1.801   3.076
  280SOL    HW1 1520   0.307   1.724   3.123
  280SOL    HW2 1521   0.225   1.766   3.002
  281SOL     OW 1522   0.939   1.699   2.761
  281SOL    HW1 1523   1.017   1.647   2.782
  281SOL    HW2 1524   0.894   1.649   2.692
  282SOL     OW 1525   0.385   0.696   2.341
  282SOL    HW1 1526   0.415   0.605   2.349
  282SOL    HW2 1527   0.292   0.693   2.362
  283SOL     OW 1528   1.539   0.228   3.585
  283SOL    HW1 1529   1.546   0.245   3.679
  283SOL    HW2 1530   1.464   0.169   3.578
  284SOL     OW 1531   0.621   0.132   1.969
  284SOL    HW1 1532   0.688   0.069   1.994
  284SOL    HW2 1533   0.574   0.091   1.896
  285SOL     OW 1534   0.781   0.313   3.628
  285SOL    HW1 1535   0.840   0.237   3.629
  285SOL    HW2 1536   0.734   0.307   3.711
  286SOL     OW 1537   0.877   1.521   3.055
  286SOL    HW1 1538   0.861   1.485   2.968
  286SOL    HW2 1539   0.947   1.467   3.091
  287SOL     OW 1540   1.341   0.589   3.294
  287SOL    HW1 1541   1.371   0.558   3.379
  287SOL    HW2 1542   1.377   0.677   3.286
  288SOL     OW 1543   0.815   1.394   2.801
  288SOL    HW1 1544   0.900   1.383   2.757
  288SOL    HW2 1545   0.751   1.396   2.730
  289SOL     OW 1546   0.927   0.510   2.765
  289SOL    HW1 1547   0.904   0.502   2.673
  289SOL    HW2 1548   0.959   0.423   2.790
  290SOL     OW 1549   0.547   0.058   2.366
  290SOL    HW1 1550   0.469   0.060   2.420
  290SOL    HW2 1551   0.535   0.130   2.304
  291SOL     OW 1552   1.428   1.198   1.903
  291SOL    HW1 1553   1.458   1.123   1.953
  291SOL    HW2 1554   1.343   1.219   1.941
  292SOL     OW 1555   0.315   0.064   2.047
  292SOL    HW1 1556   0.381   0.130   2.026
  292SOL    HW2 1557   0.364   5.283   2.058
  293SOL     OW 1558   0.940   0.263   2.325
  293SOL    HW1 1559   0.912   0.299   2.241
  293SOL    HW2 1560   1.035   0.274   2.325
  294SOL     OW 1561   1.081   0.681   3.322
  294SOL    HW1 1562   1.012   0.615   3.326
  294SOL    HW2 1563   1.162   0.631   3.314
  295SOL     OW 1564   1.224   1.569   2.656
  295SOL    HW1 1565   1.240   1.637   2.589
  295SOL    HW2 1566   1.291   1.585   2.722
  296SOL     OW 1567   0.467   1.150   2.594
  296SOL    HW1 1568   0.398   1.130   2.657
  296SOL    HW2 1569   0.428   1.132   2.508
  297SOL     OW 1570   1.269   1.794   2.470
  297SOL    HW1 1571   1.315   1.855   2.413
  297SOL    HW2 1572   1.202   1.847   2.514
  298SOL     OW 1573   1.026   0.546   1.884
  298SOL    HW1 1574   0.983   0.630   1.866
  298SOL    HW2 1575   1.089   0.566   1.953
  299SOL     OW 1576   0.098   0.531   3.273
  299SOL    HW1 1577   0.179   0.550   3.225
  299SOL    HW2 1578   0.078   0.612   3.319
  300SOL     OW 1579   0.560   0.239   3.020
  300SOL    HW1 1580   0.591   0.153   3.047
  300SOL    HW2 1581   0.467   0.239   3.044
  301SOL     OW 1582   0.867   0.463   2.503
  301SOL    HW1 1583   0.821   0.516   2.438
  301SOL    HW2 1584   0.890   0.383   2.457
  302SOL     OW 1585   0.979   0.060   2.624
  302SOL    HW1 1586   0.914   0.056   2.554
  302SOL    HW2 1587   0.987   5.270   2.656
  303SOL     OW 1588   1.437   1.163   2.719
  303SOL    HW1 1589   1.368   1.097   2.718
  303SOL    HW2 1590   1.462   1.174   2.628
  304SOL     OW 1591   1.466   0.606   2.840
  304SOL    HW1 1592   1.417   0.524   2.843
  304SOL    HW2 1593   1.527   0.601   2.914
  305SOL     OW 1594   1.845   0.817   2.244
  305SOL    HW1 1595   1.902   0.765   2.303
  305SOL    HW2 1596   1.817   0.754   2.177
  306SOL     OW 1597   0.492   1.417   2.020
  306SOL    HW1 1598   0.417   1.389   2.072
  306SOL    HW2 1599   0.475   1.382   1.933
  307SOL     OW 1600   1.670   1.264   2.509
  307SOL    HW1 1601   1.765   1.267   2.521
  307SOL    HW2 1602   1.640   1.352   2.529
  308SOL     OW 1603   1.394   0.572   1.933
  308SOL    HW1 1604   1.333   0.553   2.005
  308SOL    HW2 1605   1.479   0.541   1.965
  309SOL     OW 1606   0.522   0.265   2.182
  309SOL    HW1 1607   0.569   0.217   2.114
  309SOL    HW2 1608   0.503   0.350   2.143
  310SOL     OW 1609   1.752   1.239   3.436
  310SOL    HW1 1610   1.840   1.200   3.431
  310SOL    HW2 1611   1.767   1.329   3.463
  311SOL     OW 1612   1.059   1.353   3.195
  311SOL    HW1 1613   0.984   1.322   3.246
  311SOL    HW2 1614   1.135   1.312   3.237
  312SOL     OW 1615   1.607   1.624   3.516
  312SOL    HW1 1616   1.601   1.660   3.427
  312SOL    HW2 1617   1.691   1.578   3.518
  313SOL     OW 1618   1.128   1.202   2.967
  313SOL    HW1 1619   1.070   1.242   3.033
  313SOL    HW2 1620   1.096   1.236   2.883
  314SOL     OW 1621   1.628   1.098   2.939
  314SOL    HW1 1622   1.623   1.160   3.012
  314SOL    HW2 1623   1.549   1.115   2.888
  315SOL     OW 1624   0.905   0.107   3.252
  315SOL    HW1 1625   0.936   0.073   3.168
  315SOL    HW2 1626   0.982   0.149   3.290
  316SOL     OW 1627   0.984   1.114   3.585
  316SOL    HW1 1628   0.892   1.131   3.605
  316SOL    HW2 1629   0.983   1.037   3.529
  317SOL     OW 1630   0.707   1.060   2.234
  317SOL    HW1 1631   0.696   1.044   2.328
  317SOL    HW2 1632   0.784   1.007   2.210
  318SOL     OW 1633   0.420   0.820   3.115
  318SOL    HW1 1634   0.490   0.826   3.180
  318SOL    HW2 1635   0.386   0.731   3.124
  319SOL     OW 1636   1.267   0.379   3.134
  319SOL    HW1 1637   1.300   0.456   3.181
  319SOL    HW2 1638   1.177   0.401   3.112
  320SOL     OW 1639   0.101   1.623   3.229
  320SOL    HW1 1640   0.079   1.632   3.136
  320SOL    HW2 1641   0.187   1.581   3.229
  321SOL     OW 1642   0.343   1.106   2.350
  321SOL    HW1 1643   0.353   1.185   2.297
  321SOL    HW2 1644   0.353   1.034   2.287
  322SOL     OW 1645   0.555   0.537   2.722
  322SOL    HW1 1646   0.571   0.595   2.647
  322SOL    HW2 1647   0.620   0.564   2.787
  323SOL     OW 1648   1.248   1.348   2.251
  323SOL    HW1 1649   1.304   1.420   2.282
  323SOL    HW2 1650   1.161   1.370   2.285
  324SOL     OW 1651   1.281   1.457   3.009
  324SOL    HW1 1652   1.337   1.461   3.087
  324SOL    HW2 1653   1.225   1.381   3.022
  325SOL     OW 1654   1.582   0.623   2.341
  325SOL    HW1 1655   1.535   0.677   2.404
  325SOL    HW2 1656   1.627   0.685   2.284
  326SOL     OW 1657   0.352   1.519   3.173
  326SOL    HW1 1658   0.342   1.476   3.088
  326SOL    HW2 1659   0.445   1.537   3.179
  327SOL     OW 1660   0.415   0.741   3.464
  327SOL    HW1 1661   0.473   0.789   3.406
  327SOL    HW2 1662   0.460   0.658   3.480
  328SOL     OW 1663   1.601   0.779   3.543
  328SOL    HW1 1664   1.515   0.820   3.537
  328SOL    HW2 1665   1.654   0.821   3.475
  329SOL     OW 1666   1.044   0.117   3.644
  329SOL    HW1 1667   1.070   0.196   3.597
  329SOL    HW2 1668   1.051   0.047   3.579
  330SOL     OW 1669   0.483   0.059   3.600
  330SOL    HW1 1670   0.427   5.291   3.562
  330SOL    HW2 1671   0.424   0.132   3.617
  331SOL     OW 1672   0.585   0.874   2.894
  331SOL    HW1 1673   0.617   0.964   2.893
  331SOL    HW2 1674   0.529   0.869   2.971
  332SOL     OW 1675   1.358   0.859   2.892
  332SOL    HW1 1676   1.275   0.850   2.845
  332SOL    HW2 1677   1.398   0.772   2.886
  333SOL     OW 1678   1.205   0.528   2.129
  333SOL    HW1 1679   1.211   0.448   2.181
  333SOL    HW2 1680   1.163   0.592   2.187
  334SOL     OW 1681   0.304   0.206   3.107
  334SOL    HW1 1682   0.263   0.237   3.188
  334SOL    HW2 1683   0.297   0.110   3.112
  335SOL     OW 1684   0.069   1.319   3.142
  335SOL    HW1 1685   0.091   1.259   3.214
  335SOL    HW2 1686   5.299   1.374   3.178
  336SOL     OW 1687   0.726   0.632   2.922
  336SOL    HW1 1688   0.800   0.615   2.863
  336SOL    HW2 1689   0.698   0.721   2.899
  337SOL     OW 1690   1.735   0.959   3.715
  337SOL    HW1 1691   1.689   0.898   3.657
  337SOL    HW2 1692   1.675   0.973   3.788
  338SOL     OW 1693   0.318   0.068   2.516
  338SOL    HW1 1694   0.299   0.161   2.524
  338SOL    HW2 1695   0.322   0.036   2.606
  339SOL     OW 1696   1.612   0.375   2.227
  339SOL    HW1 1697   1.645   0.311   2.290
  339SOL    HW2 1698   1.592   0.452   2.279
  340SOL     OW 1699   1.028   0.759   2.823
  340SOL    HW1 1700   1.025   0.777   2.917
  340SOL    HW2 1701   1.001   0.668   2.814
  341SOL     OW 1702   0.981   1.565   3.579
  341SOL    HW1 1703   0.967   1.611   3.496
  341SOL    HW2 1704   1.026   1.484   3.555
  342SOL     OW 1705   1.854   1.504   3.468
  342SOL    HW1 1706   1.871   1.532   3.378
  342SOL    HW2 1707   1.936   1.521   3.514
  343SOL     OW 1708   0.354   0.917   3.669
  343SOL    HW1 1709   0.434   0.938   3.715
  343SOL    HW2 1710   0.380   0.853   3.603
  344SOL     OW 1711   1.526   0.272   1.988
  344SOL    HW1 1712   1.462   0.208   2.019
  344SOL    HW2 1713   1.563   0.310   2.068
  345SOL     OW 1714   1.292   0.826   1.893
  345SOL    HW1 1715   1.334   0.741   1.897
  345SOL    HW2 1716   1.323   0.866   1.812
  346SOL     OW 1717   1.066   1.335   2.716
  346SOL    HW1 1718   1.069   1.263   2.653
  346SOL    HW2 1719   1.128   1.400   2.681
  347SOL     OW 1720   0.314   0.810   2.812
  347SOL    HW1 1721   0.408   0.828   2.807
  347SOL    HW2 1722   0.309   0.720   2.843
  348SOL     OW 1723   0.336   0.526   2.877
  348SOL    HW1 1724   0.299   0.440   2.861
  348SOL    HW2 1725   0.411   0.531   2.818
  349SOL     OW 1726   1.135   0.378   3.550
  349SOL    HW1 1727   1.088   0.432   3.613
  349SOL    HW2 1728   1.223   0.417   3.546
  350SOL     OW 1729   1.133   0.223   3.328
  350SOL    HW1 1730   1.138   0.282   3.403
  350SOL    HW2 1731   1.189   0.264   3.262
  351SOL     OW 1732   0.002   1.330   2.072
  351SOL    HW1 1733   5.228   1.319   2.013
  351SOL    HW2 1734   0.012   1.244   2.113
  352SOL     OW 1735   0.093   1.782   2.813
  352SOL    HW1 1736   0.059   1.711   2.757
  352SOL    HW2 1737   0.180   1.800   2.778
  353SOL     OW 1738   0.505   1.573   2.769
  353SOL    HW1 1739   0.572   1.639   2.790
  353SOL    HW2 1740   0.548   1.512   2.710
  354SOL     OW 1741   0.983   0.792   3.089
  354SOL    HW1 1742   1.039   0.769   3.163
  354SOL    HW2 1743   0.898   0.755   3.110
  355SOL     OW 1744   0.036   0.566   2.981
  355SOL    HW1 1745   0.118   0.535   2.942
  355SOL    HW2 1746   0.038   0.533   3.071
  356SOL     OW 1747   0.167   0.515   3.577
  356SOL    HW1 1748   0.251   0.495   3.536
  356SOL    HW2 1749   0.137   0.594   3.533
  357SOL     OW 1750   1.377   0.939   3.521
  357SOL    HW1 1751   1.398   1.032   3.519
  357SOL    HW2 1752   1.374   0.913   3.428
  358SOL     OW 1753   0.814   0.572   2.224
  358SOL    HW1 1754   0.818   0.498   2.163
  358SOL    HW2 1755   0.740   0.624   2.192
  359SOL     OW 1756   1.642   0.601   3.048
  359SOL    HW1 1757   1.631   0.542   3.122
  359SOL    HW2 1758   1.729   0.581   3.014
  360SOL     OW 1759   0.256   1.556   3.597
  360SOL    HW1 1760   0.234   1.619   3.665
  360SOL    HW2 1761   0.249   1.471   3.640
  361SOL     OW 1762   0.697   0.453   3.123
  361SOL    HW1 1763   0.648   0.378   3.089
  361SOL    HW2 1764   0.697   0.517   3.052
  362SOL     OW 1765   0.928   1.679   3.330
  362SOL    HW1 1766   0.902   1.645   3.244
  362SOL    HW2 1767   0.924   1.774   3.320
  363SOL     OW 1768   0.464   0.492   2.042
  363SOL    HW1 1769   0.526   0.561   2.066
  363SOL    HW2 1770   0.380   0.538   2.035
  364SOL     OW 1771   0.148   1.138   3.333
  364SOL    HW1 1772   0.146   1.089   3.415
  364SOL    HW2 1773   0.160   1.070   3.266
  365SOL     OW 1774   1.326   1.047   3.085
  365SOL    HW1 1775   1.349   0.984   3.018
  365SOL    HW2 1776   1.255   1.099   3.046
  366SOL     OW 1777   1.311   0.857   2.168
  366SOL    HW1 1778   1.235   0.826   2.218
  366SOL    HW2 1779   1.287   0.843   2.077
  367SOL     OW 1780   1.772   1.744   3.013
  367SOL    HW1 1781   1.832   1.770   2.943
  367SOL    HW2 1782   1.748   1.654   2.991
  368SOL     OW 1783   1.241   1.733   2.974
  368SOL    HW1 1784   1.323   1.754   2.930
  368SOL    HW2 1785   1.247   1.639   2.993
  369SOL     OW 1786   0.082   1.217   2.889
  369SOL    HW1 1787   0.070   1.243   2.981
  369SOL    HW2 1788   5.294   1.206   2.855
  370SOL     OW 1789   0.678   1.666   3.591
  370SOL    HW1 1790   0.622   1.744   3.586
  370SOL    HW2 1791   0.742   1.677   3.521
  371SOL     OW 1792   1.712   0.148   2.365
  371SOL    HW1 1793   1.788   0.128   2.309
  371SOL    HW2 1794   1.705   0.074   2.424
  372SOL     OW 1795   1.390   1.568   2.347
  372SOL    HW1 1796   1.451   1.600   2.280
  372SOL    HW2 1797   1.342   1.645   2.375
  373SOL     OW 1798   0.145   1.798   3.704
  373SOL    HW1 1799   0.090   1.735   3.752
  373SOL    HW2 1800   0.191   1.845   3.773
  374SOL     OW 1801   1.277   0.925   2.533
  374SOL    HW1 1802   1.351   0.865   2.540
  374SOL    HW2 1803   1.311   0.998   2.481
  375SOL     OW 1804   0.815   1.273   3.292
  375SOL    HW1 1805   0.786   1.313   3.375
  375SOL    HW2 1806   0.745   1.295   3.230
  376SOL     OW 1807   0.672   1.619   2.017
  376SOL    HW1 1808   0.682   1.632   1.923
  376SOL    HW2 1809   0.618   1.541   2.025
  377SOL     OW 1810   1.624   1.723   3.252
  377SOL    HW1 1811   1.677   1.732   3.173
  377SOL    HW2 1812   1.607   1.813   3.279
  378SOL     OW 1813   1.845   0.157   2.819
  378SOL    HW1 1814   1.845   0.062   2.807
  378SOL    HW2 1815   1.759   0.185   2.791
  379SOL     OW 1816   0.270   0.328   2.580
  379SOL    HW1 1817   0.184   0.366   2.564
  379SOL    HW2 1818   0.273   0.313   2.675
  380SOL     OW 1819   1.207   1.606   1.894
  380SOL    HW1 1820   1.198   1.515   1.920
  380SOL    HW2 1821   1.142   1.618   1.824
  381SOL     OW 1822   0.824   1.006   3.234
  381SOL    HW1 1823   0.868   1.001   3.149
  381SOL    HW2 1824   0.823   1.099   3.256
  382SOL     OW 1825   0.915   0.910   2.152
  382SOL    HW1 1826   0.976   0.942   2.086
  382SOL    HW2 1827   0.963   0.841   2.197
  383SOL     OW 1828   1.492   1.625   1.904
  383SOL    HW1 1829   1.397   1.619   1.891
  383SOL    HW2 1830   1.529   1.631   1.816
  384SOL     OW 1831   0.368   1.304   3.355
  384SOL    HW1 1832   0.359   1.378   3.296
  384SOL    HW2 1833   0.291   1.249   3.335
  385SOL     OW 1834   1.611   1.283   3.142
  385SOL    HW1 1835   1.670   1.273   3.216
  385SOL    HW2 1836   1.550   1.352   3.170
  386SOL     OW 1837   1.052   1.107   2.568
  386SOL    HW1 1838   0.981   1.056   2.608
  386SOL    HW2 1839   1.114   1.041   2.537
  387SOL     OW 1840   1.019   0.243   2.830
  387SOL    HW1 1841   1.000   0.197   2.748
  387SOL    HW2 1842   1.012   0.176   2.898
  388SOL     OW 1843   0.601   1.487   2.343
  388SOL    HW1 1844   0.646   1.439   2.274
  388SOL    HW2 1845   0.535   1.539   2.297
  389SOL     OW 1846   1.724   0.387   3.240
  389SOL    HW1 1847   1.794   0.452   3.239
  389SOL    HW2 1848   1.756   0.317   3.182
  390SOL     OW 1849   0.260   1.348   2.154
  390SOL    HW1 1850   0.167   1.350   2.132
  390SOL    HW2 1851   0.264   1.385   2.242
  391SOL     OW 1852   0.116   1.015   3.579
  391SOL    HW1 1853   0.045   0.982   3.634
  391SOL    HW2 1854   0.195   0.985   3.623
  392SOL     OW 1855   0.674   0.215   3.351
  392SOL    HW1 1856   0.758   0.197   3.308
  392SOL    HW2 1857   0.698   0.260   3.432
  393SOL     OW 1858   0.078   0.337   1.899
  393SOL    HW1 1859   5.287   0.310   1.887
  393SOL    HW2 1860   0.093   0.405   1.833
  394SOL     OW 1861   1.430   0.858   3.262
  394SOL    HW1 1862   1.381   0.919   3.207
  394SOL    HW2 1863   1.519   0.861   3.228
  395SOL     OW 1864   0.083   0.141   2.156
  395SOL    HW1 1865   0.077   0.235   2.138
  395SOL    HW2 1866   0.170   0.117   2.125
  396SOL     OW 1867   1.179   1.339   1.979
  396SOL    HW1 1868   1.088   1.309   1.982
  396SOL    HW2 1869   1.207   1.340   2.070
  397SOL     OW 1870   0.619   0.831   3.297
  397SOL    HW1 1871   0.675   0.907   3.281
  397SOL    HW2 1872   0.681   0.758   3.305
  398SOL     OW 1873   1.483   1.776   2.840
  398SOL    HW1 1874   1.507   1.836   2.769
  398SOL    HW2 1875   1.566   1.759   2.885
  399SOL     OW 1876   0.713   0.573   3.566
  399SOL    HW1 1877   0.756   0.636   3.623
  399SOL    HW2 1878   0.745   0.488   3.596
  400SOL     OW 1879   1.471   1.200   3.494
  400SOL    HW1 1880   1.459   1.214   3.588
  400SOL    HW2 1881   1.565   1.215   3.479
  401SOL     OW 1882   0.378   1.742   3.426
  401SOL    HW1 1883   0.295   1.788   3.410
  401SOL    HW2 1884   0.353   1.662   3.471
  402SOL     OW 1885   1.669   0.881   3.117
  402SOL    HW1 1886   1.663   0.796   3.074
  402SOL    HW2 1887   1.660   0.945   3.047
  403SOL     OW 1888   1.221   0.319   2.327
  403SOL    HW1 1889   1.284   0.247   2.320
  403SOL    HW2 1890   1.251   0.371   2.402
  404SOL     OW 1891   0.590   0.738   2.531
  404SOL    HW1 1892   0.629   0.824   2.515
  404SOL    HW2 1893   0.521   0.730   2.465
  405SOL     OW 1894   1.766   0.362   3.511
  405SOL    HW1 1895   1.747   0.376   3.418
  405SOL    HW2 1896   1.695   0.306   3.542
  406SOL     OW 1897   1.745   0.934   3.374
  406SOL    HW1 1898   1.742   1.029   3.387
  406SOL    HW2 1899   1.730   0.922   3.281
  407SOL     OW 1900   0.862   1.367   1.896
  407SOL    HW1 1901   0.824   1.396   1.979
  407SOL    HW2 1902   0.881   1.448   1.849
  408SOL     OW 1903   0.663   1.794   2.805
  408SOL    HW1 1904   0.642   1.884   2.783
  408SOL    HW2 1905   0.758   1.789   2.800
  409SOL     OW 1906   0.867   0.966   2.716
  409SOL    HW1 1907   0.918   0.895   2.756
  409SOL    HW2 1908   0.833   1.016   2.791
  410SOL     OW 1909   1.078   0.987   1.950
  410SOL    HW1 1910   1.057   1.039   1.872
  410SOL    HW2 1911   1.153   0.934   1.925
  411SOL     OW 1912   1.854   1.555   2.707
  411SOL    HW1 1913   1.776   1.543   2.652
  411SOL    HW2 1914   1.846   1.488   2.775
  412SOL     OW 1915   0.225   1.305   3.722
  412SOL    HW1 1916   0.156   1.243   3.696
  412SOL    HW2 1917   0.214   1.315   3.816
  413SOL     OW 1918   0.087   1.220   2.516
  413SOL    HW1 1919   0.100   1.188   2.606
  413SOL    HW2 1920   0.174   1.214   2.476
  414SOL     OW 1921   0.681   1.402   3.490
  414SOL    HW1 1922   0.600   1.360   3.520
  414SOL    HW2 1923   0.677   1.491   3.526
  415SOL     OW 1924   1.814   0.177   3.095
  415SOL    HW1 1925   1.781   0.088   3.100
  415SOL    HW2 1926   1.832   0.190   3.002
  416SOL     OW 1927   0.433   0.436   2.384
  416SOL    HW1 1928   0.464   0.362   2.332
  416SOL    HW2 1929   0.387   0.396   2.458
  417SOL     OW 1930   1.700   1.489   2.959
  417SOL    HW1 1931   1.620   1.467   2.913
  417SOL    HW2 1932   1.711   1.420   3.024
  418SOL     OW 1933   0.336   0.560   3.151
  418SOL    HW1 1934   0.393   0.503   3.202
  418SOL    HW2 1935   0.350   0.533   3.060
  419SOL     OW 1936   0.828   1.577   2.540
  419SOL    HW1 1937   0.816   1.632   2.463
  419SOL    HW2 1938   0.751   1.521   2.542
  420SOL     OW 1939   1.428   0.218   2.978
  420SOL    HW1 1940   1.464   0.144   3.026
  420SOL    HW2 1941   1.379   0.268   3.044
  421SOL     OW 1942   1.002   0.021   3.003
  421SOL    HW1 1943   0.952   5.252   2.959
  421SOL    HW2 1944   1.088   5.283   3.016
  422SOL     OW 1945   0.772   1.333   2.177
  422SOL    HW1 1946   0.742   1.242   2.183
  422SOL    HW2 1947   0.854   1.334   2.226
  423SOL     OW 1948   0.623   1.556   3.149
  423SOL    HW1 1949   0.624   1.638   3.198
  423SOL    HW2 1950   0.709   1.550   3.109
  424SOL     OW 1951   1.354   0.039   2.024
  424SOL    HW1 1952   1.388   5.297   1.945
  424SOL    HW2 1953   1.276   5.288   2.046
  425SOL     OW 1954   1.301   0.464   2.547
  425SOL    HW1 1955   1.246   0.542   2.552
  425SOL    HW2 1956   1.294   0.423   2.633
  426SOL     OW 1957   1.594   0.216   2.744
  426SOL    HW1 1958   1.528   0.227   2.812
  426SOL    HW2 1959   1.587   0.294   2.690
  427SOL     OW 1960   0.048   1.069   2.152
  427SOL    HW1 1961   0.137   1.037   2.141
  427SOL    HW2 1962   5.300   0.994   2.187
  428SOL     OW 1963   0.885   1.652   2.204
  428SOL    HW1 1964   0.812   1.636   2.144
  428SOL    HW2 1965   0.857   1.727   2.256
  429SOL     OW 1966   0.233   0.633   3.841
  429SOL    HW1 1967   0.157   0.606   3.893
  429SOL    HW2 1968   0.214   0.600   3.753
  430SOL     OW 1969   0.233   0.280   4.714
  430SOL    HW1 1970   0.252   0.243   4.800
  430SOL    HW2 1971   0.153   0.236   4.686
  431SOL     OW 1972   5.300   0.406   4.388
  431SOL    HW1 1973   5.207   0.428   4.392
  431SOL    HW2 1974   0.002   0.316   4.357
  432SOL     OW 1975   0.574   1.284   4.905
  432SOL    HW1 1976   0.491   1.292   4.858
  432SOL    HW2 1977   0.590   1.371   4.940
  433SOL     OW 1978   1.560   1.510   4.432
  433SOL    HW1 1979   1.517   1.491   4.516
  433SOL    HW2 1980   1.488   1.515   4.369
  434SOL     OW 1981   1.131   0.698   4.425
  434SOL    HW1 1982   1.180   0.779   4.411
  434SOL    HW2 1983   1.084   0.713   4.507
  435SOL     OW 1984   1.766   0.606   3.953
  435SOL    HW1 1985   1.746   0.598   3.859
  435SOL    HW2 1986   1.732   0.526   3.991
  436SOL     OW 1987   0.755   1.141   4.763
  436SOL    HW1 1988   0.688   1.175   4.822
  436SOL    HW2 1989   0.791   1.219   4.719
  437SOL     OW 1990   0.864   0.778   5.546
  437SOL    HW1 1991   0.858   0.850   5.609
  437SOL    HW2 1992   0.889   0.820   5.464
  438SOL     OW 1993   0.685   1.003   4.371
  438SOL    HW1 1994   0.751   0.991   4.440
  438SOL    HW2 1995   0.617   1.056   4.413
  439SOL     OW 1996   0.709   1.150   5.537
  439SOL    HW1 1997   0.758   1.229   5.563
  439SOL    HW2 1998   0.627   1.184   5.501
  440SOL     OW 1999   0.358   1.405   4.784
  440SOL    HW1 2000   0.270   1.405   4.747
  440SOL    HW2 2001   0.407   1.467   4.730
  441SOL     OW 2002   1.461   1.500   5.078
  441SOL    HW1 2003   1.512   1.580   5.086
  441SOL    HW2 2004   1.401   1.501   5.152
  442SOL     OW 2005   0.449   0.399   5.214
  442SOL    HW1 2006   0.528   0.346   5.209
  442SOL    HW2 2007   0.378   0.336   5.221
  443SOL     OW 2008   1.611   0.451   4.462
  443SOL    HW1 2009   1.535   0.475   4.408
  443SOL    HW2 2010   1.629   0.530   4.514
  444SOL     OW 2011   0.231   1.714   4.201
  444SOL    HW1 2012   0.264   1.783   4.259
  444SOL    HW2 2013   0.293   1.711   4.129
  445SOL     OW 2014   1.136   1.342   5.417
  445SOL    HW1 2015   1.178   1.336   5.503
  445SOL    HW2 2016   1.084   1.261   5.410
  446SOL     OW 2017   0.222   1.444   4.263
  446SOL    HW1 2018   0.216   1.539   4.259
  446SOL    HW2 2019   0.152   1.418   4.323
  447SOL     OW 2020   0.249   1.078   4.599
  447SOL    HW1 2021   0.261   0.993   4.642
  447SOL    HW2 2022   0.198   1.129   4.661
  448SOL     OW 2023   0.614   1.790   5.156
  448SOL    HW1 2024   0.530   1.773   5.199
  448SOL    HW2 2025   0.635   1.881   5.179
  449SOL     OW 2026   0.583   0.983   3.859
  449SOL    HW1 2027   0.629   1.031   3.790
  449SOL    HW2 2028   0.625   1.012   3.940
  450SOL     OW 2029   1.586   0.135   5.180
  450SOL    HW1 2030   1.608   0.220   5.141
  450SOL    HW2 2031   1.584   0.152   5.275
  451SOL     OW 2032   0.124   0.636   4.301
  451SOL    HW1 2033   0.090   0.553   4.334
  451SOL    HW2 2034   0.098   0.701   4.367
  452SOL     OW 2035   1.841   1.766   4.063
  452SOL    HW1 2036   1.901   1.736   4.131
  452SOL    HW2 2037   1.880   1.846   4.029
  453SOL     OW 2038   0.038   1.599   3.856
  453SOL    HW1 2039   0.024   1.507   3.881
  453SOL    HW2 2040   5.283   1.649   3.916
  454SOL     OW 2041   1.689   0.918   4.365
  454SOL    HW1 2042   1.772   0.876   4.344
  454SOL    HW2 2043   1.667   0.968   4.286
  455SOL     OW 2044   1.646   1.107   4.153
  455SOL    HW1 2045   1.732   1.112   4.111
  455SOL    HW2 2046   1.651   1.168   4.227
  456SOL     OW 2047   0.130   0.749   5.311
  456SOL    HW1 2048   0.224   0.763   5.311
  456SOL    HW2 2049   0.092   0.836   5.325
  457SOL     OW 2050   0.615   1.385   4.459
  457SOL    HW1 2051   0.568   1.303   4.469
  457SOL    HW2 2052   0.598   1.412   4.368
  458SOL     OW 2053   1.288   1.238   5.148
  458SOL    HW1 2054   1.321   1.171   5.088
  458SOL    HW2 2055   1.346   1.232   5.224
  459SOL     OW 2056   0.814   0.027   4.251
  459SOL    HW1 2057   0.842   0.115   4.227
  459SOL    HW2 2058   0.719   0.029   4.243
  460SOL     OW 2059   0.176   0.946   5.003
  460SOL    HW1 2060   0.267   0.917   4.993
  460SOL    HW2 2061   0.135   0.923   4.919
  461SOL     OW 2062   1.532   0.993   3.922
  461SOL    HW1 2063   1.462   0.936   3.954
  461SOL    HW2 2064   1.572   1.028   4.002
  462SOL     OW 2065   1.184   1.806   5.346
  462SOL    HW1 2066   1.197   1.865   5.272
  462SOL    HW2 2067   1.202   1.719   5.310
  463SOL     OW 2068   0.327   0.276   5.521
  463SOL    HW1 2069   0.387   0.337   5.564
  463SOL    HW2 2070   0.246   0.281   5.572
  464SOL     OW 2071   1.466   1.419   4.676
  464SOL    HW1 2072   1.398   1.435   4.741
  464SOL    HW2 2073   1.453   1.328   4.649
  465SOL     OW 2074   1.661   1.731   4.304
  465SOL    HW1 2075   1.637   1.703   4.216
  465SOL    HW2 2076   1.633   1.658   4.360
  466SOL     OW 2077   0.594   0.721   3.989
  466SOL    HW1 2078   0.603   0.802   3.939
  466SOL    HW2 2079   0.530   0.741   4.057
  467SOL     OW 2080   1.278   0.347   4.655
  467SOL    HW1 2081   1.188   0.318   4.667
  467SOL    HW2 2082   1.328   0.297   4.719
  468SOL     OW 2083   1.579   1.669   4.034
  468SOL    HW1 2084   1.667   1.707   4.026
  468SOL    HW2 2085   1.552   1.652   3.943
  469SOL     OW 2086   0.794   0.618   5.175
  469SOL    HW1 2087   0.766   0.596   5.264
  469SOL    HW2 2088   0.751   0.552   5.120
  470SOL     OW 2089   1.394   0.475   5.402
  470SOL    HW1 2090   1.397   0.520   5.487
  470SOL    HW2 2091   1.458   0.404   5.411
  471SOL     OW 2092   0.954   0.887   5.306
  471SOL    HW1 2093   1.009   0.817   5.271
  471SOL    HW2 2094   0.907   0.922   5.230
  472SOL     OW 2095   0.994   0.417   4.959
  472SOL    HW1 2096   0.909   0.438   4.998
  472SOL    HW2 2097   0.972   0.368   4.880
  473SOL     OW 2098   1.051   0.698   4.151
  473SOL    HW1 2099   1.066   0.691   4.245
  473SOL    HW2 2100   0.968   0.652   4.137
  474SOL     OW 2101   0.071   0.788   4.536
  474SOL    HW1 2102   0.153   0.793   4.585
  474SOL    HW2 2103   0.063   0.874   4.494
  475SOL     OW 2104   0.130   1.883   5.309
  475SOL    HW1 2105   0.133   1.854   5.399
  475SOL    HW2 2106   0.059   1.833   5.269
  476SOL     OW 2107   0.873   0.364   3.912
  476SOL    HW1 2108   0.915   0.423   3.850
  476SOL    HW2 2109   0.927   0.285   3.911
  477SOL     OW 2110   1.707   0.574   5.552
  477SOL    HW1 2111   1.671   0.648   5.504
  477SOL    HW2 2112   1.737   0.514   5.484
  478SOL     OW 2113   1.377   1.142   4.265
  478SOL    HW1 2114   1.455   1.129   4.213
  478SOL    HW2 2115   1.324   1.204   4.215
  479SOL     OW 2116   0.537   0.202   4.607
  479SOL    HW1 2117   0.553   0.219   4.700
  479SOL    HW2 2118   0.549   0.286   4.564
  480SOL     OW 2119   1.005   1.444   4.196
  480SOL    HW1 2120   0.968   1.517   4.147
  480SOL    HW2 2121   0.988   1.466   4.288
  481SOL     OW 2122   0.357   1.802   4.593
  481SOL    HW1 2123   0.397   1.717   4.606
  481SOL    HW2 2124   0.423   1.865   4.622
  482SOL     OW 2125   1.798   1.057   4.591
  482SOL    HW1 2126   1.743   1.039   4.515
  482SOL    HW2 2127   1.737   1.063   4.664
  483SOL     OW 2128   1.228   1.539   5.237
  483SOL    HW1 2129   1.214   1.466   5.297
  483SOL    HW2 2130   1.165   1.525   5.167
  484SOL     OW 2131   0.316   0.952   3.972
  484SOL    HW1 2132   0.398   0.976   3.928
  484SOL    HW2 2133   0.294   0.866   3.935
  485SOL     OW 2134   1.478   0.742   4.451
  485SOL    HW1 2135   1.470   0.700   4.536
  485SOL    HW2 2136   1.556   0.798   4.460
  486SOL     OW 2137   0.465   1.263   5.462
  486SOL    HW1 2138   0.438   1.270   5.370
  486SOL    HW2 2139   0.382   1.265   5.511
  487SOL     OW 2140   1.122   1.777   3.955
  487SOL    HW1 2141   1.049   1.735   4.001
  487SOL    HW2 2142   1.145   1.717   3.885
  488SOL     OW 2143   0.197   0.279   5.217
  488SOL    HW1 2144   0.158   0.366   5.212
  488SOL    HW2 2145   0.207   0.262   5.311
  489SOL     OW 2146   1.628   1.379   3.813
  489SOL    HW1 2147   1.589   1.464   3.796
  489SOL    HW2 2148   1.559   1.316   3.793
  490SOL     OW 2149   0.471   1.735   4.044
  490SOL    HW1 2150   0.513   1.793   4.107
  490SOL    HW2 2151   0.542   1.704   3.987
  491SOL     OW 2152   1.407   0.100   4.155
  491SOL    HW1 2153   1.399   0.082   4.061
  491SOL    HW2 2154   1.499   0.122   4.167
  492SOL     OW 2155   0.276   1.801   4.938
  492SOL    HW1 2156   0.307   1.724   4.985
  492SOL    HW2 2157   0.225   1.766   4.864
  493SOL     OW 2158   0.939   1.699   4.623
  493SOL    HW1 2159   1.016   1.647   4.644
  493SOL    HW2 2160   0.894   1.649   4.554
  494SOL     OW 2161   0.385   0.696   4.203
  494SOL    HW1 2162   0.415   0.605   4.211
  494SOL    HW2 2163   0.292   0.693   4.224
  495SOL     OW 2164   1.539   0.227   5.447
  495SOL    HW1 2165   1.547   0.245   5.541
  495SOL    HW2 2166   1.463   0.170   5.440
  496SOL     OW 2167   0.621   0.132   3.831
  496SOL    HW1 2168   0.688   0.069   3.856
  496SOL    HW2 2169   0.574   0.091   3.758
  497SOL     OW 2170   0.781   0.312   5.490
  497SOL    HW1 2171   0.841   0.238   5.491
  497SOL    HW2 2172   0.735   0.307   5.573
  498SOL     OW 2173   0.877   1.521   4.918
  498SOL    HW1 2174   0.861   1.485   4.830
  498SOL    HW2 2175   0.947   1.467   4.953
  499SOL     OW 2176   1.341   0.589   5.156
  499SOL    HW1 2177   1.371   0.558   5.241
  499SOL    HW2 2178   1.377   0.677   5.148
  500SOL     OW 2179   0.815   1.394   4.663
  500SOL    HW1 2180   0.900   1.384   4.619
  500SOL    HW2 2181   0.751   1.396   4.592
  501SOL     OW 2182   0.927   0.510   4.628
  501SOL    HW1 2183   0.904   0.502   4.535
  501SOL    HW2 2184   0.959   0.423   4.652
  502SOL     OW 2185   0.547   0.058   4.228
  502SOL    HW1 2186   0.469   0.060   4.282
  502SOL    HW2 2187   0.535   0.130   4.166
  503SOL     OW 2188   1.428   1.198   3.765
  503SOL    HW1 2189   1.458   1.123   3.815
  503SOL    HW2 2190   1.343   1.220   3.802
  504SOL     OW 2191   0.315   0.064   3.908
  504SOL    HW1 2192   0.381   0.130   3.888
  504SOL    HW2 2193   0.364   5.283   3.920
  505SOL     OW 2194   0.940   0.263   4.187
  505SOL    HW1 2195   0.912   0.299   4.103
  505SOL    HW2 2196   1.035   0.274   4.187
  506SOL     OW 2197   1.081   0.681   5.184
  506SOL    HW1 2198   1.012   0.614   5.188
  506SOL    HW2 2199   1.162   0.631   5.177
  507SOL     OW 2200   1.224   1.569   4.518
  507SOL    HW1 2201   1.240   1.637   4.452
  507SOL    HW2 2202   1.291   1.584   4.584
  508SOL     OW 2203   0.467   1.150   4.456
  508SOL    HW1 2204   0.398   1.130   4.519
  508SOL    HW2 2205   0.428   1.132   4.370
  509SOL     OW 2206   1.269   1.794   4.331
  509SOL    HW1 2207   1.315   1.856   4.274
  509SOL    HW2 2208   1.203   1.847   4.376
  510SOL     OW 2209   1.025   0.546   3.746
  510SOL    HW1 2210   0.983   0.630   3.728
  510SOL    HW2 2211   1.089   0.566   3.815
  511SOL     OW 2212   0.098   0.531   5.135
  511SOL    HW1 2213   0.179   0.550   5.087
  511SOL    HW2 2214   0.078   0.612   5.181
  512SOL     OW 2215   0.560   0.239   4.882
  512SOL    HW1 2216   0.591   0.153   4.909
  512SOL    HW2 2217   0.467   0.239   4.906
  513SOL     OW 2218   0.867   0.463   4.365
  513SOL    HW1 2219   0.821   0.516   4.300
  513SOL    HW2 2220   0.890   0.383   4.319
  514SOL     OW 2221   0.979   0.060   4.486
  514SOL    HW1 2222   0.914   0.056   4.416
  514SOL    HW2 2223   0.987   5.270   4.518
  515SOL     OW 2224   1.437   1.162   4.581
  515SOL    HW1 2225   1.368   1.096   4.580
  515SOL    HW2 2226   1.460   1.174   4.489
  516SOL     OW 2227   1.466   0.606   4.701
  516SOL    HW1 2228   1.417   0.524   4.705
  516SOL    HW2 2229   1.527   0.601   4.775
  517SOL     OW 2230   1.845   0.816   4.106
  517SOL    HW1 2231   1.901   0.765   4.165
  517SOL    HW2 2232   1.817   0.754   4.039
  518SOL     OW 2233   0.492   1.417   3.882
  518SOL    HW1 2234   0.417   1.389   3.934
  518SOL    HW2 2235   0.475   1.382   3.795
  519SOL     OW 2236   1.672   1.265   4.369
  519SOL    HW1 2237   1.766   1.270   4.384
  519SOL    HW2 2238   1.639   1.352   4.392
  520SOL     OW 2239   1.394   0.572   3.795
  520SOL    HW1 2240   1.333   0.553   3.867
  520SOL    HW2 2241   1.479   0.541   3.827
  521SOL     OW 2242   0.522   0.265   4.044
  521SOL    HW1 2243   0.569   0.217   3.976
  521SOL    HW2 2244   0.503   0.350   4.005
  522SOL     OW 2245   1.753   1.239   5.298
  522SOL    HW1 2246   1.840   1.201   5.291
  522SOL    HW2 2247   1.768   1.329   5.326
  523SOL     OW 2248   1.059   1.352   5.057
  523SOL    HW1 2249   0.984   1.322   5.108
  523SOL    HW2 2250   1.135   1.312   5.099
  524SOL     OW 2251   1.607   1.625   5.377
  524SOL    HW1 2252   1.602   1.660   5.288
  524SOL    HW2 2253   1.691   1.578   5.380
  525SOL     OW 2254   1.128   1.202   4.829
  525SOL    HW1 2255   1.070   1.242   4.895
  525SOL    HW2 2256   1.096   1.236   4.746
  526SOL     OW 2257   1.629   1.098   4.801
  526SOL    HW1 2258   1.624   1.160   4.874
  526SOL    HW2 2259   1.550   1.115   4.750
  527SOL     OW 2260   0.905   0.107   5.114
  527SOL    HW1 2261   0.936   0.073   5.029
  527SOL    HW2 2262   0.982   0.149   5.152
  528SOL     OW 2263   0.984   1.115   5.447
  528SOL    HW1 2264   0.892   1.131   5.467
  528SOL    HW2 2265   0.983   1.037   5.391
  529SOL     OW 2266   0.707   1.060   4.096
  529SOL    HW1 2267   0.696   1.044   4.190
  529SOL    HW2 2268   0.784   1.007   4.072
  530SOL     OW 2269   0.420   0.820   4.977
  530SOL    HW1 2270   0.490   0.826   5.042
  530SOL    HW2 2271   0.386   0.731   4.986
  531SOL     OW 2272   1.267   0.379   4.996
  531SOL    HW1 2273   1.300   0.456   5.043
  531SOL    HW2 2274   1.177   0.401   4.974
  532SOL     OW 2275   0.101   1.623   5.091
  532SOL    HW1 2276   0.079   1.632   4.998
  532SOL    HW2 2277   0.187   1.581   5.091
  533SOL     OW 2278   0.343   1.106   4.212
  533SOL    HW1 2279   0.353   1.185   4.159
  533SOL    HW2 2280   0.353   1.034   4.149
  534SOL     OW 2281   0.555   0.537   4.584
  534SOL    HW1 2282   0.571   0.595   4.509
  534SOL    HW2 2283   0.620   0.564   4.649
  535SOL     OW 2284   1.248   1.348   4.113
  535SOL    HW1 2285   1.303   1.420   4.144
  535SOL    HW2 2286   1.161   1.369   4.147
  536SOL     OW 2287   1.281   1.457   4.871
  536SOL    HW1 2288   1.337   1.461   4.948
  536SOL    HW2 2289   1.226   1.380   4.885
  537SOL     OW 2290   1.582   0.623   4.203
  537SOL    HW1 2291   1.535   0.677   4.266
  537SOL    HW2 2292   1.627   0.685   4.146
  538SOL     OW 2293   0.352   1.519   5.035
  538SOL    HW1 2294   0.342   1.476   4.950
  538SOL    HW2 2295   0.445   1.537   5.041
  539SOL     OW 2296   0.415   0.741   5.326
  539SOL    HW1 2297   0.473   0.789   5.268
  539SOL    HW2 2298   0.460   0.658   5.343
  540SOL     OW 2299   1.601   0.778   5.405
  540SOL    HW1 2300   1.515   0.820   5.399
  540SOL    HW2 2301   1.653   0.821   5.338
  541SOL     OW 2302   1.043   0.117   5.506
  541SOL    HW1 2303   1.070   0.196   5.459
  541SOL    HW2 2304   1.051   0.047   5.441
  542SOL     OW 2305   0.483   0.059   5.462
  542SOL    HW1 2306   0.427   5.291   5.424
  542SOL    HW2 2307   0.424   0.132   5.479
  543SOL     OW 2308   0.585   0.874   4.756
  543SOL    HW1 2309   0.617   0.964   4.755
  543SOL    HW2 2310   0.529   0.869   4.833
  544SOL     OW 2311   1.358   0.859   4.754
  544SOL    HW1 2312   1.275   0.850   4.707
  544SOL    HW2 2313   1.398   0.772   4.748
  545SOL     OW 2314   1.205   0.528   3.991
  545SOL    HW1 2315   1.211   0.448   4.043
  545SOL    HW2 2316   1.163   0.592   4.049
  546SOL     OW 2317   0.304   0.206   4.969
  546SOL    HW1 2318   0.263   0.237   5.050
  546SOL    HW2 2319   0.297   0.110   4.974
  547SOL     OW 2320   0.069   1.319   5.004
  547SOL    HW1 2321   0.091   1.259   5.076
  547SOL    HW2 2322   5.299   1.374   5.040
  548SOL     OW 2323   0.726   0.632   4.784
  548SOL    HW1 2324   0.800   0.615   4.725
  548SOL    HW2 2325   0.698   0.721   4.762
  549SOL     OW 2326   1.735   0.959   5.577
  549SOL    HW1 2327   1.688   0.898   5.519
  549SOL    HW2 2328   1.675   0.973   5.650
  550SOL     OW 2329   0.318   0.068   4.378
  550SOL    HW1 2330   0.299   0.161   4.386
  550SOL    HW2 2331   0.322   0.036   4.468
  551SOL     OW 2332   1.612   0.375   4.089
  551SOL    HW1 2333   1.645   0.311   4.153
  551SOL    HW2 2334   1.592   0.452   4.141
  552SOL     OW 2335   1.028   0.759   4.685
  552SOL    HW1 2336   1.025   0.777   4.779
  552SOL    HW2 2337   1.001   0.668   4.676
  553SOL     OW 2338   0.981   1.565   5.441
  553SOL    HW1 2339   0.967   1.610   5.358
  553SOL    HW2 2340   1.026   1.484   5.417
  554SOL     OW 2341   1.854   1.506   5.330
  554SOL    HW1 2342   1.872   1.530   5.239
  554SOL    HW2 2343   1.936   1.525   5.377
  555SOL     OW 2344   0.354   0.917   5.531
  555SOL    HW1 2345   0.434   0.938   5.577
  555SOL    HW2 2346   0.380   0.853   5.465
  556SOL     OW 2347   1.526   0.272   3.850
  556SOL    HW1 2348   1.462   0.208   3.881
  556SOL    HW2 2349   1.563   0.310   3.930
  557SOL     OW 2350   1.292   0.826   3.755
  557SOL    HW1 2351   1.334   0.741   3.759
  557SOL    HW2 2352   1.323   0.866   3.674
  558SOL     OW 2353   1.066   1.335   4.578
  558SOL    HW1 2354   1.069   1.263   4.515
  558SOL    HW2 2355   1.128   1.400   4.543
  559SOL     OW 2356   0.314   0.810   4.674
  559SOL    HW1 2357   0.408   0.828   4.669
  559SOL    HW2 2358   0.309   0.720   4.705
  560SOL     OW 2359   0.336   0.526   4.739
  560SOL    HW1 2360   0.299   0.439   4.723
  560SOL    HW2 2361   0.411   0.531   4.680
  561SOL     OW 2362   1.135   0.378   5.412
  561SOL    HW1 2363   1.088   0.432   5.475
  561SOL    HW2 2364   1.223   0.417   5.408
  562SOL     OW 2365   1.133   0.223   5.190
  562SOL    HW1 2366   1.138   0.282   5.265
  562SOL    HW2 2367   1.189   0.264   5.124
  563SOL     OW 2368   0.002   1.330   3.934
  563SOL    HW1 2369   5.227   1.319   3.875
  563SOL    HW2 2370   0.012   1.244   3.975
  564SOL     OW 2371   0.093   1.782   4.674
  564SOL    HW1 2372   0.059   1.711   4.619
  564SOL    HW2 2373   0.180   1.800   4.640
  565SOL     OW 2374   0.505   1.573   4.632
  565SOL    HW1 2375   0.572   1.639   4.652
  565SOL    HW2 2376   0.548   1.512   4.572
  566SOL     OW 2377   0.983   0.792   4.951
  566SOL    HW1 2378   1.039   0.769   5.025
  566SOL    HW2 2379   0.898   0.755   4.972
  567SOL     OW 2380   0.036   0.566   4.843
  567SOL    HW1 2381   0.118   0.535   4.804
  567SOL    HW2 2382   0.038   0.533   4.933
  568SOL     OW 2383   0.167   0.515   5.439
  568SOL    HW1 2384   0.251   0.495   5.398
  568SOL    HW2 2385   0.137   0.594   5.395
  569SOL     OW 2386   1.377   0.939   5.383
  569SOL    HW1 2387   1.398   1.032   5.381
  569SOL    HW2 2388   1.374   0.913   5.290
  570SOL     OW 2389   0.814   0.572   4.085
  570SOL    HW1 2390   0.818   0.497   4.025
  570SOL    HW2 2391   0.740   0.624   4.054
  571SOL     OW 2392   1.642   0.601   4.910
  571SOL    HW1 2393   1.631   0.542   4.984
  571SOL    HW2 2394   1.729   0.581   4.876
  572SOL     OW 2395   0.256   1.556   5.459
  572SOL    HW1 2396   0.234   1.619   5.527
  572SOL    HW2 2397   0.249   1.470   5.502
  573SOL     OW 2398   0.697   0.453   4.985
  573SOL    HW1 2399   0.648   0.378   4.951
  573SOL    HW2 2400   0.697   0.517   4.914
  574SOL     OW 2401   0.928   1.679   5.192
  574SOL    HW1 2402   0.902   1.645   5.106
  574SOL    HW2 2403   0.924   1.774   5.182
  575SOL     OW 2404   0.464   0.492   3.904
  575SOL    HW1 2405   0.526   0.561   3.927
  575SOL    HW2 2406   0.380   0.538   3.897
  576SOL     OW 2407   0.148   1.137   5.195
  576SOL    HW1 2408   0.146   1.089   5.277
  576SOL    HW2 2409   0.160   1.070   5.128
  577SOL     OW 2410   1.326   1.047   4.947
  577SOL    HW1 2411   1.350   0.984   4.879
  577SOL    HW2 2412   1.255   1.099   4.908
  578SOL     OW 2413   1.311   0.857   4.030
  578SOL    HW1 2414   1.235   0.826   4.080
  578SOL    HW2 2415   1.287   0.843   3.939
  579SOL     OW 2416   1.759   1.745   4.869
  579SOL    HW1 2417   1.826   1.774   4.807
  579SOL    HW2 2418   1.745   1.653   4.848
  580SOL     OW 2419   1.241   1.732   4.836
  580SOL    HW1 2420   1.323   1.754   4.792
  580SOL    HW2 2421   1.247   1.639   4.855
  581SOL     OW 2422   0.082   1.217   4.751
  581SOL    HW1 2423   0.070   1.243   4.843
  581SOL    HW2 2424   5.294   1.206   4.717
  582SOL     OW 2425   0.678   1.666   5.453
  582SOL    HW1 2426   0.623   1.744   5.447
  582SOL    HW2 2427   0.742   1.677   5.383
  583SOL     OW 2428   1.712   0.148   4.227
  583SOL    HW1 2429   1.788   0.128   4.172
  583SOL    HW2 2430   1.705   0.074   4.286
  584SOL     OW 2431   1.390   1.567   4.209
  584SOL    HW1 2432   1.449   1.600   4.142
  584SOL    HW2 2433   1.341   1.645   4.237
  585SOL     OW 2434   0.145   1.798   5.566
  585SOL    HW1 2435   0.090   1.735   5.614
  585SOL    HW2 2436   0.191   1.845   5.635
  586SOL     OW 2437   1.277   0.925   4.395
  586SOL    HW1 2438   1.351   0.865   4.402
  586SOL    HW2 2439   1.311   0.998   4.343
  587SOL     OW 2440   0.815   1.273   5.154
  587SOL    HW1 2441   0.786   1.313   5.237
  587SOL    HW2 2442   0.745   1.295   5.092
  588SOL     OW 2443   0.672   1.619   3.879
  588SOL    HW1 2444   0.683   1.632   3.785
  588SOL    HW2 2445   0.618   1.541   3.887
  589SOL     OW 2446   1.626   1.727   5.115
  589SOL    HW1 2447   1.674   1.734   5.032
  589SOL    HW2 2448   1.611   1.817   5.142
  590SOL     OW 2449   1.845   0.157   4.681
  590SOL    HW1 2450   1.845   0.062   4.669
  590SOL    HW2 2451   1.759   0.185   4.653
  591SOL     OW 2452   0.270   0.328   4.442
  591SOL    HW1 2453   0.184   0.366   4.426
  591SOL    HW2 2454   0.273   0.313   4.537
  592SOL     OW 2455   1.207   1.606   3.756
  592SOL    HW1 2456   1.197   1.515   3.782
  592SOL    HW2 2457   1.143   1.619   3.686
  593SOL     OW 2458   0.824   1.006   5.096
  593SOL    HW1 2459   0.868   1.001   5.011
  593SOL    HW2 2460   0.823   1.099   5.118
  594SOL     OW 2461   0.915   0.910   4.014
  594SOL    HW1 2462   0.976   0.942   3.948
  594SOL    HW2 2463   0.963   0.841   4.059
  595SOL     OW 2464   1.492   1.625   3.767
  595SOL    HW1 2465   1.398   1.619   3.753
  595SOL    HW2 2466   1.529   1.631   3.678
  596SOL     OW 2467   0.367   1.304   5.217
  596SOL    HW1 2468   0.359   1.378   5.158
  596SOL    HW2 2469   0.291   1.249   5.197
  597SOL     OW 2470   1.610   1.283   5.004
  597SOL    HW1 2471   1.673   1.274   5.075
  597SOL    HW2 2472   1.550   1.352   5.032
  598SOL     OW 2473   1.052   1.107   4.430
  598SOL    HW1 2474   0.981   1.056   4.470
  598SOL    HW2 2475   1.114   1.041   4.399
  599SOL     OW 2476   1.019   0.243   4.692
  599SOL    HW1 2477   0.999   0.197   4.610
  599SOL    HW2 2478   1.012   0.176   4.760
  600SOL     OW 2479   0.601   1.487   4.205
  600SOL    HW1 2480   0.646   1.439   4.136
  600SOL    HW2 2481   0.535   1.539   4.159
  601SOL     OW 2482   1.724   0.387   5.102
  601SOL    HW1 2483   1.794   0.452   5.102
  601SOL    HW2 2484   1.756   0.317   5.044
  602SOL     OW 2485   0.260   1.348   4.016
  602SOL    HW1 2486   0.167   1.350   3.994
  602SOL    HW2 2487   0.264   1.385   4.104
  603SOL     OW 2488   0.116   1.015   5.441
  603SOL    HW1 2489   0.045   0.982   5.496
  603SOL    HW2 2490   0.196   0.985   5.485
  604SOL     OW 2491   0.674   0.215   5.213
  604SOL    HW1 2492   0.758   0.197   5.170
  604SOL    HW2 2493   0.699   0.260   5.294
  605SOL     OW 2494   0.078   0.337   3.761
  605SOL    HW1 2495   5.287   0.311   3.749
  605SOL    HW2 2496   0.093   0.405   3.695
  606SOL     OW 2497   1.430   0.858   5.124
  606SOL    HW1 2498   1.381   0.919   5.069
  606SOL    HW2 2499   1.519   0.861   5.091
  607SOL     OW 2500   0.083   0.141   4.018
  607SOL    HW1 2501   0.077   0.235   4.000
  607SOL    HW2 2502   0.170   0.117   3.987
  608SOL     OW 2503   1.179   1.339   3.841
  608SOL    HW1 2504   1.088   1.310   3.843
  608SOL    HW2 2505   1.207   1.340   3.932
  609SOL     OW 2506   0.619   0.831   5.159
  609SOL    HW1 2507   0.675   0.907   5.143
  609SOL    HW2 2508   0.681   0.758   5.167
  610SOL     OW 2509   1.485   1.776   4.702
  610SOL    HW1 2510   1.507   1.840   4.635
  610SOL    HW2 2511   1.568   1.762   4.749
  611SOL     OW 2512   0.713   0.573   5.428
  611SOL    HW1 2513   0.756   0.636   5.485
  611SOL    HW2 2514   0.745   0.488   5.458
  612SOL     OW 2515   1.472   1.200   5.356
  612SOL    HW1 2516   1.460   1.214   5.450
  612SOL    HW2 2517   1.565   1.215   5.341
  613SOL     OW 2518   0.378   1.742   5.288
  613SOL    HW1 2519   0.295   1.788   5.272
  613SOL    HW2 2520   0.353   1.662   5.333
  614SOL     OW 2521   1.670   0.881   4.979
  614SOL    HW1 2522   1.663   0.796   4.936
  614SOL    HW2 2523   1.660   0.945   4.908
  615SOL     OW 2524   1.221   0.319   4.189
  615SOL    HW1 2525   1.284   0.247   4.183
  615SOL    HW2 2526   1.251   0.371   4.264
  616SOL     OW 2527   0.590   0.738   4.393
  616SOL    HW1 2528   0.629   0.824   4.377
  616SOL    HW2 2529   0.521   0.730   4.327
  617SOL     OW 2530   1.766   0.361   5.373
  617SOL    HW1 2531   1.747   0.376   5.280
  617SOL    HW2 2532   1.695   0.306   5.404
  618SOL     OW 2533   1.744   0.934   5.237
  618SOL    HW1 2534   1.743   1.028   5.250
  618SOL    HW2 2535   1.729   0.923   5.143
  619SOL     OW 2536   0.862   1.367   3.758
  619SOL    HW1 2537   0.824   1.396   3.840
  619SOL    HW2 2538   0.881   1.448   3.710
  620SOL     OW 2539   0.663   1.794   4.667
  620SOL    HW1 2540   0.642   1.884   4.645
  620SOL    HW2 2541   0.758   1.789   4.661
  621SOL     OW 2542   0.867   0.966   4.578
  621SOL    HW1 2543   0.918   0.895   4.618
  621SOL    HW2 2544   0.833   1.016   4.653
  622SOL     OW 2545   1.078   0.987   3.812
  622SOL    HW1 2546   1.057   1.039   3.734
  622SOL    HW2 2547   1.154   0.934   3.787
  623SOL     OW 2548   1.858   1.549   4.563
  623SOL    HW1 2549   1.774   1.543   4.518
  623SOL    HW2 2550   1.849   1.490   4.638
  624SOL     OW 2551   0.225   1.305   5.584
  624SOL    HW1 2552   0.156   1.243   5.559
  624SOL    HW2 2553   0.214   1.315   5.678
  625SOL     OW 2554   0.087   1.219   4.378
  625SOL    HW1 2555   0.100   1.188   4.468
  625SOL    HW2 2556   0.174   1.214   4.338
  626SOL     OW 2557   0.681   1.402   5.352
  626SOL    HW1 2558   0.600   1.360   5.382
  626SOL    HW2 2559   0.677   1.491   5.388
  627SOL     OW 2560   1.814   0.177   4.957
  627SOL    HW1 2561   1.781   0.088   4.962
  627SOL    HW2 2562   1.832   0.190   4.864
  628SOL     OW 2563   0.432   0.436   4.246
  628SOL    HW1 2564   0.464   0.362   4.194
  628SOL    HW2 2565   0.387   0.396   4.320
  629SOL     OW 2566   1.704   1.486   4.815
  629SOL    HW1 2567   1.621   1.464   4.774
  629SOL    HW2 2568   1.716   1.420   4.883
  630SOL     OW 2569   0.336   0.560   5.013
  630SOL    HW1 2570   0.393   0.503   5.064
  630SOL    HW2 2571   0.350   0.533   4.922
  631SOL     OW 2572   0.828   1.577   4.402
  631SOL    HW1 2573   0.816   1.632   4.325
  631SOL    HW2 2574   0.751   1.521   4.404
  632SOL     OW 2575   1.428   0.218   4.840
  632SOL    HW1 2576   1.465   0.144   4.888
  632SOL    HW2 2577   1.379   0.268   4.906
  633SOL     OW 2578   1.002   0.021   4.865
  633SOL    HW1 2579   0.952   5.252   4.821
  633SOL    HW2 2580   1.088   5.283   4.878
  634SOL     OW 2581   0.771   1.333   4.039
  634SOL    HW1 2582   0.741   1.242   4.045
  634SOL    HW2 2583   0.854   1.334   4.088
  635SOL     OW 2584   0.622   1.556   5.011
  635SOL    HW1 2585   0.624   1.638   5.060
  635SOL    HW2 2586   0.709   1.550   4.972
  636SOL     OW 2587   1.353   0.039   3.886
  636SOL    HW1 2588   1.388   5.297   3.807
  636SOL    HW2 2589   1.276   5.287   3.908
  637SOL     OW 2590   1.301   0.464   4.409
  637SOL    HW1 2591   1.246   0.542   4.414
  637SOL    HW2 2592   1.294   0.423   4.495
  638SOL     OW 2593   1.594   0.216   4.606
  638SOL    HW1 2594   1.528   0.227   4.674
  638SOL    HW2 2595   1.587   0.294   4.552
  639SOL     OW 2596   0.048   1.069   4.014
  639SOL    HW1 2597   0.137   1.037   4.003
  639SOL    HW2 2598   5.300   0.994   4.049
  640SOL     OW 2599   0.885   1.652   4.066
  640SOL    HW1 2600   0.812   1.636   4.006
  640SOL    HW2 2601   0.857   1.727   4.118
  641SOL     OW 2602   0.233   0.633   5.703
  641SOL    HW1 2603   0.157   0.606   5.755
  641SOL    HW2 2604   0.214   0.600   5.615
  642SOL     OW 2605   0.233   0.281   6.576
  642SOL    HW1 2606   0.252   0.243   6.662
  642SOL    HW2 2607   0.153   0.237   6.548
  643SOL     OW 2608   5.300   0.406   6.250
  643SOL    HW1 2609   5.207   0.428   6.254
  643SOL    HW2 2610   0.002   0.316   6.219
  644SOL     OW 2611   0.574   1.284   6.767
  644SOL    HW1 2612   0.491   1.292   6.720
  644SOL    HW2 2613   0.590   1.371   6.802
  645SOL     OW 2614   1.561   1.511   6.292
  645SOL    HW1 2615   1.518   1.492   6.376
  645SOL    HW2 2616   1.490   1.516   6.229
  646SOL     OW 2617   1.131   0.698   6.288
  646SOL    HW1 2618   1.180   0.779   6.273
  646SOL    HW2 2619   1.084   0.713   6.370
  647SOL     OW 2620   1.766   0.606   5.814
  647SOL    HW1 2621   1.746   0.598   5.721
  647SOL    HW2 2622   1.732   0.526   5.853
  648SOL     OW 2623   0.755   1.141   6.625
  648SOL    HW1 2624   0.688   1.175   6.684
  648SOL    HW2 2625   0.791   1.219   6.581
  649SOL     OW 2626   0.863   0.780   7.406
  649SOL    HW1 2627   0.856   0.854   7.465
  649SOL    HW2 2628   0.890   0.818   7.322
  650SOL     OW 2629   0.685   1.003   6.233
  650SOL    HW1 2630   0.751   0.990   6.302
  650SOL    HW2 2631   0.617   1.056   6.275
  651SOL     OW 2632   0.709   1.151   7.399
  651SOL    HW1 2633   0.758   1.229   7.425
  651SOL    HW2 2634   0.627   1.185   7.362
  652SOL     OW 2635   0.358   1.405   6.646
  652SOL    HW1 2636   0.270   1.405   6.609
  652SOL    HW2 2637   0.407   1.467   6.592
  653SOL     OW 2638   1.461   1.499   6.940
  653SOL    HW1 2639   1.511   1.580   6.949
  653SOL    HW2 2640   1.399   1.501   7.013
  654SOL     OW 2641   0.448   0.399   7.078
  654SOL    HW1 2642   0.528   0.347   7.072
  654SOL    HW2 2643   0.377   0.335   7.082
  655SOL     OW 2644   1.610   0.451   6.324
  655SOL    HW1 2645   1.535   0.475   6.270
  655SOL    HW2 2646   1.629   0.530   6.375
  656SOL     OW 2647   0.231   1.714   6.063
  656SOL    HW1 2648   0.264   1.783   6.121
  656SOL    HW2 2649   0.293   1.711   5.991
  657SOL     OW 2650   1.136   1.341   7.276
  657SOL    HW1 2651   1.177   1.338   7.363
  657SOL    HW2 2652   1.085   1.261   7.271
  658SOL     OW 2653   0.222   1.444   6.125
  658SOL    HW1 2654   0.216   1.539   6.121
  658SOL    HW2 2655   0.151   1.418   6.185
  659SOL     OW 2656   0.249   1.078   6.461
  659SOL    HW1 2657   0.261   0.993   6.504
  659SOL    HW2 2658   0.198   1.129   6.523
  660SOL     OW 2659   0.613   1.790   7.018
  660SOL    HW1 2660   0.530   1.773   7.061
  660SOL    HW2 2661   0.635   1.881   7.041
  661SOL     OW 2662   0.583   0.983   5.721
  661SOL    HW1 2663   0.629   1.031   5.652
  661SOL    HW2 2664   0.624   1.012   5.802
  662SOL     OW 2665   1.586   0.135   7.042
  662SOL    HW1 2666   1.608   0.220   7.004
  662SOL    HW2 2667   1.584   0.152   7.137
  663SOL     OW 2668   0.124   0.636   6.163
  663SOL    HW1 2669   0.090   0.553   6.197
  663SOL    HW2 2670   0.098   0.701   6.228
  664SOL     OW 2671   1.842   1.759   5.922
  664SOL    HW1 2672   1.907   1.731   5.986
  664SOL    HW2 2673   1.866   1.850   5.902
  665SOL     OW 2674   0.038   1.599   5.718
  665SOL    HW1 2675   0.024   1.507   5.743
  665SOL    HW2 2676   5.283   1.649   5.778
  666SOL     OW 2677   1.689   0.918   6.226
  666SOL    HW1 2678   1.772   0.876   6.206
  666SOL    HW2 2679   1.667   0.969   6.148
  667SOL     OW 2680   1.646   1.107   6.016
  667SOL    HW1 2681   1.731   1.112   5.973
  667SOL    HW2 2682   1.651   1.168   6.089
  668SOL     OW 2683   0.130   0.749   7.173
  668SOL    HW1 2684   0.224   0.764   7.173
  668SOL    HW2 2685   0.092   0.835   7.189
  669SOL     OW 2686   0.615   1.385   6.321
  669SOL    HW1 2687   0.568   1.303   6.331
  669SOL    HW2 2688   0.598   1.412   6.230
  670SOL     OW 2689   1.289   1.238   7.009
  670SOL    HW1 2690   1.321   1.171   6.950
  670SOL    HW2 2691   1.346   1.232   7.086
  671SOL     OW 2692   0.814   0.027   6.113
  671SOL    HW1 2693   0.842   0.115   6.089
  671SOL    HW2 2694   0.719   0.029   6.105
  672SOL     OW 2695   0.176   0.945   6.865
  672SOL    HW1 2696   0.267   0.916   6.855
  672SOL    HW2 2697   0.134   0.923   6.781
  673SOL     OW 2698   1.531   0.993   5.784
  673SOL    HW1 2699   1.461   0.936   5.816
  673SOL    HW2 2700   1.572   1.028   5.864
  674SOL     OW 2701   1.185   1.806   7.208
  674SOL    HW1 2702   1.196   1.865   7.133
  674SOL    HW2 2703   1.202   1.719   7.172
  675SOL     OW 2704   0.325   0.273   7.388
  675SOL    HW1 2705   0.387   0.336   7.426
  675SOL    HW2 2706   0.245   0.284   7.439
  676SOL     OW 2707   1.467   1.420   6.538
  676SOL    HW1 2708   1.398   1.435   6.603
  676SOL    HW2 2709   1.454   1.329   6.511
  677SOL     OW 2710   1.658   1.740   6.164
  677SOL    HW1 2711   1.640   1.710   6.075
  677SOL    HW2 2712   1.633   1.665   6.220
  678SOL     OW 2713   0.594   0.721   5.851
  678SOL    HW1 2714   0.603   0.802   5.801
  678SOL    HW2 2715   0.530   0.741   5.919
  679SOL     OW 2716   1.278   0.347   6.517
  679SOL    HW1 2717   1.188   0.318   6.529
  679SOL    HW2 2718   1.328   0.297   6.581
  680SOL     OW 2719   1.581   1.670   5.895
  680SOL    HW1 2720   1.671   1.702   5.888
  680SOL    HW2 2721   1.554   1.653   5.805
  681SOL     OW 2722   0.794   0.618   7.037
  681SOL    HW1 2723   0.765   0.596   7.126
  681SOL    HW2 2724   0.751   0.552   6.982
  682SOL     OW 2725   1.395   0.475   7.264
  682SOL    HW1 2726   1.396   0.520   7.348
  682SOL    HW2 2727   1.458   0.404   7.273
  683SOL     OW 2728   0.955   0.887   7.168
  683SOL    HW1 2729   1.010   0.818   7.132
  683SOL    HW2 2730   0.907   0.922   7.092
  684SOL     OW 2731   0.994   0.417   6.821
  684SOL    HW1 2732   0.909   0.438   6.860
  684SOL    HW2 2733   0.972   0.368   6.742
  685SOL     OW 2734   1.051   0.698   6.013
  685SOL    HW1 2735   1.066   0.691   6.107
  685SOL    HW2 2736   0.968   0.652   5.999
  686SOL     OW 2737   0.071   0.788   6.398
  686SOL    HW1 2738   0.153   0.793   6.447
  686SOL    HW2 2739   0.063   0.873   6.356
  687SOL     OW 2740   0.129   1.884   7.170
  687SOL    HW1 2741   0.131   1.854   7.261
  687SOL    HW2 2742   0.059   1.833   7.130
  688SOL     OW 2743   0.873   0.364   5.773
  688SOL    HW1 2744   0.915   0.424   5.712
  688SOL    HW2 2745   0.927   0.285   5.773
  689SOL     OW 2746   1.709   0.575   7.415
  689SOL    HW1 2747   1.671   0.649   7.368
  689SOL    HW2 2748   1.737   0.515   7.347
  690SOL     OW 2749   1.376   1.142   6.127
  690SOL    HW1 2750   1.456   1.129   6.075
  690SOL    HW2 2751   1.324   1.204   6.077
  691SOL     OW 2752   0.537   0.202   6.469
  691SOL    HW1 2753   0.553   0.220   6.562
  691SOL    HW2 2754   0.549   0.286   6.426
  692SOL     OW 2755   1.005   1.443   6.058
  692SOL    HW1 2756   0.968   1.517   6.009
  692SOL    HW2 2757   0.989   1.466   6.150
  693SOL     OW 2758   0.357   1.802   6.455
  693SOL    HW1 2759   0.397   1.717   6.468
  693SOL    HW2 2760   0.423   1.865   6.484
  694SOL     OW 2761   1.799   1.056   6.454
  694SOL    HW1 2762   1.744   1.040   6.378
  694SOL    HW2 2763   1.737   1.062   6.527
  695SOL     OW 2764   1.228   1.539   7.099
  695SOL    HW1 2765   1.214   1.466   7.159
  695SOL    HW2 2766   1.164   1.525   7.029
  696SOL     OW 2767   0.316   0.952   5.834
  696SOL    HW1 2768   0.398   0.977   5.790
  696SOL    HW2 2769   0.294   0.867   5.797
  697SOL     OW 2770   1.478   0.743   6.313
  697SOL    HW1 2771   1.470   0.700   6.398
  697SOL    HW2 2772   1.556   0.798   6.321
  698SOL     OW 2773   0.464   1.262   7.323
  698SOL    HW1 2774   0.438   1.269   7.232
  698SOL    HW2 2775   0.382   1.264   7.372
  699SOL     OW 2776   1.121   1.778   5.817
  699SOL    HW1 2777   1.049   1.735   5.863
  699SOL    HW2 2778   1.145   1.717   5.747
  700SOL     OW 2779   0.197   0.279   7.079
  700SOL    HW1 2780   0.158   0.366   7.073
  700SOL    HW2 2781   0.206   0.262   7.172
  701SOL     OW 2782   1.628   1.379   5.675
  701SOL    HW1 2783   1.588   1.465   5.658
  701SOL    HW2 2784   1.559   1.316   5.654
  702SOL     OW 2785   0.471   1.735   5.906
  702SOL    HW1 2786   0.513   1.793   5.969
  702SOL    HW2 2787   0.542   1.704   5.849
  703SOL     OW 2788   1.407   0.100   6.017
  703SOL    HW1 2789   1.399   0.082   5.923
  703SOL    HW2 2790   1.499   0.122   6.029
  704SOL     OW 2791   0.276   1.801   6.800
  704SOL    HW1 2792   0.307   1.724   6.847
  704SOL    HW2 2793   0.225   1.766   6.727
  705SOL     OW 2794   0.939   1.699   6.485
  705SOL    HW1 2795   1.017   1.647   6.505
  705SOL    HW2 2796   0.894   1.649   6.416
  706SOL     OW 2797   0.385   0.696   6.065
  706SOL    HW1 2798   0.415   0.605   6.073
  706SOL    HW2 2799   0.292   0.693   6.086
  707SOL     OW 2800   1.539   0.227   7.310
  707SOL    HW1 2801   1.546   0.245   7.404
  707SOL    HW2 2802   1.463   0.169   7.303
  708SOL     OW 2803   0.621   0.132   5.693
  708SOL    HW1 2804   0.688   0.069   5.717
  708SOL    HW2 2805   0.574   0.091   5.620
  709SOL     OW 2806   0.779   0.312   7.349
  709SOL    HW1 2807   0.842   0.240   7.351
  709SOL    HW2 2808   0.741   0.313   7.437
  710SOL     OW 2809   0.877   1.521   6.779
  710SOL    HW1 2810   0.861   1.485   6.692
  710SOL    HW2 2811   0.947   1.467   6.815
  711SOL     OW 2812   1.341   0.589   7.018
  711SOL    HW1 2813   1.371   0.558   7.103
  711SOL    HW2 2814   1.377   0.677   7.010
  712SOL     OW 2815   0.815   1.394   6.525
  712SOL    HW1 2816   0.900   1.383   6.481
  712SOL    HW2 2817   0.751   1.396   6.454
  713SOL     OW 2818   0.927   0.510   6.490
  713SOL    HW1 2819   0.903   0.502   6.397
  713SOL    HW2 2820   0.959   0.423   6.514
  714SOL     OW 2821   0.547   0.058   6.090
  714SOL    HW1 2822   0.469   0.060   6.144
  714SOL    HW2 2823   0.535   0.130   6.028
  715SOL     OW 2824   1.428   1.198   5.627
  715SOL    HW1 2825   1.458   1.123   5.677
  715SOL    HW2 2826   1.343   1.220   5.665
  716SOL     OW 2827   0.315   0.064   5.770
  716SOL    HW1 2828   0.381   0.130   5.750
  716SOL    HW2 2829   0.364   5.283   5.782
  717SOL     OW 2830   0.940   0.263   6.049
  717SOL    HW1 2831   0.912   0.299   5.965
  717SOL    HW2 2832   1.035   0.274   6.049
  718SOL     OW 2833   1.081   0.681   7.045
  718SOL    HW1 2834   1.012   0.614   7.051
  718SOL    HW2 2835   1.162   0.632   7.039
  719SOL     OW 2836   1.223   1.570   6.380
  719SOL    HW1 2837   1.239   1.637   6.313
  719SOL    HW2 2838   1.292   1.584   6.445
  720SOL     OW 2839   0.467   1.150   6.318
  720SOL    HW1 2840   0.398   1.130   6.381
  720SOL    HW2 2841   0.428   1.132   6.232
  721SOL     OW 2842   1.269   1.794   6.194
  721SOL    HW1 2843   1.315   1.855   6.137
  721SOL    HW2 2844   1.202   1.847   6.238
  722SOL     OW 2845   1.025   0.546   5.608
  722SOL    HW1 2846   0.984   0.630   5.590
  722SOL    HW2 2847   1.090   0.566   5.677
  723SOL     OW 2848   0.098   0.530   6.998
  723SOL    HW1 2849   0.179   0.550   6.949
  723SOL    HW2 2850   0.077   0.612   7.043
  724SOL     OW 2851   0.560   0.239   6.744
  724SOL    HW1 2852   0.591   0.153   6.771
  724SOL    HW2 2853   0.467   0.239   6.768
  725SOL     OW 2854   0.867   0.463   6.227
  725SOL    HW1 2855   0.821   0.516   6.162
  725SOL    HW2 2856   0.890   0.383   6.181
  726SOL     OW 2857   0.979   0.060   6.348
  726SOL    HW1 2858   0.914   0.056   6.278
  726SOL    HW2 2859   0.987   5.270   6.380
  727SOL     OW 2860   1.437   1.163   6.443
  727SOL    HW1 2861   1.368   1.097   6.441
  727SOL    HW2 2862   1.462   1.174   6.352
  728SOL     OW 2863   1.466   0.606   6.564
  728SOL    HW1 2864   1.417   0.524   6.567
  728SOL    HW2 2865   1.527   0.601   6.638
  729SOL     OW 2866   1.845   0.816   5.969
  729SOL    HW1 2867   1.902   0.765   6.027
  729SOL    HW2 2868   1.817   0.754   5.901
  730SOL     OW 2869   0.492   1.417   5.744
  730SOL    HW1 2870   0.416   1.389   5.796
  730SOL    HW2 2871   0.475   1.382   5.657
  731SOL     OW 2872   1.670   1.264   6.233
  731SOL    HW1 2873   1.765   1.267   6.245
  731SOL    HW2 2874   1.640   1.352   6.253
  732SOL     OW 2875   1.394   0.572   5.657
  732SOL    HW1 2876   1.333   0.552   5.729
  732SOL    HW2 2877   1.479   0.542   5.689
  733SOL     OW 2878   0.522   0.265   5.906
  733SOL    HW1 2879   0.569   0.216   5.838
  733SOL    HW2 2880   0.503   0.350   5.867
  734SOL     OW 2881   1.752   1.239   7.159
  734SOL    HW1 2882   1.840   1.200   7.155
  734SOL    HW2 2883   1.767   1.329   7.189
  735SOL     OW 2884   1.059   1.353   6.919
  735SOL    HW1 2885   0.984   1.322   6.971
  735SOL    HW2 2886   1.135   1.312   6.961
  736SOL     OW 2887   1.607   1.625   7.238
  736SOL    HW1 2888   1.603   1.659   7.149
  736SOL    HW2 2889   1.690   1.578   7.241
  737SOL     OW 2890   1.128   1.202   6.691
  737SOL    HW1 2891   1.070   1.242   6.757
  737SOL    HW2 2892   1.096   1.236   6.608
  738SOL     OW 2893   1.628   1.098   6.663
  738SOL    HW1 2894   1.624   1.160   6.736
  738SOL    HW2 2895   1.549   1.116   6.612
  739SOL     OW 2896   0.905   0.107   6.976
  739SOL    HW1 2897   0.936   0.073   6.892
  739SOL    HW2 2898   0.982   0.149   7.014
  740SOL     OW 2899   0.984   1.114   7.310
  740SOL    HW1 2900   0.892   1.131   7.328
  740SOL    HW2 2901   0.984   1.037   7.254
  741SOL     OW 2902   0.707   1.059   5.958
  741SOL    HW1 2903   0.696   1.044   6.052
  741SOL    HW2 2904   0.784   1.007   5.934
  742SOL     OW 2905   0.420   0.820   6.839
  742SOL    HW1 2906   0.490   0.826   6.904
  742SOL    HW2 2907   0.386   0.731   6.848
  743SOL     OW 2908   1.267   0.379   6.859
  743SOL    HW1 2909   1.300   0.456   6.905
  743SOL    HW2 2910   1.177   0.401   6.836
  744SOL     OW 2911   0.102   1.623   6.953
  744SOL    HW1 2912   0.079   1.632   6.860
  744SOL    HW2 2913   0.188   1.581   6.953
  745SOL     OW 2914   0.343   1.106   6.074
  745SOL    HW1 2915   0.353   1.185   6.021
  745SOL    HW2 2916   0.353   1.034   6.011
  746SOL     OW 2917   0.555   0.537   6.446
  746SOL    HW1 2918   0.570   0.595   6.371
  746SOL    HW2 2919   0.620   0.564   6.511
  747SOL     OW 2920   1.248   1.348   5.975
  747SOL    HW1 2921   1.304   1.420   6.006
  747SOL    HW2 2922   1.161   1.370   6.009
  748SOL     OW 2923   1.281   1.457   6.733
  748SOL    HW1 2924   1.337   1.460   6.811
  748SOL    HW2 2925   1.225   1.381   6.746
  749SOL     OW 2926   1.582   0.623   6.065
  749SOL    HW1 2927   1.535   0.677   6.128
  749SOL    HW2 2928   1.628   0.685   6.008
  750SOL     OW 2929   0.352   1.519   6.897
  750SOL    HW1 2930   0.342   1.476   6.812
  750SOL    HW2 2931   0.445   1.537   6.903
  751SOL     OW 2932   0.415   0.741   7.189
  751SOL    HW1 2933   0.473   0.790   7.130
  751SOL    HW2 2934   0.461   0.659   7.204
  752SOL     OW 2935   1.601   0.778   7.268
  752SOL    HW1 2936   1.515   0.820   7.261
  752SOL    HW2 2937   1.653   0.821   7.200
  753SOL     OW 2938   1.042   0.116   7.369
  753SOL    HW1 2939   1.071   0.195   7.324
  753SOL    HW2 2940   1.051   0.047   7.303
  754SOL     OW 2941   0.482   0.059   7.324
  754SOL    HW1 2942   0.427   5.291   7.286
  754SOL    HW2 2943   0.423   0.132   7.341
  755SOL     OW 2944   0.585   0.874   6.618
  755SOL    HW1 2945   0.617   0.964   6.617
  755SOL    HW2 2946   0.529   0.870   6.695
  756SOL     OW 2947   1.358   0.859   6.616
  756SOL    HW1 2948   1.275   0.850   6.569
  756SOL    HW2 2949   1.398   0.772   6.610
  757SOL     OW 2950   1.205   0.528   5.853
  757SOL    HW1 2951   1.211   0.448   5.905
  757SOL    HW2 2952   1.163   0.592   5.911
  758SOL     OW 2953   0.304   0.205   6.831
  758SOL    HW1 2954   0.263   0.237   6.912
  758SOL    HW2 2955   0.296   0.110   6.835
  759SOL     OW 2956   0.069   1.318   6.866
  759SOL    HW1 2957   0.091   1.259   6.938
  759SOL    HW2 2958   5.299   1.374   6.902
  760SOL     OW 2959   0.726   0.632   6.646
  760SOL    HW1 2960   0.800   0.615   6.587
  760SOL    HW2 2961   0.698   0.721   6.624
  761SOL     OW 2962   1.735   0.959   7.438
  761SOL    HW1 2963   1.687   0.899   7.382
  761SOL    HW2 2964   1.678   0.974   7.513
  762SOL     OW 2965   0.318   0.068   6.240
  762SOL    HW1 2966   0.299   0.161   6.248
  762SOL    HW2 2967   0.322   0.036   6.330
  763SOL     OW 2968   1.612   0.374   5.951
  763SOL    HW1 2969   1.645   0.311   6.015
  763SOL    HW2 2970   1.592   0.452   6.003
  764SOL     OW 2971   1.028   0.759   6.547
  764SOL    HW1 2972   1.025   0.777   6.641
  764SOL    HW2 2973   1.001   0.668   6.538
  765SOL     OW 2974   0.981   1.565   7.302
  765SOL    HW1 2975   0.967   1.610   7.219
  765SOL    HW2 2976   1.026   1.484   7.278
  766SOL     OW 2977   1.855   1.506   7.191
  766SOL    HW1 2978   1.873   1.532   7.101
  766SOL    HW2 2979   1.936   1.524   7.238
  767SOL     OW 2980   0.353   0.914   7.395
  767SOL    HW1 2981   0.435   0.938   7.438
  767SOL    HW2 2982   0.380   0.852   7.327
  768SOL     OW 2983   1.527   0.272   5.712
  768SOL    HW1 2984   1.462   0.208   5.743
  768SOL    HW2 2985   1.563   0.310   5.792
  769SOL     OW 2986   1.292   0.826   5.617
  769SOL    HW1 2987   1.334   0.741   5.621
  769SOL    HW2 2988   1.323   0.866   5.536
  770SOL     OW 2989   1.066   1.335   6.440
  770SOL    HW1 2990   1.069   1.263   6.377
  770SOL    HW2 2991   1.127   1.400   6.405
  771SOL     OW 2992   0.314   0.810   6.536
  771SOL    HW1 2993   0.408   0.828   6.531
  771SOL    HW2 2994   0.309   0.720   6.567
  772SOL     OW 2995   0.336   0.526   6.601
  772SOL    HW1 2996   0.299   0.440   6.585
  772SOL    HW2 2997   0.411   0.531   6.542
  773SOL     OW 2998   1.136   0.377   7.274
  773SOL    HW1 2999   1.088   0.432   7.336
  773SOL    HW2 3000   1.223   0.416   7.269
  774SOL     OW 3001   1.133   0.222   7.051
  774SOL    HW1 3002   1.138   0.281   7.127
  774SOL    HW2 3003   1.189   0.264   6.985
  775SOL     OW 3004   0.002   1.330   5.796
  775SOL    HW1 3005   5.227   1.319   5.737
  775SOL    HW2 3006   0.012   1.244   5.837
  776SOL     OW 3007   0.093   1.782   6.537
  776SOL    HW1 3008   0.059   1.711   6.481
  776SOL    HW2 3009   0.180   1.800   6.502
  777SOL     OW 3010   0.505   1.573   6.494
  777SOL    HW1 3011   0.572   1.639   6.514
  777SOL    HW2 3012   0.548   1.512   6.434
  778SOL     OW 3013   0.983   0.792   6.813
  778SOL    HW1 3014   1.039   0.769   6.887
  778SOL    HW2 3015   0.898   0.755   6.834
  779SOL     OW 3016   0.036   0.566   6.705
  779SOL    HW1 3017   0.118   0.535   6.666
  779SOL    HW2 3018   0.038   0.533   6.795
  780SOL     OW 3019   0.170   0.514   7.299
  780SOL    HW1 3020   0.253   0.495   7.256
  780SOL    HW2 3021   0.138   0.593   7.256
  781SOL     OW 3022   1.377   0.939   7.245
  781SOL    HW1 3023   1.398   1.032   7.244
  781SOL    HW2 3024   1.374   0.914   7.153
  782SOL     OW 3025   0.814   0.572   5.948
  782SOL    HW1 3026   0.818   0.497   5.887
  782SOL    HW2 3027   0.740   0.624   5.916
  783SOL     OW 3028   1.642   0.601   6.772
  783SOL    HW1 3029   1.631   0.542   6.846
  783SOL    HW2 3030   1.729   0.581   6.738
  784SOL     OW 3031   0.256   1.556   7.321
  784SOL    HW1 3032   0.233   1.618   7.391
  784SOL    HW2 3033   0.250   1.470   7.363
  785SOL     OW 3034   0.696   0.453   6.848
  785SOL    HW1 3035   0.648   0.378   6.813
  785SOL    HW2 3036   0.697   0.517   6.776
  786SOL     OW 3037   0.929   1.679   7.053
  786SOL    HW1 3038   0.902   1.645   6.968
  786SOL    HW2 3039   0.924   1.774   7.044
  787SOL     OW 3040   0.464   0.492   5.766
  787SOL    HW1 3041   0.526   0.561   5.789
  787SOL    HW2 3042   0.380   0.538   5.759
  788SOL     OW 3043   0.148   1.137   7.057
  788SOL    HW1 3044   0.145   1.088   7.139
  788SOL    HW2 3045   0.160   1.070   6.990
  789SOL     OW 3046   1.326   1.047   6.809
  789SOL    HW1 3047   1.349   0.984   6.741
  789SOL    HW2 3048   1.255   1.099   6.770
  790SOL     OW 3049   1.311   0.856   5.892
  790SOL    HW1 3050   1.235   0.826   5.942
  790SOL    HW2 3051   1.287   0.843   5.801
  791SOL     OW 3052   1.771   1.744   6.736
  791SOL    HW1 3053   1.832   1.770   6.666
  791SOL    HW2 3054   1.747   1.654   6.715
  792SOL     OW 3055   1.241   1.733   6.699
  792SOL    HW1 3056   1.323   1.754   6.654
  792SOL    HW2 3057   1.247   1.639   6.717
  793SOL     OW 3058   0.083   1.217   6.613
  793SOL    HW1 3059   0.070   1.243   6.705
  793SOL    HW2 3060   5.294   1.206   6.579
  794SOL     OW 3061   0.677   1.665   7.314
  794SOL    HW1 3062   0.624   1.744   7.311
  794SOL    HW2 3063   0.743   1.677   7.245
  795SOL     OW 3064   1.712   0.148   6.089
  795SOL    HW1 3065   1.787   0.128   6.033
  795SOL    HW2 3066   1.705   0.074   6.148
  796SOL     OW 3067   1.390   1.568   6.071
  796SOL    HW1 3068   1.451   1.600   6.004
  796SOL    HW2 3069   1.342   1.645   6.099
  797SOL     OW 3070   0.141   1.799   7.429
  797SOL    HW1 3071   0.089   1.735   7.478
  797SOL    HW2 3072   0.195   1.842   7.495
  798SOL     OW 3073   1.277   0.925   6.257
  798SOL    HW1 3074   1.351   0.865   6.264
  798SOL    HW2 3075   1.311   0.998   6.204
  799SOL     OW 3076   0.815   1.273   7.016
  799SOL    HW1 3077   0.786   1.313   7.099
  799SOL    HW2 3078   0.746   1.295   6.954
  800SOL     OW 3079   0.672   1.619   5.741
  800SOL    HW1 3080   0.683   1.632   5.647
  800SOL    HW2 3081   0.618   1.541   5.749
  801SOL     OW 3082   1.627   1.727   6.977
  801SOL    HW1 3083   1.677   1.734   6.895
  801SOL    HW2 3084   1.613   1.817   7.004
  802SOL     OW 3085   1.845   0.157   6.543
  802SOL    HW1 3086   1.845   0.062   6.531
  802SOL    HW2 3087   1.759   0.185   6.515
  803SOL     OW 3088   0.270   0.328   6.304
  803SOL    HW1 3089   0.184   0.366   6.288
  803SOL    HW2 3090   0.273   0.313   6.399
  804SOL     OW 3091   1.207   1.606   5.618
  804SOL    HW1 3092   1.198   1.515   5.644
  804SOL    HW2 3093   1.142   1.618   5.548
  805SOL     OW 3094   0.824   1.006   6.958
  805SOL    HW1 3095   0.868   1.001   6.873
  805SOL    HW2 3096   0.823   1.099   6.980
  806SOL     OW 3097   0.915   0.910   5.876
  806SOL    HW1 3098   0.976   0.942   5.809
  806SOL    HW2 3099   0.963   0.841   5.921
  807SOL     OW 3100   1.492   1.625   5.628
  807SOL    HW1 3101   1.398   1.619   5.614
  807SOL    HW2 3102   1.529   1.631   5.540
  808SOL     OW 3103   0.367   1.304   7.079
  808SOL    HW1 3104   0.359   1.378   7.020
  808SOL    HW2 3105   0.291   1.249   7.059
  809SOL     OW 3106   1.611   1.283   6.867
  809SOL    HW1 3107   1.670   1.272   6.941
  809SOL    HW2 3108   1.550   1.352   6.894
  810SOL     OW 3109   1.052   1.107   6.292
  810SOL    HW1 3110   0.981   1.055   6.332
  810SOL    HW2 3111   1.114   1.042   6.261
  811SOL     OW 3112   1.019   0.243   6.554
  811SOL    HW1 3113   0.999   0.197   6.472
  811SOL    HW2 3114   1.012   0.176   6.622
  812SOL     OW 3115   0.601   1.487   6.067
  812SOL    HW1 3116   0.646   1.439   5.998
  812SOL    HW2 3117   0.535   1.539   6.021
  813SOL     OW 3118   1.724   0.386   6.965
  813SOL    HW1 3119   1.794   0.452   6.964
  813SOL    HW2 3120   1.756   0.317   6.907
  814SOL     OW 3121   0.260   1.348   5.878
  814SOL    HW1 3122   0.167   1.350   5.856
  814SOL    HW2 3123   0.264   1.385   5.966
  815SOL     OW 3124   0.116   1.014   7.302
  815SOL    HW1 3125   0.044   0.985   7.358
  815SOL    HW2 3126   0.195   0.984   7.347
  816SOL     OW 3127   0.674   0.215   7.077
  816SOL    HW1 3128   0.758   0.198   7.033
  816SOL    HW2 3129   0.699   0.260   7.157
  817SOL     OW 3130   0.078   0.337   5.623
  817SOL    HW1 3131   5.287   0.311   5.611
  817SOL    HW2 3132   0.093   0.405   5.557
  818SOL     OW 3133   1.430   0.858   6.986
  818SOL    HW1 3134   1.381   0.919   6.931
  818SOL    HW2 3135   1.519   0.861   6.953
  819SOL     OW 3136   0.083   0.141   5.880
  819SOL    HW1 3137   0.077   0.235   5.862
  819SOL    HW2 3138   0.170   0.117   5.849
  820SOL     OW 3139   1.179   1.339   5.703
  820SOL    HW1 3140   1.088   1.310   5.706
  820SOL    HW2 3141   1.207   1.340   5.794
  821SOL     OW 3142   0.619   0.831   7.021
  821SOL    HW1 3143   0.675   0.907   7.005
  821SOL    HW2 3144   0.681   0.758   7.029
  822SOL     OW 3145   1.484   1.776   6.565
  822SOL    HW1 3146   1.507   1.835   6.493
  822SOL    HW2 3147   1.567   1.758   6.609
  823SOL     OW 3148   0.712   0.573   7.290
  823SOL    HW1 3149   0.755   0.636   7.348
  823SOL    HW2 3150   0.744   0.488   7.319
  824SOL     OW 3151   1.471   1.200   7.218
  824SOL    HW1 3152   1.459   1.214   7.312
  824SOL    HW2 3153   1.564   1.215   7.204
  825SOL     OW 3154   0.378   1.742   7.150
  825SOL    HW1 3155   0.295   1.788   7.134
  825SOL    HW2 3156   0.353   1.662   7.195
  826SOL     OW 3157   1.670   0.881   6.841
  826SOL    HW1 3158   1.663   0.796   6.798
  826SOL    HW2 3159   1.660   0.945   6.770
  827SOL     OW 3160   1.221   0.319   6.051
  827SOL    HW1 3161   1.284   0.247   6.045
  827SOL    HW2 3162   1.250   0.371   6.126
  828SOL     OW 3163   0.590   0.738   6.255
  828SOL    HW1 3164   0.629   0.824   6.239
  828SOL    HW2 3165   0.521   0.730   6.189
  829SOL     OW 3166   1.766   0.361   7.236
  829SOL    HW1 3167   1.748   0.376   7.143
  829SOL    HW2 3168   1.694   0.306   7.266
  830SOL     OW 3169   1.744   0.933   7.098
  830SOL    HW1 3170   1.742   1.028   7.112
  830SOL    HW2 3171   1.729   0.922   7.005
  831SOL     OW 3172   0.862   1.367   5.620
  831SOL    HW1 3173   0.824   1.396   5.702
  831SOL    HW2 3174   0.881   1.448   5.572
  832SOL     OW 3175   0.663   1.793   6.529
  832SOL    HW1 3176   0.642   1.884   6.507
  832SOL    HW2 3177   0.758   1.789   6.523
  833SOL     OW 3178   0.867   0.966   6.440
  833SOL    HW1 3179   0.918   0.895   6.480
  833SOL    HW2 3180   0.833   1.016   6.515
  834SOL     OW 3181   1.077   0.986   5.674
  834SOL    HW1 3182   1.057   1.039   5.596
  834SOL    HW2 3183   1.153   0.934   5.649
  835SOL     OW 3184   1.854   1.555   6.431
  835SOL    HW1 3185   1.776   1.543   6.376
  835SOL    HW2 3186   1.846   1.488   6.498
  836SOL     OW 3187   0.225   1.305   7.446
  836SOL    HW1 3188   0.155   1.245   7.420
  836SOL    HW2 3189   0.213   1.316   7.540
  837SOL     OW 3190   0.087   1.219   6.240
  837SOL    HW1 3191   0.100   1.188   6.329
  837SOL    HW2 3192   0.174   1.215   6.200
  838SOL     OW 3193   0.681   1.401   7.214
  838SOL    HW1 3194   0.600   1.360   7.244
  838SOL    HW2 3195   0.677   1.490   7.250
  839SOL     OW 3196   1.814   0.177   6.819
  839SOL    HW1 3197   1.781   0.088   6.824
  839SOL    HW2 3198   1.832   0.190   6.726
  840SOL     OW 3199   0.432   0.436   6.108
  840SOL    HW1 3200   0.464   0.362   6.056
  840SOL    HW2 3201   0.387   0.396   6.181
  841SOL     OW 3202   1.700   1.490   6.683
  841SOL    HW1 3203   1.619   1.466   6.637
  841SOL    HW2 3204   1.712   1.420   6.748
  842SOL     OW 3205   0.336   0.560   6.875
  842SOL    HW1 3206   0.394   0.503   6.925
  842SOL    HW2 3207   0.350   0.534   6.784
  843SOL     OW 3208   0.828   1.577   6.264
  843SOL    HW1 3209   0.816   1.632   6.186
  843SOL    HW2 3210   0.751   1.521   6.266
  844SOL     OW 3211   1.428   0.218   6.702
  844SOL    HW1 3212   1.465   0.144   6.750
  844SOL    HW2 3213   1.379   0.268   6.768
  845SOL     OW 3214   1.002   0.021   6.727
  845SOL    HW1 3215   0.952   5.252   6.683
  845SOL    HW2 3216   1.088   5.283   6.740
  846SOL     OW 3217   0.771   1.333   5.901
  846SOL    HW1 3218   0.742   1.242   5.907
  846SOL    HW2 3219   0.854   1.334   5.950
  847SOL     OW 3220   0.623   1.556   6.873
  847SOL    HW1 3221   0.624   1.638   6.922
  847SOL    HW2 3222   0.709   1.550   6.833
  848SOL     OW 3223   1.353   0.039   5.748
  848SOL    HW1 3224   1.388   5.298   5.669
  848SOL    HW2 3225   1.276   5.287   5.770
  849SOL     OW 3226   1.300   0.463   6.270
  849SOL    HW1 3227   1.246   0.542   6.276
  849SOL    HW2 3228   1.294   0.423   6.357
  850SOL     OW 3229   1.594   0.216   6.468
  850SOL    HW1 3230   1.528   0.227   6.536
  850SOL    HW2 3231   1.587   0.294   6.414
  851SOL     OW 3232   0.048   1.069   5.876
  851SOL    HW1 3233   0.137   1.037   5.865
  851SOL    HW2 3234   5.300   0.994   5.911
  852SOL     OW 3235   0.884   1.651   5.928
  852SOL    HW1 3236   0.812   1.636   5.868
  852SOL    HW2 3237   0.857   1.727   5.980
  853SOL     OW 3238   0.228   0.631   7.566
  853SOL    HW1 3239   0.151   0.594   7.609
  853SOL    HW2 3240   0.220   0.604   7.475
  854SOL     OW 3241   1.768   0.598   7.679
  854SOL    HW1 3242   1.747   0.593   7.586
  854SOL    HW2 3243   1.726   0.521   7.717
  855SOL     OW 3244   0.230   1.706   7.921
  855SOL    HW1 3245   0.264   1.751   7.998
  855SOL    HW2 3246   0.300   1.713   7.856
  856SOL     OW 3247   0.217   1.436   7.991
  856SOL    HW1 3248   0.209   1.531   7.983
  856SOL    HW2 3249   0.154   1.412   8.059
  857SOL     OW 3250   0.583   0.984   7.581
  857SOL    HW1 3251   0.628   1.032   7.511
  857SOL    HW2 3252   0.625   1.014   7.662
  858SOL     OW 3253   1.837   1.759   7.797
  858SOL    HW1 3254   1.908   1.729   7.854
  858SOL    HW2 3255   1.863   1.848   7.772
  859SOL     OW 3256   0.036   1.601   7.582
  859SOL    HW1 3257   0.027   1.508   7.603
  859SOL    HW2 3258   5.277   1.645   7.643
  860SOL     OW 3259   1.683   0.866   8.034
  860SOL    HW1 3260   1.763   0.878   0.005
  860SOL    HW2 3261   1.670   0.950   7.990
  861SOL     OW 3262   1.655   1.099   7.877
  861SOL    HW1 3263   1.742   1.124   7.847
  861SOL    HW2 3264   1.627   1.170   7.934
  862SOL     OW 3265   0.810   5.289   7.943
  862SOL    HW1 3266   0.852   0.075   7.930
  862SOL    HW2 3267   0.716   0.008   7.942
  863SOL     OW 3268   1.533   0.994   7.649
  863SOL    HW1 3269   1.466   0.936   7.683
  863SOL    HW2 3270   1.576   1.029   7.727
  864SOL     OW 3271   0.588   0.723   7.707
  864SOL    HW1 3272   0.597   0.805   7.658
  864SOL    HW2 3273   0.534   0.746   7.782
  865SOL     OW 3274   1.575   1.671   7.757
  865SOL    HW1 3275   1.665   1.700   7.765
  865SOL    HW2 3276   1.562   1.658   7.663
  866SOL     OW 3277   0.050   0.816   0.199
  866SOL    HW1 3278   0.123   0.766   0.162
  866SOL    HW2 3279   0.029   0.881   0.132
  867SOL     OW 3280   0.867   0.357   7.629
  867SOL    HW1 3281   0.913   0.421   7.574
  867SOL    HW2 3282   0.930   0.286   7.640
  868SOL     OW 3283   0.319   0.949   7.694
  868SOL    HW1 3284   0.400   0.976   7.650
  868SOL    HW2 3285   0.297   0.865   7.653
  869SOL     OW 3286   1.123   1.776   7.682
  869SOL    HW1 3287   1.047   1.735   7.723
  869SOL    HW2 3288   1.147   1.715   7.611
  870SOL     OW 3289   1.629   1.380   7.533
  870SOL    HW1 3290   1.587   1.465   7.520
  870SOL    HW2 3291   1.560   1.316   7.516
  871SOL     OW 3292   0.470   1.737   7.769
  871SOL    HW1 3293   0.515   1.791   7.834
  871SOL    HW2 3294   0.539   1.704   7.713
  872SOL     OW 3295   1.409   0.106   7.882
  872SOL    HW1 3296   1.404   0.083   7.789
  872SOL    HW2 3297   1.503   0.112   7.900
  873SOL     OW 3298   0.378   0.697   7.921
  873SOL    HW1 3299   0.401   0.604   7.925
  873SOL    HW2 3300   0.289   0.701   7.956
  874SOL     OW 3301   0.615   0.131   7.559
  874SOL    HW1 3302   0.691   0.076   7.578
  874SOL    HW2 3303   0.573   0.089   7.484
  875SOL     OW 3304   0.546   0.062   7.952
  875SOL    HW1 3305   0.455   0.047   7.975
  875SOL    HW2 3306   0.543   0.135   7.890
  876SOL     OW 3307   1.428   1.198   7.489
  876SOL    HW1 3308   1.459   1.124   7.542
  876SOL    HW2 3309   1.344   1.221   7.528
  877SOL     OW 3310   0.314   0.070   7.652
  877SOL    HW1 3311   0.373   0.126   7.602
  877SOL    HW2 3312   0.359   5.286   7.657
  878SOL     OW 3313   0.949   0.228   7.910
  878SOL    HW1 3314   0.899   0.299   7.868
  878SOL    HW2 3315   1.038   0.263   7.918
  879SOL     OW 3316   0.446   1.157   0.092
  879SOL    HW1 3317   0.374   1.183   0.149
  879SOL    HW2 3318   0.405   1.140   0.007
  880SOL     OW 3319   1.291   1.811   8.014
  880SOL    HW1 3320   1.326   1.880   7.958
  880SOL    HW2 3321   1.207   1.845   8.045
  881SOL     OW 3322   1.026   0.546   7.467
  881SOL    HW1 3323   0.983   0.631   7.452
  881SOL    HW2 3324   1.086   0.563   7.540
  882SOL     OW 3325   1.872   0.817   7.801
  882SOL    HW1 3326   1.866   0.790   7.893
  882SOL    HW2 3327   1.832   0.745   7.752
  883SOL     OW 3328   0.490   1.415   7.605
  883SOL    HW1 3329   0.415   1.387   7.658
  883SOL    HW2 3330   0.472   1.381   7.518
  884SOL     OW 3331   1.393   0.572   7.519
  884SOL    HW1 3332   1.332   0.552   7.590
  884SOL    HW2 3333   1.478   0.540   7.551
  885SOL     OW 3334   0.524   0.271   7.773
  885SOL    HW1 3335   0.566   0.218   7.705
  885SOL    HW2 3336   0.503   0.353   7.730
  886SOL     OW 3337   0.709   1.061   7.814
  886SOL    HW1 3338   0.693   1.050   7.907
  886SOL    HW2 3339   0.788   1.008   7.797
  887SOL     OW 3340   0.346   1.095   7.928
  887SOL    HW1 3341   0.346   1.179   7.883
  887SOL    HW2 3342   0.348   1.030   7.858
  888SOL     OW 3343   1.224   1.356   7.821
  888SOL    HW1 3344   1.286   1.425   7.846
  888SOL    HW2 3345   1.184   1.329   7.904
  889SOL     OW 3346   1.589   0.626   7.921
  889SOL    HW1 3347   1.573   0.684   7.996
  889SOL    HW2 3348   1.627   0.683   7.854
  890SOL     OW 3349   1.203   0.526   7.715
  890SOL    HW1 3350   1.204   0.439   7.755
  890SOL    HW2 3351   1.182   0.585   7.787
  891SOL     OW 3352   1.616   0.376   7.814
  891SOL    HW1 3353   1.637   0.308   7.879
  891SOL    HW2 3354   1.592   0.452   7.866
  892SOL     OW 3355   1.528   0.272   7.575
  892SOL    HW1 3356   1.465   0.208   7.605
  892SOL    HW2 3357   1.564   0.310   7.656
  893SOL     OW 3358   1.294   0.827   7.481
  893SOL    HW1 3359   1.335   0.741   7.483
  893SOL    HW2 3360   1.324   0.867   7.399
  894SOL     OW 3361   0.003   1.333   7.656
  894SOL    HW1 3362   5.220   1.331   7.608
  894SOL    HW2 3363   0.013   1.244   7.691
  895SOL     OW 3364   0.837   0.601   7.764
  895SOL    HW1 3365   0.828   0.510   7.733
  895SOL    HW2 3366   0.747   0.635   7.764
  896SOL     OW 3367   0.460   0.493   7.632
  896SOL    HW1 3368   0.523   0.563   7.651
  896SOL    HW2 3369   0.376   0.539   7.622
  897SOL     OW 3370   1.312   0.851   7.754
  897SOL    HW1 3371   1.225   0.853   7.795
  897SOL    HW2 3372   1.294   0.841   7.661
  898SOL     OW 3373   1.709   0.130   7.945
  898SOL    HW1 3374   1.784   0.131   7.885
  898SOL    HW2 3375   1.740   0.084   8.023
  899SOL     OW 3376   1.364   1.577   7.896
  899SOL    HW1 3377   1.439   1.597   7.840
  899SOL    HW2 3378   1.333   1.662   7.927
  900SOL     OW 3379   0.668   1.619   7.604
  900SOL    HW1 3380   0.680   1.631   7.509
  900SOL    HW2 3381   0.616   1.539   7.611
  901SOL     OW 3382   1.209   1.607   7.478
  901SOL    HW1 3383   1.198   1.516   7.506
  901SOL    HW2 3384   1.142   1.620   7.411
  902SOL     OW 3385   0.924   0.910   7.754
  902SOL    HW1 3386   0.979   0.934   7.680
  902SOL    HW2 3387   0.922   0.814   7.753
  903SOL     OW 3388   1.493   1.626   7.488
  903SOL    HW1 3389   1.399   1.619   7.476
  903SOL    HW2 3390   1.529   1.631   7.400
  904SOL     OW 3391   0.605   1.505   7.936
  904SOL    HW1 3392   0.650   1.446   7.875
  904SOL    HW2 3393   0.534   1.543   7.884
  905SOL     OW 3394   0.260   1.347   7.742
  905SOL    HW1 3395   0.167   1.351   7.718
  905SOL    HW2 3396   0.263   1.382   7.830
  906SOL     OW 3397   0.077   0.343   7.487
  906SOL    HW1 3398   5.290   0.308   7.469
  906SOL    HW2 3399   0.092   0.407   7.417
  907SOL     OW 3400   0.068   0.142   7.736
  907SOL    HW1 3401   0.068   0.237   7.723
  907SOL    HW2 3402   0.157   0.115   7.714
  908SOL     OW 3403   1.177   1.338   7.556
  908SOL    HW1 3404   1.084   1.313   7.557
  908SOL    HW2 3405   1.201   1.345   7.649
  909SOL     OW 3406   1.222   0.319   7.916
  909SOL    HW1 3407   1.289   0.250   7.910
  909SOL    HW2 3408   1.245   0.367   7.995
  910SOL     OW 3409   0.623   0.741   8.046
  910SOL    HW1 3410   0.629   0.818   0.023
  910SOL    HW2 3411   0.531   0.738   8.020
  911SOL     OW 3412   0.862   1.367   7.482
  911SOL    HW1 3413   0.825   1.396   7.565
  911SOL    HW2 3414   0.882   1.448   7.435
  912SOL     OW 3415   1.072   0.977   7.537
  912SOL    HW1 3416   1.054   1.035   7.463
  912SOL    HW2 3417   1.151   0.930   7.511
  913SOL     OW 3418   0.399   0.428   7.981
  913SOL    HW1 3419   0.447   0.367   7.925
  913SOL    HW2 3420   0.441   0.418   8.067
  914SOL     OW 3421   0.766   1.335   7.761
  914SOL    HW1 3422   0.736   1.244   7.763
  914SOL    HW2 3423   0.847   1.334   7.811
  915SOL     OW 3424   1.362   0.038   7.611
  915SOL    HW1 3425   1.378   5.292   7.528
  915SOL    HW2 3426   1.282   5.298   7.646
  916SOL     OW 3427   0.048   1.070   7.721
  916SOL    HW1 3428   0.137   1.037   7.721
  916SOL    HW2 3429   5.300   1.010   7.779
  917SOL     OW 3430   0.893   1.651   7.781
  917SOL    HW1 3431   0.817   1.628   7.727
  917SOL    HW2 3432   0.859   1.714   7.844
  918SOL     OW 3433   0.224   2.486   0.115
  918SOL    HW1 3434   0.154   2.442   0.164
  918SOL    HW2 3435   0.232   2.435   0.034
  919SOL     OW 3436   0.241   2.137   0.989
  919SOL    HW1 3437   0.256   2.103   1.077
  919SOL    HW2 3438   0.157   2.099   0.962
  920SOL     OW 3439   5.297   2.259   0.648
  920SOL    HW1 3440   5.206   2.287   0.658
  920SOL    HW2 3441   5.292   2.166   0.628
  921SOL     OW 3442   0.574   3.146   1.181
  921SOL    HW1 3443   0.491   3.154   1.134
  921SOL    HW2 3444   0.590   3.234   1.216
  922SOL     OW 3445   1.561   3.374   0.707
  922SOL    HW1 3446   1.518   3.354   0.790
  922SOL    HW2 3447   1.489   3.378   0.644
  923SOL     OW 3448   1.131   2.560   0.701
  923SOL    HW1 3449   1.180   2.641   0.687
  923SOL    HW2 3450   1.084   2.574   0.784
  924SOL     OW 3451   1.771   2.461   0.233
  924SOL    HW1 3452   1.730   2.467   0.146
  924SOL    HW2 3453   1.729   2.386   0.274
  925SOL     OW 3454   0.756   3.003   1.039
  925SOL    HW1 3455   0.689   3.037   1.098
  925SOL    HW2 3456   0.791   3.081   0.995
  926SOL     OW 3457   0.866   2.637   1.822
  926SOL    HW1 3458   0.856   2.709   1.884
  926SOL    HW2 3459   0.889   2.680   1.740
  927SOL     OW 3460   0.684   2.863   0.650
  927SOL    HW1 3461   0.750   2.852   0.718
  927SOL    HW2 3462   0.616   2.917   0.690
  928SOL     OW 3463   0.709   3.013   1.813
  928SOL    HW1 3464   0.758   3.091   1.839
  928SOL    HW2 3465   0.627   3.046   1.777
  929SOL     OW 3466   0.358   3.267   1.060
  929SOL    HW1 3467   0.271   3.264   1.022
  929SOL    HW2 3468   0.406   3.329   1.006
  930SOL     OW 3469   1.461   3.361   1.354
  930SOL    HW1 3470   1.511   3.442   1.363
  930SOL    HW2 3471   1.399   3.363   1.427
  931SOL     OW 3472   0.450   2.262   1.492
  931SOL    HW1 3473   0.524   2.201   1.494
  931SOL    HW2 3474   0.373   2.206   1.502
  932SOL     OW 3475   1.612   2.310   0.740
  932SOL    HW1 3476   1.537   2.332   0.686
  932SOL    HW2 3477   1.626   2.387   0.795
  933SOL     OW 3478   0.217   3.591   0.466
  933SOL    HW1 3479   0.259   3.647   0.531
  933SOL    HW2 3480   0.287   3.569   0.404
  934SOL     OW 3481   1.136   3.203   1.692
  934SOL    HW1 3482   1.177   3.199   1.779
  934SOL    HW2 3483   1.084   3.124   1.686
  935SOL     OW 3484   0.221   3.310   0.533
  935SOL    HW1 3485   0.201   3.404   0.540
  935SOL    HW2 3486   0.158   3.268   0.593
  936SOL     OW 3487   0.253   2.941   0.878
  936SOL    HW1 3488   0.260   2.854   0.918
  936SOL    HW2 3489   0.199   2.991   0.938
  937SOL     OW 3490   0.614   3.652   1.433
  937SOL    HW1 3491   0.530   3.635   1.475
  937SOL    HW2 3492   0.634   3.743   1.455
  938SOL     OW 3493   0.622   2.822   0.136
  938SOL    HW1 3494   0.578   2.902   0.107
  938SOL    HW2 3495   0.677   2.850   0.209
  939SOL     OW 3496   1.596   1.985   1.468
  939SOL    HW1 3497   1.602   2.066   1.417
  939SOL    HW2 3498   1.582   2.014   1.558
  940SOL     OW 3499   0.130   2.497   0.583
  940SOL    HW1 3500   0.088   2.414   0.606
  940SOL    HW2 3501   0.099   2.559   0.649
  941SOL     OW 3502   1.845   3.620   0.332
  941SOL    HW1 3503   1.910   3.590   0.396
  941SOL    HW2 3504   1.870   3.711   0.314
  942SOL     OW 3505   0.032   3.447   0.104
  942SOL    HW1 3506   0.024   3.361   0.147
  942SOL    HW2 3507   0.006   3.509   0.172
  943SOL     OW 3508   1.687   2.780   0.643
  943SOL    HW1 3509   1.770   2.739   0.620
  943SOL    HW2 3510   1.665   2.832   0.566
  944SOL     OW 3511   1.646   2.967   0.435
  944SOL    HW1 3512   1.726   2.982   0.384
  944SOL    HW2 3513   1.651   3.029   0.507
  945SOL     OW 3514   0.131   2.610   1.585
  945SOL    HW1 3515   0.225   2.624   1.588
  945SOL    HW2 3516   0.093   2.697   1.601
  946SOL     OW 3517   0.615   3.248   0.734
  946SOL    HW1 3518   0.567   3.165   0.745
  946SOL    HW2 3519   0.598   3.274   0.644
  947SOL     OW 3520   1.289   3.100   1.424
  947SOL    HW1 3521   1.321   3.033   1.363
  947SOL    HW2 3522   1.346   3.094   1.500
  948SOL     OW 3523   0.823   1.863   0.512
  948SOL    HW1 3524   0.862   1.948   0.490
  948SOL    HW2 3525   0.729   1.881   0.517
  949SOL     OW 3526   0.177   2.808   1.278
  949SOL    HW1 3527   0.268   2.779   1.268
  949SOL    HW2 3528   0.135   2.784   1.196
  950SOL     OW 3529   1.510   2.869   0.212
  950SOL    HW1 3530   1.448   2.803   0.245
  950SOL    HW2 3531   1.562   2.894   0.289
  951SOL     OW 3532   1.186   3.668   1.622
  951SOL    HW1 3533   1.196   3.727   1.548
  951SOL    HW2 3534   1.202   3.581   1.586
  952SOL     OW 3535   0.336   2.115   1.816
  952SOL    HW1 3536   0.383   2.197   1.829
  952SOL    HW2 3537   0.249   2.132   1.852
  953SOL     OW 3538   1.467   3.281   0.952
  953SOL    HW1 3539   1.398   3.297   1.017
  953SOL    HW2 3540   1.454   3.190   0.925
  954SOL     OW 3541   1.659   3.602   0.581
  954SOL    HW1 3542   1.638   3.574   0.492
  954SOL    HW2 3543   1.634   3.528   0.636
  955SOL     OW 3544   0.597   2.575   0.281
  955SOL    HW1 3545   0.617   2.654   0.230
  955SOL    HW2 3546   0.534   2.605   0.347
  956SOL     OW 3547   1.279   2.214   0.932
  956SOL    HW1 3548   1.190   2.181   0.941
  956SOL    HW2 3549   1.330   2.161   0.994
  957SOL     OW 3550   1.587   3.533   0.319
  957SOL    HW1 3551   1.677   3.562   0.312
  957SOL    HW2 3552   1.560   3.516   0.229
  958SOL     OW 3553   0.792   2.479   1.452
  958SOL    HW1 3554   0.765   2.456   1.540
  958SOL    HW2 3555   0.752   2.413   1.396
  959SOL     OW 3556   1.394   2.336   1.678
  959SOL    HW1 3557   1.396   2.380   1.762
  959SOL    HW2 3558   1.455   2.263   1.688
  960SOL     OW 3559   0.955   2.749   1.582
  960SOL    HW1 3560   1.009   2.679   1.547
  960SOL    HW2 3561   0.907   2.783   1.507
  961SOL     OW 3562   0.992   2.274   1.239
  961SOL    HW1 3563   0.907   2.296   1.276
  961SOL    HW2 3564   0.972   2.228   1.157
  962SOL     OW 3565   1.052   2.561   0.427
  962SOL    HW1 3566   1.067   2.554   0.521
  962SOL    HW2 3567   0.970   2.514   0.413
  963SOL     OW 3568   0.068   2.650   0.816
  963SOL    HW1 3569   0.151   2.655   0.863
  963SOL    HW2 3570   0.066   2.730   0.764
  964SOL     OW 3571   0.130   3.745   1.585
  964SOL    HW1 3572   0.133   3.715   1.675
  964SOL    HW2 3573   0.059   3.695   1.545
  965SOL     OW 3574   0.885   2.219   0.202
  965SOL    HW1 3575   0.930   2.269   0.133
  965SOL    HW2 3576   0.885   2.129   0.170
  966SOL     OW 3577   1.709   2.437   1.828
  966SOL    HW1 3578   1.671   2.511   1.781
  966SOL    HW2 3579   1.736   2.376   1.759
  967SOL     OW 3580   1.376   3.003   0.541
  967SOL    HW1 3581   1.455   2.991   0.488
  967SOL    HW2 3582   1.323   3.066   0.492
  968SOL     OW 3583   0.555   2.046   0.893
  968SOL    HW1 3584   0.552   2.073   0.985
  968SOL    HW2 3585   0.553   2.128   0.844
  969SOL     OW 3586   1.005   3.307   0.473
  969SOL    HW1 3587   0.967   3.379   0.423
  969SOL    HW2 3588   0.986   3.328   0.564
  970SOL     OW 3589   0.357   3.664   0.868
  970SOL    HW1 3590   0.398   3.578   0.882
  970SOL    HW2 3591   0.423   3.727   0.899
  971SOL     OW 3592   1.798   2.917   0.869
  971SOL    HW1 3593   1.743   2.901   0.792
  971SOL    HW2 3594   1.737   2.924   0.942
  972SOL     OW 3595   1.228   3.401   1.513
  972SOL    HW1 3596   1.214   3.328   1.573
  972SOL    HW2 3597   1.164   3.387   1.443
  973SOL     OW 3598   0.330   2.813   0.251
  973SOL    HW1 3599   0.411   2.826   0.201
  973SOL    HW2 3600   0.313   2.719   0.245
  974SOL     OW 3601   1.478   2.603   0.726
  974SOL    HW1 3602   1.469   2.561   0.812
  974SOL    HW2 3603   1.555   2.660   0.735
  975SOL     OW 3604   0.465   3.126   1.737
  975SOL    HW1 3605   0.438   3.132   1.646
  975SOL    HW2 3606   0.383   3.126   1.787
  976SOL     OW 3607   1.108   3.643   0.224
  976SOL    HW1 3608   1.052   3.603   0.290
  976SOL    HW2 3609   1.128   3.572   0.163
  977SOL     OW 3610   0.205   2.142   1.497
  977SOL    HW1 3611   0.126   2.194   1.481
  977SOL    HW2 3612   0.174   2.064   1.542
  978SOL     OW 3613   1.633   3.235   0.082
  978SOL    HW1 3614   1.593   3.321   0.082
  978SOL    HW2 3615   1.562   3.174   0.064
  979SOL     OW 3616   0.470   3.596   0.325
  979SOL    HW1 3617   0.513   3.656   0.386
  979SOL    HW2 3618   0.540   3.570   0.265
  980SOL     OW 3619   1.407   1.973   0.444
  980SOL    HW1 3620   1.397   1.952   0.351
  980SOL    HW2 3621   1.501   1.980   0.457
  981SOL     OW 3622   0.277   3.663   1.213
  981SOL    HW1 3623   0.306   3.586   1.262
  981SOL    HW2 3624   0.225   3.627   1.141
  982SOL     OW 3625   0.938   3.561   0.899
  982SOL    HW1 3626   1.016   3.508   0.920
  982SOL    HW2 3627   0.894   3.511   0.830
  983SOL     OW 3628   0.382   2.561   0.476
  983SOL    HW1 3629   0.414   2.471   0.485
  983SOL    HW2 3630   0.290   2.556   0.502
  984SOL     OW 3631   1.536   2.087   1.725
  984SOL    HW1 3632   1.545   2.108   1.818
  984SOL    HW2 3633   1.466   2.021   1.722
  985SOL     OW 3634   0.628   1.972   0.136
  985SOL    HW1 3635   0.723   1.961   0.141
  985SOL    HW2 3636   0.607   1.954   0.045
  986SOL     OW 3637   0.767   2.140   1.754
  986SOL    HW1 3638   0.842   2.081   1.756
  986SOL    HW2 3639   0.718   2.119   1.833
  987SOL     OW 3640   0.877   3.384   1.193
  987SOL    HW1 3641   0.861   3.347   1.106
  987SOL    HW2 3642   0.947   3.329   1.229
  988SOL     OW 3643   1.341   2.450   1.432
  988SOL    HW1 3644   1.371   2.419   1.517
  988SOL    HW2 3645   1.376   2.539   1.424
  989SOL     OW 3646   0.815   3.256   0.939
  989SOL    HW1 3647   0.900   3.246   0.895
  989SOL    HW2 3648   0.751   3.258   0.868
  990SOL     OW 3649   0.928   2.371   0.902
  990SOL    HW1 3650   0.904   2.363   0.810
  990SOL    HW2 3651   0.959   2.284   0.927
  991SOL     OW 3652   0.560   1.924   0.500
  991SOL    HW1 3653   0.485   1.923   0.559
  991SOL    HW2 3654   0.549   2.003   0.448
  992SOL     OW 3655   1.433   3.061   0.036
  992SOL    HW1 3656   1.457   2.987   0.092
  992SOL    HW2 3657   1.345   3.086   0.065
  993SOL     OW 3658   0.314   1.908   0.175
  993SOL    HW1 3659   0.378   1.979   0.179
  993SOL    HW2 3660   0.356   1.835   0.218
  994SOL     OW 3661   0.940   2.109   0.459
  994SOL    HW1 3662   0.912   2.151   0.377
  994SOL    HW2 3663   1.035   2.125   0.463
  995SOL     OW 3664   1.080   2.542   1.460
  995SOL    HW1 3665   1.011   2.476   1.464
  995SOL    HW2 3666   1.161   2.492   1.453
  996SOL     OW 3667   1.224   3.431   0.794
  996SOL    HW1 3668   1.239   3.498   0.727
  996SOL    HW2 3669   1.292   3.446   0.860
  997SOL     OW 3670   0.468   3.012   0.732
  997SOL    HW1 3671   0.399   2.993   0.795
  997SOL    HW2 3672   0.428   2.996   0.647
  998SOL     OW 3673   1.268   3.656   0.607
  998SOL    HW1 3674   1.317   3.719   0.555
  998SOL    HW2 3675   1.201   3.708   0.651
  999SOL     OW 3676   1.031   2.391   0.032
  999SOL    HW1 3677   0.990   2.471   0.000
  999SOL    HW2 3678   1.094   2.419   0.097
 1000SOL     OW 3679   0.087   2.408   1.398
 1000SOL    HW1 3680   0.175   2.415   1.361
 1000SOL    HW2 3681   0.079   2.483   1.456
 1001SOL     OW 3682   0.560   2.089   1.166
 1001SOL    HW1 3683   0.598   2.010   1.203
 1001SOL    HW2 3684   0.469   2.088   1.194
 1002SOL     OW 3685   0.867   2.320   0.639
 1002SOL    HW1 3686   0.825   2.376   0.574
 1002SOL    HW2 3687   0.889   2.240   0.592
 1003SOL     OW 3688   1.016   1.914   0.750
 1003SOL    HW1 3689   0.956   1.908   0.676
 1003SOL    HW2 3690   0.994   1.839   0.806
 1004SOL     OW 3691   1.437   3.024   0.857
 1004SOL    HW1 3692   1.367   2.959   0.856
 1004SOL    HW2 3693   1.461   3.036   0.765
 1005SOL     OW 3694   1.467   2.467   0.977
 1005SOL    HW1 3695   1.415   2.386   0.981
 1005SOL    HW2 3696   1.526   2.461   1.052
 1006SOL     OW 3697   1.851   2.677   0.389
 1006SOL    HW1 3698   1.902   2.623   0.449
 1006SOL    HW2 3699   1.819   2.616   0.322
 1007SOL     OW 3700   0.483   3.302   0.173
 1007SOL    HW1 3701   0.410   3.263   0.221
 1007SOL    HW2 3702   0.488   3.252   0.092
 1008SOL     OW 3703   1.670   3.127   0.648
 1008SOL    HW1 3704   1.765   3.130   0.661
 1008SOL    HW2 3705   1.640   3.215   0.668
 1009SOL     OW 3706   1.399   2.441   0.087
 1009SOL    HW1 3707   1.336   2.421   0.157
 1009SOL    HW2 3708   1.454   2.363   0.082
 1010SOL     OW 3709   0.515   2.125   0.323
 1010SOL    HW1 3710   0.565   2.073   0.260
 1010SOL    HW2 3711   0.501   2.209   0.280
 1011SOL     OW 3712   1.752   3.101   1.574
 1011SOL    HW1 3713   1.840   3.063   1.568
 1011SOL    HW2 3714   1.767   3.191   1.602
 1012SOL     OW 3715   1.059   3.215   1.333
 1012SOL    HW1 3716   0.984   3.184   1.384
 1012SOL    HW2 3717   1.134   3.174   1.375
 1013SOL     OW 3718   1.608   3.487   1.654
 1013SOL    HW1 3719   1.602   3.521   1.564
 1013SOL    HW2 3720   1.691   3.440   1.656
 1014SOL     OW 3721   1.128   3.065   1.105
 1014SOL    HW1 3722   1.070   3.103   1.171
 1014SOL    HW2 3723   1.096   3.097   1.021
 1015SOL     OW 3724   1.628   2.960   1.078
 1015SOL    HW1 3725   1.623   3.022   1.150
 1015SOL    HW2 3726   1.549   2.977   1.026
 1016SOL     OW 3727   0.919   1.958   1.397
 1016SOL    HW1 3728   0.941   1.940   1.306
 1016SOL    HW2 3729   0.998   1.998   1.433
 1017SOL     OW 3730   0.984   2.977   1.723
 1017SOL    HW1 3731   0.892   2.993   1.743
 1017SOL    HW2 3732   0.983   2.899   1.667
 1018SOL     OW 3733   0.714   2.924   0.381
 1018SOL    HW1 3734   0.697   2.907   0.473
 1018SOL    HW2 3735   0.792   2.872   0.360
 1019SOL     OW 3736   0.420   2.681   1.252
 1019SOL    HW1 3737   0.489   2.688   1.318
 1019SOL    HW2 3738   0.386   2.592   1.263
 1020SOL     OW 3739   1.265   2.239   1.275
 1020SOL    HW1 3740   1.298   2.316   1.321
 1020SOL    HW2 3741   1.175   2.261   1.252
 1021SOL     OW 3742   0.101   3.485   1.367
 1021SOL    HW1 3743   0.079   3.493   1.274
 1021SOL    HW2 3744   0.187   3.443   1.367
 1022SOL     OW 3745   0.346   2.970   0.488
 1022SOL    HW1 3746   0.345   3.049   0.434
 1022SOL    HW2 3747   0.359   2.899   0.425
 1023SOL     OW 3748   0.554   2.397   0.859
 1023SOL    HW1 3749   0.570   2.456   0.785
 1023SOL    HW2 3750   0.618   2.424   0.925
 1024SOL     OW 3751   1.247   3.209   0.394
 1024SOL    HW1 3752   1.303   3.282   0.422
 1024SOL    HW2 3753   1.160   3.232   0.425
 1025SOL     OW 3754   1.281   3.319   1.147
 1025SOL    HW1 3755   1.336   3.322   1.225
 1025SOL    HW2 3756   1.225   3.243   1.160
 1026SOL     OW 3757   1.583   2.486   0.481
 1026SOL    HW1 3758   1.533   2.536   0.546
 1026SOL    HW2 3759   1.617   2.552   0.421
 1027SOL     OW 3760   0.352   3.381   1.311
 1027SOL    HW1 3761   0.341   3.338   1.226
 1027SOL    HW2 3762   0.445   3.399   1.317
 1028SOL     OW 3763   0.414   2.604   1.602
 1028SOL    HW1 3764   0.474   2.651   1.544
 1028SOL    HW2 3765   0.454   2.519   1.615
 1029SOL     OW 3766   1.601   2.640   1.682
 1029SOL    HW1 3767   1.515   2.682   1.675
 1029SOL    HW2 3768   1.653   2.683   1.613
 1030SOL     OW 3769   0.996   1.985   1.755
 1030SOL    HW1 3770   1.051   2.057   1.727
 1030SOL    HW2 3771   1.044   1.906   1.730
 1031SOL     OW 3772   0.497   1.903   1.747
 1031SOL    HW1 3773   0.455   1.849   1.681
 1031SOL    HW2 3774   0.438   1.977   1.760
 1032SOL     OW 3775   0.585   2.735   1.032
 1032SOL    HW1 3776   0.616   2.826   1.031
 1032SOL    HW2 3777   0.529   2.730   1.109
 1033SOL     OW 3778   1.358   2.721   1.030
 1033SOL    HW1 3779   1.275   2.712   0.983
 1033SOL    HW2 3780   1.398   2.634   1.024
 1034SOL     OW 3781   1.204   2.390   0.271
 1034SOL    HW1 3782   1.211   2.311   0.325
 1034SOL    HW2 3783   1.161   2.454   0.328
 1035SOL     OW 3784   0.301   2.066   1.247
 1035SOL    HW1 3785   0.267   2.090   1.333
 1035SOL    HW2 3786   0.289   1.971   1.243
 1036SOL     OW 3787   0.069   3.181   1.281
 1036SOL    HW1 3788   0.091   3.121   1.352
 1036SOL    HW2 3789   5.300   3.236   1.316
 1037SOL     OW 3790   0.724   2.493   1.058
 1037SOL    HW1 3791   0.799   2.477   1.000
 1037SOL    HW2 3792   0.696   2.582   1.037
 1038SOL     OW 3793   1.734   2.821   1.853
 1038SOL    HW1 3794   1.688   2.760   1.795
 1038SOL    HW2 3795   1.675   2.835   1.926
 1039SOL     OW 3796   0.325   1.925   0.635
 1039SOL    HW1 3797   0.309   2.015   0.664
 1039SOL    HW2 3798   0.331   1.874   0.716
 1040SOL     OW 3799   1.621   2.237   0.370
 1040SOL    HW1 3800   1.645   2.172   0.436
 1040SOL    HW2 3801   1.595   2.314   0.420
 1041SOL     OW 3802   1.028   2.621   0.961
 1041SOL    HW1 3803   1.024   2.639   1.055
 1041SOL    HW2 3804   1.001   2.529   0.952
 1042SOL     OW 3805   0.982   3.428   1.717
 1042SOL    HW1 3806   0.967   3.472   1.633
 1042SOL    HW2 3807   1.026   3.346   1.693
 1043SOL     OW 3808   1.855   3.368   1.605
 1043SOL    HW1 3809   1.873   3.394   1.515
 1043SOL    HW2 3810   1.936   3.386   1.652
 1044SOL     OW 3811   0.354   2.780   1.806
 1044SOL    HW1 3812   0.435   2.799   1.853
 1044SOL    HW2 3813   0.379   2.715   1.740
 1045SOL     OW 3814   1.519   2.162   0.126
 1045SOL    HW1 3815   1.469   2.082   0.143
 1045SOL    HW2 3816   1.558   2.183   0.211
 1046SOL     OW 3817   1.295   2.686   0.021
 1046SOL    HW1 3818   1.334   2.601   0.039
 1046SOL    HW2 3819   1.355   2.728   8.039
 1047SOL     OW 3820   1.066   3.197   0.854
 1047SOL    HW1 3821   1.069   3.125   0.791
 1047SOL    HW2 3822   1.127   3.262   0.819
 1048SOL     OW 3823   0.314   2.671   0.950
 1048SOL    HW1 3824   0.408   2.690   0.946
 1048SOL    HW2 3825   0.309   2.581   0.982
 1049SOL     OW 3826   0.335   2.387   1.015
 1049SOL    HW1 3827   0.300   2.299   1.001
 1049SOL    HW2 3828   0.410   2.393   0.956
 1050SOL     OW 3829   1.134   2.238   1.682
 1050SOL    HW1 3830   1.087   2.293   1.744
 1050SOL    HW2 3831   1.222   2.276   1.678
 1051SOL     OW 3832   1.161   2.065   1.470
 1051SOL    HW1 3833   1.150   2.127   1.542
 1051SOL    HW2 3834   1.200   2.116   1.399
 1052SOL     OW 3835   0.009   3.191   0.202
 1052SOL    HW1 3836   5.235   3.177   0.143
 1052SOL    HW2 3837   0.014   3.110   0.253
 1053SOL     OW 3838   0.093   3.644   0.949
 1053SOL    HW1 3839   0.059   3.572   0.895
 1053SOL    HW2 3840   0.181   3.660   0.914
 1054SOL     OW 3841   0.505   3.435   0.907
 1054SOL    HW1 3842   0.572   3.500   0.928
 1054SOL    HW2 3843   0.548   3.374   0.848
 1055SOL     OW 3844   0.983   2.653   1.226
 1055SOL    HW1 3845   1.039   2.631   1.301
 1055SOL    HW2 3846   0.898   2.617   1.249
 1056SOL     OW 3847   0.033   2.420   1.115
 1056SOL    HW1 3848   0.120   2.399   1.083
 1056SOL    HW2 3849   0.037   2.405   1.209
 1057SOL     OW 3850   0.174   2.375   1.712
 1057SOL    HW1 3851   0.240   2.339   1.652
 1057SOL    HW2 3852   0.146   2.456   1.670
 1058SOL     OW 3853   1.377   2.801   1.659
 1058SOL    HW1 3854   1.398   2.894   1.657
 1058SOL    HW2 3855   1.374   2.775   1.566
 1059SOL     OW 3856   0.819   2.431   0.367
 1059SOL    HW1 3857   0.828   2.360   0.304
 1059SOL    HW2 3858   0.742   2.480   0.336
 1060SOL     OW 3859   1.641   2.463   1.186
 1060SOL    HW1 3860   1.631   2.404   1.261
 1060SOL    HW2 3861   1.728   2.443   1.152
 1061SOL     OW 3862   0.257   3.418   1.735
 1061SOL    HW1 3863   0.234   3.481   1.803
 1061SOL    HW2 3864   0.249   3.332   1.777
 1062SOL     OW 3865   0.701   2.312   1.260
 1062SOL    HW1 3866   0.648   2.238   1.230
 1062SOL    HW2 3867   0.697   2.375   1.188
 1063SOL     OW 3868   0.929   3.541   1.467
 1063SOL    HW1 3869   0.902   3.507   1.382
 1063SOL    HW2 3870   0.924   3.636   1.458
 1064SOL     OW 3871   0.467   2.352   0.180
 1064SOL    HW1 3872   0.532   2.419   0.200
 1064SOL    HW2 3873   0.383   2.398   0.183
 1065SOL     OW 3874   0.148   2.999   1.471
 1065SOL    HW1 3875   0.146   2.951   1.553
 1065SOL    HW2 3876   0.160   2.933   1.404
 1066SOL     OW 3877   1.326   2.909   1.223
 1066SOL    HW1 3878   1.349   2.846   1.155
 1066SOL    HW2 3879   1.256   2.961   1.185
 1067SOL     OW 3880   1.306   2.710   0.308
 1067SOL    HW1 3881   1.228   2.682   0.356
 1067SOL    HW2 3882   1.283   2.699   0.216
 1068SOL     OW 3883   1.771   3.606   1.150
 1068SOL    HW1 3884   1.832   3.632   1.080
 1068SOL    HW2 3885   1.747   3.516   1.128
 1069SOL     OW 3886   1.241   3.595   1.113
 1069SOL    HW1 3887   1.323   3.616   1.068
 1069SOL    HW2 3888   1.247   3.501   1.131
 1070SOL     OW 3889   0.083   3.079   1.027
 1070SOL    HW1 3890   0.069   3.105   1.119
 1070SOL    HW2 3891   5.294   3.068   0.992
 1071SOL     OW 3892   0.678   3.528   1.729
 1071SOL    HW1 3893   0.622   3.606   1.724
 1071SOL    HW2 3894   0.742   3.539   1.659
 1072SOL     OW 3895   0.905   1.953   0.133
 1072SOL    HW1 3896   0.924   1.938   0.040
 1072SOL    HW2 3897   0.969   1.900   0.180
 1073SOL     OW 3898   1.720   2.007   0.510
 1073SOL    HW1 3899   1.792   1.991   0.449
 1073SOL    HW2 3900   1.704   1.922   0.552
 1074SOL     OW 3901   1.390   3.430   0.485
 1074SOL    HW1 3902   1.453   3.463   0.421
 1074SOL    HW2 3903   1.342   3.508   0.515
 1075SOL     OW 3904   0.145   3.660   1.842
 1075SOL    HW1 3905   0.090   3.597   1.889
 1075SOL    HW2 3906   0.191   3.708   1.911
 1076SOL     OW 3907   1.277   2.787   0.671
 1076SOL    HW1 3908   1.351   2.726   0.677
 1076SOL    HW2 3909   1.311   2.860   0.619
 1077SOL     OW 3910   0.814   3.135   1.430
 1077SOL    HW1 3911   0.786   3.175   1.512
 1077SOL    HW2 3912   0.745   3.156   1.368
 1078SOL     OW 3913   0.678   3.482   0.155
 1078SOL    HW1 3914   0.681   3.489   0.060
 1078SOL    HW2 3915   0.617   3.410   0.171
 1079SOL     OW 3916   1.626   3.588   1.391
 1079SOL    HW1 3917   1.676   3.595   1.310
 1079SOL    HW2 3918   1.613   3.679   1.419
 1080SOL     OW 3919   1.840   2.035   0.966
 1080SOL    HW1 3920   1.868   1.947   0.940
 1080SOL    HW2 3921   1.754   2.045   0.927
 1081SOL     OW 3922   0.270   2.179   0.717
 1081SOL    HW1 3923   0.187   2.222   0.698
 1081SOL    HW2 3924   0.270   2.168   0.812
 1082SOL     OW 3925   1.156   3.443   0.051
 1082SOL    HW1 3926   1.173   3.351   0.071
 1082SOL    HW2 3927   1.168   3.450   8.036
 1083SOL     OW 3928   0.824   2.868   1.372
 1083SOL    HW1 3929   0.867   2.864   1.287
 1083SOL    HW2 3930   0.823   2.961   1.395
 1084SOL     OW 3931   0.918   2.775   0.297
 1084SOL    HW1 3932   0.972   2.800   0.222
 1084SOL    HW2 3933   0.966   2.704   0.339
 1085SOL     OW 3934   1.510   3.486   0.061
 1085SOL    HW1 3935   1.415   3.487   0.049
 1085SOL    HW2 3936   1.545   3.487   8.051
 1086SOL     OW 3937   0.368   3.166   1.493
 1086SOL    HW1 3938   0.359   3.240   1.434
 1086SOL    HW2 3939   0.292   3.111   1.474
 1087SOL     OW 3940   1.610   3.145   1.280
 1087SOL    HW1 3941   1.671   3.135   1.354
 1087SOL    HW2 3942   1.550   3.214   1.308
 1088SOL     OW 3943   1.052   2.969   0.707
 1088SOL    HW1 3944   0.981   2.918   0.746
 1088SOL    HW2 3945   1.114   2.904   0.674
 1089SOL     OW 3946   1.022   2.102   0.966
 1089SOL    HW1 3947   1.017   2.054   0.883
 1089SOL    HW2 3948   1.016   2.034   1.033
 1090SOL     OW 3949   0.602   3.349   0.479
 1090SOL    HW1 3950   0.645   3.300   0.409
 1090SOL    HW2 3951   0.534   3.400   0.435
 1091SOL     OW 3952   1.722   2.254   1.380
 1091SOL    HW1 3953   1.794   2.318   1.378
 1091SOL    HW2 3954   1.752   2.183   1.324
 1092SOL     OW 3955   0.269   3.188   0.300
 1092SOL    HW1 3956   0.183   3.198   0.258
 1092SOL    HW2 3957   0.261   3.234   0.383
 1093SOL     OW 3958   0.116   2.878   1.718
 1093SOL    HW1 3959   0.045   2.843   1.772
 1093SOL    HW2 3960   0.196   2.847   1.760
 1094SOL     OW 3961   0.674   2.058   1.499
 1094SOL    HW1 3962   0.758   2.038   1.458
 1094SOL    HW2 3963   0.697   2.090   1.587
 1095SOL     OW 3964   0.041   2.254   0.028
 1095SOL    HW1 3965   0.019   2.167   0.060
 1095SOL    HW2 3966   0.122   2.241   8.058
 1096SOL     OW 3967   1.430   2.720   1.400
 1096SOL    HW1 3968   1.381   2.781   1.345
 1096SOL    HW2 3969   1.519   2.723   1.366
 1097SOL     OW 3970   0.052   1.997   0.217
 1097SOL    HW1 3971   0.054   2.084   0.256
 1097SOL    HW2 3972   0.144   1.973   0.207
 1098SOL     OW 3973   1.184   3.180   0.122
 1098SOL    HW1 3974   1.089   3.170   0.121
 1098SOL    HW2 3975   1.208   3.182   0.214
 1099SOL     OW 3976   0.619   2.693   1.435
 1099SOL    HW1 3977   0.675   2.769   1.419
 1099SOL    HW2 3978   0.680   2.619   1.443
 1100SOL     OW 3979   1.484   3.638   0.978
 1100SOL    HW1 3980   1.508   3.698   0.907
 1100SOL    HW2 3981   1.567   3.620   1.023
 1101SOL     OW 3982   0.717   2.426   1.705
 1101SOL    HW1 3983   0.758   2.489   1.764
 1101SOL    HW2 3984   0.746   2.341   1.736
 1102SOL     OW 3985   1.471   3.062   1.632
 1102SOL    HW1 3986   1.459   3.076   1.726
 1102SOL    HW2 3987   1.565   3.077   1.617
 1103SOL     OW 3988   0.378   3.604   1.564
 1103SOL    HW1 3989   0.296   3.650   1.548
 1103SOL    HW2 3990   0.353   3.524   1.609
 1104SOL     OW 3991   1.670   2.743   1.255
 1104SOL    HW1 3992   1.662   2.658   1.212
 1104SOL    HW2 3993   1.660   2.807   1.184
 1105SOL     OW 3994   1.217   2.180   0.460
 1105SOL    HW1 3995   1.282   2.110   0.453
 1105SOL    HW2 3996   1.245   2.231   0.536
 1106SOL     OW 3997   0.589   2.599   0.669
 1106SOL    HW1 3998   0.629   2.685   0.655
 1106SOL    HW2 3999   0.519   2.594   0.604
 1107SOL     OW 4000   1.763   2.224   1.650
 1107SOL    HW1 4001   1.745   2.239   1.557
 1107SOL    HW2 4002   1.692   2.167   1.679
 1108SOL     OW 4003   1.745   2.795   1.512
 1108SOL    HW1 4004   1.742   2.890   1.526
 1108SOL    HW2 4005   1.730   2.784   1.418
 1109SOL     OW 4006   0.894   3.234   0.035
 1109SOL    HW1 4007   0.831   3.225   0.107
 1109SOL    HW2 4008   0.878   3.322   0.000
 1110SOL     OW 4009   0.663   3.656   0.944
 1110SOL    HW1 4010   0.642   3.746   0.921
 1110SOL    HW2 4011   0.758   3.651   0.937
 1111SOL     OW 4012   0.867   2.828   0.855
 1111SOL    HW1 4013   0.918   2.757   0.895
 1111SOL    HW2 4014   0.833   2.878   0.929
 1112SOL     OW 4015   1.076   2.838   0.085
 1112SOL    HW1 4016   1.067   2.903   0.016
 1112SOL    HW2 4017   1.154   2.788   0.061
 1113SOL     OW 4018   1.854   3.416   0.844
 1113SOL    HW1 4019   1.775   3.405   0.791
 1113SOL    HW2 4020   1.846   3.351   0.913
 1114SOL     OW 4021   0.225   3.167   1.860
 1114SOL    HW1 4022   0.157   3.104   1.834
 1114SOL    HW2 4023   0.214   3.177   1.954
 1115SOL     OW 4024   0.093   3.095   0.660
 1115SOL    HW1 4025   0.099   3.050   0.745
 1115SOL    HW2 4026   0.170   3.064   0.612
 1116SOL     OW 4027   0.681   3.264   1.628
 1116SOL    HW1 4028   0.601   3.222   1.658
 1116SOL    HW2 4029   0.677   3.353   1.664
 1117SOL     OW 4030   1.814   2.047   1.238
 1117SOL    HW1 4031   1.822   1.953   1.252
 1117SOL    HW2 4032   1.823   2.057   1.143
 1118SOL     OW 4033   0.431   2.301   0.523
 1118SOL    HW1 4034   0.462   2.228   0.469
 1118SOL    HW2 4035   0.387   2.259   0.597
 1119SOL     OW 4036   1.701   3.351   1.096
 1119SOL    HW1 4037   1.619   3.328   1.051
 1119SOL    HW2 4038   1.713   3.282   1.161
 1120SOL     OW 4039   0.336   2.421   1.291
 1120SOL    HW1 4040   0.389   2.362   1.345
 1120SOL    HW2 4041   0.350   2.391   1.202
 1121SOL     OW 4042   0.828   3.439   0.678
 1121SOL    HW1 4043   0.816   3.493   0.600
 1121SOL    HW2 4044   0.751   3.382   0.680
 1122SOL     OW 4045   1.432   2.087   1.118
 1122SOL    HW1 4046   1.456   2.007   1.164
 1122SOL    HW2 4047   1.380   2.137   1.181
 1123SOL     OW 4048   1.009   1.881   1.142
 1123SOL    HW1 4049   0.954   1.813   1.103
 1123SOL    HW2 4050   1.097   1.843   1.144
 1124SOL     OW 4051   0.771   3.188   0.307
 1124SOL    HW1 4052   0.740   3.100   0.323
 1124SOL    HW2 4053   0.852   3.195   0.358
 1125SOL     OW 4054   0.623   3.418   1.287
 1125SOL    HW1 4055   0.624   3.500   1.336
 1125SOL    HW2 4056   0.709   3.412   1.247
 1126SOL     OW 4057   1.356   1.917   0.184
 1126SOL    HW1 4058   1.378   1.869   0.104
 1126SOL    HW2 4059   1.270   1.883   0.210
 1127SOL     OW 4060   1.297   2.323   0.681
 1127SOL    HW1 4061   1.244   2.402   0.688
 1127SOL    HW2 4062   1.292   2.283   0.768
 1128SOL     OW 4063   1.587   2.064   0.878
 1128SOL    HW1 4064   1.526   2.084   0.949
 1128SOL    HW2 4065   1.586   2.143   0.823
 1129SOL     OW 4066   0.046   2.939   0.318
 1129SOL    HW1 4067   0.135   2.914   0.291
 1129SOL    HW2 4068   5.298   2.856   0.319
 1130SOL     OW 4069   0.883   3.515   0.347
 1130SOL    HW1 4070   0.814   3.499   0.282
 1130SOL    HW2 4071   0.852   3.590   0.396
 1131SOL     OW 4072   0.233   2.494   1.978
 1131SOL    HW1 4073   0.160   2.461   2.029
 1131SOL    HW2 4074   0.219   2.459   1.890
 1132SOL     OW 4075   0.242   2.137   2.852
 1132SOL    HW1 4076   0.256   2.103   2.940
 1132SOL    HW2 4077   0.158   2.100   2.824
 1133SOL     OW 4078   5.298   2.260   2.515
 1133SOL    HW1 4079   5.206   2.282   2.521
 1133SOL    HW2 4080   5.299   2.169   2.484
 1134SOL     OW 4081   0.574   3.146   3.043
 1134SOL    HW1 4082   0.491   3.154   2.996
 1134SOL    HW2 4083   0.590   3.234   3.078
 1135SOL     OW 4084   1.561   3.373   2.569
 1135SOL    HW1 4085   1.518   3.354   2.652
 1135SOL    HW2 4086   1.489   3.378   2.505
 1136SOL     OW 4087   1.130   2.560   2.563
 1136SOL    HW1 4088   1.179   2.641   2.549
 1136SOL    HW2 4089   1.084   2.574   2.645
 1137SOL     OW 4090   1.768   2.467   2.091
 1137SOL    HW1 4091   1.747   2.460   1.998
 1137SOL    HW2 4092   1.731   2.388   2.130
 1138SOL     OW 4093   0.755   3.003   2.901
 1138SOL    HW1 4094   0.688   3.037   2.960
 1138SOL    HW2 4095   0.790   3.081   2.857
 1139SOL     OW 4096   0.865   2.637   3.683
 1139SOL    HW1 4097   0.858   2.709   3.746
 1139SOL    HW2 4098   0.889   2.679   3.601
 1140SOL     OW 4099   0.685   2.865   2.509
 1140SOL    HW1 4100   0.751   2.852   2.578
 1140SOL    HW2 4101   0.617   2.918   2.551
 1141SOL     OW 4102   0.709   3.012   3.675
 1141SOL    HW1 4103   0.758   3.090   3.701
 1141SOL    HW2 4104   0.627   3.046   3.639
 1142SOL     OW 4105   0.358   3.267   2.922
 1142SOL    HW1 4106   0.270   3.266   2.884
 1142SOL    HW2 4107   0.406   3.329   2.868
 1143SOL     OW 4108   1.461   3.361   3.216
 1143SOL    HW1 4109   1.510   3.443   3.227
 1143SOL    HW2 4110   1.400   3.360   3.289
 1144SOL     OW 4111   0.450   2.262   3.355
 1144SOL    HW1 4112   0.524   2.202   3.356
 1144SOL    HW2 4113   0.373   2.206   3.364
 1145SOL     OW 4114   1.612   2.311   2.602
 1145SOL    HW1 4115   1.536   2.332   2.547
 1145SOL    HW2 4116   1.624   2.388   2.656
 1146SOL     OW 4117   0.231   3.576   2.339
 1146SOL    HW1 4118   0.264   3.645   2.397
 1146SOL    HW2 4119   0.293   3.573   2.267
 1147SOL     OW 4120   1.136   3.204   3.554
 1147SOL    HW1 4121   1.179   3.198   3.639
 1147SOL    HW2 4122   1.084   3.124   3.548
 1148SOL     OW 4123   0.222   3.306   2.401
 1148SOL    HW1 4124   0.215   3.401   2.398
 1148SOL    HW2 4125   0.152   3.279   2.461
 1149SOL     OW 4126   0.249   2.939   2.737
 1149SOL    HW1 4127   0.261   2.855   2.780
 1149SOL    HW2 4128   0.198   2.991   2.799
 1150SOL     OW 4129   0.614   3.652   3.294
 1150SOL    HW1 4130   0.530   3.635   3.337
 1150SOL    HW2 4131   0.634   3.743   3.317
 1151SOL     OW 4132   0.584   2.845   1.997
 1151SOL    HW1 4133   0.629   2.893   1.928
 1151SOL    HW2 4134   0.625   2.874   2.078
 1152SOL     OW 4135   1.580   1.980   3.320
 1152SOL    HW1 4136   1.589   2.061   3.271
 1152SOL    HW2 4137   1.605   2.004   3.410
 1153SOL     OW 4138   0.126   2.496   2.441
 1153SOL    HW1 4139   0.089   2.413   2.470
 1153SOL    HW2 4140   0.099   2.559   2.508
 1154SOL     OW 4141   1.842   3.621   2.197
 1154SOL    HW1 4142   1.906   3.593   2.262
 1154SOL    HW2 4143   1.866   3.712   2.178
 1155SOL     OW 4144   0.038   3.461   1.994
 1155SOL    HW1 4145   0.024   3.369   2.019
 1155SOL    HW2 4146   5.283   3.510   2.054
 1156SOL     OW 4147   1.689   2.780   2.501
 1156SOL    HW1 4148   1.772   2.738   2.479
 1156SOL    HW2 4149   1.666   2.831   2.424
 1157SOL     OW 4150   1.646   2.969   2.291
 1157SOL    HW1 4151   1.732   2.975   2.249
 1157SOL    HW2 4152   1.651   3.030   2.364
 1158SOL     OW 4153   0.131   2.610   3.447
 1158SOL    HW1 4154   0.226   2.624   3.450
 1158SOL    HW2 4155   0.094   2.697   3.463
 1159SOL     OW 4156   0.615   3.247   2.597
 1159SOL    HW1 4157   0.568   3.165   2.607
 1159SOL    HW2 4158   0.598   3.274   2.506
 1160SOL     OW 4159   1.290   3.102   3.285
 1160SOL    HW1 4160   1.321   3.032   3.227
 1160SOL    HW2 4161   1.345   3.094   3.363
 1161SOL     OW 4162   0.822   1.861   2.371
 1161SOL    HW1 4163   0.862   1.946   2.352
 1161SOL    HW2 4164   0.729   1.880   2.378
 1162SOL     OW 4165   0.177   2.808   3.140
 1162SOL    HW1 4166   0.268   2.779   3.131
 1162SOL    HW2 4167   0.135   2.782   3.058
 1163SOL     OW 4168   1.532   2.855   2.060
 1163SOL    HW1 4169   1.462   2.798   2.092
 1163SOL    HW2 4170   1.572   2.890   2.140
 1164SOL     OW 4171   1.185   3.668   3.484
 1164SOL    HW1 4172   1.196   3.727   3.409
 1164SOL    HW2 4173   1.201   3.581   3.449
 1165SOL     OW 4174   0.336   2.115   3.679
 1165SOL    HW1 4175   0.383   2.197   3.691
 1165SOL    HW2 4176   0.249   2.132   3.714
 1166SOL     OW 4177   1.467   3.282   2.814
 1166SOL    HW1 4178   1.398   3.297   2.879
 1166SOL    HW2 4179   1.454   3.191   2.787
 1167SOL     OW 4180   1.659   3.601   2.440
 1167SOL    HW1 4181   1.639   3.572   2.351
 1167SOL    HW2 4182   1.634   3.527   2.496
 1168SOL     OW 4183   0.595   2.583   2.128
 1168SOL    HW1 4184   0.603   2.664   2.077
 1168SOL    HW2 4185   0.531   2.603   2.195
 1169SOL     OW 4186   1.279   2.214   2.795
 1169SOL    HW1 4187   1.190   2.181   2.803
 1169SOL    HW2 4188   1.330   2.161   2.856
 1170SOL     OW 4189   1.581   3.532   2.171
 1170SOL    HW1 4190   1.671   3.564   2.164
 1170SOL    HW2 4191   1.554   3.515   2.081
 1171SOL     OW 4192   0.791   2.479   3.313
 1171SOL    HW1 4193   0.764   2.455   3.402
 1171SOL    HW2 4194   0.751   2.412   3.258
 1172SOL     OW 4195   1.393   2.341   3.540
 1172SOL    HW1 4196   1.396   2.383   3.626
 1172SOL    HW2 4197   1.442   2.259   3.551
 1173SOL     OW 4198   0.953   2.749   3.445
 1173SOL    HW1 4199   1.010   2.680   3.410
 1173SOL    HW2 4200   0.907   2.783   3.369
 1174SOL     OW 4201   0.992   2.274   3.101
 1174SOL    HW1 4202   0.907   2.297   3.138
 1174SOL    HW2 4203   0.972   2.228   3.020
 1175SOL     OW 4204   1.051   2.561   2.288
 1175SOL    HW1 4205   1.066   2.554   2.382
 1175SOL    HW2 4206   0.968   2.514   2.274
 1176SOL     OW 4207   0.072   2.649   2.673
 1176SOL    HW1 4208   0.153   2.654   2.723
 1176SOL    HW2 4209   0.063   2.735   2.633
 1177SOL     OW 4210   0.130   3.746   3.447
 1177SOL    HW1 4211   0.133   3.716   3.537
 1177SOL    HW2 4212   0.059   3.695   3.407
 1178SOL     OW 4213   0.893   2.210   2.056
 1178SOL    HW1 4214   0.933   2.272   1.995
 1178SOL    HW2 4215   0.909   2.125   2.017
 1179SOL     OW 4216   1.377   3.004   2.403
 1179SOL    HW1 4217   1.456   2.992   2.350
 1179SOL    HW2 4218   1.324   3.066   2.353
 1180SOL     OW 4219   0.555   2.045   2.755
 1180SOL    HW1 4220   0.553   2.073   2.847
 1180SOL    HW2 4221   0.551   2.127   2.705
 1181SOL     OW 4222   1.005   3.306   2.334
 1181SOL    HW1 4223   0.968   3.379   2.285
 1181SOL    HW2 4224   0.988   3.327   2.426
 1182SOL     OW 4225   0.357   3.664   2.731
 1182SOL    HW1 4226   0.397   3.579   2.744
 1182SOL    HW2 4227   0.423   3.727   2.760
 1183SOL     OW 4228   1.797   2.914   2.729
 1183SOL    HW1 4229   1.742   2.900   2.652
 1183SOL    HW2 4230   1.735   2.923   2.802
 1184SOL     OW 4231   1.228   3.401   3.375
 1184SOL    HW1 4232   1.214   3.328   3.436
 1184SOL    HW2 4233   1.164   3.386   3.305
 1185SOL     OW 4234   0.316   2.814   2.109
 1185SOL    HW1 4235   0.398   2.838   2.065
 1185SOL    HW2 4236   0.293   2.728   2.073
 1186SOL     OW 4237   1.478   2.604   2.588
 1186SOL    HW1 4238   1.468   2.561   2.674
 1186SOL    HW2 4239   1.555   2.660   2.598
 1187SOL     OW 4240   0.465   3.126   3.600
 1187SOL    HW1 4241   0.438   3.132   3.508
 1187SOL    HW2 4242   0.382   3.127   3.649
 1188SOL     OW 4243   1.122   3.640   2.093
 1188SOL    HW1 4244   1.049   3.598   2.139
 1188SOL    HW2 4245   1.145   3.578   2.023
 1189SOL     OW 4246   0.205   2.142   3.359
 1189SOL    HW1 4247   0.126   2.194   3.343
 1189SOL    HW2 4248   0.173   2.064   3.404
 1190SOL     OW 4249   1.629   3.242   1.950
 1190SOL    HW1 4250   1.588   3.327   1.935
 1190SOL    HW2 4251   1.560   3.178   1.930
 1191SOL     OW 4252   0.471   3.597   2.182
 1191SOL    HW1 4253   0.513   3.655   2.245
 1191SOL    HW2 4254   0.542   3.566   2.126
 1192SOL     OW 4255   1.401   1.970   2.295
 1192SOL    HW1 4256   1.391   1.945   2.203
 1192SOL    HW2 4257   1.496   1.976   2.308
 1193SOL     OW 4258   0.276   3.663   3.076
 1193SOL    HW1 4259   0.307   3.586   3.123
 1193SOL    HW2 4260   0.225   3.628   3.003
 1194SOL     OW 4261   0.939   3.561   2.761
 1194SOL    HW1 4262   1.016   3.508   2.782
 1194SOL    HW2 4263   0.894   3.511   2.692
 1195SOL     OW 4264   0.386   2.558   2.341
 1195SOL    HW1 4265   0.415   2.467   2.350
 1195SOL    HW2 4266   0.292   2.555   2.361
 1196SOL     OW 4267   1.511   2.097   3.594
 1196SOL    HW1 4268   1.526   2.110   3.688
 1196SOL    HW2 4269   1.456   2.019   3.589
 1197SOL     OW 4270   0.633   1.985   1.967
 1197SOL    HW1 4271   0.704   1.921   1.979
 1197SOL    HW2 4272   0.585   1.953   1.891
 1198SOL     OW 4273   0.767   2.140   3.616
 1198SOL    HW1 4274   0.842   2.081   3.618
 1198SOL    HW2 4275   0.718   2.119   3.695
 1199SOL     OW 4276   0.877   3.384   3.055
 1199SOL    HW1 4277   0.861   3.347   2.968
 1199SOL    HW2 4278   0.947   3.329   3.092
 1200SOL     OW 4279   1.339   2.450   3.293
 1200SOL    HW1 4280   1.370   2.420   3.379
 1200SOL    HW2 4281   1.372   2.539   3.285
 1201SOL     OW 4282   0.815   3.256   2.802
 1201SOL    HW1 4283   0.900   3.245   2.757
 1201SOL    HW2 4284   0.751   3.258   2.731
 1202SOL     OW 4285   0.928   2.371   2.765
 1202SOL    HW1 4286   0.904   2.363   2.673
 1202SOL    HW2 4287   0.959   2.284   2.790
 1203SOL     OW 4288   0.560   1.923   2.358
 1203SOL    HW1 4289   0.485   1.923   2.418
 1203SOL    HW2 4290   0.549   2.003   2.306
 1204SOL     OW 4291   1.428   3.060   1.903
 1204SOL    HW1 4292   1.458   2.984   1.953
 1204SOL    HW2 4293   1.343   3.082   1.940
 1205SOL     OW 4294   0.305   1.909   2.041
 1205SOL    HW1 4295   0.368   1.973   2.006
 1205SOL    HW2 4296   0.360   1.844   2.086
 1206SOL     OW 4297   0.939   2.109   2.322
 1206SOL    HW1 4298   0.912   2.150   2.240
 1206SOL    HW2 4299   1.034   2.123   2.326
 1207SOL     OW 4300   1.080   2.543   3.321
 1207SOL    HW1 4301   1.012   2.475   3.326
 1207SOL    HW2 4302   1.162   2.495   3.314
 1208SOL     OW 4303   1.224   3.431   2.655
 1208SOL    HW1 4304   1.240   3.499   2.589
 1208SOL    HW2 4305   1.291   3.446   2.722
 1209SOL     OW 4306   0.467   3.012   2.594
 1209SOL    HW1 4307   0.398   2.992   2.657
 1209SOL    HW2 4308   0.428   2.994   2.508
 1210SOL     OW 4309   1.269   3.656   2.470
 1210SOL    HW1 4310   1.315   3.717   2.413
 1210SOL    HW2 4311   1.202   3.709   2.513
 1211SOL     OW 4312   1.024   2.404   1.885
 1211SOL    HW1 4313   0.981   2.487   1.865
 1211SOL    HW2 4314   1.089   2.425   1.951
 1212SOL     OW 4315   0.087   2.407   3.260
 1212SOL    HW1 4316   0.175   2.414   3.223
 1212SOL    HW2 4317   0.080   2.483   3.318
 1213SOL     OW 4318   0.560   2.089   3.028
 1213SOL    HW1 4319   0.598   2.010   3.065
 1213SOL    HW2 4320   0.469   2.088   3.056
 1214SOL     OW 4321   0.868   2.321   2.502
 1214SOL    HW1 4322   0.822   2.375   2.437
 1214SOL    HW2 4323   0.889   2.240   2.454
 1215SOL     OW 4324   1.016   1.915   2.613
 1215SOL    HW1 4325   0.957   1.907   2.538
 1215SOL    HW2 4326   0.994   1.840   2.668
 1216SOL     OW 4327   1.437   3.025   2.719
 1216SOL    HW1 4328   1.368   2.958   2.719
 1216SOL    HW2 4329   1.459   3.036   2.627
 1217SOL     OW 4330   1.465   2.467   2.837
 1217SOL    HW1 4331   1.414   2.386   2.842
 1217SOL    HW2 4332   1.526   2.462   2.911
 1218SOL     OW 4333   1.846   2.678   2.245
 1218SOL    HW1 4334   1.902   2.627   2.303
 1218SOL    HW2 4335   1.817   2.616   2.178
 1219SOL     OW 4336   0.492   3.279   2.020
 1219SOL    HW1 4337   0.417   3.251   2.072
 1219SOL    HW2 4338   0.475   3.244   1.933
 1220SOL     OW 4339   1.670   3.126   2.508
 1220SOL    HW1 4340   1.765   3.130   2.522
 1220SOL    HW2 4341   1.639   3.214   2.529
 1221SOL     OW 4342   1.394   2.434   1.933
 1221SOL    HW1 4343   1.333   2.415   2.005
 1221SOL    HW2 4344   1.478   2.402   1.965
 1222SOL     OW 4345   0.524   2.125   2.179
 1222SOL    HW1 4346   0.569   2.078   2.109
 1222SOL    HW2 4347   0.502   2.210   2.141
 1223SOL     OW 4348   1.761   3.100   3.429
 1223SOL    HW1 4349   1.848   3.062   3.443
 1223SOL    HW2 4350   1.770   3.191   3.457
 1224SOL     OW 4351   1.059   3.215   3.195
 1224SOL    HW1 4352   0.984   3.184   3.247
 1224SOL    HW2 4353   1.135   3.174   3.236
 1225SOL     OW 4354   1.605   3.490   3.516
 1225SOL    HW1 4355   1.601   3.524   3.427
 1225SOL    HW2 4356   1.684   3.436   3.518
 1226SOL     OW 4357   1.128   3.065   2.967
 1226SOL    HW1 4358   1.070   3.103   3.033
 1226SOL    HW2 4359   1.095   3.098   2.884
 1227SOL     OW 4360   1.629   2.963   2.937
 1227SOL    HW1 4361   1.623   3.023   3.012
 1227SOL    HW2 4362   1.548   2.978   2.888
 1228SOL     OW 4363   0.918   1.958   3.259
 1228SOL    HW1 4364   0.940   1.940   3.168
 1228SOL    HW2 4365   0.997   1.998   3.295
 1229SOL     OW 4366   0.984   2.977   3.585
 1229SOL    HW1 4367   0.891   2.992   3.604
 1229SOL    HW2 4368   0.984   2.899   3.529
 1230SOL     OW 4369   0.707   2.922   2.234
 1230SOL    HW1 4370   0.696   2.906   2.328
 1230SOL    HW2 4371   0.784   2.869   2.210
 1231SOL     OW 4372   0.420   2.681   3.114
 1231SOL    HW1 4373   0.489   2.688   3.180
 1231SOL    HW2 4374   0.386   2.592   3.125
 1232SOL     OW 4375   1.265   2.239   3.136
 1232SOL    HW1 4376   1.298   2.316   3.183
 1232SOL    HW2 4377   1.175   2.261   3.114
 1233SOL     OW 4378   0.101   3.485   3.229
 1233SOL    HW1 4379   0.079   3.494   3.136
 1233SOL    HW2 4380   0.187   3.443   3.229
 1234SOL     OW 4381   0.343   2.968   2.350
 1234SOL    HW1 4382   0.353   3.047   2.296
 1234SOL    HW2 4383   0.352   2.896   2.287
 1235SOL     OW 4384   0.554   2.398   2.721
 1235SOL    HW1 4385   0.570   2.457   2.647
 1235SOL    HW2 4386   0.618   2.425   2.787
 1236SOL     OW 4387   1.248   3.210   2.251
 1236SOL    HW1 4388   1.304   3.282   2.282
 1236SOL    HW2 4389   1.161   3.231   2.285
 1237SOL     OW 4390   1.281   3.319   3.009
 1237SOL    HW1 4391   1.336   3.322   3.087
 1237SOL    HW2 4392   1.225   3.242   3.022
 1238SOL     OW 4393   1.582   2.485   2.341
 1238SOL    HW1 4394   1.535   2.538   2.405
 1238SOL    HW2 4395   1.626   2.549   2.285
 1239SOL     OW 4396   0.352   3.381   3.173
 1239SOL    HW1 4397   0.342   3.338   3.088
 1239SOL    HW2 4398   0.445   3.399   3.179
 1240SOL     OW 4399   0.414   2.604   3.464
 1240SOL    HW1 4400   0.474   2.651   3.406
 1240SOL    HW2 4401   0.454   2.519   3.477
 1241SOL     OW 4402   0.996   1.985   3.618
 1241SOL    HW1 4403   1.051   2.058   3.589
 1241SOL    HW2 4404   1.044   1.907   3.591
 1242SOL     OW 4405   0.497   1.903   3.610
 1242SOL    HW1 4406   0.455   1.849   3.543
 1242SOL    HW2 4407   0.438   1.977   3.622
 1243SOL     OW 4408   0.585   2.736   2.894
 1243SOL    HW1 4409   0.617   2.826   2.894
 1243SOL    HW2 4410   0.529   2.731   2.971
 1244SOL     OW 4411   1.358   2.722   2.890
 1244SOL    HW1 4412   1.274   2.712   2.846
 1244SOL    HW2 4413   1.398   2.635   2.887
 1245SOL     OW 4414   1.205   2.391   2.129
 1245SOL    HW1 4415   1.213   2.312   2.183
 1245SOL    HW2 4416   1.162   2.455   2.185
 1246SOL     OW 4417   0.301   2.065   3.110
 1246SOL    HW1 4418   0.267   2.090   3.196
 1246SOL    HW2 4419   0.289   1.970   3.105
 1247SOL     OW 4420   0.069   3.180   3.142
 1247SOL    HW1 4421   0.091   3.121   3.214
 1247SOL    HW2 4422   5.300   3.236   3.178
 1248SOL     OW 4423   0.724   2.493   2.920
 1248SOL    HW1 4424   0.799   2.477   2.863
 1248SOL    HW2 4425   0.697   2.582   2.899
 1249SOL     OW 4426   0.327   1.924   2.496
 1249SOL    HW1 4427   0.307   2.013   2.524
 1249SOL    HW2 4428   0.331   1.874   2.578
 1250SOL     OW 4429   1.616   2.236   2.229
 1250SOL    HW1 4430   1.643   2.172   2.295
 1250SOL    HW2 4431   1.594   2.314   2.279
 1251SOL     OW 4432   1.028   2.621   2.823
 1251SOL    HW1 4433   1.024   2.639   2.917
 1251SOL    HW2 4434   1.001   2.529   2.815
 1252SOL     OW 4435   0.981   3.428   3.579
 1252SOL    HW1 4436   0.967   3.472   3.495
 1252SOL    HW2 4437   1.026   3.346   3.556
 1253SOL     OW 4438   1.849   3.365   3.465
 1253SOL    HW1 4439   1.871   3.395   3.377
 1253SOL    HW2 4440   1.916   3.402   3.521
 1254SOL     OW 4441   0.354   2.780   3.668
 1254SOL    HW1 4442   0.435   2.799   3.715
 1254SOL    HW2 4443   0.379   2.715   3.602
 1255SOL     OW 4444   1.530   2.135   1.989
 1255SOL    HW1 4445   1.464   2.070   2.016
 1255SOL    HW2 4446   1.562   2.171   2.072
 1256SOL     OW 4447   1.292   2.688   1.893
 1256SOL    HW1 4448   1.335   2.603   1.897
 1256SOL    HW2 4449   1.323   2.727   1.812
 1257SOL     OW 4450   1.066   3.198   2.715
 1257SOL    HW1 4451   1.069   3.125   2.653
 1257SOL    HW2 4452   1.127   3.262   2.681
 1258SOL     OW 4453   0.314   2.672   2.812
 1258SOL    HW1 4454   0.408   2.690   2.809
 1258SOL    HW2 4455   0.308   2.582   2.844
 1259SOL     OW 4456   0.335   2.388   2.877
 1259SOL    HW1 4457   0.300   2.300   2.862
 1259SOL    HW2 4458   0.410   2.393   2.817
 1260SOL     OW 4459   1.135   2.238   3.545
 1260SOL    HW1 4460   1.087   2.293   3.607
 1260SOL    HW2 4461   1.221   2.278   3.539
 1261SOL     OW 4462   1.160   2.065   3.332
 1261SOL    HW1 4463   1.151   2.128   3.404
 1261SOL    HW2 4464   1.201   2.115   3.262
 1262SOL     OW 4465   0.002   3.192   2.072
 1262SOL    HW1 4466   5.228   3.181   2.012
 1262SOL    HW2 4467   0.012   3.106   2.113
 1263SOL     OW 4468   0.093   3.644   2.812
 1263SOL    HW1 4469   0.059   3.573   2.757
 1263SOL    HW2 4470   0.180   3.662   2.778
 1264SOL     OW 4471   0.505   3.435   2.769
 1264SOL    HW1 4472   0.572   3.501   2.790
 1264SOL    HW2 4473   0.548   3.374   2.710
 1265SOL     OW 4474   0.983   2.654   3.088
 1265SOL    HW1 4475   1.040   2.633   3.162
 1265SOL    HW2 4476   0.898   2.617   3.112
 1266SOL     OW 4477   0.033   2.423   2.978
 1266SOL    HW1 4478   0.119   2.398   2.944
 1266SOL    HW2 4479   0.037   2.405   3.071
 1267SOL     OW 4480   0.175   2.375   3.574
 1267SOL    HW1 4481   0.240   2.339   3.515
 1267SOL    HW2 4482   0.146   2.456   3.532
 1268SOL     OW 4483   1.369   2.804   3.526
 1268SOL    HW1 4484   1.403   2.894   3.518
 1268SOL    HW2 4485   1.387   2.765   3.440
 1269SOL     OW 4486   0.816   2.431   2.222
 1269SOL    HW1 4487   0.820   2.356   2.162
 1269SOL    HW2 4488   0.742   2.483   2.190
 1270SOL     OW 4489   1.643   2.464   3.041
 1270SOL    HW1 4490   1.625   2.404   3.114
 1270SOL    HW2 4491   1.734   2.447   3.018
 1271SOL     OW 4492   0.256   3.418   3.597
 1271SOL    HW1 4493   0.234   3.480   3.666
 1271SOL    HW2 4494   0.250   3.332   3.639
 1272SOL     OW 4495   0.700   2.312   3.122
 1272SOL    HW1 4496   0.648   2.238   3.092
 1272SOL    HW2 4497   0.696   2.375   3.050
 1273SOL     OW 4498   0.928   3.541   3.330
 1273SOL    HW1 4499   0.902   3.507   3.244
 1273SOL    HW2 4500   0.923   3.636   3.320
 1274SOL     OW 4501   0.465   2.355   2.047
 1274SOL    HW1 4502   0.525   2.427   2.069
 1274SOL    HW2 4503   0.380   2.398   2.036
 1275SOL     OW 4504   0.148   2.999   3.333
 1275SOL    HW1 4505   0.146   2.951   3.415
 1275SOL    HW2 4506   0.160   2.933   3.266
 1276SOL     OW 4507   1.328   2.910   3.085
 1276SOL    HW1 4508   1.351   2.845   3.018
 1276SOL    HW2 4509   1.257   2.961   3.046
 1277SOL     OW 4510   1.311   2.718   2.168
 1277SOL    HW1 4511   1.236   2.689   2.218
 1277SOL    HW2 4512   1.286   2.705   2.077
 1278SOL     OW 4513   1.772   3.605   3.012
 1278SOL    HW1 4514   1.831   3.632   2.942
 1278SOL    HW2 4515   1.747   3.515   2.990
 1279SOL     OW 4516   1.241   3.595   2.975
 1279SOL    HW1 4517   1.323   3.615   2.930
 1279SOL    HW2 4518   1.247   3.501   2.994
 1280SOL     OW 4519   0.083   3.080   2.889
 1280SOL    HW1 4520   0.070   3.105   2.980
 1280SOL    HW2 4521   5.294   3.068   2.855
 1281SOL     OW 4522   0.678   3.528   3.591
 1281SOL    HW1 4523   0.623   3.606   3.585
 1281SOL    HW2 4524   0.743   3.539   3.522
 1282SOL     OW 4525   1.719   2.008   2.372
 1282SOL    HW1 4526   1.792   1.993   2.311
 1282SOL    HW2 4527   1.703   1.923   2.412
 1283SOL     OW 4528   1.390   3.430   2.347
 1283SOL    HW1 4529   1.451   3.462   2.280
 1283SOL    HW2 4530   1.342   3.507   2.375
 1284SOL     OW 4531   0.145   3.660   3.705
 1284SOL    HW1 4532   0.090   3.597   3.751
 1284SOL    HW2 4533   0.191   3.707   3.774
 1285SOL     OW 4534   1.277   2.787   2.532
 1285SOL    HW1 4535   1.351   2.726   2.539
 1285SOL    HW2 4536   1.311   2.860   2.480
 1286SOL     OW 4537   0.815   3.135   3.292
 1286SOL    HW1 4538   0.787   3.174   3.375
 1286SOL    HW2 4539   0.745   3.156   3.230
 1287SOL     OW 4540   0.672   3.481   2.017
 1287SOL    HW1 4541   0.682   3.494   1.923
 1287SOL    HW2 4542   0.618   3.403   2.025
 1288SOL     OW 4543   1.628   3.589   3.254
 1288SOL    HW1 4544   1.676   3.596   3.172
 1288SOL    HW2 4545   1.613   3.680   3.281
 1289SOL     OW 4546   1.832   2.031   2.833
 1289SOL    HW1 4547   1.863   1.945   2.803
 1289SOL    HW2 4548   1.747   2.042   2.791
 1290SOL     OW 4549   0.272   2.179   2.579
 1290SOL    HW1 4550   0.188   2.218   2.559
 1290SOL    HW2 4551   0.271   2.168   2.674
 1291SOL     OW 4552   1.207   3.468   1.894
 1291SOL    HW1 4553   1.197   3.377   1.920
 1291SOL    HW2 4554   1.142   3.480   1.824
 1292SOL     OW 4555   0.824   2.868   3.234
 1292SOL    HW1 4556   0.869   2.863   3.150
 1292SOL    HW2 4557   0.824   2.961   3.256
 1293SOL     OW 4558   0.915   2.772   2.152
 1293SOL    HW1 4559   0.976   2.804   2.085
 1293SOL    HW2 4560   0.963   2.703   2.197
 1294SOL     OW 4561   1.492   3.487   1.904
 1294SOL    HW1 4562   1.397   3.481   1.891
 1294SOL    HW2 4563   1.529   3.493   1.816
 1295SOL     OW 4564   0.367   3.166   3.355
 1295SOL    HW1 4565   0.359   3.240   3.296
 1295SOL    HW2 4566   0.291   3.111   3.335
 1296SOL     OW 4567   1.613   3.145   3.143
 1296SOL    HW1 4568   1.669   3.133   3.219
 1296SOL    HW2 4569   1.550   3.213   3.169
 1297SOL     OW 4570   1.052   2.969   2.568
 1297SOL    HW1 4571   0.981   2.918   2.608
 1297SOL    HW2 4572   1.115   2.903   2.537
 1298SOL     OW 4573   1.021   2.103   2.828
 1298SOL    HW1 4574   1.017   2.054   2.745
 1298SOL    HW2 4575   1.016   2.035   2.895
 1299SOL     OW 4576   0.601   3.349   2.343
 1299SOL    HW1 4577   0.646   3.301   2.273
 1299SOL    HW2 4578   0.535   3.401   2.298
 1300SOL     OW 4579   1.709   2.260   3.223
 1300SOL    HW1 4580   1.784   2.319   3.230
 1300SOL    HW2 4581   1.743   2.184   3.176
 1301SOL     OW 4582   0.260   3.210   2.154
 1301SOL    HW1 4583   0.167   3.212   2.132
 1301SOL    HW2 4584   0.264   3.247   2.242
 1302SOL     OW 4585   0.116   2.878   3.580
 1302SOL    HW1 4586   0.045   2.843   3.634
 1302SOL    HW2 4587   0.196   2.847   3.622
 1303SOL     OW 4588   0.674   2.058   3.361
 1303SOL    HW1 4589   0.758   2.038   3.319
 1303SOL    HW2 4590   0.697   2.090   3.448
 1304SOL     OW 4591   0.082   2.212   1.903
 1304SOL    HW1 4592   0.003   2.164   1.880
 1304SOL    HW2 4593   0.098   2.269   1.828
 1305SOL     OW 4594   1.423   2.714   3.267
 1305SOL    HW1 4595   1.382   2.779   3.210
 1305SOL    HW2 4596   1.517   2.725   3.252
 1306SOL     OW 4597   0.056   1.995   2.105
 1306SOL    HW1 4598   0.055   2.090   2.097
 1306SOL    HW2 4599   0.146   1.970   2.083
 1307SOL     OW 4600   1.179   3.201   1.979
 1307SOL    HW1 4601   1.088   3.172   1.982
 1307SOL    HW2 4602   1.207   3.202   2.071
 1308SOL     OW 4603   0.619   2.693   3.297
 1308SOL    HW1 4604   0.676   2.769   3.281
 1308SOL    HW2 4605   0.680   2.619   3.305
 1309SOL     OW 4606   1.484   3.638   2.840
 1309SOL    HW1 4607   1.507   3.698   2.769
 1309SOL    HW2 4608   1.567   3.620   2.884
 1310SOL     OW 4609   0.716   2.426   3.567
 1310SOL    HW1 4610   0.758   2.490   3.626
 1310SOL    HW2 4611   0.746   2.341   3.599
 1311SOL     OW 4612   1.471   3.066   3.494
 1311SOL    HW1 4613   1.459   3.077   3.589
 1311SOL    HW2 4614   1.565   3.072   3.481
 1312SOL     OW 4615   0.378   3.604   3.426
 1312SOL    HW1 4616   0.295   3.650   3.410
 1312SOL    HW2 4617   0.353   3.524   3.471
 1313SOL     OW 4618   1.665   2.739   3.110
 1313SOL    HW1 4619   1.655   2.652   3.071
 1313SOL    HW2 4620   1.652   2.799   3.036
 1314SOL     OW 4621   1.217   2.181   2.320
 1314SOL    HW1 4622   1.280   2.110   2.311
 1314SOL    HW2 4623   1.246   2.230   2.397
 1315SOL     OW 4624   0.590   2.599   2.530
 1315SOL    HW1 4625   0.629   2.686   2.516
 1315SOL    HW2 4626   0.521   2.593   2.465
 1316SOL     OW 4627   1.740   2.165   3.474
 1316SOL    HW1 4628   1.713   2.214   3.396
 1316SOL    HW2 4629   1.661   2.160   3.527
 1317SOL     OW 4630   1.696   2.823   3.365
 1317SOL    HW1 4631   1.717   2.917   3.368
 1317SOL    HW2 4632   1.703   2.800   3.272
 1318SOL     OW 4633   0.863   3.229   1.896
 1318SOL    HW1 4634   0.824   3.257   1.979
 1318SOL    HW2 4635   0.881   3.310   1.849
 1319SOL     OW 4636   0.663   3.656   2.805
 1319SOL    HW1 4637   0.642   3.746   2.783
 1319SOL    HW2 4638   0.758   3.651   2.799
 1320SOL     OW 4639   0.867   2.828   2.716
 1320SOL    HW1 4640   0.918   2.757   2.756
 1320SOL    HW2 4641   0.833   2.878   2.790
 1321SOL     OW 4642   1.078   2.849   1.950
 1321SOL    HW1 4643   1.057   2.901   1.873
 1321SOL    HW2 4644   1.153   2.796   1.925
 1322SOL     OW 4645   1.854   3.417   2.707
 1322SOL    HW1 4646   1.776   3.405   2.652
 1322SOL    HW2 4647   1.845   3.351   2.775
 1323SOL     OW 4648   0.225   3.167   3.722
 1323SOL    HW1 4649   0.157   3.104   3.696
 1323SOL    HW2 4650   0.214   3.177   3.816
 1324SOL     OW 4651   0.087   3.082   2.517
 1324SOL    HW1 4652   0.100   3.050   2.606
 1324SOL    HW2 4653   0.173   3.076   2.476
 1325SOL     OW 4654   0.681   3.264   3.489
 1325SOL    HW1 4655   0.600   3.222   3.520
 1325SOL    HW2 4656   0.677   3.353   3.526
 1326SOL     OW 4657   1.819   2.046   3.104
 1326SOL    HW1 4658   1.817   1.951   3.120
 1326SOL    HW2 4659   1.825   2.053   3.008
 1327SOL     OW 4660   0.434   2.298   2.386
 1327SOL    HW1 4661   0.462   2.225   2.330
 1327SOL    HW2 4662   0.387   2.256   2.458
 1328SOL     OW 4663   1.700   3.351   2.958
 1328SOL    HW1 4664   1.619   3.328   2.912
 1328SOL    HW2 4665   1.710   3.283   3.024
 1329SOL     OW 4666   0.336   2.421   3.153
 1329SOL    HW1 4667   0.389   2.362   3.207
 1329SOL    HW2 4668   0.350   2.391   3.063
 1330SOL     OW 4669   0.828   3.439   2.540
 1330SOL    HW1 4670   0.815   3.494   2.462
 1330SOL    HW2 4671   0.751   3.382   2.542
 1331SOL     OW 4672   1.432   2.087   2.981
 1331SOL    HW1 4673   1.456   2.007   3.028
 1331SOL    HW2 4674   1.380   2.137   3.044
 1332SOL     OW 4675   1.009   1.881   3.004
 1332SOL    HW1 4676   0.954   1.813   2.964
 1332SOL    HW2 4677   1.097   1.843   3.007
 1333SOL     OW 4678   0.772   3.195   2.177
 1333SOL    HW1 4679   0.741   3.104   2.183
 1333SOL    HW2 4680   0.854   3.196   2.226
 1334SOL     OW 4681   0.623   3.418   3.149
 1334SOL    HW1 4682   0.624   3.500   3.198
 1334SOL    HW2 4683   0.710   3.412   3.109
 1335SOL     OW 4684   1.352   1.916   2.027
 1335SOL    HW1 4685   1.380   1.852   1.962
 1335SOL    HW2 4686   1.265   1.886   2.053
 1336SOL     OW 4687   1.297   2.322   2.543
 1336SOL    HW1 4688   1.244   2.402   2.550
 1336SOL    HW2 4689   1.293   2.283   2.630
 1337SOL     OW 4690   1.583   2.064   2.738
 1337SOL    HW1 4691   1.523   2.085   2.810
 1337SOL    HW2 4692   1.583   2.143   2.683
 1338SOL     OW 4693   0.048   2.931   2.152
 1338SOL    HW1 4694   0.137   2.899   2.141
 1338SOL    HW2 4695   5.300   2.856   2.187
 1339SOL     OW 4696   0.885   3.514   2.204
 1339SOL    HW1 4697   0.812   3.498   2.144
 1339SOL    HW2 4698   0.857   3.589   2.256
 1340SOL     OW 4699   0.233   2.494   3.840
 1340SOL    HW1 4700   0.159   2.461   3.891
 1340SOL    HW2 4701   0.219   2.460   3.752
 1341SOL     OW 4702   0.242   2.138   4.714
 1341SOL    HW1 4703   0.256   2.103   4.802
 1341SOL    HW2 4704   0.158   2.101   4.686
 1342SOL     OW 4705   5.298   2.260   4.377
 1342SOL    HW1 4706   5.206   2.282   4.383
 1342SOL    HW2 4707   5.299   2.169   4.346
 1343SOL     OW 4708   0.574   3.146   4.905
 1343SOL    HW1 4709   0.491   3.154   4.858
 1343SOL    HW2 4710   0.590   3.234   4.940
 1344SOL     OW 4711   1.556   3.380   4.427
 1344SOL    HW1 4712   1.521   3.345   4.509
 1344SOL    HW2 4713   1.485   3.369   4.364
 1345SOL     OW 4714   1.127   2.560   4.426
 1345SOL    HW1 4715   1.174   2.642   4.410
 1345SOL    HW2 4716   1.081   2.574   4.509
 1346SOL     OW 4717   1.726   2.474   3.959
 1346SOL    HW1 4718   1.757   2.463   3.869
 1346SOL    HW2 4719   1.723   2.385   3.994
 1347SOL     OW 4720   0.756   3.003   4.763
 1347SOL    HW1 4721   0.688   3.037   4.822
 1347SOL    HW2 4722   0.791   3.081   4.719
 1348SOL     OW 4723   0.866   2.637   5.546
 1348SOL    HW1 4724   0.856   2.709   5.608
 1348SOL    HW2 4725   0.889   2.680   5.463
 1349SOL     OW 4726   0.685   2.865   4.372
 1349SOL    HW1 4727   0.751   2.852   4.440
 1349SOL    HW2 4728   0.617   2.918   4.413
 1350SOL     OW 4729   0.709   3.013   5.537
 1350SOL    HW1 4730   0.758   3.091   5.563
 1350SOL    HW2 4731   0.627   3.046   5.501
 1351SOL     OW 4732   0.358   3.267   4.784
 1351SOL    HW1 4733   0.270   3.266   4.746
 1351SOL    HW2 4734   0.407   3.329   4.730
 1352SOL     OW 4735   1.461   3.360   5.079
 1352SOL    HW1 4736   1.510   3.441   5.087
 1352SOL    HW2 4737   1.398   3.362   5.151
 1353SOL     OW 4738   0.450   2.262   5.217
 1353SOL    HW1 4739   0.524   2.202   5.218
 1353SOL    HW2 4740   0.373   2.206   5.226
 1354SOL     OW 4741   1.589   2.308   4.476
 1354SOL    HW1 4742   1.527   2.336   4.409
 1354SOL    HW2 4743   1.660   2.372   4.471
 1355SOL     OW 4744   0.231   3.576   4.201
 1355SOL    HW1 4745   0.264   3.645   4.259
 1355SOL    HW2 4746   0.293   3.573   4.129
 1356SOL     OW 4747   1.137   3.203   5.416
 1356SOL    HW1 4748   1.177   3.199   5.503
 1356SOL    HW2 4749   1.084   3.124   5.410
 1357SOL     OW 4750   0.222   3.306   4.263
 1357SOL    HW1 4751   0.215   3.401   4.259
 1357SOL    HW2 4752   0.152   3.279   4.323
 1358SOL     OW 4753   0.249   2.940   4.599
 1358SOL    HW1 4754   0.261   2.855   4.642
 1358SOL    HW2 4755   0.198   2.991   4.662
 1359SOL     OW 4756   0.614   3.652   5.157
 1359SOL    HW1 4757   0.530   3.635   5.199
 1359SOL    HW2 4758   0.634   3.743   5.179
 1360SOL     OW 4759   0.583   2.845   3.859
 1360SOL    HW1 4760   0.629   2.892   3.790
 1360SOL    HW2 4761   0.625   2.874   3.940
 1361SOL     OW 4762   1.592   1.985   5.192
 1361SOL    HW1 4763   1.610   2.066   5.143
 1361SOL    HW2 4764   1.580   2.014   5.283
 1362SOL     OW 4765   0.126   2.496   4.303
 1362SOL    HW1 4766   0.089   2.413   4.332
 1362SOL    HW2 4767   0.098   2.559   4.370
 1363SOL     OW 4768   1.839   3.622   4.057
 1363SOL    HW1 4769   1.906   3.592   4.119
 1363SOL    HW2 4770   1.864   3.712   4.038
 1364SOL     OW 4771   0.038   3.461   3.856
 1364SOL    HW1 4772   0.025   3.369   3.881
 1364SOL    HW2 4773   5.283   3.510   3.916
 1365SOL     OW 4774   1.636   2.975   4.161
 1365SOL    HW1 4775   1.719   2.977   4.114
 1365SOL    HW2 4776   1.655   3.012   4.247
 1366SOL     OW 4777   0.131   2.610   5.309
 1366SOL    HW1 4778   0.226   2.624   5.312
 1366SOL    HW2 4779   0.094   2.697   5.325
 1367SOL     OW 4780   0.615   3.247   4.459
 1367SOL    HW1 4781   0.567   3.165   4.469
 1367SOL    HW2 4782   0.598   3.274   4.368
 1368SOL     OW 4783   1.288   3.100   5.147
 1368SOL    HW1 4784   1.319   3.032   5.088
 1368SOL    HW2 4785   1.346   3.093   5.224
 1369SOL     OW 4786   0.822   1.861   4.233
 1369SOL    HW1 4787   0.862   1.946   4.214
 1369SOL    HW2 4788   0.729   1.880   4.240
 1370SOL     OW 4789   0.177   2.808   5.002
 1370SOL    HW1 4790   0.268   2.779   4.993
 1370SOL    HW2 4791   0.135   2.783   4.920
 1371SOL     OW 4792   1.521   2.861   3.929
 1371SOL    HW1 4793   1.456   2.798   3.962
 1371SOL    HW2 4794   1.563   2.895   4.008
 1372SOL     OW 4795   1.186   3.668   5.346
 1372SOL    HW1 4796   1.195   3.727   5.271
 1372SOL    HW2 4797   1.202   3.581   5.310
 1373SOL     OW 4798   0.336   2.115   5.540
 1373SOL    HW1 4799   0.383   2.197   5.553
 1373SOL    HW2 4800   0.249   2.132   5.576
 1374SOL     OW 4801   1.466   3.282   4.675
 1374SOL    HW1 4802   1.399   3.297   4.741
 1374SOL    HW2 4803   1.456   3.190   4.649
 1375SOL     OW 4804   1.662   3.601   4.306
 1375SOL    HW1 4805   1.642   3.572   4.216
 1375SOL    HW2 4806   1.637   3.526   4.361
 1376SOL     OW 4807   0.596   2.583   3.990
 1376SOL    HW1 4808   0.603   2.664   3.938
 1376SOL    HW2 4809   0.531   2.604   4.057
 1377SOL     OW 4810   1.278   2.219   4.658
 1377SOL    HW1 4811   1.189   2.185   4.665
 1377SOL    HW2 4812   1.330   2.164   4.717
 1378SOL     OW 4813   1.579   3.533   4.034
 1378SOL    HW1 4814   1.669   3.565   4.028
 1378SOL    HW2 4815   1.553   3.517   3.944
 1379SOL     OW 4816   0.791   2.479   5.176
 1379SOL    HW1 4817   0.765   2.456   5.264
 1379SOL    HW2 4818   0.752   2.413   5.120
 1380SOL     OW 4819   1.393   2.336   5.401
 1380SOL    HW1 4820   1.396   2.380   5.486
 1380SOL    HW2 4821   1.455   2.264   5.409
 1381SOL     OW 4822   0.955   2.750   5.306
 1381SOL    HW1 4823   1.009   2.679   5.271
 1381SOL    HW2 4824   0.907   2.783   5.231
 1382SOL     OW 4825   0.992   2.275   4.963
 1382SOL    HW1 4826   0.906   2.296   5.000
 1382SOL    HW2 4827   0.973   2.228   4.882
 1383SOL     OW 4828   1.050   2.560   4.150
 1383SOL    HW1 4829   1.065   2.553   4.244
 1383SOL    HW2 4830   0.968   2.514   4.136
 1384SOL     OW 4831   0.071   2.649   4.536
 1384SOL    HW1 4832   0.153   2.654   4.585
 1384SOL    HW2 4833   0.064   2.735   4.493
 1385SOL     OW 4834   0.130   3.746   5.309
 1385SOL    HW1 4835   0.133   3.716   5.399
 1385SOL    HW2 4836   0.059   3.695   5.269
 1386SOL     OW 4837   0.893   2.211   3.918
 1386SOL    HW1 4838   0.933   2.273   3.857
 1386SOL    HW2 4839   0.909   2.125   3.879
 1387SOL     OW 4840   1.710   2.439   5.553
 1387SOL    HW1 4841   1.672   2.511   5.503
 1387SOL    HW2 4842   1.735   2.374   5.488
 1388SOL     OW 4843   1.381   3.008   4.269
 1388SOL    HW1 4844   1.457   2.991   4.212
 1388SOL    HW2 4845   1.326   3.067   4.219
 1389SOL     OW 4846   0.555   2.045   4.617
 1389SOL    HW1 4847   0.553   2.073   4.709
 1389SOL    HW2 4848   0.551   2.127   4.567
 1390SOL     OW 4849   1.004   3.305   4.196
 1390SOL    HW1 4850   0.968   3.378   4.146
 1390SOL    HW2 4851   0.989   3.328   4.288
 1391SOL     OW 4852   0.357   3.664   4.593
 1391SOL    HW1 4853   0.397   3.579   4.606
 1391SOL    HW2 4854   0.423   3.727   4.622
 1392SOL     OW 4855   1.228   3.400   5.237
 1392SOL    HW1 4856   1.213   3.328   5.297
 1392SOL    HW2 4857   1.165   3.387   5.167
 1393SOL     OW 4858   0.316   2.814   3.971
 1393SOL    HW1 4859   0.398   2.838   3.928
 1393SOL    HW2 4860   0.293   2.728   3.935
 1394SOL     OW 4861   1.442   2.594   4.462
 1394SOL    HW1 4862   1.427   2.527   4.529
 1394SOL    HW2 4863   1.520   2.640   4.492
 1395SOL     OW 4864   0.465   3.126   5.462
 1395SOL    HW1 4865   0.438   3.132   5.370
 1395SOL    HW2 4866   0.383   3.126   5.511
 1396SOL     OW 4867   1.121   3.640   3.954
 1396SOL    HW1 4868   1.049   3.597   4.001
 1396SOL    HW2 4869   1.145   3.579   3.885
 1397SOL     OW 4870   0.205   2.142   5.221
 1397SOL    HW1 4871   0.126   2.194   5.205
 1397SOL    HW2 4872   0.174   2.063   5.266
 1398SOL     OW 4873   1.648   3.255   3.805
 1398SOL    HW1 4874   1.592   3.332   3.795
 1398SOL    HW2 4875   1.588   3.181   3.796
 1399SOL     OW 4876   0.471   3.597   4.044
 1399SOL    HW1 4877   0.514   3.655   4.107
 1399SOL    HW2 4878   0.542   3.566   3.987
 1400SOL     OW 4879   1.402   1.970   4.157
 1400SOL    HW1 4880   1.393   1.944   4.065
 1400SOL    HW2 4881   1.496   1.978   4.170
 1401SOL     OW 4882   0.276   3.663   4.938
 1401SOL    HW1 4883   0.306   3.586   4.985
 1401SOL    HW2 4884   0.225   3.628   4.864
 1402SOL     OW 4885   0.939   3.560   4.623
 1402SOL    HW1 4886   1.019   3.510   4.642
 1402SOL    HW2 4887   0.895   3.511   4.555
 1403SOL     OW 4888   0.386   2.558   4.203
 1403SOL    HW1 4889   0.415   2.467   4.212
 1403SOL    HW2 4890   0.292   2.555   4.224
 1404SOL     OW 4891   1.534   2.086   5.450
 1404SOL    HW1 4892   1.542   2.107   5.543
 1404SOL    HW2 4893   1.465   2.020   5.447
 1405SOL     OW 4894   0.633   1.984   3.830
 1405SOL    HW1 4895   0.704   1.921   3.841
 1405SOL    HW2 4896   0.585   1.953   3.753
 1406SOL     OW 4897   0.767   2.140   5.478
 1406SOL    HW1 4898   0.842   2.081   5.479
 1406SOL    HW2 4899   0.718   2.119   5.557
 1407SOL     OW 4900   0.877   3.383   4.918
 1407SOL    HW1 4901   0.861   3.348   4.830
 1407SOL    HW2 4902   0.947   3.329   4.953
 1408SOL     OW 4903   1.339   2.451   5.156
 1408SOL    HW1 4904   1.371   2.418   5.240
 1408SOL    HW2 4905   1.376   2.540   5.150
 1409SOL     OW 4906   0.815   3.256   4.664
 1409SOL    HW1 4907   0.899   3.246   4.620
 1409SOL    HW2 4908   0.751   3.258   4.592
 1410SOL     OW 4909   0.928   2.372   4.627
 1410SOL    HW1 4910   0.904   2.363   4.534
 1410SOL    HW2 4911   0.959   2.285   4.652
 1411SOL     OW 4912   0.560   1.923   4.220
 1411SOL    HW1 4913   0.485   1.923   4.280
 1411SOL    HW2 4914   0.550   2.003   4.168
 1412SOL     OW 4915   1.438   3.065   3.766
 1412SOL    HW1 4916   1.468   2.987   3.813
 1412SOL    HW2 4917   1.351   3.082   3.802
 1413SOL     OW 4918   0.305   1.909   3.903
 1413SOL    HW1 4919   0.367   1.973   3.868
 1413SOL    HW2 4920   0.360   1.844   3.948
 1414SOL     OW 4921   0.939   2.109   4.184
 1414SOL    HW1 4922   0.912   2.150   4.102
 1414SOL    HW2 4923   1.034   2.123   4.188
 1415SOL     OW 4924   1.079   2.543   5.184
 1415SOL    HW1 4925   1.011   2.476   5.188
 1415SOL    HW2 4926   1.161   2.493   5.177
 1416SOL     OW 4927   1.222   3.432   4.519
 1416SOL    HW1 4928   1.239   3.498   4.451
 1416SOL    HW2 4929   1.295   3.440   4.580
 1417SOL     OW 4930   0.467   3.012   4.456
 1417SOL    HW1 4931   0.398   2.992   4.519
 1417SOL    HW2 4932   0.428   2.994   4.370
 1418SOL     OW 4933   1.269   3.656   4.332
 1418SOL    HW1 4934   1.315   3.717   4.274
 1418SOL    HW2 4935   1.203   3.709   4.376
 1419SOL     OW 4936   1.023   2.404   3.747
 1419SOL    HW1 4937   0.981   2.488   3.725
 1419SOL    HW2 4938   1.089   2.427   3.812
 1420SOL     OW 4939   0.087   2.407   5.122
 1420SOL    HW1 4940   0.175   2.414   5.085
 1420SOL    HW2 4941   0.080   2.483   5.180
 1421SOL     OW 4942   0.560   2.090   4.890
 1421SOL    HW1 4943   0.598   2.010   4.927
 1421SOL    HW2 4944   0.469   2.088   4.918
 1422SOL     OW 4945   0.868   2.321   4.363
 1422SOL    HW1 4946   0.822   2.375   4.299
 1422SOL    HW2 4947   0.889   2.241   4.316
 1423SOL     OW 4948   1.015   1.915   4.475
 1423SOL    HW1 4949   0.957   1.907   4.400
 1423SOL    HW2 4950   0.994   1.840   4.530
 1424SOL     OW 4951   1.435   3.026   4.578
 1424SOL    HW1 4952   1.369   2.958   4.591
 1424SOL    HW2 4953   1.438   3.039   4.483
 1425SOL     OW 4954   1.458   2.460   4.720
 1425SOL    HW1 4955   1.407   2.380   4.701
 1425SOL    HW2 4956   1.528   2.430   4.777
 1426SOL     OW 4957   0.492   3.280   3.882
 1426SOL    HW1 4958   0.416   3.251   3.934
 1426SOL    HW2 4959   0.476   3.244   3.795
 1427SOL     OW 4960   1.397   2.430   3.799
 1427SOL    HW1 4961   1.329   2.416   3.866
 1427SOL    HW2 4962   1.476   2.392   3.837
 1428SOL     OW 4963   0.524   2.125   4.042
 1428SOL    HW1 4964   0.569   2.078   3.972
 1428SOL    HW2 4965   0.502   2.210   4.003
 1429SOL     OW 4966   1.768   3.092   5.296
 1429SOL    HW1 4967   1.830   3.043   5.351
 1429SOL    HW2 4968   1.783   3.183   5.319
 1430SOL     OW 4969   1.058   3.215   5.057
 1430SOL    HW1 4970   0.984   3.184   5.108
 1430SOL    HW2 4971   1.134   3.174   5.099
 1431SOL     OW 4972   1.608   3.487   5.378
 1431SOL    HW1 4973   1.603   3.521   5.289
 1431SOL    HW2 4974   1.691   3.438   5.380
 1432SOL     OW 4975   1.128   3.064   4.829
 1432SOL    HW1 4976   1.070   3.103   4.894
 1432SOL    HW2 4977   1.096   3.098   4.745
 1433SOL     OW 4978   1.626   2.951   4.808
 1433SOL    HW1 4979   1.626   3.025   4.868
 1433SOL    HW2 4980   1.570   2.979   4.736
 1434SOL     OW 4981   0.918   1.958   5.121
 1434SOL    HW1 4982   0.941   1.940   5.030
 1434SOL    HW2 4983   0.997   1.998   5.157
 1435SOL     OW 4984   0.984   2.976   5.447
 1435SOL    HW1 4985   0.892   2.993   5.467
 1435SOL    HW2 4986   0.983   2.899   5.391
 1436SOL     OW 4987   0.707   2.922   4.096
 1436SOL    HW1 4988   0.696   2.906   4.190
 1436SOL    HW2 4989   0.784   2.869   4.072
 1437SOL     OW 4990   0.420   2.681   4.976
 1437SOL    HW1 4991   0.489   2.687   5.042
 1437SOL    HW2 4992   0.386   2.592   4.987
 1438SOL     OW 4993   1.265   2.239   4.999
 1438SOL    HW1 4994   1.298   2.316   5.045
 1438SOL    HW2 4995   1.175   2.261   4.976
 1439SOL     OW 4996   0.101   3.485   5.091
 1439SOL    HW1 4997   0.079   3.493   4.998
 1439SOL    HW2 4998   0.187   3.443   5.091
 1440SOL     OW 4999   0.343   2.968   4.212
 1440SOL    HW1 5000   0.353   3.047   4.159
 1440SOL    HW2 5001   0.353   2.896   4.149
 1441SOL     OW 5002   0.555   2.398   4.583
 1441SOL    HW1 5003   0.570   2.457   4.509
 1441SOL    HW2 5004   0.619   2.425   4.649
 1442SOL     OW 5005   1.246   3.207   4.115
 1442SOL    HW1 5006   1.302   3.281   4.142
 1442SOL    HW2 5007   1.159   3.230   4.148
 1443SOL     OW 5008   1.281   3.319   4.871
 1443SOL    HW1 5009   1.337   3.322   4.949
 1443SOL    HW2 5010   1.225   3.243   4.884
 1444SOL     OW 5011   1.580   2.477   4.210
 1444SOL    HW1 5012   1.514   2.540   4.240
 1444SOL    HW2 5013   1.621   2.520   4.135
 1445SOL     OW 5014   0.352   3.381   5.035
 1445SOL    HW1 5015   0.341   3.338   4.950
 1445SOL    HW2 5016   0.445   3.399   5.041
 1446SOL     OW 5017   0.414   2.604   5.326
 1446SOL    HW1 5018   0.474   2.651   5.268
 1446SOL    HW2 5019   0.453   2.518   5.339
 1447SOL     OW 5020   1.601   2.641   5.406
 1447SOL    HW1 5021   1.515   2.682   5.399
 1447SOL    HW2 5022   1.653   2.684   5.337
 1448SOL     OW 5023   0.996   1.985   5.479
 1448SOL    HW1 5024   1.051   2.058   5.451
 1448SOL    HW2 5025   1.044   1.906   5.453
 1449SOL     OW 5026   0.497   1.903   5.472
 1449SOL    HW1 5027   0.455   1.849   5.405
 1449SOL    HW2 5028   0.438   1.977   5.484
 1450SOL     OW 5029   0.585   2.736   4.756
 1450SOL    HW1 5030   0.616   2.826   4.755
 1450SOL    HW2 5031   0.529   2.730   4.833
 1451SOL     OW 5032   1.358   2.720   4.751
 1451SOL    HW1 5033   1.271   2.711   4.710
 1451SOL    HW2 5034   1.393   2.631   4.750
 1452SOL     OW 5035   1.205   2.391   3.991
 1452SOL    HW1 5036   1.212   2.312   4.045
 1452SOL    HW2 5037   1.162   2.455   4.047
 1453SOL     OW 5038   0.301   2.065   4.972
 1453SOL    HW1 5039   0.267   2.090   5.058
 1453SOL    HW2 5040   0.289   1.970   4.967
 1454SOL     OW 5041   0.069   3.180   5.004
 1454SOL    HW1 5042   0.091   3.121   5.076
 1454SOL    HW2 5043   5.300   3.236   5.040
 1455SOL     OW 5044   0.724   2.493   4.782
 1455SOL    HW1 5045   0.799   2.477   4.724
 1455SOL    HW2 5046   0.696   2.582   4.761
 1456SOL     OW 5047   1.730   2.823   5.575
 1456SOL    HW1 5048   1.687   2.758   5.520
 1456SOL    HW2 5049   1.671   2.834   5.650
 1457SOL     OW 5050   0.327   1.924   4.358
 1457SOL    HW1 5051   0.307   2.013   4.386
 1457SOL    HW2 5052   0.331   1.874   4.440
 1458SOL     OW 5053   1.622   2.233   4.095
 1458SOL    HW1 5054   1.639   2.165   4.161
 1458SOL    HW2 5055   1.597   2.310   4.146
 1459SOL     OW 5056   1.028   2.621   4.685
 1459SOL    HW1 5057   1.024   2.639   4.779
 1459SOL    HW2 5058   1.001   2.529   4.677
 1460SOL     OW 5059   0.982   3.428   5.441
 1460SOL    HW1 5060   0.967   3.473   5.357
 1460SOL    HW2 5061   1.026   3.346   5.417
 1461SOL     OW 5062   1.856   3.364   5.328
 1461SOL    HW1 5063   1.872   3.394   5.239
 1461SOL    HW2 5064   1.935   3.386   5.377
 1462SOL     OW 5065   0.354   2.780   5.530
 1462SOL    HW1 5066   0.435   2.799   5.577
 1462SOL    HW2 5067   0.379   2.715   5.464
 1463SOL     OW 5068   1.528   2.135   3.858
 1463SOL    HW1 5069   1.463   2.070   3.883
 1463SOL    HW2 5070   1.562   2.169   3.942
 1464SOL     OW 5071   1.293   2.687   3.757
 1464SOL    HW1 5072   1.339   2.603   3.759
 1464SOL    HW2 5073   1.323   2.729   3.677
 1465SOL     OW 5074   1.066   3.197   4.579
 1465SOL    HW1 5075   1.069   3.126   4.515
 1465SOL    HW2 5076   1.126   3.263   4.544
 1466SOL     OW 5077   0.314   2.672   4.674
 1466SOL    HW1 5078   0.408   2.690   4.670
 1466SOL    HW2 5079   0.308   2.582   4.706
 1467SOL     OW 5080   0.335   2.388   4.739
 1467SOL    HW1 5081   0.300   2.300   4.725
 1467SOL    HW2 5082   0.410   2.393   4.679
 1468SOL     OW 5083   1.134   2.238   5.406
 1468SOL    HW1 5084   1.087   2.293   5.469
 1468SOL    HW2 5085   1.222   2.276   5.402
 1469SOL     OW 5086   1.160   2.065   5.194
 1469SOL    HW1 5087   1.150   2.128   5.265
 1469SOL    HW2 5088   1.201   2.115   5.123
 1470SOL     OW 5089   0.001   3.192   3.934
 1470SOL    HW1 5090   5.228   3.181   3.874
 1470SOL    HW2 5091   0.012   3.106   3.976
 1471SOL     OW 5092   0.093   3.644   4.674
 1471SOL    HW1 5093   0.059   3.573   4.619
 1471SOL    HW2 5094   0.180   3.662   4.640
 1472SOL     OW 5095   0.505   3.435   4.632
 1472SOL    HW1 5096   0.572   3.501   4.652
 1472SOL    HW2 5097   0.548   3.374   4.572
 1473SOL     OW 5098   0.983   2.654   4.951
 1473SOL    HW1 5099   1.039   2.631   5.025
 1473SOL    HW2 5100   0.898   2.617   4.973
 1474SOL     OW 5101   0.033   2.424   4.840
 1474SOL    HW1 5102   0.119   2.398   4.806
 1474SOL    HW2 5103   0.037   2.405   4.933
 1475SOL     OW 5104   0.175   2.375   5.436
 1475SOL    HW1 5105   0.240   2.338   5.376
 1475SOL    HW2 5106   0.146   2.456   5.394
 1476SOL     OW 5107   1.376   2.801   5.383
 1476SOL    HW1 5108   1.397   2.894   5.380
 1476SOL    HW2 5109   1.374   2.775   5.291
 1477SOL     OW 5110   0.816   2.431   4.084
 1477SOL    HW1 5111   0.821   2.356   4.024
 1477SOL    HW2 5112   0.742   2.483   4.052
 1478SOL     OW 5113   0.256   3.418   5.459
 1478SOL    HW1 5114   0.234   3.481   5.527
 1478SOL    HW2 5115   0.249   3.332   5.501
 1479SOL     OW 5116   0.701   2.312   4.984
 1479SOL    HW1 5117   0.648   2.238   4.954
 1479SOL    HW2 5118   0.697   2.375   4.912
 1480SOL     OW 5119   0.929   3.541   5.191
 1480SOL    HW1 5120   0.902   3.506   5.106
 1480SOL    HW2 5121   0.923   3.636   5.181
 1481SOL     OW 5122   0.465   2.355   3.910
 1481SOL    HW1 5123   0.525   2.427   3.931
 1481SOL    HW2 5124   0.380   2.398   3.898
 1482SOL     OW 5125   0.148   2.999   5.195
 1482SOL    HW1 5126   0.146   2.951   5.277
 1482SOL    HW2 5127   0.160   2.933   5.128
 1483SOL     OW 5128   1.324   2.908   4.949
 1483SOL    HW1 5129   1.354   2.850   4.880
 1483SOL    HW2 5130   1.254   2.959   4.909
 1484SOL     OW 5131   1.310   2.710   4.034
 1484SOL    HW1 5132   1.228   2.686   4.078
 1484SOL    HW2 5133   1.289   2.703   3.941
 1485SOL     OW 5134   1.776   3.608   4.878
 1485SOL    HW1 5135   1.833   3.632   4.805
 1485SOL    HW2 5136   1.747   3.519   4.857
 1486SOL     OW 5137   1.241   3.595   4.840
 1486SOL    HW1 5138   1.322   3.617   4.793
 1486SOL    HW2 5139   1.246   3.501   4.855
 1487SOL     OW 5140   0.083   3.080   4.751
 1487SOL    HW1 5141   0.070   3.105   4.843
 1487SOL    HW2 5142   5.294   3.068   4.717
 1488SOL     OW 5143   0.678   3.528   5.453
 1488SOL    HW1 5144   0.622   3.606   5.448
 1488SOL    HW2 5145   0.742   3.539   5.383
 1489SOL     OW 5146   1.690   1.993   4.228
 1489SOL    HW1 5147   1.781   1.983   4.202
 1489SOL    HW2 5148   1.670   1.914   4.279
 1490SOL     OW 5149   1.384   3.429   4.203
 1490SOL    HW1 5150   1.450   3.461   4.141
 1490SOL    HW2 5151   1.341   3.507   4.236
 1491SOL     OW 5152   0.145   3.660   5.567
 1491SOL    HW1 5153   0.090   3.597   5.613
 1491SOL    HW2 5154   0.191   3.707   5.635
 1492SOL     OW 5155   1.268   2.792   4.391
 1492SOL    HW1 5156   1.337   2.727   4.402
 1492SOL    HW2 5157   1.309   2.862   4.340
 1493SOL     OW 5158   0.815   3.135   5.154
 1493SOL    HW1 5159   0.786   3.175   5.237
 1493SOL    HW2 5160   0.745   3.156   5.092
 1494SOL     OW 5161   0.672   3.481   3.879
 1494SOL    HW1 5162   0.683   3.494   3.785
 1494SOL    HW2 5163   0.618   3.403   3.887
 1495SOL     OW 5164   1.628   3.589   5.117
 1495SOL    HW1 5165   1.676   3.596   5.035
 1495SOL    HW2 5166   1.614   3.679   5.145
 1496SOL     OW 5167   1.808   2.032   4.689
 1496SOL    HW1 5168   1.846   1.949   4.659
 1496SOL    HW2 5169   1.726   2.039   4.641
 1497SOL     OW 5170   0.273   2.179   4.442
 1497SOL    HW1 5171   0.188   2.218   4.421
 1497SOL    HW2 5172   0.271   2.168   4.537
 1498SOL     OW 5173   1.207   3.468   3.756
 1498SOL    HW1 5174   1.198   3.377   3.782
 1498SOL    HW2 5175   1.142   3.480   3.686
 1499SOL     OW 5176   0.824   2.868   5.096
 1499SOL    HW1 5177   0.868   2.863   5.011
 1499SOL    HW2 5178   0.823   2.961   5.118
 1500SOL     OW 5179   0.915   2.773   4.014
 1500SOL    HW1 5180   0.976   2.804   3.947
 1500SOL    HW2 5181   0.963   2.703   4.059
 1501SOL     OW 5182   1.491   3.489   3.767
 1501SOL    HW1 5183   1.397   3.481   3.755
 1501SOL    HW2 5184   1.527   3.495   3.679
 1502SOL     OW 5185   0.368   3.166   5.217
 1502SOL    HW1 5186   0.359   3.240   5.158
 1502SOL    HW2 5187   0.292   3.111   5.198
 1503SOL     OW 5188   1.622   3.150   5.006
 1503SOL    HW1 5189   1.663   3.131   5.090
 1503SOL    HW2 5190   1.556   3.216   5.026
 1504SOL     OW 5191   1.051   2.970   4.430
 1504SOL    HW1 5192   0.980   2.918   4.470
 1504SOL    HW2 5193   1.114   2.905   4.400
 1505SOL     OW 5194   1.021   2.103   4.690
 1505SOL    HW1 5195   1.017   2.055   4.607
 1505SOL    HW2 5196   1.016   2.035   4.757
 1506SOL     OW 5197   0.601   3.349   4.205
 1506SOL    HW1 5198   0.646   3.301   4.136
 1506SOL    HW2 5199   0.535   3.400   4.159
 1507SOL     OW 5200   1.719   2.242   5.122
 1507SOL    HW1 5201   1.783   2.312   5.120
 1507SOL    HW2 5202   1.751   2.178   5.058
 1508SOL     OW 5203   0.260   3.210   4.016
 1508SOL    HW1 5204   0.167   3.212   3.994
 1508SOL    HW2 5205   0.264   3.247   4.104
 1509SOL     OW 5206   0.116   2.878   5.442
 1509SOL    HW1 5207   0.045   2.843   5.496
 1509SOL    HW2 5208   0.196   2.847   5.484
 1510SOL     OW 5209   0.674   2.058   5.223
 1510SOL    HW1 5210   0.758   2.038   5.182
 1510SOL    HW2 5211   0.697   2.090   5.310
 1511SOL     OW 5212   0.082   2.212   3.765
 1511SOL    HW1 5213   0.003   2.163   3.741
 1511SOL    HW2 5214   0.098   2.269   3.690
 1512SOL     OW 5215   1.429   2.721   5.125
 1512SOL    HW1 5216   1.379   2.780   5.069
 1512SOL    HW2 5217   1.518   2.725   5.090
 1513SOL     OW 5218   0.056   1.995   3.967
 1513SOL    HW1 5219   0.055   2.090   3.959
 1513SOL    HW2 5220   0.146   1.970   3.945
 1514SOL     OW 5221   1.179   3.203   3.841
 1514SOL    HW1 5222   1.089   3.171   3.844
 1514SOL    HW2 5223   1.208   3.201   3.933
 1515SOL     OW 5224   0.619   2.693   5.159
 1515SOL    HW1 5225   0.676   2.769   5.143
 1515SOL    HW2 5226   0.680   2.619   5.167
 1516SOL     OW 5227   1.481   3.643   4.707
 1516SOL    HW1 5228   1.505   3.693   4.629
 1516SOL    HW2 5229   1.564   3.616   4.745
 1517SOL     OW 5230   0.717   2.426   5.429
 1517SOL    HW1 5231   0.758   2.489   5.488
 1517SOL    HW2 5232   0.746   2.340   5.460
 1518SOL     OW 5233   1.471   3.063   5.356
 1518SOL    HW1 5234   1.457   3.076   5.450
 1518SOL    HW2 5235   1.564   3.077   5.344
 1519SOL     OW 5236   0.378   3.604   5.288
 1519SOL    HW1 5237   0.296   3.650   5.272
 1519SOL    HW2 5238   0.353   3.524   5.333
 1520SOL     OW 5239   1.665   2.745   4.978
 1520SOL    HW1 5240   1.674   2.670   4.920
 1520SOL    HW2 5241   1.659   2.821   4.920
 1521SOL     OW 5242   1.217   2.180   4.180
 1521SOL    HW1 5243   1.280   2.109   4.173
 1521SOL    HW2 5244   1.244   2.229   4.258
 1522SOL     OW 5245   0.590   2.599   4.393
 1522SOL    HW1 5246   0.629   2.686   4.378
 1522SOL    HW2 5247   0.521   2.592   4.327
 1523SOL     OW 5248   1.762   2.222   5.388
 1523SOL    HW1 5249   1.753   2.236   5.294
 1523SOL    HW2 5250   1.688   2.165   5.411
 1524SOL     OW 5251   1.743   2.800   5.235
 1524SOL    HW1 5252   1.743   2.895   5.242
 1524SOL    HW2 5253   1.729   2.783   5.142
 1525SOL     OW 5254   0.860   3.229   3.757
 1525SOL    HW1 5255   0.824   3.259   3.841
 1525SOL    HW2 5256   0.881   3.310   3.710
 1526SOL     OW 5257   0.663   3.656   4.668
 1526SOL    HW1 5258   0.642   3.746   4.645
 1526SOL    HW2 5259   0.758   3.651   4.661
 1527SOL     OW 5260   0.867   2.828   4.579
 1527SOL    HW1 5261   0.918   2.757   4.619
 1527SOL    HW2 5262   0.833   2.878   4.653
 1528SOL     OW 5263   1.078   2.848   3.812
 1528SOL    HW1 5264   1.058   2.900   3.734
 1528SOL    HW2 5265   1.154   2.796   3.786
 1529SOL     OW 5266   0.225   3.167   5.584
 1529SOL    HW1 5267   0.157   3.104   5.558
 1529SOL    HW2 5268   0.213   3.177   5.678
 1530SOL     OW 5269   0.087   3.083   4.379
 1530SOL    HW1 5270   0.101   3.049   4.468
 1530SOL    HW2 5271   0.173   3.076   4.337
 1531SOL     OW 5272   0.681   3.264   5.353
 1531SOL    HW1 5273   0.601   3.222   5.382
 1531SOL    HW2 5274   0.677   3.353   5.388
 1532SOL     OW 5275   1.810   2.048   4.962
 1532SOL    HW1 5276   1.838   1.958   4.981
 1532SOL    HW2 5277   1.804   2.051   4.866
 1533SOL     OW 5278   0.434   2.298   4.248
 1533SOL    HW1 5279   0.462   2.225   4.192
 1533SOL    HW2 5280   0.387   2.256   4.320
 1534SOL     OW 5281   1.697   3.359   4.824
 1534SOL    HW1 5282   1.624   3.334   4.767
 1534SOL    HW2 5283   1.714   3.282   4.878
 1535SOL     OW 5284   0.336   2.421   5.015
 1535SOL    HW1 5285   0.389   2.362   5.069
 1535SOL    HW2 5286   0.350   2.391   4.925
 1536SOL     OW 5287   0.828   3.440   4.402
 1536SOL    HW1 5288   0.816   3.494   4.324
 1536SOL    HW2 5289   0.751   3.383   4.404
 1537SOL     OW 5290   1.433   2.088   4.841
 1537SOL    HW1 5291   1.463   2.011   4.889
 1537SOL    HW2 5292   1.380   2.137   4.905
 1538SOL     OW 5293   1.009   1.881   4.866
 1538SOL    HW1 5294   0.955   1.813   4.826
 1538SOL    HW2 5295   1.097   1.843   4.868
 1539SOL     OW 5296   0.771   3.195   4.040
 1539SOL    HW1 5297   0.741   3.104   4.045
 1539SOL    HW2 5298   0.854   3.196   4.088
 1540SOL     OW 5299   0.622   3.418   5.011
 1540SOL    HW1 5300   0.624   3.500   5.060
 1540SOL    HW2 5301   0.709   3.412   4.972
 1541SOL     OW 5302   1.353   1.915   3.890
 1541SOL    HW1 5303   1.379   1.853   3.821
 1541SOL    HW2 5304   1.266   1.886   3.917
 1542SOL     OW 5305   1.289   2.322   4.403
 1542SOL    HW1 5306   1.235   2.401   4.412
 1542SOL    HW2 5307   1.290   2.283   4.490
 1543SOL     OW 5308   1.562   2.057   4.589
 1543SOL    HW1 5309   1.513   2.079   4.668
 1543SOL    HW2 5310   1.569   2.139   4.541
 1544SOL     OW 5311   0.048   2.931   4.015
 1544SOL    HW1 5312   0.137   2.899   4.003
 1544SOL    HW2 5313   5.300   2.855   4.049
 1545SOL     OW 5314   0.884   3.513   4.066
 1545SOL    HW1 5315   0.812   3.498   4.006
 1545SOL    HW2 5316   0.857   3.589   4.118
 1546SOL     OW 5317   0.233   2.494   5.702
 1546SOL    HW1 5318   0.160   2.461   5.753
 1546SOL    HW2 5319   0.219   2.459   5.614
 1547SOL     OW 5320   0.242   2.138   6.576
 1547SOL    HW1 5321   0.256   2.103   6.664
 1547SOL    HW2 5322   0.158   2.101   6.548
 1548SOL     OW 5323   5.298   2.260   6.239
 1548SOL    HW1 5324   5.206   2.282   6.245
 1548SOL    HW2 5325   5.299   2.169   6.208
 1549SOL     OW 5326   0.574   3.146   6.767
 1549SOL    HW1 5327   0.491   3.154   6.720
 1549SOL    HW2 5328   0.590   3.234   6.802
 1550SOL     OW 5329   1.561   3.374   6.293
 1550SOL    HW1 5330   1.518   3.354   6.376
 1550SOL    HW2 5331   1.489   3.378   6.229
 1551SOL     OW 5332   1.130   2.560   6.287
 1551SOL    HW1 5333   1.179   2.641   6.273
 1551SOL    HW2 5334   1.084   2.574   6.369
 1552SOL     OW 5335   1.766   2.468   5.816
 1552SOL    HW1 5336   1.747   2.461   5.722
 1552SOL    HW2 5337   1.731   2.387   5.854
 1553SOL     OW 5338   0.755   3.003   6.625
 1553SOL    HW1 5339   0.688   3.037   6.684
 1553SOL    HW2 5340   0.791   3.081   6.581
 1554SOL     OW 5341   0.865   2.639   7.406
 1554SOL    HW1 5342   0.854   2.714   7.465
 1554SOL    HW2 5343   0.890   2.677   7.322
 1555SOL     OW 5344   0.685   2.865   6.233
 1555SOL    HW1 5345   0.751   2.852   6.302
 1555SOL    HW2 5346   0.617   2.918   6.275
 1556SOL     OW 5347   0.709   3.013   7.399
 1556SOL    HW1 5348   0.758   3.091   7.425
 1556SOL    HW2 5349   0.627   3.047   7.362
 1557SOL     OW 5350   0.358   3.267   6.646
 1557SOL    HW1 5351   0.270   3.266   6.608
 1557SOL    HW2 5352   0.406   3.329   6.592
 1558SOL     OW 5353   1.461   3.361   6.940
 1558SOL    HW1 5354   1.511   3.442   6.949
 1558SOL    HW2 5355   1.400   3.363   7.013
 1559SOL     OW 5356   0.450   2.262   7.079
 1559SOL    HW1 5357   0.525   2.202   7.081
 1559SOL    HW2 5358   0.373   2.206   7.088
 1560SOL     OW 5359   1.612   2.310   6.326
 1560SOL    HW1 5360   1.537   2.333   6.271
 1560SOL    HW2 5361   1.627   2.388   6.380
 1561SOL     OW 5362   0.231   3.576   6.063
 1561SOL    HW1 5363   0.264   3.645   6.121
 1561SOL    HW2 5364   0.293   3.573   5.991
 1562SOL     OW 5365   1.136   3.203   7.276
 1562SOL    HW1 5366   1.177   3.200   7.363
 1562SOL    HW2 5367   1.085   3.123   7.271
 1563SOL     OW 5368   0.222   3.306   6.125
 1563SOL    HW1 5369   0.215   3.401   6.122
 1563SOL    HW2 5370   0.152   3.279   6.185
 1564SOL     OW 5371   0.249   2.940   6.461
 1564SOL    HW1 5372   0.261   2.855   6.504
 1564SOL    HW2 5373   0.198   2.991   6.523
 1565SOL     OW 5374   0.613   3.652   7.018
 1565SOL    HW1 5375   0.530   3.635   7.061
 1565SOL    HW2 5376   0.634   3.743   7.041
 1566SOL     OW 5377   0.583   2.845   5.721
 1566SOL    HW1 5378   0.629   2.893   5.652
 1566SOL    HW2 5379   0.625   2.874   5.802
 1567SOL     OW 5380   1.596   1.985   7.054
 1567SOL    HW1 5381   1.602   2.066   7.003
 1567SOL    HW2 5382   1.582   2.014   7.144
 1568SOL     OW 5383   0.126   2.496   6.165
 1568SOL    HW1 5384   0.089   2.413   6.194
 1568SOL    HW2 5385   0.099   2.559   6.232
 1569SOL     OW 5386   1.842   3.621   5.920
 1569SOL    HW1 5387   1.906   3.592   5.986
 1569SOL    HW2 5388   1.866   3.712   5.902
 1570SOL     OW 5389   0.038   3.461   5.718
 1570SOL    HW1 5390   0.025   3.369   5.743
 1570SOL    HW2 5391   5.283   3.510   5.778
 1571SOL     OW 5392   1.689   2.780   6.226
 1571SOL    HW1 5393   1.772   2.739   6.206
 1571SOL    HW2 5394   1.667   2.831   6.148
 1572SOL     OW 5395   1.646   2.969   6.015
 1572SOL    HW1 5396   1.732   2.975   5.973
 1572SOL    HW2 5397   1.651   3.030   6.089
 1573SOL     OW 5398   0.131   2.609   7.173
 1573SOL    HW1 5399   0.225   2.623   7.174
 1573SOL    HW2 5400   0.093   2.696   7.188
 1574SOL     OW 5401   0.615   3.247   6.321
 1574SOL    HW1 5402   0.568   3.165   6.331
 1574SOL    HW2 5403   0.598   3.274   6.230
 1575SOL     OW 5404   1.289   3.100   7.009
 1575SOL    HW1 5405   1.321   3.033   6.950
 1575SOL    HW2 5406   1.346   3.094   7.086
 1576SOL     OW 5407   0.822   1.861   6.096
 1576SOL    HW1 5408   0.862   1.946   6.076
 1576SOL    HW2 5409   0.729   1.880   6.102
 1577SOL     OW 5410   0.177   2.808   6.864
 1577SOL    HW1 5411   0.268   2.779   6.855
 1577SOL    HW2 5412   0.135   2.782   6.782
 1578SOL     OW 5413   1.531   2.855   5.785
 1578SOL    HW1 5414   1.462   2.798   5.816
 1578SOL    HW2 5415   1.572   2.890   5.864
 1579SOL     OW 5416   1.185   3.668   7.208
 1579SOL    HW1 5417   1.196   3.727   7.133
 1579SOL    HW2 5418   1.202   3.581   7.173
 1580SOL     OW 5419   0.337   2.114   7.401
 1580SOL    HW1 5420   0.384   2.197   7.414
 1580SOL    HW2 5421   0.249   2.131   7.437
 1581SOL     OW 5422   1.466   3.282   6.538
 1581SOL    HW1 5423   1.398   3.297   6.603
 1581SOL    HW2 5424   1.454   3.190   6.511
 1582SOL     OW 5425   1.659   3.601   6.164
 1582SOL    HW1 5426   1.638   3.571   6.075
 1582SOL    HW2 5427   1.634   3.528   6.220
 1583SOL     OW 5428   0.595   2.583   5.852
 1583SOL    HW1 5429   0.603   2.664   5.801
 1583SOL    HW2 5430   0.531   2.603   5.919
 1584SOL     OW 5431   1.279   2.214   6.518
 1584SOL    HW1 5432   1.190   2.181   6.527
 1584SOL    HW2 5433   1.330   2.161   6.580
 1585SOL     OW 5434   1.581   3.532   5.895
 1585SOL    HW1 5435   1.671   3.564   5.888
 1585SOL    HW2 5436   1.554   3.515   5.805
 1586SOL     OW 5437   0.791   2.479   7.038
 1586SOL    HW1 5438   0.765   2.455   7.127
 1586SOL    HW2 5439   0.752   2.413   6.982
 1587SOL     OW 5440   1.394   2.336   7.263
 1587SOL    HW1 5441   1.396   2.381   7.348
 1587SOL    HW2 5442   1.455   2.263   7.273
 1588SOL     OW 5443   0.955   2.749   7.168
 1588SOL    HW1 5444   1.009   2.679   7.132
 1588SOL    HW2 5445   0.907   2.784   7.092
 1589SOL     OW 5446   0.992   2.275   6.825
 1589SOL    HW1 5447   0.906   2.296   6.862
 1589SOL    HW2 5448   0.972   2.228   6.743
 1590SOL     OW 5449   1.051   2.561   6.012
 1590SOL    HW1 5450   1.066   2.554   6.106
 1590SOL    HW2 5451   0.968   2.514   5.998
 1591SOL     OW 5452   0.072   2.649   6.397
 1591SOL    HW1 5453   0.153   2.654   6.447
 1591SOL    HW2 5454   0.063   2.735   6.356
 1592SOL     OW 5455   0.129   3.746   7.170
 1592SOL    HW1 5456   0.131   3.717   7.261
 1592SOL    HW2 5457   0.060   3.694   7.130
 1593SOL     OW 5458   0.893   2.211   5.780
 1593SOL    HW1 5459   0.933   2.273   5.719
 1593SOL    HW2 5460   0.909   2.125   5.741
 1594SOL     OW 5461   1.709   2.437   7.415
 1594SOL    HW1 5462   1.672   2.512   7.368
 1594SOL    HW2 5463   1.736   2.377   7.346
 1595SOL     OW 5464   1.377   3.004   6.127
 1595SOL    HW1 5465   1.456   2.991   6.074
 1595SOL    HW2 5466   1.324   3.066   6.077
 1596SOL     OW 5467   0.555   2.045   6.479
 1596SOL    HW1 5468   0.553   2.073   6.571
 1596SOL    HW2 5469   0.551   2.127   6.429
 1597SOL     OW 5470   1.005   3.306   6.058
 1597SOL    HW1 5471   0.968   3.379   6.009
 1597SOL    HW2 5472   0.988   3.328   6.150
 1598SOL     OW 5473   0.357   3.664   6.455
 1598SOL    HW1 5474   0.397   3.579   6.468
 1598SOL    HW2 5475   0.423   3.727   6.484
 1599SOL     OW 5476   1.798   2.918   6.454
 1599SOL    HW1 5477   1.743   2.902   6.378
 1599SOL    HW2 5478   1.736   2.924   6.527
 1600SOL     OW 5479   1.228   3.401   7.099
 1600SOL    HW1 5480   1.214   3.328   7.159
 1600SOL    HW2 5481   1.164   3.387   7.029
 1601SOL     OW 5482   0.316   2.814   5.833
 1601SOL    HW1 5483   0.398   2.838   5.789
 1601SOL    HW2 5484   0.293   2.728   5.797
 1602SOL     OW 5485   1.478   2.604   6.313
 1602SOL    HW1 5486   1.470   2.561   6.398
 1602SOL    HW2 5487   1.555   2.660   6.322
 1603SOL     OW 5488   0.464   3.125   7.323
 1603SOL    HW1 5489   0.438   3.131   7.232
 1603SOL    HW2 5490   0.382   3.126   7.373
 1604SOL     OW 5491   1.122   3.639   5.817
 1604SOL    HW1 5492   1.049   3.598   5.863
 1604SOL    HW2 5493   1.145   3.578   5.747
 1605SOL     OW 5494   0.205   2.142   7.084
 1605SOL    HW1 5495   0.125   2.193   7.066
 1605SOL    HW2 5496   0.173   2.063   7.127
 1606SOL     OW 5497   1.629   3.241   5.671
 1606SOL    HW1 5498   1.588   3.327   5.658
 1606SOL    HW2 5499   1.560   3.178   5.654
 1607SOL     OW 5500   0.471   3.597   5.906
 1607SOL    HW1 5501   0.513   3.655   5.969
 1607SOL    HW2 5502   0.542   3.566   5.850
 1608SOL     OW 5503   1.401   1.969   6.019
 1608SOL    HW1 5504   1.390   1.945   5.927
 1608SOL    HW2 5505   1.496   1.976   6.031
 1609SOL     OW 5506   0.276   3.663   6.800
 1609SOL    HW1 5507   0.307   3.586   6.847
 1609SOL    HW2 5508   0.225   3.628   6.727
 1610SOL     OW 5509   0.939   3.561   6.485
 1610SOL    HW1 5510   1.016   3.509   6.506
 1610SOL    HW2 5511   0.894   3.511   6.416
 1611SOL     OW 5512   0.386   2.558   6.065
 1611SOL    HW1 5513   0.415   2.467   6.074
 1611SOL    HW2 5514   0.292   2.555   6.086
 1612SOL     OW 5515   1.535   2.087   7.311
 1612SOL    HW1 5516   1.545   2.108   7.404
 1612SOL    HW2 5517   1.466   2.021   7.309
 1613SOL     OW 5518   0.633   1.984   5.692
 1613SOL    HW1 5519   0.704   1.921   5.703
 1613SOL    HW2 5520   0.585   1.953   5.615
 1614SOL     OW 5521   0.766   2.138   7.339
 1614SOL    HW1 5522   0.842   2.081   7.341
 1614SOL    HW2 5523   0.723   2.125   7.423
 1615SOL     OW 5524   0.877   3.384   6.779
 1615SOL    HW1 5525   0.861   3.347   6.692
 1615SOL    HW2 5526   0.947   3.329   6.816
 1616SOL     OW 5527   1.341   2.451   7.018
 1616SOL    HW1 5528   1.371   2.420   7.103
 1616SOL    HW2 5529   1.377   2.539   7.010
 1617SOL     OW 5530   0.815   3.256   6.525
 1617SOL    HW1 5531   0.900   3.245   6.481
 1617SOL    HW2 5532   0.751   3.258   6.455
 1618SOL     OW 5533   0.928   2.371   6.489
 1618SOL    HW1 5534   0.904   2.363   6.397
 1618SOL    HW2 5535   0.959   2.284   6.514
 1619SOL     OW 5536   0.560   1.923   6.082
 1619SOL    HW1 5537   0.485   1.923   6.142
 1619SOL    HW2 5538   0.550   2.003   6.030
 1620SOL     OW 5539   1.428   3.060   5.627
 1620SOL    HW1 5540   1.458   2.984   5.677
 1620SOL    HW2 5541   1.343   3.081   5.664
 1621SOL     OW 5542   0.305   1.909   5.765
 1621SOL    HW1 5543   0.367   1.973   5.730
 1621SOL    HW2 5544   0.360   1.844   5.810
 1622SOL     OW 5545   0.939   2.109   6.046
 1622SOL    HW1 5546   0.912   2.150   5.964
 1622SOL    HW2 5547   1.034   2.123   6.050
 1623SOL     OW 5548   1.080   2.542   7.045
 1623SOL    HW1 5549   1.011   2.476   7.050
 1623SOL    HW2 5550   1.161   2.493   7.039
 1624SOL     OW 5551   1.224   3.431   6.379
 1624SOL    HW1 5552   1.240   3.499   6.313
 1624SOL    HW2 5553   1.291   3.446   6.446
 1625SOL     OW 5554   0.467   3.012   6.318
 1625SOL    HW1 5555   0.398   2.992   6.381
 1625SOL    HW2 5556   0.428   2.994   6.232
 1626SOL     OW 5557   1.269   3.656   6.194
 1626SOL    HW1 5558   1.315   3.717   6.137
 1626SOL    HW2 5559   1.202   3.709   6.238
 1627SOL     OW 5560   1.023   2.404   5.609
 1627SOL    HW1 5561   0.981   2.488   5.589
 1627SOL    HW2 5562   1.089   2.425   5.675
 1628SOL     OW 5563   0.088   2.407   6.985
 1628SOL    HW1 5564   0.175   2.414   6.947
 1628SOL    HW2 5565   0.080   2.483   7.042
 1629SOL     OW 5566   0.560   2.089   6.752
 1629SOL    HW1 5567   0.598   2.010   6.789
 1629SOL    HW2 5568   0.469   2.088   6.780
 1630SOL     OW 5569   0.868   2.321   6.226
 1630SOL    HW1 5570   0.822   2.375   6.161
 1630SOL    HW2 5571   0.889   2.240   6.178
 1631SOL     OW 5572   1.015   1.915   6.338
 1631SOL    HW1 5573   0.957   1.907   6.262
 1631SOL    HW2 5574   0.994   1.840   6.392
 1632SOL     OW 5575   1.437   3.025   6.443
 1632SOL    HW1 5576   1.368   2.959   6.442
 1632SOL    HW2 5577   1.461   3.036   6.351
 1633SOL     OW 5578   1.466   2.467   6.563
 1633SOL    HW1 5579   1.416   2.386   6.566
 1633SOL    HW2 5580   1.526   2.461   6.638
 1634SOL     OW 5581   1.846   2.678   5.969
 1634SOL    HW1 5582   1.903   2.627   6.027
 1634SOL    HW2 5583   1.817   2.616   5.902
 1635SOL     OW 5584   0.492   3.279   5.744
 1635SOL    HW1 5585   0.416   3.251   5.796
 1635SOL    HW2 5586   0.475   3.244   5.657
 1636SOL     OW 5587   1.670   3.126   6.232
 1636SOL    HW1 5588   1.765   3.129   6.246
 1636SOL    HW2 5589   1.640   3.214   6.253
 1637SOL     OW 5590   1.394   2.434   5.657
 1637SOL    HW1 5591   1.334   2.414   5.729
 1637SOL    HW2 5592   1.479   2.401   5.688
 1638SOL     OW 5593   0.524   2.125   5.904
 1638SOL    HW1 5594   0.569   2.078   5.834
 1638SOL    HW2 5595   0.502   2.210   5.865
 1639SOL     OW 5596   1.752   3.101   7.159
 1639SOL    HW1 5597   1.840   3.063   7.154
 1639SOL    HW2 5598   1.767   3.191   7.189
 1640SOL     OW 5599   1.059   3.215   6.919
 1640SOL    HW1 5600   0.984   3.184   6.971
 1640SOL    HW2 5601   1.135   3.174   6.961
 1641SOL     OW 5602   1.607   3.487   7.238
 1641SOL    HW1 5603   1.603   3.521   7.149
 1641SOL    HW2 5604   1.690   3.440   7.241
 1642SOL     OW 5605   1.128   3.065   6.691
 1642SOL    HW1 5606   1.070   3.103   6.757
 1642SOL    HW2 5607   1.096   3.098   6.608
 1643SOL     OW 5608   1.628   2.960   6.664
 1643SOL    HW1 5609   1.624   3.022   6.736
 1643SOL    HW2 5610   1.549   2.977   6.613
 1644SOL     OW 5611   0.918   1.958   6.983
 1644SOL    HW1 5612   0.941   1.940   6.892
 1644SOL    HW2 5613   0.997   1.998   7.019
 1645SOL     OW 5614   0.984   2.976   7.311
 1645SOL    HW1 5615   0.892   2.993   7.328
 1645SOL    HW2 5616   0.984   2.898   7.254
 1646SOL     OW 5617   0.707   2.922   5.958
 1646SOL    HW1 5618   0.696   2.906   6.052
 1646SOL    HW2 5619   0.784   2.869   5.934
 1647SOL     OW 5620   0.420   2.681   6.838
 1647SOL    HW1 5621   0.489   2.687   6.904
 1647SOL    HW2 5622   0.386   2.592   6.849
 1648SOL     OW 5623   1.265   2.239   6.861
 1648SOL    HW1 5624   1.298   2.316   6.907
 1648SOL    HW2 5625   1.175   2.261   6.838
 1649SOL     OW 5626   0.102   3.485   6.953
 1649SOL    HW1 5627   0.079   3.493   6.860
 1649SOL    HW2 5628   0.188   3.443   6.953
 1650SOL     OW 5629   0.343   2.968   6.074
 1650SOL    HW1 5630   0.353   3.047   6.020
 1650SOL    HW2 5631   0.353   2.896   6.011
 1651SOL     OW 5632   0.554   2.398   6.445
 1651SOL    HW1 5633   0.570   2.457   6.371
 1651SOL    HW2 5634   0.619   2.425   6.511
 1652SOL     OW 5635   1.248   3.210   5.975
 1652SOL    HW1 5636   1.304   3.282   6.006
 1652SOL    HW2 5637   1.161   3.231   6.009
 1653SOL     OW 5638   1.281   3.319   6.733
 1653SOL    HW1 5639   1.337   3.323   6.811
 1653SOL    HW2 5640   1.225   3.243   6.746
 1654SOL     OW 5641   1.582   2.484   6.066
 1654SOL    HW1 5642   1.535   2.539   6.129
 1654SOL    HW2 5643   1.626   2.547   6.008
 1655SOL     OW 5644   0.352   3.381   6.897
 1655SOL    HW1 5645   0.342   3.338   6.812
 1655SOL    HW2 5646   0.445   3.399   6.903
 1656SOL     OW 5647   0.414   2.605   7.188
 1656SOL    HW1 5648   0.474   2.651   7.130
 1656SOL    HW2 5649   0.453   2.518   7.200
 1657SOL     OW 5650   1.600   2.640   7.268
 1657SOL    HW1 5651   1.514   2.682   7.261
 1657SOL    HW2 5652   1.653   2.682   7.200
 1658SOL     OW 5653   0.996   1.985   7.341
 1658SOL    HW1 5654   1.052   2.058   7.313
 1658SOL    HW2 5655   1.045   1.907   7.315
 1659SOL     OW 5656   0.498   1.903   7.333
 1659SOL    HW1 5657   0.456   1.849   7.266
 1659SOL    HW2 5658   0.439   1.977   7.345
 1660SOL     OW 5659   0.585   2.736   6.618
 1660SOL    HW1 5660   0.616   2.826   6.617
 1660SOL    HW2 5661   0.529   2.731   6.695
 1661SOL     OW 5662   1.358   2.721   6.616
 1661SOL    HW1 5663   1.275   2.711   6.569
 1661SOL    HW2 5664   1.398   2.634   6.610
 1662SOL     OW 5665   1.205   2.391   5.853
 1662SOL    HW1 5666   1.213   2.312   5.907
 1662SOL    HW2 5667   1.162   2.455   5.910
 1663SOL     OW 5668   0.301   2.065   6.834
 1663SOL    HW1 5669   0.267   2.090   6.920
 1663SOL    HW2 5670   0.289   1.971   6.829
 1664SOL     OW 5671   0.069   3.180   6.866
 1664SOL    HW1 5672   0.091   3.121   6.938
 1664SOL    HW2 5673   5.299   3.236   6.902
 1665SOL     OW 5674   0.724   2.493   6.644
 1665SOL    HW1 5675   0.799   2.477   6.586
 1665SOL    HW2 5676   0.697   2.582   6.623
 1666SOL     OW 5677   1.735   2.822   7.438
 1666SOL    HW1 5678   1.686   2.761   7.382
 1666SOL    HW2 5679   1.677   2.835   7.513
 1667SOL     OW 5680   0.327   1.924   6.220
 1667SOL    HW1 5681   0.307   2.013   6.248
 1667SOL    HW2 5682   0.331   1.874   6.302
 1668SOL     OW 5683   1.616   2.236   5.953
 1668SOL    HW1 5684   1.644   2.172   6.019
 1668SOL    HW2 5685   1.594   2.314   6.004
 1669SOL     OW 5686   1.028   2.621   6.547
 1669SOL    HW1 5687   1.025   2.639   6.641
 1669SOL    HW2 5688   1.001   2.529   6.539
 1670SOL     OW 5689   0.981   3.427   7.302
 1670SOL    HW1 5690   0.967   3.472   7.219
 1670SOL    HW2 5691   1.026   3.346   7.278
 1671SOL     OW 5692   1.854   3.369   7.191
 1671SOL    HW1 5693   1.873   3.394   7.101
 1671SOL    HW2 5694   1.936   3.386   7.238
 1672SOL     OW 5695   0.354   2.777   7.394
 1672SOL    HW1 5696   0.436   2.800   7.438
 1672SOL    HW2 5697   0.378   2.714   7.327
 1673SOL     OW 5698   1.528   2.136   5.714
 1673SOL    HW1 5699   1.464   2.070   5.740
 1673SOL    HW2 5700   1.562   2.171   5.796
 1674SOL     OW 5701   1.292   2.688   5.617
 1674SOL    HW1 5702   1.335   2.603   5.621
 1674SOL    HW2 5703   1.323   2.727   5.535
 1675SOL     OW 5704   1.066   3.197   6.440
 1675SOL    HW1 5705   1.069   3.125   6.377
 1675SOL    HW2 5706   1.127   3.262   6.405
 1676SOL     OW 5707   0.314   2.672   6.536
 1676SOL    HW1 5708   0.408   2.690   6.532
 1676SOL    HW2 5709   0.308   2.582   6.568
 1677SOL     OW 5710   0.335   2.388   6.601
 1677SOL    HW1 5711   0.300   2.300   6.587
 1677SOL    HW2 5712   0.410   2.393   6.541
 1678SOL     OW 5713   1.134   2.238   7.267
 1678SOL    HW1 5714   1.087   2.293   7.329
 1678SOL    HW2 5715   1.222   2.276   7.263
 1679SOL     OW 5716   1.161   2.065   7.056
 1679SOL    HW1 5717   1.150   2.127   7.127
 1679SOL    HW2 5718   1.200   2.116   6.985
 1680SOL     OW 5719   0.002   3.192   5.796
 1680SOL    HW1 5720   5.228   3.181   5.736
 1680SOL    HW2 5721   0.012   3.106   5.838
 1681SOL     OW 5722   0.093   3.644   6.537
 1681SOL    HW1 5723   0.059   3.573   6.481
 1681SOL    HW2 5724   0.180   3.662   6.502
 1682SOL     OW 5725   0.505   3.435   6.493
 1682SOL    HW1 5726   0.572   3.501   6.514
 1682SOL    HW2 5727   0.548   3.374   6.434
 1683SOL     OW 5728   0.983   2.654   6.813
 1683SOL    HW1 5729   1.039   2.631   6.887
 1683SOL    HW2 5730   0.898   2.617   6.835
 1684SOL     OW 5731   0.033   2.424   6.702
 1684SOL    HW1 5732   0.119   2.398   6.668
 1684SOL    HW2 5733   0.037   2.405   6.795
 1685SOL     OW 5734   0.175   2.375   7.302
 1685SOL    HW1 5735   0.238   2.336   7.242
 1685SOL    HW2 5736   0.146   2.455   7.259
 1686SOL     OW 5737   1.376   2.801   7.245
 1686SOL    HW1 5738   1.398   2.894   7.244
 1686SOL    HW2 5739   1.374   2.776   7.153
 1687SOL     OW 5740   0.816   2.431   5.946
 1687SOL    HW1 5741   0.821   2.356   5.886
 1687SOL    HW2 5742   0.742   2.483   5.914
 1688SOL     OW 5743   1.641   2.463   6.772
 1688SOL    HW1 5744   1.631   2.404   6.847
 1688SOL    HW2 5745   1.728   2.443   6.738
 1689SOL     OW 5746   0.255   3.418   7.321
 1689SOL    HW1 5747   0.233   3.479   7.391
 1689SOL    HW2 5748   0.250   3.332   7.363
 1690SOL     OW 5749   0.701   2.313   6.846
 1690SOL    HW1 5750   0.648   2.238   6.816
 1690SOL    HW2 5751   0.697   2.375   6.774
 1691SOL     OW 5752   0.928   3.541   7.053
 1691SOL    HW1 5753   0.902   3.507   6.968
 1691SOL    HW2 5754   0.924   3.636   7.044
 1692SOL     OW 5755   0.465   2.355   5.772
 1692SOL    HW1 5756   0.525   2.426   5.793
 1692SOL    HW2 5757   0.380   2.398   5.760
 1693SOL     OW 5758   0.148   2.999   7.057
 1693SOL    HW1 5759   0.146   2.950   7.139
 1693SOL    HW2 5760   0.160   2.933   6.989
 1694SOL     OW 5761   1.326   2.909   6.809
 1694SOL    HW1 5762   1.349   2.846   6.741
 1694SOL    HW2 5763   1.255   2.961   6.770
 1695SOL     OW 5764   1.311   2.719   5.892
 1695SOL    HW1 5765   1.235   2.688   5.942
 1695SOL    HW2 5766   1.287   2.705   5.801
 1696SOL     OW 5767   1.771   3.607   6.735
 1696SOL    HW1 5768   1.832   3.632   6.666
 1696SOL    HW2 5769   1.747   3.516   6.715
 1697SOL     OW 5770   1.241   3.595   6.699
 1697SOL    HW1 5771   1.323   3.616   6.654
 1697SOL    HW2 5772   1.247   3.501   6.717
 1698SOL     OW 5773   0.083   3.080   6.613
 1698SOL    HW1 5774   0.070   3.105   6.705
 1698SOL    HW2 5775   5.294   3.068   6.579
 1699SOL     OW 5776   0.677   3.527   7.314
 1699SOL    HW1 5777   0.624   3.606   7.310
 1699SOL    HW2 5778   0.743   3.539   7.245
 1700SOL     OW 5779   1.720   2.009   6.096
 1700SOL    HW1 5780   1.792   1.994   6.035
 1700SOL    HW2 5781   1.704   1.923   6.136
 1701SOL     OW 5782   1.390   3.430   6.071
 1701SOL    HW1 5783   1.451   3.462   6.004
 1701SOL    HW2 5784   1.342   3.507   6.099
 1702SOL     OW 5785   0.141   3.661   7.429
 1702SOL    HW1 5786   0.089   3.597   7.477
 1702SOL    HW2 5787   0.194   3.704   7.496
 1703SOL     OW 5788   1.277   2.787   6.257
 1703SOL    HW1 5789   1.351   2.727   6.264
 1703SOL    HW2 5790   1.311   2.860   6.205
 1704SOL     OW 5791   0.815   3.135   7.016
 1704SOL    HW1 5792   0.786   3.175   7.098
 1704SOL    HW2 5793   0.745   3.156   6.954
 1705SOL     OW 5794   0.672   3.481   5.741
 1705SOL    HW1 5795   0.682   3.494   5.647
 1705SOL    HW2 5796   0.617   3.403   5.749
 1706SOL     OW 5797   1.626   3.589   6.977
 1706SOL    HW1 5798   1.677   3.596   6.895
 1706SOL    HW2 5799   1.613   3.679   7.004
 1707SOL     OW 5800   1.841   2.035   6.553
 1707SOL    HW1 5801   1.869   1.948   6.526
 1707SOL    HW2 5802   1.754   2.045   6.513
 1708SOL     OW 5803   0.273   2.179   6.303
 1708SOL    HW1 5804   0.188   2.218   6.283
 1708SOL    HW2 5805   0.271   2.168   6.399
 1709SOL     OW 5806   1.207   3.468   5.617
 1709SOL    HW1 5807   1.197   3.377   5.644
 1709SOL    HW2 5808   1.142   3.480   5.548
 1710SOL     OW 5809   0.824   2.868   6.958
 1710SOL    HW1 5810   0.868   2.863   6.873
 1710SOL    HW2 5811   0.824   2.961   6.980
 1711SOL     OW 5812   0.915   2.772   5.876
 1711SOL    HW1 5813   0.976   2.804   5.809
 1711SOL    HW2 5814   0.963   2.703   5.921
 1712SOL     OW 5815   1.492   3.486   5.629
 1712SOL    HW1 5816   1.397   3.481   5.615
 1712SOL    HW2 5817   1.528   3.493   5.540
 1713SOL     OW 5818   0.367   3.166   7.079
 1713SOL    HW1 5819   0.359   3.240   7.020
 1713SOL    HW2 5820   0.292   3.111   7.060
 1714SOL     OW 5821   1.610   3.144   6.866
 1714SOL    HW1 5822   1.671   3.134   6.940
 1714SOL    HW2 5823   1.550   3.214   6.894
 1715SOL     OW 5824   1.052   2.969   6.292
 1715SOL    HW1 5825   0.981   2.918   6.332
 1715SOL    HW2 5826   1.114   2.903   6.261
 1716SOL     OW 5827   1.021   2.102   6.552
 1716SOL    HW1 5828   1.016   2.055   6.469
 1716SOL    HW2 5829   1.016   2.035   6.619
 1717SOL     OW 5830   0.601   3.349   6.067
 1717SOL    HW1 5831   0.646   3.301   5.998
 1717SOL    HW2 5832   0.535   3.400   6.021
 1718SOL     OW 5833   1.722   2.254   6.967
 1718SOL    HW1 5834   1.794   2.318   6.965
 1718SOL    HW2 5835   1.752   2.183   6.910
 1719SOL     OW 5836   0.260   3.210   5.878
 1719SOL    HW1 5837   0.167   3.212   5.856
 1719SOL    HW2 5838   0.264   3.247   5.966
 1720SOL     OW 5839   0.116   2.876   7.303
 1720SOL    HW1 5840   0.044   2.846   7.358
 1720SOL    HW2 5841   0.195   2.846   7.347
 1721SOL     OW 5842   0.674   2.058   7.085
 1721SOL    HW1 5843   0.758   2.038   7.044
 1721SOL    HW2 5844   0.697   2.088   7.173
 1722SOL     OW 5845   0.082   2.212   5.627
 1722SOL    HW1 5846   0.003   2.163   5.603
 1722SOL    HW2 5847   0.098   2.269   5.552
 1723SOL     OW 5848   1.430   2.720   6.986
 1723SOL    HW1 5849   1.381   2.781   6.931
 1723SOL    HW2 5850   1.519   2.723   6.953
 1724SOL     OW 5851   0.056   1.995   5.829
 1724SOL    HW1 5852   0.055   2.090   5.821
 1724SOL    HW2 5853   0.146   1.970   5.807
 1725SOL     OW 5854   1.179   3.201   5.703
 1725SOL    HW1 5855   1.088   3.172   5.705
 1725SOL    HW2 5856   1.207   3.202   5.794
 1726SOL     OW 5857   0.619   2.693   7.021
 1726SOL    HW1 5858   0.676   2.769   7.005
 1726SOL    HW2 5859   0.680   2.619   7.029
 1727SOL     OW 5860   1.484   3.638   6.565
 1727SOL    HW1 5861   1.508   3.698   6.493
 1727SOL    HW2 5862   1.567   3.620   6.609
 1728SOL     OW 5863   0.717   2.426   7.291
 1728SOL    HW1 5864   0.758   2.488   7.351
 1728SOL    HW2 5865   0.746   2.340   7.322
 1729SOL     OW 5866   1.471   3.062   7.218
 1729SOL    HW1 5867   1.459   3.075   7.312
 1729SOL    HW2 5868   1.565   3.077   7.204
 1730SOL     OW 5869   0.378   3.604   7.150
 1730SOL    HW1 5870   0.295   3.650   7.134
 1730SOL    HW2 5871   0.353   3.524   7.195
 1731SOL     OW 5872   1.670   2.743   6.841
 1731SOL    HW1 5873   1.662   2.658   6.798
 1731SOL    HW2 5874   1.660   2.807   6.770
 1732SOL     OW 5875   1.217   2.181   6.044
 1732SOL    HW1 5876   1.280   2.110   6.035
 1732SOL    HW2 5877   1.246   2.230   6.121
 1733SOL     OW 5878   0.590   2.599   6.255
 1733SOL    HW1 5879   0.629   2.686   6.239
 1733SOL    HW2 5880   0.521   2.593   6.189
 1734SOL     OW 5881   1.763   2.223   7.237
 1734SOL    HW1 5882   1.745   2.239   7.144
 1734SOL    HW2 5883   1.691   2.167   7.265
 1735SOL     OW 5884   1.744   2.795   7.098
 1735SOL    HW1 5885   1.743   2.890   7.112
 1735SOL    HW2 5886   1.729   2.785   7.004
 1736SOL     OW 5887   0.863   3.229   5.620
 1736SOL    HW1 5888   0.824   3.258   5.703
 1736SOL    HW2 5889   0.881   3.310   5.572
 1737SOL     OW 5890   0.663   3.656   6.529
 1737SOL    HW1 5891   0.642   3.746   6.507
 1737SOL    HW2 5892   0.758   3.651   6.523
 1738SOL     OW 5893   0.867   2.828   6.440
 1738SOL    HW1 5894   0.918   2.757   6.480
 1738SOL    HW2 5895   0.833   2.878   6.515
 1739SOL     OW 5896   1.078   2.850   5.674
 1739SOL    HW1 5897   1.057   2.901   5.596
 1739SOL    HW2 5898   1.154   2.796   5.649
 1740SOL     OW 5899   1.854   3.416   6.430
 1740SOL    HW1 5900   1.775   3.405   6.377
 1740SOL    HW2 5901   1.847   3.350   6.498
 1741SOL     OW 5902   0.225   3.166   7.446
 1741SOL    HW1 5903   0.156   3.106   7.419
 1741SOL    HW2 5904   0.212   3.178   7.540
 1742SOL     OW 5905   0.087   3.083   6.241
 1742SOL    HW1 5906   0.100   3.050   6.330
 1742SOL    HW2 5907   0.173   3.075   6.200
 1743SOL     OW 5908   0.681   3.264   7.214
 1743SOL    HW1 5909   0.600   3.222   7.244
 1743SOL    HW2 5910   0.677   3.352   7.250
 1744SOL     OW 5911   1.814   2.047   6.824
 1744SOL    HW1 5912   1.822   1.952   6.838
 1744SOL    HW2 5913   1.822   2.057   6.729
 1745SOL     OW 5914   0.434   2.298   6.110
 1745SOL    HW1 5915   0.462   2.225   6.054
 1745SOL    HW2 5916   0.387   2.256   6.182
 1746SOL     OW 5917   1.700   3.352   6.683
 1746SOL    HW1 5918   1.619   3.328   6.638
 1746SOL    HW2 5919   1.713   3.283   6.748
 1747SOL     OW 5920   0.336   2.421   6.877
 1747SOL    HW1 5921   0.389   2.362   6.931
 1747SOL    HW2 5922   0.350   2.391   6.787
 1748SOL     OW 5923   0.828   3.439   6.264
 1748SOL    HW1 5924   0.816   3.494   6.186
 1748SOL    HW2 5925   0.751   3.382   6.266
 1749SOL     OW 5926   1.432   2.087   6.704
 1749SOL    HW1 5927   1.456   2.007   6.750
 1749SOL    HW2 5928   1.380   2.136   6.768
 1750SOL     OW 5929   1.009   1.881   6.728
 1750SOL    HW1 5930   0.954   1.813   6.688
 1750SOL    HW2 5931   1.097   1.843   6.731
 1751SOL     OW 5932   0.771   3.195   5.901
 1751SOL    HW1 5933   0.741   3.104   5.907
 1751SOL    HW2 5934   0.854   3.196   5.950
 1752SOL     OW 5935   0.623   3.418   6.873
 1752SOL    HW1 5936   0.624   3.500   6.922
 1752SOL    HW2 5937   0.710   3.412   6.833
 1753SOL     OW 5938   1.352   1.916   5.752
 1753SOL    HW1 5939   1.381   1.853   5.685
 1753SOL    HW2 5940   1.265   1.886   5.777
 1754SOL     OW 5941   1.296   2.323   6.267
 1754SOL    HW1 5942   1.243   2.402   6.274
 1754SOL    HW2 5943   1.293   2.283   6.354
 1755SOL     OW 5944   1.587   2.064   6.464
 1755SOL    HW1 5945   1.525   2.085   6.535
 1755SOL    HW2 5946   1.586   2.142   6.409
 1756SOL     OW 5947   0.048   2.931   5.877
 1756SOL    HW1 5948   0.137   2.899   5.865
 1756SOL    HW2 5949   5.300   2.855   5.911
 1757SOL     OW 5950   0.885   3.514   5.928
 1757SOL    HW1 5951   0.812   3.498   5.868
 1757SOL    HW2 5952   0.857   3.589   5.980
 1758SOL     OW 5953   0.230   2.492   7.566
 1758SOL    HW1 5954   0.155   2.453   7.611
 1758SOL    HW2 5955   0.222   2.463   7.476
 1759SOL     OW 5956   1.767   2.460   7.679
 1759SOL    HW1 5957   1.748   2.456   7.586
 1759SOL    HW2 5958   1.725   2.382   7.716
 1760SOL     OW 5959   0.230   3.569   7.921
 1760SOL    HW1 5960   0.264   3.613   7.998
 1760SOL    HW2 5961   0.300   3.575   7.856
 1761SOL     OW 5962   0.217   3.298   7.991
 1761SOL    HW1 5963   0.209   3.393   7.983
 1761SOL    HW2 5964   0.154   3.274   8.059
 1762SOL     OW 5965   0.584   2.845   7.581
 1762SOL    HW1 5966   0.628   2.894   7.511
 1762SOL    HW2 5967   0.625   2.876   7.662
 1763SOL     OW 5968   1.837   3.621   7.797
 1763SOL    HW1 5969   1.907   3.591   7.854
 1763SOL    HW2 5970   1.863   3.710   7.772
 1764SOL     OW 5971   0.036   3.464   7.582
 1764SOL    HW1 5972   0.027   3.370   7.603
 1764SOL    HW2 5973   5.277   3.507   7.643
 1765SOL     OW 5974   1.681   2.729   8.037
 1765SOL    HW1 5975   1.763   2.739   0.005
 1765SOL    HW2 5976   1.670   2.811   7.990
 1766SOL     OW 5977   1.655   2.960   7.877
 1766SOL    HW1 5978   1.742   2.986   7.847
 1766SOL    HW2 5979   1.627   3.032   7.934
 1767SOL     OW 5980   0.800   1.857   7.938
 1767SOL    HW1 5981   0.849   1.937   7.922
 1767SOL    HW2 5982   0.709   1.886   7.948
 1768SOL     OW 5983   1.533   2.856   7.649
 1768SOL    HW1 5984   1.466   2.796   7.683
 1768SOL    HW2 5985   1.576   2.891   7.727
 1769SOL     OW 5986   0.589   2.586   7.708
 1769SOL    HW1 5987   0.597   2.667   7.658
 1769SOL    HW2 5988   0.533   2.608   7.782
 1770SOL     OW 5989   1.574   3.533   7.757
 1770SOL    HW1 5990   1.665   3.562   7.766
 1770SOL    HW2 5991   1.563   3.519   7.663
 1771SOL     OW 5992   0.057   2.686   0.202
 1771SOL    HW1 5993   0.123   2.625   0.169
 1771SOL    HW2 5994   0.031   2.737   0.126
 1772SOL     OW 5995   0.881   2.208   7.636
 1772SOL    HW1 5996   0.927   2.269   7.578
 1772SOL    HW2 5997   0.917   2.122   7.614
 1773SOL     OW 5998   0.318   2.810   7.694
 1773SOL    HW1 5999   0.399   2.837   7.650
 1773SOL    HW2 6000   0.295   2.727   7.652
 1774SOL     OW 6001   1.123   3.638   7.682
 1774SOL    HW1 6002   1.047   3.598   7.723
 1774SOL    HW2 6003   1.147   3.577   7.611
 1775SOL     OW 6004   1.628   3.242   7.534
 1775SOL    HW1 6005   1.586   3.327   7.520
 1775SOL    HW2 6006   1.559   3.178   7.515
 1776SOL     OW 6007   0.470   3.599   7.769
 1776SOL    HW1 6008   0.515   3.653   7.834
 1776SOL    HW2 6009   0.539   3.565   7.713
 1777SOL     OW 6010   1.415   1.993   7.864
 1777SOL    HW1 6011   1.403   1.959   7.776
 1777SOL    HW2 6012   1.510   1.991   7.878
 1778SOL     OW 6013   0.379   2.562   7.923
 1778SOL    HW1 6014   0.399   2.468   7.927
 1778SOL    HW2 6015   0.285   2.567   7.939
 1779SOL     OW 6016   0.627   1.981   7.559
 1779SOL    HW1 6017   0.704   1.925   7.568
 1779SOL    HW2 6018   0.584   1.951   7.479
 1780SOL     OW 6019   0.527   1.937   7.961
 1780SOL    HW1 6020   0.440   1.942   8.000
 1780SOL    HW2 6021   0.528   2.007   7.896
 1781SOL     OW 6022   1.428   3.060   7.489
 1781SOL    HW1 6023   1.459   2.986   7.542
 1781SOL    HW2 6024   1.344   3.083   7.528
 1782SOL     OW 6025   0.306   1.906   7.619
 1782SOL    HW1 6026   0.368   1.970   7.584
 1782SOL    HW2 6027   0.361   1.843   7.667
 1783SOL     OW 6028   0.944   2.087   7.911
 1783SOL    HW1 6029   0.900   2.153   7.856
 1783SOL    HW2 6030   1.035   2.117   7.914
 1784SOL     OW 6031   0.447   3.021   0.090
 1784SOL    HW1 6032   0.375   3.042   0.149
 1784SOL    HW2 6033   0.405   3.002   0.006
 1785SOL     OW 6034   1.291   3.673   8.014
 1785SOL    HW1 6035   1.326   3.742   7.958
 1785SOL    HW2 6036   1.207   3.707   8.045
 1786SOL     OW 6037   1.025   2.404   7.467
 1786SOL    HW1 6038   0.981   2.487   7.450
 1786SOL    HW2 6039   1.086   2.424   7.538
 1787SOL     OW 6040   1.867   2.680   7.801
 1787SOL    HW1 6041   1.873   2.648   7.891
 1787SOL    HW2 6042   1.830   2.608   7.751
 1788SOL     OW 6043   0.490   3.277   7.605
 1788SOL    HW1 6044   0.415   3.249   7.658
 1788SOL    HW2 6045   0.472   3.243   7.518
 1789SOL     OW 6046   1.394   2.434   7.519
 1789SOL    HW1 6047   1.333   2.414   7.590
 1789SOL    HW2 6048   1.478   2.402   7.550
 1790SOL     OW 6049   0.527   2.127   7.770
 1790SOL    HW1 6050   0.570   2.077   7.701
 1790SOL    HW2 6051   0.503   2.210   7.729
 1791SOL     OW 6052   0.710   2.923   7.814
 1791SOL    HW1 6053   0.692   2.912   7.907
 1791SOL    HW2 6054   0.788   2.870   7.798
 1792SOL     OW 6055   0.346   2.957   7.928
 1792SOL    HW1 6056   0.345   3.041   7.883
 1792SOL    HW2 6057   0.348   2.891   7.858
 1793SOL     OW 6058   1.224   3.218   7.821
 1793SOL    HW1 6059   1.286   3.286   7.845
 1793SOL    HW2 6060   1.184   3.191   7.904
 1794SOL     OW 6061   1.588   2.490   7.921
 1794SOL    HW1 6062   1.574   2.549   7.995
 1794SOL    HW2 6063   1.628   2.545   7.854
 1795SOL     OW 6064   1.204   2.388   7.715
 1795SOL    HW1 6065   1.205   2.305   7.763
 1795SOL    HW2 6066   1.182   2.454   7.780
 1796SOL     OW 6067   1.618   2.241   7.814
 1796SOL    HW1 6068   1.640   2.174   7.880
 1796SOL    HW2 6069   1.594   2.318   7.866
 1797SOL     OW 6070   1.530   2.136   7.575
 1797SOL    HW1 6071   1.464   2.071   7.601
 1797SOL    HW2 6072   1.562   2.172   7.658
 1798SOL     OW 6073   1.294   2.689   7.481
 1798SOL    HW1 6074   1.336   2.603   7.483
 1798SOL    HW2 6075   1.324   2.729   7.399
 1799SOL     OW 6076   0.003   3.195   7.656
 1799SOL    HW1 6077   5.221   3.193   7.607
 1799SOL    HW2 6078   0.013   3.107   7.691
 1800SOL     OW 6079   0.838   2.461   7.762
 1800SOL    HW1 6080   0.830   2.370   7.733
 1800SOL    HW2 6081   0.748   2.494   7.762
 1801SOL     OW 6082   0.462   2.355   7.639
 1801SOL    HW1 6083   0.523   2.427   7.654
 1801SOL    HW2 6084   0.378   2.397   7.624
 1802SOL     OW 6085   1.310   2.710   7.755
 1802SOL    HW1 6086   1.223   2.721   7.793
 1802SOL    HW2 6087   1.294   2.702   7.661
 1803SOL     OW 6088   1.712   2.008   7.948
 1803SOL    HW1 6089   1.789   2.001   7.892
 1803SOL    HW2 6090   1.714   1.930   8.003
 1804SOL     OW 6091   1.364   3.438   7.896
 1804SOL    HW1 6092   1.439   3.459   7.840
 1804SOL    HW2 6093   1.333   3.524   7.927
 1805SOL     OW 6094   0.668   3.481   7.603
 1805SOL    HW1 6095   0.680   3.493   7.509
 1805SOL    HW2 6096   0.616   3.401   7.611
 1806SOL     OW 6097   1.209   3.469   7.478
 1806SOL    HW1 6098   1.199   3.378   7.506
 1806SOL    HW2 6099   1.142   3.481   7.410
 1807SOL     OW 6100   0.925   2.772   7.755
 1807SOL    HW1 6101   0.979   2.797   7.680
 1807SOL    HW2 6102   0.922   2.676   7.752
 1808SOL     OW 6103   1.493   3.488   7.488
 1808SOL    HW1 6104   1.399   3.481   7.476
 1808SOL    HW2 6105   1.529   3.493   7.400
 1809SOL     OW 6106   0.605   3.368   7.936
 1809SOL    HW1 6107   0.650   3.308   7.875
 1809SOL    HW2 6108   0.534   3.404   7.884
 1810SOL     OW 6109   0.260   3.209   7.742
 1810SOL    HW1 6110   0.167   3.213   7.718
 1810SOL    HW2 6111   0.263   3.244   7.830
 1811SOL     OW 6112   0.081   2.203   7.488
 1811SOL    HW1 6113   5.298   2.163   7.463
 1811SOL    HW2 6114   0.099   2.266   7.418
 1812SOL     OW 6115   0.081   1.998   7.738
 1812SOL    HW1 6116   0.066   2.086   7.702
 1812SOL    HW2 6117   0.154   1.963   7.686
 1813SOL     OW 6118   1.177   3.201   7.556
 1813SOL    HW1 6119   1.084   3.175   7.557
 1813SOL    HW2 6120   1.201   3.207   7.649
 1814SOL     OW 6121   1.215   2.180   7.904
 1814SOL    HW1 6122   1.288   2.119   7.892
 1814SOL    HW2 6123   1.236   2.228   7.984
 1815SOL     OW 6124   0.623   2.600   8.050
 1815SOL    HW1 6125   0.628   2.679   0.023
 1815SOL    HW2 6126   0.532   2.598   8.020
 1816SOL     OW 6127   0.863   3.229   7.482
 1816SOL    HW1 6128   0.825   3.258   7.565
 1816SOL    HW2 6129   0.882   3.310   7.435
 1817SOL     OW 6130   1.072   2.840   7.537
 1817SOL    HW1 6131   1.054   2.898   7.463
 1817SOL    HW2 6132   1.151   2.792   7.511
 1818SOL     OW 6133   0.392   2.293   7.979
 1818SOL    HW1 6134   0.437   2.234   7.918
 1818SOL    HW2 6135   0.436   2.278   8.063
 1819SOL     OW 6136   0.765   3.197   7.761
 1819SOL    HW1 6137   0.736   3.106   7.763
 1819SOL    HW2 6138   0.847   3.196   7.811
 1820SOL     OW 6139   1.352   1.915   7.610
 1820SOL    HW1 6140   1.381   1.849   7.547
 1820SOL    HW2 6141   1.266   1.885   7.638
 1821SOL     OW 6142   0.048   2.932   7.722
 1821SOL    HW1 6143   0.137   2.898   7.721
 1821SOL    HW2 6144   5.300   2.872   7.779
 1822SOL     OW 6145   0.893   3.513   7.781
 1822SOL    HW1 6146   0.817   3.490   7.728
 1822SOL    HW2 6147   0.859   3.576   7.844
 1823SOL     OW 6148   0.226   4.348   0.114
 1823SOL    HW1 6149   0.155   4.309   0.164
 1823SOL    HW2 6150   0.231   4.294   0.034
 1824SOL     OW 6151   0.241   3.999   0.989
 1824SOL    HW1 6152   0.255   3.965   1.077
 1824SOL    HW2 6153   0.157   3.961   0.962
 1825SOL     OW 6154   5.296   4.120   0.649
 1825SOL    HW1 6155   5.205   4.148   0.659
 1825SOL    HW2 6156   5.291   4.027   0.628
 1826SOL     OW 6157   0.573   5.000   1.183
 1826SOL    HW1 6158   0.494   5.006   1.130
 1826SOL    HW2 6159   0.592   5.090   1.209
 1827SOL     OW 6160   1.555   5.233   0.688
 1827SOL    HW1 6161   1.532   5.229   0.781
 1827SOL    HW2 6162   1.478   5.268   0.645
 1828SOL     OW 6163   1.130   4.422   0.701
 1828SOL    HW1 6164   1.179   4.503   0.687
 1828SOL    HW2 6165   1.083   4.436   0.783
 1829SOL     OW 6166   1.769   4.325   0.233
 1829SOL    HW1 6167   1.731   4.325   0.145
 1829SOL    HW2 6168   1.730   4.249   0.276
 1830SOL     OW 6169   0.759   4.867   1.037
 1830SOL    HW1 6170   0.691   4.897   1.098
 1830SOL    HW2 6171   0.786   4.947   0.992
 1831SOL     OW 6172   0.867   4.499   1.822
 1831SOL    HW1 6173   0.855   4.571   1.884
 1831SOL    HW2 6174   0.890   4.542   1.740
 1832SOL     OW 6175   0.684   4.725   0.651
 1832SOL    HW1 6176   0.750   4.715   0.720
 1832SOL    HW2 6177   0.617   4.781   0.690
 1833SOL     OW 6178   0.708   4.872   1.812
 1833SOL    HW1 6179   0.756   4.951   1.836
 1833SOL    HW2 6180   0.625   4.904   1.776
 1834SOL     OW 6181   0.376   5.146   1.053
 1834SOL    HW1 6182   0.282   5.155   1.040
 1834SOL    HW2 6183   0.415   5.198   0.983
 1835SOL     OW 6184   1.455   5.220   1.347
 1835SOL    HW1 6185   1.509   5.293   1.379
 1835SOL    HW2 6186   1.388   5.209   1.415
 1836SOL     OW 6187   0.451   4.124   1.493
 1836SOL    HW1 6188   0.524   4.063   1.494
 1836SOL    HW2 6189   0.373   4.068   1.502
 1837SOL     OW 6190   1.612   4.172   0.740
 1837SOL    HW1 6191   1.536   4.195   0.686
 1837SOL    HW2 6192   1.627   4.249   0.795
 1838SOL     OW 6193   1.133   5.072   1.701
 1838SOL    HW1 6194   1.164   5.073   1.791
 1838SOL    HW2 6195   1.080   4.993   1.694
 1839SOL     OW 6196   0.210   5.150   0.530
 1839SOL    HW1 6197   0.251   5.230   0.563
 1839SOL    HW2 6198   0.130   5.141   0.581
 1840SOL     OW 6199   0.253   4.800   0.877
 1840SOL    HW1 6200   0.262   4.713   0.915
 1840SOL    HW2 6201   0.196   4.847   0.938
 1841SOL     OW 6202   0.622   4.684   0.136
 1841SOL    HW1 6203   0.578   4.764   0.107
 1841SOL    HW2 6204   0.675   4.712   0.210
 1842SOL     OW 6205   1.596   3.847   1.468
 1842SOL    HW1 6206   1.603   3.928   1.417
 1842SOL    HW2 6207   1.582   3.877   1.558
 1843SOL     OW 6208   0.132   4.354   0.581
 1843SOL    HW1 6209   0.086   4.275   0.609
 1843SOL    HW2 6210   0.100   4.422   0.641
 1844SOL     OW 6211   0.015   5.294   0.070
 1844SOL    HW1 6212   0.022   5.210   0.115
 1844SOL    HW2 6213   0.043   0.059   0.136
 1845SOL     OW 6214   1.687   4.642   0.643
 1845SOL    HW1 6215   1.770   4.600   0.621
 1845SOL    HW2 6216   1.665   4.694   0.565
 1846SOL     OW 6217   1.646   4.829   0.434
 1846SOL    HW1 6218   1.728   4.841   0.385
 1846SOL    HW2 6219   1.652   4.891   0.507
 1847SOL     OW 6220   0.131   4.472   1.586
 1847SOL    HW1 6221   0.225   4.487   1.588
 1847SOL    HW2 6222   0.092   4.559   1.598
 1848SOL     OW 6223   0.627   5.096   0.735
 1848SOL    HW1 6224   0.569   5.020   0.735
 1848SOL    HW2 6225   0.601   5.146   0.658
 1849SOL     OW 6226   1.289   4.954   1.426
 1849SOL    HW1 6227   1.323   4.889   1.365
 1849SOL    HW2 6228   1.349   4.951   1.500
 1850SOL     OW 6229   0.823   3.725   0.512
 1850SOL    HW1 6230   0.862   3.810   0.490
 1850SOL    HW2 6231   0.729   3.743   0.517
 1851SOL     OW 6232   0.176   4.667   1.282
 1851SOL    HW1 6233   0.266   4.637   1.268
 1851SOL    HW2 6234   0.134   4.656   1.196
 1852SOL     OW 6235   1.509   4.734   0.210
 1852SOL    HW1 6236   1.449   4.667   0.242
 1852SOL    HW2 6237   1.562   4.757   0.286
 1853SOL     OW 6238   0.336   3.977   1.817
 1853SOL    HW1 6239   0.383   4.059   1.829
 1853SOL    HW2 6240   0.249   3.994   1.851
 1854SOL     OW 6241   1.477   5.146   0.963
 1854SOL    HW1 6242   1.403   5.159   1.023
 1854SOL    HW2 6243   1.464   5.058   0.928
 1855SOL     OW 6244   0.597   4.437   0.280
 1855SOL    HW1 6245   0.617   4.517   0.231
 1855SOL    HW2 6246   0.535   4.466   0.347
 1856SOL     OW 6247   1.279   4.076   0.932
 1856SOL    HW1 6248   1.190   4.043   0.941
 1856SOL    HW2 6249   1.330   4.023   0.994
 1857SOL     OW 6250   0.792   4.341   1.451
 1857SOL    HW1 6251   0.765   4.318   1.540
 1857SOL    HW2 6252   0.752   4.275   1.396
 1858SOL     OW 6253   1.393   4.198   1.678
 1858SOL    HW1 6254   1.396   4.243   1.762
 1858SOL    HW2 6255   1.455   4.125   1.687
 1859SOL     OW 6256   0.955   4.612   1.583
 1859SOL    HW1 6257   1.009   4.541   1.547
 1859SOL    HW2 6258   0.907   4.646   1.507
 1860SOL     OW 6259   0.992   4.136   1.239
 1860SOL    HW1 6260   0.907   4.158   1.276
 1860SOL    HW2 6261   0.972   4.090   1.157
 1861SOL     OW 6262   1.052   4.423   0.427
 1861SOL    HW1 6263   1.067   4.416   0.522
 1861SOL    HW2 6264   0.970   4.377   0.413
 1862SOL     OW 6265   0.068   4.511   0.817
 1862SOL    HW1 6266   0.152   4.516   0.862
 1862SOL    HW2 6267   0.063   4.592   0.767
 1863SOL     OW 6268   0.885   4.081   0.201
 1863SOL    HW1 6269   0.930   4.130   0.132
 1863SOL    HW2 6270   0.885   3.991   0.170
 1864SOL     OW 6271   1.709   4.299   1.828
 1864SOL    HW1 6272   1.671   4.373   1.780
 1864SOL    HW2 6273   1.736   4.238   1.760
 1865SOL     OW 6274   1.376   4.863   0.540
 1865SOL    HW1 6275   1.457   4.850   0.489
 1865SOL    HW2 6276   1.325   4.926   0.488
 1866SOL     OW 6277   0.555   3.908   0.893
 1866SOL    HW1 6278   0.552   3.935   0.985
 1866SOL    HW2 6279   0.553   3.990   0.844
 1867SOL     OW 6280   1.019   5.164   0.470
 1867SOL    HW1 6281   0.944   5.224   0.468
 1867SOL    HW2 6282   1.040   5.155   0.563
 1868SOL     OW 6283   1.800   4.781   0.867
 1868SOL    HW1 6284   1.742   4.763   0.792
 1868SOL    HW2 6285   1.741   4.788   0.941
 1869SOL     OW 6286   1.250   5.240   1.524
 1869SOL    HW1 6287   1.214   5.173   1.582
 1869SOL    HW2 6288   1.179   5.259   1.463
 1870SOL     OW 6289   0.329   4.673   0.246
 1870SOL    HW1 6290   0.411   4.686   0.200
 1870SOL    HW2 6291   0.316   4.578   0.247
 1871SOL     OW 6292   1.478   4.465   0.727
 1871SOL    HW1 6293   1.469   4.423   0.812
 1871SOL    HW2 6294   1.555   4.521   0.735
 1872SOL     OW 6295   0.463   4.989   1.742
 1872SOL    HW1 6296   0.437   4.992   1.650
 1872SOL    HW2 6297   0.380   4.988   1.790
 1873SOL     OW 6298   1.157   0.160   0.237
 1873SOL    HW1 6299   1.074   0.176   0.280
 1873SOL    HW2 6300   1.134   0.140   0.146
 1874SOL     OW 6301   0.205   4.005   1.497
 1874SOL    HW1 6302   0.126   4.056   1.481
 1874SOL    HW2 6303   0.173   3.926   1.542
 1875SOL     OW 6304   1.630   5.094   0.076
 1875SOL    HW1 6305   1.592   5.180   0.093
 1875SOL    HW2 6306   1.555   5.037   0.062
 1876SOL     OW 6307   1.407   3.835   0.444
 1876SOL    HW1 6308   1.398   3.814   0.351
 1876SOL    HW2 6309   1.502   3.842   0.457
 1877SOL     OW 6310   0.382   4.423   0.475
 1877SOL    HW1 6311   0.414   4.333   0.485
 1877SOL    HW2 6312   0.290   4.419   0.501
 1878SOL     OW 6313   1.536   3.949   1.725
 1878SOL    HW1 6314   1.545   3.970   1.818
 1878SOL    HW2 6315   1.466   3.883   1.722
 1879SOL     OW 6316   0.629   3.835   0.136
 1879SOL    HW1 6317   0.723   3.823   0.141
 1879SOL    HW2 6318   0.607   3.816   0.045
 1880SOL     OW 6319   0.767   4.002   1.754
 1880SOL    HW1 6320   0.842   3.943   1.756
 1880SOL    HW2 6321   0.718   3.980   1.833
 1881SOL     OW 6322   1.341   4.312   1.432
 1881SOL    HW1 6323   1.371   4.281   1.517
 1881SOL    HW2 6324   1.376   4.401   1.424
 1882SOL     OW 6325   0.813   5.120   0.936
 1882SOL    HW1 6326   0.894   5.105   0.887
 1882SOL    HW2 6327   0.745   5.126   0.869
 1883SOL     OW 6328   0.928   4.233   0.902
 1883SOL    HW1 6329   0.904   4.225   0.810
 1883SOL    HW2 6330   0.959   4.146   0.927
 1884SOL     OW 6331   0.560   3.786   0.500
 1884SOL    HW1 6332   0.485   3.785   0.559
 1884SOL    HW2 6333   0.549   3.865   0.448
 1885SOL     OW 6334   1.426   4.925   0.035
 1885SOL    HW1 6335   1.455   4.851   0.089
 1885SOL    HW2 6336   1.339   4.947   0.070
 1886SOL     OW 6337   0.314   3.770   0.174
 1886SOL    HW1 6338   0.378   3.841   0.179
 1886SOL    HW2 6339   0.356   3.697   0.218
 1887SOL     OW 6340   0.941   3.971   0.459
 1887SOL    HW1 6341   0.913   4.013   0.377
 1887SOL    HW2 6342   1.035   3.987   0.463
 1888SOL     OW 6343   1.080   4.405   1.460
 1888SOL    HW1 6344   1.011   4.338   1.464
 1888SOL    HW2 6345   1.161   4.354   1.453
 1889SOL     OW 6346   1.263   5.266   0.780
 1889SOL    HW1 6347   1.222   0.046   0.747
 1889SOL    HW2 6348   1.306   5.292   0.861
 1890SOL     OW 6349   0.466   4.874   0.729
 1890SOL    HW1 6350   0.397   4.853   0.793
 1890SOL    HW2 6351   0.425   4.855   0.644
 1891SOL     OW 6352   1.032   4.253   0.030
 1891SOL    HW1 6353   0.990   4.334   0.002
 1891SOL    HW2 6354   1.094   4.281   0.098
 1892SOL     OW 6355   0.087   4.269   1.398
 1892SOL    HW1 6356   0.175   4.277   1.361
 1892SOL    HW2 6357   0.079   4.345   1.455
 1893SOL     OW 6358   0.560   3.951   1.166
 1893SOL    HW1 6359   0.598   3.872   1.203
 1893SOL    HW2 6360   0.469   3.950   1.194
 1894SOL     OW 6361   0.868   4.182   0.639
 1894SOL    HW1 6362   0.824   4.238   0.574
 1894SOL    HW2 6363   0.889   4.102   0.592
 1895SOL     OW 6364   1.016   3.776   0.750
 1895SOL    HW1 6365   0.956   3.770   0.676
 1895SOL    HW2 6366   0.994   3.701   0.806
 1896SOL     OW 6367   1.437   4.889   0.859
 1896SOL    HW1 6368   1.370   4.822   0.855
 1896SOL    HW2 6369   1.462   4.904   0.767
 1897SOL     OW 6370   1.467   4.329   0.977
 1897SOL    HW1 6371   1.416   4.248   0.981
 1897SOL    HW2 6372   1.526   4.323   1.052
 1898SOL     OW 6373   1.849   4.539   0.388
 1898SOL    HW1 6374   1.901   4.486   0.448
 1898SOL    HW2 6375   1.817   4.477   0.322
 1899SOL     OW 6376   0.474   5.158   0.158
 1899SOL    HW1 6377   0.421   5.108   0.220
 1899SOL    HW2 6378   0.501   5.094   0.092
 1900SOL     OW 6379   1.670   4.988   0.647
 1900SOL    HW1 6380   1.764   4.995   0.666
 1900SOL    HW2 6381   1.635   5.076   0.664
 1901SOL     OW 6382   1.398   4.303   0.087
 1901SOL    HW1 6383   1.336   4.284   0.157
 1901SOL    HW2 6384   1.454   4.226   0.082
 1902SOL     OW 6385   0.515   3.987   0.323
 1902SOL    HW1 6386   0.565   3.935   0.260
 1902SOL    HW2 6387   0.501   4.071   0.280
 1903SOL     OW 6388   1.751   4.960   1.576
 1903SOL    HW1 6389   1.837   4.918   1.576
 1903SOL    HW2 6390   1.770   5.053   1.589
 1904SOL     OW 6391   1.064   5.075   1.332
 1904SOL    HW1 6392   0.986   5.049   1.380
 1904SOL    HW2 6393   1.137   5.035   1.380
 1905SOL     OW 6394   1.126   4.926   1.108
 1905SOL    HW1 6395   1.075   4.967   1.177
 1905SOL    HW2 6396   1.082   4.952   1.027
 1906SOL     OW 6397   1.629   4.822   1.077
 1906SOL    HW1 6398   1.624   4.884   1.150
 1906SOL    HW2 6399   1.551   4.841   1.025
 1907SOL     OW 6400   0.919   3.820   1.397
 1907SOL    HW1 6401   0.941   3.802   1.306
 1907SOL    HW2 6402   0.998   3.860   1.433
 1908SOL     OW 6403   0.984   4.839   1.725
 1908SOL    HW1 6404   0.892   4.855   1.743
 1908SOL    HW2 6405   0.985   4.762   1.667
 1909SOL     OW 6406   0.708   4.781   0.381
 1909SOL    HW1 6407   0.694   4.766   0.474
 1909SOL    HW2 6408   0.789   4.733   0.361
 1910SOL     OW 6409   0.421   4.542   1.251
 1910SOL    HW1 6410   0.490   4.549   1.318
 1910SOL    HW2 6411   0.386   4.454   1.262
 1911SOL     OW 6412   1.265   4.101   1.275
 1911SOL    HW1 6413   1.298   4.178   1.321
 1911SOL    HW2 6414   1.175   4.123   1.252
 1912SOL     OW 6415   0.112   5.285   1.322
 1912SOL    HW1 6416   0.054   0.051   1.361
 1912SOL    HW2 6417   0.191   5.288   1.376
 1913SOL     OW 6418   0.346   4.829   0.487
 1913SOL    HW1 6419   0.341   4.907   0.433
 1913SOL    HW2 6420   0.358   4.757   0.425
 1914SOL     OW 6421   0.554   4.259   0.859
 1914SOL    HW1 6422   0.570   4.318   0.785
 1914SOL    HW2 6423   0.618   4.287   0.925
 1915SOL     OW 6424   1.258   5.072   0.386
 1915SOL    HW1 6425   1.312   5.147   0.411
 1915SOL    HW2 6426   1.169   5.096   0.412
 1916SOL     OW 6427   1.269   5.182   1.141
 1916SOL    HW1 6428   1.328   5.195   1.216
 1916SOL    HW2 6429   1.225   5.099   1.160
 1917SOL     OW 6430   1.583   4.348   0.481
 1917SOL    HW1 6431   1.533   4.398   0.546
 1917SOL    HW2 6432   1.618   4.414   0.422
 1918SOL     OW 6433   0.381   5.233   1.315
 1918SOL    HW1 6434   0.364   5.193   1.229
 1918SOL    HW2 6435   0.474   5.257   1.312
 1919SOL     OW 6436   0.414   4.467   1.602
 1919SOL    HW1 6437   0.474   4.513   1.544
 1919SOL    HW2 6438   0.453   4.380   1.615
 1920SOL     OW 6439   1.601   4.503   1.682
 1920SOL    HW1 6440   1.515   4.544   1.675
 1920SOL    HW2 6441   1.653   4.544   1.613
 1921SOL     OW 6442   0.996   3.847   1.755
 1921SOL    HW1 6443   1.051   3.920   1.727
 1921SOL    HW2 6444   1.044   3.768   1.730
 1922SOL     OW 6445   0.497   3.765   1.748
 1922SOL    HW1 6446   0.455   3.711   1.681
 1922SOL    HW2 6447   0.438   3.839   1.760
 1923SOL     OW 6448   0.586   4.597   1.032
 1923SOL    HW1 6449   0.614   4.688   1.029
 1923SOL    HW2 6450   0.529   4.591   1.109
 1924SOL     OW 6451   1.358   4.582   1.029
 1924SOL    HW1 6452   1.274   4.573   0.983
 1924SOL    HW2 6453   1.398   4.495   1.024
 1925SOL     OW 6454   1.204   4.252   0.271
 1925SOL    HW1 6455   1.211   4.173   0.324
 1925SOL    HW2 6456   1.161   4.316   0.328
 1926SOL     OW 6457   0.301   3.927   1.247
 1926SOL    HW1 6458   0.267   3.952   1.333
 1926SOL    HW2 6459   0.289   3.833   1.243
 1927SOL     OW 6460   0.043   5.021   1.277
 1927SOL    HW1 6461   0.074   4.971   1.352
 1927SOL    HW2 6462   0.046   5.112   1.306
 1928SOL     OW 6463   0.724   4.355   1.058
 1928SOL    HW1 6464   0.799   4.339   1.000
 1928SOL    HW2 6465   0.696   4.444   1.037
 1929SOL     OW 6466   1.734   4.684   1.852
 1929SOL    HW1 6467   1.689   4.622   1.795
 1929SOL    HW2 6468   1.675   4.697   1.926
 1930SOL     OW 6469   0.325   3.787   0.635
 1930SOL    HW1 6470   0.309   3.877   0.664
 1930SOL    HW2 6471   0.331   3.736   0.716
 1931SOL     OW 6472   1.621   4.099   0.369
 1931SOL    HW1 6473   1.645   4.034   0.436
 1931SOL    HW2 6474   1.595   4.176   0.420
 1932SOL     OW 6475   1.028   4.483   0.961
 1932SOL    HW1 6476   1.025   4.500   1.055
 1932SOL    HW2 6477   1.001   4.391   0.952
 1933SOL     OW 6478   1.855   5.214   1.585
 1933SOL    HW1 6479   1.849   5.289   1.526
 1933SOL    HW2 6480   1.924   5.237   1.647
 1934SOL     OW 6481   0.354   4.643   1.806
 1934SOL    HW1 6482   0.435   4.660   1.854
 1934SOL    HW2 6483   0.379   4.577   1.740
 1935SOL     OW 6484   1.518   4.024   0.126
 1935SOL    HW1 6485   1.469   3.944   0.143
 1935SOL    HW2 6486   1.558   4.045   0.211
 1936SOL     OW 6487   1.295   4.548   0.019
 1936SOL    HW1 6488   1.333   4.462   0.039
 1936SOL    HW2 6489   1.355   4.588   8.037
 1937SOL     OW 6490   1.059   5.078   0.828
 1937SOL    HW1 6491   1.064   4.993   0.783
 1937SOL    HW2 6492   1.144   5.118   0.813
 1938SOL     OW 6493   0.315   4.533   0.949
 1938SOL    HW1 6494   0.409   4.551   0.945
 1938SOL    HW2 6495   0.309   4.443   0.981
 1939SOL     OW 6496   0.335   4.249   1.015
 1939SOL    HW1 6497   0.300   4.161   1.001
 1939SOL    HW2 6498   0.410   4.255   0.956
 1940SOL     OW 6499   1.134   4.100   1.682
 1940SOL    HW1 6500   1.086   4.155   1.744
 1940SOL    HW2 6501   1.222   4.138   1.678
 1941SOL     OW 6502   1.161   3.927   1.470
 1941SOL    HW1 6503   1.150   3.989   1.542
 1941SOL    HW2 6504   1.200   3.978   1.399
 1942SOL     OW 6505   0.012   5.052   0.196
 1942SOL    HW1 6506   5.221   5.057   0.167
 1942SOL    HW2 6507   0.017   4.967   0.242
 1943SOL     OW 6508   0.983   4.516   1.227
 1943SOL    HW1 6509   1.039   4.493   1.301
 1943SOL    HW2 6510   0.898   4.479   1.248
 1944SOL     OW 6511   0.032   4.278   1.115
 1944SOL    HW1 6512   0.121   4.262   1.083
 1944SOL    HW2 6513   0.037   4.266   1.209
 1945SOL     OW 6514   0.174   4.237   1.712
 1945SOL    HW1 6515   0.240   4.201   1.652
 1945SOL    HW2 6516   0.146   4.318   1.670
 1946SOL     OW 6517   1.377   4.663   1.658
 1946SOL    HW1 6518   1.397   4.756   1.656
 1946SOL    HW2 6519   1.373   4.636   1.566
 1947SOL     OW 6520   0.819   4.294   0.366
 1947SOL    HW1 6521   0.828   4.222   0.304
 1947SOL    HW2 6522   0.742   4.342   0.335
 1948SOL     OW 6523   1.642   4.325   1.186
 1948SOL    HW1 6524   1.632   4.266   1.261
 1948SOL    HW2 6525   1.729   4.305   1.152
 1949SOL     OW 6526   0.210   5.280   1.732
 1949SOL    HW1 6527   0.176   0.022   1.810
 1949SOL    HW2 6528   0.213   5.187   1.755
 1950SOL     OW 6529   0.701   4.174   1.260
 1950SOL    HW1 6530   0.648   4.100   1.230
 1950SOL    HW2 6531   0.697   4.237   1.188
 1951SOL     OW 6532   0.467   4.214   0.180
 1951SOL    HW1 6533   0.532   4.281   0.201
 1951SOL    HW2 6534   0.383   4.259   0.183
 1952SOL     OW 6535   0.151   4.861   1.472
 1952SOL    HW1 6536   0.147   4.812   1.554
 1952SOL    HW2 6537   0.161   4.794   1.404
 1953SOL     OW 6538   1.327   4.770   1.222
 1953SOL    HW1 6539   1.350   4.707   1.154
 1953SOL    HW2 6540   1.256   4.822   1.185
 1954SOL     OW 6541   1.307   4.573   0.307
 1954SOL    HW1 6542   1.230   4.545   0.357
 1954SOL    HW2 6543   1.281   4.561   0.216
 1955SOL     OW 6544   0.076   4.919   1.030
 1955SOL    HW1 6545   0.063   4.959   1.116
 1955SOL    HW2 6546   5.290   4.925   0.989
 1956SOL     OW 6547   0.752   0.038   1.709
 1956SOL    HW1 6548   0.659   0.061   1.718
 1956SOL    HW2 6549   0.773   0.060   1.618
 1957SOL     OW 6550   0.905   3.815   0.133
 1957SOL    HW1 6551   0.924   3.800   0.040
 1957SOL    HW2 6552   0.969   3.762   0.180
 1958SOL     OW 6553   1.719   3.869   0.510
 1958SOL    HW1 6554   1.791   3.853   0.449
 1958SOL    HW2 6555   1.703   3.784   0.552
 1959SOL     OW 6556   1.277   4.649   0.671
 1959SOL    HW1 6557   1.351   4.588   0.678
 1959SOL    HW2 6558   1.311   4.721   0.619
 1960SOL     OW 6559   0.819   4.993   1.421
 1960SOL    HW1 6560   0.788   5.029   1.504
 1960SOL    HW2 6561   0.743   5.001   1.362
 1961SOL     OW 6562   1.841   3.897   0.967
 1961SOL    HW1 6563   1.869   3.810   0.940
 1961SOL    HW2 6564   1.754   3.907   0.927
 1962SOL     OW 6565   0.270   4.040   0.716
 1962SOL    HW1 6566   0.188   4.085   0.697
 1962SOL    HW2 6567   0.270   4.030   0.812
 1963SOL     OW 6568   1.140   0.019   0.004
 1963SOL    HW1 6569   1.155   5.229   0.034
 1963SOL    HW2 6570   1.145   0.013   7.989
 1964SOL     OW 6571   0.825   4.728   1.371
 1964SOL    HW1 6572   0.870   4.721   1.286
 1964SOL    HW2 6573   0.828   4.821   1.393
 1965SOL     OW 6574   0.918   4.638   0.298
 1965SOL    HW1 6575   0.973   4.665   0.225
 1965SOL    HW2 6576   0.966   4.566   0.339
 1966SOL     OW 6577   0.366   5.029   1.499
 1966SOL    HW1 6578   0.365   5.099   1.434
 1966SOL    HW2 6579   0.291   4.973   1.476
 1967SOL     OW 6580   1.613   5.004   1.282
 1967SOL    HW1 6581   1.669   4.998   1.359
 1967SOL    HW2 6582   1.550   5.073   1.304
 1968SOL     OW 6583   1.054   4.833   0.712
 1968SOL    HW1 6584   0.982   4.782   0.748
 1968SOL    HW2 6585   1.115   4.768   0.677
 1969SOL     OW 6586   1.021   3.964   0.966
 1969SOL    HW1 6587   1.017   3.916   0.883
 1969SOL    HW2 6588   1.016   3.896   1.033
 1970SOL     OW 6589   1.722   4.116   1.380
 1970SOL    HW1 6590   1.793   4.179   1.379
 1970SOL    HW2 6591   1.751   4.045   1.324
 1971SOL     OW 6592   0.270   5.035   0.295
 1971SOL    HW1 6593   0.188   5.049   0.248
 1971SOL    HW2 6594   0.258   5.082   0.378
 1972SOL     OW 6595   0.116   4.742   1.719
 1972SOL    HW1 6596   0.044   4.704   1.771
 1972SOL    HW2 6597   0.195   4.709   1.761
 1973SOL     OW 6598   0.674   3.920   1.499
 1973SOL    HW1 6599   0.758   3.900   1.458
 1973SOL    HW2 6600   0.697   3.952   1.587
 1974SOL     OW 6601   0.042   4.116   0.027
 1974SOL    HW1 6602   0.019   4.029   0.061
 1974SOL    HW2 6603   0.123   4.102   8.058
 1975SOL     OW 6604   1.430   4.582   1.400
 1975SOL    HW1 6605   1.381   4.642   1.344
 1975SOL    HW2 6606   1.519   4.584   1.366
 1976SOL     OW 6607   0.052   3.859   0.217
 1976SOL    HW1 6608   0.053   3.946   0.257
 1976SOL    HW2 6609   0.144   3.836   0.207
 1977SOL     OW 6610   1.182   5.064   0.112
 1977SOL    HW1 6611   1.087   5.049   0.111
 1977SOL    HW2 6612   1.205   5.060   0.205
 1978SOL     OW 6613   0.619   4.555   1.435
 1978SOL    HW1 6614   0.676   4.630   1.419
 1978SOL    HW2 6615   0.680   4.481   1.443
 1979SOL     OW 6616   0.717   4.288   1.705
 1979SOL    HW1 6617   0.758   4.351   1.765
 1979SOL    HW2 6618   0.746   4.202   1.736
 1980SOL     OW 6619   1.473   4.923   1.631
 1980SOL    HW1 6620   1.460   4.936   1.725
 1980SOL    HW2 6621   1.567   4.937   1.618
 1981SOL     OW 6622   1.670   4.605   1.255
 1981SOL    HW1 6623   1.663   4.520   1.212
 1981SOL    HW2 6624   1.660   4.669   1.184
 1982SOL     OW 6625   1.217   4.042   0.459
 1982SOL    HW1 6626   1.282   3.972   0.453
 1982SOL    HW2 6627   1.245   4.093   0.536
 1983SOL     OW 6628   0.589   4.460   0.668
 1983SOL    HW1 6629   0.628   4.547   0.656
 1983SOL    HW2 6630   0.519   4.456   0.604
 1984SOL     OW 6631   1.763   4.085   1.650
 1984SOL    HW1 6632   1.745   4.100   1.557
 1984SOL    HW2 6633   1.691   4.029   1.679
 1985SOL     OW 6634   1.745   4.657   1.512
 1985SOL    HW1 6635   1.741   4.752   1.525
 1985SOL    HW2 6636   1.729   4.645   1.418
 1986SOL     OW 6637   0.908   5.095   0.035
 1986SOL    HW1 6638   0.850   5.078   0.108
 1986SOL    HW2 6639   0.862   5.160   8.062
 1987SOL     OW 6640   0.868   4.691   0.855
 1987SOL    HW1 6641   0.917   4.620   0.896
 1987SOL    HW2 6642   0.833   4.741   0.929
 1988SOL     OW 6643   1.079   4.702   0.088
 1988SOL    HW1 6644   1.061   4.758   0.013
 1988SOL    HW2 6645   1.156   4.651   0.062
 1989SOL     OW 6646   0.220   5.025   1.854
 1989SOL    HW1 6647   0.155   4.957   1.835
 1989SOL    HW2 6648   0.216   5.035   1.950
 1990SOL     OW 6649   0.081   4.929   0.656
 1990SOL    HW1 6650   0.104   4.905   0.746
 1990SOL    HW2 6651   0.166   4.944   0.614
 1991SOL     OW 6652   0.671   5.106   1.609
 1991SOL    HW1 6653   0.594   5.073   1.656
 1991SOL    HW2 6654   0.702   5.179   1.663
 1992SOL     OW 6655   1.813   3.908   1.238
 1992SOL    HW1 6656   1.823   3.814   1.252
 1992SOL    HW2 6657   1.822   3.919   1.143
 1993SOL     OW 6658   0.433   4.163   0.523
 1993SOL    HW1 6659   0.462   4.090   0.469
 1993SOL    HW2 6660   0.386   4.121   0.596
 1994SOL     OW 6661   1.707   5.223   1.119
 1994SOL    HW1 6662   1.633   5.207   1.060
 1994SOL    HW2 6663   1.713   5.144   1.172
 1995SOL     OW 6664   0.336   4.283   1.291
 1995SOL    HW1 6665   0.389   4.224   1.345
 1995SOL    HW2 6666   0.350   4.253   1.202
 1996SOL     OW 6667   1.432   3.949   1.118
 1996SOL    HW1 6668   1.457   3.869   1.165
 1996SOL    HW2 6669   1.380   3.998   1.181
 1997SOL     OW 6670   1.009   3.743   1.142
 1997SOL    HW1 6671   0.954   3.675   1.103
 1997SOL    HW2 6672   1.097   3.705   1.144
 1998SOL     OW 6673   0.797   5.039   0.281
 1998SOL    HW1 6674   0.740   4.967   0.308
 1998SOL    HW2 6675   0.853   5.055   0.358
 1999SOL     OW 6676   0.639   0.002   1.287
 1999SOL    HW1 6677   0.644   0.057   1.365
 1999SOL    HW2 6678   0.731   5.285   1.265
 2000SOL     OW 6679   1.356   3.779   0.184
 2000SOL    HW1 6680   1.378   3.730   0.104
 2000SOL    HW2 6681   1.270   3.745   0.210
 2001SOL     OW 6682   1.297   4.185   0.681
 2001SOL    HW1 6683   1.243   4.264   0.688
 2001SOL    HW2 6684   1.292   4.145   0.768
 2002SOL     OW 6685   1.586   3.926   0.878
 2002SOL    HW1 6686   1.526   3.946   0.949
 2002SOL    HW2 6687   1.586   4.004   0.823
 2003SOL     OW 6688   0.041   4.801   0.306
 2003SOL    HW1 6689   0.133   4.776   0.293
 2003SOL    HW2 6690   5.296   4.719   0.323
 2004SOL     OW 6691   0.234   4.356   1.978
 2004SOL    HW1 6692   0.160   4.324   2.029
 2004SOL    HW2 6693   0.218   4.321   1.890
 2005SOL     OW 6694   0.242   3.999   2.852
 2005SOL    HW1 6695   0.256   3.965   2.940
 2005SOL    HW2 6696   0.158   3.963   2.824
 2006SOL     OW 6697   5.298   4.122   2.515
 2006SOL    HW1 6698   5.205   4.144   2.521
 2006SOL    HW2 6699   5.299   4.031   2.484
 2007SOL     OW 6700   0.573   5.000   3.045
 2007SOL    HW1 6701   0.494   5.006   2.992
 2007SOL    HW2 6702   0.592   5.090   3.072
 2008SOL     OW 6703   1.555   5.232   2.551
 2008SOL    HW1 6704   1.535   5.228   2.644
 2008SOL    HW2 6705   1.476   5.267   2.511
 2009SOL     OW 6706   1.130   4.422   2.563
 2009SOL    HW1 6707   1.179   4.503   2.549
 2009SOL    HW2 6708   1.083   4.436   2.645
 2010SOL     OW 6709   1.767   4.329   2.091
 2010SOL    HW1 6710   1.746   4.322   1.998
 2010SOL    HW2 6711   1.731   4.250   2.130
 2011SOL     OW 6712   0.759   4.868   2.899
 2011SOL    HW1 6713   0.691   4.897   2.960
 2011SOL    HW2 6714   0.786   4.947   2.854
 2012SOL     OW 6715   0.867   4.499   3.684
 2012SOL    HW1 6716   0.855   4.571   3.746
 2012SOL    HW2 6717   0.890   4.542   3.602
 2013SOL     OW 6718   0.686   4.727   2.510
 2013SOL    HW1 6719   0.751   4.715   2.579
 2013SOL    HW2 6720   0.618   4.781   2.550
 2014SOL     OW 6721   0.708   4.872   3.674
 2014SOL    HW1 6722   0.756   4.951   3.698
 2014SOL    HW2 6723   0.625   4.904   3.639
 2015SOL     OW 6724   0.376   5.145   2.915
 2015SOL    HW1 6725   0.282   5.154   2.903
 2015SOL    HW2 6726   0.415   5.199   2.846
 2016SOL     OW 6727   1.455   5.220   3.209
 2016SOL    HW1 6728   1.509   5.293   3.241
 2016SOL    HW2 6729   1.388   5.209   3.277
 2017SOL     OW 6730   0.450   4.124   3.355
 2017SOL    HW1 6731   0.524   4.063   3.356
 2017SOL    HW2 6732   0.373   4.068   3.364
 2018SOL     OW 6733   1.612   4.172   2.602
 2018SOL    HW1 6734   1.537   4.195   2.548
 2018SOL    HW2 6735   1.627   4.250   2.656
 2019SOL     OW 6736   1.133   5.072   3.563
 2019SOL    HW1 6737   1.164   5.073   3.653
 2019SOL    HW2 6738   1.080   4.993   3.556
 2020SOL     OW 6739   0.212   5.151   2.394
 2020SOL    HW1 6740   0.251   5.231   2.429
 2020SOL    HW2 6741   0.133   5.138   2.446
 2021SOL     OW 6742   0.252   4.799   2.738
 2021SOL    HW1 6743   0.264   4.713   2.777
 2021SOL    HW2 6744   0.196   4.846   2.799
 2022SOL     OW 6745   0.583   4.706   1.997
 2022SOL    HW1 6746   0.630   4.754   1.928
 2022SOL    HW2 6747   0.624   4.735   2.078
 2023SOL     OW 6748   1.596   3.847   3.330
 2023SOL    HW1 6749   1.603   3.928   3.279
 2023SOL    HW2 6750   1.582   3.876   3.420
 2024SOL     OW 6751   0.127   4.356   2.440
 2024SOL    HW1 6752   0.088   4.274   2.471
 2024SOL    HW2 6753   0.099   4.421   2.505
 2025SOL     OW 6754   5.299   5.300   1.944
 2025SOL    HW1 6755   0.015   5.212   1.978
 2025SOL    HW2 6756   0.026   0.058   2.015
 2026SOL     OW 6757   1.689   4.642   2.502
 2026SOL    HW1 6758   1.772   4.600   2.482
 2026SOL    HW2 6759   1.667   4.693   2.424
 2027SOL     OW 6760   1.645   4.831   2.291
 2027SOL    HW1 6761   1.731   4.836   2.249
 2027SOL    HW2 6762   1.652   4.892   2.365
 2028SOL     OW 6763   0.131   4.472   3.448
 2028SOL    HW1 6764   0.225   4.486   3.450
 2028SOL    HW2 6765   0.093   4.559   3.461
 2029SOL     OW 6766   0.626   5.096   2.597
 2029SOL    HW1 6767   0.569   5.019   2.597
 2029SOL    HW2 6768   0.601   5.145   2.519
 2030SOL     OW 6769   1.289   4.955   3.288
 2030SOL    HW1 6770   1.323   4.889   3.227
 2030SOL    HW2 6771   1.349   4.952   3.362
 2031SOL     OW 6772   0.822   3.723   2.371
 2031SOL    HW1 6773   0.862   3.808   2.352
 2031SOL    HW2 6774   0.729   3.742   2.378
 2032SOL     OW 6775   0.177   4.668   3.144
 2032SOL    HW1 6776   0.267   4.637   3.130
 2032SOL    HW2 6777   0.134   4.654   3.059
 2033SOL     OW 6778   1.531   4.719   2.059
 2033SOL    HW1 6779   1.461   4.661   2.091
 2033SOL    HW2 6780   1.572   4.753   2.139
 2034SOL     OW 6781   0.336   3.977   3.679
 2034SOL    HW1 6782   0.383   4.059   3.691
 2034SOL    HW2 6783   0.249   3.994   3.714
 2035SOL     OW 6784   1.476   5.147   2.824
 2035SOL    HW1 6785   1.404   5.159   2.885
 2035SOL    HW2 6786   1.464   5.058   2.790
 2036SOL     OW 6787   0.596   4.445   2.128
 2036SOL    HW1 6788   0.603   4.526   2.077
 2036SOL    HW2 6789   0.531   4.465   2.196
 2037SOL     OW 6790   1.279   4.076   2.794
 2037SOL    HW1 6791   1.190   4.043   2.803
 2037SOL    HW2 6792   1.330   4.023   2.856
 2038SOL     OW 6793   0.792   4.341   3.313
 2038SOL    HW1 6794   0.765   4.318   3.402
 2038SOL    HW2 6795   0.752   4.275   3.258
 2039SOL     OW 6796   1.394   4.198   3.540
 2039SOL    HW1 6797   1.396   4.242   3.625
 2039SOL    HW2 6798   1.455   4.125   3.549
 2040SOL     OW 6799   0.955   4.612   3.445
 2040SOL    HW1 6800   1.009   4.541   3.409
 2040SOL    HW2 6801   0.907   4.645   3.369
 2041SOL     OW 6802   0.992   4.137   3.101
 2041SOL    HW1 6803   0.906   4.158   3.138
 2041SOL    HW2 6804   0.972   4.090   3.020
 2042SOL     OW 6805   1.051   4.422   2.288
 2042SOL    HW1 6806   1.066   4.415   2.382
 2042SOL    HW2 6807   0.968   4.376   2.274
 2043SOL     OW 6808   0.073   4.510   2.672
 2043SOL    HW1 6809   0.154   4.515   2.723
 2043SOL    HW2 6810   0.061   4.598   2.636
 2044SOL     OW 6811   0.893   4.072   2.056
 2044SOL    HW1 6812   0.933   4.134   1.995
 2044SOL    HW2 6813   0.908   3.987   2.017
 2045SOL     OW 6814   1.709   4.299   3.690
 2045SOL    HW1 6815   1.671   4.373   3.642
 2045SOL    HW2 6816   1.736   4.237   3.623
 2046SOL     OW 6817   1.377   4.864   2.401
 2046SOL    HW1 6818   1.458   4.850   2.353
 2046SOL    HW2 6819   1.327   4.925   2.348
 2047SOL     OW 6820   0.556   3.907   2.755
 2047SOL    HW1 6821   0.553   3.935   2.847
 2047SOL    HW2 6822   0.551   3.989   2.705
 2048SOL     OW 6823   1.023   5.169   2.332
 2048SOL    HW1 6824   0.946   5.225   2.327
 2048SOL    HW2 6825   1.038   5.157   2.426
 2049SOL     OW 6826   1.800   4.781   2.728
 2049SOL    HW1 6827   1.743   4.764   2.653
 2049SOL    HW2 6828   1.740   4.788   2.803
 2050SOL     OW 6829   1.250   5.240   3.386
 2050SOL    HW1 6830   1.214   5.173   3.445
 2050SOL    HW2 6831   1.179   5.259   3.325
 2051SOL     OW 6832   0.316   4.676   2.109
 2051SOL    HW1 6833   0.398   4.699   2.065
 2051SOL    HW2 6834   0.293   4.591   2.073
 2052SOL     OW 6835   1.478   4.466   2.589
 2052SOL    HW1 6836   1.469   4.423   2.674
 2052SOL    HW2 6837   1.556   4.521   2.598
 2053SOL     OW 6838   0.463   4.989   3.604
 2053SOL    HW1 6839   0.437   4.992   3.512
 2053SOL    HW2 6840   0.380   4.988   3.652
 2054SOL     OW 6841   1.068   0.180   2.069
 2054SOL    HW1 6842   1.080   0.106   2.129
 2054SOL    HW2 6843   1.104   0.149   1.986
 2055SOL     OW 6844   0.205   4.004   3.359
 2055SOL    HW1 6845   0.126   4.056   3.343
 2055SOL    HW2 6846   0.174   3.925   3.403
 2056SOL     OW 6847   1.623   5.101   1.969
 2056SOL    HW1 6848   1.620   5.177   1.912
 2056SOL    HW2 6849   1.555   5.042   1.936
 2057SOL     OW 6850   1.401   3.831   2.295
 2057SOL    HW1 6851   1.391   3.807   2.203
 2057SOL    HW2 6852   1.496   3.838   2.307
 2058SOL     OW 6853   0.386   4.420   2.341
 2058SOL    HW1 6854   0.415   4.329   2.350
 2058SOL    HW2 6855   0.293   4.417   2.361
 2059SOL     OW 6856   1.535   3.949   3.587
 2059SOL    HW1 6857   1.545   3.970   3.680
 2059SOL    HW2 6858   1.466   3.882   3.585
 2060SOL     OW 6859   0.633   3.847   1.967
 2060SOL    HW1 6860   0.704   3.783   1.979
 2060SOL    HW2 6861   0.585   3.815   1.891
 2061SOL     OW 6862   0.767   4.002   3.616
 2061SOL    HW1 6863   0.842   3.943   3.617
 2061SOL    HW2 6864   0.718   3.980   3.695
 2062SOL     OW 6865   1.340   4.313   3.294
 2062SOL    HW1 6866   1.371   4.281   3.379
 2062SOL    HW2 6867   1.377   4.401   3.286
 2063SOL     OW 6868   0.813   5.120   2.798
 2063SOL    HW1 6869   0.894   5.105   2.748
 2063SOL    HW2 6870   0.745   5.126   2.731
 2064SOL     OW 6871   0.928   4.234   2.765
 2064SOL    HW1 6872   0.904   4.225   2.673
 2064SOL    HW2 6873   0.959   4.146   2.790
 2065SOL     OW 6874   0.560   3.785   2.358
 2065SOL    HW1 6875   0.485   3.785   2.418
 2065SOL    HW2 6876   0.549   3.865   2.306
 2066SOL     OW 6877   1.428   4.924   1.901
 2066SOL    HW1 6878   1.458   4.848   1.951
 2066SOL    HW2 6879   1.340   4.941   1.934
 2067SOL     OW 6880   0.305   3.771   2.041
 2067SOL    HW1 6881   0.367   3.835   2.006
 2067SOL    HW2 6882   0.360   3.706   2.086
 2068SOL     OW 6883   0.939   3.971   2.322
 2068SOL    HW1 6884   0.912   4.012   2.240
 2068SOL    HW2 6885   1.034   3.985   2.326
 2069SOL     OW 6886   1.080   4.405   3.322
 2069SOL    HW1 6887   1.011   4.338   3.326
 2069SOL    HW2 6888   1.161   4.354   3.315
 2070SOL     OW 6889   1.264   5.267   2.640
 2070SOL    HW1 6890   1.221   0.048   2.613
 2070SOL    HW2 6891   1.308   5.289   2.722
 2071SOL     OW 6892   0.465   4.873   2.591
 2071SOL    HW1 6893   0.397   4.853   2.655
 2071SOL    HW2 6894   0.425   4.853   2.506
 2072SOL     OW 6895   1.023   4.266   1.885
 2072SOL    HW1 6896   0.981   4.349   1.864
 2072SOL    HW2 6897   1.089   4.288   1.951
 2073SOL     OW 6898   0.087   4.269   3.260
 2073SOL    HW1 6899   0.175   4.277   3.223
 2073SOL    HW2 6900   0.079   4.345   3.317
 2074SOL     OW 6901   0.560   3.952   3.028
 2074SOL    HW1 6902   0.598   3.872   3.065
 2074SOL    HW2 6903   0.469   3.950   3.056
 2075SOL     OW 6904   0.868   4.183   2.502
 2075SOL    HW1 6905   0.822   4.237   2.438
 2075SOL    HW2 6906   0.889   4.103   2.454
 2076SOL     OW 6907   1.016   3.777   2.613
 2076SOL    HW1 6908   0.957   3.769   2.538
 2076SOL    HW2 6909   0.994   3.702   2.668
 2077SOL     OW 6910   1.437   4.890   2.721
 2077SOL    HW1 6911   1.371   4.821   2.717
 2077SOL    HW2 6912   1.463   4.903   2.629
 2078SOL     OW 6913   1.466   4.329   2.839
 2078SOL    HW1 6914   1.416   4.248   2.842
 2078SOL    HW2 6915   1.526   4.323   2.914
 2079SOL     OW 6916   1.846   4.540   2.245
 2079SOL    HW1 6917   1.902   4.489   2.303
 2079SOL    HW2 6918   1.817   4.478   2.178
 2080SOL     OW 6919   0.483   5.144   2.016
 2080SOL    HW1 6920   0.420   5.094   2.068
 2080SOL    HW2 6921   0.482   5.102   1.929
 2081SOL     OW 6922   1.669   4.987   2.509
 2081SOL    HW1 6923   1.763   4.993   2.526
 2081SOL    HW2 6924   1.636   5.075   2.525
 2082SOL     OW 6925   1.394   4.296   1.933
 2082SOL    HW1 6926   1.333   4.276   2.005
 2082SOL    HW2 6927   1.478   4.263   1.964
 2083SOL     OW 6928   0.524   3.987   2.179
 2083SOL    HW1 6929   0.569   3.940   2.109
 2083SOL    HW2 6930   0.502   4.072   2.141
 2084SOL     OW 6931   1.751   4.960   3.438
 2084SOL    HW1 6932   1.837   4.918   3.438
 2084SOL    HW2 6933   1.770   5.053   3.451
 2085SOL     OW 6934   1.064   5.075   3.193
 2085SOL    HW1 6935   0.986   5.049   3.242
 2085SOL    HW2 6936   1.137   5.035   3.242
 2086SOL     OW 6937   1.126   4.926   2.970
 2086SOL    HW1 6938   1.075   4.967   3.040
 2086SOL    HW2 6939   1.081   4.951   2.889
 2087SOL     OW 6940   1.629   4.822   2.939
 2087SOL    HW1 6941   1.624   4.884   3.012
 2087SOL    HW2 6942   1.550   4.841   2.887
 2088SOL     OW 6943   0.919   3.821   3.259
 2088SOL    HW1 6944   0.941   3.802   3.168
 2088SOL    HW2 6945   0.998   3.860   3.295
 2089SOL     OW 6946   0.984   4.839   3.587
 2089SOL    HW1 6947   0.892   4.855   3.605
 2089SOL    HW2 6948   0.985   4.762   3.529
 2090SOL     OW 6949   0.703   4.781   2.235
 2090SOL    HW1 6950   0.693   4.766   2.329
 2090SOL    HW2 6951   0.781   4.731   2.211
 2091SOL     OW 6952   0.421   4.542   3.113
 2091SOL    HW1 6953   0.490   4.549   3.180
 2091SOL    HW2 6954   0.386   4.454   3.124
 2092SOL     OW 6955   1.265   4.101   3.137
 2092SOL    HW1 6956   1.298   4.178   3.183
 2092SOL    HW2 6957   1.175   4.123   3.114
 2093SOL     OW 6958   0.113   5.289   3.181
 2093SOL    HW1 6959   0.052   0.048   3.225
 2093SOL    HW2 6960   0.190   5.288   3.238
 2094SOL     OW 6961   0.344   4.828   2.349
 2094SOL    HW1 6962   0.350   4.907   2.295
 2094SOL    HW2 6963   0.351   4.755   2.287
 2095SOL     OW 6964   0.555   4.260   2.721
 2095SOL    HW1 6965   0.570   4.319   2.647
 2095SOL    HW2 6966   0.619   4.287   2.787
 2096SOL     OW 6967   1.260   5.077   2.247
 2096SOL    HW1 6968   1.316   5.144   2.286
 2096SOL    HW2 6969   1.172   5.099   2.277
 2097SOL     OW 6970   1.269   5.182   3.003
 2097SOL    HW1 6971   1.328   5.195   3.077
 2097SOL    HW2 6972   1.225   5.099   3.022
 2098SOL     OW 6973   1.582   4.347   2.341
 2098SOL    HW1 6974   1.535   4.401   2.405
 2098SOL    HW2 6975   1.627   4.410   2.285
 2099SOL     OW 6976   0.381   5.232   3.177
 2099SOL    HW1 6977   0.364   5.193   3.092
 2099SOL    HW2 6978   0.474   5.256   3.174
 2100SOL     OW 6979   0.414   4.467   3.464
 2100SOL    HW1 6980   0.475   4.512   3.406
 2100SOL    HW2 6981   0.453   4.380   3.477
 2101SOL     OW 6982   1.601   4.503   3.544
 2101SOL    HW1 6983   1.515   4.544   3.537
 2101SOL    HW2 6984   1.653   4.545   3.475
 2102SOL     OW 6985   0.996   3.847   3.617
 2102SOL    HW1 6986   1.051   3.919   3.589
 2102SOL    HW2 6987   1.044   3.768   3.592
 2103SOL     OW 6988   0.497   3.766   3.610
 2103SOL    HW1 6989   0.455   3.711   3.543
 2103SOL    HW2 6990   0.437   3.839   3.622
 2104SOL     OW 6991   0.586   4.597   2.894
 2104SOL    HW1 6992   0.614   4.688   2.892
 2104SOL    HW2 6993   0.529   4.591   2.971
 2105SOL     OW 6994   1.358   4.582   2.891
 2105SOL    HW1 6995   1.274   4.572   2.845
 2105SOL    HW2 6996   1.398   4.496   2.886
 2106SOL     OW 6997   1.205   4.253   2.129
 2106SOL    HW1 6998   1.213   4.174   2.183
 2106SOL    HW2 6999   1.162   4.317   2.185
 2107SOL     OW 7000   0.302   3.927   3.110
 2107SOL    HW1 7001   0.267   3.952   3.196
 2107SOL    HW2 7002   0.289   3.832   3.105
 2108SOL     OW 7003   0.044   5.022   3.139
 2108SOL    HW1 7004   0.074   4.972   3.214
 2108SOL    HW2 7005   0.045   5.113   3.168
 2109SOL     OW 7006   0.725   4.355   2.920
 2109SOL    HW1 7007   0.799   4.339   2.862
 2109SOL    HW2 7008   0.696   4.444   2.899
 2110SOL     OW 7009   1.734   4.684   3.714
 2110SOL    HW1 7010   1.689   4.622   3.657
 2110SOL    HW2 7011   1.675   4.697   3.788
 2111SOL     OW 7012   0.327   3.786   2.496
 2111SOL    HW1 7013   0.307   3.875   2.524
 2111SOL    HW2 7014   0.331   3.736   2.578
 2112SOL     OW 7015   1.616   4.098   2.229
 2112SOL    HW1 7016   1.643   4.034   2.295
 2112SOL    HW2 7017   1.593   4.176   2.279
 2113SOL     OW 7018   1.028   4.483   2.823
 2113SOL    HW1 7019   1.024   4.501   2.917
 2113SOL    HW2 7020   1.001   4.392   2.814
 2114SOL     OW 7021   1.854   5.214   3.447
 2114SOL    HW1 7022   1.849   5.289   3.388
 2114SOL    HW2 7023   1.924   5.237   3.509
 2115SOL     OW 7024   0.354   4.643   3.668
 2115SOL    HW1 7025   0.435   4.660   3.716
 2115SOL    HW2 7026   0.379   4.577   3.602
 2116SOL     OW 7027   1.529   3.997   1.989
 2116SOL    HW1 7028   1.464   3.932   2.016
 2116SOL    HW2 7029   1.562   4.033   2.072
 2117SOL     OW 7030   1.292   4.550   1.893
 2117SOL    HW1 7031   1.335   4.465   1.897
 2117SOL    HW2 7032   1.323   4.589   1.811
 2118SOL     OW 7033   1.058   5.078   2.688
 2118SOL    HW1 7034   1.063   4.993   2.645
 2118SOL    HW2 7035   1.145   5.117   2.675
 2119SOL     OW 7036   0.315   4.533   2.811
 2119SOL    HW1 7037   0.409   4.551   2.808
 2119SOL    HW2 7038   0.308   4.443   2.844
 2120SOL     OW 7039   0.335   4.249   2.877
 2120SOL    HW1 7040   0.300   4.162   2.863
 2120SOL    HW2 7041   0.410   4.255   2.817
 2121SOL     OW 7042   1.134   4.100   3.544
 2121SOL    HW1 7043   1.087   4.155   3.606
 2121SOL    HW2 7044   1.222   4.138   3.540
 2122SOL     OW 7045   1.161   3.927   3.332
 2122SOL    HW1 7046   1.150   3.990   3.403
 2122SOL    HW2 7047   1.200   3.978   3.261
 2123SOL     OW 7048   0.002   5.048   2.069
 2123SOL    HW1 7049   5.226   5.037   2.013
 2123SOL    HW2 7050   0.014   4.963   2.112
 2124SOL     OW 7051   0.983   4.516   3.089
 2124SOL    HW1 7052   1.039   4.493   3.163
 2124SOL    HW2 7053   0.898   4.478   3.110
 2125SOL     OW 7054   0.033   4.283   2.977
 2125SOL    HW1 7055   0.119   4.260   2.944
 2125SOL    HW2 7056   0.037   4.267   3.071
 2126SOL     OW 7057   0.175   4.237   3.574
 2126SOL    HW1 7058   0.240   4.200   3.514
 2126SOL    HW2 7059   0.146   4.318   3.532
 2127SOL     OW 7060   1.376   4.663   3.520
 2127SOL    HW1 7061   1.397   4.756   3.518
 2127SOL    HW2 7062   1.373   4.636   3.428
 2128SOL     OW 7063   0.816   4.293   2.221
 2128SOL    HW1 7064   0.820   4.218   2.162
 2128SOL    HW2 7065   0.742   4.345   2.190
 2129SOL     OW 7066   1.642   4.325   3.048
 2129SOL    HW1 7067   1.632   4.266   3.123
 2129SOL    HW2 7068   1.729   4.305   3.014
 2130SOL     OW 7069   0.210   5.279   3.594
 2130SOL    HW1 7070   0.176   0.023   3.672
 2130SOL    HW2 7071   0.213   5.187   3.617
 2131SOL     OW 7072   0.701   4.174   3.122
 2131SOL    HW1 7073   0.648   4.100   3.092
 2131SOL    HW2 7074   0.697   4.237   3.050
 2132SOL     OW 7075   0.465   4.217   2.048
 2132SOL    HW1 7076   0.525   4.289   2.069
 2132SOL    HW2 7077   0.380   4.259   2.035
 2133SOL     OW 7078   0.151   4.861   3.334
 2133SOL    HW1 7079   0.147   4.812   3.416
 2133SOL    HW2 7080   0.161   4.794   3.266
 2134SOL     OW 7081   1.327   4.770   3.084
 2134SOL    HW1 7082   1.350   4.707   3.016
 2134SOL    HW2 7083   1.256   4.822   3.047
 2135SOL     OW 7084   1.310   4.582   2.168
 2135SOL    HW1 7085   1.235   4.550   2.218
 2135SOL    HW2 7086   1.286   4.567   2.077
 2136SOL     OW 7087   0.076   4.919   2.892
 2136SOL    HW1 7088   0.065   4.959   2.978
 2136SOL    HW2 7089   5.289   4.924   2.852
 2137SOL     OW 7090   0.752   0.038   3.571
 2137SOL    HW1 7091   0.659   0.061   3.580
 2137SOL    HW2 7092   0.773   0.060   3.480
 2138SOL     OW 7093   1.719   3.870   2.372
 2138SOL    HW1 7094   1.792   3.856   2.311
 2138SOL    HW2 7095   1.704   3.785   2.412
 2139SOL     OW 7096   1.277   4.650   2.534
 2139SOL    HW1 7097   1.350   4.588   2.541
 2139SOL    HW2 7098   1.311   4.721   2.481
 2140SOL     OW 7099   0.819   4.993   3.283
 2140SOL    HW1 7100   0.788   5.030   3.366
 2140SOL    HW2 7101   0.743   5.001   3.224
 2141SOL     OW 7102   1.841   3.896   2.829
 2141SOL    HW1 7103   1.869   3.809   2.801
 2141SOL    HW2 7104   1.754   3.907   2.789
 2142SOL     OW 7105   0.273   4.041   2.579
 2142SOL    HW1 7106   0.188   4.080   2.559
 2142SOL    HW2 7107   0.271   4.029   2.674
 2143SOL     OW 7108   0.825   4.728   3.233
 2143SOL    HW1 7109   0.870   4.721   3.149
 2143SOL    HW2 7110   0.828   4.821   3.255
 2144SOL     OW 7111   0.915   4.636   2.152
 2144SOL    HW1 7112   0.977   4.668   2.086
 2144SOL    HW2 7113   0.963   4.566   2.197
 2145SOL     OW 7114   0.366   5.028   3.362
 2145SOL    HW1 7115   0.365   5.098   3.296
 2145SOL    HW2 7116   0.291   4.973   3.338
 2146SOL     OW 7117   1.612   5.004   3.144
 2146SOL    HW1 7118   1.669   4.998   3.221
 2146SOL    HW2 7119   1.550   5.073   3.166
 2147SOL     OW 7120   1.054   4.833   2.573
 2147SOL    HW1 7121   0.982   4.782   2.610
 2147SOL    HW2 7122   1.116   4.768   2.540
 2148SOL     OW 7123   1.021   3.964   2.828
 2148SOL    HW1 7124   1.016   3.917   2.745
 2148SOL    HW2 7125   1.016   3.897   2.895
 2149SOL     OW 7126   1.721   4.116   3.242
 2149SOL    HW1 7127   1.793   4.180   3.241
 2149SOL    HW2 7128   1.752   4.045   3.186
 2150SOL     OW 7129   0.259   5.059   2.148
 2150SOL    HW1 7130   0.167   5.063   2.124
 2150SOL    HW2 7131   0.262   5.097   2.236
 2151SOL     OW 7132   0.116   4.742   3.581
 2151SOL    HW1 7133   0.045   4.704   3.633
 2151SOL    HW2 7134   0.196   4.709   3.623
 2152SOL     OW 7135   0.674   3.920   3.361
 2152SOL    HW1 7136   0.758   3.900   3.320
 2152SOL    HW2 7137   0.697   3.952   3.449
 2153SOL     OW 7138   0.082   4.073   1.903
 2153SOL    HW1 7139   0.002   4.026   1.880
 2153SOL    HW2 7140   0.098   4.131   1.828
 2154SOL     OW 7141   1.430   4.582   3.262
 2154SOL    HW1 7142   1.381   4.643   3.206
 2154SOL    HW2 7143   1.519   4.584   3.228
 2155SOL     OW 7144   0.056   3.857   2.105
 2155SOL    HW1 7145   0.055   3.952   2.097
 2155SOL    HW2 7146   0.146   3.832   2.083
 2156SOL     OW 7147   1.182   5.064   1.983
 2156SOL    HW1 7148   1.091   5.035   1.983
 2156SOL    HW2 7149   1.210   5.056   2.074
 2157SOL     OW 7150   0.619   4.555   3.297
 2157SOL    HW1 7151   0.676   4.630   3.281
 2157SOL    HW2 7152   0.679   4.481   3.305
 2158SOL     OW 7153   0.717   4.288   3.567
 2158SOL    HW1 7154   0.758   4.350   3.627
 2158SOL    HW2 7155   0.745   4.202   3.598
 2159SOL     OW 7156   1.473   4.923   3.493
 2159SOL    HW1 7157   1.460   4.936   3.587
 2159SOL    HW2 7158   1.567   4.937   3.480
 2160SOL     OW 7159   1.670   4.605   3.117
 2160SOL    HW1 7160   1.663   4.520   3.074
 2160SOL    HW2 7161   1.660   4.669   3.046
 2161SOL     OW 7162   1.217   4.043   2.320
 2161SOL    HW1 7163   1.280   3.972   2.311
 2161SOL    HW2 7164   1.246   4.092   2.397
 2162SOL     OW 7165   0.591   4.462   2.531
 2162SOL    HW1 7166   0.629   4.548   2.516
 2162SOL    HW2 7167   0.521   4.454   2.466
 2163SOL     OW 7168   1.761   4.088   3.513
 2163SOL    HW1 7169   1.745   4.101   3.420
 2163SOL    HW2 7170   1.691   4.029   3.541
 2164SOL     OW 7171   1.745   4.658   3.374
 2164SOL    HW1 7172   1.741   4.752   3.387
 2164SOL    HW2 7173   1.729   4.645   3.280
 2165SOL     OW 7174   0.849   5.094   1.881
 2165SOL    HW1 7175   0.830   5.095   1.975
 2165SOL    HW2 7176   0.866   5.186   1.860
 2166SOL     OW 7177   0.868   4.691   2.717
 2166SOL    HW1 7178   0.917   4.620   2.757
 2166SOL    HW2 7179   0.833   4.741   2.790
 2167SOL     OW 7180   1.080   4.713   1.952
 2167SOL    HW1 7181   1.057   4.763   1.873
 2167SOL    HW2 7182   1.154   4.659   1.925
 2168SOL     OW 7183   0.220   5.025   3.716
 2168SOL    HW1 7184   0.155   4.957   3.697
 2168SOL    HW2 7185   0.216   5.035   3.811
 2169SOL     OW 7186   0.082   4.929   2.517
 2169SOL    HW1 7187   0.101   4.908   2.609
 2169SOL    HW2 7188   0.168   4.940   2.477
 2170SOL     OW 7189   0.671   5.106   3.471
 2170SOL    HW1 7190   0.594   5.073   3.518
 2170SOL    HW2 7191   0.702   5.179   3.525
 2171SOL     OW 7192   1.813   3.909   3.100
 2171SOL    HW1 7193   1.823   3.815   3.115
 2171SOL    HW2 7194   1.822   3.919   3.005
 2172SOL     OW 7195   0.435   4.160   2.386
 2172SOL    HW1 7196   0.462   4.087   2.330
 2172SOL    HW2 7197   0.387   4.118   2.458
 2173SOL     OW 7198   1.707   5.224   2.981
 2173SOL    HW1 7199   1.633   5.207   2.922
 2173SOL    HW2 7200   1.714   5.144   3.034
 2174SOL     OW 7201   0.336   4.283   3.153
 2174SOL    HW1 7202   0.389   4.224   3.207
 2174SOL    HW2 7203   0.350   4.253   3.063
 2175SOL     OW 7204   1.432   3.949   2.980
 2175SOL    HW1 7205   1.457   3.869   3.027
 2175SOL    HW2 7206   1.380   3.999   3.043
 2176SOL     OW 7207   1.009   3.743   3.004
 2176SOL    HW1 7208   0.954   3.675   2.965
 2176SOL    HW2 7209   1.097   3.705   3.007
 2177SOL     OW 7210   0.804   5.047   2.146
 2177SOL    HW1 7211   0.742   4.976   2.165
 2177SOL    HW2 7212   0.857   5.054   2.225
 2178SOL     OW 7213   0.640   0.003   3.149
 2178SOL    HW1 7214   0.643   0.057   3.228
 2178SOL    HW2 7215   0.731   5.285   3.127
 2179SOL     OW 7216   1.352   3.778   2.027
 2179SOL    HW1 7217   1.380   3.714   1.961
 2179SOL    HW2 7218   1.265   3.748   2.054
 2180SOL     OW 7219   1.297   4.185   2.543
 2180SOL    HW1 7220   1.243   4.264   2.550
 2180SOL    HW2 7221   1.293   4.145   2.630
 2181SOL     OW 7222   1.587   3.926   2.740
 2181SOL    HW1 7223   1.526   3.947   2.811
 2181SOL    HW2 7224   1.586   4.004   2.685
 2182SOL     OW 7225   0.047   4.790   2.152
 2182SOL    HW1 7226   0.137   4.759   2.142
 2182SOL    HW2 7227   0.000   4.716   2.189
 2183SOL     OW 7228   0.233   4.356   3.840
 2183SOL    HW1 7229   0.160   4.323   3.891
 2183SOL    HW2 7230   0.219   4.321   3.752
 2184SOL     OW 7231   0.242   3.999   4.714
 2184SOL    HW1 7232   0.256   3.965   4.802
 2184SOL    HW2 7233   0.158   3.963   4.686
 2185SOL     OW 7234   5.298   4.122   4.377
 2185SOL    HW1 7235   5.205   4.144   4.383
 2185SOL    HW2 7236   5.299   4.031   4.346
 2186SOL     OW 7237   0.573   5.000   4.907
 2186SOL    HW1 7238   0.494   5.006   4.854
 2186SOL    HW2 7239   0.592   5.090   4.934
 2187SOL     OW 7240   1.555   5.232   4.413
 2187SOL    HW1 7241   1.535   5.228   4.506
 2187SOL    HW2 7242   1.476   5.267   4.373
 2188SOL     OW 7243   1.130   4.422   4.425
 2188SOL    HW1 7244   1.179   4.503   4.411
 2188SOL    HW2 7245   1.083   4.436   4.507
 2189SOL     OW 7246   1.766   4.330   3.953
 2189SOL    HW1 7247   1.746   4.322   3.860
 2189SOL    HW2 7248   1.731   4.249   3.992
 2190SOL     OW 7249   0.759   4.867   4.761
 2190SOL    HW1 7250   0.691   4.897   4.822
 2190SOL    HW2 7251   0.786   4.947   4.716
 2191SOL     OW 7252   0.867   4.499   5.546
 2191SOL    HW1 7253   0.855   4.571   5.608
 2191SOL    HW2 7254   0.890   4.542   5.464
 2192SOL     OW 7255   0.686   4.727   4.372
 2192SOL    HW1 7256   0.751   4.715   4.441
 2192SOL    HW2 7257   0.618   4.781   4.412
 2193SOL     OW 7258   0.708   4.872   5.536
 2193SOL    HW1 7259   0.756   4.951   5.560
 2193SOL    HW2 7260   0.625   4.904   5.501
 2194SOL     OW 7261   0.376   5.145   4.777
 2194SOL    HW1 7262   0.282   5.154   4.765
 2194SOL    HW2 7263   0.415   5.199   4.708
 2195SOL     OW 7264   1.455   5.220   5.071
 2195SOL    HW1 7265   1.509   5.293   5.103
 2195SOL    HW2 7266   1.388   5.209   5.139
 2196SOL     OW 7267   0.450   4.124   5.217
 2196SOL    HW1 7268   0.524   4.063   5.218
 2196SOL    HW2 7269   0.373   4.068   5.226
 2197SOL     OW 7270   1.612   4.172   4.464
 2197SOL    HW1 7271   1.537   4.195   4.409
 2197SOL    HW2 7272   1.627   4.251   4.517
 2198SOL     OW 7273   1.133   5.072   5.425
 2198SOL    HW1 7274   1.164   5.073   5.515
 2198SOL    HW2 7275   1.080   4.993   5.418
 2199SOL     OW 7276   0.212   5.151   4.256
 2199SOL    HW1 7277   0.251   5.231   4.291
 2199SOL    HW2 7278   0.133   5.137   4.308
 2200SOL     OW 7279   0.252   4.799   4.600
 2200SOL    HW1 7280   0.264   4.713   4.639
 2200SOL    HW2 7281   0.196   4.846   4.661
 2201SOL     OW 7282   0.583   4.706   3.859
 2201SOL    HW1 7283   0.630   4.754   3.790
 2201SOL    HW2 7284   0.624   4.735   3.940
 2202SOL     OW 7285   1.597   3.847   5.193
 2202SOL    HW1 7286   1.601   3.927   5.141
 2202SOL    HW2 7287   1.582   3.878   5.282
 2203SOL     OW 7288   0.127   4.356   4.302
 2203SOL    HW1 7289   0.088   4.274   4.333
 2203SOL    HW2 7290   0.099   4.421   4.367
 2204SOL     OW 7291   5.299   5.299   3.806
 2204SOL    HW1 7292   0.015   5.211   3.840
 2204SOL    HW2 7293   0.026   0.058   3.877
 2205SOL     OW 7294   1.689   4.642   4.364
 2205SOL    HW1 7295   1.772   4.600   4.343
 2205SOL    HW2 7296   1.667   4.693   4.286
 2206SOL     OW 7297   1.645   4.831   4.154
 2206SOL    HW1 7298   1.731   4.836   4.111
 2206SOL    HW2 7299   1.652   4.892   4.227
 2207SOL     OW 7300   0.131   4.472   5.310
 2207SOL    HW1 7301   0.225   4.486   5.312
 2207SOL    HW2 7302   0.093   4.559   5.323
 2208SOL     OW 7303   0.626   5.096   4.459
 2208SOL    HW1 7304   0.569   5.019   4.459
 2208SOL    HW2 7305   0.601   5.145   4.381
 2209SOL     OW 7306   1.289   4.954   5.150
 2209SOL    HW1 7307   1.323   4.889   5.089
 2209SOL    HW2 7308   1.348   4.952   5.224
 2210SOL     OW 7309   0.822   3.723   4.234
 2210SOL    HW1 7310   0.862   3.808   4.214
 2210SOL    HW2 7311   0.729   3.742   4.240
 2211SOL     OW 7312   0.177   4.667   5.006
 2211SOL    HW1 7313   0.267   4.637   4.992
 2211SOL    HW2 7314   0.134   4.655   4.921
 2212SOL     OW 7315   1.531   4.719   3.921
 2212SOL    HW1 7316   1.461   4.661   3.953
 2212SOL    HW2 7317   1.572   4.753   4.001
 2213SOL     OW 7318   0.336   3.977   5.541
 2213SOL    HW1 7319   0.383   4.059   5.553
 2213SOL    HW2 7320   0.249   3.994   5.576
 2214SOL     OW 7321   1.476   5.146   4.686
 2214SOL    HW1 7322   1.404   5.159   4.747
 2214SOL    HW2 7323   1.464   5.058   4.652
 2215SOL     OW 7324   0.596   4.445   3.990
 2215SOL    HW1 7325   0.603   4.526   3.939
 2215SOL    HW2 7326   0.531   4.465   4.058
 2216SOL     OW 7327   1.279   4.076   4.656
 2216SOL    HW1 7328   1.190   4.043   4.665
 2216SOL    HW2 7329   1.330   4.024   4.718
 2217SOL     OW 7330   0.792   4.341   5.176
 2217SOL    HW1 7331   0.765   4.318   5.264
 2217SOL    HW2 7332   0.752   4.275   5.120
 2218SOL     OW 7333   1.394   4.198   5.402
 2218SOL    HW1 7334   1.396   4.243   5.487
 2218SOL    HW2 7335   1.455   4.125   5.411
 2219SOL     OW 7336   0.955   4.612   5.307
 2219SOL    HW1 7337   1.009   4.541   5.271
 2219SOL    HW2 7338   0.907   4.645   5.231
 2220SOL     OW 7339   0.992   4.137   4.963
 2220SOL    HW1 7340   0.906   4.158   4.999
 2220SOL    HW2 7341   0.973   4.090   4.881
 2221SOL     OW 7342   1.051   4.423   4.150
 2221SOL    HW1 7343   1.066   4.415   4.244
 2221SOL    HW2 7344   0.968   4.376   4.136
 2222SOL     OW 7345   0.072   4.510   4.534
 2222SOL    HW1 7346   0.153   4.515   4.585
 2222SOL    HW2 7347   0.061   4.597   4.498
 2223SOL     OW 7348   0.893   4.072   3.918
 2223SOL    HW1 7349   0.933   4.134   3.857
 2223SOL    HW2 7350   0.908   3.986   3.879
 2224SOL     OW 7351   1.709   4.298   5.552
 2224SOL    HW1 7352   1.671   4.373   5.504
 2224SOL    HW2 7353   1.736   4.238   5.483
 2225SOL     OW 7354   1.377   4.864   4.264
 2225SOL    HW1 7355   1.458   4.850   4.215
 2225SOL    HW2 7356   1.327   4.925   4.210
 2226SOL     OW 7357   0.555   3.907   4.617
 2226SOL    HW1 7358   0.552   3.935   4.709
 2226SOL    HW2 7359   0.551   3.988   4.567
 2227SOL     OW 7360   1.023   5.169   4.194
 2227SOL    HW1 7361   0.946   5.225   4.189
 2227SOL    HW2 7362   1.038   5.157   4.288
 2228SOL     OW 7363   1.800   4.781   4.590
 2228SOL    HW1 7364   1.744   4.763   4.515
 2228SOL    HW2 7365   1.740   4.788   4.665
 2229SOL     OW 7366   1.250   5.239   5.248
 2229SOL    HW1 7367   1.214   5.173   5.307
 2229SOL    HW2 7368   1.179   5.259   5.187
 2230SOL     OW 7369   0.316   4.676   3.971
 2230SOL    HW1 7370   0.398   4.698   3.927
 2230SOL    HW2 7371   0.293   4.590   3.935
 2231SOL     OW 7372   1.478   4.467   4.451
 2231SOL    HW1 7373   1.469   4.423   4.536
 2231SOL    HW2 7374   1.556   4.521   4.460
 2232SOL     OW 7375   0.463   4.988   5.466
 2232SOL    HW1 7376   0.437   4.991   5.374
 2232SOL    HW2 7377   0.380   4.988   5.514
 2233SOL     OW 7378   1.068   0.180   3.931
 2233SOL    HW1 7379   1.080   0.107   3.991
 2233SOL    HW2 7380   1.105   0.149   3.848
 2234SOL     OW 7381   0.205   4.005   5.221
 2234SOL    HW1 7382   0.126   4.056   5.205
 2234SOL    HW2 7383   0.173   3.926   5.265
 2235SOL     OW 7384   1.623   5.101   3.832
 2235SOL    HW1 7385   1.620   5.177   3.773
 2235SOL    HW2 7386   1.555   5.042   3.798
 2236SOL     OW 7387   1.401   3.832   4.156
 2236SOL    HW1 7388   1.390   3.806   4.065
 2236SOL    HW2 7389   1.495   3.836   4.169
 2237SOL     OW 7390   0.386   4.420   4.203
 2237SOL    HW1 7391   0.415   4.329   4.212
 2237SOL    HW2 7392   0.293   4.417   4.223
 2238SOL     OW 7393   1.535   3.949   5.449
 2238SOL    HW1 7394   1.545   3.970   5.542
 2238SOL    HW2 7395   1.466   3.884   5.446
 2239SOL     OW 7396   0.633   3.847   3.829
 2239SOL    HW1 7397   0.704   3.783   3.841
 2239SOL    HW2 7398   0.585   3.815   3.753
 2240SOL     OW 7399   0.767   4.002   5.478
 2240SOL    HW1 7400   0.842   3.943   5.480
 2240SOL    HW2 7401   0.717   3.980   5.557
 2241SOL     OW 7402   1.341   4.313   5.156
 2241SOL    HW1 7403   1.371   4.282   5.241
 2241SOL    HW2 7404   1.376   4.401   5.148
 2242SOL     OW 7405   0.813   5.120   4.660
 2242SOL    HW1 7406   0.894   5.105   4.610
 2242SOL    HW2 7407   0.745   5.126   4.593
 2243SOL     OW 7408   0.928   4.234   4.627
 2243SOL    HW1 7409   0.904   4.225   4.534
 2243SOL    HW2 7410   0.959   4.146   4.652
 2244SOL     OW 7411   0.560   3.785   4.220
 2244SOL    HW1 7412   0.485   3.785   4.280
 2244SOL    HW2 7413   0.549   3.865   4.168
 2245SOL     OW 7414   1.428   4.924   3.763
 2245SOL    HW1 7415   1.459   4.848   3.813
 2245SOL    HW2 7416   1.340   4.941   3.796
 2246SOL     OW 7417   0.305   3.771   3.903
 2246SOL    HW1 7418   0.367   3.835   3.868
 2246SOL    HW2 7419   0.360   3.706   3.948
 2247SOL     OW 7420   0.939   3.971   4.184
 2247SOL    HW1 7421   0.912   4.012   4.102
 2247SOL    HW2 7422   1.034   3.985   4.188
 2248SOL     OW 7423   1.080   4.405   5.184
 2248SOL    HW1 7424   1.011   4.338   5.188
 2248SOL    HW2 7425   1.161   4.354   5.176
 2249SOL     OW 7426   1.264   5.267   4.502
 2249SOL    HW1 7427   1.221   0.048   4.475
 2249SOL    HW2 7428   1.307   5.290   4.584
 2250SOL     OW 7429   0.465   4.873   4.453
 2250SOL    HW1 7430   0.397   4.853   4.517
 2250SOL    HW2 7431   0.425   4.853   4.368
 2251SOL     OW 7432   1.023   4.266   3.747
 2251SOL    HW1 7433   0.981   4.350   3.727
 2251SOL    HW2 7434   1.089   4.288   3.813
 2252SOL     OW 7435   0.087   4.269   5.122
 2252SOL    HW1 7436   0.175   4.276   5.085
 2252SOL    HW2 7437   0.079   4.345   5.179
 2253SOL     OW 7438   0.560   3.952   4.890
 2253SOL    HW1 7439   0.598   3.871   4.926
 2253SOL    HW2 7440   0.469   3.950   4.918
 2254SOL     OW 7441   0.868   4.183   4.363
 2254SOL    HW1 7442   0.822   4.237   4.299
 2254SOL    HW2 7443   0.889   4.103   4.316
 2255SOL     OW 7444   1.014   3.778   4.476
 2255SOL    HW1 7445   0.957   3.769   4.400
 2255SOL    HW2 7446   0.994   3.702   4.530
 2256SOL     OW 7447   1.437   4.890   4.583
 2256SOL    HW1 7448   1.371   4.821   4.579
 2256SOL    HW2 7449   1.463   4.903   4.491
 2257SOL     OW 7450   1.466   4.329   4.701
 2257SOL    HW1 7451   1.416   4.248   4.704
 2257SOL    HW2 7452   1.526   4.323   4.776
 2258SOL     OW 7453   1.846   4.540   4.107
 2258SOL    HW1 7454   1.902   4.488   4.164
 2258SOL    HW2 7455   1.817   4.478   4.040
 2259SOL     OW 7456   0.483   5.144   3.877
 2259SOL    HW1 7457   0.420   5.094   3.929
 2259SOL    HW2 7458   0.482   5.102   3.791
 2260SOL     OW 7459   1.669   4.987   4.371
 2260SOL    HW1 7460   1.763   4.994   4.388
 2260SOL    HW2 7461   1.635   5.075   4.387
 2261SOL     OW 7462   1.394   4.296   3.795
 2261SOL    HW1 7463   1.333   4.276   3.867
 2261SOL    HW2 7464   1.478   4.263   3.826
 2262SOL     OW 7465   0.524   3.987   4.041
 2262SOL    HW1 7466   0.569   3.940   3.971
 2262SOL    HW2 7467   0.502   4.072   4.003
 2263SOL     OW 7468   1.751   4.960   5.300
 2263SOL    HW1 7469   1.837   4.918   5.299
 2263SOL    HW2 7470   1.770   5.053   5.313
 2264SOL     OW 7471   1.064   5.075   5.055
 2264SOL    HW1 7472   0.986   5.049   5.104
 2264SOL    HW2 7473   1.137   5.035   5.104
 2265SOL     OW 7474   1.126   4.926   4.832
 2265SOL    HW1 7475   1.075   4.967   4.902
 2265SOL    HW2 7476   1.081   4.951   4.751
 2266SOL     OW 7477   1.629   4.822   4.801
 2266SOL    HW1 7478   1.624   4.884   4.874
 2266SOL    HW2 7479   1.551   4.841   4.749
 2267SOL     OW 7480   0.919   3.820   5.121
 2267SOL    HW1 7481   0.940   3.802   5.030
 2267SOL    HW2 7482   0.998   3.860   5.157
 2268SOL     OW 7483   0.984   4.839   5.449
 2268SOL    HW1 7484   0.892   4.855   5.467
 2268SOL    HW2 7485   0.985   4.762   5.391
 2269SOL     OW 7486   0.703   4.781   4.097
 2269SOL    HW1 7487   0.693   4.766   4.191
 2269SOL    HW2 7488   0.781   4.731   4.073
 2270SOL     OW 7489   0.421   4.542   4.975
 2270SOL    HW1 7490   0.490   4.549   5.042
 2270SOL    HW2 7491   0.386   4.454   4.986
 2271SOL     OW 7492   1.265   4.101   5.000
 2271SOL    HW1 7493   1.298   4.178   5.045
 2271SOL    HW2 7494   1.175   4.123   4.976
 2272SOL     OW 7495   0.113   5.289   5.043
 2272SOL    HW1 7496   0.052   0.048   5.087
 2272SOL    HW2 7497   0.190   5.287   5.100
 2273SOL     OW 7498   0.344   4.828   4.211
 2273SOL    HW1 7499   0.350   4.906   4.157
 2273SOL    HW2 7500   0.351   4.755   4.149
 2274SOL     OW 7501   0.555   4.260   4.583
 2274SOL    HW1 7502   0.570   4.319   4.509
 2274SOL    HW2 7503   0.619   4.287   4.649
 2275SOL     OW 7504   1.260   5.077   4.109
 2275SOL    HW1 7505   1.317   5.144   4.148
 2275SOL    HW2 7506   1.172   5.099   4.139
 2276SOL     OW 7507   1.269   5.182   4.865
 2276SOL    HW1 7508   1.328   5.195   4.939
 2276SOL    HW2 7509   1.225   5.099   4.884
 2277SOL     OW 7510   1.582   4.347   4.203
 2277SOL    HW1 7511   1.535   4.401   4.266
 2277SOL    HW2 7512   1.626   4.409   4.146
 2278SOL     OW 7513   0.381   5.232   5.039
 2278SOL    HW1 7514   0.364   5.193   4.954
 2278SOL    HW2 7515   0.474   5.256   5.036
 2279SOL     OW 7516   0.414   4.467   5.326
 2279SOL    HW1 7517   0.475   4.513   5.268
 2279SOL    HW2 7518   0.453   4.380   5.339
 2280SOL     OW 7519   1.601   4.503   5.406
 2280SOL    HW1 7520   1.515   4.544   5.399
 2280SOL    HW2 7521   1.653   4.544   5.337
 2281SOL     OW 7522   0.996   3.847   5.480
 2281SOL    HW1 7523   1.051   3.919   5.451
 2281SOL    HW2 7524   1.044   3.768   5.454
 2282SOL     OW 7525   0.497   3.766   5.472
 2282SOL    HW1 7526   0.455   3.711   5.405
 2282SOL    HW2 7527   0.438   3.839   5.484
 2283SOL     OW 7528   0.586   4.597   4.756
 2283SOL    HW1 7529   0.614   4.688   4.754
 2283SOL    HW2 7530   0.529   4.591   4.833
 2284SOL     OW 7531   1.358   4.582   4.753
 2284SOL    HW1 7532   1.274   4.572   4.707
 2284SOL    HW2 7533   1.398   4.496   4.748
 2285SOL     OW 7534   1.205   4.253   3.991
 2285SOL    HW1 7535   1.213   4.174   4.045
 2285SOL    HW2 7536   1.162   4.317   4.048
 2286SOL     OW 7537   0.302   3.927   4.972
 2286SOL    HW1 7538   0.267   3.952   5.058
 2286SOL    HW2 7539   0.289   3.832   4.967
 2287SOL     OW 7540   0.044   5.022   5.001
 2287SOL    HW1 7541   0.074   4.972   5.076
 2287SOL    HW2 7542   0.045   5.113   5.030
 2288SOL     OW 7543   0.725   4.355   4.782
 2288SOL    HW1 7544   0.799   4.339   4.724
 2288SOL    HW2 7545   0.696   4.444   4.761
 2289SOL     OW 7546   1.734   4.684   5.576
 2289SOL    HW1 7547   1.688   4.622   5.519
 2289SOL    HW2 7548   1.675   4.697   5.650
 2290SOL     OW 7549   0.327   3.786   4.358
 2290SOL    HW1 7550   0.307   3.875   4.386
 2290SOL    HW2 7551   0.331   3.736   4.440
 2291SOL     OW 7552   1.616   4.098   4.091
 2291SOL    HW1 7553   1.643   4.034   4.157
 2291SOL    HW2 7554   1.594   4.176   4.142
 2292SOL     OW 7555   1.028   4.483   4.685
 2292SOL    HW1 7556   1.024   4.501   4.779
 2292SOL    HW2 7557   1.001   4.392   4.676
 2293SOL     OW 7558   1.855   5.214   5.309
 2293SOL    HW1 7559   1.849   5.289   5.250
 2293SOL    HW2 7560   1.924   5.237   5.371
 2294SOL     OW 7561   0.354   4.643   5.530
 2294SOL    HW1 7562   0.435   4.660   5.578
 2294SOL    HW2 7563   0.379   4.577   5.464
 2295SOL     OW 7564   1.529   3.998   3.851
 2295SOL    HW1 7565   1.464   3.932   3.877
 2295SOL    HW2 7566   1.562   4.033   3.934
 2296SOL     OW 7567   1.292   4.550   3.755
 2296SOL    HW1 7568   1.335   4.465   3.759
 2296SOL    HW2 7569   1.323   4.589   3.674
 2297SOL     OW 7570   1.058   5.078   4.550
 2297SOL    HW1 7571   1.063   4.993   4.507
 2297SOL    HW2 7572   1.145   5.117   4.537
 2298SOL     OW 7573   0.315   4.533   4.673
 2298SOL    HW1 7574   0.409   4.551   4.669
 2298SOL    HW2 7575   0.308   4.443   4.706
 2299SOL     OW 7576   0.335   4.250   4.739
 2299SOL    HW1 7577   0.300   4.162   4.725
 2299SOL    HW2 7578   0.410   4.255   4.679
 2300SOL     OW 7579   1.134   4.100   5.406
 2300SOL    HW1 7580   1.086   4.155   5.468
 2300SOL    HW2 7581   1.222   4.138   5.402
 2301SOL     OW 7582   1.161   3.926   5.194
 2301SOL    HW1 7583   1.150   3.989   5.266
 2301SOL    HW2 7584   1.200   3.977   5.123
 2302SOL     OW 7585   0.002   5.048   3.931
 2302SOL    HW1 7586   5.226   5.036   3.875
 2302SOL    HW2 7587   0.014   4.963   3.974
 2303SOL     OW 7588   0.983   4.516   4.951
 2303SOL    HW1 7589   1.039   4.493   5.025
 2303SOL    HW2 7590   0.898   4.478   4.972
 2304SOL     OW 7591   0.032   4.283   4.839
 2304SOL    HW1 7592   0.119   4.260   4.806
 2304SOL    HW2 7593   0.037   4.267   4.933
 2305SOL     OW 7594   0.175   4.237   5.436
 2305SOL    HW1 7595   0.240   4.200   5.376
 2305SOL    HW2 7596   0.146   4.318   5.394
 2306SOL     OW 7597   1.377   4.663   5.382
 2306SOL    HW1 7598   1.397   4.756   5.380
 2306SOL    HW2 7599   1.373   4.636   5.290
 2307SOL     OW 7600   0.816   4.293   4.084
 2307SOL    HW1 7601   0.821   4.218   4.024
 2307SOL    HW2 7602   0.742   4.345   4.052
 2308SOL     OW 7603   1.642   4.326   4.910
 2308SOL    HW1 7604   1.631   4.266   4.984
 2308SOL    HW2 7605   1.729   4.305   4.876
 2309SOL     OW 7606   0.210   5.279   5.456
 2309SOL    HW1 7607   0.176   0.023   5.534
 2309SOL    HW2 7608   0.213   5.187   5.479
 2310SOL     OW 7609   0.701   4.174   4.984
 2310SOL    HW1 7610   0.649   4.100   4.954
 2310SOL    HW2 7611   0.697   4.237   4.912
 2311SOL     OW 7612   0.465   4.217   3.910
 2311SOL    HW1 7613   0.525   4.289   3.931
 2311SOL    HW2 7614   0.380   4.260   3.898
 2312SOL     OW 7615   0.151   4.861   5.196
 2312SOL    HW1 7616   0.147   4.812   5.278
 2312SOL    HW2 7617   0.161   4.794   5.128
 2313SOL     OW 7618   1.327   4.770   4.946
 2313SOL    HW1 7619   1.350   4.707   4.878
 2313SOL    HW2 7620   1.256   4.822   4.909
 2314SOL     OW 7621   1.310   4.582   4.030
 2314SOL    HW1 7622   1.235   4.549   4.080
 2314SOL    HW2 7623   1.287   4.567   3.939
 2315SOL     OW 7624   0.076   4.919   4.754
 2315SOL    HW1 7625   0.065   4.959   4.840
 2315SOL    HW2 7626   5.289   4.924   4.714
 2316SOL     OW 7627   0.751   0.038   5.433
 2316SOL    HW1 7628   0.659   0.061   5.442
 2316SOL    HW2 7629   0.773   0.061   5.342
 2317SOL     OW 7630   1.720   3.870   4.235
 2317SOL    HW1 7631   1.792   3.855   4.173
 2317SOL    HW2 7632   1.704   3.784   4.274
 2318SOL     OW 7633   1.277   4.650   4.396
 2318SOL    HW1 7634   1.350   4.588   4.403
 2318SOL    HW2 7635   1.311   4.722   4.343
 2319SOL     OW 7636   0.819   4.993   5.145
 2319SOL    HW1 7637   0.788   5.029   5.228
 2319SOL    HW2 7638   0.743   5.001   5.086
 2320SOL     OW 7639   1.842   3.893   4.691
 2320SOL    HW1 7640   1.867   3.806   4.660
 2320SOL    HW2 7641   1.755   3.908   4.653
 2321SOL     OW 7642   0.273   4.041   4.441
 2321SOL    HW1 7643   0.188   4.080   4.421
 2321SOL    HW2 7644   0.271   4.030   4.537
 2322SOL     OW 7645   0.825   4.728   5.095
 2322SOL    HW1 7646   0.870   4.721   5.011
 2322SOL    HW2 7647   0.828   4.821   5.117
 2323SOL     OW 7648   0.915   4.636   4.014
 2323SOL    HW1 7649   0.977   4.668   3.948
 2323SOL    HW2 7650   0.963   4.566   4.059
 2324SOL     OW 7651   0.366   5.028   5.224
 2324SOL    HW1 7652   0.365   5.098   5.158
 2324SOL    HW2 7653   0.291   4.973   5.200
 2325SOL     OW 7654   1.613   5.004   5.006
 2325SOL    HW1 7655   1.669   4.998   5.083
 2325SOL    HW2 7656   1.550   5.073   5.028
 2326SOL     OW 7657   1.054   4.833   4.435
 2326SOL    HW1 7658   0.982   4.782   4.472
 2326SOL    HW2 7659   1.116   4.768   4.402
 2327SOL     OW 7660   1.021   3.964   4.690
 2327SOL    HW1 7661   1.016   3.917   4.607
 2327SOL    HW2 7662   1.016   3.896   4.758
 2328SOL     OW 7663   1.722   4.116   5.104
 2328SOL    HW1 7664   1.793   4.179   5.103
 2328SOL    HW2 7665   1.752   4.045   5.048
 2329SOL     OW 7666   0.259   5.059   4.010
 2329SOL    HW1 7667   0.167   5.063   3.986
 2329SOL    HW2 7668   0.262   5.097   4.098
 2330SOL     OW 7669   0.116   4.742   5.443
 2330SOL    HW1 7670   0.045   4.704   5.495
 2330SOL    HW2 7671   0.196   4.709   5.485
 2331SOL     OW 7672   0.674   3.920   5.223
 2331SOL    HW1 7673   0.758   3.900   5.182
 2331SOL    HW2 7674   0.697   3.952   5.311
 2332SOL     OW 7675   0.082   4.074   3.765
 2332SOL    HW1 7676   0.003   4.025   3.741
 2332SOL    HW2 7677   0.098   4.131   3.690
 2333SOL     OW 7678   1.430   4.582   5.124
 2333SOL    HW1 7679   1.381   4.642   5.068
 2333SOL    HW2 7680   1.519   4.584   5.090
 2334SOL     OW 7681   0.056   3.857   3.967
 2334SOL    HW1 7682   0.055   3.952   3.959
 2334SOL    HW2 7683   0.146   3.832   3.945
 2335SOL     OW 7684   1.182   5.064   3.845
 2335SOL    HW1 7685   1.091   5.035   3.845
 2335SOL    HW2 7686   1.210   5.056   3.936
 2336SOL     OW 7687   0.619   4.555   5.159
 2336SOL    HW1 7688   0.676   4.630   5.143
 2336SOL    HW2 7689   0.679   4.481   5.167
 2337SOL     OW 7690   0.717   4.288   5.429
 2337SOL    HW1 7691   0.758   4.350   5.489
 2337SOL    HW2 7692   0.746   4.202   5.460
 2338SOL     OW 7693   1.473   4.923   5.355
 2338SOL    HW1 7694   1.460   4.936   5.449
 2338SOL    HW2 7695   1.567   4.937   5.342
 2339SOL     OW 7696   1.670   4.605   4.979
 2339SOL    HW1 7697   1.663   4.520   4.936
 2339SOL    HW2 7698   1.660   4.669   4.908
 2340SOL     OW 7699   1.217   4.043   4.182
 2340SOL    HW1 7700   1.280   3.972   4.173
 2340SOL    HW2 7701   1.246   4.092   4.259
 2341SOL     OW 7702   0.590   4.462   4.393
 2341SOL    HW1 7703   0.629   4.548   4.378
 2341SOL    HW2 7704   0.521   4.454   4.328
 2342SOL     OW 7705   1.763   4.085   5.374
 2342SOL    HW1 7706   1.745   4.100   5.281
 2342SOL    HW2 7707   1.691   4.029   5.403
 2343SOL     OW 7708   1.745   4.657   5.236
 2343SOL    HW1 7709   1.741   4.752   5.249
 2343SOL    HW2 7710   1.729   4.645   5.142
 2344SOL     OW 7711   0.849   5.094   3.743
 2344SOL    HW1 7712   0.830   5.095   3.837
 2344SOL    HW2 7713   0.866   5.186   3.722
 2345SOL     OW 7714   0.868   4.691   4.579
 2345SOL    HW1 7715   0.917   4.619   4.619
 2345SOL    HW2 7716   0.833   4.741   4.652
 2346SOL     OW 7717   1.080   4.713   3.813
 2346SOL    HW1 7718   1.057   4.763   3.735
 2346SOL    HW2 7719   1.154   4.659   3.787
 2347SOL     OW 7720   0.220   5.025   5.578
 2347SOL    HW1 7721   0.155   4.957   5.559
 2347SOL    HW2 7722   0.216   5.035   5.674
 2348SOL     OW 7723   0.082   4.929   4.380
 2348SOL    HW1 7724   0.101   4.908   4.471
 2348SOL    HW2 7725   0.168   4.940   4.339
 2349SOL     OW 7726   0.671   5.106   5.333
 2349SOL    HW1 7727   0.594   5.073   5.380
 2349SOL    HW2 7728   0.702   5.179   5.386
 2350SOL     OW 7729   1.814   3.908   4.962
 2350SOL    HW1 7730   1.819   3.814   4.976
 2350SOL    HW2 7731   1.823   3.919   4.868
 2351SOL     OW 7732   0.435   4.160   4.248
 2351SOL    HW1 7733   0.462   4.087   4.192
 2351SOL    HW2 7734   0.387   4.118   4.320
 2352SOL     OW 7735   1.707   5.223   4.843
 2352SOL    HW1 7736   1.633   5.207   4.784
 2352SOL    HW2 7737   1.713   5.144   4.896
 2353SOL     OW 7738   0.336   4.283   5.015
 2353SOL    HW1 7739   0.389   4.224   5.069
 2353SOL    HW2 7740   0.350   4.253   4.925
 2354SOL     OW 7741   1.432   3.950   4.842
 2354SOL    HW1 7742   1.453   3.867   4.885
 2354SOL    HW2 7743   1.380   3.998   4.906
 2355SOL     OW 7744   1.009   3.743   4.867
 2355SOL    HW1 7745   0.954   3.675   4.826
 2355SOL    HW2 7746   1.096   3.705   4.869
 2356SOL     OW 7747   0.804   5.047   4.008
 2356SOL    HW1 7748   0.742   4.976   4.027
 2356SOL    HW2 7749   0.857   5.054   4.087
 2357SOL     OW 7750   0.640   0.003   5.011
 2357SOL    HW1 7751   0.643   0.057   5.090
 2357SOL    HW2 7752   0.731   5.285   4.990
 2358SOL     OW 7753   1.352   3.778   3.889
 2358SOL    HW1 7754   1.382   3.713   3.825
 2358SOL    HW2 7755   1.265   3.748   3.915
 2359SOL     OW 7756   1.297   4.185   4.405
 2359SOL    HW1 7757   1.243   4.264   4.412
 2359SOL    HW2 7758   1.293   4.145   4.492
 2360SOL     OW 7759   1.590   3.929   4.603
 2360SOL    HW1 7760   1.526   3.947   4.672
 2360SOL    HW2 7761   1.587   4.006   4.547
 2361SOL     OW 7762   0.047   4.790   4.014
 2361SOL    HW1 7763   0.137   4.759   4.004
 2361SOL    HW2 7764   0.000   4.716   4.051
 2362SOL     OW 7765   0.233   4.356   5.702
 2362SOL    HW1 7766   0.160   4.323   5.753
 2362SOL    HW2 7767   0.219   4.321   5.614
 2363SOL     OW 7768   0.242   3.999   6.576
 2363SOL    HW1 7769   0.256   3.965   6.664
 2363SOL    HW2 7770   0.158   3.963   6.548
 2364SOL     OW 7771   5.298   4.122   6.239
 2364SOL    HW1 7772   5.205   4.144   6.245
 2364SOL    HW2 7773   5.299   4.031   6.208
 2365SOL     OW 7774   0.573   5.000   6.769
 2365SOL    HW1 7775   0.494   5.006   6.716
 2365SOL    HW2 7776   0.592   5.090   6.795
 2366SOL     OW 7777   1.555   5.232   6.275
 2366SOL    HW1 7778   1.535   5.228   6.368
 2366SOL    HW2 7779   1.476   5.268   6.235
 2367SOL     OW 7780   1.130   4.422   6.287
 2367SOL    HW1 7781   1.179   4.503   6.273
 2367SOL    HW2 7782   1.083   4.436   6.369
 2368SOL     OW 7783   1.767   4.329   5.815
 2368SOL    HW1 7784   1.746   4.321   5.721
 2368SOL    HW2 7785   1.731   4.250   5.854
 2369SOL     OW 7786   0.758   4.867   6.623
 2369SOL    HW1 7787   0.691   4.897   6.684
 2369SOL    HW2 7788   0.786   4.947   6.578
 2370SOL     OW 7789   0.866   4.501   7.406
 2370SOL    HW1 7790   0.853   4.576   7.464
 2370SOL    HW2 7791   0.891   4.540   7.322
 2371SOL     OW 7792   0.686   4.727   6.234
 2371SOL    HW1 7793   0.751   4.715   6.303
 2371SOL    HW2 7794   0.618   4.781   6.274
 2372SOL     OW 7795   0.708   4.872   7.398
 2372SOL    HW1 7796   0.756   4.952   7.421
 2372SOL    HW2 7797   0.625   4.905   7.362
 2373SOL     OW 7798   0.376   5.145   6.639
 2373SOL    HW1 7799   0.282   5.155   6.627
 2373SOL    HW2 7800   0.415   5.199   6.570
 2374SOL     OW 7801   1.455   5.220   6.933
 2374SOL    HW1 7802   1.509   5.293   6.965
 2374SOL    HW2 7803   1.388   5.209   7.001
 2375SOL     OW 7804   0.451   4.124   7.079
 2375SOL    HW1 7805   0.525   4.064   7.081
 2375SOL    HW2 7806   0.373   4.068   7.089
 2376SOL     OW 7807   1.612   4.172   6.326
 2376SOL    HW1 7808   1.537   4.195   6.272
 2376SOL    HW2 7809   1.627   4.250   6.380
 2377SOL     OW 7810   1.133   5.072   7.285
 2377SOL    HW1 7811   1.165   5.071   7.375
 2377SOL    HW2 7812   1.079   4.993   7.279
 2378SOL     OW 7813   0.212   5.151   6.118
 2378SOL    HW1 7814   0.251   5.231   6.153
 2378SOL    HW2 7815   0.133   5.138   6.170
 2379SOL     OW 7816   0.252   4.799   6.462
 2379SOL    HW1 7817   0.264   4.713   6.501
 2379SOL    HW2 7818   0.196   4.846   6.523
 2380SOL     OW 7819   0.583   4.706   5.721
 2380SOL    HW1 7820   0.630   4.754   5.652
 2380SOL    HW2 7821   0.624   4.735   5.802
 2381SOL     OW 7822   1.596   3.847   7.054
 2381SOL    HW1 7823   1.603   3.928   7.003
 2381SOL    HW2 7824   1.582   3.877   7.144
 2382SOL     OW 7825   0.127   4.356   6.164
 2382SOL    HW1 7826   0.088   4.274   6.195
 2382SOL    HW2 7827   0.099   4.421   6.229
 2383SOL     OW 7828   5.299   5.299   5.668
 2383SOL    HW1 7829   0.015   5.211   5.702
 2383SOL    HW2 7830   0.026   0.058   5.739
 2384SOL     OW 7831   1.689   4.642   6.226
 2384SOL    HW1 7832   1.772   4.600   6.206
 2384SOL    HW2 7833   1.668   4.693   6.148
 2385SOL     OW 7834   1.645   4.831   6.015
 2385SOL    HW1 7835   1.731   4.836   5.973
 2385SOL    HW2 7836   1.652   4.892   6.089
 2386SOL     OW 7837   0.131   4.470   7.174
 2386SOL    HW1 7838   0.225   4.485   7.174
 2386SOL    HW2 7839   0.092   4.557   7.185
 2387SOL     OW 7840   0.626   5.096   6.321
 2387SOL    HW1 7841   0.569   5.019   6.321
 2387SOL    HW2 7842   0.601   5.145   6.243
 2388SOL     OW 7843   1.289   4.954   7.012
 2388SOL    HW1 7844   1.323   4.889   6.951
 2388SOL    HW2 7845   1.349   4.951   7.086
 2389SOL     OW 7846   0.822   3.723   6.095
 2389SOL    HW1 7847   0.862   3.808   6.076
 2389SOL    HW2 7848   0.729   3.742   6.102
 2390SOL     OW 7849   0.177   4.667   6.868
 2390SOL    HW1 7850   0.266   4.637   6.854
 2390SOL    HW2 7851   0.134   4.655   6.783
 2391SOL     OW 7852   1.531   4.719   5.783
 2391SOL    HW1 7853   1.461   4.661   5.815
 2391SOL    HW2 7854   1.572   4.753   5.863
 2392SOL     OW 7855   0.337   3.976   7.402
 2392SOL    HW1 7856   0.384   4.059   7.414
 2392SOL    HW2 7857   0.249   3.993   7.437
 2393SOL     OW 7858   1.476   5.147   6.548
 2393SOL    HW1 7859   1.404   5.159   6.609
 2393SOL    HW2 7860   1.464   5.058   6.514
 2394SOL     OW 7861   0.596   4.445   5.852
 2394SOL    HW1 7862   0.603   4.526   5.801
 2394SOL    HW2 7863   0.531   4.465   5.920
 2395SOL     OW 7864   1.279   4.076   6.518
 2395SOL    HW1 7865   1.190   4.043   6.527
 2395SOL    HW2 7866   1.330   4.023   6.580
 2396SOL     OW 7867   0.791   4.342   7.038
 2396SOL    HW1 7868   0.765   4.317   7.126
 2396SOL    HW2 7869   0.752   4.275   6.982
 2397SOL     OW 7870   1.394   4.198   7.263
 2397SOL    HW1 7871   1.396   4.242   7.348
 2397SOL    HW2 7872   1.454   4.125   7.273
 2398SOL     OW 7873   0.955   4.612   7.168
 2398SOL    HW1 7874   1.010   4.541   7.133
 2398SOL    HW2 7875   0.907   4.645   7.092
 2399SOL     OW 7876   0.992   4.137   6.825
 2399SOL    HW1 7877   0.906   4.158   6.862
 2399SOL    HW2 7878   0.973   4.090   6.744
 2400SOL     OW 7879   1.051   4.422   6.012
 2400SOL    HW1 7880   1.066   4.415   6.106
 2400SOL    HW2 7881   0.968   4.376   5.998
 2401SOL     OW 7882   0.072   4.510   6.396
 2401SOL    HW1 7883   0.153   4.515   6.447
 2401SOL    HW2 7884   0.061   4.597   6.360
 2402SOL     OW 7885   0.893   4.073   5.780
 2402SOL    HW1 7886   0.933   4.134   5.719
 2402SOL    HW2 7887   0.908   3.987   5.741
 2403SOL     OW 7888   1.709   4.300   7.415
 2403SOL    HW1 7889   1.671   4.373   7.367
 2403SOL    HW2 7890   1.736   4.238   7.347
 2404SOL     OW 7891   1.377   4.864   6.125
 2404SOL    HW1 7892   1.458   4.850   6.077
 2404SOL    HW2 7893   1.327   4.925   6.072
 2405SOL     OW 7894   0.556   3.907   6.479
 2405SOL    HW1 7895   0.553   3.935   6.571
 2405SOL    HW2 7896   0.551   3.989   6.429
 2406SOL     OW 7897   1.023   5.169   6.056
 2406SOL    HW1 7898   0.946   5.225   6.051
 2406SOL    HW2 7899   1.038   5.157   6.150
 2407SOL     OW 7900   1.800   4.781   6.452
 2407SOL    HW1 7901   1.743   4.764   6.377
 2407SOL    HW2 7902   1.740   4.788   6.527
 2408SOL     OW 7903   1.250   5.240   7.110
 2408SOL    HW1 7904   1.214   5.173   7.168
 2408SOL    HW2 7905   1.179   5.260   7.049
 2409SOL     OW 7906   0.316   4.676   5.833
 2409SOL    HW1 7907   0.398   4.699   5.789
 2409SOL    HW2 7908   0.293   4.590   5.797
 2410SOL     OW 7909   1.478   4.466   6.313
 2410SOL    HW1 7910   1.469   4.423   6.398
 2410SOL    HW2 7911   1.556   4.521   6.322
 2411SOL     OW 7912   0.462   4.988   7.329
 2411SOL    HW1 7913   0.437   4.991   7.237
 2411SOL    HW2 7914   0.379   4.988   7.377
 2412SOL     OW 7915   1.067   0.179   5.793
 2412SOL    HW1 7916   1.081   0.107   5.854
 2412SOL    HW2 7917   1.105   0.149   5.711
 2413SOL     OW 7918   0.205   4.005   7.084
 2413SOL    HW1 7919   0.125   4.055   7.066
 2413SOL    HW2 7920   0.173   3.925   7.127
 2414SOL     OW 7921   1.623   5.101   5.694
 2414SOL    HW1 7922   1.620   5.177   5.636
 2414SOL    HW2 7923   1.554   5.043   5.660
 2415SOL     OW 7924   1.401   3.832   6.019
 2415SOL    HW1 7925   1.391   3.807   5.927
 2415SOL    HW2 7926   1.496   3.838   6.032
 2416SOL     OW 7927   0.386   4.420   6.065
 2416SOL    HW1 7928   0.415   4.329   6.074
 2416SOL    HW2 7929   0.293   4.417   6.085
 2417SOL     OW 7930   1.535   3.949   7.311
 2417SOL    HW1 7931   1.544   3.970   7.404
 2417SOL    HW2 7932   1.467   3.882   7.309
 2418SOL     OW 7933   0.633   3.847   5.691
 2418SOL    HW1 7934   0.704   3.783   5.703
 2418SOL    HW2 7935   0.585   3.815   5.615
 2419SOL     OW 7936   0.766   4.001   7.339
 2419SOL    HW1 7937   0.842   3.943   7.341
 2419SOL    HW2 7938   0.722   3.986   7.423
 2420SOL     OW 7939   1.340   4.313   7.018
 2420SOL    HW1 7940   1.371   4.281   7.103
 2420SOL    HW2 7941   1.377   4.401   7.010
 2421SOL     OW 7942   0.813   5.120   6.522
 2421SOL    HW1 7943   0.894   5.105   6.472
 2421SOL    HW2 7944   0.745   5.126   6.455
 2422SOL     OW 7945   0.928   4.234   6.489
 2422SOL    HW1 7946   0.904   4.225   6.396
 2422SOL    HW2 7947   0.959   4.147   6.514
 2423SOL     OW 7948   0.560   3.785   6.082
 2423SOL    HW1 7949   0.485   3.785   6.142
 2423SOL    HW2 7950   0.549   3.865   6.030
 2424SOL     OW 7951   1.428   4.924   5.624
 2424SOL    HW1 7952   1.458   4.848   5.675
 2424SOL    HW2 7953   1.340   4.941   5.658
 2425SOL     OW 7954   0.305   3.771   5.765
 2425SOL    HW1 7955   0.367   3.835   5.730
 2425SOL    HW2 7956   0.360   3.706   5.810
 2426SOL     OW 7957   0.939   3.971   6.046
 2426SOL    HW1 7958   0.912   4.012   5.964
 2426SOL    HW2 7959   1.034   3.985   6.050
 2427SOL     OW 7960   1.080   4.404   7.046
 2427SOL    HW1 7961   1.011   4.338   7.050
 2427SOL    HW2 7962   1.161   4.355   7.039
 2428SOL     OW 7963   1.264   5.267   6.364
 2428SOL    HW1 7964   1.221   0.048   6.337
 2428SOL    HW2 7965   1.308   5.290   6.446
 2429SOL     OW 7966   0.465   4.873   6.315
 2429SOL    HW1 7967   0.397   4.853   6.379
 2429SOL    HW2 7968   0.425   4.853   6.230
 2430SOL     OW 7969   1.023   4.266   5.609
 2430SOL    HW1 7970   0.981   4.349   5.588
 2430SOL    HW2 7971   1.089   4.288   5.675
 2431SOL     OW 7972   0.088   4.268   6.985
 2431SOL    HW1 7973   0.175   4.276   6.947
 2431SOL    HW2 7974   0.079   4.345   7.042
 2432SOL     OW 7975   0.560   3.952   6.752
 2432SOL    HW1 7976   0.598   3.872   6.789
 2432SOL    HW2 7977   0.469   3.950   6.780
 2433SOL     OW 7978   0.868   4.183   6.225
 2433SOL    HW1 7979   0.822   4.237   6.161
 2433SOL    HW2 7980   0.889   4.103   6.178
 2434SOL     OW 7981   1.015   3.777   6.337
 2434SOL    HW1 7982   0.957   3.769   6.262
 2434SOL    HW2 7983   0.994   3.702   6.392
 2435SOL     OW 7984   1.437   4.890   6.445
 2435SOL    HW1 7985   1.371   4.821   6.441
 2435SOL    HW2 7986   1.463   4.903   6.353
 2436SOL     OW 7987   1.466   4.329   6.563
 2436SOL    HW1 7988   1.416   4.248   6.566
 2436SOL    HW2 7989   1.526   4.323   6.638
 2437SOL     OW 7990   1.846   4.540   5.969
 2437SOL    HW1 7991   1.902   4.489   6.027
 2437SOL    HW2 7992   1.817   4.477   5.902
 2438SOL     OW 7993   0.483   5.144   5.740
 2438SOL    HW1 7994   0.420   5.094   5.792
 2438SOL    HW2 7995   0.482   5.102   5.653
 2439SOL     OW 7996   1.669   4.987   6.233
 2439SOL    HW1 7997   1.763   4.993   6.250
 2439SOL    HW2 7998   1.635   5.075   6.249
 2440SOL     OW 7999   1.394   4.296   5.657
 2440SOL    HW1 8000   1.333   4.276   5.729
 2440SOL    HW2 8001   1.478   4.263   5.689
 2441SOL     OW 8002   0.524   3.987   5.903
 2441SOL    HW1 8003   0.569   3.940   5.833
 2441SOL    HW2 8004   0.502   4.072   5.865
 2442SOL     OW 8005   1.751   4.959   7.161
 2442SOL    HW1 8006   1.837   4.918   7.161
 2442SOL    HW2 8007   1.769   5.052   7.175
 2443SOL     OW 8008   1.065   5.075   6.917
 2443SOL    HW1 8009   0.986   5.049   6.966
 2443SOL    HW2 8010   1.137   5.035   6.966
 2444SOL     OW 8011   1.126   4.926   6.694
 2444SOL    HW1 8012   1.075   4.967   6.764
 2444SOL    HW2 8013   1.081   4.951   6.613
 2445SOL     OW 8014   1.629   4.822   6.663
 2445SOL    HW1 8015   1.624   4.884   6.736
 2445SOL    HW2 8016   1.550   4.841   6.611
 2446SOL     OW 8017   0.918   3.821   6.983
 2446SOL    HW1 8018   0.941   3.802   6.892
 2446SOL    HW2 8019   0.997   3.860   7.019
 2447SOL     OW 8020   0.985   4.838   7.313
 2447SOL    HW1 8021   0.892   4.855   7.329
 2447SOL    HW2 8022   0.985   4.762   7.254
 2448SOL     OW 8023   0.703   4.781   5.959
 2448SOL    HW1 8024   0.693   4.766   6.053
 2448SOL    HW2 8025   0.781   4.731   5.935
 2449SOL     OW 8026   0.421   4.542   6.838
 2449SOL    HW1 8027   0.490   4.549   6.904
 2449SOL    HW2 8028   0.386   4.454   6.848
 2450SOL     OW 8029   1.265   4.101   6.861
 2450SOL    HW1 8030   1.298   4.178   6.907
 2450SOL    HW2 8031   1.175   4.123   6.838
 2451SOL     OW 8032   0.113   5.289   6.905
 2451SOL    HW1 8033   0.052   0.048   6.949
 2451SOL    HW2 8034   0.190   5.288   6.962
 2452SOL     OW 8035   0.344   4.828   6.073
 2452SOL    HW1 8036   0.350   4.907   6.019
 2452SOL    HW2 8037   0.351   4.755   6.011
 2453SOL     OW 8038   0.555   4.260   6.445
 2453SOL    HW1 8039   0.570   4.319   6.371
 2453SOL    HW2 8040   0.619   4.287   6.511
 2454SOL     OW 8041   1.260   5.077   5.971
 2454SOL    HW1 8042   1.317   5.144   6.010
 2454SOL    HW2 8043   1.172   5.099   6.001
 2455SOL     OW 8044   1.269   5.182   6.727
 2455SOL    HW1 8045   1.328   5.195   6.801
 2455SOL    HW2 8046   1.225   5.099   6.747
 2456SOL     OW 8047   1.582   4.347   6.065
 2456SOL    HW1 8048   1.535   4.400   6.129
 2456SOL    HW2 8049   1.627   4.410   6.009
 2457SOL     OW 8050   0.382   5.231   6.902
 2457SOL    HW1 8051   0.364   5.192   6.816
 2457SOL    HW2 8052   0.474   5.256   6.898
 2458SOL     OW 8053   0.414   4.467   7.188
 2458SOL    HW1 8054   0.475   4.513   7.130
 2458SOL    HW2 8055   0.452   4.380   7.200
 2459SOL     OW 8056   1.601   4.503   7.268
 2459SOL    HW1 8057   1.515   4.544   7.260
 2459SOL    HW2 8058   1.653   4.544   7.200
 2460SOL     OW 8059   0.996   3.847   7.341
 2460SOL    HW1 8060   1.052   3.920   7.312
 2460SOL    HW2 8061   1.044   3.768   7.316
 2461SOL     OW 8062   0.498   3.765   7.333
 2461SOL    HW1 8063   0.456   3.711   7.266
 2461SOL    HW2 8064   0.439   3.839   7.345
 2462SOL     OW 8065   0.586   4.597   6.618
 2462SOL    HW1 8066   0.614   4.688   6.616
 2462SOL    HW2 8067   0.529   4.591   6.695
 2463SOL     OW 8068   1.358   4.582   6.615
 2463SOL    HW1 8069   1.274   4.572   6.569
 2463SOL    HW2 8070   1.398   4.496   6.610
 2464SOL     OW 8071   1.205   4.253   5.853
 2464SOL    HW1 8072   1.213   4.174   5.907
 2464SOL    HW2 8073   1.162   4.317   5.910
 2465SOL     OW 8074   0.302   3.927   6.834
 2465SOL    HW1 8075   0.267   3.952   6.920
 2465SOL    HW2 8076   0.289   3.833   6.829
 2466SOL     OW 8077   0.044   5.021   6.862
 2466SOL    HW1 8078   0.074   4.972   6.938
 2466SOL    HW2 8079   0.045   5.113   6.892
 2467SOL     OW 8080   0.725   4.355   6.644
 2467SOL    HW1 8081   0.799   4.339   6.586
 2467SOL    HW2 8082   0.697   4.444   6.623
 2468SOL     OW 8083   1.735   4.684   7.437
 2468SOL    HW1 8084   1.688   4.622   7.382
 2468SOL    HW2 8085   1.677   4.698   7.513
 2469SOL     OW 8086   0.327   3.786   6.220
 2469SOL    HW1 8087   0.307   3.875   6.248
 2469SOL    HW2 8088   0.331   3.736   6.302
 2470SOL     OW 8089   1.616   4.098   5.953
 2470SOL    HW1 8090   1.643   4.034   6.019
 2470SOL    HW2 8091   1.593   4.176   6.003
 2471SOL     OW 8092   1.028   4.483   6.547
 2471SOL    HW1 8093   1.024   4.501   6.641
 2471SOL    HW2 8094   1.001   4.392   6.539
 2472SOL     OW 8095   1.854   5.213   7.170
 2472SOL    HW1 8096   1.849   5.289   7.111
 2472SOL    HW2 8097   1.924   5.236   7.231
 2473SOL     OW 8098   0.354   4.641   7.393
 2473SOL    HW1 8099   0.436   4.660   7.439
 2473SOL    HW2 8100   0.378   4.577   7.326
 2474SOL     OW 8101   1.529   3.997   5.713
 2474SOL    HW1 8102   1.464   3.932   5.740
 2474SOL    HW2 8103   1.562   4.033   5.796
 2475SOL     OW 8104   1.292   4.550   5.617
 2475SOL    HW1 8105   1.335   4.465   5.621
 2475SOL    HW2 8106   1.323   4.589   5.535
 2476SOL     OW 8107   1.058   5.078   6.412
 2476SOL    HW1 8108   1.063   4.993   6.369
 2476SOL    HW2 8109   1.145   5.117   6.399
 2477SOL     OW 8110   0.315   4.533   6.535
 2477SOL    HW1 8111   0.409   4.550   6.531
 2477SOL    HW2 8112   0.308   4.443   6.568
 2478SOL     OW 8113   0.335   4.250   6.601
 2478SOL    HW1 8114   0.300   4.162   6.587
 2478SOL    HW2 8115   0.410   4.255   6.541
 2479SOL     OW 8116   1.135   4.100   7.267
 2479SOL    HW1 8117   1.087   4.155   7.329
 2479SOL    HW2 8118   1.222   4.138   7.263
 2480SOL     OW 8119   1.161   3.927   7.055
 2480SOL    HW1 8120   1.150   3.989   7.127
 2480SOL    HW2 8121   1.200   3.978   6.985
 2481SOL     OW 8122   0.002   5.048   5.793
 2481SOL    HW1 8123   5.226   5.037   5.737
 2481SOL    HW2 8124   0.014   4.963   5.836
 2482SOL     OW 8125   0.983   4.516   6.813
 2482SOL    HW1 8126   1.039   4.493   6.887
 2482SOL    HW2 8127   0.898   4.477   6.834
 2483SOL     OW 8128   0.033   4.284   6.701
 2483SOL    HW1 8129   0.119   4.260   6.668
 2483SOL    HW2 8130   0.037   4.267   6.795
 2484SOL     OW 8131   0.175   4.236   7.302
 2484SOL    HW1 8132   0.238   4.197   7.241
 2484SOL    HW2 8133   0.146   4.317   7.259
 2485SOL     OW 8134   1.376   4.663   7.245
 2485SOL    HW1 8135   1.397   4.756   7.242
 2485SOL    HW2 8136   1.373   4.637   7.153
 2486SOL     OW 8137   0.816   4.293   5.946
 2486SOL    HW1 8138   0.820   4.218   5.886
 2486SOL    HW2 8139   0.742   4.345   5.914
 2487SOL     OW 8140   1.642   4.325   6.772
 2487SOL    HW1 8141   1.632   4.266   6.847
 2487SOL    HW2 8142   1.729   4.306   6.738
 2488SOL     OW 8143   0.209   5.279   7.318
 2488SOL    HW1 8144   0.163   0.018   7.392
 2488SOL    HW2 8145   0.215   5.186   7.341
 2489SOL     OW 8146   0.701   4.174   6.846
 2489SOL    HW1 8147   0.649   4.100   6.817
 2489SOL    HW2 8148   0.697   4.237   6.774
 2490SOL     OW 8149   0.465   4.217   5.772
 2490SOL    HW1 8150   0.525   4.289   5.793
 2490SOL    HW2 8151   0.380   4.260   5.760
 2491SOL     OW 8152   0.151   4.861   7.058
 2491SOL    HW1 8153   0.147   4.811   7.140
 2491SOL    HW2 8154   0.161   4.794   6.990
 2492SOL     OW 8155   1.327   4.770   6.808
 2492SOL    HW1 8156   1.350   4.707   6.740
 2492SOL    HW2 8157   1.256   4.822   6.771
 2493SOL     OW 8158   1.310   4.582   5.892
 2493SOL    HW1 8159   1.235   4.550   5.942
 2493SOL    HW2 8160   1.286   4.567   5.801
 2494SOL     OW 8161   0.076   4.919   6.616
 2494SOL    HW1 8162   0.065   4.959   6.702
 2494SOL    HW2 8163   5.289   4.924   6.576
 2495SOL     OW 8164   0.751   0.036   7.296
 2495SOL    HW1 8165   0.659   0.060   7.305
 2495SOL    HW2 8166   0.775   0.061   7.207
 2496SOL     OW 8167   1.719   3.870   6.095
 2496SOL    HW1 8168   1.792   3.856   6.035
 2496SOL    HW2 8169   1.703   3.785   6.136
 2497SOL     OW 8170   1.277   4.650   6.258
 2497SOL    HW1 8171   1.350   4.588   6.265
 2497SOL    HW2 8172   1.311   4.721   6.205
 2498SOL     OW 8173   0.819   4.993   7.007
 2498SOL    HW1 8174   0.788   5.029   7.090
 2498SOL    HW2 8175   0.743   5.001   6.948
 2499SOL     OW 8176   1.841   3.897   6.553
 2499SOL    HW1 8177   1.870   3.810   6.526
 2499SOL    HW2 8178   1.754   3.907   6.513
 2500SOL     OW 8179   0.273   4.041   6.303
 2500SOL    HW1 8180   0.188   4.080   6.283
 2500SOL    HW2 8181   0.271   4.030   6.398
 2501SOL     OW 8182   0.824   4.728   6.957
 2501SOL    HW1 8183   0.870   4.720   6.873
 2501SOL    HW2 8184   0.828   4.821   6.978
 2502SOL     OW 8185   0.915   4.636   5.876
 2502SOL    HW1 8186   0.977   4.668   5.810
 2502SOL    HW2 8187   0.963   4.566   5.921
 2503SOL     OW 8188   0.365   5.029   7.087
 2503SOL    HW1 8189   0.366   5.098   7.021
 2503SOL    HW2 8190   0.291   4.973   7.062
 2504SOL     OW 8191   1.612   5.004   6.868
 2504SOL    HW1 8192   1.669   4.997   6.945
 2504SOL    HW2 8193   1.550   5.073   6.890
 2505SOL     OW 8194   1.054   4.833   6.297
 2505SOL    HW1 8195   0.982   4.782   6.334
 2505SOL    HW2 8196   1.116   4.768   6.264
 2506SOL     OW 8197   1.021   3.964   6.552
 2506SOL    HW1 8198   1.016   3.917   6.469
 2506SOL    HW2 8199   1.016   3.897   6.619
 2507SOL     OW 8200   1.722   4.116   6.967
 2507SOL    HW1 8201   1.794   4.179   6.965
 2507SOL    HW2 8202   1.751   4.045   6.910
 2508SOL     OW 8203   0.259   5.059   5.872
 2508SOL    HW1 8204   0.166   5.063   5.848
 2508SOL    HW2 8205   0.262   5.097   5.960
 2509SOL     OW 8206   0.116   4.742   7.305
 2509SOL    HW1 8207   0.044   4.705   7.357
 2509SOL    HW2 8208   0.195   4.708   7.347
 2510SOL     OW 8209   0.674   3.920   7.085
 2510SOL    HW1 8210   0.758   3.900   7.044
 2510SOL    HW2 8211   0.697   3.950   7.173
 2511SOL     OW 8212   0.082   4.074   5.627
 2511SOL    HW1 8213   0.003   4.025   5.603
 2511SOL    HW2 8214   0.098   4.131   5.552
 2512SOL     OW 8215   1.430   4.582   6.987
 2512SOL    HW1 8216   1.381   4.643   6.931
 2512SOL    HW2 8217   1.519   4.584   6.953
 2513SOL     OW 8218   0.056   3.857   5.829
 2513SOL    HW1 8219   0.055   3.952   5.821
 2513SOL    HW2 8220   0.146   3.832   5.807
 2514SOL     OW 8221   1.182   5.064   5.707
 2514SOL    HW1 8222   1.091   5.035   5.707
 2514SOL    HW2 8223   1.210   5.056   5.798
 2515SOL     OW 8224   0.619   4.555   7.022
 2515SOL    HW1 8225   0.676   4.630   7.005
 2515SOL    HW2 8226   0.679   4.481   7.029
 2516SOL     OW 8227   0.717   4.288   7.291
 2516SOL    HW1 8228   0.758   4.349   7.352
 2516SOL    HW2 8229   0.745   4.202   7.322
 2517SOL     OW 8230   1.473   4.923   7.218
 2517SOL    HW1 8231   1.460   4.936   7.312
 2517SOL    HW2 8232   1.567   4.937   7.204
 2518SOL     OW 8233   1.670   4.605   6.841
 2518SOL    HW1 8234   1.663   4.520   6.799
 2518SOL    HW2 8235   1.660   4.669   6.770
 2519SOL     OW 8236   1.217   4.043   6.044
 2519SOL    HW1 8237   1.280   3.972   6.035
 2519SOL    HW2 8238   1.246   4.092   6.121
 2520SOL     OW 8239   0.590   4.462   6.255
 2520SOL    HW1 8240   0.629   4.548   6.240
 2520SOL    HW2 8241   0.521   4.454   6.190
 2521SOL     OW 8242   1.762   4.086   7.237
 2521SOL    HW1 8243   1.746   4.101   7.144
 2521SOL    HW2 8244   1.690   4.029   7.265
 2522SOL     OW 8245   1.745   4.657   7.098
 2522SOL    HW1 8246   1.740   4.752   7.111
 2522SOL    HW2 8247   1.729   4.645   7.004
 2523SOL     OW 8248   0.849   5.094   5.605
 2523SOL    HW1 8249   0.830   5.095   5.699
 2523SOL    HW2 8250   0.866   5.186   5.584
 2524SOL     OW 8251   0.868   4.691   6.441
 2524SOL    HW1 8252   0.917   4.619   6.481
 2524SOL    HW2 8253   0.833   4.741   6.514
 2525SOL     OW 8254   1.080   4.713   5.675
 2525SOL    HW1 8255   1.057   4.763   5.597
 2525SOL    HW2 8256   1.154   4.659   5.649
 2526SOL     OW 8257   0.219   5.024   7.442
 2526SOL    HW1 8258   0.155   4.957   7.420
 2526SOL    HW2 8259   0.210   5.036   7.537
 2527SOL     OW 8260   0.082   4.929   6.241
 2527SOL    HW1 8261   0.101   4.908   6.333
 2527SOL    HW2 8262   0.168   4.940   6.201
 2528SOL     OW 8263   0.671   5.105   7.195
 2528SOL    HW1 8264   0.593   5.073   7.242
 2528SOL    HW2 8265   0.702   5.179   7.247
 2529SOL     OW 8266   1.813   3.909   6.824
 2529SOL    HW1 8267   1.823   3.815   6.838
 2529SOL    HW2 8268   1.822   3.919   6.729
 2530SOL     OW 8269   0.435   4.160   6.110
 2530SOL    HW1 8270   0.462   4.087   6.054
 2530SOL    HW2 8271   0.387   4.118   6.182
 2531SOL     OW 8272   1.707   5.224   6.705
 2531SOL    HW1 8273   1.633   5.207   6.646
 2531SOL    HW2 8274   1.713   5.144   6.758
 2532SOL     OW 8275   0.336   4.283   6.877
 2532SOL    HW1 8276   0.389   4.224   6.931
 2532SOL    HW2 8277   0.350   4.253   6.787
 2533SOL     OW 8278   1.432   3.949   6.704
 2533SOL    HW1 8279   1.457   3.869   6.750
 2533SOL    HW2 8280   1.380   3.998   6.768
 2534SOL     OW 8281   1.009   3.743   6.728
 2534SOL    HW1 8282   0.954   3.675   6.689
 2534SOL    HW2 8283   1.097   3.705   6.730
 2535SOL     OW 8284   0.804   5.047   5.870
 2535SOL    HW1 8285   0.742   4.976   5.889
 2535SOL    HW2 8286   0.857   5.054   5.949
 2536SOL     OW 8287   0.640   0.003   6.873
 2536SOL    HW1 8288   0.644   0.057   6.952
 2536SOL    HW2 8289   0.731   5.285   6.851
 2537SOL     OW 8290   1.352   3.778   5.751
 2537SOL    HW1 8291   1.380   3.714   5.685
 2537SOL    HW2 8292   1.265   3.748   5.778
 2538SOL     OW 8293   1.297   4.185   6.267
 2538SOL    HW1 8294   1.243   4.264   6.274
 2538SOL    HW2 8295   1.293   4.145   6.354
 2539SOL     OW 8296   1.587   3.926   6.464
 2539SOL    HW1 8297   1.526   3.946   6.535
 2539SOL    HW2 8298   1.586   4.004   6.409
 2540SOL     OW 8299   0.047   4.790   5.876
 2540SOL    HW1 8300   0.137   4.759   5.866
 2540SOL    HW2 8301   0.000   4.716   5.913
 2541SOL     OW 8302   0.230   4.355   7.566
 2541SOL    HW1 8303   0.155   4.315   7.611
 2541SOL    HW2 8304   0.222   4.325   7.475
 2542SOL     OW 8305   1.767   4.322   7.679
 2542SOL    HW1 8306   1.747   4.318   7.586
 2542SOL    HW2 8307   1.726   4.244   7.717
 2543SOL     OW 8308   0.279   0.133   7.958
 2543SOL    HW1 8309   0.242   0.210   7.999
 2543SOL    HW2 8310   0.287   0.157   7.865
 2544SOL     OW 8311   0.225   5.158   7.990
 2544SOL    HW1 8312   0.233   5.253   7.994
 2544SOL    HW2 8313   0.156   5.136   8.053
 2545SOL     OW 8314   0.583   4.707   7.581
 2545SOL    HW1 8315   0.629   4.755   7.512
 2545SOL    HW2 8316   0.624   4.736   7.662
 2546SOL     OW 8317   0.002   5.298   7.524
 2546SOL    HW1 8318   0.016   5.211   7.561
 2546SOL    HW2 8319   0.019   0.058   7.596
 2547SOL     OW 8320   1.682   4.591   8.034
 2547SOL    HW1 8321   1.762   4.602   0.006
 2547SOL    HW2 8322   1.671   4.675   7.990
 2548SOL     OW 8323   1.656   4.825   7.876
 2548SOL    HW1 8324   1.744   4.844   7.844
 2548SOL    HW2 8325   1.636   4.896   7.938
 2549SOL     OW 8326   0.800   3.719   7.938
 2549SOL    HW1 8327   0.849   3.799   7.922
 2549SOL    HW2 8328   0.709   3.748   7.948
 2550SOL     OW 8329   1.532   4.721   7.648
 2550SOL    HW1 8330   1.466   4.660   7.681
 2550SOL    HW2 8331   1.576   4.754   7.726
 2551SOL     OW 8332   0.589   4.448   7.708
 2551SOL    HW1 8333   0.596   4.529   7.659
 2551SOL    HW2 8334   0.534   4.469   7.783
 2552SOL     OW 8335   0.053   4.541   0.203
 2552SOL    HW1 8336   0.124   4.488   0.166
 2552SOL    HW2 8337   0.031   4.603   0.133
 2553SOL     OW 8338   0.882   4.070   7.637
 2553SOL    HW1 8339   0.926   4.131   7.578
 2553SOL    HW2 8340   0.916   3.984   7.614
 2554SOL     OW 8341   0.318   4.673   7.693
 2554SOL    HW1 8342   0.399   4.698   7.650
 2554SOL    HW2 8343   0.295   4.589   7.653
 2555SOL     OW 8344   1.083   0.192   7.647
 2555SOL    HW1 8345   1.067   0.125   7.713
 2555SOL    HW2 8346   1.096   0.143   7.566
 2556SOL     OW 8347   1.626   5.100   7.551
 2556SOL    HW1 8348   1.613   5.180   7.499
 2556SOL    HW2 8349   1.557   5.041   7.522
 2557SOL     OW 8350   1.416   3.855   7.864
 2557SOL    HW1 8351   1.403   3.820   7.776
 2557SOL    HW2 8352   1.510   3.853   7.878
 2558SOL     OW 8353   0.380   4.424   7.922
 2558SOL    HW1 8354   0.399   4.330   7.927
 2558SOL    HW2 8355   0.286   4.429   7.941
 2559SOL     OW 8356   0.627   3.843   7.559
 2559SOL    HW1 8357   0.704   3.786   7.568
 2559SOL    HW2 8358   0.584   3.813   7.479
 2560SOL     OW 8359   0.527   3.799   7.961
 2560SOL    HW1 8360   0.440   3.804   8.000
 2560SOL    HW2 8361   0.528   3.869   7.896
 2561SOL     OW 8362   1.428   4.925   7.488
 2561SOL    HW1 8363   1.458   4.850   7.539
 2561SOL    HW2 8364   1.340   4.943   7.521
 2562SOL     OW 8365   0.306   3.768   7.619
 2562SOL    HW1 8366   0.368   3.832   7.585
 2562SOL    HW2 8367   0.361   3.705   7.667
 2563SOL     OW 8368   0.944   3.949   7.911
 2563SOL    HW1 8369   0.900   4.014   7.856
 2563SOL    HW2 8370   1.035   3.979   7.914
 2564SOL     OW 8371   0.448   4.883   0.090
 2564SOL    HW1 8372   0.375   4.902   0.150
 2564SOL    HW2 8373   0.405   4.863   0.006
 2565SOL     OW 8374   1.025   4.266   7.467
 2565SOL    HW1 8375   0.981   4.349   7.450
 2565SOL    HW2 8376   1.086   4.286   7.538
 2566SOL     OW 8377   1.870   4.541   7.802
 2566SOL    HW1 8378   1.868   4.511   7.893
 2566SOL    HW2 8379   1.831   4.469   7.752
 2567SOL     OW 8380   0.477   5.147   7.602
 2567SOL    HW1 8381   0.417   5.095   7.656
 2567SOL    HW2 8382   0.480   5.100   7.518
 2568SOL     OW 8383   1.394   4.296   7.519
 2568SOL    HW1 8384   1.333   4.276   7.590
 2568SOL    HW2 8385   1.478   4.262   7.549
 2569SOL     OW 8386   0.527   3.989   7.770
 2569SOL    HW1 8387   0.570   3.939   7.701
 2569SOL    HW2 8388   0.503   4.072   7.729
 2570SOL     OW 8389   0.706   4.781   7.815
 2570SOL    HW1 8390   0.690   4.771   7.909
 2570SOL    HW2 8391   0.787   4.732   7.799
 2571SOL     OW 8392   0.347   4.818   7.928
 2571SOL    HW1 8393   0.342   4.902   7.882
 2571SOL    HW2 8394   0.348   4.753   7.858
 2572SOL     OW 8395   1.226   5.115   7.831
 2572SOL    HW1 8396   1.311   5.124   7.873
 2572SOL    HW2 8397   1.175   5.061   7.892
 2573SOL     OW 8398   1.587   4.352   7.921
 2573SOL    HW1 8399   1.574   4.411   7.995
 2573SOL    HW2 8400   1.627   4.407   7.854
 2574SOL     OW 8401   1.204   4.251   7.716
 2574SOL    HW1 8402   1.207   4.167   7.762
 2574SOL    HW2 8403   1.177   4.314   7.782
 2575SOL     OW 8404   1.619   4.103   7.814
 2575SOL    HW1 8405   1.640   4.036   7.879
 2575SOL    HW2 8406   1.593   4.179   7.866
 2576SOL     OW 8407   1.529   3.999   7.575
 2576SOL    HW1 8408   1.464   3.933   7.601
 2576SOL    HW2 8409   1.562   4.034   7.658
 2577SOL     OW 8410   1.294   4.551   7.481
 2577SOL    HW1 8411   1.335   4.465   7.483
 2577SOL    HW2 8412   1.324   4.591   7.399
 2578SOL     OW 8413   0.004   5.051   7.655
 2578SOL    HW1 8414   5.225   5.043   7.602
 2578SOL    HW2 8415   0.017   4.964   7.693
 2579SOL     OW 8416   0.839   4.324   7.761
 2579SOL    HW1 8417   0.831   4.232   7.733
 2579SOL    HW2 8418   0.749   4.356   7.762
 2580SOL     OW 8419   0.462   4.217   7.638
 2580SOL    HW1 8420   0.523   4.289   7.654
 2580SOL    HW2 8421   0.377   4.259   7.624
 2581SOL     OW 8422   1.310   4.578   7.755
 2581SOL    HW1 8423   1.223   4.577   7.794
 2581SOL    HW2 8424   1.294   4.566   7.661
 2582SOL     OW 8425   1.712   3.870   7.947
 2582SOL    HW1 8426   1.789   3.862   7.892
 2582SOL    HW2 8427   1.714   3.792   8.003
 2583SOL     OW 8428   0.926   4.635   7.756
 2583SOL    HW1 8429   0.980   4.660   7.681
 2583SOL    HW2 8430   0.921   4.539   7.751
 2584SOL     OW 8431   0.259   5.061   7.745
 2584SOL    HW1 8432   0.167   5.068   7.720
 2584SOL    HW2 8433   0.264   5.099   7.832
 2585SOL     OW 8434   0.081   4.066   7.488
 2585SOL    HW1 8435   5.298   4.025   7.463
 2585SOL    HW2 8436   0.099   4.128   7.418
 2586SOL     OW 8437   0.081   3.860   7.737
 2586SOL    HW1 8438   0.066   3.948   7.702
 2586SOL    HW2 8439   0.154   3.825   7.686
 2587SOL     OW 8440   1.181   5.059   7.565
 2587SOL    HW1 8441   1.089   5.034   7.562
 2587SOL    HW2 8442   1.199   5.073   7.657
 2588SOL     OW 8443   1.215   4.042   7.903
 2588SOL    HW1 8444   1.288   3.981   7.892
 2588SOL    HW2 8445   1.236   4.089   7.984
 2589SOL     OW 8446   0.624   4.465   8.047
 2589SOL    HW1 8447   0.629   4.542   0.023
 2589SOL    HW2 8448   0.532   4.460   8.020
 2590SOL     OW 8449   0.851   5.094   7.466
 2590SOL    HW1 8450   0.833   5.094   7.560
 2590SOL    HW2 8451   0.865   5.186   7.444
 2591SOL     OW 8452   1.074   4.704   7.538
 2591SOL    HW1 8453   1.054   4.759   7.463
 2591SOL    HW2 8454   1.152   4.654   7.511
 2592SOL     OW 8455   0.393   4.155   7.979
 2592SOL    HW1 8456   0.437   4.095   7.918
 2592SOL    HW2 8457   0.436   4.140   8.063
 2593SOL     OW 8458   0.806   5.047   7.731
 2593SOL    HW1 8459   0.748   4.973   7.750
 2593SOL    HW2 8460   0.825   5.086   7.816
 2594SOL     OW 8461   1.352   3.777   7.610
 2594SOL    HW1 8462   1.382   3.710   7.547
 2594SOL    HW2 8463   1.266   3.747   7.638
 2595SOL     OW 8464   0.049   4.792   7.724
 2595SOL    HW1 8465   0.138   4.758   7.723
 2595SOL    HW2 8466   0.001   4.731   7.780
 2596SOL     OW 8467   2.079   0.624   0.120
 2596SOL    HW1 8468   2.001   0.590   0.162
 2596SOL    HW2 8469   2.105   0.557   0.057
 2597SOL     OW 8470   2.080   0.284   0.993
 2597SOL    HW1 8471   2.109   0.249   1.077
 2597SOL    HW2 8472   1.995   0.243   0.978
 2598SOL     OW 8473   1.866   0.386   0.638
 2598SOL    HW1 8474   1.782   0.408   0.678
 2598SOL    HW2 8475   1.848   0.308   0.586
 2599SOL     OW 8476   2.429   1.288   1.175
 2599SOL    HW1 8477   2.341   1.291   1.137
 2599SOL    HW2 8478   2.444   1.376   1.208
 2600SOL     OW 8479   3.423   1.512   0.707
 2600SOL    HW1 8480   3.380   1.491   0.790
 2600SOL    HW2 8481   3.351   1.515   0.644
 2601SOL     OW 8482   2.993   0.698   0.702
 2601SOL    HW1 8483   3.042   0.779   0.687
 2601SOL    HW2 8484   2.946   0.713   0.784
 2602SOL     OW 8485   3.633   0.599   0.231
 2602SOL    HW1 8486   3.590   0.604   0.146
 2602SOL    HW2 8487   3.592   0.525   0.275
 2603SOL     OW 8488   2.617   1.142   1.040
 2603SOL    HW1 8489   2.549   1.177   1.097
 2603SOL    HW2 8490   2.653   1.219   0.996
 2604SOL     OW 8491   2.728   0.777   1.822
 2604SOL    HW1 8492   2.716   0.849   1.885
 2604SOL    HW2 8493   2.752   0.820   1.740
 2605SOL     OW 8494   2.547   1.002   0.649
 2605SOL    HW1 8495   2.612   0.991   0.718
 2605SOL    HW2 8496   2.478   1.055   0.690
 2606SOL     OW 8497   2.572   1.151   1.812
 2606SOL    HW1 8498   2.620   1.229   1.839
 2606SOL    HW2 8499   2.489   1.184   1.777
 2607SOL     OW 8500   2.192   1.426   1.068
 2607SOL    HW1 8501   2.120   1.388   1.018
 2607SOL    HW2 8502   2.242   1.476   1.003
 2608SOL     OW 8503   3.323   1.499   1.354
 2608SOL    HW1 8504   3.373   1.580   1.364
 2608SOL    HW2 8505   3.262   1.500   1.427
 2609SOL     OW 8506   2.306   0.398   1.486
 2609SOL    HW1 8507   2.381   0.339   1.484
 2609SOL    HW2 8508   2.230   0.341   1.501
 2610SOL     OW 8509   3.473   0.451   0.738
 2610SOL    HW1 8510   3.394   0.473   0.687
 2610SOL    HW2 8511   3.490   0.530   0.790
 2611SOL     OW 8512   2.082   1.715   0.472
 2611SOL    HW1 8513   2.104   1.791   0.525
 2611SOL    HW2 8514   2.156   1.706   0.412
 2612SOL     OW 8515   2.998   1.342   1.692
 2612SOL    HW1 8516   3.039   1.337   1.779
 2612SOL    HW2 8517   2.946   1.262   1.686
 2613SOL     OW 8518   2.089   1.441   0.530
 2613SOL    HW1 8519   2.074   1.535   0.535
 2613SOL    HW2 8520   2.030   1.404   0.596
 2614SOL     OW 8521   2.119   1.090   0.891
 2614SOL    HW1 8522   2.116   1.003   0.932
 2614SOL    HW2 8523   2.061   1.144   0.945
 2615SOL     OW 8524   2.472   1.791   1.427
 2615SOL    HW1 8525   2.392   1.773   1.475
 2615SOL    HW2 8526   2.496   1.880   1.454
 2616SOL     OW 8527   2.490   0.961   0.133
 2616SOL    HW1 8528   2.440   1.038   0.108
 2616SOL    HW2 8529   2.542   0.990   0.209
 2617SOL     OW 8530   3.448   0.135   1.456
 2617SOL    HW1 8531   3.470   0.220   1.417
 2617SOL    HW2 8532   3.446   0.152   1.550
 2618SOL     OW 8533   1.976   0.651   0.562
 2618SOL    HW1 8534   1.948   0.562   0.583
 2618SOL    HW2 8535   1.969   0.699   0.644
 2619SOL     OW 8536   3.707   1.758   0.332
 2619SOL    HW1 8537   3.772   1.728   0.396
 2619SOL    HW2 8538   3.732   1.849   0.314
 2620SOL     OW 8539   1.891   1.596   0.111
 2620SOL    HW1 8540   1.878   1.507   0.145
 2620SOL    HW2 8541   1.875   1.653   0.186
 2621SOL     OW 8542   3.551   0.919   0.644
 2621SOL    HW1 8543   3.633   0.876   0.621
 2621SOL    HW2 8544   3.528   0.970   0.566
 2622SOL     OW 8545   3.508   1.105   0.434
 2622SOL    HW1 8546   3.588   1.119   0.385
 2622SOL    HW2 8547   3.513   1.167   0.507
 2623SOL     OW 8548   1.985   0.744   1.584
 2623SOL    HW1 8549   2.076   0.769   1.593
 2623SOL    HW2 8550   1.936   0.826   1.593
 2624SOL     OW 8551   2.475   1.386   0.735
 2624SOL    HW1 8552   2.430   1.302   0.744
 2624SOL    HW2 8553   2.459   1.412   0.644
 2625SOL     OW 8554   3.151   1.238   1.423
 2625SOL    HW1 8555   3.183   1.171   1.363
 2625SOL    HW2 8556   3.208   1.232   1.500
 2626SOL     OW 8557   2.673   0.027   0.529
 2626SOL    HW1 8558   2.702   0.113   0.499
 2626SOL    HW2 8559   2.578   0.031   0.523
 2627SOL     OW 8560   2.052   0.967   1.270
 2627SOL    HW1 8561   2.137   0.925   1.256
 2627SOL    HW2 8562   1.989   0.911   1.224
 2628SOL     OW 8563   3.372   1.006   0.212
 2628SOL    HW1 8564   3.310   0.941   0.245
 2628SOL    HW2 8565   3.424   1.031   0.288
 2629SOL     OW 8566   3.047   1.806   1.622
 2629SOL    HW1 8567   3.058   1.865   1.547
 2629SOL    HW2 8568   3.063   1.719   1.587
 2630SOL     OW 8569   2.189   0.266   1.811
 2630SOL    HW1 8570   2.241   0.341   1.839
 2630SOL    HW2 8571   2.103   0.280   1.850
 2631SOL     OW 8572   3.328   1.420   0.951
 2631SOL    HW1 8573   3.260   1.434   1.017
 2631SOL    HW2 8574   3.316   1.328   0.924
 2632SOL     OW 8575   3.521   1.740   0.581
 2632SOL    HW1 8576   3.500   1.712   0.492
 2632SOL    HW2 8577   3.496   1.666   0.637
 2633SOL     OW 8578   2.460   0.714   0.283
 2633SOL    HW1 8579   2.478   0.791   0.229
 2633SOL    HW2 8580   2.395   0.744   0.346
 2634SOL     OW 8581   3.139   0.347   0.932
 2634SOL    HW1 8582   3.049   0.318   0.944
 2634SOL    HW2 8583   3.189   0.296   0.996
 2635SOL     OW 8584   3.448   1.671   0.319
 2635SOL    HW1 8585   3.539   1.700   0.312
 2635SOL    HW2 8586   3.422   1.654   0.229
 2636SOL     OW 8587   2.656   0.618   1.450
 2636SOL    HW1 8588   2.629   0.597   1.539
 2636SOL    HW2 8589   2.614   0.552   1.396
 2637SOL     OW 8590   3.257   0.475   1.678
 2637SOL    HW1 8591   3.259   0.520   1.763
 2637SOL    HW2 8592   3.320   0.404   1.687
 2638SOL     OW 8593   2.817   0.888   1.582
 2638SOL    HW1 8594   2.871   0.817   1.547
 2638SOL    HW2 8595   2.769   0.921   1.506
 2639SOL     OW 8596   2.856   0.417   1.235
 2639SOL    HW1 8597   2.771   0.438   1.274
 2639SOL    HW2 8598   2.835   0.368   1.156
 2640SOL     OW 8599   2.914   0.698   0.427
 2640SOL    HW1 8600   2.929   0.691   0.522
 2640SOL    HW2 8601   2.832   0.652   0.413
 2641SOL     OW 8602   1.951   0.821   0.776
 2641SOL    HW1 8603   2.032   0.814   0.827
 2641SOL    HW2 8604   1.908   0.899   0.811
 2642SOL     OW 8605   1.989   1.849   1.578
 2642SOL    HW1 8606   1.990   1.828   1.671
 2642SOL    HW2 8607   1.897   1.839   1.552
 2643SOL     OW 8608   2.749   0.359   0.203
 2643SOL    HW1 8609   2.792   0.406   0.132
 2643SOL    HW2 8610   2.730   0.272   0.166
 2644SOL     OW 8611   3.570   0.575   1.828
 2644SOL    HW1 8612   3.533   0.648   1.780
 2644SOL    HW2 8613   3.599   0.514   1.760
 2645SOL     OW 8614   3.239   1.142   0.542
 2645SOL    HW1 8615   3.316   1.128   0.488
 2645SOL    HW2 8616   3.185   1.204   0.492
 2646SOL     OW 8617   2.387   0.201   0.883
 2646SOL    HW1 8618   2.410   0.217   0.975
 2646SOL    HW2 8619   2.410   0.283   0.838
 2647SOL     OW 8620   2.868   1.445   0.473
 2647SOL    HW1 8621   2.829   1.517   0.423
 2647SOL    HW2 8622   2.849   1.466   0.564
 2648SOL     OW 8623   2.217   1.808   0.861
 2648SOL    HW1 8624   2.259   1.723   0.869
 2648SOL    HW2 8625   2.286   1.872   0.879
 2649SOL     OW 8626   3.661   1.057   0.868
 2649SOL    HW1 8627   3.607   1.038   0.792
 2649SOL    HW2 8628   3.599   1.063   0.941
 2650SOL     OW 8629   3.090   1.539   1.513
 2650SOL    HW1 8630   3.076   1.466   1.574
 2650SOL    HW2 8631   3.027   1.523   1.443
 2651SOL     OW 8632   2.188   0.943   0.254
 2651SOL    HW1 8633   2.259   0.982   0.203
 2651SOL    HW2 8634   2.187   0.851   0.226
 2652SOL     OW 8635   3.340   0.743   0.727
 2652SOL    HW1 8636   3.331   0.699   0.811
 2652SOL    HW2 8637   3.418   0.798   0.736
 2653SOL     OW 8638   2.328   1.265   1.737
 2653SOL    HW1 8639   2.301   1.269   1.646
 2653SOL    HW2 8640   2.246   1.263   1.787
 2654SOL     OW 8641   2.969   1.781   0.224
 2654SOL    HW1 8642   2.913   1.740   0.290
 2654SOL    HW2 8643   2.990   1.710   0.163
 2655SOL     OW 8644   2.059   0.278   1.503
 2655SOL    HW1 8645   1.980   0.332   1.499
 2655SOL    HW2 8646   2.051   0.229   1.585
 2656SOL     OW 8647   3.496   1.373   0.082
 2656SOL    HW1 8648   3.454   1.459   0.082
 2656SOL    HW2 8649   3.424   1.312   0.064
 2657SOL     OW 8650   2.326   1.738   0.323
 2657SOL    HW1 8651   2.369   1.796   0.386
 2657SOL    HW2 8652   2.397   1.710   0.264
 2658SOL     OW 8653   3.277   0.099   0.446
 2658SOL    HW1 8654   3.268   0.079   0.353
 2658SOL    HW2 8655   3.368   0.127   0.456
 2659SOL     OW 8656   2.118   1.792   1.231
 2659SOL    HW1 8657   2.169   1.727   1.279
 2659SOL    HW2 8658   2.108   1.755   1.144
 2660SOL     OW 8659   2.799   1.698   0.899
 2660SOL    HW1 8660   2.877   1.647   0.920
 2660SOL    HW2 8661   2.756   1.649   0.830
 2661SOL     OW 8662   2.248   0.698   0.476
 2661SOL    HW1 8663   2.273   0.606   0.487
 2661SOL    HW2 8664   2.155   0.701   0.500
 2662SOL     OW 8665   3.401   0.228   1.723
 2662SOL    HW1 8666   3.408   0.245   1.817
 2662SOL    HW2 8667   3.326   0.169   1.716
 2663SOL     OW 8668   2.487   0.137   0.124
 2663SOL    HW1 8669   2.578   0.109   0.134
 2663SOL    HW2 8670   2.459   0.098   0.041
 2664SOL     OW 8671   2.643   0.312   1.767
 2664SOL    HW1 8672   2.701   0.236   1.768
 2664SOL    HW2 8673   2.594   0.307   1.849
 2665SOL     OW 8674   2.738   1.521   1.194
 2665SOL    HW1 8675   2.723   1.485   1.107
 2665SOL    HW2 8676   2.808   1.467   1.230
 2666SOL     OW 8677   3.203   0.589   1.432
 2666SOL    HW1 8678   3.233   0.558   1.517
 2666SOL    HW2 8679   3.239   0.677   1.425
 2667SOL     OW 8680   2.677   1.395   0.939
 2667SOL    HW1 8681   2.761   1.384   0.896
 2667SOL    HW2 8682   2.613   1.396   0.868
 2668SOL     OW 8683   2.789   0.510   0.903
 2668SOL    HW1 8684   2.765   0.502   0.810
 2668SOL    HW2 8685   2.821   0.423   0.927
 2669SOL     OW 8686   2.404   0.062   0.511
 2669SOL    HW1 8687   2.317   0.060   0.552
 2669SOL    HW2 8688   2.398   0.131   0.446
 2670SOL     OW 8689   3.296   1.199   0.036
 2670SOL    HW1 8690   3.319   1.125   0.092
 2670SOL    HW2 8691   3.207   1.223   0.065
 2671SOL     OW 8692   2.162   0.069   0.205
 2671SOL    HW1 8693   2.219   0.139   0.173
 2671SOL    HW2 8694   2.215   5.290   0.197
 2672SOL     OW 8695   2.806   0.257   0.454
 2672SOL    HW1 8696   2.779   0.303   0.375
 2672SOL    HW2 8697   2.899   0.279   0.465
 2673SOL     OW 8698   2.943   0.681   1.459
 2673SOL    HW1 8699   2.874   0.615   1.465
 2673SOL    HW2 8700   3.024   0.631   1.453
 2674SOL     OW 8701   3.085   1.570   0.794
 2674SOL    HW1 8702   3.102   1.636   0.728
 2674SOL    HW2 8703   3.154   1.583   0.860
 2675SOL     OW 8704   2.330   1.151   0.734
 2675SOL    HW1 8705   2.261   1.130   0.797
 2675SOL    HW2 8706   2.289   1.134   0.649
 2676SOL     OW 8707   3.130   1.794   0.607
 2676SOL    HW1 8708   3.180   1.857   0.554
 2676SOL    HW2 8709   3.065   1.847   0.652
 2677SOL     OW 8710   2.891   0.528   0.031
 2677SOL    HW1 8711   2.852   0.610   0.001
 2677SOL    HW2 8712   2.955   0.556   0.098
 2678SOL     OW 8713   1.941   0.553   1.393
 2678SOL    HW1 8714   2.032   0.553   1.365
 2678SOL    HW2 8715   1.935   0.624   1.457
 2679SOL     OW 8716   2.418   0.238   1.158
 2679SOL    HW1 8717   2.449   0.152   1.186
 2679SOL    HW2 8718   2.326   0.239   1.185
 2680SOL     OW 8719   2.729   0.460   0.639
 2680SOL    HW1 8720   2.686   0.515   0.573
 2680SOL    HW2 8721   2.751   0.379   0.594
 2681SOL     OW 8722   2.839   0.062   0.763
 2681SOL    HW1 8723   2.775   0.055   0.691
 2681SOL    HW2 8724   2.850   5.271   0.792
 2682SOL     OW 8725   3.299   1.163   0.857
 2682SOL    HW1 8726   3.230   1.096   0.856
 2682SOL    HW2 8727   3.323   1.174   0.765
 2683SOL     OW 8728   3.329   0.606   0.978
 2683SOL    HW1 8729   3.279   0.524   0.981
 2683SOL    HW2 8730   3.389   0.601   1.052
 2684SOL     OW 8731   3.710   0.815   0.387
 2684SOL    HW1 8732   3.762   0.762   0.448
 2684SOL    HW2 8733   3.679   0.752   0.321
 2685SOL     OW 8734   2.344   1.439   0.172
 2685SOL    HW1 8735   2.272   1.397   0.219
 2685SOL    HW2 8736   2.351   1.390   0.091
 2686SOL     OW 8737   3.533   1.265   0.647
 2686SOL    HW1 8738   3.628   1.269   0.661
 2686SOL    HW2 8739   3.502   1.354   0.668
 2687SOL     OW 8740   3.261   0.578   0.087
 2687SOL    HW1 8741   3.198   0.560   0.157
 2687SOL    HW2 8742   3.316   0.500   0.083
 2688SOL     OW 8743   2.385   0.268   0.329
 2688SOL    HW1 8744   2.426   0.212   0.262
 2688SOL    HW2 8745   2.369   0.351   0.284
 2689SOL     OW 8746   3.615   1.239   1.573
 2689SOL    HW1 8747   3.702   1.200   1.570
 2689SOL    HW2 8748   3.630   1.329   1.602
 2690SOL     OW 8749   2.921   1.354   1.334
 2690SOL    HW1 8750   2.846   1.323   1.385
 2690SOL    HW2 8751   2.997   1.312   1.375
 2691SOL     OW 8752   3.470   1.625   1.654
 2691SOL    HW1 8753   3.464   1.660   1.564
 2691SOL    HW2 8754   3.553   1.578   1.656
 2692SOL     OW 8755   2.991   1.204   1.106
 2692SOL    HW1 8756   2.932   1.241   1.171
 2692SOL    HW2 8757   2.958   1.235   1.022
 2693SOL     OW 8758   3.490   1.098   1.077
 2693SOL    HW1 8759   3.486   1.160   1.150
 2693SOL    HW2 8760   3.411   1.115   1.026
 2694SOL     OW 8761   2.766   0.106   1.390
 2694SOL    HW1 8762   2.797   0.072   1.305
 2694SOL    HW2 8763   2.844   0.148   1.427
 2695SOL     OW 8764   2.846   1.115   1.722
 2695SOL    HW1 8765   2.754   1.131   1.744
 2695SOL    HW2 8766   2.845   1.037   1.667
 2696SOL     OW 8767   2.577   1.063   0.380
 2696SOL    HW1 8768   2.559   1.045   0.472
 2696SOL    HW2 8769   2.654   1.011   0.360
 2697SOL     OW 8770   2.280   0.815   1.251
 2697SOL    HW1 8771   2.349   0.824   1.318
 2697SOL    HW2 8772   2.245   0.727   1.265
 2698SOL     OW 8773   3.129   0.379   1.273
 2698SOL    HW1 8774   3.162   0.456   1.319
 2698SOL    HW2 8775   3.039   0.401   1.250
 2699SOL     OW 8776   1.932   1.573   1.353
 2699SOL    HW1 8777   1.903   1.646   1.298
 2699SOL    HW2 8778   2.028   1.576   1.347
 2700SOL     OW 8779   2.207   1.110   0.492
 2700SOL    HW1 8780   2.213   1.182   0.429
 2700SOL    HW2 8781   2.215   1.031   0.438
 2701SOL     OW 8782   2.415   0.538   0.861
 2701SOL    HW1 8783   2.431   0.596   0.786
 2701SOL    HW2 8784   2.481   0.564   0.925
 2702SOL     OW 8785   3.109   1.347   0.394
 2702SOL    HW1 8786   3.165   1.419   0.422
 2702SOL    HW2 8787   3.022   1.370   0.425
 2703SOL     OW 8788   3.143   1.457   1.147
 2703SOL    HW1 8789   3.198   1.460   1.225
 2703SOL    HW2 8790   3.088   1.380   1.159
 2704SOL     OW 8791   3.445   0.625   0.481
 2704SOL    HW1 8792   3.395   0.675   0.546
 2704SOL    HW2 8793   3.479   0.692   0.422
 2705SOL     OW 8794   2.208   1.527   1.315
 2705SOL    HW1 8795   2.196   1.484   1.230
 2705SOL    HW2 8796   2.303   1.539   1.323
 2706SOL     OW 8797   2.276   0.744   1.602
 2706SOL    HW1 8798   2.338   0.789   1.544
 2706SOL    HW2 8799   2.318   0.660   1.620
 2707SOL     OW 8800   3.463   0.778   1.681
 2707SOL    HW1 8801   3.377   0.820   1.675
 2707SOL    HW2 8802   3.515   0.821   1.613
 2708SOL     OW 8803   2.907   0.116   1.784
 2708SOL    HW1 8804   2.932   0.196   1.737
 2708SOL    HW2 8805   2.912   0.047   1.718
 2709SOL     OW 8806   2.345   0.057   1.739
 2709SOL    HW1 8807   2.287   5.293   1.698
 2709SOL    HW2 8808   2.287   0.131   1.760
 2710SOL     OW 8809   2.445   0.873   1.031
 2710SOL    HW1 8810   2.476   0.963   1.031
 2710SOL    HW2 8811   2.389   0.867   1.108
 2711SOL     OW 8812   3.220   0.859   1.030
 2711SOL    HW1 8813   3.137   0.850   0.983
 2711SOL    HW2 8814   3.260   0.772   1.024
 2712SOL     OW 8815   3.065   0.527   0.270
 2712SOL    HW1 8816   3.073   0.447   0.323
 2712SOL    HW2 8817   3.023   0.590   0.328
 2713SOL     OW 8818   2.159   0.204   1.247
 2713SOL    HW1 8819   2.119   0.243   1.325
 2713SOL    HW2 8820   2.158   0.110   1.265
 2714SOL     OW 8821   1.908   1.311   1.276
 2714SOL    HW1 8822   1.941   1.256   1.348
 2714SOL    HW2 8823   1.915   1.400   1.309
 2715SOL     OW 8824   2.588   0.632   1.060
 2715SOL    HW1 8825   2.661   0.615   1.001
 2715SOL    HW2 8826   2.559   0.720   1.037
 2716SOL     OW 8827   3.596   0.960   1.852
 2716SOL    HW1 8828   3.550   0.898   1.795
 2716SOL    HW2 8829   3.537   0.973   1.926
 2717SOL     OW 8830   2.163   0.071   0.651
 2717SOL    HW1 8831   2.147   0.165   0.658
 2717SOL    HW2 8832   2.208   0.048   0.733
 2718SOL     OW 8833   3.483   0.378   0.368
 2718SOL    HW1 8834   3.510   0.312   0.431
 2718SOL    HW2 8835   3.457   0.453   0.421
 2719SOL     OW 8836   2.889   0.759   0.961
 2719SOL    HW1 8837   2.886   0.777   1.055
 2719SOL    HW2 8838   2.863   0.668   0.952
 2720SOL     OW 8839   2.844   1.566   1.717
 2720SOL    HW1 8840   2.829   1.610   1.633
 2720SOL    HW2 8841   2.887   1.484   1.693
 2721SOL     OW 8842   3.717   1.506   1.605
 2721SOL    HW1 8843   3.735   1.532   1.515
 2721SOL    HW2 8844   3.798   1.524   1.653
 2722SOL     OW 8845   2.215   0.916   1.808
 2722SOL    HW1 8846   2.297   0.935   1.854
 2722SOL    HW2 8847   2.240   0.854   1.740
 2723SOL     OW 8848   3.383   0.302   0.126
 2723SOL    HW1 8849   3.346   0.215   0.141
 2723SOL    HW2 8850   3.423   0.325   0.210
 2724SOL     OW 8851   3.157   0.824   0.021
 2724SOL    HW1 8852   3.195   0.738   0.039
 2724SOL    HW2 8853   3.216   0.865   8.038
 2725SOL     OW 8854   2.927   1.336   0.854
 2725SOL    HW1 8855   2.930   1.263   0.792
 2725SOL    HW2 8856   2.989   1.400   0.819
 2726SOL     OW 8857   2.171   0.809   0.947
 2726SOL    HW1 8858   2.264   0.830   0.941
 2726SOL    HW2 8859   2.169   0.719   0.980
 2727SOL     OW 8860   2.194   0.526   1.012
 2727SOL    HW1 8861   2.158   0.439   0.997
 2727SOL    HW2 8862   2.271   0.531   0.955
 2728SOL     OW 8863   2.997   0.378   1.688
 2728SOL    HW1 8864   2.950   0.432   1.750
 2728SOL    HW2 8865   3.085   0.417   1.684
 2729SOL     OW 8866   2.995   0.222   1.466
 2729SOL    HW1 8867   3.000   0.281   1.541
 2729SOL    HW2 8868   3.051   0.264   1.400
 2730SOL     OW 8869   1.873   1.324   0.190
 2730SOL    HW1 8870   1.786   1.338   0.152
 2730SOL    HW2 8871   1.871   1.234   0.222
 2731SOL     OW 8872   1.952   1.787   0.937
 2731SOL    HW1 8873   1.922   1.708   0.894
 2731SOL    HW2 8874   2.042   1.799   0.907
 2732SOL     OW 8875   2.358   1.574   0.905
 2732SOL    HW1 8876   2.427   1.635   0.930
 2732SOL    HW2 8877   2.403   1.510   0.849
 2733SOL     OW 8878   2.845   0.793   1.227
 2733SOL    HW1 8879   2.901   0.769   1.301
 2733SOL    HW2 8880   2.760   0.755   1.248
 2734SOL     OW 8881   1.897   0.544   1.117
 2734SOL    HW1 8882   1.977   0.529   1.066
 2734SOL    HW2 8883   1.927   0.548   1.208
 2735SOL     OW 8884   2.049   0.522   1.727
 2735SOL    HW1 8885   2.112   0.487   1.664
 2735SOL    HW2 8886   2.009   0.596   1.681
 2736SOL     OW 8887   3.239   0.939   1.659
 2736SOL    HW1 8888   3.260   1.032   1.657
 2736SOL    HW2 8889   3.236   0.913   1.566
 2737SOL     OW 8890   2.680   0.570   0.367
 2737SOL    HW1 8891   2.689   0.499   0.304
 2737SOL    HW2 8892   2.604   0.620   0.338
 2738SOL     OW 8893   3.504   0.602   1.186
 2738SOL    HW1 8894   3.493   0.542   1.260
 2738SOL    HW2 8895   3.591   0.581   1.152
 2739SOL     OW 8896   2.105   1.551   1.727
 2739SOL    HW1 8897   2.083   1.615   1.795
 2739SOL    HW2 8898   2.107   1.468   1.773
 2740SOL     OW 8899   2.561   0.452   1.260
 2740SOL    HW1 8900   2.510   0.378   1.227
 2740SOL    HW2 8901   2.560   0.516   1.189
 2741SOL     OW 8902   2.789   1.679   1.468
 2741SOL    HW1 8903   2.764   1.645   1.382
 2741SOL    HW2 8904   2.786   1.774   1.458
 2742SOL     OW 8905   2.330   0.492   0.177
 2742SOL    HW1 8906   2.398   0.557   0.196
 2742SOL    HW2 8907   2.247   0.538   0.193
 2743SOL     OW 8908   2.008   1.140   1.472
 2743SOL    HW1 8909   2.010   1.089   1.553
 2743SOL    HW2 8910   2.025   1.077   1.402
 2744SOL     OW 8911   3.188   1.047   1.223
 2744SOL    HW1 8912   3.211   0.984   1.156
 2744SOL    HW2 8913   3.118   1.099   1.184
 2745SOL     OW 8914   3.168   0.849   0.308
 2745SOL    HW1 8915   3.091   0.819   0.357
 2745SOL    HW2 8916   3.144   0.837   0.216
 2746SOL     OW 8917   3.633   1.744   1.150
 2746SOL    HW1 8918   3.694   1.770   1.080
 2746SOL    HW2 8919   3.609   1.654   1.129
 2747SOL     OW 8920   3.103   1.733   1.113
 2747SOL    HW1 8921   3.185   1.754   1.068
 2747SOL    HW2 8922   3.109   1.639   1.131
 2748SOL     OW 8923   1.946   1.267   1.012
 2748SOL    HW1 8924   1.932   1.279   1.106
 2748SOL    HW2 8925   1.873   1.212   0.984
 2749SOL     OW 8926   2.538   1.665   1.728
 2749SOL    HW1 8927   2.487   1.746   1.727
 2749SOL    HW2 8928   2.605   1.678   1.660
 2750SOL     OW 8929   2.755   0.086   0.139
 2750SOL    HW1 8930   2.803   0.078   0.056
 2750SOL    HW2 8931   2.774   0.005   0.186
 2751SOL     OW 8932   3.575   0.149   0.504
 2751SOL    HW1 8933   3.649   0.127   0.448
 2751SOL    HW2 8934   3.567   0.074   0.563
 2752SOL     OW 8935   3.252   1.568   0.486
 2752SOL    HW1 8936   3.315   1.601   0.422
 2752SOL    HW2 8937   3.204   1.646   0.514
 2753SOL     OW 8938   1.998   1.797   1.843
 2753SOL    HW1 8939   1.948   1.732   1.891
 2753SOL    HW2 8940   2.047   1.844   1.911
 2754SOL     OW 8941   3.139   0.926   0.672
 2754SOL    HW1 8942   3.213   0.865   0.678
 2754SOL    HW2 8943   3.173   0.998   0.619
 2755SOL     OW 8944   2.677   1.273   1.430
 2755SOL    HW1 8945   2.649   1.312   1.513
 2755SOL    HW2 8946   2.607   1.295   1.368
 2756SOL     OW 8947   2.538   1.621   0.156
 2756SOL    HW1 8948   2.544   1.627   0.061
 2756SOL    HW2 8949   2.477   1.548   0.172
 2757SOL     OW 8950   3.488   1.727   1.391
 2757SOL    HW1 8951   3.538   1.733   1.310
 2757SOL    HW2 8952   3.475   1.817   1.419
 2758SOL     OW 8953   3.707   0.157   0.957
 2758SOL    HW1 8954   3.707   0.062   0.944
 2758SOL    HW2 8955   3.621   0.185   0.929
 2759SOL     OW 8956   2.124   0.329   0.720
 2759SOL    HW1 8957   2.036   0.360   0.698
 2759SOL    HW2 8958   2.122   0.317   0.815
 2760SOL     OW 8959   3.019   1.582   0.052
 2760SOL    HW1 8960   3.034   1.489   0.071
 2760SOL    HW2 8961   3.029   1.588   8.037
 2761SOL     OW 8962   2.686   1.006   1.372
 2761SOL    HW1 8963   2.730   1.001   1.288
 2761SOL    HW2 8964   2.686   1.099   1.394
 2762SOL     OW 8965   2.781   0.915   0.299
 2762SOL    HW1 8966   2.835   0.939   0.223
 2762SOL    HW2 8967   2.828   0.841   0.339
 2763SOL     OW 8968   3.372   1.624   0.061
 2763SOL    HW1 8969   3.277   1.624   0.049
 2763SOL    HW2 8970   3.407   1.625   8.051
 2764SOL     OW 8971   2.231   1.303   1.492
 2764SOL    HW1 8972   2.217   1.380   1.437
 2764SOL    HW2 8973   2.154   1.248   1.475
 2765SOL     OW 8974   3.473   1.283   1.280
 2765SOL    HW1 8975   3.532   1.272   1.354
 2765SOL    HW2 8976   3.412   1.352   1.308
 2766SOL     OW 8977   2.914   1.107   0.707
 2766SOL    HW1 8978   2.843   1.055   0.746
 2766SOL    HW2 8979   2.976   1.042   0.674
 2767SOL     OW 8980   2.881   0.243   0.968
 2767SOL    HW1 8981   2.861   0.197   0.887
 2767SOL    HW2 8982   2.874   0.176   1.036
 2768SOL     OW 8983   2.465   1.488   0.480
 2768SOL    HW1 8984   2.509   1.437   0.412
 2768SOL    HW2 8985   2.395   1.534   0.434
 2769SOL     OW 8986   3.586   0.387   1.378
 2769SOL    HW1 8987   3.656   0.452   1.378
 2769SOL    HW2 8988   3.618   0.317   1.320
 2770SOL     OW 8989   2.129   1.320   0.294
 2770SOL    HW1 8990   2.043   1.331   0.253
 2770SOL    HW2 8991   2.122   1.365   0.378
 2771SOL     OW 8992   1.974   1.022   1.719
 2771SOL    HW1 8993   1.898   0.999   1.772
 2771SOL    HW2 8994   2.049   0.984   1.766
 2772SOL     OW 8995   2.534   0.211   1.488
 2772SOL    HW1 8996   2.618   0.194   1.445
 2772SOL    HW2 8997   2.558   0.261   1.567
 2773SOL     OW 8998   1.930   0.362   0.034
 2773SOL    HW1 8999   1.859   0.299   0.023
 2773SOL    HW2 9000   1.945   0.397   8.026
 2774SOL     OW 9001   3.292   0.858   1.400
 2774SOL    HW1 9002   3.243   0.919   1.345
 2774SOL    HW2 9003   3.381   0.861   1.366
 2775SOL     OW 9004   1.930   0.165   0.314
 2775SOL    HW1 9005   1.937   0.253   0.276
 2775SOL    HW2 9006   2.015   0.125   0.296
 2776SOL     OW 9007   3.047   1.319   0.121
 2776SOL    HW1 9008   2.952   1.307   0.120
 2776SOL    HW2 9009   3.070   1.320   0.214
 2777SOL     OW 9010   2.481   0.830   1.433
 2777SOL    HW1 9011   2.537   0.907   1.418
 2777SOL    HW2 9012   2.542   0.757   1.442
 2778SOL     OW 9013   3.346   1.776   0.978
 2778SOL    HW1 9014   3.370   1.836   0.908
 2778SOL    HW2 9015   3.428   1.758   1.023
 2779SOL     OW 9016   2.577   0.572   1.703
 2779SOL    HW1 9017   2.618   0.635   1.762
 2779SOL    HW2 9018   2.608   0.487   1.734
 2780SOL     OW 9019   3.333   1.200   1.632
 2780SOL    HW1 9020   3.321   1.214   1.726
 2780SOL    HW2 9021   3.427   1.215   1.617
 2781SOL     OW 9022   2.240   1.738   1.562
 2781SOL    HW1 9023   2.155   1.780   1.550
 2781SOL    HW2 9024   2.221   1.655   1.605
 2782SOL     OW 9025   3.532   0.881   1.255
 2782SOL    HW1 9026   3.525   0.796   1.213
 2782SOL    HW2 9027   3.522   0.945   1.184
 2783SOL     OW 9028   3.077   0.327   0.474
 2783SOL    HW1 9029   3.136   0.254   0.457
 2783SOL    HW2 9030   3.117   0.374   0.547
 2784SOL     OW 9031   2.450   0.738   0.670
 2784SOL    HW1 9032   2.491   0.823   0.654
 2784SOL    HW2 9033   2.382   0.731   0.603
 2785SOL     OW 9034   3.628   0.362   1.649
 2785SOL    HW1 9035   3.609   0.376   1.556
 2785SOL    HW2 9036   3.557   0.306   1.680
 2786SOL     OW 9037   3.607   0.934   1.512
 2786SOL    HW1 9038   3.604   1.028   1.525
 2786SOL    HW2 9039   3.591   0.922   1.418
 2787SOL     OW 9040   2.757   1.373   0.036
 2787SOL    HW1 9041   2.693   1.363   0.106
 2787SOL    HW2 9042   2.740   1.459   8.079
 2788SOL     OW 9043   2.523   1.791   0.945
 2788SOL    HW1 9044   2.504   1.881   0.920
 2788SOL    HW2 9045   2.618   1.783   0.938
 2789SOL     OW 9046   2.729   0.966   0.855
 2789SOL    HW1 9047   2.779   0.895   0.895
 2789SOL    HW2 9048   2.695   1.016   0.930
 2790SOL     OW 9049   2.939   0.977   0.086
 2790SOL    HW1 9050   2.927   1.038   0.013
 2790SOL    HW2 9051   3.017   0.926   0.062
 2791SOL     OW 9052   3.716   1.554   0.844
 2791SOL    HW1 9053   3.638   1.543   0.790
 2791SOL    HW2 9054   3.708   1.488   0.913
 2792SOL     OW 9055   2.087   1.303   1.856
 2792SOL    HW1 9056   2.020   1.242   1.827
 2792SOL    HW2 9057   2.070   1.316   1.949
 2793SOL     OW 9058   1.947   1.233   0.664
 2793SOL    HW1 9059   1.950   1.184   0.747
 2793SOL    HW2 9060   2.019   1.196   0.612
 2794SOL     OW 9061   2.542   1.403   1.626
 2794SOL    HW1 9062   2.463   1.360   1.659
 2794SOL    HW2 9063   2.538   1.491   1.664
 2795SOL     OW 9064   3.676   0.177   1.233
 2795SOL    HW1 9065   3.643   0.088   1.238
 2795SOL    HW2 9066   3.694   0.190   1.139
 2796SOL     OW 9067   2.287   0.438   0.522
 2796SOL    HW1 9068   2.324   0.366   0.471
 2796SOL    HW2 9069   2.244   0.396   0.596
 2797SOL     OW 9070   3.562   1.489   1.096
 2797SOL    HW1 9071   3.481   1.466   1.051
 2797SOL    HW2 9072   3.574   1.420   1.162
 2798SOL     OW 9073   2.190   0.556   1.290
 2798SOL    HW1 9074   2.246   0.501   1.345
 2798SOL    HW2 9075   2.211   0.528   1.201
 2799SOL     OW 9076   2.689   1.578   0.678
 2799SOL    HW1 9077   2.677   1.629   0.597
 2799SOL    HW2 9078   2.612   1.521   0.681
 2800SOL     OW 9079   3.290   0.218   1.117
 2800SOL    HW1 9080   3.327   0.144   1.164
 2800SOL    HW2 9081   3.241   0.268   1.183
 2801SOL     OW 9082   2.864   0.021   1.141
 2801SOL    HW1 9083   2.814   5.252   1.098
 2801SOL    HW2 9084   2.951   5.283   1.154
 2802SOL     OW 9085   2.631   1.328   0.309
 2802SOL    HW1 9086   2.600   1.238   0.323
 2802SOL    HW2 9087   2.714   1.332   0.357
 2803SOL     OW 9088   2.481   1.557   1.284
 2803SOL    HW1 9089   2.484   1.638   1.334
 2803SOL    HW2 9090   2.569   1.549   1.247
 2804SOL     OW 9091   3.255   0.044   0.169
 2804SOL    HW1 9092   3.247   0.027   0.076
 2804SOL    HW2 9093   3.168   0.071   0.197
 2805SOL     OW 9094   3.170   0.467   0.690
 2805SOL    HW1 9095   3.112   0.543   0.693
 2805SOL    HW2 9096   3.159   0.425   0.775
 2806SOL     OW 9097   3.456   0.216   0.882
 2806SOL    HW1 9098   3.390   0.227   0.950
 2806SOL    HW2 9099   3.449   0.294   0.828
 2807SOL     OW 9100   1.905   1.067   0.304
 2807SOL    HW1 9101   2.001   1.066   0.306
 2807SOL    HW2 9102   1.879   0.984   0.344
 2808SOL     OW 9103   2.744   1.654   0.348
 2808SOL    HW1 9104   2.676   1.636   0.283
 2808SOL    HW2 9105   2.712   1.730   0.397
 2809SOL     OW 9106   2.090   0.625   1.985
 2809SOL    HW1 9107   2.001   0.622   2.020
 2809SOL    HW2 9108   2.081   0.598   1.893
 2810SOL     OW 9109   2.080   0.284   2.855
 2810SOL    HW1 9110   2.109   0.249   2.939
 2810SOL    HW2 9111   1.995   0.243   2.839
 2811SOL     OW 9112   1.866   0.386   2.500
 2811SOL    HW1 9113   1.782   0.407   2.540
 2811SOL    HW2 9114   1.848   0.308   2.447
 2812SOL     OW 9115   2.429   1.286   3.037
 2812SOL    HW1 9116   2.342   1.291   2.997
 2812SOL    HW2 9117   2.445   1.375   3.069
 2813SOL     OW 9118   3.423   1.512   2.569
 2813SOL    HW1 9119   3.380   1.491   2.652
 2813SOL    HW2 9120   3.352   1.516   2.505
 2814SOL     OW 9121   2.993   0.698   2.564
 2814SOL    HW1 9122   3.042   0.779   2.549
 2814SOL    HW2 9123   2.946   0.713   2.646
 2815SOL     OW 9124   3.628   0.606   2.091
 2815SOL    HW1 9125   3.608   0.598   1.997
 2815SOL    HW2 9126   3.594   0.526   2.129
 2816SOL     OW 9127   2.617   1.142   2.903
 2816SOL    HW1 9128   2.548   1.177   2.960
 2816SOL    HW2 9129   2.652   1.219   2.858
 2817SOL     OW 9130   2.728   0.777   3.684
 2817SOL    HW1 9131   2.716   0.849   3.746
 2817SOL    HW2 9132   2.752   0.820   3.602
 2818SOL     OW 9133   2.548   1.003   2.509
 2818SOL    HW1 9134   2.613   0.991   2.578
 2818SOL    HW2 9135   2.479   1.055   2.549
 2819SOL     OW 9136   2.571   1.150   3.674
 2819SOL    HW1 9137   2.620   1.229   3.700
 2819SOL    HW2 9138   2.489   1.183   3.639
 2820SOL     OW 9139   2.193   1.424   2.928
 2820SOL    HW1 9140   2.120   1.387   2.877
 2820SOL    HW2 9141   2.243   1.475   2.864
 2821SOL     OW 9142   3.324   1.499   3.216
 2821SOL    HW1 9143   3.374   1.581   3.226
 2821SOL    HW2 9144   3.258   1.503   3.285
 2822SOL     OW 9145   2.306   0.398   3.348
 2822SOL    HW1 9146   2.381   0.339   3.346
 2822SOL    HW2 9147   2.230   0.341   3.363
 2823SOL     OW 9148   3.472   0.451   2.600
 2823SOL    HW1 9149   3.397   0.475   2.546
 2823SOL    HW2 9150   3.491   0.530   2.651
 2824SOL     OW 9151   2.081   1.715   2.334
 2824SOL    HW1 9152   2.103   1.791   2.388
 2824SOL    HW2 9153   2.155   1.706   2.274
 2825SOL     OW 9154   2.995   1.344   3.555
 2825SOL    HW1 9155   3.040   1.337   3.639
 2825SOL    HW2 9156   2.945   1.263   3.548
 2826SOL     OW 9157   2.092   1.441   2.397
 2826SOL    HW1 9158   2.075   1.535   2.401
 2826SOL    HW2 9159   2.032   1.404   2.461
 2827SOL     OW 9160   2.119   1.090   2.753
 2827SOL    HW1 9161   2.116   1.004   2.794
 2827SOL    HW2 9162   2.061   1.144   2.807
 2828SOL     OW 9163   2.471   1.779   3.282
 2828SOL    HW1 9164   2.393   1.759   3.333
 2828SOL    HW2 9165   2.500   1.865   3.313
 2829SOL     OW 9166   2.447   0.982   1.996
 2829SOL    HW1 9167   2.493   1.031   1.928
 2829SOL    HW2 9168   2.487   1.012   2.078
 2830SOL     OW 9169   3.448   0.135   3.318
 2830SOL    HW1 9170   3.470   0.220   3.279
 2830SOL    HW2 9171   3.446   0.152   3.412
 2831SOL     OW 9172   1.976   0.653   2.421
 2831SOL    HW1 9173   1.949   0.564   2.443
 2831SOL    HW2 9174   1.969   0.701   2.504
 2832SOL     OW 9175   3.704   1.759   2.197
 2832SOL    HW1 9176   3.769   1.731   2.262
 2832SOL    HW2 9177   3.728   1.850   2.178
 2833SOL     OW 9178   1.893   1.595   1.985
 2833SOL    HW1 9179   1.877   1.503   2.006
 2833SOL    HW2 9180   1.870   1.642   2.066
 2834SOL     OW 9181   3.551   0.919   2.503
 2834SOL    HW1 9182   3.634   0.876   2.482
 2834SOL    HW2 9183   3.529   0.969   2.424
 2835SOL     OW 9184   3.508   1.107   2.291
 2835SOL    HW1 9185   3.594   1.112   2.249
 2835SOL    HW2 9186   3.513   1.168   2.365
 2836SOL     OW 9187   1.984   0.744   3.447
 2836SOL    HW1 9188   2.076   0.769   3.455
 2836SOL    HW2 9189   1.936   0.826   3.454
 2837SOL     OW 9190   2.474   1.385   2.597
 2837SOL    HW1 9191   2.429   1.302   2.607
 2837SOL    HW2 9192   2.458   1.412   2.507
 2838SOL     OW 9193   3.149   1.235   3.286
 2838SOL    HW1 9194   3.182   1.169   3.225
 2838SOL    HW2 9195   3.208   1.231   3.361
 2839SOL     OW 9196   2.672   0.027   2.390
 2839SOL    HW1 9197   2.701   0.115   2.364
 2839SOL    HW2 9198   2.577   0.030   2.384
 2840SOL     OW 9199   2.052   0.966   3.134
 2840SOL    HW1 9200   2.137   0.924   3.118
 2840SOL    HW2 9201   1.990   0.912   3.085
 2841SOL     OW 9202   3.394   0.993   2.060
 2841SOL    HW1 9203   3.324   0.936   2.092
 2841SOL    HW2 9204   3.434   1.028   2.140
 2842SOL     OW 9205   2.189   0.266   3.673
 2842SOL    HW1 9206   2.240   0.342   3.701
 2842SOL    HW2 9207   2.103   0.280   3.712
 2843SOL     OW 9208   3.328   1.420   2.813
 2843SOL    HW1 9209   3.260   1.435   2.879
 2843SOL    HW2 9210   3.316   1.329   2.787
 2844SOL     OW 9211   3.520   1.739   2.440
 2844SOL    HW1 9212   3.501   1.710   2.351
 2844SOL    HW2 9213   3.496   1.665   2.496
 2845SOL     OW 9214   2.457   0.721   2.128
 2845SOL    HW1 9215   2.463   0.803   2.078
 2845SOL    HW2 9216   2.392   0.740   2.195
 2846SOL     OW 9217   3.140   0.347   2.793
 2846SOL    HW1 9218   3.049   0.319   2.805
 2846SOL    HW2 9219   3.190   0.297   2.857
 2847SOL     OW 9220   3.443   1.670   2.171
 2847SOL    HW1 9221   3.533   1.702   2.164
 2847SOL    HW2 9222   3.416   1.653   2.081
 2848SOL     OW 9223   2.656   0.618   3.312
 2848SOL    HW1 9224   2.629   0.597   3.401
 2848SOL    HW2 9225   2.614   0.552   3.258
 2849SOL     OW 9226   3.257   0.475   3.540
 2849SOL    HW1 9227   3.259   0.520   3.625
 2849SOL    HW2 9228   3.320   0.404   3.549
 2850SOL     OW 9229   2.817   0.888   3.444
 2850SOL    HW1 9230   2.872   0.817   3.409
 2850SOL    HW2 9231   2.769   0.921   3.368
 2851SOL     OW 9232   2.856   0.417   3.097
 2851SOL    HW1 9233   2.771   0.438   3.136
 2851SOL    HW2 9234   2.835   0.368   3.018
 2852SOL     OW 9235   2.913   0.698   2.289
 2852SOL    HW1 9236   2.928   0.691   2.383
 2852SOL    HW2 9237   2.830   0.652   2.274
 2853SOL     OW 9238   1.950   0.821   2.639
 2853SOL    HW1 9239   2.031   0.814   2.689
 2853SOL    HW2 9240   1.907   0.899   2.673
 2854SOL     OW 9241   2.736   0.364   2.051
 2854SOL    HW1 9242   2.778   0.423   1.989
 2854SOL    HW2 9243   2.789   0.285   2.048
 2855SOL     OW 9244   3.570   0.575   3.690
 2855SOL    HW1 9245   3.533   0.648   3.642
 2855SOL    HW2 9246   3.599   0.514   3.622
 2856SOL     OW 9247   3.239   1.142   2.403
 2856SOL    HW1 9248   3.317   1.129   2.350
 2856SOL    HW2 9249   3.186   1.204   2.353
 2857SOL     OW 9250   2.389   0.202   2.745
 2857SOL    HW1 9251   2.411   0.217   2.836
 2857SOL    HW2 9252   2.410   0.284   2.701
 2858SOL     OW 9253   2.868   1.445   2.334
 2858SOL    HW1 9254   2.831   1.517   2.284
 2858SOL    HW2 9255   2.848   1.465   2.425
 2859SOL     OW 9256   2.216   1.809   2.724
 2859SOL    HW1 9257   2.261   1.725   2.732
 2859SOL    HW2 9258   2.284   1.874   2.740
 2860SOL     OW 9259   3.661   1.057   2.730
 2860SOL    HW1 9260   3.607   1.039   2.653
 2860SOL    HW2 9261   3.599   1.062   2.803
 2861SOL     OW 9262   3.097   1.529   3.370
 2861SOL    HW1 9263   3.077   1.462   3.435
 2861SOL    HW2 9264   3.028   1.521   3.304
 2862SOL     OW 9265   2.182   0.957   2.112
 2862SOL    HW1 9266   2.264   0.976   2.067
 2862SOL    HW2 9267   2.152   0.875   2.073
 2863SOL     OW 9268   3.340   0.743   2.589
 2863SOL    HW1 9269   3.332   0.700   2.674
 2863SOL    HW2 9270   3.418   0.798   2.598
 2864SOL     OW 9271   2.327   1.266   3.600
 2864SOL    HW1 9272   2.300   1.270   3.509
 2864SOL    HW2 9273   2.245   1.263   3.650
 2865SOL     OW 9274   2.984   1.778   2.093
 2865SOL    HW1 9275   2.910   1.737   2.138
 2865SOL    HW2 9276   3.006   1.716   2.023
 2866SOL     OW 9277   2.059   0.278   3.364
 2866SOL    HW1 9278   1.980   0.332   3.360
 2866SOL    HW2 9279   2.050   0.229   3.446
 2867SOL     OW 9280   3.490   1.380   1.950
 2867SOL    HW1 9281   3.449   1.465   1.935
 2867SOL    HW2 9282   3.422   1.316   1.930
 2868SOL     OW 9283   2.328   1.735   2.185
 2868SOL    HW1 9284   2.369   1.795   2.247
 2868SOL    HW2 9285   2.399   1.709   2.126
 2869SOL     OW 9286   3.269   0.100   2.293
 2869SOL    HW1 9287   3.261   0.082   2.200
 2869SOL    HW2 9288   3.361   0.122   2.306
 2870SOL     OW 9289   2.115   1.784   3.105
 2870SOL    HW1 9290   2.168   1.714   3.141
 2870SOL    HW2 9291   2.104   1.761   3.013
 2871SOL     OW 9292   2.800   1.686   2.754
 2871SOL    HW1 9293   2.881   1.637   2.766
 2871SOL    HW2 9294   2.754   1.641   2.683
 2872SOL     OW 9295   2.254   0.696   2.338
 2872SOL    HW1 9296   2.275   0.603   2.349
 2872SOL    HW2 9297   2.160   0.702   2.356
 2873SOL     OW 9298   3.401   0.228   3.585
 2873SOL    HW1 9299   3.408   0.245   3.679
 2873SOL    HW2 9300   3.326   0.169   3.578
 2874SOL     OW 9301   2.486   0.132   1.969
 2874SOL    HW1 9302   2.550   0.066   1.993
 2874SOL    HW2 9303   2.435   0.092   1.899
 2875SOL     OW 9304   2.643   0.312   3.629
 2875SOL    HW1 9305   2.701   0.236   3.630
 2875SOL    HW2 9306   2.594   0.306   3.711
 2876SOL     OW 9307   2.739   1.521   3.055
 2876SOL    HW1 9308   2.725   1.486   2.967
 2876SOL    HW2 9309   2.809   1.467   3.091
 2877SOL     OW 9310   3.203   0.589   3.294
 2877SOL    HW1 9311   3.233   0.558   3.379
 2877SOL    HW2 9312   3.239   0.677   3.286
 2878SOL     OW 9313   2.676   1.393   2.801
 2878SOL    HW1 9314   2.761   1.383   2.757
 2878SOL    HW2 9315   2.612   1.396   2.730
 2879SOL     OW 9316   2.789   0.510   2.765
 2879SOL    HW1 9317   2.766   0.502   2.673
 2879SOL    HW2 9318   2.821   0.423   2.790
 2880SOL     OW 9319   2.404   0.062   2.370
 2880SOL    HW1 9320   2.318   0.061   2.413
 2880SOL    HW2 9321   2.397   0.132   2.305
 2881SOL     OW 9322   3.290   1.198   1.903
 2881SOL    HW1 9323   3.320   1.122   1.953
 2881SOL    HW2 9324   3.204   1.219   1.940
 2882SOL     OW 9325   2.163   0.062   2.053
 2882SOL    HW1 9326   2.222   0.132   2.023
 2882SOL    HW2 9327   2.219   5.286   2.063
 2883SOL     OW 9328   2.801   0.261   2.324
 2883SOL    HW1 9329   2.773   0.299   2.241
 2883SOL    HW2 9330   2.896   0.273   2.325
 2884SOL     OW 9331   2.943   0.681   3.322
 2884SOL    HW1 9332   2.874   0.615   3.327
 2884SOL    HW2 9333   3.024   0.631   3.315
 2885SOL     OW 9334   3.083   1.571   2.657
 2885SOL    HW1 9335   3.100   1.637   2.590
 2885SOL    HW2 9336   3.152   1.584   2.722
 2886SOL     OW 9337   2.331   1.149   2.596
 2886SOL    HW1 9338   2.261   1.130   2.659
 2886SOL    HW2 9339   2.291   1.133   2.510
 2887SOL     OW 9340   3.131   1.794   2.471
 2887SOL    HW1 9341   3.176   1.856   2.414
 2887SOL    HW2 9342   3.062   1.845   2.512
 2888SOL     OW 9343   2.888   0.546   1.884
 2888SOL    HW1 9344   2.845   0.630   1.866
 2888SOL    HW2 9345   2.951   0.566   1.953
 2889SOL     OW 9346   1.941   0.553   3.255
 2889SOL    HW1 9347   2.032   0.553   3.227
 2889SOL    HW2 9348   1.935   0.624   3.319
 2890SOL     OW 9349   2.418   0.238   3.020
 2890SOL    HW1 9350   2.449   0.152   3.048
 2890SOL    HW2 9351   2.325   0.239   3.046
 2891SOL     OW 9352   2.729   0.462   2.503
 2891SOL    HW1 9353   2.683   0.516   2.438
 2891SOL    HW2 9354   2.752   0.382   2.456
 2892SOL     OW 9355   2.840   0.061   2.624
 2892SOL    HW1 9356   2.775   0.055   2.554
 2892SOL    HW2 9357   2.850   5.271   2.655
 2893SOL     OW 9358   3.299   1.163   2.719
 2893SOL    HW1 9359   3.230   1.097   2.718
 2893SOL    HW2 9360   3.323   1.174   2.627
 2894SOL     OW 9361   3.328   0.606   2.840
 2894SOL    HW1 9362   3.279   0.524   2.843
 2894SOL    HW2 9363   3.389   0.601   2.914
 2895SOL     OW 9364   3.708   0.817   2.244
 2895SOL    HW1 9365   3.764   0.765   2.303
 2895SOL    HW2 9366   3.679   0.754   2.178
 2896SOL     OW 9367   2.353   1.417   2.019
 2896SOL    HW1 9368   2.278   1.389   2.071
 2896SOL    HW2 9369   2.338   1.379   1.932
 2897SOL     OW 9370   3.532   1.264   2.508
 2897SOL    HW1 9371   3.627   1.267   2.521
 2897SOL    HW2 9372   3.502   1.353   2.529
 2898SOL     OW 9373   3.256   0.572   1.933
 2898SOL    HW1 9374   3.195   0.553   2.004
 2898SOL    HW2 9375   3.341   0.541   1.965
 2899SOL     OW 9376   2.386   0.265   2.183
 2899SOL    HW1 9377   2.430   0.216   2.114
 2899SOL    HW2 9378   2.365   0.349   2.144
 2900SOL     OW 9379   3.615   1.239   3.436
 2900SOL    HW1 9380   3.702   1.200   3.431
 2900SOL    HW2 9381   3.630   1.329   3.463
 2901SOL     OW 9382   2.920   1.354   3.196
 2901SOL    HW1 9383   2.846   1.322   3.246
 2901SOL    HW2 9384   2.996   1.312   3.237
 2902SOL     OW 9385   3.471   1.627   3.516
 2902SOL    HW1 9386   3.464   1.660   3.427
 2902SOL    HW2 9387   3.554   1.579   3.518
 2903SOL     OW 9388   2.991   1.204   2.968
 2903SOL    HW1 9389   2.931   1.241   3.032
 2903SOL    HW2 9390   2.958   1.235   2.883
 2904SOL     OW 9391   3.490   1.098   2.939
 2904SOL    HW1 9392   3.485   1.160   3.012
 2904SOL    HW2 9393   3.411   1.115   2.888
 2905SOL     OW 9394   2.766   0.106   3.252
 2905SOL    HW1 9395   2.797   0.072   3.167
 2905SOL    HW2 9396   2.843   0.148   3.289
 2906SOL     OW 9397   2.846   1.114   3.585
 2906SOL    HW1 9398   2.754   1.130   3.605
 2906SOL    HW2 9399   2.846   1.037   3.528
 2907SOL     OW 9400   2.571   1.061   2.233
 2907SOL    HW1 9401   2.557   1.045   2.326
 2907SOL    HW2 9402   2.646   1.008   2.210
 2908SOL     OW 9403   2.280   0.815   3.114
 2908SOL    HW1 9404   2.349   0.824   3.180
 2908SOL    HW2 9405   2.245   0.727   3.127
 2909SOL     OW 9406   3.129   0.379   3.134
 2909SOL    HW1 9407   3.162   0.456   3.181
 2909SOL    HW2 9408   3.039   0.401   3.112
 2910SOL     OW 9409   1.932   1.572   3.216
 2910SOL    HW1 9410   1.900   1.644   3.161
 2910SOL    HW2 9411   2.027   1.575   3.206
 2911SOL     OW 9412   2.211   1.109   2.353
 2911SOL    HW1 9413   2.217   1.183   2.292
 2911SOL    HW2 9414   2.209   1.031   2.297
 2912SOL     OW 9415   2.416   0.538   2.723
 2912SOL    HW1 9416   2.431   0.595   2.648
 2912SOL    HW2 9417   2.481   0.564   2.787
 2913SOL     OW 9418   3.110   1.348   2.251
 2913SOL    HW1 9419   3.166   1.420   2.282
 2913SOL    HW2 9420   3.023   1.370   2.285
 2914SOL     OW 9421   3.143   1.457   3.009
 2914SOL    HW1 9422   3.198   1.460   3.087
 2914SOL    HW2 9423   3.088   1.380   3.022
 2915SOL     OW 9424   3.444   0.623   2.341
 2915SOL    HW1 9425   3.397   0.677   2.404
 2915SOL    HW2 9426   3.489   0.685   2.284
 2916SOL     OW 9427   2.208   1.524   3.174
 2916SOL    HW1 9428   2.196   1.481   3.089
 2916SOL    HW2 9429   2.303   1.534   3.183
 2917SOL     OW 9430   2.276   0.745   3.464
 2917SOL    HW1 9431   2.337   0.789   3.406
 2917SOL    HW2 9432   2.317   0.660   3.482
 2918SOL     OW 9433   3.463   0.779   3.544
 2918SOL    HW1 9434   3.377   0.820   3.537
 2918SOL    HW2 9435   3.515   0.821   3.475
 2919SOL     OW 9436   2.907   0.116   3.646
 2919SOL    HW1 9437   2.932   0.196   3.599
 2919SOL    HW2 9438   2.912   0.047   3.581
 2920SOL     OW 9439   2.345   0.057   3.600
 2920SOL    HW1 9440   2.287   5.292   3.560
 2920SOL    HW2 9441   2.287   0.131   3.622
 2921SOL     OW 9442   2.446   0.872   2.894
 2921SOL    HW1 9443   2.476   0.963   2.892
 2921SOL    HW2 9444   2.389   0.868   2.970
 2922SOL     OW 9445   3.220   0.859   2.892
 2922SOL    HW1 9446   3.137   0.850   2.845
 2922SOL    HW2 9447   3.260   0.772   2.886
 2923SOL     OW 9448   3.068   0.528   2.129
 2923SOL    HW1 9449   3.072   0.448   2.180
 2923SOL    HW2 9450   3.025   0.591   2.187
 2924SOL     OW 9451   2.158   0.204   3.109
 2924SOL    HW1 9452   2.119   0.243   3.187
 2924SOL    HW2 9453   2.158   0.110   3.127
 2925SOL     OW 9454   1.908   1.311   3.139
 2925SOL    HW1 9455   1.941   1.256   3.210
 2925SOL    HW2 9456   1.914   1.400   3.172
 2926SOL     OW 9457   2.588   0.632   2.922
 2926SOL    HW1 9458   2.661   0.615   2.863
 2926SOL    HW2 9459   2.559   0.720   2.899
 2927SOL     OW 9460   3.597   0.959   3.715
 2927SOL    HW1 9461   3.551   0.898   3.657
 2927SOL    HW2 9462   3.537   0.973   3.788
 2928SOL     OW 9463   2.165   0.072   2.513
 2928SOL    HW1 9464   2.148   0.166   2.520
 2928SOL    HW2 9465   2.207   0.049   2.596
 2929SOL     OW 9466   3.474   0.374   2.227
 2929SOL    HW1 9467   3.507   0.311   2.291
 2929SOL    HW2 9468   3.454   0.452   2.279
 2930SOL     OW 9469   2.890   0.759   2.823
 2930SOL    HW1 9470   2.887   0.777   2.917
 2930SOL    HW2 9471   2.863   0.668   2.815
 2931SOL     OW 9472   2.845   1.570   3.578
 2931SOL    HW1 9473   2.827   1.611   3.494
 2931SOL    HW2 9474   2.889   1.488   3.556
 2932SOL     OW 9475   3.717   1.506   3.467
 2932SOL    HW1 9476   3.735   1.532   3.377
 2932SOL    HW2 9477   3.798   1.525   3.514
 2933SOL     OW 9478   2.216   0.916   3.670
 2933SOL    HW1 9479   2.298   0.934   3.716
 2933SOL    HW2 9480   2.239   0.854   3.602
 2934SOL     OW 9481   3.389   0.272   1.988
 2934SOL    HW1 9482   3.324   0.208   2.019
 2934SOL    HW2 9483   3.425   0.310   2.068
 2935SOL     OW 9484   3.154   0.826   1.893
 2935SOL    HW1 9485   3.196   0.741   1.897
 2935SOL    HW2 9486   3.185   0.865   1.812
 2936SOL     OW 9487   2.928   1.336   2.716
 2936SOL    HW1 9488   2.931   1.263   2.654
 2936SOL    HW2 9489   2.989   1.400   2.681
 2937SOL     OW 9490   2.171   0.809   2.810
 2937SOL    HW1 9491   2.264   0.830   2.802
 2937SOL    HW2 9492   2.169   0.719   2.842
 2938SOL     OW 9493   2.194   0.526   2.875
 2938SOL    HW1 9494   2.158   0.439   2.859
 2938SOL    HW2 9495   2.271   0.531   2.817
 2939SOL     OW 9496   2.997   0.377   3.550
 2939SOL    HW1 9497   2.950   0.432   3.612
 2939SOL    HW2 9498   3.085   0.417   3.546
 2940SOL     OW 9499   2.995   0.222   3.328
 2940SOL    HW1 9500   3.000   0.281   3.403
 2940SOL    HW2 9501   3.051   0.264   3.262
 2941SOL     OW 9502   1.867   1.321   2.057
 2941SOL    HW1 9503   1.780   1.335   2.019
 2941SOL    HW2 9504   1.864   1.232   2.091
 2942SOL     OW 9505   1.952   1.787   2.801
 2942SOL    HW1 9506   1.923   1.708   2.757
 2942SOL    HW2 9507   2.042   1.801   2.770
 2943SOL     OW 9508   2.359   1.574   2.768
 2943SOL    HW1 9509   2.428   1.636   2.791
 2943SOL    HW2 9510   2.403   1.510   2.711
 2944SOL     OW 9511   2.845   0.792   3.089
 2944SOL    HW1 9512   2.901   0.769   3.163
 2944SOL    HW2 9513   2.760   0.755   3.110
 2945SOL     OW 9514   1.897   0.543   2.979
 2945SOL    HW1 9515   1.977   0.530   2.928
 2945SOL    HW2 9516   1.927   0.548   3.070
 2946SOL     OW 9517   2.049   0.522   3.589
 2946SOL    HW1 9518   2.112   0.486   3.526
 2946SOL    HW2 9519   2.009   0.596   3.543
 2947SOL     OW 9520   3.239   0.939   3.521
 2947SOL    HW1 9521   3.260   1.032   3.518
 2947SOL    HW2 9522   3.236   0.913   3.429
 2948SOL     OW 9523   2.676   0.572   2.224
 2948SOL    HW1 9524   2.680   0.498   2.164
 2948SOL    HW2 9525   2.602   0.625   2.193
 2949SOL     OW 9526   3.504   0.601   3.048
 2949SOL    HW1 9527   3.493   0.542   3.122
 2949SOL    HW2 9528   3.591   0.581   3.014
 2950SOL     OW 9529   2.110   1.542   3.581
 2950SOL    HW1 9530   2.088   1.614   3.640
 2950SOL    HW2 9531   2.107   1.464   3.637
 2951SOL     OW 9532   2.561   0.452   3.122
 2951SOL    HW1 9533   2.509   0.378   3.089
 2951SOL    HW2 9534   2.560   0.516   3.051
 2952SOL     OW 9535   2.786   1.685   3.333
 2952SOL    HW1 9536   2.765   1.652   3.246
 2952SOL    HW2 9537   2.816   1.774   3.319
 2953SOL     OW 9538   2.325   0.493   2.045
 2953SOL    HW1 9539   2.385   0.564   2.068
 2953SOL    HW2 9540   2.240   0.535   2.036
 2954SOL     OW 9541   2.008   1.141   3.334
 2954SOL    HW1 9542   2.010   1.089   3.415
 2954SOL    HW2 9543   2.025   1.077   3.265
 2955SOL     OW 9544   3.188   1.047   3.085
 2955SOL    HW1 9545   3.211   0.983   3.017
 2955SOL    HW2 9546   3.118   1.099   3.046
 2956SOL     OW 9547   3.173   0.857   2.168
 2956SOL    HW1 9548   3.097   0.826   2.218
 2956SOL    HW2 9549   3.149   0.843   2.077
 2957SOL     OW 9550   3.634   1.744   3.010
 2957SOL    HW1 9551   3.695   1.768   2.940
 2957SOL    HW2 9552   3.610   1.654   2.991
 2958SOL     OW 9553   3.100   1.732   2.974
 2958SOL    HW1 9554   3.182   1.755   2.931
 2958SOL    HW2 9555   3.107   1.639   2.994
 2959SOL     OW 9556   1.946   1.267   2.874
 2959SOL    HW1 9557   1.931   1.279   2.968
 2959SOL    HW2 9558   1.873   1.212   2.846
 2960SOL     OW 9559   2.539   1.663   3.594
 2960SOL    HW1 9560   2.469   1.726   3.575
 2960SOL    HW2 9561   2.601   1.674   3.522
 2961SOL     OW 9562   3.574   0.148   2.365
 2961SOL    HW1 9563   3.650   0.128   2.309
 2961SOL    HW2 9564   3.567   0.074   2.424
 2962SOL     OW 9565   3.253   1.568   2.347
 2962SOL    HW1 9566   3.313   1.600   2.280
 2962SOL    HW2 9567   3.204   1.645   2.375
 2963SOL     OW 9568   2.028   1.753   3.721
 2963SOL    HW1 9569   1.964   1.701   3.768
 2963SOL    HW2 9570   2.029   1.837   3.767
 2964SOL     OW 9571   3.139   0.925   2.533
 2964SOL    HW1 9572   3.213   0.865   2.540
 2964SOL    HW2 9573   3.173   0.998   2.481
 2965SOL     OW 9574   2.676   1.273   3.292
 2965SOL    HW1 9575   2.648   1.312   3.374
 2965SOL    HW2 9576   2.607   1.295   3.229
 2966SOL     OW 9577   2.535   1.618   2.018
 2966SOL    HW1 9578   2.543   1.632   1.924
 2966SOL    HW2 9579   2.478   1.540   2.025
 2967SOL     OW 9580   3.488   1.729   3.253
 2967SOL    HW1 9581   3.539   1.734   3.172
 2967SOL    HW2 9582   3.470   1.820   3.276
 2968SOL     OW 9583   3.707   0.157   2.819
 2968SOL    HW1 9584   3.707   0.062   2.807
 2968SOL    HW2 9585   3.621   0.185   2.791
 2969SOL     OW 9586   2.124   0.329   2.581
 2969SOL    HW1 9587   2.036   0.360   2.559
 2969SOL    HW2 9588   2.122   0.317   2.676
 2970SOL     OW 9589   3.069   1.606   1.893
 2970SOL    HW1 9590   3.059   1.515   1.920
 2970SOL    HW2 9591   3.004   1.618   1.824
 2971SOL     OW 9592   2.686   1.006   3.234
 2971SOL    HW1 9593   2.730   1.001   3.149
 2971SOL    HW2 9594   2.686   1.099   3.256
 2972SOL     OW 9595   2.778   0.911   2.152
 2972SOL    HW1 9596   2.839   0.942   2.086
 2972SOL    HW2 9597   2.826   0.841   2.197
 2973SOL     OW 9598   3.354   1.625   1.904
 2973SOL    HW1 9599   3.259   1.619   1.891
 2973SOL    HW2 9600   3.391   1.631   1.816
 2974SOL     OW 9601   2.231   1.303   3.354
 2974SOL    HW1 9602   2.218   1.379   3.298
 2974SOL    HW2 9603   2.155   1.247   3.338
 2975SOL     OW 9604   3.472   1.283   3.143
 2975SOL    HW1 9605   3.533   1.272   3.216
 2975SOL    HW2 9606   3.413   1.352   3.171
 2976SOL     OW 9607   2.914   1.107   2.569
 2976SOL    HW1 9608   2.843   1.056   2.607
 2976SOL    HW2 9609   2.976   1.042   2.537
 2977SOL     OW 9610   2.881   0.243   2.830
 2977SOL    HW1 9611   2.862   0.197   2.748
 2977SOL    HW2 9612   2.874   0.176   2.898
 2978SOL     OW 9613   2.464   1.487   2.343
 2978SOL    HW1 9614   2.509   1.438   2.274
 2978SOL    HW2 9615   2.397   1.538   2.297
 2979SOL     OW 9616   3.586   0.387   3.240
 2979SOL    HW1 9617   3.656   0.452   3.240
 2979SOL    HW2 9618   3.618   0.317   3.182
 2980SOL     OW 9619   2.121   1.345   2.150
 2980SOL    HW1 9620   2.028   1.343   2.128
 2980SOL    HW2 9621   2.124   1.382   2.238
 2981SOL     OW 9622   1.975   1.023   3.582
 2981SOL    HW1 9623   1.898   0.999   3.635
 2981SOL    HW2 9624   2.049   0.984   3.629
 2982SOL     OW 9625   2.534   0.211   3.350
 2982SOL    HW1 9626   2.618   0.194   3.307
 2982SOL    HW2 9627   2.558   0.261   3.428
 2983SOL     OW 9628   1.939   0.339   1.903
 2983SOL    HW1 9629   1.856   0.306   1.870
 2983SOL    HW2 9630   1.961   0.412   1.845
 2984SOL     OW 9631   3.292   0.858   3.262
 2984SOL    HW1 9632   3.243   0.919   3.207
 2984SOL    HW2 9633   3.381   0.861   3.228
 2985SOL     OW 9634   1.934   0.167   2.177
 2985SOL    HW1 9635   1.935   0.250   2.129
 2985SOL    HW2 9636   2.018   0.127   2.157
 2986SOL     OW 9637   3.041   1.340   1.979
 2986SOL    HW1 9638   2.950   1.309   1.982
 2986SOL    HW2 9639   3.069   1.340   2.071
 2987SOL     OW 9640   2.481   0.831   3.295
 2987SOL    HW1 9641   2.537   0.907   3.280
 2987SOL    HW2 9642   2.542   0.757   3.304
 2988SOL     OW 9643   3.346   1.780   2.844
 2988SOL    HW1 9644   3.371   1.833   2.768
 2988SOL    HW2 9645   3.430   1.756   2.884
 2989SOL     OW 9646   2.577   0.572   3.565
 2989SOL    HW1 9647   2.618   0.635   3.624
 2989SOL    HW2 9648   2.608   0.487   3.596
 2990SOL     OW 9649   3.333   1.200   3.494
 2990SOL    HW1 9650   3.322   1.214   3.588
 2990SOL    HW2 9651   3.427   1.215   3.478
 2991SOL     OW 9652   2.252   1.712   3.422
 2991SOL    HW1 9653   2.173   1.767   3.429
 2991SOL    HW2 9654   2.229   1.630   3.465
 2992SOL     OW 9655   3.532   0.881   3.117
 2992SOL    HW1 9656   3.525   0.796   3.074
 2992SOL    HW2 9657   3.522   0.945   3.046
 2993SOL     OW 9658   3.082   0.319   2.328
 2993SOL    HW1 9659   3.145   0.247   2.320
 2993SOL    HW2 9660   3.113   0.371   2.402
 2994SOL     OW 9661   2.452   0.738   2.532
 2994SOL    HW1 9662   2.491   0.824   2.516
 2994SOL    HW2 9663   2.384   0.730   2.465
 2995SOL     OW 9664   3.628   0.362   3.511
 2995SOL    HW1 9665   3.609   0.376   3.418
 2995SOL    HW2 9666   3.557   0.306   3.542
 2996SOL     OW 9667   3.607   0.934   3.374
 2996SOL    HW1 9668   3.604   1.029   3.387
 2996SOL    HW2 9669   3.592   0.922   3.281
 2997SOL     OW 9670   2.723   1.367   1.895
 2997SOL    HW1 9671   2.685   1.395   1.979
 2997SOL    HW2 9672   2.742   1.449   1.850
 2998SOL     OW 9673   2.522   1.791   2.807
 2998SOL    HW1 9674   2.501   1.881   2.782
 2998SOL    HW2 9675   2.618   1.787   2.802
 2999SOL     OW 9676   2.729   0.967   2.717
 2999SOL    HW1 9677   2.779   0.895   2.757
 2999SOL    HW2 9678   2.695   1.016   2.792
 3000SOL     OW 9679   2.941   0.988   1.950
 3000SOL    HW1 9680   2.920   1.039   1.872
 3000SOL    HW2 9681   3.016   0.935   1.925
 3001SOL     OW 9682   3.716   1.554   2.706
 3001SOL    HW1 9683   3.638   1.542   2.652
 3001SOL    HW2 9684   3.708   1.487   2.774
 3002SOL     OW 9685   2.086   1.302   3.719
 3002SOL    HW1 9686   2.020   1.241   3.687
 3002SOL    HW2 9687   2.065   1.314   3.812
 3003SOL     OW 9688   1.946   1.233   2.527
 3003SOL    HW1 9689   1.952   1.185   2.609
 3003SOL    HW2 9690   2.014   1.196   2.471
 3004SOL     OW 9691   2.543   1.402   3.490
 3004SOL    HW1 9692   2.463   1.358   3.519
 3004SOL    HW2 9693   2.539   1.488   3.530
 3005SOL     OW 9694   3.676   0.177   3.095
 3005SOL    HW1 9695   3.643   0.088   3.100
 3005SOL    HW2 9696   3.694   0.190   3.002
 3006SOL     OW 9697   2.291   0.435   2.386
 3006SOL    HW1 9698   2.324   0.363   2.333
 3006SOL    HW2 9699   2.245   0.393   2.458
 3007SOL     OW 9700   3.562   1.489   2.959
 3007SOL    HW1 9701   3.481   1.465   2.913
 3007SOL    HW2 9702   3.574   1.421   3.024
 3008SOL     OW 9703   2.190   0.556   3.152
 3008SOL    HW1 9704   2.247   0.501   3.207
 3008SOL    HW2 9705   2.211   0.529   3.063
 3009SOL     OW 9706   2.689   1.574   2.534
 3009SOL    HW1 9707   2.676   1.631   2.459
 3009SOL    HW2 9708   2.611   1.519   2.537
 3010SOL     OW 9709   3.290   0.218   2.978
 3010SOL    HW1 9710   3.327   0.144   3.026
 3010SOL    HW2 9711   3.241   0.268   3.044
 3011SOL     OW 9712   2.865   0.021   3.003
 3011SOL    HW1 9713   2.814   5.252   2.960
 3011SOL    HW2 9714   2.951   5.283   3.016
 3012SOL     OW 9715   2.634   1.332   2.176
 3012SOL    HW1 9716   2.603   1.242   2.183
 3012SOL    HW2 9717   2.716   1.333   2.226
 3013SOL     OW 9718   2.482   1.548   3.143
 3013SOL    HW1 9719   2.482   1.631   3.191
 3013SOL    HW2 9720   2.570   1.542   3.105
 3014SOL     OW 9721   3.218   0.039   2.024
 3014SOL    HW1 9722   3.250   5.296   1.945
 3014SOL    HW2 9723   3.138   5.291   2.046
 3015SOL     OW 9724   3.163   0.464   2.547
 3015SOL    HW1 9725   3.108   0.542   2.552
 3015SOL    HW2 9726   3.156   0.423   2.633
 3016SOL     OW 9727   3.456   0.215   2.744
 3016SOL    HW1 9728   3.390   0.227   2.812
 3016SOL    HW2 9729   3.449   0.294   2.690
 3017SOL     OW 9730   1.905   1.071   2.168
 3017SOL    HW1 9731   1.999   1.063   2.151
 3017SOL    HW2 9732   1.877   0.982   2.191
 3018SOL     OW 9733   2.746   1.652   2.203
 3018SOL    HW1 9734   2.674   1.635   2.143
 3018SOL    HW2 9735   2.717   1.727   2.256
 3019SOL     OW 9736   2.090   0.626   3.847
 3019SOL    HW1 9737   2.001   0.622   3.882
 3019SOL    HW2 9738   2.081   0.599   3.755
 3020SOL     OW 9739   2.080   0.284   4.716
 3020SOL    HW1 9740   2.109   0.249   4.801
 3020SOL    HW2 9741   1.995   0.243   4.701
 3021SOL     OW 9742   1.866   0.386   4.362
 3021SOL    HW1 9743   1.782   0.407   4.402
 3021SOL    HW2 9744   1.848   0.308   4.309
 3022SOL     OW 9745   2.428   1.287   4.898
 3022SOL    HW1 9746   2.340   1.293   4.861
 3022SOL    HW2 9747   2.445   1.375   4.933
 3023SOL     OW 9748   3.420   1.512   4.430
 3023SOL    HW1 9749   3.378   1.488   4.512
 3023SOL    HW2 9750   3.349   1.517   4.367
 3024SOL     OW 9751   2.993   0.698   4.426
 3024SOL    HW1 9752   3.042   0.779   4.411
 3024SOL    HW2 9753   2.946   0.712   4.507
 3025SOL     OW 9754   3.628   0.606   3.953
 3025SOL    HW1 9755   3.608   0.598   3.859
 3025SOL    HW2 9756   3.594   0.526   3.991
 3026SOL     OW 9757   2.617   1.142   4.765
 3026SOL    HW1 9758   2.548   1.176   4.822
 3026SOL    HW2 9759   2.653   1.219   4.721
 3027SOL     OW 9760   2.728   0.777   5.546
 3027SOL    HW1 9761   2.716   0.849   5.609
 3027SOL    HW2 9762   2.752   0.821   5.465
 3028SOL     OW 9763   2.548   1.004   4.371
 3028SOL    HW1 9764   2.613   0.991   4.440
 3028SOL    HW2 9765   2.479   1.055   4.412
 3029SOL     OW 9766   2.572   1.151   5.536
 3029SOL    HW1 9767   2.620   1.230   5.563
 3029SOL    HW2 9768   2.490   1.184   5.501
 3030SOL     OW 9769   2.192   1.422   4.793
 3030SOL    HW1 9770   2.118   1.387   4.744
 3030SOL    HW2 9771   2.241   1.475   4.730
 3031SOL     OW 9772   3.323   1.501   5.077
 3031SOL    HW1 9773   3.375   1.580   5.090
 3031SOL    HW2 9774   3.261   1.501   5.150
 3032SOL     OW 9775   2.306   0.398   5.210
 3032SOL    HW1 9776   2.381   0.338   5.209
 3032SOL    HW2 9777   2.230   0.341   5.225
 3033SOL     OW 9778   3.472   0.451   4.462
 3033SOL    HW1 9779   3.397   0.475   4.408
 3033SOL    HW2 9780   3.491   0.530   4.514
 3034SOL     OW 9781   2.082   1.735   4.198
 3034SOL    HW1 9782   2.125   1.769   4.276
 3034SOL    HW2 9783   2.154   1.712   4.139
 3035SOL     OW 9784   2.999   1.341   5.416
 3035SOL    HW1 9785   3.039   1.337   5.503
 3035SOL    HW2 9786   2.946   1.262   5.410
 3036SOL     OW 9787   2.086   1.446   4.259
 3036SOL    HW1 9788   2.060   1.537   4.276
 3036SOL    HW2 9789   2.035   1.394   4.319
 3037SOL     OW 9790   2.119   1.090   4.614
 3037SOL    HW1 9791   2.116   1.004   4.656
 3037SOL    HW2 9792   2.062   1.145   4.668
 3038SOL     OW 9793   2.479   1.786   5.163
 3038SOL    HW1 9794   2.394   1.772   5.204
 3038SOL    HW2 9795   2.498   1.879   5.177
 3039SOL     OW 9796   2.447   0.981   3.858
 3039SOL    HW1 9797   2.493   1.030   3.790
 3039SOL    HW2 9798   2.488   1.012   3.940
 3040SOL     OW 9799   3.448   0.135   5.180
 3040SOL    HW1 9800   3.470   0.220   5.142
 3040SOL    HW2 9801   3.446   0.152   5.274
 3041SOL     OW 9802   1.977   0.654   4.283
 3041SOL    HW1 9803   1.949   0.564   4.305
 3041SOL    HW2 9804   1.969   0.701   4.366
 3042SOL     OW 9805   3.704   1.759   4.061
 3042SOL    HW1 9806   3.770   1.730   4.124
 3042SOL    HW2 9807   3.728   1.849   4.040
 3043SOL     OW 9808   1.877   1.589   3.859
 3043SOL    HW1 9809   1.866   1.495   3.875
 3043SOL    HW2 9810   1.851   1.630   3.941
 3044SOL     OW 9811   3.552   0.919   4.365
 3044SOL    HW1 9812   3.635   0.876   4.344
 3044SOL    HW2 9813   3.530   0.968   4.286
 3045SOL     OW 9814   3.508   1.107   4.153
 3045SOL    HW1 9815   3.593   1.112   4.111
 3045SOL    HW2 9816   3.513   1.168   4.227
 3046SOL     OW 9817   1.985   0.744   5.309
 3046SOL    HW1 9818   2.077   0.769   5.317
 3046SOL    HW2 9819   1.936   0.826   5.317
 3047SOL     OW 9820   2.481   1.385   4.457
 3047SOL    HW1 9821   2.433   1.303   4.468
 3047SOL    HW2 9822   2.463   1.412   4.367
 3048SOL     OW 9823   3.152   1.239   5.147
 3048SOL    HW1 9824   3.184   1.171   5.088
 3048SOL    HW2 9825   3.209   1.232   5.224
 3049SOL     OW 9826   2.672   0.027   4.252
 3049SOL    HW1 9827   2.701   0.115   4.226
 3049SOL    HW2 9828   2.577   0.030   4.246
 3050SOL     OW 9829   2.052   0.966   4.996
 3050SOL    HW1 9830   2.137   0.924   4.980
 3050SOL    HW2 9831   1.990   0.911   4.948
 3051SOL     OW 9832   3.393   0.993   3.922
 3051SOL    HW1 9833   3.323   0.936   3.954
 3051SOL    HW2 9834   3.434   1.027   4.002
 3052SOL     OW 9835   3.050   1.804   5.350
 3052SOL    HW1 9836   3.054   1.864   5.276
 3052SOL    HW2 9837   3.064   1.717   5.311
 3053SOL     OW 9838   2.189   0.266   5.535
 3053SOL    HW1 9839   2.240   0.342   5.563
 3053SOL    HW2 9840   2.103   0.280   5.574
 3054SOL     OW 9841   3.320   1.423   4.672
 3054SOL    HW1 9842   3.257   1.433   4.743
 3054SOL    HW2 9843   3.314   1.331   4.646
 3055SOL     OW 9844   3.521   1.739   4.303
 3055SOL    HW1 9845   3.502   1.711   4.214
 3055SOL    HW2 9846   3.497   1.665   4.358
 3056SOL     OW 9847   2.457   0.721   3.990
 3056SOL    HW1 9848   2.462   0.802   3.939
 3056SOL    HW2 9849   2.391   0.739   4.057
 3057SOL     OW 9850   3.140   0.347   4.655
 3057SOL    HW1 9851   3.049   0.319   4.667
 3057SOL    HW2 9852   3.190   0.297   4.719
 3058SOL     OW 9853   3.445   1.668   4.031
 3058SOL    HW1 9854   3.535   1.699   4.025
 3058SOL    HW2 9855   3.420   1.650   3.940
 3059SOL     OW 9856   2.657   0.618   5.174
 3059SOL    HW1 9857   2.629   0.597   5.263
 3059SOL    HW2 9858   2.614   0.552   5.120
 3060SOL     OW 9859   3.257   0.475   5.402
 3060SOL    HW1 9860   3.258   0.520   5.487
 3060SOL    HW2 9861   3.320   0.404   5.411
 3061SOL     OW 9862   2.817   0.888   5.306
 3061SOL    HW1 9863   2.871   0.817   5.271
 3061SOL    HW2 9864   2.769   0.922   5.231
 3062SOL     OW 9865   2.856   0.416   4.960
 3062SOL    HW1 9866   2.771   0.439   4.998
 3062SOL    HW2 9867   2.834   0.368   4.880
 3063SOL     OW 9868   2.913   0.698   4.151
 3063SOL    HW1 9869   2.928   0.691   4.245
 3063SOL    HW2 9870   2.830   0.652   4.136
 3064SOL     OW 9871   1.950   0.821   4.501
 3064SOL    HW1 9872   2.031   0.814   4.551
 3064SOL    HW2 9873   1.908   0.900   4.535
 3065SOL     OW 9874   1.988   1.853   5.303
 3065SOL    HW1 9875   1.988   1.829   5.396
 3065SOL    HW2 9876   1.898   1.837   5.275
 3066SOL     OW 9877   2.736   0.364   3.913
 3066SOL    HW1 9878   2.778   0.423   3.851
 3066SOL    HW2 9879   2.789   0.284   3.910
 3067SOL     OW 9880   3.570   0.574   5.552
 3067SOL    HW1 9881   3.533   0.648   5.504
 3067SOL    HW2 9882   3.599   0.514   5.484
 3068SOL     OW 9883   3.240   1.142   4.266
 3068SOL    HW1 9884   3.318   1.128   4.213
 3068SOL    HW2 9885   3.187   1.203   4.214
 3069SOL     OW 9886   2.389   0.202   4.606
 3069SOL    HW1 9887   2.410   0.217   4.698
 3069SOL    HW2 9888   2.410   0.284   4.563
 3070SOL     OW 9889   2.872   1.445   4.199
 3070SOL    HW1 9890   2.828   1.516   4.152
 3070SOL    HW2 9891   2.857   1.464   4.292
 3071SOL     OW 9892   3.661   1.057   4.592
 3071SOL    HW1 9893   3.607   1.038   4.516
 3071SOL    HW2 9894   3.599   1.063   4.665
 3072SOL     OW 9895   3.090   1.538   5.235
 3072SOL    HW1 9896   3.077   1.466   5.297
 3072SOL    HW2 9897   3.022   1.527   5.169
 3073SOL     OW 9898   2.182   0.957   3.974
 3073SOL    HW1 9899   2.264   0.975   3.928
 3073SOL    HW2 9900   2.151   0.875   3.936
 3074SOL     OW 9901   3.340   0.743   4.451
 3074SOL    HW1 9902   3.331   0.699   4.536
 3074SOL    HW2 9903   3.418   0.798   4.460
 3075SOL     OW 9904   2.328   1.264   5.463
 3075SOL    HW1 9905   2.301   1.268   5.371
 3075SOL    HW2 9906   2.246   1.263   5.512
 3076SOL     OW 9907   2.975   1.769   3.967
 3076SOL    HW1 9908   2.905   1.710   3.997
 3076SOL    HW2 9909   3.013   1.725   3.891
 3077SOL     OW 9910   2.059   0.278   5.226
 3077SOL    HW1 9911   1.980   0.332   5.222
 3077SOL    HW2 9912   2.050   0.230   5.309
 3078SOL     OW 9913   3.490   1.379   3.814
 3078SOL    HW1 9914   3.450   1.464   3.796
 3078SOL    HW2 9915   3.422   1.315   3.793
 3079SOL     OW 9916   2.335   1.726   4.075
 3079SOL    HW1 9917   2.386   1.796   4.114
 3079SOL    HW2 9918   2.386   1.698   3.999
 3080SOL     OW 9919   3.269   0.100   4.155
 3080SOL    HW1 9920   3.261   0.082   4.062
 3080SOL    HW2 9921   3.361   0.122   4.168
 3081SOL     OW 9922   2.086   1.768   4.965
 3081SOL    HW1 9923   2.163   1.727   5.005
 3081SOL    HW2 9924   2.114   1.790   4.876
 3082SOL     OW 9925   2.791   1.698   4.635
 3082SOL    HW1 9926   2.879   1.661   4.642
 3082SOL    HW2 9927   2.757   1.664   4.552
 3083SOL     OW 9928   2.254   0.696   4.200
 3083SOL    HW1 9929   2.276   0.604   4.210
 3083SOL    HW2 9930   2.160   0.701   4.218
 3084SOL     OW 9931   3.401   0.227   5.447
 3084SOL    HW1 9932   3.409   0.245   5.541
 3084SOL    HW2 9933   3.325   0.170   5.440
 3085SOL     OW 9934   2.486   0.132   3.831
 3085SOL    HW1 9935   2.550   0.066   3.855
 3085SOL    HW2 9936   2.435   0.092   3.761
 3086SOL     OW 9937   2.643   0.312   5.491
 3086SOL    HW1 9938   2.701   0.236   5.492
 3086SOL    HW2 9939   2.595   0.307   5.573
 3087SOL     OW 9940   2.737   1.520   4.919
 3087SOL    HW1 9941   2.723   1.487   4.830
 3087SOL    HW2 9942   2.808   1.464   4.953
 3088SOL     OW 9943   3.203   0.588   5.156
 3088SOL    HW1 9944   3.233   0.558   5.241
 3088SOL    HW2 9945   3.239   0.677   5.149
 3089SOL     OW 9946   2.677   1.392   4.664
 3089SOL    HW1 9947   2.761   1.383   4.619
 3089SOL    HW2 9948   2.613   1.392   4.593
 3090SOL     OW 9949   2.790   0.510   4.627
 3090SOL    HW1 9950   2.766   0.502   4.535
 3090SOL    HW2 9951   2.821   0.423   4.652
 3091SOL     OW 9952   2.404   0.063   4.232
 3091SOL    HW1 9953   2.318   0.061   4.275
 3091SOL    HW2 9954   2.397   0.132   4.167
 3092SOL     OW 9955   3.290   1.198   3.765
 3092SOL    HW1 9956   3.321   1.122   3.814
 3092SOL    HW2 9957   3.205   1.218   3.802
 3093SOL     OW 9958   2.163   0.062   3.915
 3093SOL    HW1 9959   2.221   0.131   3.885
 3093SOL    HW2 9960   2.219   5.286   3.925
 3094SOL     OW 9961   2.801   0.261   4.186
 3094SOL    HW1 9962   2.773   0.299   4.103
 3094SOL    HW2 9963   2.896   0.273   4.187
 3095SOL     OW 9964   2.943   0.681   5.183
 3095SOL    HW1 9965   2.873   0.616   5.189
 3095SOL    HW2 9966   3.024   0.631   5.177
 3096SOL     OW 9967   3.082   1.561   4.518
 3096SOL    HW1 9968   3.095   1.644   4.472
 3096SOL    HW2 9969   3.149   1.560   4.586
 3097SOL     OW 9970   2.331   1.151   4.457
 3097SOL    HW1 9971   2.262   1.132   4.521
 3097SOL    HW2 9972   2.290   1.134   4.372
 3098SOL     OW 9973   2.888   0.546   3.746
 3098SOL    HW1 9974   2.845   0.630   3.728
 3098SOL    HW2 9975   2.951   0.566   3.815
 3099SOL     OW 9976   1.940   0.553   5.117
 3099SOL    HW1 9977   2.032   0.553   5.089
 3099SOL    HW2 9978   1.935   0.624   5.181
 3100SOL     OW 9979   2.417   0.238   4.882
 3100SOL    HW1 9980   2.449   0.152   4.910
 3100SOL    HW2 9981   2.325   0.239   4.908
 3101SOL     OW 9982   2.729   0.462   4.365
 3101SOL    HW1 9983   2.683   0.516   4.300
 3101SOL    HW2 9984   2.752   0.382   4.318
 3102SOL     OW 9985   2.840   0.061   4.486
 3102SOL    HW1 9986   2.775   0.055   4.416
 3102SOL    HW2 9987   2.850   5.271   4.517
 3103SOL     OW 9988   3.299   1.165   4.580
 3103SOL    HW1 9989   3.231   1.098   4.582
 3103SOL    HW2 9990   3.323   1.173   4.488
 3104SOL     OW 9991   3.328   0.606   4.702
 3104SOL    HW1 9992   3.279   0.524   4.705
 3104SOL    HW2 9993   3.389   0.601   4.776
 3105SOL     OW 9994   3.707   0.817   4.107
 3105SOL    HW1 9995   3.763   0.765   4.165
 3105SOL    HW2 9996   3.679   0.754   4.040
 3106SOL     OW 9997   2.350   1.419   3.881
 3106SOL    HW1 9998   2.276   1.389   3.932
 3106SOL    HW2 9999   2.339   1.378   3.795
 3107SOL     OW10000   3.532   1.265   4.370
 3107SOL    HW110001   3.627   1.267   4.383
 3107SOL    HW210002   3.504   1.354   4.391
 3108SOL     OW10003   3.256   0.572   3.795
 3108SOL    HW110004   3.195   0.552   3.866
 3108SOL    HW210005   3.341   0.541   3.827
 3109SOL     OW10006   2.386   0.265   4.045
 3109SOL    HW110007   2.430   0.216   3.976
 3109SOL    HW210008   2.365   0.349   4.005
 3110SOL     OW10009   3.615   1.239   5.297
 3110SOL    HW110010   3.702   1.200   5.293
 3110SOL    HW210011   3.630   1.329   5.326
 3111SOL     OW10012   2.921   1.352   5.056
 3111SOL    HW110013   2.846   1.322   5.108
 3111SOL    HW210014   2.997   1.312   5.099
 3112SOL     OW10015   3.470   1.625   5.378
 3112SOL    HW110016   3.464   1.660   5.288
 3112SOL    HW210017   3.553   1.578   5.380
 3113SOL     OW10018   2.991   1.203   4.829
 3113SOL    HW110019   2.932   1.240   4.895
 3113SOL    HW210020   2.956   1.235   4.745
 3114SOL     OW10021   3.491   1.098   4.802
 3114SOL    HW110022   3.486   1.160   4.875
 3114SOL    HW210023   3.411   1.114   4.752
 3115SOL     OW10024   2.767   0.106   5.113
 3115SOL    HW110025   2.797   0.073   5.029
 3115SOL    HW210026   2.844   0.148   5.151
 3116SOL     OW10027   2.846   1.115   5.447
 3116SOL    HW110028   2.754   1.131   5.468
 3116SOL    HW210029   2.845   1.037   5.391
 3117SOL     OW10030   2.571   1.062   4.095
 3117SOL    HW110031   2.557   1.045   4.188
 3117SOL    HW210032   2.647   1.008   4.072
 3118SOL     OW10033   2.281   0.815   4.975
 3118SOL    HW110034   2.349   0.824   5.041
 3118SOL    HW210035   2.245   0.727   4.990
 3119SOL     OW10036   3.129   0.379   4.996
 3119SOL    HW110037   3.162   0.456   5.043
 3119SOL    HW210038   3.039   0.401   4.974
 3120SOL     OW10039   1.928   1.568   5.077
 3120SOL    HW110040   1.898   1.643   5.026
 3120SOL    HW210041   2.024   1.573   5.074
 3121SOL     OW10042   2.210   1.110   4.214
 3121SOL    HW110043   2.215   1.181   4.150
 3121SOL    HW210044   2.209   1.030   4.161
 3122SOL     OW10045   2.416   0.537   4.585
 3122SOL    HW110046   2.431   0.595   4.510
 3122SOL    HW210047   2.481   0.564   4.649
 3123SOL     OW10048   3.112   1.350   4.114
 3123SOL    HW110049   3.167   1.422   4.144
 3123SOL    HW210050   3.025   1.369   4.148
 3124SOL     OW10051   3.142   1.456   4.872
 3124SOL    HW110052   3.197   1.458   4.951
 3124SOL    HW210053   3.085   1.381   4.885
 3125SOL     OW10054   3.444   0.623   4.203
 3125SOL    HW110055   3.397   0.678   4.266
 3125SOL    HW210056   3.489   0.685   4.146
 3126SOL     OW10057   2.213   1.515   5.044
 3126SOL    HW110058   2.197   1.480   4.957
 3126SOL    HW210059   2.307   1.533   5.047
 3127SOL     OW10060   2.276   0.744   5.326
 3127SOL    HW110061   2.337   0.790   5.268
 3127SOL    HW210062   2.318   0.660   5.344
 3128SOL     OW10063   3.463   0.778   5.405
 3128SOL    HW110064   3.377   0.820   5.399
 3128SOL    HW210065   3.515   0.821   5.337
 3129SOL     OW10066   2.907   0.116   5.508
 3129SOL    HW110067   2.932   0.196   5.461
 3129SOL    HW210068   2.912   0.047   5.442
 3130SOL     OW10069   2.345   0.057   5.463
 3130SOL    HW110070   2.286   5.293   5.422
 3130SOL    HW210071   2.288   0.131   5.484
 3131SOL     OW10072   2.446   0.873   4.756
 3131SOL    HW110073   2.476   0.964   4.755
 3131SOL    HW210074   2.389   0.867   4.832
 3132SOL     OW10075   3.220   0.859   4.753
 3132SOL    HW110076   3.136   0.849   4.707
 3132SOL    HW210077   3.260   0.773   4.748
 3133SOL     OW10078   3.068   0.529   3.992
 3133SOL    HW110079   3.072   0.448   4.042
 3133SOL    HW210080   3.025   0.591   4.050
 3134SOL     OW10081   2.158   0.204   4.971
 3134SOL    HW110082   2.119   0.243   5.049
 3134SOL    HW210083   2.157   0.110   4.989
 3135SOL     OW10084   1.905   1.309   5.000
 3135SOL    HW110085   1.941   1.256   5.071
 3135SOL    HW210086   1.914   1.399   5.030
 3136SOL     OW10087   2.587   0.632   4.784
 3136SOL    HW110088   2.661   0.615   4.725
 3136SOL    HW210089   2.558   0.720   4.761
 3137SOL     OW10090   3.596   0.959   5.576
 3137SOL    HW110091   3.550   0.898   5.519
 3137SOL    HW210092   3.537   0.973   5.650
 3138SOL     OW10093   2.165   0.072   4.375
 3138SOL    HW110094   2.148   0.166   4.382
 3138SOL    HW210095   2.207   0.049   4.458
 3139SOL     OW10096   3.474   0.374   4.089
 3139SOL    HW110097   3.507   0.311   4.153
 3139SOL    HW210098   3.454   0.452   4.141
 3140SOL     OW10099   2.890   0.759   4.685
 3140SOL    HW110100   2.886   0.777   4.779
 3140SOL    HW210101   2.863   0.668   4.676
 3141SOL     OW10102   2.845   1.567   5.440
 3141SOL    HW110103   2.829   1.611   5.356
 3141SOL    HW210104   2.887   1.484   5.416
 3142SOL     OW10105   3.717   1.507   5.329
 3142SOL    HW110106   3.735   1.533   5.239
 3142SOL    HW210107   3.798   1.525   5.376
 3143SOL     OW10108   2.215   0.915   5.533
 3143SOL    HW110109   2.297   0.935   5.578
 3143SOL    HW210110   2.240   0.853   5.465
 3144SOL     OW10111   3.388   0.272   3.850
 3144SOL    HW110112   3.324   0.208   3.881
 3144SOL    HW210113   3.424   0.310   3.930
 3145SOL     OW10114   3.154   0.827   3.756
 3145SOL    HW110115   3.196   0.741   3.759
 3145SOL    HW210116   3.185   0.866   3.674
 3146SOL     OW10117   2.926   1.333   4.577
 3146SOL    HW110118   2.930   1.260   4.514
 3146SOL    HW210119   2.987   1.398   4.541
 3147SOL     OW10120   2.171   0.809   4.671
 3147SOL    HW110121   2.264   0.831   4.665
 3147SOL    HW210122   2.170   0.719   4.704
 3148SOL     OW10123   2.194   0.525   4.737
 3148SOL    HW110124   2.158   0.438   4.721
 3148SOL    HW210125   2.271   0.530   4.679
 3149SOL     OW10126   2.997   0.377   5.412
 3149SOL    HW110127   2.949   0.432   5.474
 3149SOL    HW210128   3.085   0.417   5.408
 3150SOL     OW10129   2.996   0.222   5.190
 3150SOL    HW110130   3.000   0.281   5.265
 3150SOL    HW210131   3.051   0.264   5.124
 3151SOL     OW10132   1.866   1.318   3.920
 3151SOL    HW110133   1.780   1.331   3.882
 3151SOL    HW210134   1.865   1.228   3.954
 3152SOL     OW10135   1.935   1.793   4.648
 3152SOL    HW110136   1.917   1.706   4.611
 3152SOL    HW210137   2.029   1.804   4.639
 3153SOL     OW10138   2.349   1.566   4.628
 3153SOL    HW110139   2.412   1.629   4.661
 3153SOL    HW210140   2.402   1.506   4.574
 3154SOL     OW10141   2.846   0.792   4.950
 3154SOL    HW110142   2.901   0.769   5.025
 3154SOL    HW210143   2.760   0.756   4.973
 3155SOL     OW10144   1.897   0.543   4.841
 3155SOL    HW110145   1.977   0.530   4.790
 3155SOL    HW210146   1.927   0.548   4.932
 3156SOL     OW10147   2.049   0.522   5.451
 3156SOL    HW110148   2.113   0.487   5.388
 3156SOL    HW210149   2.009   0.596   5.405
 3157SOL     OW10150   3.239   0.939   5.383
 3157SOL    HW110151   3.260   1.032   5.381
 3157SOL    HW210152   3.236   0.913   5.290
 3158SOL     OW10153   2.676   0.572   4.086
 3158SOL    HW110154   2.680   0.498   4.026
 3158SOL    HW210155   2.602   0.624   4.055
 3159SOL     OW10156   3.504   0.602   4.910
 3159SOL    HW110157   3.493   0.542   4.984
 3159SOL    HW210158   3.591   0.581   4.876
 3160SOL     OW10159   2.105   1.552   5.452
 3160SOL    HW110160   2.083   1.616   5.519
 3160SOL    HW210161   2.107   1.468   5.498
 3161SOL     OW10162   2.561   0.452   4.984
 3161SOL    HW110163   2.509   0.378   4.951
 3161SOL    HW210164   2.560   0.516   4.913
 3162SOL     OW10165   2.795   1.678   5.188
 3162SOL    HW110166   2.764   1.644   5.104
 3162SOL    HW210167   2.783   1.773   5.181
 3163SOL     OW10168   2.325   0.493   3.907
 3163SOL    HW110169   2.385   0.564   3.930
 3163SOL    HW210170   2.240   0.535   3.898
 3164SOL     OW10171   2.006   1.140   5.196
 3164SOL    HW110172   2.010   1.089   5.277
 3164SOL    HW210173   2.024   1.077   5.127
 3165SOL     OW10174   3.188   1.047   4.947
 3165SOL    HW110175   3.211   0.983   4.879
 3165SOL    HW210176   3.118   1.099   4.908
 3166SOL     OW10177   3.172   0.858   4.031
 3166SOL    HW110178   3.097   0.825   4.080
 3166SOL    HW210179   3.149   0.843   3.939
 3167SOL     OW10180   3.647   1.742   4.884
 3167SOL    HW110181   3.698   1.772   4.810
 3167SOL    HW210182   3.611   1.658   4.857
 3168SOL     OW10183   3.104   1.729   4.831
 3168SOL    HW110184   3.198   1.745   4.822
 3168SOL    HW210185   3.098   1.636   4.855
 3169SOL     OW10186   1.946   1.266   4.736
 3169SOL    HW110187   1.932   1.279   4.830
 3169SOL    HW210188   1.872   1.212   4.708
 3170SOL     OW10189   2.538   1.666   5.453
 3170SOL    HW110190   2.483   1.744   5.452
 3170SOL    HW210191   2.600   1.679   5.380
 3171SOL     OW10192   3.574   0.148   4.227
 3171SOL    HW110193   3.650   0.128   4.171
 3171SOL    HW210194   3.567   0.074   4.286
 3172SOL     OW10195   3.252   1.578   4.205
 3172SOL    HW110196   3.321   1.593   4.139
 3172SOL    HW210197   3.207   1.662   4.210
 3173SOL     OW10198   1.996   1.797   5.568
 3173SOL    HW110199   1.947   1.731   5.617
 3173SOL    HW210200   2.045   1.844   5.636
 3174SOL     OW10201   3.139   0.926   4.395
 3174SOL    HW110202   3.212   0.865   4.402
 3174SOL    HW210203   3.173   0.998   4.343
 3175SOL     OW10204   2.677   1.273   5.154
 3175SOL    HW110205   2.648   1.312   5.237
 3175SOL    HW210206   2.609   1.299   5.092
 3176SOL     OW10207   2.534   1.616   3.881
 3176SOL    HW110208   2.544   1.632   3.787
 3176SOL    HW210209   2.477   1.539   3.886
 3177SOL     OW10210   3.486   1.728   5.115
 3177SOL    HW110211   3.542   1.733   5.038
 3177SOL    HW210212   3.472   1.819   5.141
 3178SOL     OW10213   3.707   0.157   4.681
 3178SOL    HW110214   3.707   0.062   4.668
 3178SOL    HW210215   3.620   0.185   4.653
 3179SOL     OW10216   2.124   0.329   4.443
 3179SOL    HW110217   2.036   0.360   4.421
 3179SOL    HW210218   2.122   0.317   4.538
 3180SOL     OW10219   3.064   1.610   3.756
 3180SOL    HW110220   3.063   1.518   3.784
 3180SOL    HW210221   2.998   1.614   3.687
 3181SOL     OW10222   2.686   1.006   5.096
 3181SOL    HW110223   2.729   1.003   5.011
 3181SOL    HW210224   2.685   1.099   5.119
 3182SOL     OW10225   2.778   0.912   4.014
 3182SOL    HW110226   2.840   0.943   3.948
 3182SOL    HW210227   2.825   0.841   4.059
 3183SOL     OW10228   3.357   1.621   3.767
 3183SOL    HW110229   3.263   1.628   3.755
 3183SOL    HW210230   3.394   1.630   3.679
 3184SOL     OW10231   2.231   1.299   5.218
 3184SOL    HW110232   2.222   1.376   5.162
 3184SOL    HW210233   2.153   1.247   5.200
 3185SOL     OW10234   3.472   1.283   5.004
 3185SOL    HW110235   3.533   1.272   5.078
 3185SOL    HW210236   3.412   1.352   5.033
 3186SOL     OW10237   2.914   1.106   4.428
 3186SOL    HW110238   2.843   1.056   4.469
 3186SOL    HW210239   2.976   1.040   4.399
 3187SOL     OW10240   2.881   0.243   4.692
 3187SOL    HW110241   2.862   0.197   4.610
 3187SOL    HW210242   2.874   0.176   4.760
 3188SOL     OW10243   2.468   1.492   4.203
 3188SOL    HW110244   2.509   1.438   4.136
 3188SOL    HW210245   2.395   1.535   4.158
 3189SOL     OW10246   3.586   0.387   5.102
 3189SOL    HW110247   3.656   0.452   5.102
 3189SOL    HW210248   3.618   0.317   5.044
 3190SOL     OW10249   2.121   1.346   4.014
 3190SOL    HW110250   2.028   1.340   3.991
 3190SOL    HW210251   2.121   1.384   4.102
 3191SOL     OW10252   1.975   1.020   5.443
 3191SOL    HW110253   1.899   0.998   5.497
 3191SOL    HW210254   2.049   0.984   5.491
 3192SOL     OW10255   2.534   0.211   5.213
 3192SOL    HW110256   2.618   0.194   5.169
 3192SOL    HW210257   2.558   0.261   5.291
 3193SOL     OW10258   1.939   0.339   3.765
 3193SOL    HW110259   1.856   0.306   3.732
 3193SOL    HW210260   1.960   0.412   3.707
 3194SOL     OW10261   3.292   0.858   5.124
 3194SOL    HW110262   3.243   0.919   5.069
 3194SOL    HW210263   3.381   0.861   5.090
 3195SOL     OW10264   1.934   0.167   4.039
 3195SOL    HW110265   1.935   0.250   3.991
 3195SOL    HW210266   2.018   0.127   4.019
 3196SOL     OW10267   3.042   1.341   3.842
 3196SOL    HW110268   2.953   1.306   3.843
 3196SOL    HW210269   3.070   1.339   3.933
 3197SOL     OW10270   2.481   0.830   5.157
 3197SOL    HW110271   2.536   0.907   5.142
 3197SOL    HW210272   2.543   0.758   5.166
 3198SOL     OW10273   2.577   0.572   5.426
 3198SOL    HW110274   2.618   0.636   5.486
 3198SOL    HW210275   2.608   0.487   5.458
 3199SOL     OW10276   3.333   1.200   5.356
 3199SOL    HW110277   3.321   1.214   5.450
 3199SOL    HW210278   3.427   1.215   5.342
 3200SOL     OW10279   2.240   1.740   5.286
 3200SOL    HW110280   2.156   1.782   5.271
 3200SOL    HW210281   2.219   1.656   5.327
 3201SOL     OW10282   3.532   0.881   4.979
 3201SOL    HW110283   3.525   0.796   4.937
 3201SOL    HW210284   3.522   0.944   4.908
 3202SOL     OW10285   3.082   0.319   4.190
 3202SOL    HW110286   3.145   0.248   4.182
 3202SOL    HW210287   3.113   0.371   4.264
 3203SOL     OW10288   2.452   0.738   4.394
 3203SOL    HW110289   2.491   0.824   4.378
 3203SOL    HW210290   2.384   0.730   4.327
 3204SOL     OW10291   3.628   0.362   5.373
 3204SOL    HW110292   3.609   0.376   5.280
 3204SOL    HW210293   3.557   0.306   5.404
 3205SOL     OW10294   3.607   0.934   5.236
 3205SOL    HW110295   3.604   1.028   5.249
 3205SOL    HW210296   3.591   0.922   5.142
 3206SOL     OW10297   2.723   1.368   3.757
 3206SOL    HW110298   2.685   1.397   3.840
 3206SOL    HW210299   2.743   1.449   3.710
 3207SOL     OW10300   2.528   1.752   4.706
 3207SOL    HW110301   2.514   1.844   4.683
 3207SOL    HW210302   2.622   1.739   4.694
 3208SOL     OW10303   2.730   0.967   4.579
 3208SOL    HW110304   2.779   0.896   4.619
 3208SOL    HW210305   2.694   1.016   4.654
 3209SOL     OW10306   2.942   0.989   3.813
 3209SOL    HW110307   2.920   1.038   3.734
 3209SOL    HW210308   3.016   0.935   3.787
 3210SOL     OW10309   3.718   1.555   4.569
 3210SOL    HW110310   3.640   1.543   4.515
 3210SOL    HW210311   3.710   1.490   4.639
 3211SOL     OW10312   2.087   1.303   5.580
 3211SOL    HW110313   2.019   1.243   5.551
 3211SOL    HW210314   2.069   1.315   5.674
 3212SOL     OW10315   1.951   1.234   4.386
 3212SOL    HW110316   1.951   1.189   4.471
 3212SOL    HW210317   2.016   1.187   4.334
 3213SOL     OW10318   2.544   1.402   5.353
 3213SOL    HW110319   2.463   1.360   5.382
 3213SOL    HW210320   2.539   1.491   5.388
 3214SOL     OW10321   3.676   0.177   4.957
 3214SOL    HW110322   3.643   0.088   4.962
 3214SOL    HW210323   3.694   0.190   4.863
 3215SOL     OW10324   2.292   0.436   4.248
 3215SOL    HW110325   2.324   0.363   4.195
 3215SOL    HW210326   2.245   0.394   4.320
 3216SOL     OW10327   3.562   1.490   4.820
 3216SOL    HW110328   3.480   1.465   4.777
 3216SOL    HW210329   3.577   1.422   4.886
 3217SOL     OW10330   2.190   0.555   5.014
 3217SOL    HW110331   2.246   0.501   5.069
 3217SOL    HW210332   2.211   0.529   4.925
 3218SOL     OW10333   2.685   1.584   4.396
 3218SOL    HW110334   2.671   1.593   4.301
 3218SOL    HW210335   2.613   1.527   4.425
 3219SOL     OW10336   3.290   0.218   4.840
 3219SOL    HW110337   3.327   0.144   4.888
 3219SOL    HW210338   3.241   0.268   4.906
 3220SOL     OW10339   2.865   0.021   4.864
 3220SOL    HW110340   2.814   5.252   4.822
 3220SOL    HW210341   2.951   5.283   4.878
 3221SOL     OW10342   2.634   1.333   4.040
 3221SOL    HW110343   2.600   1.243   4.043
 3221SOL    HW210344   2.717   1.329   4.086
 3222SOL     OW10345   2.482   1.557   5.010
 3222SOL    HW110346   2.485   1.638   5.061
 3222SOL    HW210347   2.568   1.552   4.968
 3223SOL     OW10348   3.218   0.039   3.886
 3223SOL    HW110349   3.250   5.296   3.807
 3223SOL    HW210350   3.138   5.291   3.908
 3224SOL     OW10351   3.163   0.464   4.409
 3224SOL    HW110352   3.108   0.542   4.414
 3224SOL    HW210353   3.156   0.423   4.495
 3225SOL     OW10354   3.456   0.215   4.606
 3225SOL    HW110355   3.390   0.227   4.674
 3225SOL    HW210356   3.449   0.294   4.552
 3226SOL     OW10357   1.907   1.070   4.030
 3226SOL    HW110358   2.000   1.060   4.012
 3226SOL    HW210359   1.878   0.982   4.053
 3227SOL     OW10360   2.734   1.644   4.074
 3227SOL    HW110361   2.670   1.617   4.008
 3227SOL    HW210362   2.711   1.734   4.095
 3228SOL     OW10363   2.090   0.624   5.709
 3228SOL    HW110364   2.001   0.622   5.744
 3228SOL    HW210365   2.080   0.599   5.617
 3229SOL     OW10366   2.080   0.284   6.578
 3229SOL    HW110367   2.109   0.249   6.663
 3229SOL    HW210368   1.995   0.243   6.563
 3230SOL     OW10369   1.866   0.386   6.224
 3230SOL    HW110370   1.782   0.407   6.264
 3230SOL    HW210371   1.848   0.308   6.171
 3231SOL     OW10372   2.429   1.287   6.761
 3231SOL    HW110373   2.341   1.291   6.722
 3231SOL    HW210374   2.444   1.376   6.794
 3232SOL     OW10375   3.423   1.512   6.293
 3232SOL    HW110376   3.380   1.492   6.376
 3232SOL    HW210377   3.352   1.516   6.229
 3233SOL     OW10378   2.993   0.698   6.288
 3233SOL    HW110379   3.042   0.779   6.273
 3233SOL    HW210380   2.946   0.713   6.370
 3234SOL     OW10381   3.629   0.606   5.814
 3234SOL    HW110382   3.608   0.598   5.721
 3234SOL    HW210383   3.594   0.526   5.854
 3235SOL     OW10384   2.617   1.142   6.627
 3235SOL    HW110385   2.549   1.177   6.683
 3235SOL    HW210386   2.653   1.219   6.582
 3236SOL     OW10387   2.727   0.779   7.407
 3236SOL    HW110388   2.714   0.853   7.465
 3236SOL    HW210389   2.753   0.818   7.323
 3237SOL     OW10390   2.548   1.003   6.233
 3237SOL    HW110391   2.613   0.991   6.302
 3237SOL    HW210392   2.479   1.055   6.273
 3238SOL     OW10393   2.572   1.151   7.398
 3238SOL    HW110394   2.620   1.230   7.425
 3238SOL    HW210395   2.489   1.184   7.362
 3239SOL     OW10396   2.192   1.426   6.654
 3239SOL    HW110397   2.120   1.388   6.603
 3239SOL    HW210398   2.243   1.476   6.589
 3240SOL     OW10399   3.323   1.499   6.940
 3240SOL    HW110400   3.373   1.580   6.950
 3240SOL    HW210401   3.261   1.501   7.013
 3241SOL     OW10402   2.306   0.398   7.074
 3241SOL    HW110403   2.381   0.339   7.071
 3241SOL    HW210404   2.230   0.341   7.087
 3242SOL     OW10405   3.473   0.451   6.324
 3242SOL    HW110406   3.397   0.475   6.270
 3242SOL    HW210407   3.491   0.530   6.376
 3243SOL     OW10408   2.081   1.714   6.058
 3243SOL    HW110409   2.103   1.791   6.111
 3243SOL    HW210410   2.154   1.706   5.997
 3244SOL     OW10411   2.998   1.341   7.276
 3244SOL    HW110412   3.038   1.338   7.363
 3244SOL    HW210413   2.946   1.261   7.271
 3245SOL     OW10414   2.092   1.441   6.121
 3245SOL    HW110415   2.075   1.535   6.124
 3245SOL    HW210416   2.031   1.404   6.185
 3246SOL     OW10417   2.119   1.090   6.477
 3246SOL    HW110418   2.116   1.004   6.518
 3246SOL    HW210419   2.061   1.144   6.531
 3247SOL     OW10420   2.472   1.791   7.013
 3247SOL    HW110421   2.392   1.773   7.061
 3247SOL    HW210422   2.497   1.880   7.039
 3248SOL     OW10423   2.448   0.982   5.720
 3248SOL    HW110424   2.493   1.031   5.652
 3248SOL    HW210425   2.487   1.012   5.802
 3249SOL     OW10426   3.449   0.135   7.042
 3249SOL    HW110427   3.470   0.220   7.004
 3249SOL    HW210428   3.446   0.152   7.137
 3250SOL     OW10429   1.976   0.653   6.145
 3250SOL    HW110430   1.949   0.564   6.167
 3250SOL    HW210431   1.969   0.701   6.228
 3251SOL     OW10432   3.704   1.759   5.921
 3251SOL    HW110433   3.768   1.731   5.986
 3251SOL    HW210434   3.728   1.850   5.902
 3252SOL     OW10435   1.893   1.595   5.711
 3252SOL    HW110436   1.876   1.503   5.731
 3252SOL    HW210437   1.870   1.641   5.791
 3253SOL     OW10438   3.551   0.919   6.227
 3253SOL    HW110439   3.634   0.876   6.205
 3253SOL    HW210440   3.529   0.969   6.148
 3254SOL     OW10441   3.508   1.107   6.015
 3254SOL    HW110442   3.594   1.113   5.973
 3254SOL    HW210443   3.513   1.168   6.089
 3255SOL     OW10444   1.984   0.743   7.171
 3255SOL    HW110445   2.076   0.769   7.179
 3255SOL    HW210446   1.936   0.825   7.180
 3256SOL     OW10447   2.475   1.386   6.321
 3256SOL    HW110448   2.429   1.302   6.330
 3256SOL    HW210449   2.459   1.412   6.231
 3257SOL     OW10450   3.151   1.238   7.009
 3257SOL    HW110451   3.183   1.171   6.949
 3257SOL    HW210452   3.208   1.232   7.086
 3258SOL     OW10453   2.672   0.027   6.113
 3258SOL    HW110454   2.701   0.114   6.088
 3258SOL    HW210455   2.577   0.030   6.107
 3259SOL     OW10456   2.052   0.966   6.857
 3259SOL    HW110457   2.137   0.924   6.842
 3259SOL    HW210458   1.990   0.912   6.809
 3260SOL     OW10459   3.394   0.993   5.784
 3260SOL    HW110460   3.324   0.936   5.816
 3260SOL    HW210461   3.434   1.028   5.864
 3261SOL     OW10462   3.047   1.806   7.208
 3261SOL    HW110463   3.058   1.865   7.133
 3261SOL    HW210464   3.064   1.719   7.172
 3262SOL     OW10465   2.188   0.262   7.402
 3262SOL    HW110466   2.240   0.340   7.424
 3262SOL    HW210467   2.101   0.281   7.437
 3263SOL     OW10468   3.329   1.419   6.538
 3263SOL    HW110469   3.260   1.435   6.603
 3263SOL    HW210470   3.316   1.328   6.511
 3264SOL     OW10471   3.520   1.739   6.164
 3264SOL    HW110472   3.501   1.710   6.075
 3264SOL    HW210473   3.496   1.666   6.220
 3265SOL     OW10474   2.457   0.721   5.852
 3265SOL    HW110475   2.463   0.803   5.801
 3265SOL    HW210476   2.392   0.740   5.919
 3266SOL     OW10477   3.140   0.346   6.517
 3266SOL    HW110478   3.049   0.319   6.529
 3266SOL    HW210479   3.190   0.297   6.581
 3267SOL     OW10480   3.443   1.670   5.895
 3267SOL    HW110481   3.533   1.702   5.888
 3267SOL    HW210482   3.416   1.653   5.805
 3268SOL     OW10483   2.656   0.618   7.036
 3268SOL    HW110484   2.628   0.597   7.125
 3268SOL    HW210485   2.613   0.552   6.982
 3269SOL     OW10486   3.257   0.475   7.264
 3269SOL    HW110487   3.258   0.519   7.349
 3269SOL    HW210488   3.320   0.404   7.273
 3270SOL     OW10489   2.817   0.888   7.168
 3270SOL    HW110490   2.872   0.818   7.132
 3270SOL    HW210491   2.769   0.922   7.092
 3271SOL     OW10492   2.856   0.416   6.822
 3271SOL    HW110493   2.771   0.439   6.860
 3271SOL    HW210494   2.834   0.369   6.742
 3272SOL     OW10495   2.913   0.698   6.013
 3272SOL    HW110496   2.928   0.691   6.107
 3272SOL    HW210497   2.830   0.652   5.998
 3273SOL     OW10498   1.950   0.820   6.363
 3273SOL    HW110499   2.031   0.814   6.413
 3273SOL    HW210500   1.907   0.899   6.397
 3274SOL     OW10501   1.989   1.849   7.164
 3274SOL    HW110502   1.989   1.828   7.258
 3274SOL    HW210503   1.897   1.838   7.138
 3275SOL     OW10504   2.736   0.364   5.775
 3275SOL    HW110505   2.778   0.424   5.713
 3275SOL    HW210506   2.790   0.285   5.772
 3276SOL     OW10507   3.571   0.575   7.415
 3276SOL    HW110508   3.533   0.649   7.368
 3276SOL    HW210509   3.599   0.515   7.346
 3277SOL     OW10510   3.239   1.142   6.127
 3277SOL    HW110511   3.317   1.129   6.074
 3277SOL    HW210512   3.186   1.204   6.077
 3278SOL     OW10513   2.389   0.202   6.468
 3278SOL    HW110514   2.411   0.217   6.560
 3278SOL    HW210515   2.410   0.284   6.425
 3279SOL     OW10516   2.868   1.445   6.058
 3279SOL    HW110517   2.830   1.517   6.008
 3279SOL    HW210518   2.850   1.466   6.150
 3280SOL     OW10519   2.217   1.809   6.448
 3280SOL    HW110520   2.260   1.724   6.455
 3280SOL    HW210521   2.286   1.873   6.465
 3281SOL     OW10522   3.661   1.057   6.454
 3281SOL    HW110523   3.606   1.039   6.377
 3281SOL    HW210524   3.599   1.062   6.527
 3282SOL     OW10525   3.090   1.539   7.099
 3282SOL    HW110526   3.076   1.466   7.160
 3282SOL    HW210527   3.026   1.524   7.029
 3283SOL     OW10528   2.182   0.957   5.836
 3283SOL    HW110529   2.264   0.977   5.791
 3283SOL    HW210530   2.152   0.875   5.797
 3284SOL     OW10531   3.341   0.742   6.313
 3284SOL    HW110532   3.332   0.700   6.398
 3284SOL    HW210533   3.418   0.798   6.322
 3285SOL     OW10534   2.328   1.264   7.323
 3285SOL    HW110535   2.300   1.269   7.232
 3285SOL    HW210536   2.245   1.262   7.373
 3286SOL     OW10537   2.984   1.777   5.817
 3286SOL    HW110538   2.910   1.737   5.862
 3286SOL    HW210539   3.006   1.716   5.747
 3287SOL     OW10540   2.059   0.278   7.088
 3287SOL    HW110541   1.980   0.332   7.083
 3287SOL    HW210542   2.049   0.229   7.170
 3288SOL     OW10543   3.490   1.380   5.673
 3288SOL    HW110544   3.449   1.465   5.659
 3288SOL    HW210545   3.422   1.316   5.654
 3289SOL     OW10546   2.329   1.735   5.909
 3289SOL    HW110547   2.371   1.795   5.971
 3289SOL    HW210548   2.399   1.708   5.850
 3290SOL     OW10549   3.269   0.100   6.017
 3290SOL    HW110550   3.261   0.082   5.924
 3290SOL    HW210551   3.361   0.122   6.030
 3291SOL     OW10552   2.118   1.792   6.818
 3291SOL    HW110553   2.169   1.727   6.864
 3291SOL    HW210554   2.108   1.756   6.729
 3292SOL     OW10555   2.799   1.698   6.485
 3292SOL    HW110556   2.877   1.647   6.506
 3292SOL    HW210557   2.756   1.649   6.416
 3293SOL     OW10558   2.254   0.696   6.062
 3293SOL    HW110559   2.275   0.603   6.073
 3293SOL    HW210560   2.160   0.702   6.080
 3294SOL     OW10561   3.401   0.227   7.310
 3294SOL    HW110562   3.408   0.245   7.404
 3294SOL    HW210563   3.325   0.169   7.303
 3295SOL     OW10564   2.486   0.132   5.693
 3295SOL    HW110565   2.550   0.066   5.717
 3295SOL    HW210566   2.435   0.092   5.623
 3296SOL     OW10567   2.641   0.312   7.350
 3296SOL    HW110568   2.702   0.238   7.352
 3296SOL    HW210569   2.600   0.312   7.436
 3297SOL     OW10570   2.737   1.521   6.780
 3297SOL    HW110571   2.723   1.485   6.692
 3297SOL    HW210572   2.808   1.467   6.816
 3298SOL     OW10573   3.203   0.589   7.018
 3298SOL    HW110574   3.233   0.558   7.103
 3298SOL    HW210575   3.239   0.677   7.011
 3299SOL     OW10576   2.677   1.395   6.525
 3299SOL    HW110577   2.761   1.384   6.481
 3299SOL    HW210578   2.613   1.396   6.454
 3300SOL     OW10579   2.789   0.510   6.489
 3300SOL    HW110580   2.765   0.502   6.397
 3300SOL    HW210581   2.821   0.423   6.514
 3301SOL     OW10582   2.404   0.062   6.094
 3301SOL    HW110583   2.318   0.061   6.137
 3301SOL    HW210584   2.397   0.132   6.029
 3302SOL     OW10585   3.290   1.198   5.627
 3302SOL    HW110586   3.320   1.123   5.677
 3302SOL    HW210587   3.204   1.219   5.664
 3303SOL     OW10588   2.163   0.062   5.777
 3303SOL    HW110589   2.221   0.132   5.747
 3303SOL    HW210590   2.220   5.286   5.787
 3304SOL     OW10591   2.801   0.261   6.048
 3304SOL    HW110592   2.773   0.299   5.965
 3304SOL    HW210593   2.896   0.273   6.049
 3305SOL     OW10594   2.943   0.681   7.045
 3305SOL    HW110595   2.874   0.615   7.051
 3305SOL    HW210596   3.024   0.631   7.039
 3306SOL     OW10597   3.085   1.570   6.380
 3306SOL    HW110598   3.102   1.637   6.313
 3306SOL    HW210599   3.154   1.584   6.445
 3307SOL     OW10600   2.331   1.149   6.320
 3307SOL    HW110601   2.261   1.130   6.383
 3307SOL    HW210602   2.291   1.133   6.234
 3308SOL     OW10603   3.131   1.794   6.194
 3308SOL    HW110604   3.177   1.855   6.136
 3308SOL    HW210605   3.064   1.847   6.238
 3309SOL     OW10606   2.888   0.546   5.608
 3309SOL    HW110607   2.845   0.630   5.590
 3309SOL    HW210608   2.951   0.567   5.677
 3310SOL     OW10609   1.941   0.553   6.980
 3310SOL    HW110610   2.032   0.553   6.951
 3310SOL    HW210611   1.935   0.624   7.044
 3311SOL     OW10612   2.418   0.238   6.744
 3311SOL    HW110613   2.449   0.152   6.773
 3311SOL    HW210614   2.326   0.239   6.770
 3312SOL     OW10615   2.729   0.462   6.227
 3312SOL    HW110616   2.683   0.516   6.163
 3312SOL    HW210617   2.752   0.382   6.180
 3313SOL     OW10618   2.840   0.061   6.348
 3313SOL    HW110619   2.775   0.055   6.278
 3313SOL    HW210620   2.850   5.271   6.379
 3314SOL     OW10621   3.299   1.163   6.443
 3314SOL    HW110622   3.230   1.097   6.442
 3314SOL    HW210623   3.323   1.174   6.351
 3315SOL     OW10624   3.328   0.606   6.564
 3315SOL    HW110625   3.279   0.524   6.567
 3315SOL    HW210626   3.389   0.601   6.638
 3316SOL     OW10627   3.708   0.817   5.968
 3316SOL    HW110628   3.764   0.765   6.027
 3316SOL    HW210629   3.679   0.754   5.902
 3317SOL     OW10630   2.353   1.417   5.743
 3317SOL    HW110631   2.278   1.388   5.795
 3317SOL    HW210632   2.338   1.380   5.656
 3318SOL     OW10633   3.532   1.264   6.232
 3318SOL    HW110634   3.627   1.268   6.245
 3318SOL    HW210635   3.501   1.352   6.253
 3319SOL     OW10636   3.256   0.572   5.657
 3319SOL    HW110637   3.195   0.553   5.728
 3319SOL    HW210638   3.341   0.541   5.689
 3320SOL     OW10639   2.385   0.265   5.907
 3320SOL    HW110640   2.430   0.216   5.838
 3320SOL    HW210641   2.365   0.349   5.868
 3321SOL     OW10642   3.614   1.239   7.159
 3321SOL    HW110643   3.702   1.200   7.155
 3321SOL    HW210644   3.629   1.328   7.188
 3322SOL     OW10645   2.921   1.353   6.919
 3322SOL    HW110646   2.846   1.322   6.971
 3322SOL    HW210647   2.997   1.312   6.961
 3323SOL     OW10648   3.469   1.625   7.238
 3323SOL    HW110649   3.465   1.659   7.149
 3323SOL    HW210650   3.552   1.578   7.241
 3324SOL     OW10651   2.990   1.203   6.691
 3324SOL    HW110652   2.932   1.241   6.757
 3324SOL    HW210653   2.958   1.235   6.608
 3325SOL     OW10654   3.490   1.098   6.663
 3325SOL    HW110655   3.486   1.160   6.736
 3325SOL    HW210656   3.411   1.115   6.612
 3326SOL     OW10657   2.766   0.106   6.976
 3326SOL    HW110658   2.796   0.073   6.891
 3326SOL    HW210659   2.843   0.148   7.013
 3327SOL     OW10660   2.846   1.114   7.310
 3327SOL    HW110661   2.754   1.131   7.329
 3327SOL    HW210662   2.845   1.037   7.254
 3328SOL     OW10663   2.571   1.061   5.957
 3328SOL    HW110664   2.557   1.045   6.050
 3328SOL    HW210665   2.646   1.008   5.934
 3329SOL     OW10666   2.280   0.815   6.838
 3329SOL    HW110667   2.349   0.824   6.904
 3329SOL    HW210668   2.245   0.727   6.852
 3330SOL     OW10669   3.129   0.379   6.858
 3330SOL    HW110670   3.162   0.456   6.905
 3330SOL    HW210671   3.039   0.401   6.836
 3331SOL     OW10672   1.933   1.573   6.939
 3331SOL    HW110673   1.903   1.646   6.884
 3331SOL    HW210674   2.028   1.576   6.933
 3332SOL     OW10675   2.211   1.109   6.077
 3332SOL    HW110676   2.216   1.183   6.016
 3332SOL    HW210677   2.209   1.032   6.021
 3333SOL     OW10678   2.416   0.538   6.447
 3333SOL    HW110679   2.430   0.595   6.372
 3333SOL    HW210680   2.481   0.564   6.511
 3334SOL     OW10681   3.110   1.348   5.975
 3334SOL    HW110682   3.166   1.420   6.006
 3334SOL    HW210683   3.023   1.370   6.009
 3335SOL     OW10684   3.143   1.457   6.733
 3335SOL    HW110685   3.199   1.460   6.811
 3335SOL    HW210686   3.087   1.381   6.746
 3336SOL     OW10687   3.444   0.623   6.065
 3336SOL    HW110688   3.397   0.677   6.128
 3336SOL    HW210689   3.489   0.686   6.008
 3337SOL     OW10690   2.208   1.527   6.901
 3337SOL    HW110691   2.196   1.484   6.816
 3337SOL    HW210692   2.303   1.539   6.909
 3338SOL     OW10693   2.276   0.744   7.188
 3338SOL    HW110694   2.337   0.790   7.130
 3338SOL    HW210695   2.318   0.660   7.206
 3339SOL     OW10696   3.463   0.778   7.268
 3339SOL    HW110697   3.377   0.819   7.261
 3339SOL    HW210698   3.515   0.821   7.200
 3340SOL     OW10699   2.905   0.116   7.371
 3340SOL    HW110700   2.932   0.195   7.326
 3340SOL    HW210701   2.911   0.047   7.305
 3341SOL     OW10702   2.345   0.057   7.324
 3341SOL    HW110703   2.287   5.292   7.284
 3341SOL    HW210704   2.288   0.130   7.346
 3342SOL     OW10705   2.446   0.872   6.618
 3342SOL    HW110706   2.476   0.963   6.616
 3342SOL    HW210707   2.389   0.868   6.694
 3343SOL     OW10708   3.220   0.859   6.616
 3343SOL    HW110709   3.137   0.850   6.569
 3343SOL    HW210710   3.260   0.772   6.610
 3344SOL     OW10711   3.068   0.528   5.853
 3344SOL    HW110712   3.072   0.448   5.905
 3344SOL    HW210713   3.025   0.591   5.911
 3345SOL     OW10714   2.159   0.204   6.833
 3345SOL    HW110715   2.119   0.243   6.911
 3345SOL    HW210716   2.158   0.110   6.851
 3346SOL     OW10717   1.908   1.311   6.862
 3346SOL    HW110718   1.941   1.256   6.934
 3346SOL    HW210719   1.915   1.400   6.895
 3347SOL     OW10720   2.587   0.632   6.646
 3347SOL    HW110721   2.661   0.615   6.587
 3347SOL    HW210722   2.558   0.720   6.623
 3348SOL     OW10723   3.597   0.960   7.438
 3348SOL    HW110724   3.549   0.899   7.382
 3348SOL    HW210725   3.540   0.974   7.513
 3349SOL     OW10726   2.165   0.072   6.237
 3349SOL    HW110727   2.148   0.166   6.244
 3349SOL    HW210728   2.207   0.049   6.320
 3350SOL     OW10729   3.474   0.375   5.951
 3350SOL    HW110730   3.507   0.311   6.015
 3350SOL    HW210731   3.454   0.452   6.003
 3351SOL     OW10732   2.890   0.759   6.547
 3351SOL    HW110733   2.887   0.777   6.641
 3351SOL    HW210734   2.863   0.668   6.538
 3352SOL     OW10735   2.843   1.565   7.303
 3352SOL    HW110736   2.829   1.610   7.219
 3352SOL    HW210737   2.888   1.484   7.279
 3353SOL     OW10738   3.717   1.506   7.191
 3353SOL    HW110739   3.735   1.532   7.101
 3353SOL    HW210740   3.798   1.525   7.238
 3354SOL     OW10741   2.215   0.914   7.396
 3354SOL    HW110742   2.298   0.935   7.439
 3354SOL    HW210743   2.239   0.853   7.327
 3355SOL     OW10744   3.389   0.272   5.712
 3355SOL    HW110745   3.325   0.208   5.743
 3355SOL    HW210746   3.425   0.310   5.792
 3356SOL     OW10747   3.154   0.826   5.617
 3356SOL    HW110748   3.196   0.741   5.621
 3356SOL    HW210749   3.185   0.865   5.536
 3357SOL     OW10750   2.928   1.336   6.440
 3357SOL    HW110751   2.931   1.263   6.378
 3357SOL    HW210752   2.989   1.400   6.405
 3358SOL     OW10753   2.171   0.809   6.534
 3358SOL    HW110754   2.264   0.831   6.526
 3358SOL    HW210755   2.170   0.719   6.566
 3359SOL     OW10756   2.194   0.526   6.599
 3359SOL    HW110757   2.158   0.439   6.583
 3359SOL    HW210758   2.271   0.531   6.541
 3360SOL     OW10759   2.997   0.377   7.274
 3360SOL    HW110760   2.950   0.432   7.336
 3360SOL    HW210761   3.085   0.416   7.269
 3361SOL     OW10762   2.996   0.222   7.051
 3361SOL    HW110763   3.000   0.280   7.127
 3361SOL    HW210764   3.051   0.264   6.985
 3362SOL     OW10765   1.867   1.321   5.782
 3362SOL    HW110766   1.780   1.335   5.744
 3362SOL    HW210767   1.864   1.232   5.815
 3363SOL     OW10768   1.952   1.787   6.524
 3363SOL    HW110769   1.922   1.708   6.480
 3363SOL    HW210770   2.042   1.799   6.493
 3364SOL     OW10771   2.358   1.574   6.491
 3364SOL    HW110772   2.427   1.635   6.516
 3364SOL    HW210773   2.402   1.510   6.435
 3365SOL     OW10774   2.845   0.792   6.813
 3365SOL    HW110775   2.901   0.769   6.887
 3365SOL    HW210776   2.760   0.756   6.835
 3366SOL     OW10777   1.897   0.543   6.703
 3366SOL    HW110778   1.977   0.530   6.652
 3366SOL    HW210779   1.927   0.548   6.794
 3367SOL     OW10780   2.050   0.520   7.313
 3367SOL    HW110781   2.113   0.487   7.249
 3367SOL    HW210782   2.009   0.595   7.269
 3368SOL     OW10783   3.239   0.939   7.245
 3368SOL    HW110784   3.260   1.032   7.244
 3368SOL    HW210785   3.236   0.913   7.153
 3369SOL     OW10786   2.676   0.572   5.948
 3369SOL    HW110787   2.679   0.498   5.887
 3369SOL    HW210788   2.602   0.625   5.917
 3370SOL     OW10789   3.504   0.601   6.772
 3370SOL    HW110790   3.493   0.542   6.846
 3370SOL    HW210791   3.591   0.581   6.738
 3371SOL     OW10792   2.104   1.551   7.313
 3371SOL    HW110793   2.083   1.616   7.381
 3371SOL    HW210794   2.108   1.468   7.360
 3372SOL     OW10795   2.560   0.452   6.847
 3372SOL    HW110796   2.509   0.378   6.813
 3372SOL    HW210797   2.560   0.516   6.775
 3373SOL     OW10798   2.790   1.679   7.053
 3373SOL    HW110799   2.764   1.645   6.968
 3373SOL    HW210800   2.786   1.774   7.044
 3374SOL     OW10801   2.325   0.493   5.769
 3374SOL    HW110802   2.385   0.564   5.793
 3374SOL    HW210803   2.240   0.535   5.760
 3375SOL     OW10804   2.008   1.140   7.058
 3375SOL    HW110805   2.010   1.089   7.139
 3375SOL    HW210806   2.025   1.077   6.989
 3376SOL     OW10807   3.188   1.047   6.809
 3376SOL    HW110808   3.211   0.984   6.741
 3376SOL    HW210809   3.118   1.099   6.770
 3377SOL     OW10810   3.173   0.856   5.892
 3377SOL    HW110811   3.097   0.826   5.942
 3377SOL    HW210812   3.149   0.843   5.801
 3378SOL     OW10813   3.633   1.744   6.736
 3378SOL    HW110814   3.694   1.770   6.666
 3378SOL    HW210815   3.609   1.654   6.714
 3379SOL     OW10816   3.103   1.733   6.699
 3379SOL    HW110817   3.185   1.754   6.654
 3379SOL    HW210818   3.109   1.639   6.717
 3380SOL     OW10819   1.946   1.267   6.598
 3380SOL    HW110820   1.931   1.279   6.692
 3380SOL    HW210821   1.873   1.212   6.570
 3381SOL     OW10822   2.538   1.665   7.313
 3381SOL    HW110823   2.488   1.746   7.313
 3381SOL    HW210824   2.606   1.678   7.247
 3382SOL     OW10825   3.574   0.148   6.089
 3382SOL    HW110826   3.650   0.128   6.033
 3382SOL    HW210827   3.567   0.074   6.148
 3383SOL     OW10828   3.253   1.568   6.071
 3383SOL    HW110829   3.313   1.600   6.004
 3383SOL    HW210830   3.204   1.645   6.099
 3384SOL     OW10831   1.998   1.796   7.430
 3384SOL    HW110832   1.947   1.732   7.479
 3384SOL    HW210833   2.046   1.845   7.497
 3385SOL     OW10834   3.139   0.925   6.257
 3385SOL    HW110835   3.213   0.865   6.263
 3385SOL    HW210836   3.173   0.998   6.205
 3386SOL     OW10837   2.677   1.273   7.016
 3386SOL    HW110838   2.649   1.312   7.099
 3386SOL    HW210839   2.608   1.295   6.954
 3387SOL     OW10840   2.535   1.618   5.742
 3387SOL    HW110841   2.543   1.633   5.648
 3387SOL    HW210842   2.478   1.541   5.749
 3388SOL     OW10843   3.489   1.727   6.977
 3388SOL    HW110844   3.538   1.734   6.895
 3388SOL    HW210845   3.475   1.817   7.005
 3389SOL     OW10846   3.707   0.157   6.543
 3389SOL    HW110847   3.707   0.062   6.531
 3389SOL    HW210848   3.621   0.185   6.515
 3390SOL     OW10849   2.124   0.329   6.305
 3390SOL    HW110850   2.036   0.360   6.283
 3390SOL    HW210851   2.122   0.317   6.400
 3391SOL     OW10852   3.069   1.606   5.617
 3391SOL    HW110853   3.059   1.515   5.644
 3391SOL    HW210854   3.004   1.618   5.548
 3392SOL     OW10855   2.686   1.006   6.958
 3392SOL    HW110856   2.730   1.002   6.873
 3392SOL    HW210857   2.686   1.099   6.980
 3393SOL     OW10858   2.778   0.910   5.876
 3393SOL    HW110859   2.839   0.942   5.810
 3393SOL    HW210860   2.826   0.841   5.921
 3394SOL     OW10861   3.354   1.625   5.629
 3394SOL    HW110862   3.259   1.619   5.615
 3394SOL    HW210863   3.390   1.631   5.540
 3395SOL     OW10864   2.230   1.303   7.078
 3395SOL    HW110865   2.218   1.380   7.023
 3395SOL    HW210866   2.154   1.248   7.061
 3396SOL     OW10867   3.473   1.283   6.867
 3396SOL    HW110868   3.532   1.272   6.941
 3396SOL    HW210869   3.412   1.352   6.894
 3397SOL     OW10870   2.914   1.107   6.293
 3397SOL    HW110871   2.843   1.056   6.331
 3397SOL    HW210872   2.976   1.042   6.261
 3398SOL     OW10873   2.881   0.243   6.554
 3398SOL    HW110874   2.862   0.197   6.472
 3398SOL    HW210875   2.874   0.176   6.622
 3399SOL     OW10876   2.464   1.488   6.068
 3399SOL    HW110877   2.509   1.438   5.999
 3399SOL    HW210878   2.397   1.538   6.021
 3400SOL     OW10879   3.586   0.386   6.964
 3400SOL    HW110880   3.656   0.452   6.964
 3400SOL    HW210881   3.618   0.317   6.907
 3401SOL     OW10882   2.121   1.345   5.874
 3401SOL    HW110883   2.028   1.343   5.852
 3401SOL    HW210884   2.124   1.382   5.963
 3402SOL     OW10885   1.975   1.021   7.305
 3402SOL    HW110886   1.898   0.998   7.358
 3402SOL    HW210887   2.049   0.983   7.353
 3403SOL     OW10888   2.534   0.211   7.076
 3403SOL    HW110889   2.618   0.194   7.032
 3403SOL    HW210890   2.558   0.261   7.154
 3404SOL     OW10891   1.939   0.339   5.627
 3404SOL    HW110892   1.856   0.306   5.593
 3404SOL    HW210893   1.961   0.412   5.570
 3405SOL     OW10894   3.292   0.858   6.986
 3405SOL    HW110895   3.243   0.919   6.931
 3405SOL    HW210896   3.381   0.861   6.952
 3406SOL     OW10897   1.934   0.167   5.901
 3406SOL    HW110898   1.935   0.250   5.854
 3406SOL    HW210899   2.018   0.127   5.881
 3407SOL     OW10900   3.041   1.339   5.703
 3407SOL    HW110901   2.950   1.310   5.705
 3407SOL    HW210902   3.068   1.339   5.794
 3408SOL     OW10903   2.481   0.831   7.019
 3408SOL    HW110904   2.537   0.907   7.004
 3408SOL    HW210905   2.543   0.758   7.028
 3409SOL     OW10906   3.346   1.776   6.564
 3409SOL    HW110907   3.369   1.836   6.493
 3409SOL    HW210908   3.429   1.758   6.609
 3410SOL     OW10909   2.576   0.573   7.289
 3410SOL    HW110910   2.618   0.635   7.348
 3410SOL    HW210911   2.607   0.487   7.319
 3411SOL     OW10912   3.333   1.200   7.218
 3411SOL    HW110913   3.320   1.214   7.312
 3411SOL    HW210914   3.426   1.215   7.204
 3412SOL     OW10915   2.241   1.739   7.149
 3412SOL    HW110916   2.155   1.780   7.136
 3412SOL    HW210917   2.221   1.656   7.191
 3413SOL     OW10918   3.532   0.881   6.841
 3413SOL    HW110919   3.525   0.796   6.798
 3413SOL    HW210920   3.522   0.945   6.770
 3414SOL     OW10921   3.082   0.319   6.052
 3414SOL    HW110922   3.145   0.247   6.045
 3414SOL    HW210923   3.113   0.371   6.126
 3415SOL     OW10924   2.452   0.738   6.256
 3415SOL    HW110925   2.491   0.824   6.240
 3415SOL    HW210926   2.384   0.730   6.189
 3416SOL     OW10927   3.628   0.361   7.236
 3416SOL    HW110928   3.609   0.376   7.143
 3416SOL    HW210929   3.556   0.306   7.266
 3417SOL     OW10930   3.607   0.933   7.098
 3417SOL    HW110931   3.604   1.028   7.112
 3417SOL    HW210932   3.592   0.922   7.004
 3418SOL     OW10933   2.726   1.368   5.621
 3418SOL    HW110934   2.685   1.395   5.703
 3418SOL    HW210935   2.742   1.449   5.573
 3419SOL     OW10936   2.523   1.790   6.532
 3419SOL    HW110937   2.503   1.880   6.506
 3419SOL    HW210938   2.618   1.783   6.524
 3420SOL     OW10939   2.729   0.967   6.441
 3420SOL    HW110940   2.780   0.896   6.481
 3420SOL    HW210941   2.695   1.016   6.516
 3421SOL     OW10942   2.941   0.988   5.675
 3421SOL    HW110943   2.919   1.039   5.597
 3421SOL    HW210944   3.016   0.935   5.649
 3422SOL     OW10945   3.716   1.554   6.430
 3422SOL    HW110946   3.638   1.543   6.376
 3422SOL    HW210947   3.707   1.488   6.499
 3423SOL     OW10948   2.087   1.303   7.443
 3423SOL    HW110949   2.019   1.243   7.412
 3423SOL    HW210950   2.067   1.317   7.535
 3424SOL     OW10951   1.946   1.233   6.251
 3424SOL    HW110952   1.952   1.185   6.333
 3424SOL    HW210953   2.014   1.196   6.195
 3425SOL     OW10954   2.542   1.402   7.213
 3425SOL    HW110955   2.463   1.360   7.245
 3425SOL    HW210956   2.539   1.491   7.250
 3426SOL     OW10957   3.676   0.177   6.819
 3426SOL    HW110958   3.643   0.088   6.824
 3426SOL    HW210959   3.694   0.190   6.726
 3427SOL     OW10960   2.291   0.435   6.110
 3427SOL    HW110961   2.324   0.363   6.057
 3427SOL    HW210962   2.245   0.393   6.182
 3428SOL     OW10963   3.563   1.489   6.682
 3428SOL    HW110964   3.481   1.466   6.637
 3428SOL    HW210965   3.574   1.420   6.748
 3429SOL     OW10966   2.190   0.555   6.876
 3429SOL    HW110967   2.247   0.501   6.931
 3429SOL    HW210968   2.211   0.529   6.787
 3430SOL     OW10969   2.689   1.578   6.263
 3430SOL    HW110970   2.677   1.633   6.186
 3430SOL    HW210971   2.612   1.521   6.265
 3431SOL     OW10972   3.290   0.218   6.703
 3431SOL    HW110973   3.327   0.144   6.751
 3431SOL    HW210974   3.241   0.268   6.768
 3432SOL     OW10975   2.865   0.021   6.726
 3432SOL    HW110976   2.814   5.252   6.684
 3432SOL    HW210977   2.951   5.283   6.740
 3433SOL     OW10978   2.633   1.332   5.901
 3433SOL    HW110979   2.602   1.242   5.907
 3433SOL    HW210980   2.716   1.333   5.949
 3434SOL     OW10981   2.481   1.556   6.870
 3434SOL    HW110982   2.484   1.638   6.920
 3434SOL    HW210983   2.569   1.548   6.833
 3435SOL     OW10984   3.218   0.039   5.748
 3435SOL    HW110985   3.250   5.296   5.668
 3435SOL    HW210986   3.138   5.291   5.770
 3436SOL     OW10987   3.163   0.464   6.271
 3436SOL    HW110988   3.108   0.542   6.276
 3436SOL    HW210989   3.156   0.423   6.357
 3437SOL     OW10990   3.456   0.215   6.468
 3437SOL    HW110991   3.390   0.227   6.536
 3437SOL    HW210992   3.449   0.294   6.414
 3438SOL     OW10993   1.905   1.071   5.892
 3438SOL    HW110994   1.999   1.063   5.875
 3438SOL    HW210995   1.877   0.982   5.915
 3439SOL     OW10996   2.746   1.652   5.928
 3439SOL    HW110997   2.674   1.635   5.867
 3439SOL    HW210998   2.716   1.726   5.980
 3440SOL     OW10999   2.089   0.620   7.572
 3440SOL    HW111000   1.999   0.628   7.603
 3440SOL    HW211001   2.080   0.597   7.479
 3441SOL     OW11002   3.630   0.598   7.679
 3441SOL    HW111003   3.609   0.593   7.586
 3441SOL    HW211004   3.588   0.521   7.717
 3442SOL     OW11005   2.082   1.718   7.918
 3442SOL    HW111006   2.112   1.759   8.000
 3442SOL    HW211007   2.161   1.715   7.863
 3443SOL     OW11008   2.080   1.438   7.991
 3443SOL    HW111009   2.064   1.533   7.990
 3443SOL    HW211010   2.020   1.404   8.058
 3444SOL     OW11011   2.448   0.982   7.579
 3444SOL    HW111012   2.492   1.031   7.510
 3444SOL    HW211013   2.487   1.014   7.661
 3445SOL     OW11014   3.699   1.759   7.797
 3445SOL    HW111015   3.770   1.729   7.854
 3445SOL    HW211016   3.725   1.848   7.772
 3446SOL     OW11017   1.892   1.599   7.577
 3446SOL    HW111018   1.876   1.506   7.593
 3446SOL    HW211019   1.865   1.642   7.659
 3447SOL     OW11020   3.546   0.866   8.033
 3447SOL    HW111021   3.625   0.878   0.005
 3447SOL    HW211022   3.532   0.950   7.990
 3448SOL     OW11023   3.517   1.099   7.877
 3448SOL    HW111024   3.604   1.125   7.847
 3448SOL    HW211025   3.488   1.170   7.934
 3449SOL     OW11026   2.672   5.290   7.944
 3449SOL    HW111027   2.714   0.075   7.930
 3449SOL    HW211028   2.578   0.009   7.942
 3450SOL     OW11029   3.395   0.994   7.649
 3450SOL    HW111030   3.328   0.935   7.682
 3450SOL    HW211031   3.438   1.029   7.727
 3451SOL     OW11032   2.452   0.724   7.708
 3451SOL    HW111033   2.457   0.806   7.659
 3451SOL    HW211034   2.392   0.743   7.780
 3452SOL     OW11035   3.437   1.671   7.757
 3452SOL    HW111036   3.528   1.700   7.765
 3452SOL    HW211037   3.424   1.658   7.663
 3453SOL     OW11038   1.922   0.863   0.089
 3453SOL    HW111039   1.986   0.797   0.116
 3453SOL    HW211040   1.918   0.924   0.163
 3454SOL     OW11041   2.731   0.357   7.630
 3454SOL    HW111042   2.777   0.421   7.575
 3454SOL    HW211043   2.793   0.285   7.640
 3455SOL     OW11044   2.185   0.957   7.697
 3455SOL    HW111045   2.265   0.974   7.648
 3455SOL    HW211046   2.149   0.877   7.657
 3456SOL     OW11047   2.986   1.775   7.682
 3456SOL    HW111048   2.909   1.735   7.723
 3456SOL    HW211049   3.009   1.715   7.612
 3457SOL     OW11050   3.491   1.380   7.533
 3457SOL    HW111051   3.448   1.465   7.520
 3457SOL    HW211052   3.422   1.316   7.516
 3458SOL     OW11053   2.329   1.737   7.770
 3458SOL    HW111054   2.378   1.791   7.832
 3458SOL    HW211055   2.395   1.702   7.710
 3459SOL     OW11056   3.272   0.106   7.882
 3459SOL    HW111057   3.266   0.083   7.790
 3459SOL    HW211058   3.365   0.112   7.900
 3460SOL     OW11059   2.252   0.696   7.918
 3460SOL    HW111060   2.259   0.601   7.926
 3460SOL    HW211061   2.162   0.716   7.941
 3461SOL     OW11062   2.481   0.131   7.560
 3461SOL    HW111063   2.553   0.071   7.579
 3461SOL    HW211064   2.433   0.090   7.487
 3462SOL     OW11065   2.409   0.064   7.952
 3462SOL    HW111066   2.317   0.047   7.974
 3462SOL    HW211067   2.406   0.137   7.890
 3463SOL     OW11068   3.290   1.198   7.489
 3463SOL    HW111069   3.321   1.124   7.542
 3463SOL    HW211070   3.206   1.221   7.527
 3464SOL     OW11071   2.166   0.072   7.660
 3464SOL    HW111072   2.217   0.130   7.602
 3464SOL    HW211073   2.215   5.290   7.660
 3465SOL     OW11074   2.812   0.228   7.907
 3465SOL    HW111075   2.761   0.299   7.868
 3465SOL    HW211076   2.900   0.263   7.917
 3466SOL     OW11077   2.303   1.151   0.099
 3466SOL    HW111078   2.227   1.185   0.146
 3466SOL    HW211079   2.272   1.137   0.010
 3467SOL     OW11080   3.153   1.811   8.014
 3467SOL    HW111081   3.188   1.880   7.958
 3467SOL    HW211082   3.068   1.845   8.043
 3468SOL     OW11083   2.889   0.547   7.467
 3468SOL    HW111084   2.845   0.630   7.452
 3468SOL    HW211085   2.948   0.564   7.540
 3469SOL     OW11086   3.735   0.816   7.801
 3469SOL    HW111087   3.727   0.790   7.893
 3469SOL    HW211088   3.694   0.745   7.752
 3470SOL     OW11089   2.350   1.416   7.605
 3470SOL    HW111090   2.276   1.387   7.658
 3470SOL    HW211091   2.335   1.378   7.518
 3471SOL     OW11092   3.255   0.572   7.519
 3471SOL    HW111093   3.193   0.552   7.589
 3471SOL    HW211094   3.339   0.539   7.552
 3472SOL     OW11095   2.386   0.271   7.773
 3472SOL    HW111096   2.428   0.218   7.705
 3472SOL    HW211097   2.365   0.354   7.730
 3473SOL     OW11098   2.573   1.063   7.811
 3473SOL    HW111099   2.549   1.048   7.903
 3473SOL    HW211100   2.652   1.009   7.799
 3474SOL     OW11101   2.227   1.102   7.927
 3474SOL    HW111102   2.209   1.181   7.877
 3474SOL    HW211103   2.214   1.030   7.865
 3475SOL     OW11104   3.086   1.356   7.821
 3475SOL    HW111105   3.148   1.425   7.846
 3475SOL    HW211106   3.046   1.328   7.903
 3476SOL     OW11107   3.451   0.626   7.921
 3476SOL    HW111108   3.435   0.684   7.996
 3476SOL    HW211109   3.488   0.683   7.854
 3477SOL     OW11110   3.066   0.526   7.715
 3477SOL    HW111111   3.067   0.439   7.755
 3477SOL    HW211112   3.043   0.585   7.787
 3478SOL     OW11113   3.479   0.376   7.814
 3478SOL    HW111114   3.499   0.308   7.879
 3478SOL    HW211115   3.455   0.452   7.866
 3479SOL     OW11116   3.391   0.273   7.575
 3479SOL    HW111117   3.328   0.207   7.605
 3479SOL    HW211118   3.426   0.310   7.656
 3480SOL     OW11119   3.156   0.828   7.481
 3480SOL    HW111120   3.197   0.741   7.483
 3480SOL    HW211121   3.186   0.867   7.399
 3481SOL     OW11122   1.868   1.324   7.640
 3481SOL    HW111123   1.780   1.337   7.603
 3481SOL    HW211124   1.867   1.235   7.674
 3482SOL     OW11125   2.699   0.601   7.765
 3482SOL    HW111126   2.689   0.511   7.734
 3482SOL    HW211127   2.610   0.636   7.763
 3483SOL     OW11128   2.323   0.494   7.637
 3483SOL    HW111129   2.383   0.567   7.654
 3483SOL    HW211130   2.238   0.536   7.622
 3484SOL     OW11131   3.173   0.852   7.755
 3484SOL    HW111132   3.086   0.855   7.795
 3484SOL    HW211133   3.156   0.841   7.661
 3485SOL     OW11134   3.571   0.130   7.945
 3485SOL    HW111135   3.646   0.131   7.885
 3485SOL    HW211136   3.602   0.084   8.023
 3486SOL     OW11137   3.227   1.577   7.897
 3486SOL    HW111138   3.301   1.597   7.840
 3486SOL    HW211139   3.195   1.662   7.927
 3487SOL     OW11140   2.529   1.619   7.604
 3487SOL    HW111141   2.541   1.631   7.510
 3487SOL    HW211142   2.477   1.539   7.612
 3488SOL     OW11143   3.071   1.607   7.478
 3488SOL    HW111144   3.060   1.516   7.506
 3488SOL    HW211145   3.004   1.620   7.411
 3489SOL     OW11146   2.789   0.909   7.756
 3489SOL    HW111147   2.842   0.934   7.681
 3489SOL    HW211148   2.784   0.814   7.752
 3490SOL     OW11149   3.356   1.626   7.489
 3490SOL    HW111150   3.261   1.619   7.477
 3490SOL    HW211151   3.390   1.631   7.400
 3491SOL     OW11152   2.469   1.508   7.936
 3491SOL    HW111153   2.513   1.446   7.878
 3491SOL    HW211154   2.395   1.541   7.884
 3492SOL     OW11155   2.120   1.346   7.741
 3492SOL    HW111156   2.028   1.344   7.715
 3492SOL    HW211157   2.119   1.382   7.830
 3493SOL     OW11158   1.937   0.338   7.489
 3493SOL    HW111159   1.854   0.307   7.452
 3493SOL    HW211160   1.961   0.413   7.435
 3494SOL     OW11161   1.925   0.182   7.745
 3494SOL    HW111162   1.923   0.258   7.687
 3494SOL    HW211163   2.006   0.136   7.722
 3495SOL     OW11164   3.039   1.339   7.556
 3495SOL    HW111165   2.947   1.312   7.557
 3495SOL    HW211166   3.063   1.345   7.648
 3496SOL     OW11167   3.084   0.319   7.916
 3496SOL    HW111168   3.150   0.250   7.910
 3496SOL    HW211169   3.108   0.367   7.996
 3497SOL     OW11170   2.486   0.735   8.056
 3497SOL    HW111171   2.492   0.818   0.024
 3497SOL    HW211172   2.399   0.736   8.017
 3498SOL     OW11173   2.724   1.367   7.482
 3498SOL    HW111174   2.686   1.396   7.565
 3498SOL    HW211175   2.743   1.449   7.436
 3499SOL     OW11176   2.934   0.978   7.537
 3499SOL    HW111177   2.916   1.035   7.463
 3499SOL    HW211178   3.013   0.930   7.512
 3500SOL     OW11179   2.250   0.420   7.984
 3500SOL    HW111180   2.303   0.369   7.924
 3500SOL    HW211181   2.299   0.419   8.067
 3501SOL     OW11182   2.628   1.335   7.761
 3501SOL    HW111183   2.597   1.245   7.762
 3501SOL    HW211184   2.710   1.333   7.810
 3502SOL     OW11185   3.227   0.037   7.611
 3502SOL    HW111186   3.239   5.290   7.528
 3502SOL    HW211187   3.144   0.006   7.645
 3503SOL     OW11188   1.913   1.079   7.750
 3503SOL    HW111189   2.007   1.068   7.736
 3503SOL    HW211190   1.881   0.990   7.765
 3504SOL     OW11191   2.755   1.652   7.781
 3504SOL    HW111192   2.678   1.628   7.729
 3504SOL    HW211193   2.721   1.714   7.845
 3505SOL     OW11194   2.086   2.482   0.124
 3505SOL    HW111195   2.002   2.455   0.162
 3505SOL    HW211196   2.097   2.424   0.048
 3506SOL     OW11197   2.086   2.140   0.991
 3506SOL    HW111198   2.114   2.106   1.076
 3506SOL    HW211199   1.996   2.109   0.981
 3507SOL     OW11200   1.866   2.244   0.638
 3507SOL    HW111201   1.784   2.270   0.680
 3507SOL    HW211202   1.843   2.164   0.590
 3508SOL     OW11203   2.428   3.149   1.176
 3508SOL    HW111204   2.341   3.154   1.136
 3508SOL    HW211205   2.444   3.237   1.210
 3509SOL     OW11206   3.422   3.374   0.707
 3509SOL    HW111207   3.379   3.355   0.790
 3509SOL    HW211208   3.350   3.378   0.644
 3510SOL     OW11209   3.026   2.540   0.738
 3510SOL    HW111210   3.045   2.628   0.706
 3510SOL    HW211211   2.940   2.548   0.779
 3511SOL     OW11212   3.630   2.463   0.233
 3511SOL    HW111213   3.594   2.464   0.145
 3511SOL    HW211214   3.591   2.385   0.274
 3512SOL     OW11215   2.633   3.021   1.040
 3512SOL    HW111216   2.555   3.039   1.092
 3512SOL    HW211217   2.654   3.104   0.998
 3513SOL     OW11218   2.569   3.024   1.824
 3513SOL    HW111219   2.622   3.103   1.837
 3513SOL    HW211220   2.492   3.056   1.775
 3514SOL     OW11221   2.191   3.290   1.068
 3514SOL    HW111222   2.120   3.251   1.017
 3514SOL    HW211223   2.243   3.339   1.003
 3515SOL     OW11224   3.323   3.361   1.354
 3515SOL    HW111225   3.373   3.442   1.364
 3515SOL    HW211226   3.260   3.363   1.427
 3516SOL     OW11227   2.312   2.264   1.499
 3516SOL    HW111228   2.388   2.206   1.496
 3516SOL    HW211229   2.237   2.206   1.508
 3517SOL     OW11230   3.475   2.310   0.740
 3517SOL    HW111231   3.398   2.332   0.687
 3517SOL    HW211232   3.488   2.386   0.797
 3518SOL     OW11233   2.082   3.577   0.471
 3518SOL    HW111234   2.103   3.653   0.526
 3518SOL    HW211235   2.157   3.568   0.412
 3519SOL     OW11236   3.000   3.205   1.694
 3519SOL    HW111237   3.040   3.199   1.781
 3519SOL    HW211238   2.948   3.125   1.686
 3520SOL     OW11239   2.087   3.304   0.534
 3520SOL    HW111240   2.074   3.399   0.536
 3520SOL    HW211241   2.028   3.270   0.601
 3521SOL     OW11242   2.115   2.952   0.887
 3521SOL    HW111243   2.113   2.868   0.931
 3521SOL    HW211244   2.061   3.009   0.942
 3522SOL     OW11245   2.474   3.654   1.430
 3522SOL    HW111246   2.392   3.636   1.476
 3522SOL    HW211247   2.496   3.744   1.455
 3523SOL     OW11248   2.467   2.855   0.104
 3523SOL    HW111249   2.419   2.937   0.093
 3523SOL    HW211250   2.506   2.862   0.192
 3524SOL     OW11251   3.458   1.985   1.468
 3524SOL    HW111252   3.465   2.066   1.417
 3524SOL    HW211253   3.444   2.015   1.558
 3525SOL     OW11254   1.978   2.510   0.564
 3525SOL    HW111255   1.943   2.424   0.585
 3525SOL    HW211256   1.968   2.561   0.645
 3526SOL     OW11257   3.707   3.620   0.332
 3526SOL    HW111258   3.772   3.590   0.396
 3526SOL    HW211259   3.732   3.711   0.314
 3527SOL     OW11260   1.890   3.458   0.111
 3527SOL    HW111261   1.878   3.370   0.145
 3527SOL    HW211262   1.875   3.516   0.186
 3528SOL     OW11263   3.550   2.780   0.643
 3528SOL    HW111264   3.634   2.738   0.623
 3528SOL    HW211265   3.529   2.832   0.565
 3529SOL     OW11266   3.508   2.967   0.435
 3529SOL    HW111267   3.588   2.981   0.384
 3529SOL    HW211268   3.514   3.029   0.507
 3530SOL     OW11269   1.981   2.604   1.586
 3530SOL    HW111270   2.072   2.631   1.600
 3530SOL    HW211271   1.931   2.686   1.593
 3531SOL     OW11272   2.478   3.247   0.735
 3531SOL    HW111273   2.433   3.163   0.745
 3531SOL    HW211274   2.459   3.273   0.645
 3532SOL     OW11275   3.151   3.098   1.425
 3532SOL    HW111276   3.183   3.032   1.364
 3532SOL    HW211277   3.210   3.093   1.501
 3533SOL     OW11278   2.678   1.866   0.511
 3533SOL    HW111279   2.716   1.951   0.489
 3533SOL    HW211280   2.584   1.883   0.519
 3534SOL     OW11281   2.046   2.832   1.270
 3534SOL    HW111282   2.130   2.788   1.257
 3534SOL    HW211283   1.983   2.776   1.225
 3535SOL     OW11284   3.369   2.869   0.214
 3535SOL    HW111285   3.320   2.792   0.243
 3535SOL    HW211286   3.423   2.894   0.289
 3536SOL     OW11287   3.048   3.668   1.622
 3536SOL    HW111288   3.058   3.727   1.547
 3536SOL    HW211289   3.063   3.581   1.586
 3537SOL     OW11290   2.192   2.111   1.808
 3537SOL    HW111291   2.238   2.193   1.825
 3537SOL    HW211292   2.104   2.125   1.842
 3538SOL     OW11293   3.329   3.282   0.952
 3538SOL    HW111294   3.261   3.297   1.018
 3538SOL    HW211295   3.317   3.191   0.926
 3539SOL     OW11296   3.521   3.602   0.581
 3539SOL    HW111297   3.500   3.574   0.492
 3539SOL    HW211298   3.496   3.528   0.636
 3540SOL     OW11299   3.143   2.211   0.932
 3540SOL    HW111300   3.054   2.179   0.941
 3540SOL    HW211301   3.194   2.159   0.995
 3541SOL     OW11302   3.449   3.532   0.319
 3541SOL    HW111303   3.539   3.562   0.312
 3541SOL    HW211304   3.422   3.516   0.229
 3542SOL     OW11305   3.257   2.336   1.677
 3542SOL    HW111306   3.257   2.380   1.762
 3542SOL    HW211307   3.318   2.263   1.688
 3543SOL     OW11308   2.850   2.272   1.248
 3543SOL    HW111309   2.762   2.283   1.282
 3543SOL    HW211310   2.837   2.239   1.159
 3544SOL     OW11311   1.951   2.683   0.776
 3544SOL    HW111312   2.031   2.677   0.827
 3544SOL    HW211313   1.906   2.760   0.810
 3545SOL     OW11314   1.989   3.709   1.578
 3545SOL    HW111315   1.989   3.689   1.671
 3545SOL    HW211316   1.897   3.702   1.552
 3546SOL     OW11317   2.749   2.220   0.208
 3546SOL    HW111318   2.798   2.267   0.141
 3546SOL    HW211319   2.747   2.129   0.176
 3547SOL     OW11320   3.570   2.437   1.828
 3547SOL    HW111321   3.532   2.511   1.780
 3547SOL    HW211322   3.598   2.376   1.760
 3548SOL     OW11323   3.235   2.999   0.538
 3548SOL    HW111324   3.317   2.991   0.489
 3548SOL    HW211325   3.186   3.067   0.491
 3549SOL     OW11326   2.410   2.040   0.889
 3549SOL    HW111327   2.411   2.064   0.982
 3549SOL    HW211328   2.409   2.124   0.842
 3550SOL     OW11329   2.865   3.306   0.473
 3550SOL    HW111330   2.829   3.379   0.423
 3550SOL    HW211331   2.848   3.329   0.564
 3551SOL     OW11332   2.217   3.671   0.862
 3551SOL    HW111333   2.260   3.586   0.869
 3551SOL    HW211334   2.285   3.735   0.880
 3552SOL     OW11335   3.661   2.918   0.869
 3552SOL    HW111336   3.606   2.901   0.793
 3552SOL    HW211337   3.600   2.924   0.942
 3553SOL     OW11338   3.089   3.400   1.512
 3553SOL    HW111339   3.076   3.328   1.574
 3553SOL    HW211340   3.026   3.384   1.442
 3554SOL     OW11341   2.195   2.809   0.246
 3554SOL    HW111342   2.272   2.830   0.193
 3554SOL    HW211343   2.192   2.714   0.246
 3555SOL     OW11344   3.337   2.608   0.726
 3555SOL    HW111345   3.329   2.563   0.810
 3555SOL    HW211346   3.417   2.661   0.735
 3556SOL     OW11347   2.326   3.128   1.737
 3556SOL    HW111348   2.299   3.132   1.646
 3556SOL    HW211349   2.245   3.125   1.787
 3557SOL     OW11350   2.970   3.643   0.225
 3557SOL    HW111351   2.913   3.603   0.290
 3557SOL    HW211352   2.990   3.572   0.164
 3558SOL     OW11353   2.063   2.145   1.502
 3558SOL    HW111354   1.979   2.190   1.496
 3558SOL    HW211355   2.048   2.073   1.563
 3559SOL     OW11356   3.495   3.235   0.083
 3559SOL    HW111357   3.455   3.321   0.082
 3559SOL    HW211358   3.423   3.174   0.064
 3560SOL     OW11359   2.326   3.600   0.324
 3560SOL    HW111360   2.369   3.659   0.386
 3560SOL    HW211361   2.396   3.574   0.264
 3561SOL     OW11362   3.269   1.973   0.443
 3561SOL    HW111363   3.260   1.952   0.351
 3561SOL    HW211364   3.363   1.980   0.458
 3562SOL     OW11365   2.117   3.653   1.232
 3562SOL    HW111366   2.169   3.588   1.278
 3562SOL    HW211367   2.109   3.618   1.143
 3563SOL     OW11368   2.798   3.563   0.898
 3563SOL    HW111369   2.873   3.509   0.925
 3563SOL    HW211370   2.755   3.512   0.830
 3564SOL     OW11371   2.242   2.552   0.465
 3564SOL    HW111372   2.274   2.465   0.488
 3564SOL    HW211373   2.152   2.554   0.497
 3565SOL     OW11374   3.398   2.087   1.725
 3565SOL    HW111375   3.406   2.108   1.818
 3565SOL    HW211376   3.328   2.021   1.722
 3566SOL     OW11377   2.491   1.977   0.135
 3566SOL    HW111378   2.586   1.963   0.143
 3566SOL    HW211379   2.471   1.953   0.045
 3567SOL     OW11380   2.619   2.115   1.745
 3567SOL    HW111381   2.702   2.068   1.752
 3567SOL    HW211382   2.602   2.146   1.834
 3568SOL     OW11383   2.739   3.386   1.194
 3568SOL    HW111384   2.722   3.350   1.107
 3568SOL    HW211385   2.805   3.329   1.232
 3569SOL     OW11386   3.210   2.451   1.428
 3569SOL    HW111387   3.237   2.419   1.515
 3569SOL    HW211388   3.246   2.539   1.423
 3570SOL     OW11389   2.678   3.270   0.936
 3570SOL    HW111390   2.761   3.252   0.893
 3570SOL    HW211391   2.613   3.264   0.866
 3571SOL     OW11392   2.778   2.351   0.899
 3571SOL    HW111393   2.763   2.337   0.806
 3571SOL    HW211394   2.827   2.274   0.927
 3572SOL     OW11395   2.412   1.926   0.505
 3572SOL    HW111396   2.331   1.924   0.557
 3572SOL    HW211397   2.404   2.004   0.451
 3573SOL     OW11398   3.295   3.061   0.035
 3573SOL    HW111399   3.318   2.988   0.092
 3573SOL    HW211400   3.207   3.086   0.064
 3574SOL     OW11401   2.172   1.917   0.169
 3574SOL    HW111402   2.238   1.985   0.186
 3574SOL    HW211403   2.208   1.839   0.211
 3575SOL     OW11404   2.801   2.112   0.459
 3575SOL    HW111405   2.775   2.151   0.375
 3575SOL    HW211406   2.896   2.122   0.462
 3576SOL     OW11407   2.943   2.521   1.461
 3576SOL    HW111408   2.898   2.440   1.438
 3576SOL    HW211409   3.035   2.504   1.442
 3577SOL     OW11410   3.088   3.429   0.792
 3577SOL    HW111411   3.102   3.498   0.727
 3577SOL    HW211412   3.153   3.446   0.860
 3578SOL     OW11413   2.329   3.018   0.731
 3578SOL    HW111414   2.262   2.994   0.795
 3578SOL    HW211415   2.293   2.993   0.647
 3579SOL     OW11416   3.130   3.656   0.607
 3579SOL    HW111417   3.179   3.719   0.555
 3579SOL    HW211418   3.064   3.708   0.652
 3580SOL     OW11419   2.917   2.371   0.027
 3580SOL    HW111420   2.871   2.452   0.004
 3580SOL    HW211421   2.976   2.396   0.098
 3581SOL     OW11422   1.941   2.417   1.390
 3581SOL    HW111423   2.034   2.415   1.366
 3581SOL    HW211424   1.935   2.488   1.455
 3582SOL     OW11425   2.417   2.075   1.160
 3582SOL    HW111426   2.459   2.000   1.203
 3582SOL    HW211427   2.327   2.074   1.193
 3583SOL     OW11428   2.718   2.308   0.640
 3583SOL    HW111429   2.727   2.382   0.580
 3583SOL    HW211430   2.744   2.231   0.588
 3584SOL     OW11431   2.876   1.914   0.750
 3584SOL    HW111432   2.817   1.906   0.675
 3584SOL    HW211433   2.855   1.839   0.806
 3585SOL     OW11434   3.301   3.025   0.858
 3585SOL    HW111435   3.233   2.958   0.856
 3585SOL    HW211436   3.327   3.037   0.766
 3586SOL     OW11437   3.331   2.467   0.975
 3586SOL    HW111438   3.277   2.387   0.980
 3586SOL    HW211439   3.389   2.460   1.051
 3587SOL     OW11440   3.709   2.677   0.388
 3587SOL    HW111441   3.762   2.624   0.448
 3587SOL    HW211442   3.679   2.615   0.322
 3588SOL     OW11443   2.341   3.306   0.176
 3588SOL    HW111444   2.271   3.264   0.225
 3588SOL    HW211445   2.351   3.252   0.097
 3589SOL     OW11446   3.531   3.127   0.648
 3589SOL    HW111447   3.626   3.130   0.661
 3589SOL    HW211448   3.502   3.215   0.668
 3590SOL     OW11449   3.259   2.440   0.087
 3590SOL    HW111450   3.198   2.418   0.157
 3590SOL    HW211451   3.316   2.363   0.080
 3591SOL     OW11452   2.377   2.128   0.324
 3591SOL    HW111453   2.427   2.075   0.262
 3591SOL    HW211454   2.366   2.212   0.281
 3592SOL     OW11455   3.615   3.101   1.573
 3592SOL    HW111456   3.702   3.062   1.569
 3592SOL    HW211457   3.630   3.191   1.602
 3593SOL     OW11458   2.924   3.219   1.335
 3593SOL    HW111459   2.847   3.187   1.382
 3593SOL    HW211460   2.998   3.175   1.376
 3594SOL     OW11461   3.470   3.487   1.654
 3594SOL    HW111462   3.464   3.522   1.565
 3594SOL    HW211463   3.553   3.440   1.656
 3595SOL     OW11464   2.990   3.064   1.104
 3595SOL    HW111465   2.927   3.091   1.171
 3595SOL    HW211466   2.954   3.096   1.022
 3596SOL     OW11467   3.491   2.961   1.078
 3596SOL    HW111468   3.487   3.022   1.151
 3596SOL    HW211469   3.412   2.978   1.027
 3597SOL     OW11470   2.780   1.958   1.396
 3597SOL    HW111471   2.803   1.940   1.305
 3597SOL    HW211472   2.859   1.998   1.433
 3598SOL     OW11473   2.851   2.974   1.717
 3598SOL    HW111474   2.759   2.986   1.740
 3598SOL    HW211475   2.849   2.920   1.637
 3599SOL     OW11476   2.568   2.945   0.363
 3599SOL    HW111477   2.521   2.935   0.446
 3599SOL    HW211478   2.611   2.861   0.349
 3600SOL     OW11479   2.267   2.675   1.255
 3600SOL    HW111480   2.357   2.684   1.289
 3600SOL    HW211481   2.243   2.584   1.276
 3601SOL     OW11482   3.128   2.239   1.275
 3601SOL    HW111483   3.163   2.316   1.320
 3601SOL    HW211484   3.038   2.262   1.253
 3602SOL     OW11485   1.933   3.435   1.352
 3602SOL    HW111486   1.903   3.508   1.298
 3602SOL    HW211487   2.028   3.438   1.347
 3603SOL     OW11488   2.219   2.968   0.484
 3603SOL    HW111489   2.210   3.043   0.426
 3603SOL    HW211490   2.216   2.892   0.425
 3604SOL     OW11491   2.410   2.375   0.869
 3604SOL    HW111492   2.409   2.402   0.777
 3604SOL    HW211493   2.501   2.388   0.896
 3605SOL     OW11494   3.109   3.208   0.396
 3605SOL    HW111495   3.164   3.282   0.422
 3605SOL    HW211496   3.021   3.233   0.426
 3606SOL     OW11497   3.142   3.319   1.146
 3606SOL    HW111498   3.197   3.321   1.225
 3606SOL    HW211499   3.083   3.245   1.160
 3607SOL     OW11500   3.442   2.486   0.481
 3607SOL    HW111501   3.396   2.539   0.546
 3607SOL    HW211502   3.483   2.549   0.422
 3608SOL     OW11503   2.209   3.389   1.316
 3608SOL    HW111504   2.196   3.347   1.230
 3608SOL    HW211505   2.304   3.401   1.322
 3609SOL     OW11506   2.265   2.604   1.610
 3609SOL    HW111507   2.318   2.654   1.549
 3609SOL    HW211508   2.296   2.513   1.599
 3610SOL     OW11509   3.463   2.641   1.682
 3610SOL    HW111510   3.376   2.682   1.674
 3610SOL    HW211511   3.515   2.683   1.614
 3611SOL     OW11512   2.863   1.987   1.759
 3611SOL    HW111513   2.916   2.059   1.726
 3611SOL    HW211514   2.909   1.908   1.732
 3612SOL     OW11515   2.359   1.901   1.746
 3612SOL    HW111516   2.315   1.847   1.680
 3612SOL    HW211517   2.301   1.976   1.758
 3613SOL     OW11518   3.225   2.721   1.030
 3613SOL    HW111519   3.144   2.709   0.980
 3613SOL    HW211520   3.267   2.635   1.029
 3614SOL     OW11521   3.060   2.390   0.273
 3614SOL    HW111522   3.064   2.309   0.323
 3614SOL    HW211523   3.075   2.459   0.337
 3615SOL     OW11524   2.160   2.061   1.247
 3615SOL    HW111525   2.123   2.093   1.330
 3615SOL    HW211526   2.141   1.967   1.248
 3616SOL     OW11527   1.907   3.173   1.276
 3616SOL    HW111528   1.941   3.119   1.347
 3616SOL    HW211529   1.915   3.263   1.309
 3617SOL     OW11530   3.597   2.821   1.852
 3617SOL    HW111531   3.550   2.760   1.795
 3617SOL    HW211532   3.537   2.835   1.926
 3618SOL     OW11533   2.165   1.928   0.623
 3618SOL    HW111534   2.145   2.018   0.648
 3618SOL    HW211535   2.172   1.882   0.707
 3619SOL     OW11536   3.483   2.237   0.370
 3619SOL    HW111537   3.507   2.172   0.435
 3619SOL    HW211538   3.457   2.314   0.421
 3620SOL     OW11539   2.843   3.428   1.716
 3620SOL    HW111540   2.828   3.473   1.633
 3620SOL    HW211541   2.888   3.347   1.692
 3621SOL     OW11542   3.717   3.368   1.605
 3621SOL    HW111543   3.735   3.394   1.515
 3621SOL    HW211544   3.798   3.387   1.653
 3622SOL     OW11545   2.210   2.781   1.813
 3622SOL    HW111546   2.290   2.809   1.857
 3622SOL    HW211547   2.238   2.715   1.750
 3623SOL     OW11548   3.378   2.164   0.127
 3623SOL    HW111549   3.331   2.082   0.142
 3623SOL    HW211550   3.419   2.184   0.211
 3624SOL     OW11551   3.159   2.687   0.022
 3624SOL    HW111552   3.195   2.600   0.037
 3624SOL    HW211553   3.215   2.725   8.034
 3625SOL     OW11554   2.926   3.199   0.849
 3625SOL    HW111555   2.931   3.130   0.784
 3625SOL    HW211556   2.988   3.265   0.819
 3626SOL     OW11557   2.168   2.673   0.949
 3626SOL    HW111558   2.258   2.705   0.957
 3626SOL    HW211559   2.171   2.587   0.989
 3627SOL     OW11560   2.188   2.385   1.019
 3627SOL    HW111561   2.151   2.299   1.004
 3627SOL    HW211562   2.266   2.389   0.963
 3628SOL     OW11563   2.999   2.235   1.679
 3628SOL    HW111564   2.954   2.289   1.743
 3628SOL    HW211565   3.086   2.274   1.672
 3629SOL     OW11566   3.023   2.064   1.469
 3629SOL    HW111567   3.013   2.126   1.540
 3629SOL    HW211568   3.062   2.115   1.398
 3630SOL     OW11569   1.873   3.187   0.190
 3630SOL    HW111570   1.786   3.201   0.152
 3630SOL    HW211571   1.871   3.096   0.222
 3631SOL     OW11572   1.952   3.649   0.938
 3631SOL    HW111573   1.922   3.570   0.894
 3631SOL    HW211574   2.042   3.661   0.907
 3632SOL     OW11575   2.359   3.435   0.905
 3632SOL    HW111576   2.427   3.497   0.930
 3632SOL    HW211577   2.404   3.371   0.850
 3633SOL     OW11578   1.897   2.406   1.117
 3633SOL    HW111579   1.979   2.396   1.068
 3633SOL    HW211580   1.924   2.411   1.208
 3634SOL     OW11581   2.053   2.381   1.727
 3634SOL    HW111582   2.103   2.337   1.658
 3634SOL    HW211583   2.010   2.454   1.682
 3635SOL     OW11584   3.238   2.802   1.658
 3635SOL    HW111585   3.260   2.895   1.656
 3635SOL    HW211586   3.236   2.775   1.566
 3636SOL     OW11587   3.504   2.464   1.186
 3636SOL    HW111588   3.493   2.405   1.261
 3636SOL    HW211589   3.591   2.443   1.152
 3637SOL     OW11590   2.105   3.413   1.728
 3637SOL    HW111591   2.082   3.477   1.795
 3637SOL    HW211592   2.107   3.330   1.774
 3638SOL     OW11593   2.549   2.291   1.253
 3638SOL    HW111594   2.499   2.214   1.229
 3638SOL    HW211595   2.550   2.345   1.174
 3639SOL     OW11596   2.788   3.542   1.469
 3639SOL    HW111597   2.765   3.505   1.384
 3639SOL    HW211598   2.784   3.637   1.456
 3640SOL     OW11599   2.333   2.361   0.189
 3640SOL    HW111600   2.393   2.434   0.202
 3640SOL    HW211601   2.246   2.401   0.191
 3641SOL     OW11602   2.007   3.004   1.473
 3641SOL    HW111603   2.009   2.951   1.553
 3641SOL    HW211604   2.022   2.941   1.402
 3642SOL     OW11605   3.189   2.910   1.224
 3642SOL    HW111606   3.212   2.846   1.156
 3642SOL    HW211607   3.119   2.962   1.184
 3643SOL     OW11608   3.165   2.691   0.304
 3643SOL    HW111609   3.088   2.733   0.343
 3643SOL    HW211610   3.151   2.698   0.210
 3644SOL     OW11611   3.633   3.606   1.149
 3644SOL    HW111612   3.694   3.632   1.080
 3644SOL    HW211613   3.609   3.516   1.128
 3645SOL     OW11614   3.103   3.595   1.112
 3645SOL    HW111615   3.185   3.615   1.068
 3645SOL    HW211616   3.108   3.501   1.132
 3646SOL     OW11617   1.946   3.129   1.012
 3646SOL    HW111618   1.932   3.142   1.106
 3646SOL    HW211619   1.873   3.074   0.984
 3647SOL     OW11620   2.539   3.528   1.729
 3647SOL    HW111621   2.486   3.607   1.723
 3647SOL    HW211622   2.605   3.538   1.660
 3648SOL     OW11623   2.767   1.955   0.135
 3648SOL    HW111624   2.783   1.939   0.042
 3648SOL    HW211625   2.831   1.900   0.180
 3649SOL     OW11626   3.580   2.007   0.509
 3649SOL    HW111627   3.653   1.991   0.449
 3649SOL    HW211628   3.565   1.922   0.551
 3650SOL     OW11629   3.251   3.430   0.485
 3650SOL    HW111630   3.315   3.463   0.421
 3650SOL    HW211631   3.204   3.508   0.514
 3651SOL     OW11632   1.998   3.659   1.843
 3651SOL    HW111633   1.947   3.593   1.892
 3651SOL    HW211634   2.046   3.707   1.911
 3652SOL     OW11635   3.130   2.788   0.671
 3652SOL    HW111636   3.203   2.726   0.679
 3652SOL    HW211637   3.167   2.860   0.619
 3653SOL     OW11638   2.688   3.139   1.436
 3653SOL    HW111639   2.647   3.181   1.511
 3653SOL    HW211640   2.617   3.124   1.374
 3654SOL     OW11641   2.539   3.484   0.155
 3654SOL    HW111642   2.544   3.489   0.059
 3654SOL    HW211643   2.477   3.413   0.171
 3655SOL     OW11644   3.488   3.589   1.391
 3655SOL    HW111645   3.538   3.596   1.310
 3655SOL    HW211646   3.475   3.679   1.419
 3656SOL     OW11647   3.703   2.035   0.967
 3656SOL    HW111648   3.731   1.948   0.940
 3656SOL    HW211649   3.616   2.045   0.927
 3657SOL     OW11650   2.124   2.181   0.717
 3657SOL    HW111651   2.037   2.213   0.693
 3657SOL    HW211652   2.120   2.170   0.812
 3658SOL     OW11653   3.020   3.444   0.052
 3658SOL    HW111654   3.035   3.352   0.071
 3658SOL    HW211655   3.028   3.451   8.036
 3659SOL     OW11656   3.372   3.485   0.061
 3659SOL    HW111657   3.277   3.487   0.050
 3659SOL    HW211658   3.406   3.487   8.051
 3660SOL     OW11659   2.229   3.165   1.493
 3660SOL    HW111660   2.218   3.242   1.436
 3660SOL    HW211661   2.153   3.111   1.475
 3661SOL     OW11662   3.473   3.145   1.281
 3661SOL    HW111663   3.533   3.135   1.355
 3661SOL    HW211664   3.412   3.214   1.308
 3662SOL     OW11665   2.910   2.966   0.702
 3662SOL    HW111666   2.846   2.918   0.754
 3662SOL    HW211667   2.978   2.901   0.683
 3663SOL     OW11668   2.887   2.098   0.966
 3663SOL    HW111669   2.882   2.048   0.884
 3663SOL    HW211670   2.881   2.031   1.034
 3664SOL     OW11671   2.463   3.349   0.479
 3664SOL    HW111672   2.508   3.304   0.408
 3664SOL    HW211673   2.394   3.399   0.436
 3665SOL     OW11674   3.584   2.254   1.380
 3665SOL    HW111675   3.656   2.317   1.379
 3665SOL    HW211676   3.614   2.183   1.324
 3666SOL     OW11677   2.126   3.179   0.302
 3666SOL    HW111678   2.042   3.195   0.257
 3666SOL    HW211679   2.119   3.228   0.384
 3667SOL     OW11680   1.973   2.883   1.718
 3667SOL    HW111681   1.896   2.861   1.772
 3667SOL    HW211682   2.047   2.847   1.767
 3668SOL     OW11683   2.533   2.056   1.494
 3668SOL    HW111684   2.618   2.039   1.455
 3668SOL    HW211685   2.552   2.079   1.585
 3669SOL     OW11686   1.921   2.220   0.039
 3669SOL    HW111687   1.843   2.168   0.016
 3669SOL    HW211688   1.961   2.241   8.035
 3670SOL     OW11689   3.293   2.721   1.401
 3670SOL    HW111690   3.243   2.781   1.346
 3670SOL    HW211691   3.382   2.724   1.366
 3671SOL     OW11692   1.934   2.016   0.305
 3671SOL    HW111693   1.917   2.100   0.261
 3671SOL    HW211694   2.017   1.987   0.269
 3672SOL     OW11695   3.047   3.182   0.121
 3672SOL    HW111696   2.953   3.170   0.119
 3672SOL    HW211697   3.069   3.183   0.214
 3673SOL     OW11698   3.346   3.638   0.978
 3673SOL    HW111699   3.370   3.698   0.907
 3673SOL    HW211700   3.429   3.620   1.023
 3674SOL     OW11701   3.334   3.061   1.632
 3674SOL    HW111702   3.322   3.076   1.726
 3674SOL    HW211703   3.428   3.077   1.618
 3675SOL     OW11704   2.241   3.601   1.564
 3675SOL    HW111705   2.156   3.643   1.550
 3675SOL    HW211706   2.221   3.518   1.606
 3676SOL     OW11707   3.532   2.743   1.255
 3676SOL    HW111708   3.525   2.658   1.213
 3676SOL    HW211709   3.522   2.807   1.184
 3677SOL     OW11710   3.080   2.180   0.459
 3677SOL    HW111711   3.144   2.110   0.450
 3677SOL    HW211712   3.108   2.229   0.536
 3678SOL     OW11713   3.625   2.223   1.650
 3678SOL    HW111714   3.607   2.239   1.557
 3678SOL    HW211715   3.553   2.167   1.679
 3679SOL     OW11716   3.607   2.795   1.512
 3679SOL    HW111717   3.605   2.890   1.526
 3679SOL    HW211718   3.592   2.784   1.419
 3680SOL     OW11719   2.759   3.236   0.037
 3680SOL    HW111720   2.695   3.229   0.108
 3680SOL    HW211721   2.739   3.320   8.076
 3681SOL     OW11722   2.522   3.654   0.945
 3681SOL    HW111723   2.503   3.745   0.921
 3681SOL    HW211724   2.617   3.647   0.938
 3682SOL     OW11725   2.962   2.863   0.092
 3682SOL    HW111726   2.945   2.919   0.016
 3682SOL    HW211727   3.029   2.802   0.062
 3683SOL     OW11728   3.717   3.416   0.844
 3683SOL    HW111729   3.638   3.406   0.791
 3683SOL    HW211730   3.707   3.351   0.914
 3684SOL     OW11731   2.086   3.165   1.856
 3684SOL    HW111732   2.018   3.105   1.827
 3684SOL    HW211733   2.069   3.177   1.950
 3685SOL     OW11734   1.945   3.094   0.666
 3685SOL    HW111735   1.951   3.046   0.748
 3685SOL    HW211736   2.020   3.062   0.614
 3686SOL     OW11737   2.542   3.264   1.628
 3686SOL    HW111738   2.461   3.222   1.657
 3686SOL    HW211739   2.537   3.353   1.664
 3687SOL     OW11740   3.674   2.046   1.237
 3687SOL    HW111741   3.685   1.952   1.252
 3687SOL    HW211742   3.684   2.057   1.143
 3688SOL     OW11743   2.306   2.296   0.540
 3688SOL    HW111744   2.325   2.230   0.474
 3688SOL    HW211745   2.244   2.254   0.600
 3689SOL     OW11746   3.563   3.351   1.096
 3689SOL    HW111747   3.481   3.328   1.051
 3689SOL    HW211748   3.574   3.283   1.162
 3690SOL     OW11749   2.196   2.414   1.297
 3690SOL    HW111750   2.250   2.355   1.349
 3690SOL    HW211751   2.208   2.384   1.207
 3691SOL     OW11752   2.690   3.440   0.675
 3691SOL    HW111753   2.676   3.493   0.597
 3691SOL    HW211754   2.613   3.383   0.680
 3692SOL     OW11755   3.295   2.086   1.119
 3692SOL    HW111756   3.321   2.007   1.166
 3692SOL    HW211757   3.242   2.136   1.182
 3693SOL     OW11758   2.871   1.879   1.142
 3693SOL    HW111759   2.817   1.811   1.103
 3693SOL    HW211760   2.959   1.842   1.145
 3694SOL     OW11761   2.635   3.203   0.302
 3694SOL    HW111762   2.603   3.114   0.313
 3694SOL    HW211763   2.715   3.207   0.354
 3695SOL     OW11764   2.481   3.421   1.284
 3695SOL    HW111765   2.485   3.502   1.334
 3695SOL    HW211766   2.569   3.410   1.248
 3696SOL     OW11767   3.218   1.916   0.184
 3696SOL    HW111768   3.240   1.869   0.104
 3696SOL    HW211769   3.132   1.882   0.210
 3697SOL     OW11770   3.164   2.315   0.681
 3697SOL    HW111771   3.119   2.399   0.693
 3697SOL    HW211772   3.161   2.273   0.767
 3698SOL     OW11773   3.448   2.064   0.878
 3698SOL    HW111774   3.388   2.084   0.949
 3698SOL    HW211775   3.448   2.142   0.823
 3699SOL     OW11776   1.904   2.929   0.301
 3699SOL    HW111777   2.000   2.929   0.303
 3699SOL    HW211778   1.879   2.846   0.343
 3700SOL     OW11779   2.745   3.515   0.347
 3700SOL    HW111780   2.677   3.498   0.282
 3700SOL    HW211781   2.713   3.591   0.396
 3701SOL     OW11782   2.093   2.481   1.984
 3701SOL    HW111783   2.004   2.486   2.020
 3701SOL    HW211784   2.081   2.457   1.892
 3702SOL     OW11785   2.082   2.127   2.833
 3702SOL    HW111786   2.119   2.097   2.916
 3702SOL    HW211787   1.991   2.096   2.834
 3703SOL     OW11788   1.865   2.245   2.500
 3703SOL    HW111789   1.782   2.270   2.541
 3703SOL    HW211790   1.845   2.165   2.452
 3704SOL     OW11791   3.423   3.373   2.568
 3704SOL    HW111792   3.379   3.355   2.652
 3704SOL    HW211793   3.351   3.379   2.505
 3705SOL     OW11794   3.015   2.541   2.593
 3705SOL    HW111795   3.041   2.630   2.569
 3705SOL    HW211796   2.931   2.552   2.637
 3706SOL     OW11797   3.629   2.467   2.091
 3706SOL    HW111798   3.608   2.460   1.997
 3706SOL    HW211799   3.594   2.388   2.130
 3707SOL     OW11800   2.639   3.013   2.871
 3707SOL    HW111801   2.549   3.014   2.903
 3707SOL    HW211802   2.657   3.104   2.849
 3708SOL     OW11803   2.188   3.275   2.898
 3708SOL    HW111804   2.117   3.242   2.843
 3708SOL    HW211805   2.241   3.329   2.838
 3709SOL     OW11806   3.473   2.310   2.603
 3709SOL    HW111807   3.396   2.331   2.549
 3709SOL    HW211808   3.498   2.394   2.643
 3710SOL     OW11809   2.081   3.576   2.334
 3710SOL    HW111810   2.103   3.652   2.388
 3710SOL    HW211811   2.154   3.569   2.273
 3711SOL     OW11812   2.091   3.303   2.397
 3711SOL    HW111813   2.075   3.397   2.401
 3711SOL    HW211814   2.031   3.266   2.461
 3712SOL     OW11815   2.114   2.952   2.749
 3712SOL    HW111816   2.112   2.868   2.794
 3712SOL    HW211817   2.058   3.009   2.801
 3713SOL     OW11818   2.476   3.655   3.300
 3713SOL    HW111819   2.389   3.647   3.340
 3713SOL    HW211820   2.504   3.744   3.323
 3714SOL     OW11821   2.429   2.862   1.988
 3714SOL    HW111822   2.475   2.919   1.927
 3714SOL    HW211823   2.491   2.850   2.060
 3715SOL     OW11824   3.449   1.990   3.320
 3715SOL    HW111825   3.486   2.071   3.285
 3715SOL    HW211826   3.455   2.001   3.415
 3716SOL     OW11827   1.976   2.513   2.423
 3716SOL    HW111828   1.945   2.425   2.444
 3716SOL    HW211829   1.967   2.562   2.505
 3717SOL     OW11830   3.704   3.621   2.197
 3717SOL    HW111831   3.769   3.593   2.262
 3717SOL    HW211832   3.728   3.712   2.178
 3718SOL     OW11833   1.894   3.457   1.986
 3718SOL    HW111834   1.876   3.365   2.006
 3718SOL    HW211835   1.870   3.504   2.066
 3719SOL     OW11836   3.552   2.783   2.503
 3719SOL    HW111837   3.636   2.740   2.485
 3719SOL    HW211838   3.531   2.831   2.423
 3720SOL     OW11839   3.508   2.969   2.291
 3720SOL    HW111840   3.594   2.975   2.249
 3720SOL    HW211841   3.514   3.030   2.364
 3721SOL     OW11842   2.479   3.245   2.597
 3721SOL    HW111843   2.434   3.161   2.607
 3721SOL    HW211844   2.459   3.273   2.507
 3722SOL     OW11845   2.675   1.857   2.372
 3722SOL    HW111846   2.719   1.939   2.350
 3722SOL    HW211847   2.582   1.880   2.379
 3723SOL     OW11848   3.394   2.856   2.060
 3723SOL    HW111849   3.328   2.794   2.092
 3723SOL    HW211850   3.435   2.891   2.139
 3724SOL     OW11851   3.049   3.668   3.492
 3724SOL    HW111852   3.058   3.724   3.414
 3724SOL    HW211853   3.009   3.587   3.459
 3725SOL     OW11854   3.329   3.282   2.817
 3725SOL    HW111855   3.261   3.295   2.882
 3725SOL    HW211856   3.316   3.192   2.786
 3726SOL     OW11857   3.520   3.602   2.440
 3726SOL    HW111858   3.501   3.572   2.351
 3726SOL    HW211859   3.496   3.527   2.496
 3727SOL     OW11860   3.146   2.214   2.800
 3727SOL    HW111861   3.055   2.184   2.801
 3727SOL    HW211862   3.192   2.155   2.860
 3728SOL     OW11863   3.443   3.531   2.171
 3728SOL    HW111864   3.533   3.563   2.164
 3728SOL    HW211865   3.416   3.515   2.081
 3729SOL     OW11866   1.951   2.682   2.641
 3729SOL    HW111867   2.033   2.680   2.690
 3729SOL    HW211868   1.904   2.759   2.673
 3730SOL     OW11869   1.971   3.750   3.445
 3730SOL    HW111870   1.982   3.717   3.534
 3730SOL    HW211871   1.885   3.717   3.417
 3731SOL     OW11872   2.745   2.189   2.006
 3731SOL    HW111873   2.800   2.252   1.958
 3731SOL    HW211874   2.793   2.107   2.000
 3732SOL     OW11875   3.236   3.000   2.400
 3732SOL    HW111876   3.318   2.992   2.351
 3732SOL    HW211877   3.187   3.067   2.352
 3733SOL     OW11878   2.409   2.038   2.743
 3733SOL    HW111879   2.415   2.061   2.836
 3733SOL    HW211880   2.402   2.123   2.699
 3734SOL     OW11881   2.866   3.304   2.335
 3734SOL    HW111882   2.830   3.378   2.286
 3734SOL    HW211883   2.850   3.327   2.426
 3735SOL     OW11884   2.216   3.672   2.724
 3735SOL    HW111885   2.260   3.587   2.731
 3735SOL    HW211886   2.285   3.736   2.742
 3736SOL     OW11887   3.661   2.920   2.731
 3736SOL    HW111888   3.605   2.900   2.655
 3736SOL    HW211889   3.601   2.924   2.805
 3737SOL     OW11890   2.176   2.825   2.113
 3737SOL    HW111891   2.257   2.847   2.066
 3737SOL    HW211892   2.151   2.739   2.079
 3738SOL     OW11893   3.342   2.603   2.582
 3738SOL    HW111894   3.324   2.567   2.669
 3738SOL    HW211895   3.415   2.664   2.596
 3739SOL     OW11896   2.984   3.639   2.093
 3739SOL    HW111897   2.910   3.598   2.138
 3739SOL    HW211898   3.007   3.578   2.023
 3740SOL     OW11899   3.490   3.242   1.950
 3740SOL    HW111900   3.450   3.327   1.935
 3740SOL    HW211901   3.421   3.178   1.930
 3741SOL     OW11902   2.328   3.598   2.183
 3741SOL    HW111903   2.370   3.657   2.247
 3741SOL    HW211904   2.400   3.569   2.127
 3742SOL     OW11905   3.263   1.969   2.295
 3742SOL    HW111906   3.253   1.944   2.203
 3742SOL    HW211907   3.358   1.976   2.307
 3743SOL     OW11908   2.122   3.651   3.088
 3743SOL    HW111909   2.170   3.574   3.118
 3743SOL    HW211910   2.100   3.632   2.997
 3744SOL     OW11911   2.799   3.561   2.760
 3744SOL    HW111912   2.874   3.507   2.784
 3744SOL    HW211913   2.755   3.512   2.691
 3745SOL     OW11914   2.247   2.553   2.334
 3745SOL    HW111915   2.276   2.464   2.355
 3745SOL    HW211916   2.154   2.554   2.358
 3746SOL     OW11917   3.440   2.033   3.594
 3746SOL    HW111918   3.433   2.071   3.681
 3746SOL    HW211919   3.353   1.995   3.577
 3747SOL     OW11920   2.479   1.974   1.980
 3747SOL    HW111921   2.568   1.939   1.980
 3747SOL    HW211922   2.444   1.951   1.894
 3748SOL     OW11923   2.741   3.382   3.053
 3748SOL    HW111924   2.719   3.354   2.964
 3748SOL    HW211925   2.768   3.301   3.097
 3749SOL     OW11926   2.676   3.271   2.800
 3749SOL    HW111927   2.761   3.255   2.759
 3749SOL    HW211928   2.613   3.266   2.727
 3750SOL     OW11929   2.778   2.345   2.778
 3750SOL    HW111930   2.767   2.344   2.683
 3750SOL    HW211931   2.822   2.262   2.798
 3751SOL     OW11932   2.410   1.925   2.364
 3751SOL    HW111933   2.330   1.926   2.416
 3751SOL    HW211934   2.404   2.004   2.310
 3752SOL     OW11935   3.290   3.060   1.903
 3752SOL    HW111936   3.320   2.985   1.953
 3752SOL    HW211937   3.204   3.081   1.939
 3753SOL     OW11938   2.156   1.909   2.047
 3753SOL    HW111939   2.216   1.971   2.005
 3753SOL    HW211940   2.212   1.844   2.089
 3754SOL     OW11941   2.807   2.093   2.326
 3754SOL    HW111942   2.768   2.166   2.277
 3754SOL    HW211943   2.901   2.112   2.325
 3755SOL     OW11944   2.940   2.488   3.345
 3755SOL    HW111945   2.863   2.528   3.304
 3755SOL    HW211946   2.998   2.468   3.271
 3756SOL     OW11947   3.094   3.433   2.654
 3756SOL    HW111948   3.104   3.501   2.587
 3756SOL    HW211949   3.161   3.453   2.719
 3757SOL     OW11950   2.331   3.013   2.598
 3757SOL    HW111951   2.258   2.994   2.657
 3757SOL    HW211952   2.298   2.992   2.511
 3758SOL     OW11953   3.131   3.656   2.470
 3758SOL    HW111954   3.177   3.717   2.413
 3758SOL    HW211955   3.064   3.710   2.513
 3759SOL     OW11956   2.905   2.390   1.885
 3759SOL    HW111957   2.841   2.461   1.883
 3759SOL    HW211958   2.963   2.412   1.958
 3760SOL     OW11959   2.426   2.064   3.008
 3760SOL    HW111960   2.463   1.988   3.053
 3760SOL    HW211961   2.337   2.072   3.043
 3761SOL     OW11962   2.735   2.303   2.514
 3761SOL    HW111963   2.710   2.366   2.447
 3761SOL    HW211964   2.755   2.223   2.466
 3762SOL     OW11965   2.880   1.907   2.609
 3762SOL    HW111966   2.818   1.903   2.536
 3762SOL    HW211967   2.855   1.834   2.666
 3763SOL     OW11968   3.293   3.028   2.718
 3763SOL    HW111969   3.243   2.946   2.717
 3763SOL    HW211970   3.322   3.040   2.627
 3764SOL     OW11971   3.331   2.454   2.845
 3764SOL    HW111972   3.278   2.375   2.834
 3764SOL    HW211973   3.409   2.424   2.893
 3765SOL     OW11974   3.707   2.678   2.244
 3765SOL    HW111975   3.763   2.627   2.303
 3765SOL    HW211976   3.679   2.616   2.178
 3766SOL     OW11977   2.355   3.277   2.020
 3766SOL    HW111978   2.278   3.250   2.071
 3766SOL    HW211979   2.340   3.240   1.933
 3767SOL     OW11980   3.530   3.126   2.508
 3767SOL    HW111981   3.625   3.128   2.522
 3767SOL    HW211982   3.501   3.215   2.529
 3768SOL     OW11983   3.257   2.433   1.934
 3768SOL    HW111984   3.197   2.412   2.005
 3768SOL    HW211985   3.342   2.401   1.963
 3769SOL     OW11986   2.386   2.129   2.183
 3769SOL    HW111987   2.424   2.075   2.114
 3769SOL    HW211988   2.367   2.213   2.141
 3770SOL     OW11989   3.620   3.117   3.401
 3770SOL    HW111990   3.698   3.063   3.408
 3770SOL    HW211991   3.640   3.195   3.452
 3771SOL     OW11992   3.501   3.533   3.527
 3771SOL    HW111993   3.485   3.553   3.435
 3771SOL    HW211994   3.577   3.474   3.526
 3772SOL     OW11995   3.495   2.968   2.945
 3772SOL    HW111996   3.487   3.030   3.017
 3772SOL    HW211997   3.410   2.970   2.902
 3773SOL     OW11998   1.928   3.440   3.206
 3773SOL    HW111999   1.892   3.510   3.152
 3773SOL    HW212000   2.022   3.440   3.184
 3774SOL     OW12001   2.219   2.968   2.351
 3774SOL    HW112002   2.212   3.043   2.291
 3774SOL    HW212003   2.209   2.891   2.295
 3775SOL     OW12004   2.403   2.403   2.748
 3775SOL    HW112005   2.417   2.411   2.653
 3775SOL    HW212006   2.489   2.384   2.783
 3776SOL     OW12007   3.110   3.210   2.253
 3776SOL    HW112008   3.165   3.282   2.282
 3776SOL    HW212009   3.023   3.232   2.286
 3777SOL     OW12010   3.137   3.311   3.014
 3777SOL    HW112011   3.158   3.308   3.107
 3777SOL    HW212012   3.064   3.250   3.003
 3778SOL     OW12013   3.443   2.484   2.340
 3778SOL    HW112014   3.399   2.537   2.407
 3778SOL    HW212015   3.489   2.548   2.286
 3779SOL     OW12016   2.210   3.395   3.130
 3779SOL    HW112017   2.196   3.340   3.053
 3779SOL    HW212018   2.305   3.400   3.139
 3780SOL     OW12019   3.251   2.715   2.857
 3780SOL    HW112020   3.157   2.709   2.843
 3780SOL    HW212021   3.280   2.625   2.869
 3781SOL     OW12022   3.063   2.390   2.131
 3781SOL    HW112023   3.067   2.307   2.179
 3781SOL    HW212024   3.058   2.457   2.199
 3782SOL     OW12025   2.164   2.049   3.084
 3782SOL    HW112026   2.139   2.097   3.163
 3782SOL    HW212027   2.138   1.958   3.101
 3783SOL     OW12028   1.910   3.179   3.135
 3783SOL    HW112029   1.950   3.126   3.203
 3783SOL    HW212030   1.915   3.269   3.168
 3784SOL     OW12031   2.164   1.927   2.486
 3784SOL    HW112032   2.146   2.019   2.508
 3784SOL    HW212033   2.172   1.883   2.570
 3785SOL     OW12034   3.477   2.236   2.229
 3785SOL    HW112035   3.505   2.172   2.295
 3785SOL    HW212036   3.455   2.314   2.279
 3786SOL     OW12037   3.720   3.375   3.472
 3786SOL    HW112038   3.734   3.394   3.380
 3786SOL    HW212039   3.805   3.390   3.514
 3787SOL     OW12040   3.390   2.135   1.989
 3787SOL    HW112041   3.326   2.069   2.016
 3787SOL    HW212042   3.424   2.171   2.072
 3788SOL     OW12043   3.154   2.686   1.891
 3788SOL    HW112044   3.197   2.601   1.894
 3788SOL    HW212045   3.185   2.726   1.810
 3789SOL     OW12046   2.921   3.212   2.705
 3789SOL    HW112047   2.931   3.133   2.651
 3789SOL    HW212048   2.990   3.271   2.674
 3790SOL     OW12049   2.176   2.679   2.816
 3790SOL    HW112050   2.267   2.707   2.803
 3790SOL    HW212051   2.183   2.589   2.845
 3791SOL     OW12052   1.867   3.183   2.057
 3791SOL    HW112053   1.780   3.197   2.019
 3791SOL    HW212054   1.864   3.094   2.091
 3792SOL     OW12055   1.953   3.648   2.801
 3792SOL    HW112056   1.923   3.569   2.757
 3792SOL    HW212057   2.043   3.661   2.769
 3793SOL     OW12058   2.360   3.439   2.758
 3793SOL    HW112059   2.427   3.499   2.790
 3793SOL    HW212060   2.407   3.373   2.708
 3794SOL     OW12061   1.906   2.403   3.006
 3794SOL    HW112062   1.951   2.358   2.934
 3794SOL    HW212063   1.976   2.430   3.066
 3795SOL     OW12064   2.708   2.332   2.232
 3795SOL    HW112065   2.706   2.290   2.146
 3795SOL    HW212066   2.635   2.394   2.231
 3796SOL     OW12067   2.825   3.544   3.312
 3796SOL    HW112068   2.779   3.508   3.237
 3796SOL    HW212069   2.791   3.633   3.321
 3797SOL     OW12070   2.330   2.365   2.056
 3797SOL    HW112071   2.379   2.445   2.073
 3797SOL    HW212072   2.240   2.393   2.042
 3798SOL     OW12073   3.177   2.709   2.164
 3798SOL    HW112074   3.094   2.729   2.209
 3798SOL    HW212075   3.154   2.704   2.072
 3799SOL     OW12076   3.630   3.609   3.006
 3799SOL    HW112077   3.693   3.633   2.939
 3799SOL    HW212078   3.609   3.517   2.988
 3800SOL     OW12079   3.104   3.594   2.975
 3800SOL    HW112080   3.186   3.616   2.930
 3800SOL    HW212081   3.110   3.500   2.990
 3801SOL     OW12082   1.939   3.127   2.870
 3801SOL    HW112083   1.928   3.146   2.963
 3801SOL    HW212084   1.864   3.072   2.848
 3802SOL     OW12085   2.577   3.608   3.607
 3802SOL    HW112086   2.496   3.655   3.591
 3802SOL    HW212087   2.585   3.548   3.533
 3803SOL     OW12088   3.581   2.008   2.372
 3803SOL    HW112089   3.654   1.994   2.311
 3803SOL    HW212090   3.566   1.923   2.412
 3804SOL     OW12091   3.252   3.430   2.346
 3804SOL    HW112092   3.313   3.462   2.279
 3804SOL    HW212093   3.204   3.507   2.374
 3805SOL     OW12094   2.001   3.654   3.696
 3805SOL    HW112095   1.956   3.584   3.742
 3805SOL    HW212096   2.048   3.702   3.765
 3806SOL     OW12097   3.132   2.787   2.530
 3806SOL    HW112098   3.204   2.724   2.537
 3806SOL    HW212099   3.168   2.860   2.480
 3807SOL     OW12100   2.533   3.482   2.017
 3807SOL    HW112101   2.543   3.494   1.923
 3807SOL    HW212102   2.478   3.403   2.025
 3808SOL     OW12103   3.503   3.593   3.256
 3808SOL    HW112104   3.540   3.596   3.168
 3808SOL    HW212105   3.480   3.683   3.276
 3809SOL     OW12106   3.705   2.035   2.819
 3809SOL    HW112107   3.732   1.947   2.794
 3809SOL    HW212108   3.617   2.045   2.781
 3810SOL     OW12109   2.126   2.183   2.572
 3810SOL    HW112110   2.039   2.216   2.551
 3810SOL    HW212111   2.125   2.171   2.667
 3811SOL     OW12112   3.069   3.468   1.894
 3811SOL    HW112113   3.059   3.377   1.920
 3811SOL    HW212114   3.004   3.480   1.824
 3812SOL     OW12115   3.354   3.487   1.904
 3812SOL    HW112116   3.259   3.481   1.891
 3812SOL    HW212117   3.391   3.493   1.816
 3813SOL     OW12118   3.470   3.151   3.155
 3813SOL    HW112119   3.534   3.122   3.220
 3813SOL    HW212120   3.421   3.221   3.200
 3814SOL     OW12121   2.914   2.970   2.568
 3814SOL    HW112122   2.842   2.921   2.606
 3814SOL    HW212123   2.980   2.904   2.546
 3815SOL     OW12124   2.893   2.092   2.818
 3815SOL    HW112125   2.888   2.044   2.735
 3815SOL    HW212126   2.866   2.029   2.884
 3816SOL     OW12127   2.463   3.352   2.344
 3816SOL    HW112128   2.509   3.306   2.274
 3816SOL    HW212129   2.394   3.401   2.300
 3817SOL     OW12130   3.629   2.212   3.271
 3817SOL    HW112131   3.668   2.296   3.246
 3817SOL    HW212132   3.648   2.154   3.197
 3818SOL     OW12133   2.121   3.207   2.150
 3818SOL    HW112134   2.028   3.205   2.127
 3818SOL    HW212135   2.123   3.244   2.238
 3819SOL     OW12136   1.940   2.196   1.898
 3819SOL    HW112137   1.853   2.176   1.865
 3819SOL    HW212138   1.969   2.271   1.846
 3820SOL     OW12139   1.931   2.018   2.172
 3820SOL    HW112140   1.917   2.098   2.121
 3820SOL    HW212141   2.016   1.985   2.143
 3821SOL     OW12142   3.042   3.202   1.979
 3821SOL    HW112143   2.951   3.171   1.981
 3821SOL    HW212144   3.069   3.201   2.071
 3822SOL     OW12145   3.347   3.636   2.840
 3822SOL    HW112146   3.369   3.697   2.770
 3822SOL    HW212147   3.429   3.621   2.886
 3823SOL     OW12148   3.573   2.740   3.097
 3823SOL    HW112149   3.496   2.683   3.088
 3823SOL    HW212150   3.548   2.821   3.052
 3824SOL     OW12151   3.080   2.181   2.318
 3824SOL    HW112152   3.143   2.109   2.311
 3824SOL    HW212153   3.108   2.228   2.397
 3825SOL     OW12154   3.633   2.212   3.538
 3825SOL    HW112155   3.629   2.229   3.444
 3825SOL    HW212156   3.564   2.147   3.554
 3826SOL     OW12157   2.730   3.234   1.897
 3826SOL    HW112158   2.688   3.266   1.977
 3826SOL    HW212159   2.747   3.313   1.846
 3827SOL     OW12160   2.523   3.656   2.809
 3827SOL    HW112161   2.504   3.746   2.784
 3827SOL    HW212162   2.618   3.648   2.800
 3828SOL     OW12163   2.958   2.864   1.953
 3828SOL    HW112164   2.925   2.904   1.873
 3828SOL    HW212165   3.025   2.802   1.922
 3829SOL     OW12166   3.717   3.416   2.706
 3829SOL    HW112167   3.639   3.404   2.653
 3829SOL    HW212168   3.712   3.348   2.772
 3830SOL     OW12169   1.946   3.096   2.528
 3830SOL    HW112170   1.951   3.047   2.610
 3830SOL    HW212171   2.015   3.058   2.473
 3831SOL     OW12172   3.681   2.029   3.088
 3831SOL    HW112173   3.686   1.934   3.093
 3831SOL    HW212174   3.689   2.048   2.994
 3832SOL     OW12175   2.306   2.296   2.398
 3832SOL    HW112176   2.326   2.228   2.333
 3832SOL    HW212177   2.245   2.253   2.459
 3833SOL     OW12178   3.561   3.353   2.961
 3833SOL    HW112179   3.483   3.325   2.913
 3833SOL    HW212180   3.576   3.283   3.025
 3834SOL     OW12181   2.688   3.441   2.538
 3834SOL    HW112182   2.675   3.494   2.459
 3834SOL    HW212183   2.612   3.384   2.541
 3835SOL     OW12184   3.293   2.082   2.986
 3835SOL    HW112185   3.336   2.000   3.010
 3835SOL    HW212186   3.256   2.115   3.067
 3836SOL     OW12187   2.847   1.855   2.972
 3836SOL    HW112188   2.802   1.781   2.930
 3836SOL    HW212189   2.937   1.824   2.984
 3837SOL     OW12190   2.634   3.204   2.177
 3837SOL    HW112191   2.608   3.113   2.166
 3837SOL    HW212192   2.717   3.200   2.225
 3838SOL     OW12193   2.481   3.439   3.133
 3838SOL    HW112194   2.491   3.516   3.190
 3838SOL    HW212195   2.569   3.421   3.102
 3839SOL     OW12196   3.214   1.916   2.027
 3839SOL    HW112197   3.243   1.852   1.962
 3839SOL    HW212198   3.127   1.886   2.054
 3840SOL     OW12199   3.163   2.316   2.545
 3840SOL    HW112200   3.113   2.397   2.553
 3840SOL    HW212201   3.158   2.275   2.631
 3841SOL     OW12202   3.448   2.065   2.738
 3841SOL    HW112203   3.383   2.085   2.805
 3841SOL    HW212204   3.450   2.143   2.682
 3842SOL     OW12205   1.906   2.933   2.168
 3842SOL    HW112206   1.999   2.923   2.148
 3842SOL    HW212207   1.877   2.844   2.191
 3843SOL     OW12208   2.746   3.515   2.205
 3843SOL    HW112209   2.674   3.498   2.144
 3843SOL    HW212210   2.718   3.590   2.256
 3844SOL     OW12211   2.053   2.037   4.798
 3844SOL    HW112212   2.040   2.083   4.881
 3844SOL    HW212213   1.980   2.065   4.743
 3845SOL     OW12214   3.419   3.370   4.434
 3845SOL    HW112215   3.362   3.385   4.510
 3845SOL    HW212216   3.364   3.391   4.359
 3846SOL     OW12217   3.000   2.599   4.403
 3846SOL    HW112218   3.087   2.627   4.432
 3846SOL    HW212219   2.968   2.545   4.475
 3847SOL     OW12220   3.647   2.459   3.924
 3847SOL    HW112221   3.576   2.466   3.860
 3847SOL    HW212222   3.617   2.394   3.988
 3848SOL     OW12223   2.575   3.018   5.532
 3848SOL    HW112224   2.622   3.097   5.558
 3848SOL    HW212225   2.492   3.050   5.496
 3849SOL     OW12226   3.328   3.365   5.092
 3849SOL    HW112227   3.380   3.446   5.091
 3849SOL    HW212228   3.275   3.373   5.172
 3850SOL     OW12229   2.321   2.258   5.216
 3850SOL    HW112230   2.391   2.192   5.219
 3850SOL    HW212231   2.241   2.208   5.232
 3851SOL     OW12232   2.077   3.585   4.186
 3851SOL    HW112233   2.103   3.657   4.243
 3851SOL    HW212234   2.153   3.570   4.130
 3852SOL     OW12235   3.001   3.200   5.412
 3852SOL    HW112236   3.046   3.200   5.497
 3852SOL    HW212237   2.945   3.122   5.416
 3853SOL     OW12238   2.477   3.657   5.161
 3853SOL    HW112239   2.393   3.638   5.203
 3853SOL    HW212240   2.496   3.748   5.183
 3854SOL     OW12241   3.450   1.989   5.185
 3854SOL    HW112242   3.478   2.069   5.140
 3854SOL    HW212243   3.441   2.016   5.277
 3855SOL     OW12244   3.707   3.621   4.056
 3855SOL    HW112245   3.769   3.594   4.124
 3855SOL    HW212246   3.730   3.712   4.038
 3856SOL     OW12247   1.878   3.459   3.840
 3856SOL    HW112248   1.821   3.383   3.846
 3856SOL    HW212249   1.864   3.506   3.922
 3857SOL     OW12250   3.528   3.012   4.140
 3857SOL    HW112251   3.619   2.986   4.123
 3857SOL    HW212252   3.528   3.039   4.232
 3858SOL     OW12253   1.984   2.619   5.328
 3858SOL    HW112254   2.076   2.643   5.338
 3858SOL    HW212255   1.938   2.703   5.324
 3859SOL     OW12256   3.425   2.864   3.943
 3859SOL    HW112257   3.334   2.839   3.962
 3859SOL    HW212258   3.451   2.919   4.017
 3860SOL     OW12259   3.045   3.671   5.348
 3860SOL    HW112260   3.059   3.731   5.274
 3860SOL    HW212261   3.064   3.584   5.313
 3861SOL     OW12262   2.196   2.108   5.548
 3861SOL    HW112263   2.235   2.195   5.543
 3861SOL    HW212264   2.105   2.124   5.571
 3862SOL     OW12265   3.532   3.599   4.304
 3862SOL    HW112266   3.504   3.571   4.216
 3862SOL    HW212267   3.499   3.531   4.362
 3863SOL     OW12268   3.446   3.538   4.027
 3863SOL    HW112269   3.537   3.569   4.021
 3863SOL    HW212270   3.421   3.523   3.936
 3864SOL     OW12271   3.250   2.333   5.408
 3864SOL    HW112272   3.254   2.377   5.493
 3864SOL    HW212273   3.315   2.264   5.413
 3865SOL     OW12274   2.922   2.519   4.141
 3865SOL    HW112275   2.936   2.541   4.233
 3865SOL    HW212276   2.827   2.519   4.130
 3866SOL     OW12277   1.989   3.705   5.301
 3866SOL    HW112278   1.988   3.686   5.395
 3866SOL    HW212279   1.897   3.705   5.275
 3867SOL     OW12280   3.569   2.437   5.552
 3867SOL    HW112281   3.532   2.511   5.504
 3867SOL    HW212282   3.597   2.376   5.484
 3868SOL     OW12283   2.220   3.664   4.589
 3868SOL    HW112284   2.275   3.587   4.576
 3868SOL    HW212285   2.281   3.735   4.608
 3869SOL     OW12286   3.646   2.938   4.607
 3869SOL    HW112287   3.609   2.963   4.522
 3869SOL    HW212288   3.570   2.931   4.665
 3870SOL     OW12289   3.095   3.411   5.249
 3870SOL    HW112290   3.082   3.341   5.314
 3870SOL    HW212291   3.036   3.389   5.177
 3871SOL     OW12292   2.327   3.124   5.465
 3871SOL    HW112293   2.296   3.136   5.375
 3871SOL    HW212294   2.247   3.119   5.517
 3872SOL     OW12295   2.994   3.644   3.962
 3872SOL    HW112296   2.939   3.621   4.037
 3872SOL    HW212297   2.952   3.604   3.887
 3873SOL     OW12298   2.071   2.157   5.254
 3873SOL    HW112299   1.993   2.202   5.222
 3873SOL    HW212300   2.039   2.071   5.283
 3874SOL     OW12301   2.324   3.608   4.041
 3874SOL    HW112302   2.363   3.661   4.111
 3874SOL    HW212303   2.398   3.575   3.992
 3875SOL     OW12304   3.287   1.939   4.168
 3875SOL    HW112305   3.262   1.912   4.080
 3875SOL    HW212306   3.381   1.955   4.162
 3876SOL     OW12307   2.118   3.654   4.957
 3876SOL    HW112308   2.172   3.588   5.001
 3876SOL    HW212309   2.109   3.621   4.868
 3877SOL     OW12310   2.806   3.582   4.641
 3877SOL    HW112311   2.891   3.538   4.644
 3877SOL    HW212312   2.748   3.518   4.599
 3878SOL     OW12313   3.398   2.086   5.449
 3878SOL    HW112314   3.406   2.108   5.542
 3878SOL    HW212315   3.329   2.020   5.446
 3879SOL     OW12316   2.621   2.117   5.470
 3879SOL    HW112317   2.702   2.068   5.479
 3879SOL    HW212318   2.598   2.142   5.560
 3880SOL     OW12319   2.743   3.405   4.928
 3880SOL    HW112320   2.722   3.364   4.845
 3880SOL    HW212321   2.810   3.349   4.967
 3881SOL     OW12322   3.300   2.476   5.179
 3881SOL    HW112323   3.281   2.424   5.258
 3881SOL    HW212324   3.242   2.551   5.185
 3882SOL     OW12325   3.117   3.675   4.313
 3882SOL    HW112326   3.165   3.742   4.265
 3882SOL    HW212327   3.060   3.724   4.373
 3883SOL     OW12328   1.945   2.402   5.172
 3883SOL    HW112329   2.023   2.409   5.117
 3883SOL    HW212330   1.942   2.485   5.220
 3884SOL     OW12331   2.736   2.352   4.354
 3884SOL    HW112332   2.714   2.358   4.261
 3884SOL    HW212333   2.755   2.259   4.369
 3885SOL     OW12334   3.707   2.672   4.093
 3885SOL    HW112335   3.761   2.628   4.159
 3885SOL    HW212336   3.696   2.607   4.024
 3886SOL     OW12337   3.565   3.131   4.391
 3886SOL    HW112338   3.659   3.148   4.386
 3886SOL    HW212339   3.526   3.218   4.399
 3887SOL     OW12340   3.614   3.105   5.295
 3887SOL    HW112341   3.699   3.062   5.293
 3887SOL    HW212342   3.631   3.194   5.326
 3888SOL     OW12343   2.952   3.214   5.112
 3888SOL    HW112344   2.863   3.194   5.139
 3888SOL    HW212345   3.007   3.165   5.173
 3889SOL     OW12346   3.468   3.486   5.376
 3889SOL    HW112347   3.465   3.523   5.287
 3889SOL    HW212348   3.551   3.439   5.380
 3890SOL     OW12349   2.773   1.960   5.125
 3890SOL    HW112350   2.796   1.933   5.036
 3890SOL    HW212351   2.856   1.992   5.162
 3891SOL     OW12352   2.850   2.975   5.444
 3891SOL    HW112353   2.759   2.995   5.468
 3891SOL    HW212354   2.842   2.913   5.371
 3892SOL     OW12355   2.550   2.959   4.140
 3892SOL    HW112356   2.566   2.932   4.231
 3892SOL    HW212357   2.626   2.927   4.092
 3893SOL     OW12358   1.928   3.439   5.077
 3893SOL    HW112359   1.892   3.510   5.023
 3893SOL    HW212360   2.023   3.449   5.070
 3894SOL     OW12361   2.223   2.941   4.230
 3894SOL    HW112362   2.236   3.030   4.199
 3894SOL    HW212363   2.249   2.885   4.156
 3895SOL     OW12364   2.414   2.397   4.626
 3895SOL    HW112365   2.426   2.434   4.539
 3895SOL    HW212366   2.501   2.404   4.667
 3896SOL     OW12367   3.139   3.270   4.920
 3896SOL    HW112368   3.211   3.302   4.973
 3896SOL    HW212369   3.072   3.242   4.983
 3897SOL     OW12370   3.486   2.488   4.163
 3897SOL    HW112371   3.443   2.522   4.242
 3897SOL    HW212372   3.530   2.564   4.126
 3898SOL     OW12373   2.212   3.386   5.027
 3898SOL    HW112374   2.201   3.317   4.962
 3898SOL    HW212375   2.307   3.401   5.030
 3899SOL     OW12376   2.272   2.608   5.332
 3899SOL    HW112377   2.319   2.645   5.257
 3899SOL    HW212378   2.284   2.514   5.324
 3900SOL     OW12379   3.461   2.645   5.413
 3900SOL    HW112380   3.374   2.686   5.402
 3900SOL    HW212381   3.512   2.680   5.340
 3901SOL     OW12382   2.862   1.985   5.486
 3901SOL    HW112383   2.914   2.057   5.451
 3901SOL    HW212384   2.909   1.906   5.459
 3902SOL     OW12385   2.359   1.900   5.471
 3902SOL    HW112386   2.315   1.849   5.403
 3902SOL    HW212387   2.301   1.975   5.486
 3903SOL     OW12388   3.153   2.402   4.107
 3903SOL    HW112389   3.129   2.319   4.065
 3903SOL    HW212390   3.072   2.453   4.107
 3904SOL     OW12391   1.950   3.178   4.997
 3904SOL    HW112392   1.911   3.122   5.063
 3904SOL    HW212393   1.922   3.267   5.021
 3905SOL     OW12394   3.598   2.823   5.578
 3905SOL    HW112395   3.553   2.761   5.519
 3905SOL    HW212396   3.538   2.835   5.651
 3906SOL     OW12397   3.511   2.230   4.071
 3906SOL    HW112398   3.520   2.171   4.146
 3906SOL    HW212399   3.475   2.310   4.108
 3907SOL     OW12400   2.844   3.426   5.440
 3907SOL    HW112401   2.830   3.473   5.357
 3907SOL    HW212402   2.886   3.344   5.413
 3908SOL     OW12403   3.716   3.370   5.330
 3908SOL    HW112404   3.735   3.395   5.239
 3908SOL    HW212405   3.798   3.387   5.377
 3909SOL     OW12406   2.207   2.788   5.529
 3909SOL    HW112407   2.284   2.810   5.580
 3909SOL    HW212408   2.236   2.719   5.469
 3910SOL     OW12409   2.996   2.233   5.401
 3910SOL    HW112410   2.948   2.285   5.466
 3910SOL    HW212411   3.084   2.272   5.399
 3911SOL     OW12412   3.019   2.050   5.202
 3911SOL    HW112413   3.011   2.116   5.272
 3911SOL    HW212414   3.044   2.101   5.125
 3912SOL     OW12415   1.948   3.642   4.653
 3912SOL    HW112416   1.918   3.577   4.589
 3912SOL    HW212417   2.040   3.656   4.631
 3913SOL     OW12418   2.060   2.381   5.453
 3913SOL    HW112419   2.082   2.322   5.381
 3913SOL    HW212420   2.012   2.453   5.412
 3914SOL     OW12421   3.237   2.804   5.372
 3914SOL    HW112422   3.265   2.894   5.388
 3914SOL    HW212423   3.224   2.800   5.277
 3915SOL     OW12424   3.512   2.479   4.918
 3915SOL    HW112425   3.469   2.417   4.977
 3915SOL    HW212426   3.585   2.431   4.880
 3916SOL     OW12427   2.108   3.414   5.453
 3916SOL    HW112428   2.082   3.478   5.519
 3916SOL    HW212429   2.106   3.330   5.499
 3917SOL     OW12430   2.792   3.542   5.190
 3917SOL    HW112431   2.758   3.512   5.105
 3917SOL    HW212432   2.786   3.637   5.185
 3918SOL     OW12433   3.631   3.606   4.870
 3918SOL    HW112434   3.695   3.630   4.804
 3918SOL    HW212435   3.608   3.515   4.850
 3919SOL     OW12436   2.538   3.531   5.454
 3919SOL    HW112437   2.484   3.609   5.451
 3919SOL    HW212438   2.602   3.543   5.383
 3920SOL     OW12439   3.591   2.004   4.239
 3920SOL    HW112440   3.661   1.994   4.175
 3920SOL    HW212441   3.575   1.916   4.272
 3921SOL     OW12442   3.275   3.470   4.230
 3921SOL    HW112443   3.316   3.496   4.147
 3921SOL    HW212444   3.213   3.540   4.249
 3922SOL     OW12445   1.999   3.658   5.567
 3922SOL    HW112446   1.948   3.593   5.616
 3922SOL    HW212447   2.047   3.706   5.634
 3923SOL     OW12448   2.698   3.150   5.183
 3923SOL    HW112449   2.654   3.191   5.258
 3923SOL    HW212450   2.630   3.142   5.116
 3924SOL     OW12451   3.489   3.590   5.114
 3924SOL    HW112452   3.539   3.597   5.033
 3924SOL    HW212453   3.475   3.681   5.141
 3925SOL     OW12454   3.695   2.037   4.688
 3925SOL    HW112455   3.728   1.950   4.663
 3925SOL    HW212456   3.607   2.041   4.650
 3926SOL     OW12457   3.357   3.508   3.763
 3926SOL    HW112458   3.281   3.460   3.732
 3926SOL    HW212459   3.414   3.517   3.686
 3927SOL     OW12460   2.222   3.181   5.225
 3927SOL    HW112461   2.221   3.263   5.175
 3927SOL    HW212462   2.152   3.128   5.187
 3928SOL     OW12463   3.485   3.159   5.016
 3928SOL    HW112464   3.537   3.142   5.095
 3928SOL    HW212465   3.420   3.224   5.044
 3929SOL     OW12466   3.587   2.241   5.111
 3929SOL    HW112467   3.646   2.316   5.101
 3929SOL    HW212468   3.620   2.177   5.048
 3930SOL     OW12469   1.964   2.913   5.457
 3930SOL    HW112470   1.891   2.872   5.503
 3930SOL    HW212471   2.041   2.865   5.488
 3931SOL     OW12472   2.534   2.063   5.220
 3931SOL    HW112473   2.616   2.037   5.180
 3931SOL    HW212474   2.556   2.083   5.311
 3932SOL     OW12475   3.053   3.152   3.869
 3932SOL    HW112476   2.958   3.155   3.858
 3932SOL    HW212477   3.068   3.187   3.956
 3933SOL     OW12478   3.392   3.645   4.690
 3933SOL    HW112479   3.409   3.720   4.633
 3933SOL    HW212480   3.465   3.646   4.752
 3934SOL     OW12481   3.331   3.061   5.355
 3934SOL    HW112482   3.322   3.080   5.449
 3934SOL    HW212483   3.423   3.079   5.336
 3935SOL     OW12484   2.241   3.600   5.287
 3935SOL    HW112485   2.156   3.642   5.273
 3935SOL    HW212486   2.220   3.518   5.332
 3936SOL     OW12487   3.596   2.729   4.968
 3936SOL    HW112488   3.567   2.638   4.958
 3936SOL    HW212489   3.541   2.778   4.908
 3937SOL     OW12490   3.066   2.168   4.212
 3937SOL    HW112491   3.131   2.098   4.214
 3937SOL    HW212492   3.109   2.242   4.255
 3938SOL     OW12493   3.625   2.223   5.379
 3938SOL    HW112494   3.611   2.237   5.285
 3938SOL    HW212495   3.552   2.167   5.405
 3939SOL     OW12496   3.595   2.795   5.233
 3939SOL    HW112497   3.604   2.890   5.237
 3939SOL    HW212498   3.602   2.774   5.140
 3940SOL     OW12499   2.519   3.661   4.674
 3940SOL    HW112500   2.493   3.749   4.646
 3940SOL    HW212501   2.614   3.661   4.667
 3941SOL     OW12502   2.957   2.849   3.800
 3941SOL    HW112503   2.959   2.923   3.741
 3941SOL    HW212504   3.043   2.807   3.789
 3942SOL     OW12505   3.718   3.415   4.569
 3942SOL    HW112506   3.638   3.408   4.517
 3942SOL    HW212507   3.708   3.348   4.637
 3943SOL     OW12508   2.086   3.164   5.580
 3943SOL    HW112509   2.025   3.096   5.550
 3943SOL    HW212510   2.063   3.177   5.672
 3944SOL     OW12511   2.536   3.269   5.360
 3944SOL    HW112512   2.456   3.227   5.391
 3944SOL    HW212513   2.532   3.359   5.394
 3945SOL     OW12514   3.684   2.041   4.962
 3945SOL    HW112515   3.687   1.946   4.970
 3945SOL    HW212516   3.686   2.058   4.868
 3946SOL     OW12517   3.564   3.347   4.824
 3946SOL    HW112518   3.472   3.327   4.804
 3946SOL    HW212519   3.589   3.281   4.888
 3947SOL     OW12520   2.190   2.408   5.035
 3947SOL    HW112521   2.242   2.357   5.096
 3947SOL    HW212522   2.227   2.389   4.949
 3948SOL     OW12523   3.337   2.063   4.883
 3948SOL    HW112524   3.335   1.997   4.953
 3948SOL    HW212525   3.284   2.135   4.917
 3949SOL     OW12526   2.865   1.861   4.887
 3949SOL    HW112527   2.813   1.810   4.825
 3949SOL    HW212528   2.955   1.831   4.874
 3950SOL     OW12529   2.477   3.432   5.011
 3950SOL    HW112530   2.484   3.512   5.063
 3950SOL    HW212531   2.565   3.420   4.974
 3951SOL     OW12532   1.881   2.953   4.050
 3951SOL    HW112533   1.947   2.984   3.989
 3951SOL    HW212534   1.866   2.862   4.025
 3952SOL     OW12535   2.095   2.486   5.708
 3952SOL    HW112536   2.006   2.485   5.742
 3952SOL    HW212537   2.086   2.458   5.617
 3953SOL     OW12538   2.087   2.142   6.577
 3953SOL    HW112539   2.115   2.107   6.662
 3953SOL    HW212540   1.997   2.110   6.567
 3954SOL     OW12541   1.866   2.244   6.225
 3954SOL    HW112542   1.783   2.269   6.266
 3954SOL    HW212543   1.845   2.165   6.175
 3955SOL     OW12544   2.427   3.149   6.761
 3955SOL    HW112545   2.340   3.156   6.721
 3955SOL    HW212546   2.444   3.236   6.797
 3956SOL     OW12547   3.422   3.373   6.293
 3956SOL    HW112548   3.380   3.355   6.377
 3956SOL    HW212549   3.350   3.379   6.230
 3957SOL     OW12550   3.016   2.540   6.305
 3957SOL    HW112551   3.044   2.630   6.288
 3957SOL    HW212552   2.940   2.549   6.363
 3958SOL     OW12553   3.627   2.468   5.815
 3958SOL    HW112554   3.608   2.460   5.722
 3958SOL    HW212555   3.594   2.387   5.854
 3959SOL     OW12556   2.638   3.026   6.631
 3959SOL    HW112557   2.557   3.040   6.680
 3959SOL    HW212558   2.653   3.108   6.585
 3960SOL     OW12559   2.574   3.016   7.395
 3960SOL    HW112560   2.622   3.094   7.421
 3960SOL    HW212561   2.492   3.049   7.359
 3961SOL     OW12562   2.190   3.291   6.653
 3961SOL    HW112563   2.120   3.251   6.602
 3961SOL    HW212564   2.242   3.339   6.589
 3962SOL     OW12565   3.323   3.361   6.940
 3962SOL    HW112566   3.372   3.442   6.951
 3962SOL    HW212567   3.260   3.362   7.012
 3963SOL     OW12568   2.311   2.266   7.089
 3963SOL    HW112569   2.388   2.209   7.081
 3963SOL    HW212570   2.237   2.206   7.094
 3964SOL     OW12571   3.474   2.310   6.326
 3964SOL    HW112572   3.397   2.331   6.273
 3964SOL    HW212573   3.488   2.387   6.381
 3965SOL     OW12574   2.081   3.577   6.058
 3965SOL    HW112575   2.103   3.653   6.112
 3965SOL    HW212576   2.154   3.569   5.997
 3966SOL     OW12577   2.997   3.201   7.278
 3966SOL    HW112578   3.035   3.198   7.366
 3966SOL    HW212579   2.946   3.121   7.271
 3967SOL     OW12580   2.091   3.303   6.120
 3967SOL    HW112581   2.074   3.397   6.125
 3967SOL    HW212582   2.032   3.265   6.185
 3968SOL     OW12583   2.114   2.951   6.473
 3968SOL    HW112584   2.112   2.867   6.518
 3968SOL    HW212585   2.061   3.009   6.528
 3969SOL     OW12586   2.473   3.655   7.015
 3969SOL    HW112587   2.392   3.636   7.062
 3969SOL    HW212588   2.496   3.744   7.041
 3970SOL     OW12589   2.428   2.866   5.710
 3970SOL    HW112590   2.477   2.922   5.650
 3970SOL    HW212591   2.484   2.859   5.788
 3971SOL     OW12592   3.458   1.985   7.054
 3971SOL    HW112593   3.464   2.066   7.003
 3971SOL    HW212594   3.444   2.014   7.144
 3972SOL     OW12595   1.977   2.513   6.147
 3972SOL    HW112596   1.944   2.426   6.168
 3972SOL    HW212597   1.968   2.562   6.228
 3973SOL     OW12598   3.704   3.621   5.921
 3973SOL    HW112599   3.769   3.593   5.986
 3973SOL    HW212600   3.728   3.711   5.902
 3974SOL     OW12601   1.894   3.457   5.709
 3974SOL    HW112602   1.876   3.365   5.730
 3974SOL    HW212603   1.870   3.504   5.789
 3975SOL     OW12604   3.551   2.780   6.226
 3975SOL    HW112605   3.636   2.739   6.208
 3975SOL    HW212606   3.531   2.830   6.147
 3976SOL     OW12607   3.508   2.969   6.015
 3976SOL    HW112608   3.594   2.974   5.973
 3976SOL    HW212609   3.514   3.030   6.088
 3977SOL     OW12610   1.975   2.603   7.172
 3977SOL    HW112611   2.067   2.626   7.185
 3977SOL    HW212612   1.928   2.686   7.181
 3978SOL     OW12613   2.479   3.247   6.321
 3978SOL    HW112614   2.435   3.163   6.332
 3978SOL    HW212615   2.458   3.273   6.231
 3979SOL     OW12616   3.152   3.099   7.011
 3979SOL    HW112617   3.184   3.032   6.951
 3979SOL    HW212618   3.209   3.093   7.087
 3980SOL     OW12619   2.675   1.857   6.096
 3980SOL    HW112620   2.719   1.939   6.074
 3980SOL    HW212621   2.582   1.880   6.103
 3981SOL     OW12622   2.044   2.834   6.854
 3981SOL    HW112623   2.128   2.789   6.846
 3981SOL    HW212624   1.981   2.777   6.810
 3982SOL     OW12625   3.393   2.857   5.784
 3982SOL    HW112626   3.328   2.795   5.817
 3982SOL    HW212627   3.435   2.891   5.863
 3983SOL     OW12628   3.048   3.669   7.208
 3983SOL    HW112629   3.058   3.726   7.132
 3983SOL    HW212630   3.063   3.580   7.173
 3984SOL     OW12631   2.193   2.110   7.397
 3984SOL    HW112632   2.238   2.193   7.410
 3984SOL    HW212633   2.104   2.126   7.429
 3985SOL     OW12634   3.329   3.282   6.538
 3985SOL    HW112635   3.261   3.297   6.604
 3985SOL    HW212636   3.317   3.191   6.512
 3986SOL     OW12637   3.520   3.601   6.164
 3986SOL    HW112638   3.501   3.571   6.075
 3986SOL    HW212639   3.496   3.527   6.220
 3987SOL     OW12640   3.143   2.213   6.519
 3987SOL    HW112641   3.053   2.181   6.527
 3987SOL    HW212642   3.193   2.160   6.580
 3988SOL     OW12643   3.443   3.532   5.895
 3988SOL    HW112644   3.533   3.564   5.889
 3988SOL    HW212645   3.417   3.515   5.804
 3989SOL     OW12646   3.257   2.336   7.261
 3989SOL    HW112647   3.256   2.381   7.346
 3989SOL    HW212648   3.317   2.263   7.273
 3990SOL     OW12649   2.852   2.271   6.834
 3990SOL    HW112650   2.765   2.290   6.869
 3990SOL    HW212651   2.837   2.240   6.745
 3991SOL     OW12652   1.950   2.683   6.362
 3991SOL    HW112653   2.031   2.676   6.413
 3991SOL    HW212654   1.906   2.761   6.396
 3992SOL     OW12655   1.989   3.712   7.165
 3992SOL    HW112656   1.989   3.690   7.258
 3992SOL    HW212657   1.898   3.699   7.138
 3993SOL     OW12658   2.747   2.191   5.735
 3993SOL    HW112659   2.797   2.255   5.684
 3993SOL    HW212660   2.793   2.109   5.721
 3994SOL     OW12661   3.572   2.438   7.415
 3994SOL    HW112662   3.533   2.512   7.368
 3994SOL    HW212663   3.598   2.376   7.347
 3995SOL     OW12664   3.236   3.000   6.124
 3995SOL    HW112665   3.318   2.992   6.076
 3995SOL    HW212666   3.187   3.067   6.076
 3996SOL     OW12667   2.410   2.038   6.475
 3996SOL    HW112668   2.411   2.065   6.567
 3996SOL    HW212669   2.412   2.121   6.427
 3997SOL     OW12670   2.865   3.304   6.058
 3997SOL    HW112671   2.830   3.379   6.009
 3997SOL    HW212672   2.851   3.327   6.150
 3998SOL     OW12673   2.217   3.670   6.448
 3998SOL    HW112674   2.260   3.585   6.456
 3998SOL    HW212675   2.286   3.734   6.467
 3999SOL     OW12676   3.661   2.918   6.454
 3999SOL    HW112677   3.606   2.901   6.378
 3999SOL    HW212678   3.599   2.924   6.527
 4000SOL     OW12679   3.089   3.400   7.098
 4000SOL    HW112680   3.076   3.328   7.160
 4000SOL    HW212681   3.025   3.383   7.029
 4001SOL     OW12682   2.175   2.825   5.835
 4001SOL    HW112683   2.256   2.845   5.789
 4001SOL    HW212684   2.150   2.738   5.804
 4002SOL     OW12685   3.337   2.610   6.314
 4002SOL    HW112686   3.330   2.561   6.396
 4002SOL    HW212687   3.417   2.661   6.322
 4003SOL     OW12688   2.327   3.127   7.324
 4003SOL    HW112689   2.300   3.132   7.232
 4003SOL    HW212690   2.246   3.124   7.373
 4004SOL     OW12691   2.984   3.640   5.816
 4004SOL    HW112692   2.911   3.599   5.863
 4004SOL    HW212693   3.006   3.578   5.747
 4005SOL     OW12694   2.063   2.144   7.087
 4005SOL    HW112695   1.979   2.190   7.081
 4005SOL    HW212696   2.046   2.072   7.148
 4006SOL     OW12697   3.490   3.241   5.674
 4006SOL    HW112698   3.449   3.326   5.659
 4006SOL    HW212699   3.421   3.178   5.653
 4007SOL     OW12700   2.328   3.599   5.907
 4007SOL    HW112701   2.369   3.657   5.971
 4007SOL    HW212702   2.401   3.570   5.852
 4008SOL     OW12703   3.263   1.969   6.018
 4008SOL    HW112704   3.253   1.944   5.927
 4008SOL    HW212705   3.358   1.975   6.032
 4009SOL     OW12706   2.117   3.653   6.818
 4009SOL    HW112707   2.170   3.588   6.865
 4009SOL    HW212708   2.109   3.618   6.729
 4010SOL     OW12709   2.799   3.563   6.484
 4010SOL    HW112710   2.871   3.508   6.513
 4010SOL    HW212711   2.755   3.511   6.417
 4011SOL     OW12712   2.250   2.553   6.059
 4011SOL    HW112713   2.277   2.463   6.078
 4011SOL    HW212714   2.157   2.555   6.081
 4012SOL     OW12715   3.397   2.087   7.312
 4012SOL    HW112716   3.407   2.108   7.405
 4012SOL    HW212717   3.327   2.022   7.309
 4013SOL     OW12718   2.482   1.974   5.704
 4013SOL    HW112719   2.569   1.933   5.702
 4013SOL    HW212720   2.444   1.953   5.619
 4014SOL     OW12721   2.620   2.118   7.333
 4014SOL    HW112722   2.702   2.070   7.340
 4014SOL    HW212723   2.596   2.139   7.423
 4015SOL     OW12724   2.740   3.387   6.780
 4015SOL    HW112725   2.721   3.349   6.694
 4015SOL    HW212726   2.804   3.329   6.819
 4016SOL     OW12727   3.215   2.449   7.012
 4016SOL    HW112728   3.241   2.418   7.099
 4016SOL    HW212729   3.248   2.538   7.008
 4017SOL     OW12730   2.677   3.273   6.522
 4017SOL    HW112731   2.761   3.252   6.480
 4017SOL    HW212732   2.613   3.263   6.452
 4018SOL     OW12733   2.783   2.355   6.488
 4018SOL    HW112734   2.764   2.340   6.396
 4018SOL    HW212735   2.825   2.275   6.518
 4019SOL     OW12736   2.411   1.926   6.088
 4019SOL    HW112737   2.330   1.926   6.139
 4019SOL    HW212738   2.405   2.004   6.033
 4020SOL     OW12739   3.288   3.060   5.626
 4020SOL    HW112740   3.321   2.985   5.677
 4020SOL    HW212741   3.204   3.081   5.666
 4021SOL     OW12742   2.154   1.910   5.772
 4021SOL    HW112743   2.210   1.971   5.724
 4021SOL    HW212744   2.215   1.847   5.811
 4022SOL     OW12745   2.808   2.093   6.051
 4022SOL    HW112746   2.768   2.163   6.000
 4022SOL    HW212747   2.902   2.112   6.048
 4023SOL     OW12748   2.948   2.518   7.059
 4023SOL    HW112749   2.899   2.441   7.030
 4023SOL    HW212750   3.039   2.496   7.039
 4024SOL     OW12751   3.090   3.428   6.376
 4024SOL    HW112752   3.103   3.499   6.313
 4024SOL    HW212753   3.152   3.445   6.446
 4025SOL     OW12754   2.329   3.019   6.320
 4025SOL    HW112755   2.259   2.995   6.381
 4025SOL    HW212756   2.296   2.993   6.234
 4026SOL     OW12757   3.131   3.656   6.194
 4026SOL    HW112758   3.177   3.717   6.137
 4026SOL    HW212759   3.065   3.709   6.238
 4027SOL     OW12760   2.904   2.389   5.609
 4027SOL    HW112761   2.855   2.468   5.589
 4027SOL    HW212762   2.959   2.413   5.683
 4028SOL     OW12763   1.942   2.417   6.976
 4028SOL    HW112764   2.035   2.416   6.953
 4028SOL    HW212765   1.935   2.487   7.041
 4029SOL     OW12766   2.418   2.075   6.746
 4029SOL    HW112767   2.459   2.000   6.788
 4029SOL    HW212768   2.328   2.075   6.779
 4030SOL     OW12769   2.733   2.293   6.237
 4030SOL    HW112770   2.711   2.360   6.173
 4030SOL    HW212771   2.756   2.216   6.185
 4031SOL     OW12772   2.877   1.915   6.338
 4031SOL    HW112773   2.820   1.908   6.261
 4031SOL    HW212774   2.854   1.839   6.391
 4032SOL     OW12775   3.301   3.025   6.444
 4032SOL    HW112776   3.232   2.959   6.442
 4032SOL    HW212777   3.326   3.036   6.352
 4033SOL     OW12778   3.329   2.467   6.562
 4033SOL    HW112779   3.277   2.386   6.566
 4033SOL    HW212780   3.389   2.460   6.637
 4034SOL     OW12781   3.707   2.678   5.968
 4034SOL    HW112782   3.763   2.627   6.026
 4034SOL    HW212783   3.679   2.616   5.901
 4035SOL     OW12784   2.355   3.275   5.745
 4035SOL    HW112785   2.279   3.250   5.797
 4035SOL    HW212786   2.336   3.243   5.657
 4036SOL     OW12787   3.531   3.126   6.232
 4036SOL    HW112788   3.626   3.129   6.245
 4036SOL    HW212789   3.501   3.215   6.253
 4037SOL     OW12790   3.257   2.436   5.661
 4037SOL    HW112791   3.197   2.413   5.732
 4037SOL    HW212792   3.342   2.402   5.689
 4038SOL     OW12793   2.387   2.129   5.908
 4038SOL    HW112794   2.424   2.075   5.838
 4038SOL    HW212795   2.367   2.213   5.865
 4039SOL     OW12796   3.615   3.100   7.159
 4039SOL    HW112797   3.702   3.062   7.155
 4039SOL    HW212798   3.629   3.190   7.188
 4040SOL     OW12799   2.924   3.221   6.921
 4040SOL    HW112800   2.847   3.188   6.967
 4040SOL    HW212801   2.998   3.175   6.963
 4041SOL     OW12802   3.470   3.488   7.239
 4041SOL    HW112803   3.465   3.522   7.149
 4041SOL    HW212804   3.553   3.440   7.241
 4042SOL     OW12805   2.991   3.064   6.690
 4042SOL    HW112806   2.928   3.089   6.758
 4042SOL    HW212807   2.952   3.095   6.608
 4043SOL     OW12808   3.491   2.961   6.664
 4043SOL    HW112809   3.487   3.022   6.737
 4043SOL    HW212810   3.412   2.978   6.613
 4044SOL     OW12811   2.780   1.958   6.982
 4044SOL    HW112812   2.803   1.940   6.891
 4044SOL    HW212813   2.858   1.998   7.019
 4045SOL     OW12814   2.847   2.964   7.308
 4045SOL    HW112815   2.756   2.984   7.326
 4045SOL    HW212816   2.845   2.911   7.228
 4046SOL     OW12817   2.262   2.675   6.849
 4046SOL    HW112818   2.355   2.681   6.867
 4046SOL    HW212819   2.240   2.583   6.863
 4047SOL     OW12820   3.129   2.238   6.860
 4047SOL    HW112821   3.164   2.315   6.905
 4047SOL    HW212822   3.038   2.262   6.840
 4048SOL     OW12823   1.933   3.435   6.938
 4048SOL    HW112824   1.904   3.508   6.884
 4048SOL    HW212825   2.028   3.438   6.933
 4049SOL     OW12826   2.219   2.968   6.074
 4049SOL    HW112827   2.210   3.042   6.014
 4049SOL    HW212828   2.208   2.891   6.018
 4050SOL     OW12829   2.413   2.391   6.462
 4050SOL    HW112830   2.414   2.408   6.368
 4050SOL    HW212831   2.505   2.396   6.488
 4051SOL     OW12832   3.109   3.211   5.976
 4051SOL    HW112833   3.165   3.282   6.006
 4051SOL    HW212834   3.022   3.232   6.010
 4052SOL     OW12835   3.142   3.319   6.731
 4052SOL    HW112836   3.196   3.321   6.811
 4052SOL    HW212837   3.082   3.246   6.745
 4053SOL     OW12838   3.442   2.486   6.064
 4053SOL    HW112839   3.397   2.541   6.128
 4053SOL    HW212840   3.490   2.547   6.009
 4054SOL     OW12841   2.209   3.389   6.902
 4054SOL    HW112842   2.196   3.347   6.817
 4054SOL    HW212843   2.303   3.401   6.909
 4055SOL     OW12844   2.249   2.599   7.192
 4055SOL    HW112845   2.303   2.653   7.134
 4055SOL    HW212846   2.289   2.512   7.186
 4056SOL     OW12847   3.463   2.640   7.268
 4056SOL    HW112848   3.377   2.681   7.261
 4056SOL    HW212849   3.515   2.683   7.200
 4057SOL     OW12850   2.861   1.986   7.343
 4057SOL    HW112851   2.916   2.059   7.313
 4057SOL    HW212852   2.909   1.908   7.316
 4058SOL     OW12853   2.359   1.900   7.334
 4058SOL    HW112854   2.317   1.847   7.267
 4058SOL    HW212855   2.301   1.976   7.345
 4059SOL     OW12856   3.225   2.721   6.617
 4059SOL    HW112857   3.146   2.711   6.564
 4059SOL    HW212858   3.267   2.635   6.615
 4060SOL     OW12859   3.064   2.391   5.856
 4060SOL    HW112860   3.068   2.307   5.902
 4060SOL    HW212861   3.057   2.456   5.925
 4061SOL     OW12862   2.160   2.061   6.833
 4061SOL    HW112863   2.123   2.093   6.916
 4061SOL    HW212864   2.141   1.967   6.833
 4062SOL     OW12865   1.907   3.173   6.862
 4062SOL    HW112866   1.940   3.119   6.933
 4062SOL    HW212867   1.915   3.263   6.895
 4063SOL     OW12868   3.597   2.821   7.438
 4063SOL    HW112869   3.549   2.761   7.382
 4063SOL    HW212870   3.539   2.836   7.513
 4064SOL     OW12871   2.165   1.927   6.209
 4064SOL    HW112872   2.145   2.018   6.233
 4064SOL    HW212873   2.172   1.882   6.293
 4065SOL     OW12874   3.478   2.236   5.953
 4065SOL    HW112875   3.505   2.172   6.019
 4065SOL    HW212876   3.455   2.314   6.004
 4066SOL     OW12877   2.845   3.428   7.302
 4066SOL    HW112878   2.829   3.472   7.218
 4066SOL    HW212879   2.886   3.345   7.278
 4067SOL     OW12880   3.717   3.368   7.191
 4067SOL    HW112881   3.735   3.394   7.101
 4067SOL    HW212882   3.798   3.387   7.238
 4068SOL     OW12883   2.210   2.781   7.397
 4068SOL    HW112884   2.291   2.804   7.444
 4068SOL    HW212885   2.237   2.712   7.336
 4069SOL     OW12886   3.389   2.137   5.713
 4069SOL    HW112887   3.326   2.070   5.740
 4069SOL    HW212888   3.423   2.171   5.796
 4070SOL     OW12889   3.153   2.688   5.613
 4070SOL    HW112890   3.196   2.603   5.620
 4070SOL    HW212891   3.187   2.725   5.531
 4071SOL     OW12892   2.925   3.201   6.435
 4071SOL    HW112893   2.931   3.129   6.372
 4071SOL    HW212894   2.989   3.265   6.405
 4072SOL     OW12895   2.168   2.673   6.536
 4072SOL    HW112896   2.258   2.704   6.542
 4072SOL    HW212897   2.170   2.585   6.573
 4073SOL     OW12898   2.189   2.387   6.606
 4073SOL    HW112899   2.153   2.300   6.587
 4073SOL    HW212900   2.269   2.392   6.553
 4074SOL     OW12901   3.000   2.232   7.264
 4074SOL    HW112902   2.954   2.285   7.329
 4074SOL    HW212903   3.086   2.274   7.257
 4075SOL     OW12904   3.024   2.062   7.054
 4075SOL    HW112905   3.013   2.124   7.126
 4075SOL    HW212906   3.062   2.114   6.983
 4076SOL     OW12907   1.867   3.183   5.781
 4076SOL    HW112908   1.781   3.197   5.743
 4076SOL    HW212909   1.865   3.093   5.815
 4077SOL     OW12910   1.952   3.650   6.523
 4077SOL    HW112911   1.922   3.570   6.480
 4077SOL    HW212912   2.042   3.661   6.493
 4078SOL     OW12913   2.358   3.435   6.490
 4078SOL    HW112914   2.427   3.497   6.516
 4078SOL    HW212915   2.404   3.370   6.437
 4079SOL     OW12916   1.897   2.406   6.703
 4079SOL    HW112917   1.978   2.394   6.654
 4079SOL    HW212918   1.924   2.410   6.794
 4080SOL     OW12919   2.052   2.380   7.313
 4080SOL    HW112920   2.103   2.338   7.243
 4080SOL    HW212921   2.009   2.453   7.269
 4081SOL     OW12922   3.238   2.801   7.245
 4081SOL    HW112923   3.260   2.894   7.243
 4081SOL    HW212924   3.235   2.775   7.153
 4082SOL     OW12925   2.704   2.331   5.959
 4082SOL    HW112926   2.708   2.290   5.873
 4082SOL    HW212927   2.629   2.391   5.954
 4083SOL     OW12928   3.504   2.464   6.772
 4083SOL    HW112929   3.492   2.406   6.847
 4083SOL    HW212930   3.591   2.443   6.738
 4084SOL     OW12931   2.104   3.413   7.313
 4084SOL    HW112932   2.083   3.477   7.382
 4084SOL    HW212933   2.108   3.329   7.359
 4085SOL     OW12934   2.539   2.297   6.850
 4085SOL    HW112935   2.498   2.219   6.813
 4085SOL    HW212936   2.563   2.350   6.774
 4086SOL     OW12937   2.789   3.542   7.055
 4086SOL    HW112938   2.765   3.505   6.970
 4086SOL    HW212939   2.784   3.637   7.041
 4087SOL     OW12940   2.329   2.364   5.784
 4087SOL    HW112941   2.380   2.444   5.791
 4087SOL    HW212942   2.239   2.394   5.768
 4088SOL     OW12943   2.006   3.004   7.059
 4088SOL    HW112944   2.009   2.951   7.139
 4088SOL    HW212945   2.022   2.941   6.988
 4089SOL     OW12946   3.189   2.910   6.810
 4089SOL    HW112947   3.212   2.847   6.742
 4089SOL    HW212948   3.120   2.963   6.771
 4090SOL     OW12949   3.177   2.711   5.888
 4090SOL    HW112950   3.095   2.726   5.934
 4090SOL    HW212951   3.153   2.704   5.796
 4091SOL     OW12952   3.633   3.606   6.735
 4091SOL    HW112953   3.694   3.632   6.666
 4091SOL    HW212954   3.609   3.516   6.714
 4092SOL     OW12955   3.103   3.595   6.698
 4092SOL    HW112956   3.185   3.615   6.654
 4092SOL    HW212957   3.108   3.502   6.718
 4093SOL     OW12958   1.945   3.129   6.598
 4093SOL    HW112959   1.932   3.142   6.692
 4093SOL    HW212960   1.873   3.073   6.570
 4094SOL     OW12961   2.539   3.527   7.314
 4094SOL    HW112962   2.488   3.607   7.310
 4094SOL    HW212963   2.606   3.537   7.246
 4095SOL     OW12964   3.581   2.008   6.095
 4095SOL    HW112965   3.654   1.994   6.035
 4095SOL    HW212966   3.565   1.923   6.136
 4096SOL     OW12967   3.251   3.430   6.069
 4096SOL    HW112968   3.313   3.463   6.004
 4096SOL    HW212969   3.204   3.507   6.099
 4097SOL     OW12970   1.997   3.659   7.430
 4097SOL    HW112971   1.947   3.594   7.479
 4097SOL    HW212972   2.046   3.707   7.497
 4098SOL     OW12973   3.131   2.787   6.256
 4098SOL    HW112974   3.204   2.726   6.265
 4098SOL    HW212975   3.167   2.860   6.205
 4099SOL     OW12976   2.690   3.142   7.022
 4099SOL    HW112977   2.645   3.184   7.096
 4099SOL    HW212978   2.619   3.117   6.962
 4100SOL     OW12979   2.533   3.482   5.741
 4100SOL    HW112980   2.543   3.494   5.647
 4100SOL    HW212981   2.479   3.403   5.749
 4101SOL     OW12982   3.489   3.589   6.977
 4101SOL    HW112983   3.538   3.596   6.895
 4101SOL    HW212984   3.475   3.679   7.005
 4102SOL     OW12985   3.703   2.035   6.553
 4102SOL    HW112986   3.731   1.948   6.526
 4102SOL    HW212987   3.616   2.045   6.513
 4103SOL     OW12988   2.124   2.181   6.303
 4103SOL    HW112989   2.037   2.213   6.279
 4103SOL    HW212990   2.119   2.169   6.398
 4104SOL     OW12991   3.069   3.468   5.616
 4104SOL    HW112992   3.059   3.377   5.645
 4104SOL    HW212993   3.002   3.480   5.549
 4105SOL     OW12994   3.354   3.486   5.628
 4105SOL    HW112995   3.260   3.482   5.615
 4105SOL    HW212996   3.391   3.493   5.540
 4106SOL     OW12997   2.229   3.165   7.080
 4106SOL    HW112998   2.219   3.241   7.022
 4106SOL    HW212999   2.152   3.111   7.062
 4107SOL     OW13000   3.474   3.145   6.867
 4107SOL    HW113001   3.531   3.134   6.942
 4107SOL    HW213002   3.412   3.214   6.894
 4108SOL     OW13003   2.912   2.969   6.288
 4108SOL    HW113004   2.839   2.923   6.329
 4108SOL    HW213005   2.977   2.901   6.269
 4109SOL     OW13006   2.886   2.100   6.553
 4109SOL    HW113007   2.881   2.051   6.470
 4109SOL    HW213008   2.880   2.033   6.620
 4110SOL     OW13009   2.464   3.353   6.066
 4110SOL    HW113010   2.506   3.307   5.993
 4110SOL    HW213011   2.393   3.402   6.025
 4111SOL     OW13012   3.584   2.254   6.967
 4111SOL    HW113013   3.656   2.317   6.965
 4111SOL    HW213014   3.614   2.182   6.910
 4112SOL     OW13015   2.122   3.208   5.875
 4112SOL    HW113016   2.029   3.205   5.851
 4112SOL    HW213017   2.123   3.245   5.963
 4113SOL     OW13018   1.973   2.882   7.304
 4113SOL    HW113019   1.897   2.860   7.358
 4113SOL    HW213020   2.048   2.847   7.352
 4114SOL     OW13021   2.533   2.055   7.081
 4114SOL    HW113022   2.618   2.039   7.041
 4114SOL    HW213023   2.553   2.080   7.171
 4115SOL     OW13024   1.939   2.198   5.623
 4115SOL    HW113025   1.856   2.176   5.581
 4115SOL    HW213026   1.971   2.273   5.572
 4116SOL     OW13027   3.293   2.721   6.987
 4116SOL    HW113028   3.243   2.782   6.932
 4116SOL    HW213029   3.382   2.724   6.952
 4117SOL     OW13030   1.931   2.019   5.896
 4117SOL    HW113031   1.916   2.097   5.843
 4117SOL    HW213032   2.015   1.986   5.866
 4118SOL     OW13033   3.041   3.203   5.703
 4118SOL    HW113034   2.951   3.170   5.707
 4118SOL    HW213035   3.070   3.204   5.794
 4119SOL     OW13036   3.346   3.638   6.564
 4119SOL    HW113037   3.370   3.698   6.494
 4119SOL    HW213038   3.429   3.620   6.609
 4120SOL     OW13039   3.334   3.061   7.219
 4120SOL    HW113040   3.320   3.076   7.312
 4120SOL    HW213041   3.427   3.077   7.205
 4121SOL     OW13042   2.241   3.602   7.150
 4121SOL    HW113043   2.156   3.643   7.137
 4121SOL    HW213044   2.222   3.518   7.191
 4122SOL     OW13045   3.532   2.743   6.842
 4122SOL    HW113046   3.525   2.658   6.799
 4122SOL    HW213047   3.522   2.807   6.770
 4123SOL     OW13048   3.081   2.181   6.042
 4123SOL    HW113049   3.143   2.109   6.034
 4123SOL    HW213050   3.109   2.228   6.120
 4124SOL     OW13051   3.624   2.223   7.237
 4124SOL    HW113052   3.608   2.239   7.144
 4124SOL    HW213053   3.552   2.167   7.265
 4125SOL     OW13054   3.608   2.795   7.098
 4125SOL    HW113055   3.604   2.890   7.112
 4125SOL    HW213056   3.592   2.784   7.005
 4126SOL     OW13057   2.726   3.230   5.617
 4126SOL    HW113058   2.690   3.257   5.702
 4126SOL    HW213059   2.744   3.313   5.573
 4127SOL     OW13060   2.521   3.654   6.530
 4127SOL    HW113061   2.503   3.745   6.507
 4127SOL    HW213062   2.617   3.647   6.525
 4128SOL     OW13063   2.952   2.861   5.680
 4128SOL    HW113064   2.924   2.905   5.599
 4128SOL    HW213065   3.021   2.801   5.652
 4129SOL     OW13066   3.716   3.416   6.430
 4129SOL    HW113067   3.638   3.405   6.377
 4129SOL    HW213068   3.707   3.351   6.500
 4130SOL     OW13069   2.087   3.166   7.443
 4130SOL    HW113070   2.019   3.105   7.414
 4130SOL    HW213071   2.070   3.178   7.536
 4131SOL     OW13072   1.946   3.095   6.252
 4131SOL    HW113073   1.951   3.048   6.335
 4131SOL    HW213074   2.016   3.057   6.198
 4132SOL     OW13075   2.540   3.265   7.211
 4132SOL    HW113076   2.461   3.222   7.244
 4132SOL    HW213077   2.537   3.353   7.250
 4133SOL     OW13078   3.676   2.046   6.824
 4133SOL    HW113079   3.685   1.952   6.838
 4133SOL    HW213080   3.685   2.057   6.729
 4134SOL     OW13081   2.306   2.294   6.126
 4134SOL    HW113082   2.326   2.230   6.058
 4134SOL    HW213083   2.244   2.250   6.183
 4135SOL     OW13084   3.563   3.351   6.682
 4135SOL    HW113085   3.481   3.328   6.637
 4135SOL    HW213086   3.574   3.283   6.748
 4136SOL     OW13087   2.197   2.414   6.882
 4136SOL    HW113088   2.251   2.354   6.934
 4136SOL    HW213089   2.209   2.384   6.792
 4137SOL     OW13090   2.690   3.440   6.261
 4137SOL    HW113091   2.672   3.493   6.183
 4137SOL    HW213092   2.614   3.383   6.269
 4138SOL     OW13093   3.295   2.086   6.704
 4138SOL    HW113094   3.320   2.007   6.751
 4138SOL    HW213095   3.242   2.135   6.767
 4139SOL     OW13096   2.871   1.880   6.728
 4139SOL    HW113097   2.817   1.812   6.688
 4139SOL    HW213098   2.959   1.842   6.731
 4140SOL     OW13099   2.640   3.202   5.894
 4140SOL    HW113100   2.607   3.112   5.901
 4140SOL    HW213101   2.717   3.203   5.951
 4141SOL     OW13102   2.480   3.422   6.868
 4141SOL    HW113103   2.485   3.503   6.919
 4141SOL    HW213104   2.569   3.410   6.834
 4142SOL     OW13105   3.214   1.916   5.751
 4142SOL    HW113106   3.242   1.852   5.685
 4142SOL    HW213107   3.127   1.886   5.778
 4143SOL     OW13108   3.166   2.316   6.267
 4143SOL    HW113109   3.116   2.397   6.275
 4143SOL    HW213110   3.160   2.275   6.353
 4144SOL     OW13111   3.449   2.064   6.464
 4144SOL    HW113112   3.388   2.084   6.535
 4144SOL    HW213113   3.448   2.142   6.408
 4145SOL     OW13114   1.906   2.933   5.892
 4145SOL    HW113115   1.999   2.922   5.871
 4145SOL    HW213116   1.877   2.845   5.915
 4146SOL     OW13117   2.747   3.515   5.927
 4146SOL    HW113118   2.674   3.498   5.868
 4146SOL    HW213119   2.718   3.590   5.980
 4147SOL     OW13120   2.093   2.478   7.570
 4147SOL    HW113121   2.005   2.492   7.603
 4147SOL    HW213122   2.082   2.457   7.478
 4148SOL     OW13123   3.628   2.461   7.680
 4148SOL    HW113124   3.609   2.457   7.586
 4148SOL    HW213125   3.588   2.382   7.716
 4149SOL     OW13126   2.082   3.582   7.919
 4149SOL    HW113127   2.112   3.621   8.000
 4149SOL    HW213128   2.160   3.578   7.864
 4150SOL     OW13129   2.078   3.301   7.989
 4150SOL    HW113130   2.062   3.395   7.990
 4150SOL    HW213131   2.024   3.266   8.059
 4151SOL     OW13132   2.428   2.860   7.569
 4151SOL    HW113133   2.481   2.909   7.505
 4151SOL    HW213134   2.469   2.879   7.653
 4152SOL     OW13135   3.699   3.621   7.797
 4152SOL    HW113136   3.770   3.591   7.854
 4152SOL    HW213137   3.725   3.710   7.772
 4153SOL     OW13138   1.891   3.461   7.577
 4153SOL    HW113139   1.877   3.368   7.592
 4153SOL    HW213140   1.865   3.503   7.659
 4154SOL     OW13141   3.544   2.728   8.036
 4154SOL    HW113142   3.625   2.740   0.006
 4154SOL    HW213143   3.532   2.812   7.990
 4155SOL     OW13144   3.517   2.959   7.878
 4155SOL    HW113145   3.603   2.986   7.847
 4155SOL    HW213146   3.488   3.032   7.933
 4156SOL     OW13147   2.665   1.858   7.942
 4156SOL    HW113148   2.712   1.939   7.922
 4156SOL    HW213149   2.573   1.885   7.947
 4157SOL     OW13150   3.395   2.855   7.649
 4157SOL    HW113151   3.328   2.795   7.681
 4157SOL    HW213152   3.437   2.890   7.728
 4158SOL     OW13153   3.437   3.533   7.757
 4158SOL    HW113154   3.527   3.562   7.765
 4158SOL    HW213155   3.424   3.520   7.663
 4159SOL     OW13156   1.923   2.721   0.091
 4159SOL    HW113157   1.994   2.665   0.121
 4159SOL    HW213158   1.915   2.788   0.159
 4160SOL     OW13159   2.745   2.204   7.641
 4160SOL    HW113160   2.787   2.273   7.590
 4160SOL    HW213161   2.785   2.123   7.609
 4161SOL     OW13162   2.177   2.824   7.695
 4161SOL    HW113163   2.259   2.839   7.648
 4161SOL    HW213164   2.149   2.737   7.667
 4162SOL     OW13165   2.986   3.637   7.682
 4162SOL    HW113166   2.909   3.598   7.723
 4162SOL    HW213167   3.009   3.577   7.611
 4163SOL     OW13168   3.491   3.242   7.533
 4163SOL    HW113169   3.448   3.327   7.520
 4163SOL    HW213170   3.421   3.178   7.517
 4164SOL     OW13171   2.328   3.601   7.769
 4164SOL    HW113172   2.377   3.652   7.833
 4164SOL    HW213173   2.395   3.564   7.711
 4165SOL     OW13174   3.278   1.994   7.864
 4165SOL    HW113175   3.265   1.959   7.776
 4165SOL    HW213176   3.372   1.991   7.877
 4166SOL     OW13177   2.240   2.547   7.900
 4166SOL    HW113178   2.248   2.456   7.926
 4166SOL    HW213179   2.170   2.582   7.955
 4167SOL     OW13180   2.482   1.976   7.567
 4167SOL    HW113181   2.567   1.932   7.570
 4167SOL    HW213182   2.445   1.952   7.483
 4168SOL     OW13183   2.395   1.935   7.959
 4168SOL    HW113184   2.308   1.937   7.999
 4168SOL    HW213185   2.393   2.006   7.895
 4169SOL     OW13186   3.290   3.060   7.490
 4169SOL    HW113187   3.320   2.985   7.541
 4169SOL    HW213188   3.204   3.081   7.525
 4170SOL     OW13189   2.155   1.911   7.633
 4170SOL    HW113190   2.214   1.970   7.586
 4170SOL    HW213191   2.213   1.845   7.671
 4171SOL     OW13192   2.802   2.092   7.907
 4171SOL    HW113193   2.763   2.147   7.839
 4171SOL    HW213194   2.893   2.121   7.914
 4172SOL     OW13195   2.289   3.045   0.091
 4172SOL    HW113196   2.210   3.042   0.146
 4172SOL    HW213197   2.260   3.014   0.005
 4173SOL     OW13198   3.153   3.673   8.014
 4173SOL    HW113199   3.188   3.743   7.958
 4173SOL    HW213200   3.069   3.707   8.044
 4174SOL     OW13201   2.908   2.384   7.472
 4174SOL    HW113202   2.864   2.468   7.469
 4174SOL    HW213203   2.971   2.392   7.544
 4175SOL     OW13204   3.734   2.678   7.802
 4175SOL    HW113205   3.729   2.649   7.893
 4175SOL    HW213206   3.693   2.608   7.752
 4176SOL     OW13207   2.350   3.279   7.605
 4176SOL    HW113208   2.276   3.249   7.657
 4176SOL    HW213209   2.337   3.238   7.519
 4177SOL     OW13210   3.256   2.432   7.518
 4177SOL    HW113211   3.195   2.413   7.590
 4177SOL    HW213212   3.340   2.399   7.549
 4178SOL     OW13213   2.386   2.131   7.772
 4178SOL    HW113214   2.427   2.077   7.704
 4178SOL    HW213215   2.368   2.215   7.729
 4179SOL     OW13216   2.572   2.943   7.822
 4179SOL    HW113217   2.518   2.947   7.901
 4179SOL    HW213218   2.600   2.852   7.816
 4180SOL     OW13219   2.231   2.963   7.925
 4180SOL    HW113220   2.208   3.040   7.873
 4180SOL    HW213221   2.216   2.889   7.866
 4181SOL     OW13222   3.087   3.217   7.822
 4181SOL    HW113223   3.149   3.286   7.846
 4181SOL    HW213224   3.044   3.193   7.904
 4182SOL     OW13225   3.450   2.490   7.922
 4182SOL    HW113226   3.439   2.551   7.995
 4182SOL    HW213227   3.488   2.543   7.852
 4183SOL     OW13228   3.065   2.387   7.714
 4183SOL    HW113229   3.065   2.307   7.766
 4183SOL    HW213230   3.061   2.458   7.779
 4184SOL     OW13231   3.480   2.241   7.815
 4184SOL    HW113232   3.502   2.174   7.880
 4184SOL    HW213233   3.456   2.317   7.866
 4185SOL     OW13234   3.392   2.136   7.575
 4185SOL    HW113235   3.326   2.071   7.601
 4185SOL    HW213236   3.424   2.172   7.658
 4186SOL     OW13237   3.157   2.689   7.481
 4186SOL    HW113238   3.197   2.602   7.481
 4186SOL    HW213239   3.186   2.729   7.399
 4187SOL     OW13240   1.867   3.187   7.641
 4187SOL    HW113241   1.780   3.199   7.603
 4187SOL    HW213242   1.867   3.097   7.674
 4188SOL     OW13243   2.331   2.364   7.643
 4188SOL    HW113244   2.384   2.442   7.661
 4188SOL    HW213245   2.242   2.398   7.629
 4189SOL     OW13246   3.167   2.704   7.754
 4189SOL    HW113247   3.080   2.728   7.787
 4189SOL    HW213248   3.156   2.701   7.659
 4190SOL     OW13249   3.574   2.009   7.948
 4190SOL    HW113250   3.651   2.001   7.892
 4190SOL    HW213251   3.576   1.930   8.002
 4191SOL     OW13252   3.227   3.438   7.897
 4191SOL    HW113253   3.301   3.459   7.840
 4191SOL    HW213254   3.195   3.524   7.927
 4192SOL     OW13255   2.528   3.483   7.603
 4192SOL    HW113256   2.542   3.493   7.509
 4192SOL    HW213257   2.477   3.402   7.612
 4193SOL     OW13258   3.071   3.469   7.478
 4193SOL    HW113259   3.060   3.378   7.506
 4193SOL    HW213260   3.004   3.481   7.410
 4194SOL     OW13261   3.355   3.488   7.489
 4194SOL    HW113262   3.261   3.481   7.477
 4194SOL    HW213263   3.390   3.494   7.400
 4195SOL     OW13264   2.472   3.372   7.935
 4195SOL    HW113265   2.515   3.310   7.876
 4195SOL    HW213266   2.394   3.400   7.887
 4196SOL     OW13267   2.120   3.208   7.740
 4196SOL    HW113268   2.028   3.206   7.715
 4196SOL    HW213269   2.119   3.244   7.829
 4197SOL     OW13270   1.939   2.194   7.484
 4197SOL    HW113271   1.852   2.176   7.448
 4197SOL    HW213272   1.969   2.271   7.435
 4198SOL     OW13273   1.932   2.019   7.758
 4198SOL    HW113274   1.916   2.095   7.703
 4198SOL    HW213275   2.015   1.984   7.726
 4199SOL     OW13276   3.038   3.203   7.556
 4199SOL    HW113277   2.950   3.167   7.557
 4199SOL    HW213278   3.063   3.207   7.649
 4200SOL     OW13279   3.076   2.181   7.901
 4200SOL    HW113280   3.150   2.121   7.892
 4200SOL    HW213281   3.092   2.228   7.983
 4201SOL     OW13282   2.724   3.229   7.480
 4201SOL    HW113283   2.688   3.256   7.564
 4201SOL    HW213284   2.744   3.312   7.435
 4202SOL     OW13285   2.961   2.873   7.545
 4202SOL    HW113286   2.923   2.907   7.464
 4202SOL    HW213287   3.023   2.806   7.517
 4203SOL     OW13288   2.253   2.285   7.983
 4203SOL    HW113289   2.300   2.235   7.917
 4203SOL    HW213290   2.297   2.262   8.065
 4204SOL     OW13291   2.632   3.206   7.757
 4204SOL    HW113292   2.602   3.116   7.763
 4204SOL    HW213293   2.714   3.208   7.805
 4205SOL     OW13294   3.214   1.915   7.610
 4205SOL    HW113295   3.243   1.849   7.547
 4205SOL    HW213296   3.128   1.885   7.638
 4206SOL     OW13297   1.914   2.941   7.750
 4206SOL    HW113298   2.007   2.929   7.733
 4206SOL    HW213299   1.881   2.852   7.765
 4207SOL     OW13300   2.755   3.514   7.781
 4207SOL    HW113301   2.679   3.488   7.729
 4207SOL    HW213302   2.721   3.576   7.845
 4208SOL     OW13303   2.081   4.347   0.122
 4208SOL    HW113304   2.001   4.313   0.161
 4208SOL    HW213305   2.103   4.285   0.052
 4209SOL     OW13306   2.087   4.005   0.992
 4209SOL    HW113307   2.115   3.971   1.076
 4209SOL    HW213308   1.997   3.973   0.982
 4210SOL     OW13309   1.866   4.107   0.638
 4210SOL    HW113310   1.783   4.133   0.679
 4210SOL    HW213311   1.845   4.027   0.590
 4211SOL     OW13312   2.428   5.005   1.179
 4211SOL    HW113313   2.343   5.004   1.135
 4211SOL    HW213314   2.440   5.097   1.205
 4212SOL     OW13315   3.418   5.233   0.688
 4212SOL    HW113316   3.394   5.230   0.780
 4212SOL    HW213317   3.340   5.269   0.645
 4213SOL     OW13318   2.992   4.422   0.702
 4213SOL    HW113319   3.041   4.503   0.687
 4213SOL    HW213320   2.945   4.437   0.784
 4214SOL     OW13321   3.632   4.324   0.233
 4214SOL    HW113322   3.593   4.326   0.145
 4214SOL    HW213323   3.592   4.249   0.275
 4215SOL     OW13324   2.618   4.868   1.038
 4215SOL    HW113325   2.550   4.900   1.098
 4215SOL    HW213326   2.648   4.947   0.992
 4216SOL     OW13327   2.729   4.499   1.822
 4216SOL    HW113328   2.715   4.570   1.884
 4216SOL    HW213329   2.752   4.542   1.740
 4217SOL     OW13330   2.546   4.725   0.651
 4217SOL    HW113331   2.612   4.715   0.720
 4217SOL    HW213332   2.478   4.780   0.691
 4218SOL     OW13333   2.571   4.872   1.811
 4218SOL    HW113334   2.618   4.952   1.836
 4218SOL    HW213335   2.487   4.904   1.777
 4219SOL     OW13336   2.199   5.151   1.060
 4219SOL    HW113337   2.122   5.107   1.024
 4219SOL    HW213338   2.239   5.195   0.985
 4220SOL     OW13339   3.317   5.220   1.347
 4220SOL    HW113340   3.371   5.293   1.379
 4220SOL    HW213341   3.250   5.209   1.415
 4221SOL     OW13342   2.311   4.122   1.487
 4221SOL    HW113343   2.386   4.063   1.493
 4221SOL    HW213344   2.235   4.066   1.500
 4222SOL     OW13345   3.474   4.172   0.741
 4222SOL    HW113346   3.399   4.195   0.686
 4222SOL    HW213347   3.489   4.249   0.795
 4223SOL     OW13348   2.995   5.072   1.701
 4223SOL    HW113349   3.026   5.073   1.791
 4223SOL    HW213350   2.942   4.993   1.694
 4224SOL     OW13351   2.069   5.155   0.515
 4224SOL    HW113352   2.097   5.237   0.556
 4224SOL    HW213353   2.018   5.112   0.583
 4225SOL     OW13354   2.119   4.811   0.892
 4225SOL    HW113355   2.117   4.724   0.931
 4225SOL    HW213356   2.062   4.864   0.947
 4226SOL     OW13357   2.491   4.685   0.132
 4226SOL    HW113358   2.439   4.762   0.107
 4226SOL    HW213359   2.540   4.713   0.209
 4227SOL     OW13360   3.458   3.847   1.468
 4227SOL    HW113361   3.465   3.928   1.417
 4227SOL    HW213362   3.444   3.877   1.558
 4228SOL     OW13363   1.977   4.374   0.562
 4228SOL    HW113364   1.947   4.286   0.583
 4228SOL    HW213365   1.968   4.423   0.644
 4229SOL     OW13366   1.839   0.019   0.095
 4229SOL    HW113367   1.855   5.229   0.123
 4229SOL    HW213368   1.869   0.073   0.169
 4230SOL     OW13369   3.549   4.641   0.643
 4230SOL    HW113370   3.632   4.600   0.621
 4230SOL    HW213371   3.527   4.694   0.565
 4231SOL     OW13372   3.508   4.829   0.434
 4231SOL    HW113373   3.590   4.841   0.385
 4231SOL    HW213374   3.514   4.891   0.507
 4232SOL     OW13375   1.985   4.466   1.586
 4232SOL    HW113376   2.077   4.492   1.594
 4232SOL    HW213377   1.937   4.549   1.594
 4233SOL     OW13378   2.484   5.098   0.737
 4233SOL    HW113379   2.429   5.020   0.735
 4233SOL    HW213380   2.466   5.142   0.654
 4234SOL     OW13381   3.151   4.954   1.426
 4234SOL    HW113382   3.185   4.889   1.365
 4234SOL    HW213383   3.211   4.952   1.500
 4235SOL     OW13384   2.677   3.726   0.510
 4235SOL    HW113385   2.717   3.811   0.489
 4235SOL    HW213386   2.584   3.744   0.518
 4236SOL     OW13387   2.053   4.690   1.270
 4236SOL    HW113388   2.137   4.647   1.255
 4236SOL    HW213389   1.989   4.635   1.224
 4237SOL     OW13390   3.372   4.734   0.210
 4237SOL    HW113391   3.311   4.667   0.242
 4237SOL    HW213392   3.424   4.757   0.286
 4238SOL     OW13393   2.195   3.974   1.811
 4238SOL    HW113394   2.240   4.057   1.828
 4238SOL    HW213395   2.106   3.988   1.843
 4239SOL     OW13396   3.339   5.146   0.962
 4239SOL    HW113397   3.265   5.159   1.023
 4239SOL    HW213398   3.326   5.058   0.928
 4240SOL     OW13399   2.460   4.438   0.282
 4240SOL    HW113400   2.479   4.515   0.229
 4240SOL    HW213401   2.396   4.468   0.346
 4241SOL     OW13402   3.141   4.076   0.932
 4241SOL    HW113403   3.052   4.043   0.941
 4241SOL    HW213404   3.192   4.023   0.994
 4242SOL     OW13405   2.654   4.341   1.451
 4242SOL    HW113406   2.628   4.318   1.540
 4242SOL    HW213407   2.614   4.275   1.396
 4243SOL     OW13408   3.255   4.198   1.678
 4243SOL    HW113409   3.258   4.243   1.762
 4243SOL    HW213410   3.317   4.125   1.687
 4244SOL     OW13411   2.817   4.612   1.582
 4244SOL    HW113412   2.871   4.542   1.547
 4244SOL    HW213413   2.769   4.646   1.507
 4245SOL     OW13414   2.854   4.137   1.239
 4245SOL    HW113415   2.769   4.158   1.276
 4245SOL    HW213416   2.834   4.090   1.158
 4246SOL     OW13417   2.914   4.422   0.427
 4246SOL    HW113418   2.929   4.416   0.522
 4246SOL    HW213419   2.832   4.376   0.413
 4247SOL     OW13420   1.951   4.545   0.776
 4247SOL    HW113421   2.031   4.538   0.827
 4247SOL    HW213422   1.906   4.622   0.811
 4248SOL     OW13423   2.746   4.081   0.201
 4248SOL    HW113424   2.791   4.131   0.133
 4248SOL    HW213425   2.747   3.991   0.170
 4249SOL     OW13426   3.570   4.298   1.828
 4249SOL    HW113427   3.533   4.373   1.780
 4249SOL    HW213428   3.598   4.238   1.760
 4250SOL     OW13429   3.238   4.863   0.540
 4250SOL    HW113430   3.318   4.850   0.489
 4250SOL    HW213431   3.187   4.926   0.488
 4251SOL     OW13432   2.412   3.906   0.893
 4251SOL    HW113433   2.414   3.935   0.984
 4251SOL    HW213434   2.414   3.987   0.842
 4252SOL     OW13435   2.879   5.165   0.469
 4252SOL    HW113436   2.804   5.224   0.466
 4252SOL    HW213437   2.900   5.157   0.562
 4253SOL     OW13438   3.662   4.781   0.867
 4253SOL    HW113439   3.604   4.764   0.792
 4253SOL    HW213440   3.603   4.788   0.942
 4254SOL     OW13441   3.112   5.239   1.524
 4254SOL    HW113442   3.076   5.173   1.582
 4254SOL    HW213443   3.041   5.260   1.464
 4255SOL     OW13444   2.189   4.665   0.254
 4255SOL    HW113445   2.258   4.707   0.203
 4255SOL    HW213446   2.189   4.574   0.225
 4256SOL     OW13447   3.340   4.465   0.727
 4256SOL    HW113448   3.332   4.423   0.812
 4256SOL    HW213449   3.417   4.521   0.735
 4257SOL     OW13450   2.326   4.988   1.740
 4257SOL    HW113451   2.300   4.990   1.649
 4257SOL    HW213452   2.244   4.986   1.789
 4258SOL     OW13453   3.019   0.159   0.237
 4258SOL    HW113454   2.935   0.177   0.280
 4258SOL    HW213455   2.997   0.140   0.146
 4259SOL     OW13456   2.063   4.005   1.501
 4259SOL    HW113457   1.981   4.055   1.496
 4259SOL    HW213458   2.045   3.936   1.564
 4260SOL     OW13459   3.492   5.094   0.076
 4260SOL    HW113460   3.454   5.180   0.093
 4260SOL    HW213461   3.417   5.037   0.062
 4261SOL     OW13462   3.269   3.835   0.444
 4261SOL    HW113463   3.260   3.814   0.351
 4261SOL    HW213464   3.364   3.842   0.457
 4262SOL     OW13465   2.248   4.421   0.477
 4262SOL    HW113466   2.273   4.329   0.488
 4262SOL    HW213467   2.155   4.424   0.500
 4263SOL     OW13468   3.398   3.949   1.725
 4263SOL    HW113469   3.407   3.970   1.818
 4263SOL    HW213470   3.328   3.883   1.722
 4264SOL     OW13471   2.491   3.835   0.136
 4264SOL    HW113472   2.586   3.823   0.142
 4264SOL    HW213473   2.471   3.815   0.044
 4265SOL     OW13474   2.628   4.001   1.754
 4265SOL    HW113475   2.704   3.943   1.756
 4265SOL    HW213476   2.580   3.981   1.834
 4266SOL     OW13477   3.202   4.313   1.432
 4266SOL    HW113478   3.233   4.282   1.517
 4266SOL    HW213479   3.239   4.401   1.424
 4267SOL     OW13480   2.674   5.120   0.936
 4267SOL    HW113481   2.755   5.106   0.886
 4267SOL    HW213482   2.606   5.126   0.869
 4268SOL     OW13483   2.789   4.233   0.903
 4268SOL    HW113484   2.766   4.225   0.810
 4268SOL    HW213485   2.821   4.146   0.927
 4269SOL     OW13486   2.411   3.787   0.505
 4269SOL    HW113487   2.331   3.787   0.557
 4269SOL    HW213488   2.405   3.866   0.451
 4270SOL     OW13489   3.288   4.925   0.035
 4270SOL    HW113490   3.317   4.851   0.089
 4270SOL    HW213491   3.201   4.947   0.070
 4271SOL     OW13492   2.172   3.779   0.169
 4271SOL    HW113493   2.237   3.848   0.185
 4271SOL    HW213494   2.209   3.702   0.211
 4272SOL     OW13495   2.801   3.971   0.459
 4272SOL    HW113496   2.774   4.012   0.378
 4272SOL    HW213497   2.896   3.986   0.463
 4273SOL     OW13498   2.942   4.405   1.460
 4273SOL    HW113499   2.873   4.338   1.464
 4273SOL    HW213500   3.023   4.355   1.453
 4274SOL     OW13501   3.124   5.266   0.781
 4274SOL    HW113502   3.087   0.047   0.747
 4274SOL    HW213503   3.169   5.291   0.861
 4275SOL     OW13504   2.327   4.873   0.731
 4275SOL    HW113505   2.259   4.852   0.795
 4275SOL    HW213506   2.286   4.855   0.646
 4276SOL     OW13507   2.894   4.253   0.031
 4276SOL    HW113508   2.851   4.333   0.001
 4276SOL    HW213509   2.956   4.282   0.097
 4277SOL     OW13510   1.941   4.279   1.392
 4277SOL    HW113511   2.033   4.277   1.365
 4277SOL    HW213512   1.936   4.349   1.457
 4278SOL     OW13513   2.421   3.951   1.165
 4278SOL    HW113514   2.463   3.874   1.204
 4278SOL    HW213515   2.330   3.948   1.196
 4279SOL     OW13516   2.728   4.182   0.639
 4279SOL    HW113517   2.687   4.238   0.573
 4279SOL    HW213518   2.751   4.102   0.592
 4280SOL     OW13519   2.878   3.777   0.750
 4280SOL    HW113520   2.819   3.771   0.676
 4280SOL    HW213521   2.855   3.702   0.805
 4281SOL     OW13522   3.299   4.889   0.859
 4281SOL    HW113523   3.232   4.821   0.855
 4281SOL    HW213524   3.324   4.904   0.767
 4282SOL     OW13525   3.328   4.329   0.977
 4282SOL    HW113526   3.278   4.248   0.981
 4282SOL    HW213527   3.388   4.323   1.052
 4283SOL     OW13528   3.710   4.539   0.388
 4283SOL    HW113529   3.763   4.486   0.448
 4283SOL    HW213530   3.679   4.477   0.322
 4284SOL     OW13531   2.328   5.161   0.155
 4284SOL    HW113532   2.281   5.104   0.216
 4284SOL    HW213533   2.366   5.100   0.092
 4285SOL     OW13534   3.532   4.988   0.648
 4285SOL    HW113535   3.625   4.995   0.666
 4285SOL    HW213536   3.497   5.075   0.664
 4286SOL     OW13537   3.261   4.303   0.087
 4286SOL    HW113538   3.198   4.284   0.157
 4286SOL    HW213539   3.316   4.225   0.082
 4287SOL     OW13540   2.379   3.987   0.324
 4287SOL    HW113541   2.429   3.935   0.261
 4287SOL    HW213542   2.367   4.072   0.280
 4288SOL     OW13543   3.613   4.960   1.576
 4288SOL    HW113544   3.699   4.918   1.575
 4288SOL    HW213545   3.632   5.053   1.589
 4289SOL     OW13546   2.926   5.074   1.331
 4289SOL    HW113547   2.848   5.048   1.379
 4289SOL    HW213548   2.999   5.035   1.379
 4290SOL     OW13549   2.988   4.925   1.107
 4290SOL    HW113550   2.938   4.967   1.177
 4290SOL    HW213551   2.944   4.952   1.027
 4291SOL     OW13552   3.491   4.822   1.077
 4291SOL    HW113553   3.486   4.884   1.150
 4291SOL    HW213554   3.413   4.841   1.025
 4292SOL     OW13555   2.780   3.821   1.396
 4292SOL    HW113556   2.803   3.802   1.305
 4292SOL    HW213557   2.859   3.861   1.433
 4293SOL     OW13558   2.846   4.839   1.725
 4293SOL    HW113559   2.754   4.855   1.744
 4293SOL    HW213560   2.846   4.762   1.667
 4294SOL     OW13561   2.572   4.783   0.381
 4294SOL    HW113562   2.556   4.766   0.474
 4294SOL    HW213563   2.651   4.734   0.361
 4295SOL     OW13564   2.280   4.539   1.251
 4295SOL    HW113565   2.349   4.548   1.318
 4295SOL    HW213566   2.245   4.451   1.266
 4296SOL     OW13567   3.128   4.101   1.275
 4296SOL    HW113568   3.160   4.178   1.321
 4296SOL    HW213569   3.037   4.123   1.252
 4297SOL     OW13570   2.205   4.832   0.490
 4297SOL    HW113571   2.208   4.904   0.428
 4297SOL    HW213572   2.215   4.753   0.437
 4298SOL     OW13573   2.415   4.260   0.860
 4298SOL    HW113574   2.430   4.319   0.786
 4298SOL    HW213575   2.480   4.287   0.925
 4299SOL     OW13576   3.119   5.072   0.386
 4299SOL    HW113577   3.173   5.147   0.411
 4299SOL    HW213578   3.030   5.097   0.413
 4300SOL     OW13579   3.131   5.182   1.142
 4300SOL    HW113580   3.191   5.195   1.215
 4300SOL    HW213581   3.087   5.099   1.162
 4301SOL     OW13582   3.445   4.348   0.481
 4301SOL    HW113583   3.395   4.398   0.546
 4301SOL    HW213584   3.480   4.413   0.422
 4302SOL     OW13585   2.210   5.236   1.315
 4302SOL    HW113586   2.199   5.201   1.226
 4302SOL    HW213587   2.303   5.257   1.320
 4303SOL     OW13588   2.276   4.469   1.602
 4303SOL    HW113589   2.338   4.513   1.544
 4303SOL    HW213590   2.316   4.383   1.618
 4304SOL     OW13591   3.463   4.503   1.682
 4304SOL    HW113592   3.377   4.544   1.675
 4304SOL    HW213593   3.515   4.544   1.614
 4305SOL     OW13594   2.858   3.847   1.755
 4305SOL    HW113595   2.913   3.919   1.727
 4305SOL    HW213596   2.906   3.768   1.730
 4306SOL     OW13597   2.360   3.765   1.748
 4306SOL    HW113598   2.317   3.710   1.681
 4306SOL    HW213599   2.301   3.839   1.760
 4307SOL     OW13600   2.445   4.596   1.031
 4307SOL    HW113601   2.476   4.687   1.030
 4307SOL    HW213602   2.389   4.591   1.108
 4308SOL     OW13603   3.220   4.582   1.029
 4308SOL    HW113604   3.137   4.573   0.982
 4308SOL    HW213605   3.260   4.495   1.024
 4309SOL     OW13606   3.066   4.252   0.271
 4309SOL    HW113607   3.073   4.173   0.325
 4309SOL    HW213608   3.023   4.316   0.328
 4310SOL     OW13609   2.161   3.922   1.247
 4310SOL    HW113610   2.124   3.955   1.328
 4310SOL    HW213611   2.142   3.829   1.247
 4311SOL     OW13612   1.915   5.046   1.284
 4311SOL    HW113613   1.939   4.982   1.351
 4311SOL    HW213614   1.949   5.129   1.317
 4312SOL     OW13615   2.586   4.355   1.057
 4312SOL    HW113616   2.661   4.339   1.000
 4312SOL    HW213617   2.558   4.444   1.036
 4313SOL     OW13618   3.596   4.683   1.852
 4313SOL    HW113619   3.550   4.622   1.795
 4313SOL    HW213620   3.537   4.697   1.926
 4314SOL     OW13621   2.164   3.789   0.623
 4314SOL    HW113622   2.146   3.879   0.647
 4314SOL    HW213623   2.172   3.743   0.707
 4315SOL     OW13624   3.483   4.099   0.370
 4315SOL    HW113625   3.507   4.034   0.436
 4315SOL    HW213626   3.457   4.176   0.420
 4316SOL     OW13627   2.889   4.483   0.961
 4316SOL    HW113628   2.886   4.500   1.055
 4316SOL    HW213629   2.863   4.391   0.953
 4317SOL     OW13630   3.716   5.214   1.585
 4317SOL    HW113631   3.711   5.289   1.526
 4317SOL    HW213632   3.785   5.236   1.647
 4318SOL     OW13633   2.215   4.640   1.808
 4318SOL    HW113634   2.297   4.659   1.854
 4318SOL    HW213635   2.240   4.578   1.740
 4319SOL     OW13636   3.381   4.024   0.126
 4319SOL    HW113637   3.331   3.944   0.143
 4319SOL    HW213638   3.420   4.045   0.211
 4320SOL     OW13639   3.157   4.548   0.020
 4320SOL    HW113640   3.195   4.462   0.039
 4320SOL    HW213641   3.217   4.587   8.036
 4321SOL     OW13642   2.920   5.078   0.827
 4321SOL    HW113643   2.925   4.994   0.783
 4321SOL    HW213644   3.006   5.118   0.814
 4322SOL     OW13645   2.171   4.533   0.947
 4322SOL    HW113646   2.264   4.554   0.941
 4322SOL    HW213647   2.169   4.443   0.980
 4323SOL     OW13648   2.193   4.250   1.012
 4323SOL    HW113649   2.158   4.162   0.997
 4323SOL    HW213650   2.270   4.255   0.955
 4324SOL     OW13651   2.996   4.100   1.682
 4324SOL    HW113652   2.949   4.155   1.744
 4324SOL    HW213653   3.084   4.138   1.678
 4325SOL     OW13654   3.023   3.927   1.470
 4325SOL    HW113655   3.012   3.990   1.542
 4325SOL    HW213656   3.062   3.977   1.399
 4326SOL     OW13657   1.873   5.045   0.179
 4326SOL    HW113658   1.785   5.057   0.144
 4326SOL    HW213659   1.871   4.958   0.219
 4327SOL     OW13660   2.845   4.516   1.227
 4327SOL    HW113661   2.901   4.493   1.301
 4327SOL    HW213662   2.760   4.479   1.250
 4328SOL     OW13663   1.898   4.269   1.116
 4328SOL    HW113664   1.979   4.255   1.067
 4328SOL    HW213665   1.926   4.272   1.208
 4329SOL     OW13666   2.053   4.243   1.727
 4329SOL    HW113667   2.110   4.205   1.660
 4329SOL    HW213668   2.011   4.317   1.683
 4330SOL     OW13669   3.239   4.663   1.658
 4330SOL    HW113670   3.259   4.756   1.656
 4330SOL    HW213671   3.236   4.637   1.566
 4331SOL     OW13672   2.681   4.293   0.367
 4331SOL    HW113673   2.690   4.222   0.304
 4331SOL    HW213674   2.605   4.343   0.337
 4332SOL     OW13675   3.504   4.325   1.186
 4332SOL    HW113676   3.494   4.266   1.261
 4332SOL    HW213677   3.591   4.305   1.152
 4333SOL     OW13678   2.068   5.277   1.745
 4333SOL    HW113679   2.054   0.029   1.824
 4333SOL    HW213680   2.080   5.188   1.777
 4334SOL     OW13681   2.563   4.175   1.260
 4334SOL    HW113682   2.510   4.101   1.229
 4334SOL    HW213683   2.559   4.238   1.187
 4335SOL     OW13684   2.330   4.215   0.179
 4335SOL    HW113685   2.397   4.281   0.198
 4335SOL    HW213686   2.247   4.260   0.190
 4336SOL     OW13687   2.007   4.863   1.471
 4336SOL    HW113688   2.009   4.812   1.552
 4336SOL    HW213689   2.025   4.799   1.401
 4337SOL     OW13690   3.189   4.769   1.223
 4337SOL    HW113691   3.212   4.707   1.154
 4337SOL    HW213692   3.118   4.821   1.185
 4338SOL     OW13693   3.169   4.573   0.307
 4338SOL    HW113694   3.092   4.545   0.357
 4338SOL    HW213695   3.144   4.562   0.216
 4339SOL     OW13696   1.955   4.987   1.021
 4339SOL    HW113697   1.934   5.004   1.113
 4339SOL    HW213698   1.875   4.948   0.985
 4340SOL     OW13699   2.614   0.038   1.709
 4340SOL    HW113700   2.522   0.060   1.721
 4340SOL    HW213701   2.633   0.063   1.619
 4341SOL     OW13702   2.767   3.815   0.133
 4341SOL    HW113703   2.784   3.798   0.041
 4341SOL    HW213704   2.832   3.762   0.180
 4342SOL     OW13705   3.581   3.869   0.510
 4342SOL    HW113706   3.653   3.853   0.449
 4342SOL    HW213707   3.565   3.784   0.552
 4343SOL     OW13708   3.139   4.649   0.672
 4343SOL    HW113709   3.213   4.588   0.678
 4343SOL    HW213710   3.173   4.721   0.619
 4344SOL     OW13711   2.681   4.993   1.421
 4344SOL    HW113712   2.651   5.029   1.505
 4344SOL    HW213713   2.606   5.004   1.363
 4345SOL     OW13714   3.703   3.897   0.967
 4345SOL    HW113715   3.731   3.810   0.940
 4345SOL    HW213716   3.616   3.907   0.927
 4346SOL     OW13717   2.124   4.040   0.717
 4346SOL    HW113718   2.038   4.076   0.694
 4346SOL    HW213719   2.121   4.032   0.813
 4347SOL     OW13720   3.003   0.019   0.004
 4347SOL    HW113721   3.017   5.230   0.034
 4347SOL    HW213722   3.007   0.014   7.988
 4348SOL     OW13723   2.687   4.728   1.370
 4348SOL    HW113724   2.733   4.722   1.287
 4348SOL    HW213725   2.690   4.821   1.393
 4349SOL     OW13726   2.781   4.639   0.299
 4349SOL    HW113727   2.836   4.665   0.225
 4349SOL    HW213728   2.828   4.566   0.339
 4350SOL     OW13729   2.227   5.026   1.496
 4350SOL    HW113730   2.216   5.100   1.437
 4350SOL    HW213731   2.152   4.970   1.479
 4351SOL     OW13732   3.474   5.004   1.282
 4351SOL    HW113733   3.531   4.998   1.359
 4351SOL    HW213734   3.412   5.073   1.304
 4352SOL     OW13735   2.916   4.833   0.712
 4352SOL    HW113736   2.844   4.781   0.748
 4352SOL    HW213737   2.977   4.768   0.677
 4353SOL     OW13738   2.883   3.964   0.966
 4353SOL    HW113739   2.879   3.916   0.883
 4353SOL    HW213740   2.878   3.896   1.033
 4354SOL     OW13741   3.584   4.116   1.380
 4354SOL    HW113742   3.655   4.179   1.379
 4354SOL    HW213743   3.613   4.045   1.324
 4355SOL     OW13744   2.126   5.028   0.288
 4355SOL    HW113745   2.045   5.044   0.241
 4355SOL    HW213746   2.117   5.079   0.369
 4356SOL     OW13747   1.974   4.746   1.718
 4356SOL    HW113748   1.898   4.722   1.772
 4356SOL    HW213749   2.049   4.708   1.765
 4357SOL     OW13750   2.536   3.920   1.499
 4357SOL    HW113751   2.620   3.900   1.458
 4357SOL    HW213752   2.559   3.952   1.587
 4358SOL     OW13753   1.919   4.087   0.039
 4358SOL    HW113754   1.844   4.032   0.015
 4358SOL    HW213755   1.968   4.099   8.037
 4359SOL     OW13756   3.292   4.582   1.400
 4359SOL    HW113757   3.243   4.643   1.344
 4359SOL    HW213758   3.381   4.584   1.366
 4360SOL     OW13759   1.933   3.878   0.305
 4360SOL    HW113760   1.918   3.963   0.263
 4360SOL    HW213761   2.017   3.849   0.271
 4361SOL     OW13762   3.044   5.064   0.112
 4361SOL    HW113763   2.949   5.049   0.110
 4361SOL    HW213764   3.067   5.059   0.205
 4362SOL     OW13765   2.481   4.555   1.433
 4362SOL    HW113766   2.537   4.630   1.418
 4362SOL    HW213767   2.542   4.481   1.442
 4363SOL     OW13768   2.580   4.288   1.704
 4363SOL    HW113769   2.620   4.351   1.764
 4363SOL    HW213770   2.608   4.202   1.736
 4364SOL     OW13771   3.335   4.923   1.631
 4364SOL    HW113772   3.322   4.936   1.725
 4364SOL    HW213773   3.429   4.937   1.618
 4365SOL     OW13774   3.532   4.605   1.255
 4365SOL    HW113775   3.525   4.520   1.212
 4365SOL    HW213776   3.522   4.669   1.184
 4366SOL     OW13777   3.079   4.041   0.460
 4366SOL    HW113778   3.144   3.972   0.453
 4366SOL    HW213779   3.107   4.092   0.536
 4367SOL     OW13780   2.450   4.461   0.669
 4367SOL    HW113781   2.490   4.547   0.656
 4367SOL    HW213782   2.382   4.456   0.603
 4368SOL     OW13783   3.625   4.085   1.650
 4368SOL    HW113784   3.607   4.100   1.557
 4368SOL    HW213785   3.553   4.029   1.679
 4369SOL     OW13786   3.606   4.657   1.512
 4369SOL    HW113787   3.603   4.752   1.525
 4369SOL    HW213788   3.591   4.646   1.418
 4370SOL     OW13789   2.771   5.096   0.037
 4370SOL    HW113790   2.711   5.079   0.109
 4370SOL    HW213791   2.725   5.160   8.062
 4371SOL     OW13792   2.729   4.691   0.856
 4371SOL    HW113793   2.780   4.620   0.896
 4371SOL    HW213794   2.695   4.741   0.930
 4372SOL     OW13795   2.942   4.703   0.088
 4372SOL    HW113796   2.921   4.757   0.012
 4372SOL    HW213797   3.018   4.652   0.062
 4373SOL     OW13798   2.085   5.024   1.853
 4373SOL    HW113799   2.017   4.962   1.827
 4373SOL    HW213800   2.074   5.035   1.947
 4374SOL     OW13801   1.949   4.955   0.670
 4374SOL    HW113802   1.946   4.902   0.750
 4374SOL    HW213803   2.017   4.914   0.616
 4375SOL     OW13804   2.532   5.107   1.608
 4375SOL    HW113805   2.457   5.073   1.656
 4375SOL    HW213806   2.564   5.180   1.662
 4376SOL     OW13807   3.674   3.908   1.238
 4376SOL    HW113808   3.685   3.815   1.252
 4376SOL    HW213809   3.684   3.919   1.143
 4377SOL     OW13810   2.287   4.160   0.523
 4377SOL    HW113811   2.320   4.089   0.469
 4377SOL    HW213812   2.242   4.116   0.596
 4378SOL     OW13813   3.569   5.223   1.119
 4378SOL    HW113814   3.495   5.207   1.060
 4378SOL    HW213815   3.575   5.144   1.172
 4379SOL     OW13816   2.192   4.279   1.292
 4379SOL    HW113817   2.247   4.224   1.347
 4379SOL    HW213818   2.211   4.251   1.202
 4380SOL     OW13819   3.294   3.949   1.118
 4380SOL    HW113820   3.320   3.870   1.165
 4380SOL    HW213821   3.242   3.999   1.181
 4381SOL     OW13822   2.871   3.743   1.143
 4381SOL    HW113823   2.816   3.675   1.104
 4381SOL    HW213824   2.959   3.705   1.145
 4382SOL     OW13825   2.656   5.039   0.282
 4382SOL    HW113826   2.603   4.964   0.308
 4382SOL    HW213827   2.715   5.053   0.356
 4383SOL     OW13828   2.484   5.299   1.291
 4383SOL    HW113829   2.491   0.054   1.369
 4383SOL    HW213830   2.574   5.279   1.267
 4384SOL     OW13831   3.218   3.778   0.184
 4384SOL    HW113832   3.239   3.731   0.104
 4384SOL    HW213833   3.132   3.745   0.210
 4385SOL     OW13834   3.159   4.185   0.681
 4385SOL    HW113835   3.106   4.264   0.688
 4385SOL    HW213836   3.154   4.145   0.768
 4386SOL     OW13837   3.448   3.926   0.878
 4386SOL    HW113838   3.388   3.946   0.949
 4386SOL    HW213839   3.448   4.004   0.823
 4387SOL     OW13840   1.903   4.791   0.304
 4387SOL    HW113841   1.999   4.794   0.307
 4387SOL    HW213842   1.879   4.708   0.343
 4388SOL     OW13843   2.091   4.347   1.985
 4388SOL    HW113844   2.002   4.346   2.019
 4388SOL    HW213845   2.082   4.322   1.893
 4389SOL     OW13846   2.087   4.005   2.854
 4389SOL    HW113847   2.115   3.971   2.939
 4389SOL    HW213848   1.997   3.973   2.844
 4390SOL     OW13849   1.866   4.107   2.500
 4390SOL    HW113850   1.783   4.132   2.541
 4390SOL    HW213851   1.845   4.027   2.451
 4391SOL     OW13852   2.428   5.005   3.041
 4391SOL    HW113853   2.343   5.003   2.997
 4391SOL    HW213854   2.439   5.097   3.067
 4392SOL     OW13855   3.417   5.232   2.551
 4392SOL    HW113856   3.397   5.229   2.644
 4392SOL    HW213857   3.338   5.268   2.510
 4393SOL     OW13858   2.992   4.422   2.563
 4393SOL    HW113859   3.041   4.503   2.549
 4393SOL    HW213860   2.945   4.437   2.645
 4394SOL     OW13861   3.629   4.329   2.091
 4394SOL    HW113862   3.608   4.322   1.998
 4394SOL    HW213863   3.593   4.250   2.130
 4395SOL     OW13864   2.619   4.868   2.900
 4395SOL    HW113865   2.551   4.900   2.960
 4395SOL    HW213866   2.648   4.947   2.854
 4396SOL     OW13867   2.729   4.499   3.684
 4396SOL    HW113868   2.715   4.570   3.746
 4396SOL    HW213869   2.752   4.542   3.602
 4397SOL     OW13870   2.548   4.727   2.510
 4397SOL    HW113871   2.613   4.716   2.580
 4397SOL    HW213872   2.479   4.779   2.550
 4398SOL     OW13873   2.571   4.872   3.673
 4398SOL    HW113874   2.618   4.952   3.698
 4398SOL    HW213875   2.487   4.904   3.639
 4399SOL     OW13876   2.199   5.151   2.922
 4399SOL    HW113877   2.122   5.107   2.887
 4399SOL    HW213878   2.238   5.194   2.846
 4400SOL     OW13879   3.317   5.220   3.209
 4400SOL    HW113880   3.371   5.293   3.241
 4400SOL    HW213881   3.250   5.209   3.277
 4401SOL     OW13882   2.311   4.123   3.349
 4401SOL    HW113883   2.385   4.063   3.355
 4401SOL    HW213884   2.234   4.067   3.364
 4402SOL     OW13885   3.474   4.172   2.602
 4402SOL    HW113886   3.399   4.195   2.548
 4402SOL    HW213887   3.490   4.250   2.656
 4403SOL     OW13888   2.995   5.072   3.563
 4403SOL    HW113889   3.026   5.073   3.653
 4403SOL    HW213890   2.941   4.993   3.556
 4404SOL     OW13891   2.072   5.156   2.382
 4404SOL    HW113892   2.098   5.238   2.424
 4404SOL    HW213893   2.020   5.110   2.449
 4405SOL     OW13894   2.120   4.811   2.754
 4405SOL    HW113895   2.117   4.724   2.793
 4405SOL    HW213896   2.062   4.864   2.809
 4406SOL     OW13897   2.447   4.705   1.996
 4406SOL    HW113898   2.494   4.754   1.928
 4406SOL    HW213899   2.487   4.735   2.078
 4407SOL     OW13900   3.454   3.849   3.326
 4407SOL    HW113901   3.464   3.932   3.279
 4407SOL    HW213902   3.444   3.875   3.418
 4408SOL     OW13903   1.977   4.376   2.421
 4408SOL    HW113904   1.948   4.288   2.442
 4408SOL    HW213905   1.969   4.425   2.504
 4409SOL     OW13906   1.848   0.014   1.960
 4409SOL    HW113907   1.864   5.224   1.991
 4409SOL    HW213908   1.870   0.069   2.035
 4410SOL     OW13909   3.550   4.642   2.502
 4410SOL    HW113910   3.634   4.600   2.482
 4410SOL    HW213911   3.529   4.692   2.424
 4411SOL     OW13912   3.507   4.831   2.292
 4411SOL    HW113913   3.593   4.836   2.249
 4411SOL    HW213914   3.514   4.892   2.365
 4412SOL     OW13915   1.985   4.466   3.448
 4412SOL    HW113916   2.077   4.491   3.456
 4412SOL    HW213917   1.937   4.548   3.456
 4413SOL     OW13918   2.484   5.098   2.599
 4413SOL    HW113919   2.430   5.019   2.597
 4413SOL    HW213920   2.465   5.141   2.516
 4414SOL     OW13921   3.151   4.954   3.288
 4414SOL    HW113922   3.185   4.889   3.227
 4414SOL    HW213923   3.211   4.952   3.362
 4415SOL     OW13924   2.676   3.724   2.369
 4415SOL    HW113925   2.717   3.809   2.351
 4415SOL    HW213926   2.583   3.744   2.379
 4416SOL     OW13927   2.053   4.690   3.132
 4416SOL    HW113928   2.137   4.647   3.117
 4416SOL    HW213929   1.989   4.635   3.086
 4417SOL     OW13930   3.393   4.719   2.059
 4417SOL    HW113931   3.323   4.661   2.091
 4417SOL    HW213932   3.434   4.753   2.139
 4418SOL     OW13933   2.198   3.977   3.680
 4418SOL    HW113934   2.238   4.063   3.693
 4418SOL    HW213935   2.106   3.989   3.705
 4419SOL     OW13936   3.338   5.147   2.824
 4419SOL    HW113937   3.265   5.159   2.885
 4419SOL    HW213938   3.326   5.058   2.790
 4420SOL     OW13939   2.458   4.445   2.128
 4420SOL    HW113940   2.464   4.526   2.078
 4420SOL    HW213941   2.393   4.464   2.196
 4421SOL     OW13942   3.141   4.076   2.795
 4421SOL    HW113943   3.052   4.043   2.803
 4421SOL    HW213944   3.192   4.023   2.856
 4422SOL     OW13945   2.654   4.342   3.313
 4422SOL    HW113946   2.627   4.318   3.402
 4422SOL    HW213947   2.614   4.275   3.258
 4423SOL     OW13948   3.255   4.198   3.540
 4423SOL    HW113949   3.258   4.242   3.624
 4423SOL    HW213950   3.316   4.125   3.549
 4424SOL     OW13951   2.817   4.612   3.444
 4424SOL    HW113952   2.871   4.542   3.409
 4424SOL    HW213953   2.769   4.645   3.369
 4425SOL     OW13954   2.854   4.137   3.101
 4425SOL    HW113955   2.769   4.158   3.138
 4425SOL    HW213956   2.835   4.090   3.020
 4426SOL     OW13957   2.913   4.422   2.288
 4426SOL    HW113958   2.928   4.415   2.382
 4426SOL    HW213959   2.830   4.376   2.274
 4427SOL     OW13960   1.950   4.545   2.638
 4427SOL    HW113961   2.031   4.538   2.689
 4427SOL    HW213962   1.907   4.622   2.673
 4428SOL     OW13963   2.755   4.072   2.056
 4428SOL    HW113964   2.795   4.134   1.996
 4428SOL    HW213965   2.771   3.986   2.017
 4429SOL     OW13966   3.571   4.299   3.690
 4429SOL    HW113967   3.533   4.373   3.642
 4429SOL    HW213968   3.598   4.237   3.622
 4430SOL     OW13969   3.239   4.864   2.401
 4430SOL    HW113970   3.320   4.850   2.353
 4430SOL    HW213971   3.189   4.925   2.348
 4431SOL     OW13972   2.412   3.907   2.754
 4431SOL    HW113973   2.414   3.935   2.846
 4431SOL    HW213974   2.413   3.988   2.704
 4432SOL     OW13975   2.884   5.171   2.332
 4432SOL    HW113976   2.805   5.225   2.327
 4432SOL    HW213977   2.899   5.159   2.426
 4433SOL     OW13978   3.662   4.781   2.729
 4433SOL    HW113979   3.605   4.764   2.653
 4433SOL    HW213980   3.602   4.788   2.803
 4434SOL     OW13981   3.112   5.239   3.386
 4434SOL    HW113982   3.076   5.173   3.444
 4434SOL    HW213983   3.041   5.260   3.326
 4435SOL     OW13984   2.182   4.680   2.112
 4435SOL    HW113985   2.264   4.700   2.067
 4435SOL    HW213986   2.152   4.599   2.072
 4436SOL     OW13987   3.340   4.466   2.589
 4436SOL    HW113988   3.332   4.423   2.674
 4436SOL    HW213989   3.418   4.521   2.598
 4437SOL     OW13990   2.326   4.988   3.602
 4437SOL    HW113991   2.300   4.990   3.511
 4437SOL    HW213992   2.244   4.986   3.651
 4438SOL     OW13993   2.933   0.181   2.068
 4438SOL    HW113994   2.939   0.105   2.127
 4438SOL    HW213995   2.964   0.148   1.984
 4439SOL     OW13996   2.063   4.004   3.365
 4439SOL    HW113997   1.981   4.054   3.360
 4439SOL    HW213998   2.038   3.922   3.408
 4440SOL     OW13999   3.485   5.100   1.969
 4440SOL    HW114000   3.482   5.177   1.912
 4440SOL    HW214001   3.416   5.043   1.935
 4441SOL     OW14002   3.263   3.831   2.295
 4441SOL    HW114003   3.253   3.807   2.203
 4441SOL    HW214004   3.358   3.839   2.308
 4442SOL     OW14005   2.255   4.419   2.339
 4442SOL    HW114006   2.275   4.327   2.350
 4442SOL    HW214007   2.161   4.425   2.356
 4443SOL     OW14008   3.398   3.950   3.587
 4443SOL    HW114009   3.407   3.971   3.680
 4443SOL    HW214010   3.332   3.880   3.584
 4444SOL     OW14011   2.496   3.846   1.968
 4444SOL    HW114012   2.567   3.783   1.979
 4444SOL    HW214013   2.447   3.815   1.892
 4445SOL     OW14014   2.629   4.000   3.615
 4445SOL    HW114015   2.704   3.940   3.619
 4445SOL    HW214016   2.579   3.980   3.694
 4446SOL     OW14017   3.202   4.313   3.294
 4446SOL    HW114018   3.233   4.281   3.379
 4446SOL    HW214019   3.239   4.401   3.286
 4447SOL     OW14020   2.674   5.120   2.797
 4447SOL    HW114021   2.755   5.106   2.747
 4447SOL    HW214022   2.606   5.126   2.731
 4448SOL     OW14023   2.790   4.233   2.765
 4448SOL    HW114024   2.766   4.225   2.673
 4448SOL    HW214025   2.821   4.146   2.790
 4449SOL     OW14026   2.411   3.787   2.364
 4449SOL    HW114027   2.330   3.788   2.416
 4449SOL    HW214028   2.405   3.866   2.310
 4450SOL     OW14029   3.290   4.924   1.900
 4450SOL    HW114030   3.320   4.848   1.951
 4450SOL    HW214031   3.202   4.941   1.934
 4451SOL     OW14032   2.154   3.771   2.047
 4451SOL    HW114033   2.213   3.836   2.007
 4451SOL    HW214034   2.212   3.708   2.088
 4452SOL     OW14035   2.800   3.970   2.322
 4452SOL    HW114036   2.773   4.012   2.240
 4452SOL    HW214037   2.895   3.984   2.326
 4453SOL     OW14038   2.942   4.405   3.322
 4453SOL    HW114039   2.873   4.338   3.326
 4453SOL    HW214040   3.023   4.355   3.315
 4454SOL     OW14041   3.126   5.267   2.641
 4454SOL    HW114042   3.084   0.049   2.613
 4454SOL    HW214043   3.170   5.289   2.722
 4455SOL     OW14044   2.328   4.872   2.593
 4455SOL    HW114045   2.259   4.852   2.657
 4455SOL    HW214046   2.287   4.854   2.508
 4456SOL     OW14047   2.885   4.266   1.885
 4456SOL    HW114048   2.843   4.349   1.864
 4456SOL    HW214049   2.951   4.288   1.951
 4457SOL     OW14050   1.941   4.279   3.254
 4457SOL    HW114051   2.033   4.277   3.227
 4457SOL    HW214052   1.936   4.349   3.319
 4458SOL     OW14053   2.421   3.952   3.027
 4458SOL    HW114054   2.462   3.874   3.064
 4458SOL    HW214055   2.330   3.948   3.057
 4459SOL     OW14056   2.729   4.183   2.502
 4459SOL    HW114057   2.684   4.238   2.437
 4459SOL    HW214058   2.751   4.103   2.454
 4460SOL     OW14059   2.878   3.777   2.613
 4460SOL    HW114060   2.819   3.770   2.538
 4460SOL    HW214061   2.856   3.702   2.668
 4461SOL     OW14062   3.299   4.890   2.721
 4461SOL    HW114063   3.233   4.821   2.717
 4461SOL    HW214064   3.325   4.903   2.630
 4462SOL     OW14065   3.328   4.329   2.839
 4462SOL    HW114066   3.278   4.248   2.842
 4462SOL    HW214067   3.388   4.323   2.914
 4463SOL     OW14068   3.707   4.540   2.245
 4463SOL    HW114069   3.764   4.489   2.303
 4463SOL    HW214070   3.679   4.477   2.178
 4464SOL     OW14071   2.343   5.147   2.015
 4464SOL    HW114072   2.281   5.095   2.067
 4464SOL    HW214073   2.344   5.104   1.930
 4465SOL     OW14074   3.531   4.987   2.509
 4465SOL    HW114075   3.625   4.993   2.526
 4465SOL    HW214076   3.498   5.075   2.525
 4466SOL     OW14077   3.256   4.296   1.933
 4466SOL    HW114078   3.195   4.276   2.005
 4466SOL    HW214079   3.341   4.264   1.964
 4467SOL     OW14080   2.387   3.987   2.180
 4467SOL    HW114081   2.432   3.939   2.110
 4467SOL    HW214082   2.365   4.071   2.142
 4468SOL     OW14083   3.613   4.960   3.438
 4468SOL    HW114084   3.699   4.918   3.437
 4468SOL    HW214085   3.632   5.053   3.451
 4469SOL     OW14086   2.926   5.074   3.193
 4469SOL    HW114087   2.848   5.049   3.241
 4469SOL    HW214088   2.999   5.035   3.241
 4470SOL     OW14089   2.988   4.925   2.970
 4470SOL    HW114090   2.938   4.967   3.040
 4470SOL    HW214091   2.943   4.952   2.889
 4471SOL     OW14092   3.491   4.822   2.939
 4471SOL    HW114093   3.486   4.884   3.012
 4471SOL    HW214094   3.412   4.841   2.887
 4472SOL     OW14095   2.777   3.825   3.257
 4472SOL    HW114096   2.800   3.802   3.168
 4472SOL    HW214097   2.857   3.863   3.294
 4473SOL     OW14098   2.846   4.839   3.587
 4473SOL    HW114099   2.754   4.854   3.606
 4473SOL    HW214100   2.847   4.762   3.529
 4474SOL     OW14101   2.567   4.782   2.234
 4474SOL    HW114102   2.555   4.767   2.327
 4474SOL    HW214103   2.644   4.731   2.211
 4475SOL     OW14104   2.280   4.539   3.113
 4475SOL    HW114105   2.349   4.548   3.180
 4475SOL    HW214106   2.245   4.451   3.127
 4476SOL     OW14107   3.127   4.100   3.138
 4476SOL    HW114108   3.160   4.178   3.183
 4476SOL    HW214109   3.037   4.123   3.115
 4477SOL     OW14110   2.209   4.832   2.351
 4477SOL    HW114111   2.212   4.905   2.289
 4477SOL    HW214112   2.209   4.754   2.296
 4478SOL     OW14113   2.415   4.261   2.722
 4478SOL    HW114114   2.430   4.319   2.648
 4478SOL    HW214115   2.480   4.287   2.787
 4479SOL     OW14116   3.121   5.077   2.248
 4479SOL    HW114117   3.178   5.144   2.286
 4479SOL    HW214118   3.033   5.100   2.277
 4480SOL     OW14119   3.131   5.181   3.004
 4480SOL    HW114120   3.191   5.195   3.077
 4480SOL    HW214121   3.087   5.099   3.023
 4481SOL     OW14122   3.444   4.347   2.341
 4481SOL    HW114123   3.397   4.401   2.405
 4481SOL    HW214124   3.489   4.409   2.285
 4482SOL     OW14125   2.210   5.236   3.177
 4482SOL    HW114126   2.199   5.201   3.088
 4482SOL    HW214127   2.303   5.257   3.182
 4483SOL     OW14128   2.276   4.469   3.464
 4483SOL    HW114129   2.338   4.513   3.406
 4483SOL    HW214130   2.314   4.383   3.480
 4484SOL     OW14131   3.463   4.503   3.544
 4484SOL    HW114132   3.377   4.544   3.537
 4484SOL    HW214133   3.515   4.544   3.475
 4485SOL     OW14134   2.863   3.850   3.626
 4485SOL    HW114135   2.915   3.923   3.593
 4485SOL    HW214136   2.907   3.771   3.593
 4486SOL     OW14137   2.343   3.764   3.600
 4486SOL    HW114138   2.278   3.708   3.556
 4486SOL    HW214139   2.295   3.844   3.620
 4487SOL     OW14140   2.445   4.596   2.893
 4487SOL    HW114141   2.475   4.687   2.891
 4487SOL    HW214142   2.389   4.591   2.970
 4488SOL     OW14143   3.220   4.582   2.891
 4488SOL    HW114144   3.136   4.572   2.844
 4488SOL    HW214145   3.260   4.496   2.886
 4489SOL     OW14146   3.067   4.252   2.129
 4489SOL    HW114147   3.075   4.174   2.184
 4489SOL    HW214148   3.024   4.317   2.185
 4490SOL     OW14149   2.161   3.921   3.109
 4490SOL    HW114150   2.124   3.954   3.190
 4490SOL    HW214151   2.143   3.827   3.110
 4491SOL     OW14152   1.914   5.046   3.146
 4491SOL    HW114153   1.939   4.982   3.213
 4491SOL    HW214154   1.950   5.129   3.179
 4492SOL     OW14155   2.586   4.355   2.920
 4492SOL    HW114156   2.661   4.339   2.862
 4492SOL    HW214157   2.558   4.444   2.899
 4493SOL     OW14158   3.596   4.684   3.714
 4493SOL    HW114159   3.551   4.622   3.657
 4493SOL    HW214160   3.537   4.697   3.788
 4494SOL     OW14161   2.165   3.788   2.485
 4494SOL    HW114162   2.146   3.879   2.508
 4494SOL    HW214163   2.173   3.743   2.569
 4495SOL     OW14164   3.478   4.098   2.229
 4495SOL    HW114165   3.506   4.034   2.295
 4495SOL    HW214166   3.455   4.176   2.279
 4496SOL     OW14167   2.889   4.483   2.823
 4496SOL    HW114168   2.886   4.501   2.917
 4496SOL    HW214169   2.863   4.391   2.815
 4497SOL     OW14170   3.716   5.214   3.447
 4497SOL    HW114171   3.711   5.289   3.388
 4497SOL    HW214172   3.785   5.237   3.509
 4498SOL     OW14173   2.215   4.641   3.670
 4498SOL    HW114174   2.297   4.659   3.716
 4498SOL    HW214175   2.239   4.578   3.602
 4499SOL     OW14176   3.391   3.997   1.989
 4499SOL    HW114177   3.326   3.932   2.016
 4499SOL    HW214178   3.424   4.033   2.072
 4500SOL     OW14179   3.154   4.550   1.893
 4500SOL    HW114180   3.197   4.465   1.897
 4500SOL    HW214181   3.185   4.589   1.811
 4501SOL     OW14182   2.920   5.079   2.688
 4501SOL    HW114183   2.925   4.994   2.645
 4501SOL    HW214184   3.006   5.118   2.675
 4502SOL     OW14185   2.171   4.533   2.809
 4502SOL    HW114186   2.264   4.554   2.803
 4502SOL    HW214187   2.169   4.443   2.842
 4503SOL     OW14188   2.193   4.250   2.874
 4503SOL    HW114189   2.158   4.162   2.859
 4503SOL    HW214190   2.270   4.255   2.817
 4504SOL     OW14191   2.996   4.100   3.544
 4504SOL    HW114192   2.949   4.155   3.606
 4504SOL    HW214193   3.084   4.138   3.540
 4505SOL     OW14194   3.021   3.926   3.333
 4505SOL    HW114195   3.012   3.989   3.404
 4505SOL    HW214196   3.061   3.975   3.262
 4506SOL     OW14197   1.868   5.041   2.052
 4506SOL    HW114198   1.778   5.058   2.026
 4506SOL    HW214199   1.866   4.953   2.090
 4507SOL     OW14200   2.845   4.516   3.089
 4507SOL    HW114201   2.901   4.493   3.163
 4507SOL    HW214202   2.760   4.478   3.111
 4508SOL     OW14203   1.898   4.269   2.978
 4508SOL    HW114204   1.979   4.255   2.929
 4508SOL    HW214205   1.926   4.272   3.070
 4509SOL     OW14206   2.054   4.243   3.590
 4509SOL    HW114207   2.105   4.200   3.521
 4509SOL    HW214208   2.012   4.317   3.546
 4510SOL     OW14209   3.239   4.663   3.520
 4510SOL    HW114210   3.259   4.756   3.518
 4510SOL    HW214211   3.235   4.636   3.428
 4511SOL     OW14212   2.678   4.293   2.222
 4511SOL    HW114213   2.682   4.219   2.162
 4511SOL    HW214214   2.604   4.345   2.191
 4512SOL     OW14215   3.504   4.325   3.048
 4512SOL    HW114216   3.494   4.266   3.123
 4512SOL    HW214217   3.591   4.305   3.014
 4513SOL     OW14218   2.068   5.277   3.607
 4513SOL    HW114219   2.054   0.029   3.686
 4513SOL    HW214220   2.080   5.188   3.639
 4514SOL     OW14221   2.563   4.175   3.122
 4514SOL    HW114222   2.510   4.101   3.091
 4514SOL    HW214223   2.560   4.238   3.050
 4515SOL     OW14224   2.326   4.216   2.049
 4515SOL    HW114225   2.385   4.289   2.071
 4515SOL    HW214226   2.241   4.257   2.036
 4516SOL     OW14227   2.007   4.863   3.333
 4516SOL    HW114228   2.009   4.812   3.413
 4516SOL    HW214229   2.025   4.799   3.263
 4517SOL     OW14230   3.189   4.769   3.085
 4517SOL    HW114231   3.212   4.707   3.016
 4517SOL    HW214232   3.118   4.821   3.047
 4518SOL     OW14233   3.172   4.581   2.168
 4518SOL    HW114234   3.097   4.550   2.218
 4518SOL    HW214235   3.148   4.567   2.077
 4519SOL     OW14236   1.955   4.987   2.883
 4519SOL    HW114237   1.934   5.004   2.975
 4519SOL    HW214238   1.876   4.948   2.847
 4520SOL     OW14239   2.614   0.038   3.571
 4520SOL    HW114240   2.521   0.060   3.582
 4520SOL    HW214241   2.633   0.062   3.480
 4521SOL     OW14242   3.581   3.870   2.371
 4521SOL    HW114243   3.654   3.856   2.311
 4521SOL    HW214244   3.566   3.785   2.412
 4522SOL     OW14245   3.139   4.649   2.533
 4522SOL    HW114246   3.212   4.588   2.541
 4522SOL    HW214247   3.173   4.721   2.480
 4523SOL     OW14248   2.681   4.993   3.283
 4523SOL    HW114249   2.651   5.029   3.367
 4523SOL    HW214250   2.606   5.004   3.225
 4524SOL     OW14251   3.703   3.897   2.829
 4524SOL    HW114252   3.732   3.810   2.802
 4524SOL    HW214253   3.616   3.907   2.789
 4525SOL     OW14254   2.124   4.040   2.579
 4525SOL    HW114255   2.039   4.076   2.555
 4525SOL    HW214256   2.121   4.032   2.674
 4526SOL     OW14257   2.687   4.728   3.233
 4526SOL    HW114258   2.733   4.721   3.149
 4526SOL    HW214259   2.690   4.821   3.255
 4527SOL     OW14260   2.778   4.635   2.153
 4527SOL    HW114261   2.839   4.668   2.086
 4527SOL    HW214262   2.826   4.565   2.197
 4528SOL     OW14263   2.227   5.026   3.358
 4528SOL    HW114264   2.216   5.100   3.299
 4528SOL    HW214265   2.152   4.969   3.341
 4529SOL     OW14266   3.474   5.004   3.144
 4529SOL    HW114267   3.531   4.998   3.220
 4529SOL    HW214268   3.412   5.073   3.166
 4530SOL     OW14269   2.916   4.833   2.573
 4530SOL    HW114270   2.844   4.782   2.609
 4530SOL    HW214271   2.977   4.768   2.540
 4531SOL     OW14272   2.883   3.964   2.828
 4531SOL    HW114273   2.879   3.916   2.745
 4531SOL    HW214274   2.878   3.896   2.895
 4532SOL     OW14275   3.584   4.116   3.242
 4532SOL    HW114276   3.655   4.179   3.241
 4532SOL    HW214277   3.614   4.045   3.186
 4533SOL     OW14278   2.120   5.053   2.144
 4533SOL    HW114279   2.028   5.054   2.118
 4533SOL    HW214280   2.121   5.095   2.230
 4534SOL     OW14281   1.974   4.746   3.581
 4534SOL    HW114282   1.898   4.722   3.634
 4534SOL    HW214283   2.049   4.708   3.627
 4535SOL     OW14284   2.535   3.920   3.362
 4535SOL    HW114285   2.619   3.902   3.319
 4535SOL    HW214286   2.559   3.951   3.450
 4536SOL     OW14287   1.940   4.058   1.897
 4536SOL    HW114288   1.853   4.038   1.863
 4536SOL    HW214289   1.970   4.133   1.845
 4537SOL     OW14290   3.292   4.582   3.262
 4537SOL    HW114291   3.243   4.643   3.206
 4537SOL    HW214292   3.381   4.584   3.228
 4538SOL     OW14293   1.930   3.880   2.172
 4538SOL    HW114294   1.916   3.960   2.121
 4538SOL    HW214295   2.015   3.848   2.142
 4539SOL     OW14296   3.044   5.064   1.982
 4539SOL    HW114297   2.953   5.035   1.983
 4539SOL    HW214298   3.072   5.056   2.074
 4540SOL     OW14299   2.481   4.555   3.295
 4540SOL    HW114300   2.538   4.630   3.280
 4540SOL    HW214301   2.541   4.481   3.304
 4541SOL     OW14302   2.580   4.287   3.566
 4541SOL    HW114303   2.620   4.350   3.626
 4541SOL    HW214304   2.609   4.202   3.598
 4542SOL     OW14305   3.335   4.923   3.493
 4542SOL    HW114306   3.322   4.936   3.587
 4542SOL    HW214307   3.429   4.937   3.480
 4543SOL     OW14308   3.532   4.605   3.117
 4543SOL    HW114309   3.525   4.520   3.074
 4543SOL    HW214310   3.522   4.669   3.046
 4544SOL     OW14311   3.079   4.043   2.320
 4544SOL    HW114312   3.142   3.972   2.311
 4544SOL    HW214313   3.108   4.092   2.397
 4545SOL     OW14314   2.452   4.462   2.532
 4545SOL    HW114315   2.491   4.548   2.516
 4545SOL    HW214316   2.384   4.454   2.465
 4546SOL     OW14317   3.625   4.086   3.513
 4546SOL    HW114318   3.608   4.101   3.419
 4546SOL    HW214319   3.553   4.029   3.541
 4547SOL     OW14320   3.607   4.657   3.374
 4547SOL    HW114321   3.603   4.752   3.387
 4547SOL    HW214322   3.591   4.645   3.280
 4548SOL     OW14323   2.711   5.094   1.881
 4548SOL    HW114324   2.692   5.095   1.975
 4548SOL    HW214325   2.727   5.186   1.859
 4549SOL     OW14326   2.730   4.691   2.717
 4549SOL    HW114327   2.779   4.620   2.757
 4549SOL    HW214328   2.695   4.741   2.792
 4550SOL     OW14329   2.942   4.713   1.952
 4550SOL    HW114330   2.919   4.763   1.873
 4550SOL    HW214331   3.016   4.659   1.925
 4551SOL     OW14332   2.085   5.024   3.714
 4551SOL    HW114333   2.017   4.961   3.689
 4551SOL    HW214334   2.073   5.035   3.809
 4552SOL     OW14335   1.948   4.956   2.532
 4552SOL    HW114336   1.947   4.903   2.612
 4552SOL    HW214337   2.011   4.912   2.475
 4553SOL     OW14338   2.532   5.107   3.470
 4553SOL    HW114339   2.457   5.073   3.518
 4553SOL    HW214340   2.564   5.180   3.524
 4554SOL     OW14341   3.675   3.909   3.100
 4554SOL    HW114342   3.684   3.815   3.115
 4554SOL    HW214343   3.684   3.919   3.005
 4555SOL     OW14344   2.291   4.158   2.388
 4555SOL    HW114345   2.321   4.087   2.330
 4555SOL    HW214346   2.243   4.114   2.458
 4556SOL     OW14347   3.569   5.224   2.981
 4556SOL    HW114348   3.495   5.207   2.922
 4556SOL    HW214349   3.576   5.144   3.034
 4557SOL     OW14350   2.192   4.279   3.153
 4557SOL    HW114351   2.247   4.224   3.209
 4557SOL    HW214352   2.211   4.251   3.064
 4558SOL     OW14353   3.293   3.949   2.980
 4558SOL    HW114354   3.322   3.871   3.028
 4558SOL    HW214355   3.241   3.998   3.044
 4559SOL     OW14356   2.870   3.743   3.005
 4559SOL    HW114357   2.816   3.674   2.966
 4559SOL    HW214358   2.958   3.706   3.008
 4560SOL     OW14359   2.665   5.047   2.146
 4560SOL    HW114360   2.604   4.976   2.165
 4560SOL    HW214361   2.720   5.053   2.224
 4561SOL     OW14362   2.484   5.299   3.153
 4561SOL    HW114363   2.491   0.054   3.231
 4561SOL    HW214364   2.574   5.279   3.129
 4562SOL     OW14365   3.214   3.778   2.027
 4562SOL    HW114366   3.242   3.714   1.961
 4562SOL    HW214367   3.127   3.748   2.054
 4563SOL     OW14368   3.158   4.184   2.543
 4563SOL    HW114369   3.105   4.264   2.550
 4563SOL    HW214370   3.155   4.145   2.630
 4564SOL     OW14371   3.448   3.926   2.740
 4564SOL    HW114372   3.387   3.947   2.811
 4564SOL    HW214373   3.448   4.004   2.685
 4565SOL     OW14374   1.904   4.795   2.169
 4565SOL    HW114375   1.998   4.788   2.152
 4565SOL    HW214376   1.877   4.705   2.191
 4566SOL     OW14377   2.092   4.347   3.847
 4566SOL    HW114378   2.002   4.346   3.881
 4566SOL    HW214379   2.083   4.322   3.755
 4567SOL     OW14380   2.087   4.004   4.716
 4567SOL    HW114381   2.114   3.972   4.801
 4567SOL    HW214382   1.997   3.972   4.706
 4568SOL     OW14383   1.866   4.106   4.363
 4568SOL    HW114384   1.783   4.131   4.403
 4568SOL    HW214385   1.845   4.027   4.312
 4569SOL     OW14386   2.428   5.005   4.903
 4569SOL    HW114387   2.343   5.003   4.859
 4569SOL    HW214388   2.439   5.096   4.929
 4570SOL     OW14389   3.417   5.232   4.413
 4570SOL    HW114390   3.397   5.229   4.506
 4570SOL    HW214391   3.338   5.268   4.372
 4571SOL     OW14392   2.992   4.422   4.425
 4571SOL    HW114393   3.041   4.503   4.411
 4571SOL    HW214394   2.946   4.437   4.508
 4572SOL     OW14395   3.628   4.330   3.953
 4572SOL    HW114396   3.608   4.322   3.860
 4572SOL    HW214397   3.593   4.249   3.992
 4573SOL     OW14398   2.619   4.868   4.762
 4573SOL    HW114399   2.551   4.900   4.822
 4573SOL    HW214400   2.648   4.947   4.717
 4574SOL     OW14401   2.728   4.499   5.546
 4574SOL    HW114402   2.715   4.570   5.608
 4574SOL    HW214403   2.752   4.543   5.464
 4575SOL     OW14404   2.548   4.727   4.372
 4575SOL    HW114405   2.613   4.716   4.442
 4575SOL    HW214406   2.479   4.780   4.411
 4576SOL     OW14407   2.571   4.872   5.535
 4576SOL    HW114408   2.618   4.952   5.560
 4576SOL    HW214409   2.487   4.904   5.501
 4577SOL     OW14410   2.199   5.151   4.784
 4577SOL    HW114411   2.122   5.107   4.749
 4577SOL    HW214412   2.238   5.195   4.708
 4578SOL     OW14413   3.317   5.220   5.071
 4578SOL    HW114414   3.371   5.293   5.102
 4578SOL    HW214415   3.250   5.210   5.139
 4579SOL     OW14416   2.311   4.122   5.211
 4579SOL    HW114417   2.386   4.063   5.217
 4579SOL    HW214418   2.235   4.066   5.224
 4580SOL     OW14419   3.474   4.171   4.465
 4580SOL    HW114420   3.400   4.195   4.409
 4580SOL    HW214421   3.491   4.250   4.516
 4581SOL     OW14422   2.995   5.072   5.424
 4581SOL    HW114423   3.026   5.073   5.515
 4581SOL    HW214424   2.942   4.993   5.418
 4582SOL     OW14425   2.072   5.155   4.244
 4582SOL    HW114426   2.098   5.238   4.286
 4582SOL    HW214427   2.020   5.110   4.311
 4583SOL     OW14428   2.120   4.811   4.616
 4583SOL    HW114429   2.117   4.724   4.655
 4583SOL    HW214430   2.062   4.864   4.671
 4584SOL     OW14431   2.447   4.705   3.858
 4584SOL    HW114432   2.494   4.754   3.790
 4584SOL    HW214433   2.487   4.735   3.940
 4585SOL     OW14434   3.455   3.848   5.191
 4585SOL    HW114435   3.469   3.929   5.142
 4585SOL    HW214436   3.443   3.877   5.282
 4586SOL     OW14437   1.977   4.376   4.284
 4586SOL    HW114438   1.947   4.288   4.304
 4586SOL    HW214439   1.969   4.424   4.366
 4587SOL     OW14440   1.849   0.014   3.822
 4587SOL    HW114441   1.864   5.224   3.853
 4587SOL    HW214442   1.871   0.069   3.897
 4588SOL     OW14443   3.550   4.641   4.364
 4588SOL    HW114444   3.634   4.600   4.344
 4588SOL    HW214445   3.529   4.693   4.286
 4589SOL     OW14446   3.507   4.831   4.154
 4589SOL    HW114447   3.593   4.836   4.111
 4589SOL    HW214448   3.514   4.892   4.227
 4590SOL     OW14449   1.985   4.466   5.310
 4590SOL    HW114450   2.077   4.492   5.318
 4590SOL    HW214451   1.936   4.549   5.318
 4591SOL     OW14452   2.484   5.097   4.461
 4591SOL    HW114453   2.430   5.019   4.459
 4591SOL    HW214454   2.465   5.141   4.378
 4592SOL     OW14455   3.151   4.954   5.150
 4592SOL    HW114456   3.186   4.889   5.089
 4592SOL    HW214457   3.210   4.952   5.224
 4593SOL     OW14458   2.686   3.732   4.255
 4593SOL    HW114459   2.719   3.815   4.221
 4593SOL    HW214460   2.590   3.741   4.251
 4594SOL     OW14461   2.052   4.690   4.994
 4594SOL    HW114462   2.137   4.647   4.979
 4594SOL    HW214463   1.989   4.636   4.947
 4595SOL     OW14464   3.393   4.719   3.921
 4595SOL    HW114465   3.323   4.661   3.953
 4595SOL    HW214466   3.434   4.753   4.001
 4596SOL     OW14467   2.195   3.974   5.535
 4596SOL    HW114468   2.240   4.057   5.551
 4596SOL    HW214469   2.106   3.988   5.566
 4597SOL     OW14470   3.338   5.147   4.686
 4597SOL    HW114471   3.265   5.159   4.747
 4597SOL    HW214472   3.326   5.058   4.652
 4598SOL     OW14473   2.458   4.445   3.990
 4598SOL    HW114474   2.464   4.526   3.940
 4598SOL    HW214475   2.393   4.464   4.058
 4599SOL     OW14476   3.141   4.077   4.657
 4599SOL    HW114477   3.052   4.045   4.664
 4599SOL    HW214478   3.191   4.023   4.718
 4600SOL     OW14479   2.655   4.341   5.175
 4600SOL    HW114480   2.628   4.318   5.264
 4600SOL    HW214481   2.614   4.274   5.120
 4601SOL     OW14482   3.255   4.197   5.402
 4601SOL    HW114483   3.257   4.243   5.486
 4601SOL    HW214484   3.318   4.126   5.412
 4602SOL     OW14485   2.817   4.612   5.307
 4602SOL    HW114486   2.872   4.542   5.271
 4602SOL    HW214487   2.769   4.646   5.231
 4603SOL     OW14488   2.854   4.134   4.963
 4603SOL    HW114489   2.769   4.159   5.001
 4603SOL    HW214490   2.833   4.094   4.879
 4604SOL     OW14491   2.913   4.422   4.150
 4604SOL    HW114492   2.928   4.415   4.244
 4604SOL    HW214493   2.830   4.376   4.136
 4605SOL     OW14494   1.950   4.544   4.500
 4605SOL    HW114495   2.031   4.538   4.551
 4605SOL    HW214496   1.906   4.622   4.535
 4606SOL     OW14497   2.755   4.073   3.917
 4606SOL    HW114498   2.795   4.136   3.858
 4606SOL    HW214499   2.770   3.988   3.876
 4607SOL     OW14500   3.570   4.298   5.552
 4607SOL    HW114501   3.532   4.373   5.504
 4607SOL    HW214502   3.599   4.238   5.484
 4608SOL     OW14503   3.239   4.864   4.263
 4608SOL    HW114504   3.320   4.850   4.215
 4608SOL    HW214505   3.189   4.925   4.210
 4609SOL     OW14506   2.407   3.907   4.616
 4609SOL    HW114507   2.412   3.937   4.707
 4609SOL    HW214508   2.411   3.987   4.564
 4610SOL     OW14509   2.884   5.171   4.194
 4610SOL    HW114510   2.805   5.225   4.188
 4610SOL    HW214511   2.899   5.160   4.288
 4611SOL     OW14512   3.662   4.781   4.591
 4611SOL    HW114513   3.605   4.764   4.515
 4611SOL    HW214514   3.602   4.788   4.665
 4612SOL     OW14515   3.113   5.239   5.248
 4612SOL    HW114516   3.076   5.173   5.306
 4612SOL    HW214517   3.041   5.261   5.188
 4613SOL     OW14518   2.182   4.680   3.974
 4613SOL    HW114519   2.264   4.699   3.929
 4613SOL    HW214520   2.152   4.599   3.934
 4614SOL     OW14521   3.340   4.466   4.452
 4614SOL    HW114522   3.332   4.423   4.537
 4614SOL    HW214523   3.418   4.522   4.459
 4615SOL     OW14524   2.326   4.987   5.464
 4615SOL    HW114525   2.299   4.990   5.372
 4615SOL    HW214526   2.244   4.986   5.513
 4616SOL     OW14527   2.934   0.181   3.931
 4616SOL    HW114528   2.939   0.105   3.989
 4616SOL    HW214529   2.964   0.148   3.846
 4617SOL     OW14530   2.063   4.006   5.225
 4617SOL    HW114531   1.981   4.056   5.219
 4617SOL    HW214532   2.045   3.939   5.291
 4618SOL     OW14533   3.484   5.101   3.832
 4618SOL    HW114534   3.482   5.177   3.774
 4618SOL    HW214535   3.416   5.043   3.798
 4619SOL     OW14536   3.268   3.842   4.154
 4619SOL    HW114537   3.259   3.814   4.063
 4619SOL    HW214538   3.363   3.842   4.170
 4620SOL     OW14539   2.255   4.419   4.201
 4620SOL    HW114540   2.276   4.326   4.212
 4620SOL    HW214541   2.161   4.425   4.218
 4621SOL     OW14542   3.398   3.949   5.450
 4621SOL    HW114543   3.408   3.971   5.542
 4621SOL    HW214544   3.328   3.884   5.447
 4622SOL     OW14545   2.493   3.841   3.824
 4622SOL    HW114546   2.570   3.784   3.826
 4622SOL    HW214547   2.443   3.811   3.749
 4623SOL     OW14548   2.628   4.001   5.477
 4623SOL    HW114549   2.703   3.942   5.480
 4623SOL    HW214550   2.580   3.983   5.559
 4624SOL     OW14551   3.203   4.312   5.156
 4624SOL    HW114552   3.233   4.282   5.241
 4624SOL    HW214553   3.238   4.401   5.148
 4625SOL     OW14554   2.674   5.120   4.659
 4625SOL    HW114555   2.755   5.106   4.609
 4625SOL    HW214556   2.606   5.126   4.593
 4626SOL     OW14557   2.790   4.233   4.627
 4626SOL    HW114558   2.766   4.226   4.535
 4626SOL    HW214559   2.822   4.146   4.650
 4627SOL     OW14560   2.413   3.785   4.227
 4627SOL    HW114561   2.333   3.788   4.279
 4627SOL    HW214562   2.409   3.864   4.172
 4628SOL     OW14563   3.290   4.924   3.762
 4628SOL    HW114564   3.320   4.848   3.813
 4628SOL    HW214565   3.202   4.941   3.796
 4629SOL     OW14566   2.150   3.773   3.904
 4629SOL    HW114567   2.209   3.839   3.867
 4629SOL    HW214568   2.208   3.712   3.949
 4630SOL     OW14569   2.801   3.973   4.182
 4630SOL    HW114570   2.775   4.014   4.100
 4630SOL    HW214571   2.895   3.987   4.187
 4631SOL     OW14572   2.942   4.405   5.184
 4631SOL    HW114573   2.873   4.339   5.189
 4631SOL    HW214574   3.023   4.355   5.177
 4632SOL     OW14575   3.126   5.267   4.503
 4632SOL    HW114576   3.084   0.048   4.475
 4632SOL    HW214577   3.170   5.289   4.585
 4633SOL     OW14578   2.328   4.872   4.455
 4633SOL    HW114579   2.259   4.852   4.518
 4633SOL    HW214580   2.287   4.854   4.370
 4634SOL     OW14581   2.885   4.266   3.747
 4634SOL    HW114582   2.843   4.350   3.726
 4634SOL    HW214583   2.951   4.288   3.812
 4635SOL     OW14584   1.941   4.278   5.116
 4635SOL    HW114585   2.033   4.277   5.089
 4635SOL    HW214586   1.936   4.349   5.181
 4636SOL     OW14587   2.421   3.952   4.889
 4636SOL    HW114588   2.462   3.873   4.926
 4636SOL    HW214589   2.331   3.949   4.920
 4637SOL     OW14590   2.729   4.183   4.364
 4637SOL    HW114591   2.684   4.238   4.300
 4637SOL    HW214592   2.751   4.103   4.316
 4638SOL     OW14593   2.875   3.785   4.472
 4638SOL    HW114594   2.820   3.775   4.395
 4638SOL    HW214595   2.852   3.711   4.528
 4639SOL     OW14596   3.299   4.890   4.583
 4639SOL    HW114597   3.233   4.821   4.579
 4639SOL    HW214598   3.326   4.903   4.492
 4640SOL     OW14599   3.328   4.330   4.701
 4640SOL    HW114600   3.278   4.248   4.704
 4640SOL    HW214601   3.388   4.324   4.776
 4641SOL     OW14602   3.707   4.540   4.107
 4641SOL    HW114603   3.764   4.489   4.164
 4641SOL    HW214604   3.679   4.478   4.040
 4642SOL     OW14605   2.342   5.147   3.877
 4642SOL    HW114606   2.281   5.095   3.929
 4642SOL    HW214607   2.344   5.104   3.792
 4643SOL     OW14608   3.531   4.986   4.371
 4643SOL    HW114609   3.625   4.993   4.388
 4643SOL    HW214610   3.498   5.075   4.387
 4644SOL     OW14611   3.256   4.296   3.795
 4644SOL    HW114612   3.196   4.276   3.867
 4644SOL    HW214613   3.341   4.263   3.826
 4645SOL     OW14614   2.389   3.985   4.041
 4645SOL    HW114615   2.431   3.937   3.970
 4645SOL    HW214616   2.367   4.070   4.003
 4646SOL     OW14617   3.613   4.960   5.300
 4646SOL    HW114618   3.700   4.918   5.299
 4646SOL    HW214619   3.632   5.053   5.313
 4647SOL     OW14620   2.926   5.074   5.054
 4647SOL    HW114621   2.848   5.048   5.103
 4647SOL    HW214622   2.999   5.035   5.103
 4648SOL     OW14623   2.988   4.925   4.831
 4648SOL    HW114624   2.938   4.967   4.902
 4648SOL    HW214625   2.943   4.952   4.751
 4649SOL     OW14626   3.491   4.822   4.801
 4649SOL    HW114627   3.486   4.884   4.874
 4649SOL    HW214628   3.413   4.841   4.749
 4650SOL     OW14629   2.779   3.821   5.126
 4650SOL    HW114630   2.797   3.807   5.033
 4650SOL    HW214631   2.859   3.862   5.159
 4651SOL     OW14632   2.846   4.839   5.449
 4651SOL    HW114633   2.754   4.855   5.468
 4651SOL    HW214634   2.846   4.762   5.392
 4652SOL     OW14635   2.567   4.783   4.096
 4652SOL    HW114636   2.555   4.767   4.189
 4652SOL    HW214637   2.644   4.732   4.073
 4653SOL     OW14638   2.280   4.539   4.975
 4653SOL    HW114639   2.349   4.548   5.042
 4653SOL    HW214640   2.245   4.451   4.990
 4654SOL     OW14641   3.128   4.100   5.000
 4654SOL    HW114642   3.161   4.178   5.045
 4654SOL    HW214643   3.038   4.123   4.976
 4655SOL     OW14644   2.209   4.832   4.213
 4655SOL    HW114645   2.212   4.905   4.151
 4655SOL    HW214646   2.209   4.754   4.158
 4656SOL     OW14647   2.415   4.261   4.584
 4656SOL    HW114648   2.430   4.318   4.510
 4656SOL    HW214649   2.480   4.288   4.649
 4657SOL     OW14650   3.121   5.077   4.110
 4657SOL    HW114651   3.178   5.144   4.148
 4657SOL    HW214652   3.033   5.100   4.139
 4658SOL     OW14653   3.131   5.181   4.866
 4658SOL    HW114654   3.191   5.196   4.939
 4658SOL    HW214655   3.087   5.099   4.886
 4659SOL     OW14656   3.444   4.346   4.204
 4659SOL    HW114657   3.397   4.402   4.266
 4659SOL    HW214658   3.489   4.408   4.146
 4660SOL     OW14659   2.210   5.236   5.039
 4660SOL    HW114660   2.199   5.201   4.950
 4660SOL    HW214661   2.303   5.257   5.044
 4661SOL     OW14662   2.276   4.469   5.326
 4661SOL    HW114663   2.338   4.513   5.268
 4661SOL    HW214664   2.316   4.383   5.342
 4662SOL     OW14665   3.463   4.502   5.406
 4662SOL    HW114666   3.377   4.544   5.399
 4662SOL    HW214667   3.515   4.544   5.337
 4663SOL     OW14668   2.858   3.847   5.480
 4663SOL    HW114669   2.913   3.921   5.453
 4663SOL    HW214670   2.907   3.770   5.453
 4664SOL     OW14671   2.359   3.764   5.471
 4664SOL    HW114672   2.316   3.710   5.405
 4664SOL    HW214673   2.301   3.839   5.484
 4665SOL     OW14674   2.446   4.596   4.756
 4665SOL    HW114675   2.475   4.687   4.753
 4665SOL    HW214676   2.389   4.591   4.832
 4666SOL     OW14677   3.219   4.582   4.753
 4666SOL    HW114678   3.137   4.573   4.706
 4666SOL    HW214679   3.260   4.496   4.747
 4667SOL     OW14680   3.067   4.253   3.991
 4667SOL    HW114681   3.075   4.174   4.046
 4667SOL    HW214682   3.024   4.317   4.047
 4668SOL     OW14683   2.161   3.923   4.971
 4668SOL    HW114684   2.123   3.957   5.052
 4668SOL    HW214685   2.141   3.829   4.973
 4669SOL     OW14686   1.914   5.046   5.008
 4669SOL    HW114687   1.939   4.982   5.075
 4669SOL    HW214688   1.949   5.129   5.041
 4670SOL     OW14689   2.586   4.355   4.782
 4670SOL    HW114690   2.661   4.340   4.724
 4670SOL    HW214691   2.558   4.444   4.761
 4671SOL     OW14692   3.597   4.683   5.576
 4671SOL    HW114693   3.550   4.622   5.519
 4671SOL    HW214694   3.537   4.697   5.650
 4672SOL     OW14695   2.168   3.787   4.349
 4672SOL    HW114696   2.147   3.878   4.371
 4672SOL    HW214697   2.173   3.742   4.433
 4673SOL     OW14698   3.479   4.099   4.091
 4673SOL    HW114699   3.505   4.034   4.157
 4673SOL    HW214700   3.456   4.177   4.141
 4674SOL     OW14701   2.890   4.483   4.685
 4674SOL    HW114702   2.886   4.501   4.779
 4674SOL    HW214703   2.863   4.392   4.676
 4675SOL     OW14704   3.716   5.214   5.309
 4675SOL    HW114705   3.711   5.289   5.250
 4675SOL    HW214706   3.785   5.236   5.371
 4676SOL     OW14707   2.215   4.640   5.533
 4676SOL    HW114708   2.297   4.659   5.578
 4676SOL    HW214709   2.240   4.578   5.464
 4677SOL     OW14710   3.392   4.000   3.851
 4677SOL    HW114711   3.328   3.933   3.876
 4677SOL    HW214712   3.425   4.034   3.934
 4678SOL     OW14713   3.154   4.550   3.755
 4678SOL    HW114714   3.197   4.465   3.759
 4678SOL    HW214715   3.185   4.589   3.674
 4679SOL     OW14716   2.920   5.079   4.550
 4679SOL    HW114717   2.925   4.994   4.507
 4679SOL    HW214718   3.006   5.118   4.537
 4680SOL     OW14719   2.171   4.533   4.672
 4680SOL    HW114720   2.264   4.554   4.664
 4680SOL    HW214721   2.169   4.443   4.704
 4681SOL     OW14722   2.193   4.249   4.737
 4681SOL    HW114723   2.158   4.162   4.721
 4681SOL    HW214724   2.270   4.255   4.679
 4682SOL     OW14725   2.996   4.098   5.406
 4682SOL    HW114726   2.948   4.154   5.468
 4682SOL    HW214727   3.084   4.137   5.402
 4683SOL     OW14728   3.024   3.926   5.193
 4683SOL    HW114729   3.012   3.987   5.266
 4683SOL    HW214730   3.063   3.979   5.123
 4684SOL     OW14731   1.868   5.041   3.915
 4684SOL    HW114732   1.778   5.058   3.888
 4684SOL    HW214733   1.866   4.953   3.952
 4685SOL     OW14734   2.845   4.515   4.950
 4685SOL    HW114735   2.901   4.493   5.025
 4685SOL    HW214736   2.759   4.480   4.974
 4686SOL     OW14737   1.898   4.268   4.841
 4686SOL    HW114738   1.979   4.256   4.791
 4686SOL    HW214739   1.926   4.272   4.932
 4687SOL     OW14740   2.053   4.243   5.451
 4687SOL    HW114741   2.110   4.206   5.384
 4687SOL    HW214742   2.010   4.317   5.408
 4688SOL     OW14743   3.239   4.663   5.382
 4688SOL    HW114744   3.259   4.756   5.380
 4688SOL    HW214745   3.236   4.637   5.290
 4689SOL     OW14746   2.678   4.293   4.084
 4689SOL    HW114747   2.681   4.219   4.024
 4689SOL    HW214748   2.604   4.346   4.053
 4690SOL     OW14749   3.504   4.325   4.910
 4690SOL    HW114750   3.494   4.267   4.985
 4690SOL    HW214751   3.591   4.305   4.875
 4691SOL     OW14752   2.068   5.277   5.469
 4691SOL    HW114753   2.054   0.029   5.548
 4691SOL    HW214754   2.080   5.188   5.502
 4692SOL     OW14755   2.563   4.174   4.983
 4692SOL    HW114756   2.510   4.101   4.953
 4692SOL    HW214757   2.559   4.238   4.912
 4693SOL     OW14758   2.327   4.216   3.912
 4693SOL    HW114759   2.385   4.289   3.933
 4693SOL    HW214760   2.241   4.257   3.899
 4694SOL     OW14761   2.007   4.863   5.195
 4694SOL    HW114762   2.009   4.812   5.276
 4694SOL    HW214763   2.025   4.799   5.126
 4695SOL     OW14764   3.189   4.769   4.947
 4695SOL    HW114765   3.212   4.707   4.878
 4695SOL    HW214766   3.118   4.821   4.909
 4696SOL     OW14767   3.172   4.581   4.030
 4696SOL    HW114768   3.097   4.550   4.080
 4696SOL    HW214769   3.149   4.567   3.939
 4697SOL     OW14770   1.955   4.987   4.745
 4697SOL    HW114771   1.934   5.004   4.837
 4697SOL    HW214772   1.876   4.948   4.709
 4698SOL     OW14773   2.614   0.038   5.433
 4698SOL    HW114774   2.522   0.060   5.445
 4698SOL    HW214775   2.633   0.063   5.343
 4699SOL     OW14776   3.581   3.869   4.233
 4699SOL    HW114777   3.654   3.856   4.172
 4699SOL    HW214778   3.568   3.783   4.273
 4700SOL     OW14779   3.139   4.649   4.395
 4700SOL    HW114780   3.212   4.588   4.403
 4700SOL    HW214781   3.173   4.721   4.342
 4701SOL     OW14782   2.681   4.993   5.145
 4701SOL    HW114783   2.651   5.029   5.229
 4701SOL    HW214784   2.606   5.004   5.087
 4702SOL     OW14785   3.703   3.897   4.692
 4702SOL    HW114786   3.732   3.810   4.664
 4702SOL    HW214787   3.617   3.908   4.650
 4703SOL     OW14788   2.124   4.039   4.441
 4703SOL    HW114789   2.039   4.075   4.416
 4703SOL    HW214790   2.120   4.032   4.536
 4704SOL     OW14791   2.687   4.728   5.094
 4704SOL    HW114792   2.733   4.722   5.010
 4704SOL    HW214793   2.690   4.821   5.117
 4705SOL     OW14794   2.778   4.636   4.015
 4705SOL    HW114795   2.839   4.668   3.948
 4705SOL    HW214796   2.826   4.565   4.059
 4706SOL     OW14797   2.227   5.025   5.220
 4706SOL    HW114798   2.216   5.100   5.161
 4706SOL    HW214799   2.152   4.970   5.203
 4707SOL     OW14800   3.474   5.004   5.006
 4707SOL    HW114801   3.532   4.998   5.082
 4707SOL    HW214802   3.412   5.073   5.028
 4708SOL     OW14803   2.916   4.833   4.435
 4708SOL    HW114804   2.844   4.782   4.471
 4708SOL    HW214805   2.977   4.768   4.402
 4709SOL     OW14806   2.882   3.968   4.688
 4709SOL    HW114807   2.877   3.921   4.605
 4709SOL    HW214808   2.870   3.900   4.755
 4710SOL     OW14809   3.583   4.116   5.105
 4710SOL    HW114810   3.655   4.179   5.104
 4710SOL    HW214811   3.613   4.045   5.048
 4711SOL     OW14812   2.120   5.052   4.006
 4711SOL    HW114813   2.028   5.054   3.980
 4711SOL    HW214814   2.121   5.095   4.092
 4712SOL     OW14815   1.974   4.745   5.442
 4712SOL    HW114816   1.898   4.722   5.496
 4712SOL    HW214817   2.049   4.708   5.490
 4713SOL     OW14818   2.535   3.922   5.224
 4713SOL    HW114819   2.619   3.902   5.183
 4713SOL    HW214820   2.558   3.953   5.312
 4714SOL     OW14821   1.940   4.059   3.760
 4714SOL    HW114822   1.854   4.037   3.724
 4714SOL    HW214823   1.970   4.133   3.708
 4715SOL     OW14824   3.292   4.581   5.124
 4715SOL    HW114825   3.243   4.642   5.068
 4715SOL    HW214826   3.381   4.584   5.090
 4716SOL     OW14827   1.930   3.881   4.034
 4716SOL    HW114828   1.916   3.961   3.982
 4716SOL    HW214829   2.013   3.846   4.003
 4717SOL     OW14830   3.044   5.064   3.844
 4717SOL    HW114831   2.953   5.035   3.845
 4717SOL    HW214832   3.072   5.056   3.936
 4718SOL     OW14833   2.481   4.554   5.157
 4718SOL    HW114834   2.537   4.630   5.142
 4718SOL    HW214835   2.542   4.481   5.166
 4719SOL     OW14836   2.580   4.288   5.428
 4719SOL    HW114837   2.619   4.352   5.488
 4719SOL    HW214838   2.608   4.203   5.461
 4720SOL     OW14839   3.335   4.923   5.355
 4720SOL    HW114840   3.322   4.936   5.449
 4720SOL    HW214841   3.429   4.937   5.342
 4721SOL     OW14842   3.532   4.605   4.979
 4721SOL    HW114843   3.525   4.520   4.935
 4721SOL    HW214844   3.522   4.669   4.908
 4722SOL     OW14845   3.078   4.044   4.182
 4722SOL    HW114846   3.144   3.975   4.171
 4722SOL    HW214847   3.107   4.093   4.259
 4723SOL     OW14848   2.452   4.462   4.394
 4723SOL    HW114849   2.491   4.548   4.379
 4723SOL    HW214850   2.384   4.454   4.327
 4724SOL     OW14851   3.625   4.085   5.374
 4724SOL    HW114852   3.608   4.101   5.282
 4724SOL    HW214853   3.553   4.029   5.403
 4725SOL     OW14854   3.606   4.657   5.236
 4725SOL    HW114855   3.603   4.752   5.249
 4725SOL    HW214856   3.591   4.646   5.142
 4726SOL     OW14857   2.711   5.095   3.744
 4726SOL    HW114858   2.692   5.095   3.837
 4726SOL    HW214859   2.727   5.186   3.721
 4727SOL     OW14860   2.730   4.691   4.579
 4727SOL    HW114861   2.779   4.620   4.619
 4727SOL    HW214862   2.695   4.741   4.654
 4728SOL     OW14863   2.942   4.713   3.814
 4728SOL    HW114864   2.919   4.763   3.735
 4728SOL    HW214865   3.016   4.659   3.787
 4729SOL     OW14866   2.085   5.024   5.577
 4729SOL    HW114867   2.017   4.962   5.552
 4729SOL    HW214868   2.074   5.035   5.671
 4730SOL     OW14869   1.948   4.956   4.394
 4730SOL    HW114870   1.947   4.903   4.474
 4730SOL    HW214871   2.011   4.912   4.337
 4731SOL     OW14872   2.532   5.107   5.332
 4731SOL    HW114873   2.457   5.073   5.380
 4731SOL    HW214874   2.564   5.180   5.385
 4732SOL     OW14875   3.671   3.907   4.962
 4732SOL    HW114876   3.689   3.814   4.977
 4732SOL    HW214877   3.683   3.919   4.867
 4733SOL     OW14878   2.292   4.157   4.250
 4733SOL    HW114879   2.321   4.087   4.192
 4733SOL    HW214880   2.243   4.113   4.319
 4734SOL     OW14881   3.569   5.224   4.843
 4734SOL    HW114882   3.495   5.207   4.784
 4734SOL    HW214883   3.576   5.144   4.896
 4735SOL     OW14884   2.192   4.279   5.015
 4735SOL    HW114885   2.247   4.224   5.070
 4735SOL    HW214886   2.211   4.251   4.926
 4736SOL     OW14887   3.290   3.946   4.841
 4736SOL    HW114888   3.329   3.874   4.892
 4736SOL    HW214889   3.241   3.997   4.906
 4737SOL     OW14890   2.861   3.750   4.868
 4737SOL    HW114891   2.815   3.682   4.820
 4737SOL    HW214892   2.950   3.717   4.879
 4738SOL     OW14893   2.665   5.047   4.008
 4738SOL    HW114894   2.604   4.976   4.027
 4738SOL    HW214895   2.720   5.053   4.086
 4739SOL     OW14896   2.484   5.299   5.015
 4739SOL    HW114897   2.491   0.054   5.093
 4739SOL    HW214898   2.574   5.280   4.991
 4740SOL     OW14899   3.221   3.780   3.889
 4740SOL    HW114900   3.254   3.715   3.827
 4740SOL    HW214901   3.136   3.746   3.916
 4741SOL     OW14902   3.158   4.185   4.405
 4741SOL    HW114903   3.105   4.265   4.412
 4741SOL    HW214904   3.155   4.146   4.492
 4742SOL     OW14905   3.449   3.926   4.602
 4742SOL    HW114906   3.385   3.946   4.670
 4742SOL    HW214907   3.449   4.003   4.546
 4743SOL     OW14908   1.904   4.795   4.031
 4743SOL    HW114909   1.998   4.788   4.014
 4743SOL    HW214910   1.877   4.705   4.053
 4744SOL     OW14911   2.091   4.347   5.709
 4744SOL    HW114912   2.002   4.347   5.743
 4744SOL    HW214913   2.082   4.322   5.617
 4745SOL     OW14914   2.087   4.005   6.578
 4745SOL    HW114915   2.115   3.971   6.662
 4745SOL    HW214916   1.997   3.973   6.568
 4746SOL     OW14917   1.866   4.107   6.224
 4746SOL    HW114918   1.783   4.132   6.265
 4746SOL    HW214919   1.845   4.027   6.175
 4747SOL     OW14920   2.428   5.005   6.765
 4747SOL    HW114921   2.343   5.003   6.721
 4747SOL    HW214922   2.439   5.097   6.791
 4748SOL     OW14923   3.417   5.232   6.275
 4748SOL    HW114924   3.397   5.229   6.368
 4748SOL    HW214925   3.338   5.268   6.234
 4749SOL     OW14926   2.992   4.422   6.287
 4749SOL    HW114927   3.041   4.503   6.273
 4749SOL    HW214928   2.945   4.436   6.369
 4750SOL     OW14929   3.629   4.329   5.815
 4750SOL    HW114930   3.608   4.321   5.722
 4750SOL    HW214931   3.593   4.250   5.854
 4751SOL     OW14932   2.618   4.868   6.624
 4751SOL    HW114933   2.551   4.900   6.684
 4751SOL    HW214934   2.648   4.947   6.578
 4752SOL     OW14935   2.728   4.501   7.406
 4752SOL    HW114936   2.712   4.575   7.464
 4752SOL    HW214937   2.753   4.540   7.323
 4753SOL     OW14938   2.548   4.727   6.234
 4753SOL    HW114939   2.613   4.716   6.304
 4753SOL    HW214940   2.479   4.779   6.274
 4754SOL     OW14941   2.570   4.873   7.397
 4754SOL    HW114942   2.619   4.952   7.421
 4754SOL    HW214943   2.487   4.905   7.362
 4755SOL     OW14944   2.199   5.151   6.646
 4755SOL    HW114945   2.122   5.107   6.611
 4755SOL    HW214946   2.238   5.194   6.570
 4756SOL     OW14947   3.317   5.221   6.933
 4756SOL    HW114948   3.371   5.293   6.965
 4756SOL    HW214949   3.250   5.209   7.001
 4757SOL     OW14950   2.311   4.123   7.074
 4757SOL    HW114951   2.386   4.063   7.079
 4757SOL    HW214952   2.235   4.066   7.087
 4758SOL     OW14953   3.474   4.172   6.326
 4758SOL    HW114954   3.399   4.195   6.272
 4758SOL    HW214955   3.490   4.249   6.380
 4759SOL     OW14956   2.995   5.072   7.285
 4759SOL    HW114957   3.027   5.071   7.375
 4759SOL    HW214958   2.941   4.993   7.279
 4760SOL     OW14959   2.072   5.155   6.106
 4760SOL    HW114960   2.098   5.238   6.148
 4760SOL    HW214961   2.020   5.110   6.173
 4761SOL     OW14962   2.120   4.811   6.478
 4761SOL    HW114963   2.117   4.724   6.517
 4761SOL    HW214964   2.062   4.864   6.533
 4762SOL     OW14965   2.447   4.705   5.720
 4762SOL    HW114966   2.494   4.754   5.652
 4762SOL    HW214967   2.487   4.735   5.802
 4763SOL     OW14968   3.458   3.847   7.054
 4763SOL    HW114969   3.464   3.928   7.003
 4763SOL    HW214970   3.444   3.876   7.144
 4764SOL     OW14971   1.977   4.376   6.145
 4764SOL    HW114972   1.948   4.288   6.166
 4764SOL    HW214973   1.969   4.425   6.228
 4765SOL     OW14974   1.848   0.013   5.684
 4765SOL    HW114975   1.864   5.224   5.715
 4765SOL    HW214976   1.870   0.069   5.759
 4766SOL     OW14977   3.550   4.642   6.226
 4766SOL    HW114978   3.634   4.600   6.206
 4766SOL    HW214979   3.529   4.693   6.148
 4767SOL     OW14980   3.508   4.831   6.015
 4767SOL    HW114981   3.593   4.836   5.973
 4767SOL    HW214982   3.514   4.892   6.089
 4768SOL     OW14983   1.985   4.466   7.172
 4768SOL    HW114984   2.077   4.492   7.180
 4768SOL    HW214985   1.936   4.548   7.180
 4769SOL     OW14986   2.484   5.097   6.323
 4769SOL    HW114987   2.430   5.019   6.321
 4769SOL    HW214988   2.465   5.141   6.240
 4770SOL     OW14989   3.151   4.954   7.012
 4770SOL    HW114990   3.186   4.889   6.951
 4770SOL    HW214991   3.210   4.952   7.086
 4771SOL     OW14992   2.676   3.724   6.091
 4771SOL    HW114993   2.717   3.808   6.074
 4771SOL    HW214994   2.583   3.743   6.102
 4772SOL     OW14995   2.053   4.690   6.856
 4772SOL    HW114996   2.137   4.647   6.841
 4772SOL    HW214997   1.989   4.635   6.809
 4773SOL     OW14998   3.393   4.719   5.783
 4773SOL    HW114999   3.323   4.661   5.815
 4773SOL    HW215000   3.434   4.753   5.863
 4774SOL     OW15001   2.194   3.973   7.398
 4774SOL    HW115002   2.239   4.056   7.412
 4774SOL    HW215003   2.105   3.989   7.429
 4775SOL     OW15004   3.338   5.147   6.548
 4775SOL    HW115005   3.266   5.159   6.609
 4775SOL    HW215006   3.326   5.058   6.514
 4776SOL     OW15007   2.458   4.445   5.852
 4776SOL    HW115008   2.464   4.526   5.802
 4776SOL    HW215009   2.393   4.464   5.920
 4777SOL     OW15010   3.141   4.076   6.518
 4777SOL    HW115011   3.052   4.043   6.527
 4777SOL    HW215012   3.192   4.023   6.580
 4778SOL     OW15013   2.653   4.342   7.037
 4778SOL    HW115014   2.628   4.318   7.126
 4778SOL    HW215015   2.614   4.275   6.982
 4779SOL     OW15016   3.256   4.198   7.263
 4779SOL    HW115017   3.258   4.242   7.348
 4779SOL    HW215018   3.316   4.124   7.273
 4780SOL     OW15019   2.817   4.612   7.168
 4780SOL    HW115020   2.872   4.542   7.133
 4780SOL    HW215021   2.769   4.645   7.092
 4781SOL     OW15022   2.855   4.137   6.824
 4781SOL    HW115023   2.769   4.158   6.862
 4781SOL    HW215024   2.834   4.090   6.744
 4782SOL     OW15025   2.913   4.422   6.012
 4782SOL    HW115026   2.929   4.416   6.106
 4782SOL    HW215027   2.830   4.376   5.998
 4783SOL     OW15028   1.950   4.545   6.362
 4783SOL    HW115029   2.031   4.538   6.413
 4783SOL    HW215030   1.907   4.622   6.397
 4784SOL     OW15031   2.754   4.072   5.780
 4784SOL    HW115032   2.795   4.135   5.720
 4784SOL    HW215033   2.773   3.986   5.742
 4785SOL     OW15034   3.571   4.300   7.415
 4785SOL    HW115035   3.533   4.373   7.368
 4785SOL    HW215036   3.598   4.238   7.347
 4786SOL     OW15037   3.239   4.864   6.125
 4786SOL    HW115038   3.320   4.851   6.077
 4786SOL    HW215039   3.189   4.925   6.072
 4787SOL     OW15040   2.412   3.907   6.479
 4787SOL    HW115041   2.414   3.934   6.570
 4787SOL    HW215042   2.413   3.988   6.429
 4788SOL     OW15043   2.884   5.171   6.056
 4788SOL    HW115044   2.806   5.225   6.051
 4788SOL    HW215045   2.899   5.160   6.150
 4789SOL     OW15046   3.662   4.781   6.452
 4789SOL    HW115047   3.605   4.764   6.377
 4789SOL    HW215048   3.602   4.788   6.527
 4790SOL     OW15049   3.113   5.239   7.110
 4790SOL    HW115050   3.076   5.173   7.168
 4790SOL    HW215051   3.041   5.261   7.050
 4791SOL     OW15052   2.182   4.680   5.836
 4791SOL    HW115053   2.265   4.700   5.791
 4791SOL    HW215054   2.152   4.599   5.796
 4792SOL     OW15055   3.340   4.466   6.313
 4792SOL    HW115056   3.332   4.423   6.398
 4792SOL    HW215057   3.417   4.521   6.322
 4793SOL     OW15058   2.325   4.987   7.328
 4793SOL    HW115059   2.299   4.990   7.236
 4793SOL    HW215060   2.243   4.986   7.377
 4794SOL     OW15061   2.933   0.181   5.792
 4794SOL    HW115062   2.939   0.105   5.851
 4794SOL    HW215063   2.964   0.148   5.708
 4795SOL     OW15064   2.063   4.005   7.087
 4795SOL    HW115065   1.980   4.053   7.082
 4795SOL    HW215066   2.045   3.933   7.148
 4796SOL     OW15067   3.485   5.100   5.693
 4796SOL    HW115068   3.482   5.177   5.637
 4796SOL    HW215069   3.416   5.043   5.659
 4797SOL     OW15070   3.263   3.831   6.019
 4797SOL    HW115071   3.254   3.807   5.927
 4797SOL    HW215072   3.358   3.839   6.032
 4798SOL     OW15073   2.255   4.419   6.062
 4798SOL    HW115074   2.275   4.327   6.074
 4798SOL    HW215075   2.161   4.425   6.080
 4799SOL     OW15076   3.397   3.949   7.311
 4799SOL    HW115077   3.406   3.970   7.404
 4799SOL    HW215078   3.329   3.882   7.309
 4800SOL     OW15079   2.495   3.846   5.692
 4800SOL    HW115080   2.567   3.784   5.704
 4800SOL    HW215081   2.447   3.814   5.616
 4801SOL     OW15082   2.627   4.000   7.339
 4801SOL    HW115083   2.704   3.943   7.341
 4801SOL    HW215084   2.584   3.985   7.423
 4802SOL     OW15085   3.202   4.313   7.018
 4802SOL    HW115086   3.233   4.281   7.103
 4802SOL    HW215087   3.239   4.401   7.010
 4803SOL     OW15088   2.674   5.120   6.521
 4803SOL    HW115089   2.755   5.106   6.471
 4803SOL    HW215090   2.606   5.126   6.455
 4804SOL     OW15091   2.790   4.233   6.489
 4804SOL    HW115092   2.766   4.225   6.397
 4804SOL    HW215093   2.821   4.146   6.514
 4805SOL     OW15094   2.410   3.787   6.088
 4805SOL    HW115095   2.331   3.788   6.141
 4805SOL    HW215096   2.404   3.866   6.034
 4806SOL     OW15097   3.289   4.924   5.624
 4806SOL    HW115098   3.320   4.848   5.675
 4806SOL    HW215099   3.202   4.941   5.658
 4807SOL     OW15100   2.154   3.771   5.770
 4807SOL    HW115101   2.213   3.837   5.733
 4807SOL    HW215102   2.212   3.708   5.813
 4808SOL     OW15103   2.800   3.970   6.046
 4808SOL    HW115104   2.773   4.012   5.965
 4808SOL    HW215105   2.895   3.984   6.051
 4809SOL     OW15106   2.942   4.405   7.045
 4809SOL    HW115107   2.873   4.338   7.051
 4809SOL    HW215108   3.023   4.355   7.039
 4810SOL     OW15109   3.126   5.267   6.365
 4810SOL    HW115110   3.084   0.048   6.337
 4810SOL    HW215111   3.170   5.289   6.447
 4811SOL     OW15112   2.328   4.872   6.317
 4811SOL    HW115113   2.259   4.852   6.381
 4811SOL    HW215114   2.287   4.854   6.232
 4812SOL     OW15115   2.885   4.266   5.608
 4812SOL    HW115116   2.843   4.349   5.588
 4812SOL    HW215117   2.951   4.287   5.674
 4813SOL     OW15118   1.941   4.279   6.978
 4813SOL    HW115119   2.033   4.277   6.951
 4813SOL    HW215120   1.936   4.349   7.043
 4814SOL     OW15121   2.421   3.951   6.751
 4814SOL    HW115122   2.463   3.874   6.791
 4814SOL    HW215123   2.331   3.947   6.782
 4815SOL     OW15124   2.729   4.183   6.226
 4815SOL    HW115125   2.684   4.238   6.162
 4815SOL    HW215126   2.750   4.102   6.178
 4816SOL     OW15127   2.879   3.777   6.337
 4816SOL    HW115128   2.819   3.770   6.262
 4816SOL    HW215129   2.856   3.702   6.392
 4817SOL     OW15130   3.299   4.890   6.445
 4817SOL    HW115131   3.233   4.821   6.441
 4817SOL    HW215132   3.325   4.903   6.354
 4818SOL     OW15133   3.328   4.329   6.563
 4818SOL    HW115134   3.278   4.248   6.567
 4818SOL    HW215135   3.388   4.323   6.638
 4819SOL     OW15136   3.708   4.540   5.969
 4819SOL    HW115137   3.764   4.489   6.027
 4819SOL    HW215138   3.679   4.477   5.902
 4820SOL     OW15139   2.343   5.147   5.740
 4820SOL    HW115140   2.281   5.095   5.791
 4820SOL    HW215141   2.344   5.104   5.654
 4821SOL     OW15142   3.531   4.987   6.233
 4821SOL    HW115143   3.625   4.993   6.250
 4821SOL    HW215144   3.497   5.075   6.249
 4822SOL     OW15145   3.256   4.296   5.657
 4822SOL    HW115146   3.195   4.276   5.729
 4822SOL    HW215147   3.341   4.265   5.688
 4823SOL     OW15148   2.387   3.987   5.905
 4823SOL    HW115149   2.431   3.939   5.834
 4823SOL    HW215150   2.365   4.072   5.866
 4824SOL     OW15151   3.613   4.959   7.161
 4824SOL    HW115152   3.699   4.918   7.161
 4824SOL    HW215153   3.631   5.052   7.175
 4825SOL     OW15154   2.927   5.074   6.916
 4825SOL    HW115155   2.848   5.049   6.965
 4825SOL    HW215156   2.999   5.035   6.965
 4826SOL     OW15157   2.988   4.925   6.693
 4826SOL    HW115158   2.938   4.967   6.764
 4826SOL    HW215159   2.943   4.952   6.613
 4827SOL     OW15160   3.491   4.822   6.663
 4827SOL    HW115161   3.486   4.884   6.736
 4827SOL    HW215162   3.412   4.841   6.611
 4828SOL     OW15163   2.780   3.822   6.982
 4828SOL    HW115164   2.803   3.802   6.891
 4828SOL    HW215165   2.859   3.860   7.019
 4829SOL     OW15166   2.846   4.838   7.313
 4829SOL    HW115167   2.754   4.855   7.329
 4829SOL    HW215168   2.847   4.762   7.255
 4830SOL     OW15169   2.566   4.782   5.958
 4830SOL    HW115170   2.554   4.767   6.051
 4830SOL    HW215171   2.644   4.731   5.935
 4831SOL     OW15172   2.281   4.539   6.837
 4831SOL    HW115173   2.349   4.548   6.904
 4831SOL    HW215174   2.246   4.451   6.851
 4832SOL     OW15175   3.128   4.101   6.861
 4832SOL    HW115176   3.160   4.179   6.907
 4832SOL    HW215177   3.037   4.123   6.838
 4833SOL     OW15178   2.209   4.832   6.075
 4833SOL    HW115179   2.212   4.905   6.013
 4833SOL    HW215180   2.209   4.754   6.020
 4834SOL     OW15181   2.415   4.261   6.446
 4834SOL    HW115182   2.430   4.319   6.372
 4834SOL    HW215183   2.480   4.287   6.511
 4835SOL     OW15184   3.121   5.077   5.972
 4835SOL    HW115185   3.178   5.144   6.010
 4835SOL    HW215186   3.033   5.100   6.001
 4836SOL     OW15187   3.131   5.181   6.728
 4836SOL    HW115188   3.191   5.196   6.801
 4836SOL    HW215189   3.087   5.099   6.748
 4837SOL     OW15190   3.443   4.347   6.064
 4837SOL    HW115191   3.397   4.401   6.129
 4837SOL    HW215192   3.489   4.410   6.009
 4838SOL     OW15193   2.210   5.236   6.901
 4838SOL    HW115194   2.199   5.201   6.812
 4838SOL    HW215195   2.303   5.257   6.907
 4839SOL     OW15196   2.276   4.469   7.188
 4839SOL    HW115197   2.338   4.513   7.130
 4839SOL    HW215198   2.315   4.383   7.203
 4840SOL     OW15199   3.463   4.503   7.268
 4840SOL    HW115200   3.377   4.544   7.261
 4840SOL    HW215201   3.515   4.544   7.200
 4841SOL     OW15202   2.858   3.847   7.340
 4841SOL    HW115203   2.914   3.919   7.312
 4841SOL    HW215204   2.906   3.768   7.316
 4842SOL     OW15205   2.360   3.765   7.333
 4842SOL    HW115206   2.318   3.710   7.267
 4842SOL    HW215207   2.301   3.839   7.345
 4843SOL     OW15208   2.445   4.596   6.617
 4843SOL    HW115209   2.475   4.687   6.616
 4843SOL    HW215210   2.389   4.591   6.694
 4844SOL     OW15211   3.220   4.582   6.614
 4844SOL    HW115212   3.136   4.572   6.569
 4844SOL    HW215213   3.260   4.496   6.610
 4845SOL     OW15214   3.067   4.252   5.853
 4845SOL    HW115215   3.075   4.174   5.908
 4845SOL    HW215216   3.024   4.317   5.909
 4846SOL     OW15217   2.161   3.922   6.832
 4846SOL    HW115218   2.124   3.955   6.915
 4846SOL    HW215219   2.142   3.829   6.833
 4847SOL     OW15220   1.914   5.046   6.870
 4847SOL    HW115221   1.939   4.982   6.937
 4847SOL    HW215222   1.950   5.129   6.903
 4848SOL     OW15223   2.586   4.355   6.644
 4848SOL    HW115224   2.661   4.339   6.586
 4848SOL    HW215225   2.558   4.444   6.622
 4849SOL     OW15226   3.597   4.684   7.438
 4849SOL    HW115227   3.550   4.622   7.382
 4849SOL    HW215228   3.539   4.698   7.513
 4850SOL     OW15229   2.165   3.788   6.209
 4850SOL    HW115230   2.145   3.879   6.233
 4850SOL    HW215231   2.173   3.743   6.293
 4851SOL     OW15232   3.478   4.098   5.953
 4851SOL    HW115233   3.505   4.034   6.019
 4851SOL    HW215234   3.455   4.176   6.003
 4852SOL     OW15235   2.890   4.483   6.547
 4852SOL    HW115236   2.886   4.501   6.641
 4852SOL    HW215237   2.863   4.391   6.539
 4853SOL     OW15238   3.716   5.213   7.170
 4853SOL    HW115239   3.710   5.289   7.111
 4853SOL    HW215240   3.786   5.236   7.231
 4854SOL     OW15241   2.216   4.639   7.395
 4854SOL    HW115242   2.298   4.658   7.440
 4854SOL    HW215243   2.239   4.577   7.326
 4855SOL     OW15244   3.392   3.997   5.713
 4855SOL    HW115245   3.326   3.932   5.740
 4855SOL    HW215246   3.425   4.033   5.795
 4856SOL     OW15247   3.154   4.550   5.617
 4856SOL    HW115248   3.197   4.465   5.620
 4856SOL    HW215249   3.185   4.589   5.535
 4857SOL     OW15250   2.920   5.079   6.412
 4857SOL    HW115251   2.925   4.993   6.369
 4857SOL    HW215252   3.006   5.118   6.399
 4858SOL     OW15253   2.171   4.533   6.533
 4858SOL    HW115254   2.264   4.554   6.527
 4858SOL    HW215255   2.169   4.443   6.566
 4859SOL     OW15256   2.193   4.250   6.598
 4859SOL    HW115257   2.158   4.162   6.583
 4859SOL    HW215258   2.270   4.255   6.541
 4860SOL     OW15259   2.997   4.100   7.267
 4860SOL    HW115260   2.949   4.155   7.329
 4860SOL    HW215261   3.084   4.138   7.263
 4861SOL     OW15262   3.023   3.927   7.055
 4861SOL    HW115263   3.012   3.989   7.127
 4861SOL    HW215264   3.062   3.978   6.985
 4862SOL     OW15265   1.868   5.041   5.776
 4862SOL    HW115266   1.778   5.058   5.750
 4862SOL    HW215267   1.866   4.953   5.814
 4863SOL     OW15268   2.845   4.516   6.813
 4863SOL    HW115269   2.901   4.493   6.887
 4863SOL    HW215270   2.760   4.478   6.835
 4864SOL     OW15271   1.898   4.269   6.702
 4864SOL    HW115272   1.978   4.254   6.653
 4864SOL    HW215273   1.926   4.272   6.794
 4865SOL     OW15274   2.054   4.243   7.314
 4865SOL    HW115275   2.109   4.203   7.246
 4865SOL    HW215276   2.011   4.316   7.269
 4866SOL     OW15277   3.238   4.663   7.245
 4866SOL    HW115278   3.259   4.756   7.242
 4866SOL    HW215279   3.235   4.637   7.153
 4867SOL     OW15280   2.678   4.293   5.946
 4867SOL    HW115281   2.681   4.219   5.885
 4867SOL    HW215282   2.604   4.346   5.915
 4868SOL     OW15283   3.504   4.325   6.772
 4868SOL    HW115284   3.494   4.266   6.847
 4868SOL    HW215285   3.591   4.305   6.738
 4869SOL     OW15286   2.069   5.276   7.329
 4869SOL    HW115287   2.039   0.026   7.405
 4869SOL    HW215288   2.082   5.187   7.363
 4870SOL     OW15289   2.563   4.175   6.846
 4870SOL    HW115290   2.510   4.101   6.816
 4870SOL    HW215291   2.559   4.237   6.773
 4871SOL     OW15292   2.327   4.216   5.773
 4871SOL    HW115293   2.385   4.289   5.795
 4871SOL    HW215294   2.241   4.257   5.760
 4872SOL     OW15295   2.007   4.863   7.057
 4872SOL    HW115296   2.009   4.811   7.138
 4872SOL    HW215297   2.025   4.799   6.987
 4873SOL     OW15298   3.189   4.769   6.808
 4873SOL    HW115299   3.212   4.707   6.740
 4873SOL    HW215300   3.118   4.821   6.771
 4874SOL     OW15301   3.173   4.581   5.892
 4874SOL    HW115302   3.097   4.550   5.942
 4874SOL    HW215303   3.148   4.567   5.801
 4875SOL     OW15304   1.955   4.987   6.607
 4875SOL    HW115305   1.934   5.004   6.699
 4875SOL    HW215306   1.876   4.948   6.571
 4876SOL     OW15307   2.614   0.036   7.296
 4876SOL    HW115308   2.522   0.060   7.307
 4876SOL    HW215309   2.635   0.063   7.207
 4877SOL     OW15310   3.580   3.870   6.095
 4877SOL    HW115311   3.654   3.856   6.035
 4877SOL    HW215312   3.565   3.785   6.136
 4878SOL     OW15313   3.139   4.649   6.257
 4878SOL    HW115314   3.212   4.588   6.265
 4878SOL    HW215315   3.173   4.721   6.204
 4879SOL     OW15316   2.681   4.993   7.007
 4879SOL    HW115317   2.651   5.029   7.091
 4879SOL    HW215318   2.606   5.004   6.949
 4880SOL     OW15319   3.703   3.897   6.553
 4880SOL    HW115320   3.731   3.810   6.526
 4880SOL    HW215321   3.616   3.907   6.513
 4881SOL     OW15322   2.124   4.040   6.303
 4881SOL    HW115323   2.038   4.076   6.279
 4881SOL    HW215324   2.121   4.032   6.398
 4882SOL     OW15325   2.686   4.728   6.957
 4882SOL    HW115326   2.733   4.721   6.873
 4882SOL    HW215327   2.690   4.821   6.979
 4883SOL     OW15328   2.778   4.635   5.876
 4883SOL    HW115329   2.839   4.667   5.810
 4883SOL    HW215330   2.826   4.565   5.921
 4884SOL     OW15331   2.227   5.026   7.083
 4884SOL    HW115332   2.216   5.100   7.023
 4884SOL    HW215333   2.152   4.969   7.065
 4885SOL     OW15334   3.474   5.004   6.868
 4885SOL    HW115335   3.531   4.997   6.945
 4885SOL    HW215336   3.412   5.073   6.890
 4886SOL     OW15337   2.916   4.833   6.297
 4886SOL    HW115338   2.844   4.782   6.334
 4886SOL    HW215339   2.977   4.768   6.264
 4887SOL     OW15340   2.883   3.964   6.552
 4887SOL    HW115341   2.879   3.916   6.469
 4887SOL    HW215342   2.878   3.896   6.619
 4888SOL     OW15343   3.584   4.116   6.967
 4888SOL    HW115344   3.656   4.179   6.965
 4888SOL    HW215345   3.613   4.045   6.910
 4889SOL     OW15346   2.120   5.053   5.868
 4889SOL    HW115347   2.028   5.054   5.842
 4889SOL    HW215348   2.121   5.095   5.954
 4890SOL     OW15349   1.975   4.746   7.305
 4890SOL    HW115350   1.898   4.723   7.357
 4890SOL    HW215351   2.049   4.708   7.352
 4891SOL     OW15352   2.536   3.921   7.085
 4891SOL    HW115353   2.620   3.900   7.044
 4891SOL    HW215354   2.559   3.950   7.173
 4892SOL     OW15355   1.941   4.057   5.620
 4892SOL    HW115356   1.853   4.039   5.588
 4892SOL    HW215357   1.970   4.132   5.569
 4893SOL     OW15358   3.292   4.582   6.987
 4893SOL    HW115359   3.243   4.643   6.931
 4893SOL    HW215360   3.381   4.584   6.953
 4894SOL     OW15361   1.930   3.880   5.896
 4894SOL    HW115362   1.916   3.960   5.846
 4894SOL    HW215363   2.015   3.848   5.866
 4895SOL     OW15364   3.044   5.063   5.706
 4895SOL    HW115365   2.953   5.035   5.707
 4895SOL    HW215366   3.072   5.056   5.798
 4896SOL     OW15367   2.481   4.555   7.019
 4896SOL    HW115368   2.538   4.630   7.004
 4896SOL    HW215369   2.541   4.481   7.028
 4897SOL     OW15370   2.580   4.287   7.291
 4897SOL    HW115371   2.620   4.349   7.352
 4897SOL    HW215372   2.608   4.201   7.322
 4898SOL     OW15373   3.335   4.923   7.218
 4898SOL    HW115374   3.322   4.936   7.312
 4898SOL    HW215375   3.429   4.937   7.205
 4899SOL     OW15376   3.532   4.605   6.841
 4899SOL    HW115377   3.525   4.520   6.798
 4899SOL    HW215378   3.522   4.669   6.770
 4900SOL     OW15379   3.079   4.043   6.044
 4900SOL    HW115380   3.142   3.972   6.036
 4900SOL    HW215381   3.107   4.092   6.121
 4901SOL     OW15382   2.452   4.462   6.255
 4901SOL    HW115383   2.491   4.548   6.240
 4901SOL    HW215384   2.384   4.454   6.188
 4902SOL     OW15385   3.624   4.086   7.237
 4902SOL    HW115386   3.607   4.101   7.144
 4902SOL    HW215387   3.552   4.029   7.265
 4903SOL     OW15388   3.607   4.657   7.098
 4903SOL    HW115389   3.602   4.752   7.111
 4903SOL    HW215390   3.591   4.645   7.004
 4904SOL     OW15391   2.712   5.094   5.605
 4904SOL    HW115392   2.692   5.095   5.699
 4904SOL    HW215393   2.727   5.186   5.583
 4905SOL     OW15394   2.730   4.691   6.441
 4905SOL    HW115395   2.779   4.620   6.481
 4905SOL    HW215396   2.695   4.741   6.516
 4906SOL     OW15397   2.942   4.713   5.676
 4906SOL    HW115398   2.919   4.763   5.597
 4906SOL    HW215399   3.016   4.659   5.649
 4907SOL     OW15400   2.084   5.024   7.442
 4907SOL    HW115401   2.018   4.961   7.412
 4907SOL    HW215402   2.064   5.037   7.534
 4908SOL     OW15403   1.948   4.956   6.256
 4908SOL    HW115404   1.947   4.903   6.336
 4908SOL    HW215405   2.012   4.912   6.199
 4909SOL     OW15406   2.532   5.106   7.194
 4909SOL    HW115407   2.456   5.073   7.242
 4909SOL    HW215408   2.563   5.180   7.247
 4910SOL     OW15409   3.675   3.909   6.824
 4910SOL    HW115410   3.685   3.815   6.838
 4910SOL    HW215411   3.684   3.919   6.729
 4911SOL     OW15412   2.291   4.158   6.112
 4911SOL    HW115413   2.321   4.087   6.055
 4911SOL    HW215414   2.243   4.114   6.182
 4912SOL     OW15415   3.569   5.224   6.705
 4912SOL    HW115416   3.495   5.207   6.646
 4912SOL    HW215417   3.575   5.144   6.758
 4913SOL     OW15418   2.192   4.279   6.878
 4913SOL    HW115419   2.247   4.224   6.933
 4913SOL    HW215420   2.211   4.251   6.788
 4914SOL     OW15421   3.294   3.949   6.704
 4914SOL    HW115422   3.319   3.869   6.750
 4914SOL    HW215423   3.242   3.999   6.767
 4915SOL     OW15424   2.871   3.743   6.729
 4915SOL    HW115425   2.816   3.674   6.691
 4915SOL    HW215426   2.959   3.705   6.731
 4916SOL     OW15427   2.665   5.047   5.870
 4916SOL    HW115428   2.604   4.976   5.889
 4916SOL    HW215429   2.719   5.053   5.949
 4917SOL     OW15430   2.484   5.299   6.877
 4917SOL    HW115431   2.491   0.054   6.955
 4917SOL    HW215432   2.574   5.279   6.853
 4918SOL     OW15433   3.214   3.778   5.751
 4918SOL    HW115434   3.242   3.714   5.686
 4918SOL    HW215435   3.127   3.748   5.778
 4919SOL     OW15436   3.158   4.184   6.267
 4919SOL    HW115437   3.105   4.264   6.274
 4919SOL    HW215438   3.154   4.145   6.354
 4920SOL     OW15439   3.448   3.926   6.464
 4920SOL    HW115440   3.388   3.946   6.535
 4920SOL    HW215441   3.448   4.004   6.409
 4921SOL     OW15442   1.904   4.795   5.893
 4921SOL    HW115443   1.998   4.788   5.876
 4921SOL    HW215444   1.877   4.705   5.915
 4922SOL     OW15445   2.091   4.344   7.572
 4922SOL    HW115446   2.000   4.350   7.602
 4922SOL    HW215447   2.083   4.320   7.479
 4923SOL     OW15448   3.629   4.322   7.679
 4923SOL    HW115449   3.609   4.318   7.586
 4923SOL    HW215450   3.588   4.244   7.717
 4924SOL     OW15451   2.139   0.126   7.957
 4924SOL    HW115452   2.114   0.211   7.992
 4924SOL    HW215453   2.145   0.139   7.863
 4925SOL     OW15454   2.079   5.156   7.990
 4925SOL    HW115455   2.092   5.251   7.997
 4925SOL    HW215456   2.021   5.134   8.063
 4926SOL     OW15457   2.447   4.705   7.579
 4926SOL    HW115458   2.493   4.755   7.511
 4926SOL    HW215459   2.486   4.736   7.661
 4927SOL     OW15460   1.861   0.010   7.538
 4927SOL    HW115461   1.865   5.221   7.574
 4927SOL    HW215462   1.861   0.067   7.615
 4928SOL     OW15463   3.544   4.591   8.034
 4928SOL    HW115464   3.625   4.602   0.006
 4928SOL    HW215465   3.533   4.675   7.990
 4929SOL     OW15466   3.518   4.825   7.876
 4929SOL    HW115467   3.606   4.844   7.844
 4929SOL    HW215468   3.498   4.896   7.937
 4930SOL     OW15469   2.664   3.719   7.940
 4930SOL    HW115470   2.713   3.799   7.923
 4930SOL    HW215471   2.573   3.746   7.948
 4931SOL     OW15472   3.394   4.720   7.648
 4931SOL    HW115473   3.328   4.660   7.681
 4931SOL    HW215474   3.438   4.754   7.726
 4932SOL     OW15475   2.453   4.448   7.708
 4932SOL    HW115476   2.457   4.530   7.659
 4932SOL    HW215477   2.393   4.467   7.780
 4933SOL     OW15478   1.922   4.587   0.090
 4933SOL    HW115479   1.987   4.522   0.118
 4933SOL    HW215480   1.917   4.649   0.162
 4934SOL     OW15481   2.744   4.071   7.638
 4934SOL    HW115482   2.789   4.131   7.578
 4934SOL    HW215483   2.776   3.984   7.613
 4935SOL     OW15484   2.185   4.680   7.697
 4935SOL    HW115485   2.265   4.697   7.648
 4935SOL    HW215486   2.149   4.601   7.657
 4936SOL     OW15487   2.952   0.190   7.646
 4936SOL    HW115488   2.924   0.125   7.711
 4936SOL    HW215489   2.953   0.142   7.563
 4937SOL     OW15490   3.489   5.099   7.550
 4937SOL    HW115491   3.473   5.180   7.501
 4937SOL    HW215492   3.419   5.041   7.521
 4938SOL     OW15493   3.277   3.855   7.864
 4938SOL    HW115494   3.265   3.820   7.775
 4938SOL    HW215495   3.372   3.853   7.877
 4939SOL     OW15496   2.253   4.422   7.918
 4939SOL    HW115497   2.258   4.327   7.926
 4939SOL    HW215498   2.162   4.443   7.938
 4940SOL     OW15499   2.491   3.844   7.559
 4940SOL    HW115500   2.565   3.785   7.570
 4940SOL    HW215501   2.447   3.813   7.480
 4941SOL     OW15502   2.394   3.797   7.959
 4941SOL    HW115503   2.309   3.801   8.002
 4941SOL    HW215504   2.393   3.869   7.895
 4942SOL     OW15505   3.290   4.925   7.488
 4942SOL    HW115506   3.320   4.850   7.539
 4942SOL    HW215507   3.202   4.943   7.521
 4943SOL     OW15508   2.155   3.773   7.633
 4943SOL    HW115509   2.214   3.834   7.587
 4943SOL    HW215510   2.212   3.708   7.672
 4944SOL     OW15511   2.806   3.950   7.910
 4944SOL    HW115512   2.762   4.015   7.854
 4944SOL    HW215513   2.897   3.980   7.914
 4945SOL     OW15514   2.303   4.874   0.099
 4945SOL    HW115515   2.227   4.909   0.146
 4945SOL    HW215516   2.271   4.860   0.010
 4946SOL     OW15517   2.888   4.266   7.467
 4946SOL    HW115518   2.842   4.349   7.450
 4946SOL    HW215519   2.948   4.286   7.538
 4947SOL     OW15520   3.733   4.540   7.802
 4947SOL    HW115521   3.730   4.511   7.893
 4947SOL    HW215522   3.693   4.469   7.752
 4948SOL     OW15523   2.335   5.151   7.601
 4948SOL    HW115524   2.278   5.098   7.656
 4948SOL    HW215525   2.341   5.102   7.519
 4949SOL     OW15526   3.256   4.296   7.519
 4949SOL    HW115527   3.195   4.276   7.590
 4949SOL    HW215528   3.340   4.262   7.550
 4950SOL     OW15529   2.388   3.990   7.770
 4950SOL    HW115530   2.431   3.940   7.702
 4950SOL    HW215531   2.365   4.073   7.729
 4951SOL     OW15532   2.570   4.783   7.812
 4951SOL    HW115533   2.547   4.770   7.904
 4951SOL    HW215534   2.651   4.733   7.800
 4952SOL     OW15535   2.227   4.826   7.927
 4952SOL    HW115536   2.205   4.905   7.878
 4952SOL    HW215537   2.214   4.754   7.865
 4953SOL     OW15538   3.087   5.114   7.831
 4953SOL    HW115539   3.173   5.125   7.873
 4953SOL    HW215540   3.037   5.061   7.892
 4954SOL     OW15541   3.449   4.352   7.921
 4954SOL    HW115542   3.436   4.411   7.995
 4954SOL    HW215543   3.489   4.407   7.854
 4955SOL     OW15544   3.066   4.251   7.715
 4955SOL    HW115545   3.069   4.167   7.762
 4955SOL    HW215546   3.039   4.314   7.782
 4956SOL     OW15547   3.481   4.103   7.814
 4956SOL    HW115548   3.502   4.036   7.879
 4956SOL    HW215549   3.455   4.179   7.866
 4957SOL     OW15550   3.392   3.999   7.575
 4957SOL    HW115551   3.326   3.933   7.601
 4957SOL    HW215552   3.424   4.034   7.658
 4958SOL     OW15553   3.157   4.551   7.481
 4958SOL    HW115554   3.198   4.465   7.483
 4958SOL    HW215555   3.186   4.591   7.399
 4959SOL     OW15556   1.870   5.045   7.640
 4959SOL    HW115557   1.780   5.058   7.611
 4959SOL    HW215558   1.871   4.956   7.675
 4960SOL     OW15559   2.701   4.323   7.762
 4960SOL    HW115560   2.693   4.232   7.734
 4960SOL    HW215561   2.611   4.357   7.761
 4961SOL     OW15562   2.324   4.217   7.642
 4961SOL    HW115563   2.383   4.291   7.656
 4961SOL    HW215564   2.239   4.258   7.623
 4962SOL     OW15565   3.172   4.578   7.755
 4962SOL    HW115566   3.084   4.578   7.794
 4962SOL    HW215567   3.156   4.566   7.661
 4963SOL     OW15568   3.574   3.870   7.947
 4963SOL    HW115569   3.651   3.862   7.892
 4963SOL    HW215570   3.576   3.792   8.003
 4964SOL     OW15571   2.791   4.634   7.758
 4964SOL    HW115572   2.843   4.660   7.682
 4964SOL    HW215573   2.783   4.539   7.751
 4965SOL     OW15574   2.120   5.058   7.745
 4965SOL    HW115575   2.028   5.061   7.717
 4965SOL    HW215576   2.119   5.097   7.832
 4966SOL     OW15577   1.939   4.058   7.484
 4966SOL    HW115578   1.853   4.038   7.447
 4966SOL    HW215579   1.970   4.133   7.433
 4967SOL     OW15580   1.932   3.881   7.758
 4967SOL    HW115581   1.916   3.957   7.702
 4967SOL    HW215582   2.015   3.845   7.727
 4968SOL     OW15583   3.043   5.058   7.564
 4968SOL    HW115584   2.951   5.034   7.562
 4968SOL    HW215585   3.062   5.074   7.657
 4969SOL     OW15586   3.077   4.042   7.903
 4969SOL    HW115587   3.150   3.981   7.892
 4969SOL    HW215588   3.098   4.089   7.984
 4970SOL     OW15589   2.487   4.458   8.057
 4970SOL    HW115590   2.493   4.542   0.024
 4970SOL    HW215591   2.400   4.459   8.016
 4971SOL     OW15592   2.713   5.094   7.466
 4971SOL    HW115593   2.695   5.094   7.560
 4971SOL    HW215594   2.726   5.186   7.444
 4972SOL     OW15595   2.936   4.704   7.538
 4972SOL    HW115596   2.916   4.759   7.463
 4972SOL    HW215597   3.014   4.655   7.511
 4973SOL     OW15598   2.249   4.150   7.982
 4973SOL    HW115599   2.300   4.099   7.919
 4973SOL    HW215600   2.299   4.144   8.064
 4974SOL     OW15601   2.667   5.048   7.730
 4974SOL    HW115602   2.611   4.973   7.749
 4974SOL    HW215603   2.687   5.085   7.816
 4975SOL     OW15604   3.214   3.776   7.610
 4975SOL    HW115605   3.243   3.710   7.547
 4975SOL    HW215606   3.128   3.747   7.638
 4976SOL     OW15607   1.912   4.801   7.751
 4976SOL    HW115608   2.006   4.793   7.738
 4976SOL    HW215609   1.882   4.712   7.766
 4977SOL     OW15610   3.942   0.624   0.120
 4977SOL    HW115611   3.863   0.590   0.162
 4977SOL    HW215612   3.967   0.557   0.057
 4978SOL     OW15613   3.942   0.284   0.993
 4978SOL    HW115614   3.971   0.249   1.077
 4978SOL    HW215615   3.857   0.243   0.978
 4979SOL     OW15616   3.728   0.386   0.638
 4979SOL    HW115617   3.644   0.408   0.678
 4979SOL    HW215618   3.710   0.308   0.586
 4980SOL     OW15619   4.291   1.287   1.175
 4980SOL    HW115620   4.203   1.291   1.137
 4980SOL    HW215621   4.306   1.376   1.208
 4981SOL     OW15622   5.283   1.546   0.707
 4981SOL    HW115623   5.247   1.494   0.778
 4981SOL    HW215624   5.224   1.530   0.633
 4982SOL     OW15625   4.859   0.699   0.701
 4982SOL    HW115626   4.909   0.780   0.691
 4982SOL    HW215627   4.809   0.712   0.782
 4983SOL     OW15628   4.479   1.142   1.041
 4983SOL    HW115629   4.410   1.177   1.097
 4983SOL    HW215630   4.514   1.219   0.996
 4984SOL     OW15631   4.592   0.777   1.823
 4984SOL    HW115632   4.574   0.849   1.884
 4984SOL    HW215633   4.614   0.820   1.741
 4985SOL     OW15634   4.409   1.002   0.650
 4985SOL    HW115635   4.474   0.991   0.719
 4985SOL    HW215636   4.340   1.055   0.690
 4986SOL     OW15637   4.435   1.151   1.812
 4986SOL    HW115638   4.482   1.230   1.839
 4986SOL    HW215639   4.352   1.184   1.777
 4987SOL     OW15640   4.054   1.426   1.068
 4987SOL    HW115641   3.982   1.388   1.018
 4987SOL    HW215642   4.105   1.476   1.004
 4988SOL     OW15643   5.161   1.481   1.351
 4988SOL    HW115644   5.205   1.561   1.377
 4988SOL    HW215645   5.106   1.459   1.426
 4989SOL     OW15646   4.168   0.398   1.487
 4989SOL    HW115647   4.244   0.340   1.485
 4989SOL    HW215648   4.093   0.341   1.502
 4990SOL     OW15649   3.944   1.715   0.471
 4990SOL    HW115650   3.966   1.790   0.525
 4990SOL    HW215651   4.019   1.706   0.412
 4991SOL     OW15652   4.860   1.340   1.694
 4991SOL    HW115653   4.898   1.336   1.781
 4991SOL    HW215654   4.807   1.260   1.687
 4992SOL     OW15655   3.950   1.441   0.530
 4992SOL    HW115656   3.937   1.535   0.534
 4992SOL    HW215657   3.892   1.404   0.596
 4993SOL     OW15658   3.981   1.090   0.891
 4993SOL    HW115659   3.978   1.004   0.932
 4993SOL    HW215660   3.923   1.144   0.945
 4994SOL     OW15661   4.333   1.793   1.427
 4994SOL    HW115662   4.253   1.774   1.475
 4994SOL    HW215663   4.358   1.881   1.454
 4995SOL     OW15664   4.353   0.961   0.133
 4995SOL    HW115665   4.301   1.037   0.108
 4995SOL    HW215666   4.404   0.990   0.209
 4996SOL     OW15667   5.249   0.146   1.480
 4996SOL    HW115668   5.300   0.225   1.460
 4996SOL    HW215669   5.277   0.121   1.568
 4997SOL     OW15670   3.838   0.651   0.562
 4997SOL    HW115671   3.810   0.562   0.583
 4997SOL    HW215672   3.831   0.699   0.644
 4998SOL     OW15673   3.753   1.596   0.111
 4998SOL    HW115674   3.740   1.507   0.145
 4998SOL    HW215675   3.737   1.653   0.186
 4999SOL     OW15676   0.114   0.946   0.594
 4999SOL    HW115677   0.201   0.906   0.592
 4999SOL    HW215678   0.118   1.015   0.527
 5000SOL     OW15679   3.847   0.744   1.584
 5000SOL    HW115680   3.938   0.769   1.593
 5000SOL    HW215681   3.798   0.826   1.593
 5001SOL     OW15682   4.337   1.386   0.735
 5001SOL    HW115683   4.291   1.302   0.744
 5001SOL    HW215684   4.321   1.412   0.644
 5002SOL     OW15685   5.007   1.237   1.425
 5002SOL    HW115686   5.040   1.170   1.365
 5002SOL    HW215687   5.062   1.228   1.503
 5003SOL     OW15688   4.535   0.026   0.528
 5003SOL    HW115689   4.564   0.113   0.499
 5003SOL    HW215690   4.439   0.030   0.522
 5004SOL     OW15691   3.914   0.967   1.271
 5004SOL    HW115692   3.999   0.924   1.256
 5004SOL    HW215693   3.852   0.911   1.225
 5005SOL     OW15694   4.897   1.807   1.623
 5005SOL    HW115695   4.918   1.866   1.551
 5005SOL    HW215696   4.919   1.720   1.591
 5006SOL     OW15697   4.049   0.266   1.810
 5006SOL    HW115698   4.102   0.341   1.839
 5006SOL    HW215699   3.964   0.281   1.850
 5007SOL     OW15700   5.169   1.434   0.936
 5007SOL    HW115701   5.106   1.441   1.008
 5007SOL    HW215702   5.162   1.343   0.907
 5008SOL     OW15703   4.322   0.715   0.282
 5008SOL    HW115704   4.339   0.793   0.229
 5008SOL    HW215705   4.256   0.743   0.346
 5009SOL     OW15706   4.996   0.329   0.920
 5009SOL    HW115707   4.907   0.305   0.943
 5009SOL    HW215708   5.049   0.301   0.994
 5010SOL     OW15709   4.517   0.618   1.450
 5010SOL    HW115710   4.490   0.596   1.539
 5010SOL    HW215711   4.476   0.552   1.395
 5011SOL     OW15712   5.117   0.487   1.679
 5011SOL    HW115713   5.119   0.521   1.769
 5011SOL    HW215714   5.181   0.416   1.679
 5012SOL     OW15715   4.679   0.888   1.582
 5012SOL    HW115716   4.731   0.816   1.547
 5012SOL    HW215717   4.631   0.922   1.507
 5013SOL     OW15718   4.718   0.422   1.231
 5013SOL    HW115719   4.633   0.436   1.274
 5013SOL    HW215720   4.698   0.367   1.156
 5014SOL     OW15721   4.777   0.698   0.427
 5014SOL    HW115722   4.792   0.691   0.521
 5014SOL    HW215723   4.694   0.652   0.413
 5015SOL     OW15724   3.813   0.821   0.776
 5015SOL    HW115725   3.894   0.814   0.827
 5015SOL    HW215726   3.770   0.899   0.811
 5016SOL     OW15727   3.851   1.847   1.578
 5016SOL    HW115728   3.851   1.827   1.671
 5016SOL    HW215729   3.759   1.840   1.552
 5017SOL     OW15730   4.606   0.360   0.200
 5017SOL    HW115731   4.654   0.401   0.128
 5017SOL    HW215732   4.589   0.271   0.169
 5018SOL     OW15733   5.095   1.147   0.549
 5018SOL    HW115734   5.178   1.141   0.501
 5018SOL    HW215735   5.041   1.206   0.495
 5019SOL     OW15736   4.248   0.201   0.883
 5019SOL    HW115737   4.272   0.216   0.974
 5019SOL    HW215738   4.272   0.283   0.839
 5020SOL     OW15739   4.730   1.445   0.473
 5020SOL    HW115740   4.690   1.516   0.423
 5020SOL    HW215741   4.711   1.466   0.565
 5021SOL     OW15742   4.079   1.809   0.862
 5021SOL    HW115743   4.122   1.724   0.870
 5021SOL    HW215744   4.147   1.873   0.880
 5022SOL     OW15745   4.940   1.542   1.519
 5022SOL    HW115746   4.927   1.469   1.579
 5022SOL    HW215747   4.883   1.522   1.444
 5023SOL     OW15748   4.050   0.943   0.255
 5023SOL    HW115749   4.119   0.984   0.203
 5023SOL    HW215750   4.049   0.851   0.226
 5024SOL     OW15751   4.190   1.264   1.738
 5024SOL    HW115752   4.163   1.269   1.646
 5024SOL    HW215753   4.108   1.262   1.787
 5025SOL     OW15754   4.825   1.774   0.225
 5025SOL    HW115755   4.770   1.734   0.292
 5025SOL    HW215756   4.840   1.704   0.162
 5026SOL     OW15757   3.921   0.278   1.502
 5026SOL    HW115758   3.842   0.331   1.499
 5026SOL    HW215759   3.913   0.229   1.585
 5027SOL     OW15760   4.189   1.738   0.323
 5027SOL    HW115761   4.231   1.796   0.386
 5027SOL    HW215762   4.259   1.711   0.264
 5028SOL     OW15763   5.100   0.113   0.443
 5028SOL    HW115764   5.092   0.073   0.357
 5028SOL    HW215765   5.194   0.129   0.453
 5029SOL     OW15766   3.979   1.791   1.232
 5029SOL    HW115767   4.031   1.726   1.279
 5029SOL    HW215768   3.970   1.756   1.143
 5030SOL     OW15769   4.662   1.698   0.899
 5030SOL    HW115770   4.742   1.648   0.916
 5030SOL    HW215771   4.617   1.649   0.830
 5031SOL     OW15772   4.110   0.698   0.476
 5031SOL    HW115773   4.135   0.606   0.487
 5031SOL    HW215774   4.017   0.701   0.500
 5032SOL     OW15775   4.348   0.137   0.123
 5032SOL    HW115776   4.438   0.109   0.134
 5032SOL    HW215777   4.320   0.098   0.040
 5033SOL     OW15778   4.508   0.311   1.767
 5033SOL    HW115779   4.571   0.239   1.766
 5033SOL    HW215780   4.458   0.299   1.848
 5034SOL     OW15781   4.599   1.521   1.194
 5034SOL    HW115782   4.585   1.486   1.106
 5034SOL    HW215783   4.670   1.468   1.230
 5035SOL     OW15784   5.060   0.592   1.431
 5035SOL    HW115785   5.090   0.561   1.516
 5035SOL    HW215786   5.099   0.678   1.422
 5036SOL     OW15787   4.538   1.395   0.939
 5036SOL    HW115788   4.623   1.384   0.896
 5036SOL    HW215789   4.474   1.396   0.868
 5037SOL     OW15790   4.651   0.511   0.902
 5037SOL    HW115791   4.628   0.501   0.810
 5037SOL    HW215792   4.682   0.424   0.929
 5038SOL     OW15793   4.266   0.062   0.511
 5038SOL    HW115794   4.179   0.060   0.552
 5038SOL    HW215795   4.260   0.131   0.446
 5039SOL     OW15796   5.140   1.172   0.043
 5039SOL    HW115797   5.139   1.101   0.107
 5039SOL    HW215798   5.056   1.216   0.055
 5040SOL     OW15799   4.024   0.069   0.205
 5040SOL    HW115800   4.081   0.139   0.173
 5040SOL    HW215801   4.077   5.290   0.197
 5041SOL     OW15802   4.667   0.257   0.453
 5041SOL    HW115803   4.640   0.303   0.374
 5041SOL    HW215804   4.759   0.280   0.464
 5042SOL     OW15805   4.802   0.681   1.461
 5042SOL    HW115806   4.733   0.615   1.462
 5042SOL    HW215807   4.883   0.631   1.450
 5043SOL     OW15808   4.940   1.572   0.796
 5043SOL    HW115809   4.963   1.637   0.730
 5043SOL    HW215810   5.022   1.558   0.845
 5044SOL     OW15811   4.192   1.150   0.734
 5044SOL    HW115812   4.123   1.130   0.797
 5044SOL    HW215813   4.151   1.134   0.649
 5045SOL     OW15814   4.993   1.794   0.605
 5045SOL    HW115815   5.037   1.857   0.548
 5045SOL    HW215816   4.927   1.846   0.652
 5046SOL     OW15817   4.765   0.533   0.023
 5046SOL    HW115818   4.709   0.608   0.004
 5046SOL    HW215819   4.814   0.558   0.101
 5047SOL     OW15820   3.803   0.553   1.393
 5047SOL    HW115821   3.894   0.553   1.365
 5047SOL    HW215822   3.797   0.624   1.457
 5048SOL     OW15823   4.280   0.238   1.158
 5048SOL    HW115824   4.312   0.153   1.187
 5048SOL    HW215825   4.188   0.239   1.185
 5049SOL     OW15826   4.592   0.461   0.639
 5049SOL    HW115827   4.548   0.514   0.573
 5049SOL    HW215828   4.613   0.379   0.594
 5050SOL     OW15829   4.696   0.064   0.764
 5050SOL    HW115830   4.634   0.053   0.692
 5050SOL    HW215831   4.716   5.274   0.791
 5051SOL     OW15832   5.157   1.176   0.850
 5051SOL    HW115833   5.102   1.099   0.864
 5051SOL    HW215834   5.167   1.182   0.755
 5052SOL     OW15835   4.207   1.439   0.172
 5052SOL    HW115836   4.134   1.397   0.219
 5052SOL    HW215837   4.213   1.391   0.090
 5053SOL     OW15838   5.123   0.574   0.083
 5053SOL    HW115839   5.049   0.556   0.141
 5053SOL    HW215840   5.200   0.547   0.135
 5054SOL     OW15841   4.247   0.268   0.329
 5054SOL    HW115842   4.287   0.212   0.262
 5054SOL    HW215843   4.231   0.351   0.284
 5055SOL     OW15844   4.781   1.354   1.334
 5055SOL    HW115845   4.706   1.323   1.384
 5055SOL    HW215846   4.856   1.311   1.374
 5056SOL     OW15847   0.006   1.604   1.616
 5056SOL    HW115848   0.040   1.610   1.527
 5056SOL    HW215849   0.083   1.584   1.670
 5057SOL     OW15850   4.853   1.204   1.107
 5057SOL    HW115851   4.791   1.239   1.170
 5057SOL    HW215852   4.819   1.232   1.022
 5058SOL     OW15853   4.624   0.104   1.387
 5058SOL    HW115854   4.658   0.070   1.304
 5058SOL    HW215855   4.700   0.148   1.427
 5059SOL     OW15856   4.709   1.113   1.725
 5059SOL    HW115857   4.617   1.130   1.745
 5059SOL    HW215858   4.706   1.036   1.668
 5060SOL     OW15859   4.438   1.063   0.380
 5060SOL    HW115860   4.420   1.045   0.472
 5060SOL    HW215861   4.516   1.011   0.360
 5061SOL     OW15862   4.142   0.815   1.251
 5061SOL    HW115863   4.211   0.824   1.318
 5061SOL    HW215864   4.107   0.727   1.265
 5062SOL     OW15865   4.991   0.380   1.270
 5062SOL    HW115866   5.024   0.458   1.314
 5062SOL    HW215867   4.901   0.402   1.248
 5063SOL     OW15868   3.794   1.573   1.352
 5063SOL    HW115869   3.765   1.646   1.299
 5063SOL    HW215870   3.890   1.576   1.347
 5064SOL     OW15871   4.069   1.110   0.491
 5064SOL    HW115872   4.075   1.182   0.429
 5064SOL    HW215873   4.077   1.031   0.437
 5065SOL     OW15874   4.277   0.538   0.861
 5065SOL    HW115875   4.293   0.596   0.786
 5065SOL    HW215876   4.343   0.564   0.925
 5066SOL     OW15877   4.971   1.347   0.392
 5066SOL    HW115878   5.027   1.419   0.420
 5066SOL    HW215879   4.884   1.369   0.424
 5067SOL     OW15880   4.994   1.456   1.139
 5067SOL    HW115881   5.049   1.458   1.218
 5067SOL    HW215882   4.940   1.378   1.150
 5068SOL     OW15883   4.071   1.527   1.315
 5068SOL    HW115884   4.058   1.484   1.230
 5068SOL    HW215885   4.165   1.539   1.323
 5069SOL     OW15886   4.138   0.744   1.602
 5069SOL    HW115887   4.200   0.789   1.544
 5069SOL    HW215888   4.179   0.660   1.619
 5070SOL     OW15889   4.753   0.117   1.757
 5070SOL    HW115890   4.796   0.199   1.730
 5070SOL    HW215891   4.793   0.050   1.702
 5071SOL     OW15892   4.203   0.058   1.737
 5071SOL    HW115893   4.145   5.293   1.697
 5071SOL    HW215894   4.146   0.131   1.759
 5072SOL     OW15895   4.307   0.873   1.031
 5072SOL    HW115896   4.338   0.964   1.031
 5072SOL    HW215897   4.251   0.867   1.108
 5073SOL     OW15898   5.085   0.857   1.039
 5073SOL    HW115899   5.010   0.840   0.982
 5073SOL    HW215900   5.139   0.778   1.031
 5074SOL     OW15901   4.929   0.531   0.267
 5074SOL    HW115902   4.932   0.448   0.315
 5074SOL    HW215903   4.885   0.591   0.327
 5075SOL     OW15904   4.020   0.204   1.247
 5075SOL    HW115905   3.981   0.243   1.326
 5075SOL    HW215906   4.020   0.110   1.265
 5076SOL     OW15907   3.770   1.311   1.276
 5076SOL    HW115908   3.803   1.256   1.348
 5076SOL    HW215909   3.777   1.400   1.309
 5077SOL     OW15910   4.450   0.632   1.060
 5077SOL    HW115911   4.523   0.614   1.001
 5077SOL    HW215912   4.421   0.720   1.036
 5078SOL     OW15913   4.025   0.071   0.651
 5078SOL    HW115914   4.009   0.165   0.658
 5078SOL    HW215915   4.070   0.048   0.733
 5079SOL     OW15916   0.038   0.408   0.361
 5079SOL    HW115917   0.061   0.346   0.431
 5079SOL    HW215918   0.003   0.484   0.407
 5080SOL     OW15919   4.751   0.759   0.960
 5080SOL    HW115920   4.749   0.777   1.054
 5080SOL    HW215921   4.725   0.667   0.953
 5081SOL     OW15922   4.698   1.561   1.714
 5081SOL    HW115923   4.687   1.609   1.631
 5081SOL    HW215924   4.746   1.482   1.689
 5082SOL     OW15925   4.077   0.916   1.808
 5082SOL    HW115926   4.159   0.935   1.854
 5082SOL    HW215927   4.101   0.853   1.740
 5083SOL     OW15928   5.031   0.831   0.028
 5083SOL    HW115929   5.059   0.741   0.043
 5083SOL    HW215930   5.057   0.850   8.018
 5084SOL     OW15931   4.789   1.334   0.855
 5084SOL    HW115932   4.793   1.262   0.792
 5084SOL    HW215933   4.847   1.401   0.819
 5085SOL     OW15934   4.033   0.809   0.947
 5085SOL    HW115935   4.126   0.830   0.941
 5085SOL    HW215936   4.031   0.719   0.979
 5086SOL     OW15937   4.056   0.526   1.012
 5086SOL    HW115938   4.020   0.439   0.997
 5086SOL    HW215939   4.133   0.531   0.955
 5087SOL     OW15940   4.862   0.377   1.690
 5087SOL    HW115941   4.812   0.432   1.751
 5087SOL    HW215942   4.946   0.422   1.681
 5088SOL     OW15943   4.847   0.234   1.458
 5088SOL    HW115944   4.859   0.283   1.540
 5088SOL    HW215945   4.912   0.270   1.398
 5089SOL     OW15946   3.735   1.324   0.190
 5089SOL    HW115947   3.648   1.338   0.152
 5089SOL    HW215948   3.733   1.234   0.222
 5090SOL     OW15949   3.814   1.787   0.938
 5090SOL    HW115950   3.784   1.708   0.894
 5090SOL    HW215951   3.904   1.799   0.907
 5091SOL     OW15952   4.221   1.574   0.905
 5091SOL    HW115953   4.289   1.636   0.930
 5091SOL    HW215954   4.265   1.510   0.849
 5092SOL     OW15955   4.707   0.794   1.227
 5092SOL    HW115956   4.762   0.769   1.301
 5092SOL    HW215957   4.622   0.753   1.246
 5093SOL     OW15958   3.759   0.544   1.117
 5093SOL    HW115959   3.839   0.529   1.066
 5093SOL    HW215960   3.789   0.548   1.208
 5094SOL     OW15961   3.911   0.522   1.727
 5094SOL    HW115962   3.974   0.486   1.664
 5094SOL    HW215963   3.871   0.596   1.681
 5095SOL     OW15964   5.113   0.938   1.666
 5095SOL    HW115965   5.121   1.033   1.654
 5095SOL    HW215966   5.115   0.902   1.577
 5096SOL     OW15967   4.543   0.571   0.365
 5096SOL    HW115968   4.549   0.499   0.303
 5096SOL    HW215969   4.465   0.620   0.337
 5097SOL     OW15970   3.967   1.551   1.728
 5097SOL    HW115971   3.945   1.615   1.795
 5097SOL    HW215972   3.969   1.467   1.774
 5098SOL     OW15973   4.421   0.453   1.261
 5098SOL    HW115974   4.371   0.378   1.227
 5098SOL    HW215975   4.422   0.516   1.189
 5099SOL     OW15976   4.645   1.680   1.469
 5099SOL    HW115977   4.623   1.647   1.381
 5099SOL    HW215978   4.646   1.775   1.459
 5100SOL     OW15979   4.192   0.492   0.177
 5100SOL    HW115980   4.259   0.557   0.197
 5100SOL    HW215981   4.109   0.538   0.193
 5101SOL     OW15982   3.870   1.140   1.472
 5101SOL    HW115983   3.872   1.089   1.553
 5101SOL    HW215984   3.887   1.077   1.402
 5102SOL     OW15985   5.054   1.050   1.225
 5102SOL    HW115986   5.075   0.984   1.158
 5102SOL    HW215987   4.982   1.100   1.186
 5103SOL     OW15988   5.024   0.869   0.319
 5103SOL    HW115989   4.946   0.825   0.354
 5103SOL    HW215990   5.022   0.850   0.225
 5104SOL     OW15991   4.960   1.731   1.122
 5104SOL    HW115992   5.045   1.752   1.084
 5104SOL    HW215993   4.960   1.636   1.131
 5105SOL     OW15994   3.808   1.267   1.012
 5105SOL    HW115995   3.793   1.279   1.106
 5105SOL    HW215996   3.735   1.212   0.984
 5106SOL     OW15997   4.401   1.665   1.728
 5106SOL    HW115998   4.349   1.745   1.722
 5106SOL    HW215999   4.470   1.676   1.662
 5107SOL     OW16000   4.614   0.085   0.142
 5107SOL    HW116001   4.661   0.074   0.059
 5107SOL    HW216002   4.630   0.002   0.188
 5108SOL     OW16003   5.108   1.571   0.478
 5108SOL    HW116004   5.162   1.613   0.411
 5108SOL    HW216005   5.060   1.642   0.519
 5109SOL     OW16006   3.860   1.797   1.843
 5109SOL    HW116007   3.809   1.731   1.891
 5109SOL    HW216008   3.908   1.844   1.911
 5110SOL     OW16009   5.016   0.920   0.673
 5110SOL    HW116010   5.093   0.865   0.658
 5110SOL    HW216011   5.035   1.000   0.624
 5111SOL     OW16012   4.538   1.273   1.430
 5111SOL    HW116013   4.510   1.313   1.513
 5111SOL    HW216014   4.469   1.295   1.368
 5112SOL     OW16015   4.400   1.621   0.157
 5112SOL    HW116016   4.407   1.627   0.061
 5112SOL    HW216017   4.339   1.548   0.172
 5113SOL     OW16018   3.986   0.329   0.719
 5113SOL    HW116019   3.898   0.360   0.698
 5113SOL    HW216020   3.984   0.317   0.814
 5114SOL     OW16021   4.860   1.580   0.045
 5114SOL    HW116022   4.900   1.494   0.061
 5114SOL    HW216023   4.898   1.610   8.043
 5115SOL     OW16024   4.547   1.006   1.373
 5115SOL    HW116025   4.592   1.000   1.288
 5115SOL    HW216026   4.548   1.099   1.394
 5116SOL     OW16027   4.643   0.914   0.300
 5116SOL    HW116028   4.697   0.938   0.224
 5116SOL    HW216029   4.690   0.841   0.340
 5117SOL     OW16030   4.093   1.303   1.492
 5117SOL    HW116031   4.080   1.380   1.437
 5117SOL    HW216032   4.016   1.248   1.476
 5118SOL     OW16033   4.776   1.107   0.707
 5118SOL    HW116034   4.705   1.056   0.747
 5118SOL    HW216035   4.833   1.041   0.668
 5119SOL     OW16036   4.738   0.242   0.971
 5119SOL    HW116037   4.719   0.197   0.889
 5119SOL    HW216038   4.733   0.174   1.038
 5120SOL     OW16039   4.326   1.487   0.480
 5120SOL    HW116040   4.370   1.437   0.411
 5120SOL    HW216041   4.258   1.536   0.434
 5121SOL     OW16042   3.991   1.320   0.293
 5121SOL    HW116043   3.905   1.331   0.253
 5121SOL    HW216044   3.984   1.365   0.377
 5122SOL     OW16045   3.836   1.022   1.719
 5122SOL    HW116046   3.760   0.999   1.772
 5122SOL    HW216047   3.911   0.984   1.766
 5123SOL     OW16048   4.396   0.212   1.490
 5123SOL    HW116049   4.479   0.192   1.446
 5123SOL    HW216050   4.422   0.260   1.568
 5124SOL     OW16051   3.793   0.361   0.034
 5124SOL    HW116052   3.721   0.299   0.023
 5124SOL    HW216053   3.806   0.397   8.026
 5125SOL     OW16054   5.163   0.860   1.404
 5125SOL    HW116055   5.110   0.915   1.347
 5125SOL    HW216056   5.252   0.869   1.369
 5126SOL     OW16057   3.792   0.165   0.314
 5126SOL    HW116058   3.799   0.253   0.276
 5126SOL    HW216059   3.877   0.124   0.296
 5127SOL     OW16060   4.914   1.315   0.120
 5127SOL    HW116061   4.818   1.314   0.114
 5127SOL    HW216062   4.932   1.321   0.213
 5128SOL     OW16063   4.343   0.831   1.433
 5128SOL    HW116064   4.399   0.907   1.418
 5128SOL    HW216065   4.404   0.757   1.441
 5129SOL     OW16066   4.440   0.571   1.703
 5129SOL    HW116067   4.480   0.633   1.764
 5129SOL    HW216068   4.469   0.485   1.733
 5130SOL     OW16069   5.182   1.204   1.632
 5130SOL    HW116070   5.173   1.217   1.727
 5130SOL    HW216071   5.276   1.212   1.616
 5131SOL     OW16072   4.103   1.739   1.565
 5131SOL    HW116073   4.018   1.781   1.551
 5131SOL    HW216074   4.083   1.656   1.606
 5132SOL     OW16075   4.936   0.332   0.472
 5132SOL    HW116076   4.989   0.254   0.457
 5132SOL    HW216077   4.974   0.373   0.550
 5133SOL     OW16078   4.313   0.738   0.669
 5133SOL    HW116079   4.352   0.824   0.654
 5133SOL    HW216080   4.244   0.731   0.603
 5134SOL     OW16081   4.620   1.369   0.033
 5134SOL    HW116082   4.555   1.363   0.103
 5134SOL    HW216083   4.616   1.460   0.004
 5135SOL     OW16084   4.384   1.792   0.944
 5135SOL    HW116085   4.365   1.882   0.921
 5135SOL    HW216086   4.479   1.785   0.938
 5136SOL     OW16087   4.591   0.967   0.856
 5136SOL    HW116088   4.641   0.895   0.895
 5136SOL    HW216089   4.557   1.015   0.930
 5137SOL     OW16090   4.801   0.974   0.086
 5137SOL    HW116091   4.790   1.037   0.015
 5137SOL    HW216092   4.883   0.929   0.066
 5138SOL     OW16093   3.949   1.303   1.856
 5138SOL    HW116094   3.882   1.242   1.827
 5138SOL    HW216095   3.931   1.315   1.949
 5139SOL     OW16096   3.809   1.233   0.665
 5139SOL    HW116097   3.812   1.184   0.747
 5139SOL    HW216098   3.881   1.196   0.612
 5140SOL     OW16099   4.405   1.402   1.628
 5140SOL    HW116100   4.325   1.360   1.659
 5140SOL    HW216101   4.401   1.490   1.664
 5141SOL     OW16102   4.150   0.438   0.523
 5141SOL    HW116103   4.186   0.366   0.472
 5141SOL    HW216104   4.106   0.396   0.597
 5142SOL     OW16105   0.094   1.522   1.100
 5142SOL    HW116106   0.027   1.497   1.036
 5142SOL    HW216107   0.103   1.446   1.157
 5143SOL     OW16108   4.053   0.556   1.290
 5143SOL    HW116109   4.108   0.501   1.346
 5143SOL    HW216110   4.073   0.528   1.201
 5144SOL     OW16111   4.551   1.578   0.677
 5144SOL    HW116112   4.540   1.630   0.598
 5144SOL    HW216113   4.474   1.521   0.680
 5145SOL     OW16114   5.150   0.216   1.121
 5145SOL    HW116115   5.157   0.133   1.168
 5145SOL    HW216116   5.105   0.274   1.181
 5146SOL     OW16117   4.725   0.020   1.140
 5146SOL    HW116118   4.674   5.251   1.097
 5146SOL    HW216119   4.812   5.283   1.151
 5147SOL     OW16120   4.494   1.327   0.308
 5147SOL    HW116121   4.462   1.238   0.322
 5147SOL    HW216122   4.576   1.332   0.357
 5148SOL     OW16123   4.344   1.557   1.285
 5148SOL    HW116124   4.346   1.639   1.334
 5148SOL    HW216125   4.431   1.549   1.247
 5149SOL     OW16126   5.074   5.295   0.203
 5149SOL    HW116127   5.139   0.009   0.133
 5149SOL    HW216128   5.002   0.054   0.180
 5150SOL     OW16129   5.033   0.465   0.691
 5150SOL    HW116130   4.974   0.540   0.693
 5150SOL    HW216131   5.019   0.421   0.775
 5151SOL     OW16132   5.295   0.214   0.882
 5151SOL    HW116133   5.237   0.215   0.958
 5151SOL    HW216134   5.276   0.295   0.835
 5152SOL     OW16135   3.767   1.067   0.304
 5152SOL    HW116136   3.863   1.066   0.307
 5152SOL    HW216137   3.741   0.984   0.344
 5153SOL     OW16138   4.604   1.652   0.350
 5153SOL    HW116139   4.537   1.636   0.283
 5153SOL    HW216140   4.573   1.729   0.398
 5154SOL     OW16141   3.952   0.626   1.985
 5154SOL    HW116142   3.864   0.622   2.020
 5154SOL    HW216143   3.943   0.599   1.893
 5155SOL     OW16144   3.942   0.284   2.855
 5155SOL    HW116145   3.971   0.249   2.939
 5155SOL    HW216146   3.857   0.243   2.839
 5156SOL     OW16147   3.728   0.386   2.500
 5156SOL    HW116148   3.644   0.407   2.540
 5156SOL    HW216149   3.711   0.308   2.447
 5157SOL     OW16150   4.291   1.287   3.037
 5157SOL    HW116151   4.203   1.291   2.999
 5157SOL    HW216152   4.306   1.376   3.070
 5158SOL     OW16153   5.285   1.535   2.568
 5158SOL    HW116154   5.246   1.492   2.644
 5158SOL    HW216155   5.220   1.527   2.499
 5159SOL     OW16156   4.859   0.698   2.563
 5159SOL    HW116157   4.909   0.780   2.553
 5159SOL    HW216158   4.809   0.710   2.644
 5160SOL     OW16159   4.480   1.143   2.903
 5160SOL    HW116160   4.410   1.177   2.959
 5160SOL    HW216161   4.514   1.220   2.858
 5161SOL     OW16162   4.592   0.777   3.685
 5161SOL    HW116163   4.574   0.849   3.746
 5161SOL    HW216164   4.614   0.820   3.603
 5162SOL     OW16165   4.411   1.003   2.509
 5162SOL    HW116166   4.475   0.991   2.579
 5162SOL    HW216167   4.341   1.055   2.549
 5163SOL     OW16168   4.435   1.151   3.674
 5163SOL    HW116169   4.482   1.230   3.701
 5163SOL    HW216170   4.352   1.184   3.639
 5164SOL     OW16171   4.055   1.426   2.930
 5164SOL    HW116172   3.982   1.388   2.880
 5164SOL    HW216173   4.105   1.476   2.866
 5165SOL     OW16174   5.161   1.481   3.213
 5165SOL    HW116175   5.206   1.561   3.238
 5165SOL    HW216176   5.105   1.460   3.289
 5166SOL     OW16177   4.168   0.398   3.349
 5166SOL    HW116178   4.244   0.339   3.347
 5166SOL    HW216179   4.093   0.341   3.364
 5167SOL     OW16180   3.943   1.714   2.334
 5167SOL    HW116181   3.965   1.790   2.388
 5167SOL    HW216182   4.016   1.706   2.273
 5168SOL     OW16183   4.860   1.340   3.556
 5168SOL    HW116184   4.898   1.336   3.643
 5168SOL    HW216185   4.807   1.260   3.549
 5169SOL     OW16186   3.954   1.441   2.397
 5169SOL    HW116187   3.937   1.535   2.401
 5169SOL    HW216188   3.894   1.403   2.461
 5170SOL     OW16189   3.981   1.090   2.753
 5170SOL    HW116190   3.978   1.004   2.794
 5170SOL    HW216191   3.923   1.144   2.807
 5171SOL     OW16192   4.334   1.792   3.289
 5171SOL    HW116193   4.253   1.774   3.337
 5171SOL    HW216194   4.358   1.881   3.316
 5172SOL     OW16195   4.310   0.981   1.996
 5172SOL    HW116196   4.355   1.031   1.928
 5172SOL    HW216197   4.349   1.012   2.078
 5173SOL     OW16198   5.250   0.145   3.341
 5173SOL    HW116199   5.299   0.225   3.322
 5173SOL    HW216200   5.276   0.122   3.430
 5174SOL     OW16201   3.839   0.653   2.421
 5174SOL    HW116202   3.811   0.564   2.442
 5174SOL    HW216203   3.831   0.701   2.504
 5175SOL     OW16204   3.756   1.595   1.986
 5175SOL    HW116205   3.738   1.503   2.006
 5175SOL    HW216206   3.732   1.642   2.066
 5176SOL     OW16207   0.112   0.940   2.438
 5176SOL    HW116208   0.200   0.904   2.453
 5176SOL    HW216209   0.128   1.025   2.397
 5177SOL     OW16210   3.847   0.744   3.446
 5177SOL    HW116211   3.938   0.769   3.455
 5177SOL    HW216212   3.798   0.826   3.455
 5178SOL     OW16213   4.337   1.385   2.597
 5178SOL    HW116214   4.291   1.302   2.607
 5178SOL    HW216215   4.321   1.412   2.507
 5179SOL     OW16216   5.007   1.237   3.287
 5179SOL    HW116217   5.040   1.170   3.227
 5179SOL    HW216218   5.062   1.228   3.365
 5180SOL     OW16219   4.535   0.026   2.391
 5180SOL    HW116220   4.563   0.114   2.365
 5180SOL    HW216221   4.439   0.029   2.384
 5181SOL     OW16222   3.914   0.966   3.133
 5181SOL    HW116223   3.999   0.924   3.118
 5181SOL    HW216224   3.852   0.912   3.086
 5182SOL     OW16225   4.897   1.807   3.485
 5182SOL    HW116226   4.918   1.866   3.413
 5182SOL    HW216227   4.919   1.720   3.453
 5183SOL     OW16228   4.049   0.266   3.673
 5183SOL    HW116229   4.102   0.341   3.701
 5183SOL    HW216230   3.964   0.281   3.712
 5184SOL     OW16231   5.169   1.435   2.799
 5184SOL    HW116232   5.106   1.442   2.871
 5184SOL    HW216233   5.162   1.344   2.770
 5185SOL     OW16234   4.319   0.722   2.128
 5185SOL    HW116235   4.324   0.803   2.078
 5185SOL    HW216236   4.253   0.739   2.196
 5186SOL     OW16237   4.997   0.329   2.780
 5186SOL    HW116238   4.907   0.305   2.804
 5186SOL    HW216239   5.050   0.301   2.855
 5187SOL     OW16240   4.518   0.618   3.312
 5187SOL    HW116241   4.490   0.596   3.401
 5187SOL    HW216242   4.476   0.552   3.257
 5188SOL     OW16243   5.117   0.486   3.541
 5188SOL    HW116244   5.118   0.521   3.631
 5188SOL    HW216245   5.182   0.417   3.541
 5189SOL     OW16246   4.679   0.888   3.444
 5189SOL    HW116247   4.731   0.816   3.409
 5189SOL    HW216248   4.631   0.922   3.369
 5190SOL     OW16249   4.718   0.422   3.093
 5190SOL    HW116250   4.634   0.437   3.136
 5190SOL    HW216251   4.698   0.367   3.018
 5191SOL     OW16252   4.775   0.697   2.287
 5191SOL    HW116253   4.790   0.691   2.382
 5191SOL    HW216254   4.692   0.652   2.273
 5192SOL     OW16255   3.812   0.821   2.639
 5192SOL    HW116256   3.893   0.814   2.689
 5192SOL    HW216257   3.769   0.899   2.673
 5193SOL     OW16258   3.851   1.846   3.439
 5193SOL    HW116259   3.851   1.826   3.533
 5193SOL    HW216260   3.759   1.842   3.414
 5194SOL     OW16261   4.598   0.362   2.052
 5194SOL    HW116262   4.635   0.419   1.984
 5194SOL    HW216263   4.650   0.282   2.047
 5195SOL     OW16264   5.092   1.146   2.409
 5195SOL    HW116265   5.180   1.147   2.371
 5195SOL    HW216266   5.041   1.206   2.354
 5196SOL     OW16267   4.250   0.202   2.744
 5196SOL    HW116268   4.272   0.217   2.836
 5196SOL    HW216269   4.272   0.284   2.701
 5197SOL     OW16270   4.730   1.443   2.334
 5197SOL    HW116271   4.692   1.516   2.285
 5197SOL    HW216272   4.712   1.465   2.426
 5198SOL     OW16273   4.078   1.809   2.724
 5198SOL    HW116274   4.122   1.724   2.732
 5198SOL    HW216275   4.147   1.873   2.742
 5199SOL     OW16276   4.940   1.542   3.381
 5199SOL    HW116277   4.927   1.469   3.441
 5199SOL    HW216278   4.883   1.523   3.307
 5200SOL     OW16279   4.044   0.957   2.112
 5200SOL    HW116280   4.126   0.976   2.066
 5200SOL    HW216281   4.013   0.875   2.074
 5201SOL     OW16282   4.190   1.264   3.600
 5201SOL    HW116283   4.163   1.269   3.508
 5201SOL    HW216284   4.108   1.263   3.649
 5202SOL     OW16285   4.832   1.775   2.098
 5202SOL    HW116286   4.760   1.730   2.143
 5202SOL    HW216287   4.857   1.715   2.027
 5203SOL     OW16288   3.921   0.278   3.364
 5203SOL    HW116289   3.842   0.331   3.361
 5203SOL    HW216290   3.913   0.229   3.447
 5204SOL     OW16291   4.190   1.737   2.183
 5204SOL    HW116292   4.232   1.794   2.247
 5204SOL    HW216293   4.262   1.707   2.127
 5205SOL     OW16294   5.099   0.099   2.282
 5205SOL    HW116295   5.084   0.082   2.189
 5205SOL    HW216296   5.192   0.118   2.289
 5206SOL     OW16297   3.978   1.791   3.094
 5206SOL    HW116298   4.031   1.726   3.140
 5206SOL    HW216299   3.971   1.757   3.005
 5207SOL     OW16300   4.662   1.698   2.761
 5207SOL    HW116301   4.741   1.648   2.779
 5207SOL    HW216302   4.617   1.649   2.692
 5208SOL     OW16303   4.117   0.696   2.338
 5208SOL    HW116304   4.138   0.603   2.349
 5208SOL    HW216305   4.023   0.702   2.356
 5209SOL     OW16306   4.346   0.133   1.970
 5209SOL    HW116307   4.418   0.073   1.988
 5209SOL    HW216308   4.298   0.091   1.899
 5210SOL     OW16309   4.508   0.311   3.629
 5210SOL    HW116310   4.571   0.239   3.628
 5210SOL    HW216311   4.458   0.299   3.710
 5211SOL     OW16312   4.599   1.521   3.056
 5211SOL    HW116313   4.584   1.486   2.968
 5211SOL    HW216314   4.670   1.467   3.092
 5212SOL     OW16315   5.060   0.591   3.293
 5212SOL    HW116316   5.090   0.561   3.379
 5212SOL    HW216317   5.099   0.678   3.284
 5213SOL     OW16318   4.538   1.395   2.801
 5213SOL    HW116319   4.623   1.384   2.757
 5213SOL    HW216320   4.474   1.396   2.730
 5214SOL     OW16321   4.651   0.511   2.765
 5214SOL    HW116322   4.628   0.501   2.672
 5214SOL    HW216323   4.682   0.424   2.791
 5215SOL     OW16324   4.266   0.062   2.371
 5215SOL    HW116325   4.180   0.061   2.413
 5215SOL    HW216326   4.259   0.132   2.305
 5216SOL     OW16327   5.136   1.180   1.906
 5216SOL    HW116328   5.146   1.102   1.961
 5216SOL    HW216329   5.049   1.213   1.926
 5217SOL     OW16330   4.026   0.062   2.053
 5217SOL    HW116331   4.085   0.131   2.022
 5217SOL    HW216332   4.082   5.285   2.063
 5218SOL     OW16333   4.661   0.262   2.325
 5218SOL    HW116334   4.632   0.295   2.240
 5218SOL    HW216335   4.756   0.276   2.325
 5219SOL     OW16336   4.802   0.681   3.323
 5219SOL    HW116337   4.733   0.615   3.325
 5219SOL    HW216338   4.883   0.630   3.312
 5220SOL     OW16339   4.941   1.571   2.656
 5220SOL    HW116340   4.963   1.638   2.591
 5220SOL    HW216341   5.021   1.560   2.707
 5221SOL     OW16342   4.193   1.149   2.596
 5221SOL    HW116343   4.123   1.130   2.659
 5221SOL    HW216344   4.153   1.133   2.510
 5222SOL     OW16345   4.996   1.794   2.467
 5222SOL    HW116346   5.038   1.855   2.407
 5222SOL    HW216347   4.929   1.846   2.512
 5223SOL     OW16348   4.753   0.550   1.881
 5223SOL    HW116349   4.705   0.632   1.864
 5223SOL    HW216350   4.807   0.570   1.958
 5224SOL     OW16351   3.803   0.553   3.255
 5224SOL    HW116352   3.894   0.553   3.227
 5224SOL    HW216353   3.797   0.624   3.319
 5225SOL     OW16354   4.280   0.238   3.020
 5225SOL    HW116355   4.312   0.152   3.049
 5225SOL    HW216356   4.188   0.239   3.046
 5226SOL     OW16357   4.593   0.464   2.502
 5226SOL    HW116358   4.544   0.516   2.439
 5226SOL    HW216359   4.613   0.383   2.456
 5227SOL     OW16360   4.699   0.063   2.625
 5227SOL    HW116361   4.635   0.054   2.554
 5227SOL    HW216362   4.714   5.273   2.655
 5228SOL     OW16363   5.157   1.176   2.713
 5228SOL    HW116364   5.101   1.100   2.726
 5228SOL    HW216365   5.168   1.181   2.618
 5229SOL     OW16366   4.215   1.418   2.019
 5229SOL    HW116367   4.140   1.389   2.071
 5229SOL    HW216368   4.200   1.379   1.932
 5230SOL     OW16369   5.128   0.559   1.943
 5230SOL    HW116370   5.052   0.551   2.001
 5230SOL    HW216371   5.202   0.531   1.997
 5231SOL     OW16372   4.248   0.265   2.184
 5231SOL    HW116373   4.291   0.215   2.115
 5231SOL    HW216374   4.227   0.349   2.143
 5232SOL     OW16375   4.781   1.354   3.195
 5232SOL    HW116376   4.706   1.323   3.246
 5232SOL    HW216377   4.856   1.311   3.236
 5233SOL     OW16378   0.006   1.604   3.479
 5233SOL    HW116379   0.040   1.609   3.389
 5233SOL    HW216380   0.083   1.584   3.532
 5234SOL     OW16381   4.853   1.203   2.969
 5234SOL    HW116382   4.791   1.238   3.033
 5234SOL    HW216383   4.819   1.232   2.884
 5235SOL     OW16384   4.625   0.104   3.249
 5235SOL    HW116385   4.658   0.070   3.166
 5235SOL    HW216386   4.700   0.148   3.289
 5236SOL     OW16387   4.709   1.113   3.587
 5236SOL    HW116388   4.617   1.130   3.607
 5236SOL    HW216389   4.706   1.036   3.530
 5237SOL     OW16390   4.433   1.062   2.233
 5237SOL    HW116391   4.418   1.045   2.326
 5237SOL    HW216392   4.508   1.008   2.210
 5238SOL     OW16393   4.143   0.815   3.113
 5238SOL    HW116394   4.211   0.824   3.180
 5238SOL    HW216395   4.107   0.727   3.127
 5239SOL     OW16396   4.991   0.380   3.131
 5239SOL    HW116397   5.024   0.458   3.176
 5239SOL    HW216398   4.901   0.402   3.110
 5240SOL     OW16399   3.794   1.573   3.214
 5240SOL    HW116400   3.765   1.647   3.162
 5240SOL    HW216401   3.890   1.576   3.210
 5241SOL     OW16402   4.073   1.109   2.353
 5241SOL    HW116403   4.078   1.182   2.291
 5241SOL    HW216404   4.071   1.031   2.297
 5242SOL     OW16405   4.278   0.538   2.723
 5242SOL    HW116406   4.293   0.596   2.648
 5242SOL    HW216407   4.343   0.564   2.787
 5243SOL     OW16408   4.972   1.349   2.249
 5243SOL    HW116409   5.026   1.422   2.280
 5243SOL    HW216410   4.884   1.369   2.283
 5244SOL     OW16411   4.994   1.456   3.001
 5244SOL    HW116412   5.049   1.458   3.080
 5244SOL    HW216413   4.940   1.378   3.012
 5245SOL     OW16414   4.071   1.527   3.177
 5245SOL    HW116415   4.058   1.484   3.093
 5245SOL    HW216416   4.166   1.539   3.184
 5246SOL     OW16417   4.138   0.745   3.464
 5246SOL    HW116418   4.200   0.789   3.406
 5246SOL    HW216419   4.179   0.660   3.481
 5247SOL     OW16420   4.753   0.117   3.619
 5247SOL    HW116421   4.796   0.199   3.592
 5247SOL    HW216422   4.793   0.050   3.564
 5248SOL     OW16423   4.203   0.058   3.599
 5248SOL    HW116424   4.145   5.293   3.559
 5248SOL    HW216425   4.146   0.131   3.621
 5249SOL     OW16426   4.308   0.873   2.893
 5249SOL    HW116427   4.337   0.964   2.892
 5249SOL    HW216428   4.251   0.867   2.970
 5250SOL     OW16429   5.086   0.857   2.899
 5250SOL    HW116430   5.008   0.840   2.845
 5250SOL    HW216431   5.137   0.777   2.894
 5251SOL     OW16432   4.930   0.531   2.128
 5251SOL    HW116433   4.933   0.451   2.180
 5251SOL    HW216434   4.885   0.594   2.185
 5252SOL     OW16435   4.020   0.204   3.109
 5252SOL    HW116436   3.981   0.243   3.187
 5252SOL    HW216437   4.020   0.110   3.127
 5253SOL     OW16438   3.769   1.311   3.138
 5253SOL    HW116439   3.803   1.256   3.210
 5253SOL    HW216440   3.777   1.400   3.171
 5254SOL     OW16441   4.450   0.632   2.922
 5254SOL    HW116442   4.523   0.615   2.863
 5254SOL    HW216443   4.421   0.720   2.899
 5255SOL     OW16444   4.027   0.072   2.513
 5255SOL    HW116445   4.010   0.166   2.521
 5255SOL    HW216446   4.070   0.049   2.595
 5256SOL     OW16447   0.028   0.407   2.227
 5256SOL    HW116448   0.059   0.345   2.293
 5256SOL    HW216449   0.006   0.486   2.276
 5257SOL     OW16450   4.752   0.759   2.822
 5257SOL    HW116451   4.749   0.777   2.917
 5257SOL    HW216452   4.725   0.667   2.815
 5258SOL     OW16453   4.698   1.561   3.576
 5258SOL    HW116454   4.687   1.609   3.493
 5258SOL    HW216455   4.746   1.482   3.551
 5259SOL     OW16456   4.077   0.916   3.671
 5259SOL    HW116457   4.160   0.935   3.716
 5259SOL    HW216458   4.101   0.853   3.602
 5260SOL     OW16459   5.028   0.829   1.899
 5260SOL    HW116460   5.063   0.740   1.899
 5260SOL    HW216461   5.054   0.865   1.814
 5261SOL     OW16462   4.789   1.334   2.717
 5261SOL    HW116463   4.793   1.262   2.654
 5261SOL    HW216464   4.847   1.401   2.681
 5262SOL     OW16465   4.033   0.809   2.810
 5262SOL    HW116466   4.126   0.830   2.802
 5262SOL    HW216467   4.031   0.719   2.842
 5263SOL     OW16468   4.056   0.526   2.874
 5263SOL    HW116469   4.020   0.439   2.859
 5263SOL    HW216470   4.133   0.530   2.817
 5264SOL     OW16471   4.862   0.377   3.552
 5264SOL    HW116472   4.812   0.432   3.613
 5264SOL    HW216473   4.946   0.422   3.543
 5265SOL     OW16474   4.847   0.233   3.320
 5265SOL    HW116475   4.859   0.283   3.401
 5265SOL    HW216476   4.912   0.270   3.260
 5266SOL     OW16477   3.729   1.321   2.057
 5266SOL    HW116478   3.642   1.335   2.019
 5266SOL    HW216479   3.726   1.232   2.091
 5267SOL     OW16480   3.814   1.786   2.800
 5267SOL    HW116481   3.785   1.706   2.756
 5267SOL    HW216482   3.904   1.799   2.769
 5268SOL     OW16483   4.221   1.574   2.768
 5268SOL    HW116484   4.289   1.636   2.792
 5268SOL    HW216485   4.265   1.510   2.711
 5269SOL     OW16486   4.707   0.794   3.089
 5269SOL    HW116487   4.762   0.769   3.164
 5269SOL    HW216488   4.622   0.754   3.108
 5270SOL     OW16489   3.759   0.544   2.979
 5270SOL    HW116490   3.839   0.529   2.928
 5270SOL    HW216491   3.789   0.548   3.070
 5271SOL     OW16492   3.911   0.522   3.589
 5271SOL    HW116493   3.974   0.486   3.526
 5271SOL    HW216494   3.871   0.596   3.543
 5272SOL     OW16495   5.112   0.938   3.528
 5272SOL    HW116496   5.121   1.032   3.516
 5272SOL    HW216497   5.115   0.902   3.439
 5273SOL     OW16498   4.539   0.573   2.222
 5273SOL    HW116499   4.541   0.498   2.163
 5273SOL    HW216500   4.464   0.625   2.192
 5274SOL     OW16501   3.968   1.551   3.589
 5274SOL    HW116502   3.945   1.616   3.656
 5274SOL    HW216503   3.969   1.468   3.636
 5275SOL     OW16504   4.422   0.452   3.123
 5275SOL    HW116505   4.371   0.378   3.089
 5275SOL    HW216506   4.422   0.516   3.051
 5276SOL     OW16507   4.645   1.680   3.330
 5276SOL    HW116508   4.623   1.647   3.243
 5276SOL    HW216509   4.646   1.775   3.321
 5277SOL     OW16510   4.187   0.493   2.046
 5277SOL    HW116511   4.247   0.564   2.069
 5277SOL    HW216512   4.102   0.535   2.036
 5278SOL     OW16513   3.870   1.140   3.334
 5278SOL    HW116514   3.872   1.089   3.415
 5278SOL    HW216515   3.887   1.077   3.265
 5279SOL     OW16516   5.054   1.049   3.086
 5279SOL    HW116517   5.075   0.985   3.019
 5279SOL    HW216518   4.982   1.100   3.049
 5280SOL     OW16519   5.035   0.858   2.178
 5280SOL    HW116520   4.953   0.827   2.216
 5280SOL    HW216521   5.023   0.851   2.084
 5281SOL     OW16522   4.960   1.731   2.983
 5281SOL    HW116523   5.046   1.752   2.946
 5281SOL    HW216524   4.960   1.636   2.993
 5282SOL     OW16525   3.808   1.267   2.874
 5282SOL    HW116526   3.793   1.279   2.968
 5282SOL    HW216527   3.735   1.212   2.846
 5283SOL     OW16528   4.401   1.665   3.590
 5283SOL    HW116529   4.349   1.745   3.584
 5283SOL    HW216530   4.469   1.676   3.524
 5284SOL     OW16531   5.111   1.570   2.342
 5284SOL    HW116532   5.181   1.611   2.291
 5284SOL    HW216533   5.061   1.644   2.377
 5285SOL     OW16534   3.861   1.796   3.705
 5285SOL    HW116535   3.810   1.731   3.754
 5285SOL    HW216536   3.908   1.844   3.773
 5286SOL     OW16537   5.016   0.920   2.534
 5286SOL    HW116538   5.093   0.865   2.521
 5286SOL    HW216539   5.035   1.000   2.486
 5287SOL     OW16540   4.538   1.273   3.292
 5287SOL    HW116541   4.510   1.313   3.375
 5287SOL    HW216542   4.469   1.296   3.230
 5288SOL     OW16543   4.395   1.620   2.017
 5288SOL    HW116544   4.406   1.632   1.923
 5288SOL    HW216545   4.340   1.542   2.025
 5289SOL     OW16546   3.986   0.329   2.581
 5289SOL    HW116547   3.898   0.360   2.559
 5289SOL    HW216548   3.984   0.317   2.676
 5290SOL     OW16549   4.909   1.609   1.903
 5290SOL    HW116550   4.920   1.515   1.914
 5290SOL    HW216551   4.854   1.618   1.825
 5291SOL     OW16552   4.548   1.006   3.235
 5291SOL    HW116553   4.591   1.001   3.150
 5291SOL    HW216554   4.547   1.099   3.256
 5292SOL     OW16555   4.641   0.912   2.152
 5292SOL    HW116556   4.702   0.943   2.086
 5292SOL    HW216557   4.687   0.840   2.196
 5293SOL     OW16558   4.093   1.303   3.354
 5293SOL    HW116559   4.080   1.380   3.299
 5293SOL    HW216560   4.016   1.248   3.337
 5294SOL     OW16561   4.776   1.107   2.569
 5294SOL    HW116562   4.705   1.057   2.609
 5294SOL    HW216563   4.833   1.040   2.531
 5295SOL     OW16564   4.738   0.242   2.833
 5295SOL    HW116565   4.720   0.197   2.750
 5295SOL    HW216566   4.733   0.174   2.900
 5296SOL     OW16567   4.327   1.488   2.344
 5296SOL    HW116568   4.371   1.438   2.275
 5296SOL    HW216569   4.258   1.536   2.298
 5297SOL     OW16570   3.983   1.345   2.150
 5297SOL    HW116571   3.890   1.343   2.128
 5297SOL    HW216572   3.986   1.382   2.238
 5298SOL     OW16573   3.837   1.022   3.582
 5298SOL    HW116574   3.760   0.998   3.634
 5298SOL    HW216575   3.911   0.984   3.628
 5299SOL     OW16576   4.396   0.212   3.352
 5299SOL    HW116577   4.479   0.192   3.308
 5299SOL    HW216578   4.422   0.260   3.430
 5300SOL     OW16579   3.801   0.340   1.904
 5300SOL    HW116580   3.718   0.306   1.870
 5300SOL    HW216581   3.822   0.413   1.846
 5301SOL     OW16582   5.163   0.860   3.265
 5301SOL    HW116583   5.110   0.916   3.209
 5301SOL    HW216584   5.252   0.870   3.232
 5302SOL     OW16585   3.796   0.167   2.177
 5302SOL    HW116586   3.797   0.250   2.129
 5302SOL    HW216587   3.881   0.127   2.158
 5303SOL     OW16588   4.907   1.329   1.976
 5303SOL    HW116589   4.813   1.311   1.977
 5303SOL    HW216590   4.931   1.336   2.068
 5304SOL     OW16591   4.343   0.831   3.295
 5304SOL    HW116592   4.399   0.907   3.280
 5304SOL    HW216593   4.404   0.757   3.303
 5305SOL     OW16594   4.440   0.571   3.565
 5305SOL    HW116595   4.480   0.633   3.626
 5305SOL    HW216596   4.469   0.485   3.595
 5306SOL     OW16597   5.182   1.204   3.494
 5306SOL    HW116598   5.173   1.217   3.589
 5306SOL    HW216599   5.276   1.212   3.478
 5307SOL     OW16600   4.104   1.739   3.426
 5307SOL    HW116601   4.018   1.781   3.412
 5307SOL    HW216602   4.083   1.656   3.468
 5308SOL     OW16603   4.941   0.323   2.323
 5308SOL    HW116604   4.997   0.246   2.316
 5308SOL    HW216605   4.972   0.368   2.402
 5309SOL     OW16606   4.314   0.738   2.531
 5309SOL    HW116607   4.353   0.824   2.515
 5309SOL    HW216608   4.246   0.730   2.465
 5310SOL     OW16609   4.591   1.366   1.897
 5310SOL    HW116610   4.549   1.396   1.978
 5310SOL    HW216611   4.606   1.447   1.847
 5311SOL     OW16612   4.384   1.791   2.806
 5311SOL    HW116613   4.364   1.882   2.784
 5311SOL    HW216614   4.479   1.785   2.800
 5312SOL     OW16615   4.592   0.967   2.717
 5312SOL    HW116616   4.641   0.895   2.757
 5312SOL    HW216617   4.557   1.016   2.792
 5313SOL     OW16618   4.807   0.988   1.952
 5313SOL    HW116619   4.782   1.037   1.874
 5313SOL    HW216620   4.881   0.934   1.924
 5314SOL     OW16621   3.949   1.303   3.718
 5314SOL    HW116622   3.882   1.242   3.688
 5314SOL    HW216623   3.931   1.315   3.811
 5315SOL     OW16624   3.808   1.234   2.527
 5315SOL    HW116625   3.813   1.185   2.609
 5315SOL    HW216626   3.876   1.195   2.472
 5316SOL     OW16627   4.405   1.402   3.491
 5316SOL    HW116628   4.325   1.360   3.521
 5316SOL    HW216629   4.401   1.490   3.526
 5317SOL     OW16630   4.154   0.436   2.386
 5317SOL    HW116631   4.186   0.363   2.332
 5317SOL    HW216632   4.107   0.393   2.458
 5318SOL     OW16633   0.095   1.521   2.961
 5318SOL    HW116634   0.028   1.496   2.898
 5318SOL    HW216635   0.102   1.445   3.019
 5319SOL     OW16636   4.052   0.556   3.152
 5319SOL    HW116637   4.109   0.501   3.207
 5319SOL    HW216638   4.073   0.528   3.063
 5320SOL     OW16639   4.552   1.577   2.539
 5320SOL    HW116640   4.540   1.631   2.461
 5320SOL    HW216641   4.474   1.521   2.542
 5321SOL     OW16642   5.150   0.216   2.982
 5321SOL    HW116643   5.159   0.133   3.030
 5321SOL    HW216644   5.104   0.274   3.043
 5322SOL     OW16645   4.725   0.021   3.002
 5322SOL    HW116646   4.674   5.251   2.960
 5322SOL    HW216647   4.812   5.283   3.013
 5323SOL     OW16648   4.495   1.333   2.177
 5323SOL    HW116649   4.464   1.242   2.183
 5323SOL    HW216650   4.577   1.333   2.225
 5324SOL     OW16651   4.344   1.556   3.147
 5324SOL    HW116652   4.346   1.639   3.196
 5324SOL    HW216653   4.431   1.549   3.109
 5325SOL     OW16654   5.035   0.034   2.022
 5325SOL    HW116655   5.117   0.027   1.972
 5325SOL    HW216656   4.984   5.258   1.995
 5326SOL     OW16657   5.029   0.461   2.548
 5326SOL    HW116658   4.972   0.538   2.552
 5326SOL    HW216659   5.016   0.418   2.632
 5327SOL     OW16660   5.295   0.214   2.745
 5327SOL    HW116661   5.237   0.215   2.820
 5327SOL    HW216662   5.276   0.295   2.698
 5328SOL     OW16663   3.768   1.071   2.168
 5328SOL    HW116664   3.861   1.063   2.150
 5328SOL    HW216665   3.739   0.982   2.191
 5329SOL     OW16666   4.604   1.650   2.208
 5329SOL    HW116667   4.533   1.635   2.145
 5329SOL    HW216668   4.576   1.727   2.257
 5330SOL     OW16669   3.952   0.626   3.847
 5330SOL    HW116670   3.863   0.622   3.882
 5330SOL    HW216671   3.943   0.599   3.755
 5331SOL     OW16672   3.942   0.284   4.717
 5331SOL    HW116673   3.971   0.249   4.801
 5331SOL    HW216674   3.857   0.243   4.701
 5332SOL     OW16675   3.728   0.386   4.362
 5332SOL    HW116676   3.644   0.407   4.402
 5332SOL    HW216677   3.711   0.309   4.309
 5333SOL     OW16678   4.291   1.287   4.899
 5333SOL    HW116679   4.203   1.291   4.861
 5333SOL    HW216680   4.306   1.376   4.932
 5334SOL     OW16681   5.285   1.535   4.430
 5334SOL    HW116682   5.246   1.492   4.506
 5334SOL    HW216683   5.220   1.527   4.361
 5335SOL     OW16684   4.859   0.698   4.425
 5335SOL    HW116685   4.909   0.780   4.415
 5335SOL    HW216686   4.809   0.710   4.506
 5336SOL     OW16687   4.480   1.142   4.765
 5336SOL    HW116688   4.410   1.177   4.821
 5336SOL    HW216689   4.514   1.220   4.720
 5337SOL     OW16690   4.592   0.777   5.547
 5337SOL    HW116691   4.574   0.849   5.608
 5337SOL    HW216692   4.614   0.820   5.465
 5338SOL     OW16693   4.411   1.003   4.371
 5338SOL    HW116694   4.475   0.991   4.441
 5338SOL    HW216695   4.341   1.055   4.411
 5339SOL     OW16696   4.435   1.151   5.536
 5339SOL    HW116697   4.482   1.230   5.563
 5339SOL    HW216698   4.352   1.184   5.501
 5340SOL     OW16699   4.055   1.426   4.792
 5340SOL    HW116700   3.982   1.388   4.741
 5340SOL    HW216701   4.105   1.476   4.728
 5341SOL     OW16702   5.161   1.481   5.075
 5341SOL    HW116703   5.206   1.561   5.100
 5341SOL    HW216704   5.105   1.460   5.150
 5342SOL     OW16705   4.168   0.398   5.210
 5342SOL    HW116706   4.244   0.339   5.209
 5342SOL    HW216707   4.093   0.341   5.226
 5343SOL     OW16708   3.943   1.714   4.196
 5343SOL    HW116709   3.965   1.790   4.250
 5343SOL    HW216710   4.016   1.706   4.134
 5344SOL     OW16711   4.860   1.340   5.418
 5344SOL    HW116712   4.898   1.336   5.505
 5344SOL    HW216713   4.807   1.260   5.411
 5345SOL     OW16714   3.954   1.441   4.259
 5345SOL    HW116715   3.937   1.535   4.263
 5345SOL    HW216716   3.894   1.404   4.323
 5346SOL     OW16717   3.981   1.090   4.615
 5346SOL    HW116718   3.978   1.004   4.656
 5346SOL    HW216719   3.923   1.144   4.669
 5347SOL     OW16720   4.334   1.792   5.151
 5347SOL    HW116721   4.253   1.774   5.199
 5347SOL    HW216722   4.358   1.881   5.177
 5348SOL     OW16723   4.310   0.981   3.858
 5348SOL    HW116724   4.355   1.031   3.790
 5348SOL    HW216725   4.349   1.012   3.940
 5349SOL     OW16726   5.250   0.145   5.203
 5349SOL    HW116727   5.299   0.225   5.184
 5349SOL    HW216728   5.276   0.122   5.292
 5350SOL     OW16729   3.838   0.653   4.283
 5350SOL    HW116730   3.811   0.564   4.304
 5350SOL    HW216731   3.831   0.701   4.366
 5351SOL     OW16732   3.755   1.595   3.848
 5351SOL    HW116733   3.739   1.503   3.868
 5351SOL    HW216734   3.732   1.642   3.929
 5352SOL     OW16735   0.112   0.940   4.300
 5352SOL    HW116736   0.200   0.904   4.315
 5352SOL    HW216737   0.128   1.025   4.260
 5353SOL     OW16738   3.847   0.744   5.308
 5353SOL    HW116739   3.938   0.769   5.317
 5353SOL    HW216740   3.798   0.826   5.317
 5354SOL     OW16741   4.337   1.385   4.459
 5354SOL    HW116742   4.291   1.302   4.468
 5354SOL    HW216743   4.321   1.412   4.369
 5355SOL     OW16744   5.007   1.237   5.149
 5355SOL    HW116745   5.040   1.170   5.089
 5355SOL    HW216746   5.062   1.229   5.227
 5356SOL     OW16747   4.535   0.026   4.253
 5356SOL    HW116748   4.563   0.114   4.227
 5356SOL    HW216749   4.439   0.029   4.246
 5357SOL     OW16750   3.914   0.967   4.994
 5357SOL    HW116751   3.999   0.925   4.980
 5357SOL    HW216752   3.852   0.911   4.948
 5358SOL     OW16753   4.897   1.807   5.347
 5358SOL    HW116754   4.918   1.866   5.275
 5358SOL    HW216755   4.919   1.720   5.315
 5359SOL     OW16756   4.050   0.266   5.534
 5359SOL    HW116757   4.102   0.341   5.563
 5359SOL    HW216758   3.964   0.281   5.574
 5360SOL     OW16759   5.169   1.435   4.661
 5360SOL    HW116760   5.106   1.442   4.733
 5360SOL    HW216761   5.162   1.344   4.632
 5361SOL     OW16762   4.319   0.722   3.990
 5361SOL    HW116763   4.324   0.803   3.940
 5361SOL    HW216764   4.253   0.739   4.058
 5362SOL     OW16765   4.997   0.329   4.642
 5362SOL    HW116766   4.907   0.305   4.666
 5362SOL    HW216767   5.050   0.301   4.717
 5363SOL     OW16768   4.518   0.618   5.174
 5363SOL    HW116769   4.490   0.596   5.263
 5363SOL    HW216770   4.476   0.552   5.119
 5364SOL     OW16771   5.117   0.486   5.403
 5364SOL    HW116772   5.118   0.521   5.493
 5364SOL    HW216773   5.182   0.417   5.403
 5365SOL     OW16774   4.679   0.888   5.306
 5365SOL    HW116775   4.731   0.816   5.271
 5365SOL    HW216776   4.631   0.922   5.231
 5366SOL     OW16777   4.718   0.422   4.955
 5366SOL    HW116778   4.634   0.437   4.998
 5366SOL    HW216779   4.697   0.367   4.880
 5367SOL     OW16780   4.775   0.697   4.149
 5367SOL    HW116781   4.790   0.691   4.244
 5367SOL    HW216782   4.692   0.652   4.135
 5368SOL     OW16783   3.812   0.821   4.501
 5368SOL    HW116784   3.893   0.813   4.551
 5368SOL    HW216785   3.770   0.899   4.535
 5369SOL     OW16786   3.852   1.847   5.302
 5369SOL    HW116787   3.851   1.826   5.395
 5369SOL    HW216788   3.760   1.841   5.275
 5370SOL     OW16789   4.598   0.362   3.914
 5370SOL    HW116790   4.635   0.419   3.846
 5370SOL    HW216791   4.650   0.282   3.909
 5371SOL     OW16792   5.092   1.146   4.271
 5371SOL    HW116793   5.180   1.147   4.233
 5371SOL    HW216794   5.041   1.206   4.216
 5372SOL     OW16795   4.250   0.202   4.606
 5372SOL    HW116796   4.272   0.216   4.698
 5372SOL    HW216797   4.272   0.284   4.563
 5373SOL     OW16798   4.730   1.443   4.196
 5373SOL    HW116799   4.692   1.516   4.147
 5373SOL    HW216800   4.713   1.465   4.288
 5374SOL     OW16801   4.078   1.809   4.587
 5374SOL    HW116802   4.122   1.724   4.594
 5374SOL    HW216803   4.146   1.873   4.605
 5375SOL     OW16804   4.940   1.542   5.243
 5375SOL    HW116805   4.927   1.469   5.303
 5375SOL    HW216806   4.883   1.523   5.169
 5376SOL     OW16807   4.044   0.957   3.974
 5376SOL    HW116808   4.126   0.976   3.928
 5376SOL    HW216809   4.013   0.875   3.935
 5377SOL     OW16810   4.190   1.264   5.462
 5377SOL    HW116811   4.163   1.269   5.370
 5377SOL    HW216812   4.108   1.262   5.511
 5378SOL     OW16813   4.832   1.775   3.961
 5378SOL    HW116814   4.760   1.730   4.005
 5378SOL    HW216815   4.857   1.715   3.890
 5379SOL     OW16816   3.921   0.278   5.226
 5379SOL    HW116817   3.842   0.331   5.223
 5379SOL    HW216818   3.913   0.229   5.309
 5380SOL     OW16819   4.190   1.737   4.045
 5380SOL    HW116820   4.232   1.794   4.109
 5380SOL    HW216821   4.261   1.707   3.989
 5381SOL     OW16822   5.098   0.099   4.144
 5381SOL    HW116823   5.084   0.082   4.051
 5381SOL    HW216824   5.192   0.118   4.151
 5382SOL     OW16825   3.982   1.792   4.956
 5382SOL    HW116826   4.033   1.726   5.003
 5382SOL    HW216827   3.970   1.755   4.868
 5383SOL     OW16828   4.662   1.698   4.623
 5383SOL    HW116829   4.741   1.648   4.641
 5383SOL    HW216830   4.617   1.649   4.554
 5384SOL     OW16831   4.117   0.696   4.200
 5384SOL    HW116832   4.138   0.603   4.211
 5384SOL    HW216833   4.023   0.701   4.218
 5385SOL     OW16834   4.346   0.133   3.832
 5385SOL    HW116835   4.418   0.073   3.850
 5385SOL    HW216836   4.297   0.091   3.761
 5386SOL     OW16837   4.508   0.311   5.491
 5386SOL    HW116838   4.571   0.239   5.490
 5386SOL    HW216839   4.458   0.299   5.572
 5387SOL     OW16840   4.599   1.521   4.918
 5387SOL    HW116841   4.585   1.486   4.830
 5387SOL    HW216842   4.670   1.467   4.954
 5388SOL     OW16843   5.060   0.591   5.155
 5388SOL    HW116844   5.090   0.561   5.241
 5388SOL    HW216845   5.099   0.678   5.146
 5389SOL     OW16846   4.538   1.395   4.663
 5389SOL    HW116847   4.623   1.384   4.619
 5389SOL    HW216848   4.474   1.396   4.592
 5390SOL     OW16849   4.651   0.511   4.627
 5390SOL    HW116850   4.628   0.501   4.534
 5390SOL    HW216851   4.682   0.424   4.653
 5391SOL     OW16852   4.266   0.062   4.233
 5391SOL    HW116853   4.180   0.061   4.275
 5391SOL    HW216854   4.259   0.132   4.167
 5392SOL     OW16855   5.136   1.180   3.768
 5392SOL    HW116856   5.146   1.103   3.823
 5392SOL    HW216857   5.049   1.214   3.788
 5393SOL     OW16858   4.026   0.062   3.915
 5393SOL    HW116859   4.084   0.131   3.884
 5393SOL    HW216860   4.082   5.285   3.925
 5394SOL     OW16861   4.661   0.262   4.187
 5394SOL    HW116862   4.632   0.295   4.102
 5394SOL    HW216863   4.756   0.276   4.187
 5395SOL     OW16864   4.802   0.681   5.185
 5395SOL    HW116865   4.733   0.615   5.187
 5395SOL    HW216866   4.883   0.630   5.174
 5396SOL     OW16867   4.940   1.571   4.518
 5396SOL    HW116868   4.963   1.638   4.453
 5396SOL    HW216869   5.020   1.560   4.569
 5397SOL     OW16870   4.193   1.149   4.458
 5397SOL    HW116871   4.123   1.130   4.521
 5397SOL    HW216872   4.153   1.133   4.372
 5398SOL     OW16873   4.996   1.794   4.329
 5398SOL    HW116874   5.038   1.855   4.269
 5398SOL    HW216875   4.929   1.846   4.374
 5399SOL     OW16876   4.753   0.550   3.743
 5399SOL    HW116877   4.705   0.632   3.726
 5399SOL    HW216878   4.807   0.570   3.820
 5400SOL     OW16879   3.803   0.553   5.117
 5400SOL    HW116880   3.894   0.553   5.089
 5400SOL    HW216881   3.797   0.624   5.181
 5401SOL     OW16882   4.280   0.238   4.882
 5401SOL    HW116883   4.312   0.152   4.911
 5401SOL    HW216884   4.188   0.239   4.908
 5402SOL     OW16885   4.593   0.464   4.364
 5402SOL    HW116886   4.544   0.516   4.301
 5402SOL    HW216887   4.613   0.383   4.318
 5403SOL     OW16888   4.699   0.063   4.487
 5403SOL    HW116889   4.635   0.054   4.416
 5403SOL    HW216890   4.714   5.273   4.517
 5404SOL     OW16891   5.157   1.176   4.575
 5404SOL    HW116892   5.101   1.100   4.588
 5404SOL    HW216893   5.169   1.181   4.480
 5405SOL     OW16894   4.215   1.418   3.881
 5405SOL    HW116895   4.140   1.389   3.933
 5405SOL    HW216896   4.200   1.380   3.794
 5406SOL     OW16897   5.128   0.559   3.805
 5406SOL    HW116898   5.052   0.551   3.863
 5406SOL    HW216899   5.202   0.531   3.859
 5407SOL     OW16900   4.248   0.265   4.046
 5407SOL    HW116901   4.291   0.215   3.977
 5407SOL    HW216902   4.227   0.349   4.005
 5408SOL     OW16903   4.781   1.354   5.057
 5408SOL    HW116904   4.706   1.323   5.108
 5408SOL    HW216905   4.856   1.311   5.098
 5409SOL     OW16906   0.006   1.604   5.341
 5409SOL    HW116907   0.040   1.609   5.251
 5409SOL    HW216908   0.083   1.584   5.394
 5410SOL     OW16909   4.853   1.203   4.831
 5410SOL    HW116910   4.791   1.239   4.895
 5410SOL    HW216911   4.819   1.232   4.746
 5411SOL     OW16912   4.625   0.104   5.111
 5411SOL    HW116913   4.658   0.070   5.028
 5411SOL    HW216914   4.700   0.148   5.151
 5412SOL     OW16915   4.709   1.113   5.449
 5412SOL    HW116916   4.617   1.130   5.469
 5412SOL    HW216917   4.706   1.036   5.392
 5413SOL     OW16918   4.432   1.062   4.095
 5413SOL    HW116919   4.418   1.045   4.188
 5413SOL    HW216920   4.508   1.008   4.072
 5414SOL     OW16921   4.142   0.815   4.975
 5414SOL    HW116922   4.211   0.824   5.042
 5414SOL    HW216923   4.107   0.727   4.989
 5415SOL     OW16924   4.991   0.380   4.993
 5415SOL    HW116925   5.024   0.458   5.038
 5415SOL    HW216926   4.901   0.402   4.972
 5416SOL     OW16927   3.793   1.574   5.076
 5416SOL    HW116928   3.762   1.644   5.019
 5416SOL    HW216929   3.889   1.579   5.071
 5417SOL     OW16930   4.073   1.109   4.215
 5417SOL    HW116931   4.078   1.182   4.153
 5417SOL    HW216932   4.071   1.031   4.159
 5418SOL     OW16933   4.278   0.538   4.585
 5418SOL    HW116934   4.293   0.596   4.510
 5418SOL    HW216935   4.343   0.564   4.649
 5419SOL     OW16936   4.972   1.349   4.111
 5419SOL    HW116937   5.026   1.422   4.142
 5419SOL    HW216938   4.884   1.369   4.145
 5420SOL     OW16939   4.994   1.456   4.863
 5420SOL    HW116940   5.049   1.458   4.942
 5420SOL    HW216941   4.940   1.378   4.874
 5421SOL     OW16942   4.071   1.527   5.039
 5421SOL    HW116943   4.058   1.484   4.954
 5421SOL    HW216944   4.165   1.539   5.046
 5422SOL     OW16945   4.138   0.744   5.326
 5422SOL    HW116946   4.200   0.789   5.268
 5422SOL    HW216947   4.179   0.660   5.343
 5423SOL     OW16948   4.753   0.117   5.481
 5423SOL    HW116949   4.796   0.199   5.454
 5423SOL    HW216950   4.793   0.050   5.426
 5424SOL     OW16951   4.203   0.058   5.461
 5424SOL    HW116952   4.145   5.293   5.421
 5424SOL    HW216953   4.147   0.131   5.484
 5425SOL     OW16954   4.308   0.873   4.755
 5425SOL    HW116955   4.337   0.964   4.754
 5425SOL    HW216956   4.251   0.867   4.832
 5426SOL     OW16957   5.086   0.857   4.761
 5426SOL    HW116958   5.008   0.840   4.707
 5426SOL    HW216959   5.137   0.777   4.756
 5427SOL     OW16960   4.929   0.531   3.990
 5427SOL    HW116961   4.933   0.451   4.042
 5427SOL    HW216962   4.885   0.594   4.047
 5428SOL     OW16963   4.020   0.204   4.971
 5428SOL    HW116964   3.981   0.243   5.049
 5428SOL    HW216965   4.020   0.110   4.989
 5429SOL     OW16966   3.769   1.311   5.001
 5429SOL    HW116967   3.802   1.257   5.071
 5429SOL    HW216968   3.777   1.401   5.033
 5430SOL     OW16969   4.450   0.632   4.784
 5430SOL    HW116970   4.523   0.615   4.725
 5430SOL    HW216971   4.421   0.720   4.761
 5431SOL     OW16972   4.027   0.072   4.375
 5431SOL    HW116973   4.010   0.166   4.383
 5431SOL    HW216974   4.070   0.049   4.457
 5432SOL     OW16975   0.028   0.407   4.089
 5432SOL    HW116976   0.059   0.345   4.155
 5432SOL    HW216977   0.006   0.486   4.138
 5433SOL     OW16978   4.752   0.759   4.684
 5433SOL    HW116979   4.749   0.777   4.779
 5433SOL    HW216980   4.725   0.667   4.677
 5434SOL     OW16981   4.698   1.561   5.438
 5434SOL    HW116982   4.687   1.609   5.355
 5434SOL    HW216983   4.746   1.482   5.413
 5435SOL     OW16984   4.077   0.916   5.532
 5435SOL    HW116985   4.159   0.935   5.578
 5435SOL    HW216986   4.101   0.853   5.464
 5436SOL     OW16987   5.028   0.829   3.761
 5436SOL    HW116988   5.063   0.740   3.761
 5436SOL    HW216989   5.054   0.865   3.676
 5437SOL     OW16990   4.789   1.334   4.579
 5437SOL    HW116991   4.793   1.262   4.516
 5437SOL    HW216992   4.847   1.401   4.543
 5438SOL     OW16993   4.033   0.809   4.672
 5438SOL    HW116994   4.126   0.830   4.664
 5438SOL    HW216995   4.031   0.719   4.704
 5439SOL     OW16996   4.056   0.526   4.736
 5439SOL    HW116997   4.020   0.439   4.721
 5439SOL    HW216998   4.133   0.530   4.679
 5440SOL     OW16999   4.861   0.377   5.414
 5440SOL    HW117000   4.812   0.432   5.475
 5440SOL    HW217001   4.946   0.422   5.405
 5441SOL     OW17002   4.847   0.233   5.183
 5441SOL    HW117003   4.859   0.283   5.263
 5441SOL    HW217004   4.912   0.270   5.122
 5442SOL     OW17005   3.729   1.321   3.920
 5442SOL    HW117006   3.642   1.335   3.882
 5442SOL    HW217007   3.726   1.232   3.953
 5443SOL     OW17008   3.811   1.792   4.658
 5443SOL    HW117009   3.783   1.711   4.617
 5443SOL    HW217010   3.902   1.803   4.630
 5444SOL     OW17011   4.221   1.574   4.630
 5444SOL    HW117012   4.289   1.636   4.654
 5444SOL    HW217013   4.265   1.510   4.573
 5445SOL     OW17014   4.707   0.793   4.951
 5445SOL    HW117015   4.762   0.769   5.025
 5445SOL    HW217016   4.622   0.754   4.970
 5446SOL     OW17017   3.759   0.544   4.841
 5446SOL    HW117018   3.839   0.529   4.790
 5446SOL    HW217019   3.789   0.548   4.932
 5447SOL     OW17020   3.911   0.522   5.451
 5447SOL    HW117021   3.974   0.486   5.388
 5447SOL    HW217022   3.871   0.596   5.405
 5448SOL     OW17023   5.112   0.938   5.390
 5448SOL    HW117024   5.121   1.032   5.378
 5448SOL    HW217025   5.115   0.902   5.301
 5449SOL     OW17026   4.539   0.573   4.084
 5449SOL    HW117027   4.541   0.497   4.025
 5449SOL    HW217028   4.464   0.625   4.054
 5450SOL     OW17029   3.967   1.551   5.452
 5450SOL    HW117030   3.945   1.616   5.519
 5450SOL    HW217031   3.969   1.468   5.498
 5451SOL     OW17032   4.422   0.452   4.985
 5451SOL    HW117033   4.371   0.378   4.951
 5451SOL    HW217034   4.422   0.516   4.913
 5452SOL     OW17035   4.645   1.680   5.192
 5452SOL    HW117036   4.623   1.647   5.105
 5452SOL    HW217037   4.646   1.775   5.183
 5453SOL     OW17038   4.187   0.493   3.908
 5453SOL    HW117039   4.247   0.564   3.931
 5453SOL    HW217040   4.102   0.535   3.898
 5454SOL     OW17041   3.870   1.140   5.196
 5454SOL    HW117042   3.872   1.089   5.277
 5454SOL    HW217043   3.887   1.077   5.126
 5455SOL     OW17044   5.054   1.049   4.948
 5455SOL    HW117045   5.075   0.985   4.881
 5455SOL    HW217046   4.982   1.100   4.911
 5456SOL     OW17047   5.035   0.858   4.040
 5456SOL    HW117048   4.953   0.827   4.078
 5456SOL    HW217049   5.023   0.851   3.946
 5457SOL     OW17050   4.960   1.731   4.845
 5457SOL    HW117051   5.046   1.752   4.808
 5457SOL    HW217052   4.960   1.636   4.855
 5458SOL     OW17053   3.808   1.267   4.736
 5458SOL    HW117054   3.793   1.279   4.830
 5458SOL    HW217055   3.735   1.211   4.708
 5459SOL     OW17056   4.401   1.665   5.452
 5459SOL    HW117057   4.349   1.745   5.446
 5459SOL    HW217058   4.469   1.676   5.386
 5460SOL     OW17059   5.111   1.570   4.204
 5460SOL    HW117060   5.181   1.611   4.153
 5460SOL    HW217061   5.061   1.644   4.239
 5461SOL     OW17062   3.859   1.797   5.567
 5461SOL    HW117063   3.809   1.731   5.616
 5461SOL    HW217064   3.908   1.844   5.635
 5462SOL     OW17065   5.016   0.920   4.396
 5462SOL    HW117066   5.093   0.865   4.383
 5462SOL    HW217067   5.035   1.000   4.348
 5463SOL     OW17068   4.538   1.273   5.154
 5463SOL    HW117069   4.510   1.313   5.237
 5463SOL    HW217070   4.469   1.296   5.092
 5464SOL     OW17071   4.395   1.620   3.879
 5464SOL    HW117072   4.406   1.632   3.785
 5464SOL    HW217073   4.340   1.542   3.887
 5465SOL     OW17074   3.986   0.329   4.443
 5465SOL    HW117075   3.898   0.360   4.421
 5465SOL    HW217076   3.984   0.317   4.538
 5466SOL     OW17077   4.908   1.609   3.765
 5466SOL    HW117078   4.920   1.515   3.776
 5466SOL    HW217079   4.854   1.618   3.687
 5467SOL     OW17080   4.548   1.006   5.097
 5467SOL    HW117081   4.591   1.001   5.012
 5467SOL    HW217082   4.547   1.099   5.118
 5468SOL     OW17083   4.641   0.912   4.014
 5468SOL    HW117084   4.702   0.943   3.948
 5468SOL    HW217085   4.687   0.840   4.058
 5469SOL     OW17086   4.093   1.303   5.216
 5469SOL    HW117087   4.080   1.380   5.161
 5469SOL    HW217088   4.016   1.248   5.199
 5470SOL     OW17089   4.776   1.107   4.431
 5470SOL    HW117090   4.705   1.057   4.471
 5470SOL    HW217091   4.833   1.040   4.393
 5471SOL     OW17092   4.738   0.242   4.695
 5471SOL    HW117093   4.720   0.197   4.613
 5471SOL    HW217094   4.733   0.174   4.762
 5472SOL     OW17095   4.326   1.488   4.206
 5472SOL    HW117096   4.371   1.438   4.137
 5472SOL    HW217097   4.258   1.537   4.159
 5473SOL     OW17098   3.983   1.345   4.012
 5473SOL    HW117099   3.890   1.343   3.990
 5473SOL    HW217100   3.986   1.382   4.100
 5474SOL     OW17101   3.836   1.022   5.443
 5474SOL    HW117102   3.760   0.999   5.496
 5474SOL    HW217103   3.911   0.984   5.490
 5475SOL     OW17104   4.396   0.212   5.214
 5475SOL    HW117105   4.479   0.192   5.170
 5475SOL    HW217106   4.422   0.260   5.292
 5476SOL     OW17107   3.801   0.340   3.766
 5476SOL    HW117108   3.718   0.306   3.732
 5476SOL    HW217109   3.822   0.413   3.708
 5477SOL     OW17110   5.163   0.860   5.127
 5477SOL    HW117111   5.110   0.916   5.071
 5477SOL    HW217112   5.252   0.870   5.094
 5478SOL     OW17113   3.796   0.167   4.039
 5478SOL    HW117114   3.797   0.249   3.991
 5478SOL    HW217115   3.881   0.127   4.020
 5479SOL     OW17116   4.907   1.329   3.838
 5479SOL    HW117117   4.813   1.311   3.839
 5479SOL    HW217118   4.931   1.336   3.930
 5480SOL     OW17119   4.343   0.831   5.157
 5480SOL    HW117120   4.399   0.907   5.142
 5480SOL    HW217121   4.404   0.757   5.165
 5481SOL     OW17122   4.440   0.571   5.427
 5481SOL    HW117123   4.480   0.633   5.488
 5481SOL    HW217124   4.469   0.485   5.457
 5482SOL     OW17125   5.182   1.204   5.356
 5482SOL    HW117126   5.173   1.217   5.450
 5482SOL    HW217127   5.276   1.212   5.340
 5483SOL     OW17128   4.104   1.739   5.289
 5483SOL    HW117129   4.019   1.781   5.274
 5483SOL    HW217130   4.083   1.655   5.330
 5484SOL     OW17131   4.941   0.323   4.185
 5484SOL    HW117132   4.997   0.246   4.178
 5484SOL    HW217133   4.972   0.368   4.264
 5485SOL     OW17134   4.314   0.738   4.393
 5485SOL    HW117135   4.353   0.824   4.377
 5485SOL    HW217136   4.246   0.730   4.327
 5486SOL     OW17137   4.591   1.366   3.759
 5486SOL    HW117138   4.549   1.396   3.840
 5486SOL    HW217139   4.607   1.446   3.709
 5487SOL     OW17140   4.384   1.791   4.668
 5487SOL    HW117141   4.364   1.882   4.646
 5487SOL    HW217142   4.479   1.785   4.662
 5488SOL     OW17143   4.592   0.967   4.579
 5488SOL    HW117144   4.641   0.895   4.619
 5488SOL    HW217145   4.557   1.016   4.654
 5489SOL     OW17146   4.807   0.988   3.814
 5489SOL    HW117147   4.782   1.037   3.736
 5489SOL    HW217148   4.881   0.934   3.786
 5490SOL     OW17149   3.949   1.303   5.580
 5490SOL    HW117150   3.881   1.242   5.551
 5490SOL    HW217151   3.931   1.316   5.673
 5491SOL     OW17152   3.807   1.234   4.389
 5491SOL    HW117153   3.813   1.185   4.471
 5491SOL    HW217154   3.876   1.196   4.333
 5492SOL     OW17155   4.405   1.402   5.353
 5492SOL    HW117156   4.325   1.360   5.383
 5492SOL    HW217157   4.401   1.491   5.388
 5493SOL     OW17158   4.154   0.436   4.248
 5493SOL    HW117159   4.186   0.363   4.194
 5493SOL    HW217160   4.107   0.393   4.320
 5494SOL     OW17161   0.095   1.521   4.823
 5494SOL    HW117162   0.028   1.496   4.760
 5494SOL    HW217163   0.102   1.445   4.881
 5495SOL     OW17164   4.052   0.556   5.014
 5495SOL    HW117165   4.108   0.501   5.070
 5495SOL    HW217166   4.073   0.528   4.925
 5496SOL     OW17167   4.552   1.577   4.401
 5496SOL    HW117168   4.540   1.631   4.323
 5496SOL    HW217169   4.474   1.521   4.403
 5497SOL     OW17170   5.150   0.216   4.844
 5497SOL    HW117171   5.159   0.133   4.892
 5497SOL    HW217172   5.105   0.274   4.905
 5498SOL     OW17173   4.725   0.020   4.864
 5498SOL    HW117174   4.674   5.251   4.822
 5498SOL    HW217175   4.812   5.283   4.875
 5499SOL     OW17176   4.494   1.333   4.039
 5499SOL    HW117177   4.464   1.242   4.045
 5499SOL    HW217178   4.577   1.333   4.087
 5500SOL     OW17179   4.344   1.556   5.009
 5500SOL    HW117180   4.346   1.638   5.058
 5500SOL    HW217181   4.431   1.549   4.971
 5501SOL     OW17182   5.035   0.034   3.883
 5501SOL    HW117183   5.117   0.027   3.834
 5501SOL    HW217184   4.984   5.258   3.857
 5502SOL     OW17185   5.028   0.461   4.410
 5502SOL    HW117186   4.972   0.538   4.414
 5502SOL    HW217187   5.016   0.418   4.494
 5503SOL     OW17188   5.295   0.214   4.607
 5503SOL    HW117189   5.237   0.215   4.682
 5503SOL    HW217190   5.277   0.295   4.560
 5504SOL     OW17191   3.767   1.071   4.030
 5504SOL    HW117192   3.861   1.063   4.013
 5504SOL    HW217193   3.739   0.982   4.053
 5505SOL     OW17194   4.604   1.650   4.070
 5505SOL    HW117195   4.533   1.635   4.007
 5505SOL    HW217196   4.576   1.727   4.119
 5506SOL     OW17197   3.952   0.625   5.709
 5506SOL    HW117198   3.864   0.622   5.744
 5506SOL    HW217199   3.943   0.598   5.617
 5507SOL     OW17200   3.942   0.284   6.579
 5507SOL    HW117201   3.971   0.249   6.663
 5507SOL    HW217202   3.857   0.243   6.563
 5508SOL     OW17203   3.728   0.386   6.224
 5508SOL    HW117204   3.644   0.407   6.264
 5508SOL    HW217205   3.710   0.308   6.171
 5509SOL     OW17206   4.291   1.287   6.761
 5509SOL    HW117207   4.203   1.291   6.722
 5509SOL    HW217208   4.306   1.376   6.794
 5510SOL     OW17209   5.285   1.535   6.292
 5510SOL    HW117210   5.246   1.492   6.368
 5510SOL    HW217211   5.220   1.527   6.223
 5511SOL     OW17212   4.859   0.698   6.287
 5511SOL    HW117213   4.909   0.780   6.277
 5511SOL    HW217214   4.809   0.710   6.368
 5512SOL     OW17215   4.480   1.143   6.627
 5512SOL    HW117216   4.410   1.177   6.683
 5512SOL    HW217217   4.514   1.220   6.582
 5513SOL     OW17218   4.591   0.779   7.408
 5513SOL    HW117219   4.569   0.854   7.463
 5513SOL    HW217220   4.615   0.817   7.324
 5514SOL     OW17221   4.411   1.003   6.233
 5514SOL    HW117222   4.475   0.991   6.303
 5514SOL    HW217223   4.341   1.055   6.273
 5515SOL     OW17224   4.434   1.151   7.398
 5515SOL    HW117225   4.482   1.230   7.425
 5515SOL    HW217226   4.352   1.184   7.362
 5516SOL     OW17227   4.055   1.426   6.654
 5516SOL    HW117228   3.982   1.388   6.604
 5516SOL    HW217229   4.104   1.476   6.589
 5517SOL     OW17230   5.161   1.480   6.937
 5517SOL    HW117231   5.205   1.561   6.963
 5517SOL    HW217232   5.105   1.460   7.012
 5518SOL     OW17233   4.168   0.399   7.074
 5518SOL    HW117234   4.244   0.340   7.072
 5518SOL    HW217235   4.093   0.341   7.087
 5519SOL     OW17236   3.943   1.714   6.058
 5519SOL    HW117237   3.965   1.790   6.112
 5519SOL    HW217238   4.016   1.706   5.997
 5520SOL     OW17239   4.859   1.339   7.278
 5520SOL    HW117240   4.898   1.337   7.365
 5520SOL    HW217241   4.807   1.259   7.273
 5521SOL     OW17242   3.954   1.441   6.121
 5521SOL    HW117243   3.937   1.535   6.125
 5521SOL    HW217244   3.894   1.403   6.185
 5522SOL     OW17245   3.982   1.090   6.477
 5522SOL    HW117246   3.978   1.004   6.518
 5522SOL    HW217247   3.923   1.144   6.530
 5523SOL     OW17248   4.333   1.793   7.012
 5523SOL    HW117249   4.253   1.774   7.061
 5523SOL    HW217250   4.358   1.881   7.039
 5524SOL     OW17251   4.310   0.981   5.720
 5524SOL    HW117252   4.355   1.031   5.652
 5524SOL    HW217253   4.349   1.012   5.802
 5525SOL     OW17254   5.250   0.145   7.064
 5525SOL    HW117255   5.297   0.226   7.045
 5525SOL    HW217256   5.276   0.123   7.154
 5526SOL     OW17257   3.839   0.653   6.145
 5526SOL    HW117258   3.811   0.564   6.167
 5526SOL    HW217259   3.831   0.701   6.228
 5527SOL     OW17260   3.756   1.595   5.710
 5527SOL    HW117261   3.738   1.503   5.730
 5527SOL    HW217262   3.732   1.642   5.790
 5528SOL     OW17263   0.113   0.940   6.162
 5528SOL    HW117264   0.200   0.904   6.177
 5528SOL    HW217265   0.128   1.025   6.122
 5529SOL     OW17266   3.846   0.743   7.171
 5529SOL    HW117267   3.938   0.769   7.179
 5529SOL    HW217268   3.797   0.825   7.179
 5530SOL     OW17269   4.337   1.385   6.321
 5530SOL    HW117270   4.291   1.302   6.331
 5530SOL    HW217271   4.321   1.412   6.231
 5531SOL     OW17272   5.007   1.237   7.010
 5531SOL    HW117273   5.040   1.170   6.950
 5531SOL    HW217274   5.062   1.229   7.088
 5532SOL     OW17275   4.535   0.026   6.115
 5532SOL    HW117276   4.563   0.114   6.089
 5532SOL    HW217277   4.439   0.029   6.108
 5533SOL     OW17278   3.914   0.966   6.857
 5533SOL    HW117279   3.999   0.924   6.842
 5533SOL    HW217280   3.851   0.912   6.810
 5534SOL     OW17281   4.898   1.808   7.209
 5534SOL    HW117282   4.918   1.866   7.135
 5534SOL    HW217283   4.920   1.720   7.177
 5535SOL     OW17284   4.049   0.263   7.402
 5535SOL    HW117285   4.101   0.340   7.424
 5535SOL    HW217286   3.962   0.282   7.438
 5536SOL     OW17287   5.169   1.435   6.523
 5536SOL    HW117288   5.106   1.442   6.595
 5536SOL    HW217289   5.162   1.344   6.494
 5537SOL     OW17290   4.319   0.722   5.852
 5537SOL    HW117291   4.324   0.803   5.802
 5537SOL    HW217292   4.253   0.739   5.920
 5538SOL     OW17293   4.997   0.329   6.504
 5538SOL    HW117294   4.907   0.305   6.528
 5538SOL    HW217295   5.050   0.301   6.579
 5539SOL     OW17296   4.518   0.618   7.036
 5539SOL    HW117297   4.490   0.596   7.125
 5539SOL    HW217298   4.476   0.552   6.981
 5540SOL     OW17299   5.117   0.487   7.265
 5540SOL    HW117300   5.118   0.522   7.354
 5540SOL    HW217301   5.181   0.416   7.267
 5541SOL     OW17302   4.679   0.888   7.168
 5541SOL    HW117303   4.732   0.816   7.132
 5541SOL    HW217304   4.631   0.922   7.093
 5542SOL     OW17305   4.718   0.422   6.817
 5542SOL    HW117306   4.634   0.437   6.860
 5542SOL    HW217307   4.697   0.367   6.742
 5543SOL     OW17308   4.775   0.697   6.011
 5543SOL    HW117309   4.790   0.691   6.106
 5543SOL    HW217310   4.692   0.652   5.997
 5544SOL     OW17311   3.812   0.821   6.363
 5544SOL    HW117312   3.893   0.814   6.413
 5544SOL    HW217313   3.769   0.899   6.397
 5545SOL     OW17314   3.851   1.848   7.164
 5545SOL    HW117315   3.851   1.827   7.258
 5545SOL    HW217316   3.759   1.839   7.138
 5546SOL     OW17317   4.598   0.362   5.776
 5546SOL    HW117318   4.635   0.419   5.708
 5546SOL    HW217319   4.651   0.282   5.771
 5547SOL     OW17320   5.092   1.146   6.133
 5547SOL    HW117321   5.180   1.148   6.095
 5547SOL    HW217322   5.041   1.206   6.078
 5548SOL     OW17323   4.250   0.202   6.468
 5548SOL    HW117324   4.272   0.217   6.560
 5548SOL    HW217325   4.272   0.284   6.425
 5549SOL     OW17326   4.730   1.443   6.058
 5549SOL    HW117327   4.692   1.516   6.009
 5549SOL    HW217328   4.712   1.465   6.150
 5550SOL     OW17329   4.078   1.809   6.448
 5550SOL    HW117330   4.122   1.724   6.456
 5550SOL    HW217331   4.147   1.873   6.466
 5551SOL     OW17332   4.941   1.542   7.104
 5551SOL    HW117333   4.928   1.469   7.165
 5551SOL    HW217334   4.882   1.523   7.031
 5552SOL     OW17335   4.044   0.957   5.836
 5552SOL    HW117336   4.126   0.976   5.790
 5552SOL    HW217337   4.013   0.875   5.798
 5553SOL     OW17338   4.189   1.263   7.323
 5553SOL    HW117339   4.162   1.268   7.232
 5553SOL    HW217340   4.107   1.262   7.373
 5554SOL     OW17341   4.833   1.775   5.823
 5554SOL    HW117342   4.760   1.730   5.867
 5554SOL    HW217343   4.857   1.715   5.752
 5555SOL     OW17344   3.921   0.278   7.088
 5555SOL    HW117345   3.842   0.332   7.083
 5555SOL    HW217346   3.911   0.229   7.170
 5556SOL     OW17347   4.190   1.737   5.907
 5556SOL    HW117348   4.232   1.794   5.971
 5556SOL    HW217349   4.262   1.707   5.851
 5557SOL     OW17350   5.099   0.098   6.006
 5557SOL    HW117351   5.084   0.082   5.913
 5557SOL    HW217352   5.192   0.118   6.013
 5558SOL     OW17353   3.979   1.791   6.818
 5558SOL    HW117354   4.031   1.726   6.864
 5558SOL    HW217355   3.970   1.757   6.729
 5559SOL     OW17356   4.662   1.698   6.485
 5559SOL    HW117357   4.741   1.648   6.503
 5559SOL    HW217358   4.617   1.649   6.416
 5560SOL     OW17359   4.117   0.696   6.062
 5560SOL    HW117360   4.138   0.603   6.073
 5560SOL    HW217361   4.023   0.702   6.080
 5561SOL     OW17362   4.346   0.133   5.694
 5561SOL    HW117363   4.418   0.073   5.712
 5561SOL    HW217364   4.297   0.091   5.623
 5562SOL     OW17365   4.507   0.310   7.350
 5562SOL    HW117366   4.572   0.240   7.351
 5562SOL    HW217367   4.464   0.304   7.435
 5563SOL     OW17368   4.600   1.522   6.779
 5563SOL    HW117369   4.584   1.486   6.692
 5563SOL    HW217370   4.670   1.467   6.816
 5564SOL     OW17371   5.061   0.592   7.016
 5564SOL    HW117372   5.090   0.561   7.102
 5564SOL    HW217373   5.099   0.679   7.007
 5565SOL     OW17374   4.538   1.395   6.525
 5565SOL    HW117375   4.623   1.384   6.481
 5565SOL    HW217376   4.474   1.396   6.454
 5566SOL     OW17377   4.651   0.511   6.489
 5566SOL    HW117378   4.628   0.501   6.396
 5566SOL    HW217379   4.682   0.424   6.515
 5567SOL     OW17380   4.266   0.062   6.095
 5567SOL    HW117381   4.180   0.061   6.137
 5567SOL    HW217382   4.259   0.132   6.029
 5568SOL     OW17383   5.136   1.180   5.630
 5568SOL    HW117384   5.146   1.103   5.685
 5568SOL    HW217385   5.049   1.213   5.650
 5569SOL     OW17386   4.026   0.062   5.777
 5569SOL    HW117387   4.084   0.131   5.746
 5569SOL    HW217388   4.082   5.285   5.787
 5570SOL     OW17389   4.661   0.261   6.049
 5570SOL    HW117390   4.632   0.296   5.964
 5570SOL    HW217391   4.756   0.276   6.049
 5571SOL     OW17392   4.802   0.681   7.047
 5571SOL    HW117393   4.733   0.615   7.049
 5571SOL    HW217394   4.883   0.630   7.036
 5572SOL     OW17395   4.941   1.571   6.380
 5572SOL    HW117396   4.963   1.637   6.315
 5572SOL    HW217397   5.021   1.560   6.431
 5573SOL     OW17398   4.193   1.149   6.320
 5573SOL    HW117399   4.123   1.130   6.383
 5573SOL    HW217400   4.153   1.133   6.234
 5574SOL     OW17401   4.996   1.794   6.191
 5574SOL    HW117402   5.038   1.855   6.131
 5574SOL    HW217403   4.929   1.846   6.236
 5575SOL     OW17404   4.753   0.550   5.605
 5575SOL    HW117405   4.705   0.632   5.588
 5575SOL    HW217406   4.807   0.570   5.682
 5576SOL     OW17407   3.803   0.553   6.979
 5576SOL    HW117408   3.894   0.553   6.951
 5576SOL    HW217409   3.797   0.624   7.043
 5577SOL     OW17410   4.280   0.238   6.744
 5577SOL    HW117411   4.312   0.152   6.773
 5577SOL    HW217412   4.188   0.239   6.770
 5578SOL     OW17413   4.593   0.464   6.226
 5578SOL    HW117414   4.544   0.516   6.163
 5578SOL    HW217415   4.613   0.383   6.180
 5579SOL     OW17416   4.699   0.063   6.349
 5579SOL    HW117417   4.635   0.055   6.278
 5579SOL    HW217418   4.714   5.273   6.379
 5580SOL     OW17419   5.157   1.176   6.437
 5580SOL    HW117420   5.101   1.100   6.450
 5580SOL    HW217421   5.169   1.181   6.342
 5581SOL     OW17422   4.215   1.418   5.743
 5581SOL    HW117423   4.140   1.389   5.795
 5581SOL    HW217424   4.200   1.380   5.656
 5582SOL     OW17425   5.128   0.559   5.667
 5582SOL    HW117426   5.052   0.551   5.725
 5582SOL    HW217427   5.202   0.532   5.721
 5583SOL     OW17428   4.248   0.265   5.908
 5583SOL    HW117429   4.291   0.215   5.839
 5583SOL    HW217430   4.227   0.349   5.867
 5584SOL     OW17431   4.781   1.354   6.919
 5584SOL    HW117432   4.705   1.323   6.970
 5584SOL    HW217433   4.856   1.312   6.960
 5585SOL     OW17434   0.007   1.605   7.202
 5585SOL    HW117435   0.040   1.610   7.113
 5585SOL    HW217436   0.084   1.585   7.256
 5586SOL     OW17437   4.853   1.203   6.693
 5586SOL    HW117438   4.791   1.238   6.757
 5586SOL    HW217439   4.819   1.232   6.608
 5587SOL     OW17440   4.624   0.104   6.973
 5587SOL    HW117441   4.658   0.070   6.890
 5587SOL    HW217442   4.700   0.148   7.013
 5588SOL     OW17443   4.709   1.112   7.313
 5588SOL    HW117444   4.617   1.131   7.331
 5588SOL    HW217445   4.706   1.036   7.255
 5589SOL     OW17446   4.433   1.062   5.957
 5589SOL    HW117447   4.418   1.045   6.050
 5589SOL    HW217448   4.508   1.008   5.934
 5590SOL     OW17449   4.143   0.815   6.837
 5590SOL    HW117450   4.211   0.824   6.903
 5590SOL    HW217451   4.107   0.727   6.851
 5591SOL     OW17452   4.991   0.380   6.856
 5591SOL    HW117453   5.024   0.458   6.900
 5591SOL    HW217454   4.901   0.401   6.833
 5592SOL     OW17455   3.794   1.573   6.939
 5592SOL    HW117456   3.764   1.646   6.884
 5592SOL    HW217457   3.890   1.577   6.933
 5593SOL     OW17458   4.073   1.109   6.077
 5593SOL    HW117459   4.078   1.182   6.015
 5593SOL    HW217460   4.071   1.031   6.021
 5594SOL     OW17461   4.278   0.538   6.447
 5594SOL    HW117462   4.293   0.596   6.372
 5594SOL    HW217463   4.343   0.564   6.511
 5595SOL     OW17464   4.972   1.349   5.974
 5595SOL    HW117465   5.026   1.422   6.004
 5595SOL    HW217466   4.884   1.369   6.007
 5596SOL     OW17467   4.994   1.456   6.726
 5596SOL    HW117468   5.049   1.458   6.804
 5596SOL    HW217469   4.940   1.378   6.736
 5597SOL     OW17470   4.071   1.527   6.901
 5597SOL    HW117471   4.058   1.484   6.816
 5597SOL    HW217472   4.165   1.539   6.908
 5598SOL     OW17473   4.138   0.745   7.188
 5598SOL    HW117474   4.199   0.790   7.130
 5598SOL    HW217475   4.179   0.660   7.205
 5599SOL     OW17476   4.750   0.117   7.339
 5599SOL    HW117477   4.796   0.198   7.317
 5599SOL    HW217478   4.794   0.050   7.286
 5600SOL     OW17479   4.203   0.058   7.322
 5600SOL    HW117480   4.145   5.293   7.283
 5600SOL    HW217481   4.146   0.131   7.346
 5601SOL     OW17482   4.308   0.873   6.618
 5601SOL    HW117483   4.337   0.964   6.616
 5601SOL    HW217484   4.251   0.867   6.694
 5602SOL     OW17485   5.086   0.857   6.623
 5602SOL    HW117486   5.008   0.840   6.569
 5602SOL    HW217487   5.137   0.777   6.617
 5603SOL     OW17488   4.929   0.531   5.852
 5603SOL    HW117489   4.933   0.451   5.904
 5603SOL    HW217490   4.885   0.594   5.909
 5604SOL     OW17491   4.021   0.204   6.833
 5604SOL    HW117492   3.981   0.243   6.911
 5604SOL    HW217493   4.020   0.110   6.851
 5605SOL     OW17494   3.770   1.311   6.862
 5605SOL    HW117495   3.803   1.256   6.934
 5605SOL    HW217496   3.777   1.400   6.895
 5606SOL     OW17497   4.450   0.632   6.646
 5606SOL    HW117498   4.523   0.615   6.587
 5606SOL    HW217499   4.421   0.720   6.623
 5607SOL     OW17500   4.027   0.072   6.237
 5607SOL    HW117501   4.010   0.166   6.244
 5607SOL    HW217502   4.070   0.049   6.320
 5608SOL     OW17503   0.028   0.407   5.951
 5608SOL    HW117504   0.059   0.345   6.017
 5608SOL    HW217505   0.006   0.486   6.000
 5609SOL     OW17506   4.752   0.759   6.546
 5609SOL    HW117507   4.749   0.777   6.640
 5609SOL    HW217508   4.725   0.667   6.539
 5610SOL     OW17509   4.699   1.562   7.300
 5610SOL    HW117510   4.687   1.609   7.217
 5610SOL    HW217511   4.746   1.482   7.275
 5611SOL     OW17512   4.077   0.914   7.396
 5611SOL    HW117513   4.161   0.935   7.439
 5611SOL    HW217514   4.101   0.852   7.327
 5612SOL     OW17515   5.028   0.829   5.623
 5612SOL    HW117516   5.063   0.740   5.623
 5612SOL    HW217517   5.054   0.865   5.538
 5613SOL     OW17518   4.789   1.334   6.441
 5613SOL    HW117519   4.793   1.262   6.378
 5613SOL    HW217520   4.847   1.401   6.405
 5614SOL     OW17521   4.033   0.809   6.534
 5614SOL    HW117522   4.126   0.830   6.526
 5614SOL    HW217523   4.031   0.719   6.566
 5615SOL     OW17524   4.056   0.526   6.599
 5615SOL    HW117525   4.020   0.439   6.583
 5615SOL    HW217526   4.133   0.530   6.541
 5616SOL     OW17527   4.862   0.377   7.275
 5616SOL    HW117528   4.812   0.431   7.336
 5616SOL    HW217529   4.946   0.422   7.266
 5617SOL     OW17530   4.848   0.232   7.044
 5617SOL    HW117531   4.858   0.282   7.125
 5617SOL    HW217532   4.912   0.270   6.984
 5618SOL     OW17533   3.729   1.321   5.781
 5618SOL    HW117534   3.642   1.335   5.743
 5618SOL    HW217535   3.726   1.232   5.815
 5619SOL     OW17536   3.814   1.787   6.524
 5619SOL    HW117537   3.784   1.708   6.480
 5619SOL    HW217538   3.904   1.799   6.493
 5620SOL     OW17539   4.221   1.574   6.492
 5620SOL    HW117540   4.289   1.636   6.516
 5620SOL    HW217541   4.265   1.510   6.435
 5621SOL     OW17542   4.707   0.793   6.813
 5621SOL    HW117543   4.762   0.769   6.887
 5621SOL    HW217544   4.622   0.754   6.832
 5622SOL     OW17545   3.759   0.543   6.703
 5622SOL    HW117546   3.839   0.529   6.652
 5622SOL    HW217547   3.789   0.548   6.794
 5623SOL     OW17548   3.912   0.521   7.313
 5623SOL    HW117549   3.974   0.486   7.249
 5623SOL    HW217550   3.871   0.595   7.268
 5624SOL     OW17551   5.111   0.937   7.253
 5624SOL    HW117552   5.119   1.032   7.241
 5624SOL    HW217553   5.114   0.902   7.164
 5625SOL     OW17554   4.539   0.573   5.946
 5625SOL    HW117555   4.541   0.497   5.887
 5625SOL    HW217556   4.464   0.625   5.916
 5626SOL     OW17557   3.967   1.551   7.314
 5626SOL    HW117558   3.945   1.616   7.381
 5626SOL    HW217559   3.969   1.468   7.360
 5627SOL     OW17560   4.421   0.453   6.847
 5627SOL    HW117561   4.371   0.378   6.813
 5627SOL    HW217562   4.422   0.516   6.775
 5628SOL     OW17563   4.646   1.680   7.054
 5628SOL    HW117564   4.623   1.648   6.967
 5628SOL    HW217565   4.646   1.775   7.045
 5629SOL     OW17566   4.187   0.493   5.770
 5629SOL    HW117567   4.247   0.564   5.793
 5629SOL    HW217568   4.102   0.535   5.760
 5630SOL     OW17569   3.870   1.140   7.059
 5630SOL    HW117570   3.872   1.089   7.139
 5630SOL    HW217571   3.887   1.077   6.989
 5631SOL     OW17572   5.054   1.049   6.810
 5631SOL    HW117573   5.075   0.984   6.743
 5631SOL    HW217574   4.982   1.100   6.773
 5632SOL     OW17575   5.035   0.858   5.902
 5632SOL    HW117576   4.953   0.827   5.940
 5632SOL    HW217577   5.023   0.851   5.808
 5633SOL     OW17578   4.960   1.731   6.707
 5633SOL    HW117579   5.046   1.752   6.670
 5633SOL    HW217580   4.960   1.636   6.717
 5634SOL     OW17581   3.808   1.267   6.598
 5634SOL    HW117582   3.794   1.279   6.692
 5634SOL    HW217583   3.735   1.212   6.570
 5635SOL     OW17584   4.400   1.664   7.313
 5635SOL    HW117585   4.350   1.745   7.309
 5635SOL    HW217586   4.470   1.676   7.248
 5636SOL     OW17587   5.111   1.570   6.066
 5636SOL    HW117588   5.181   1.611   6.015
 5636SOL    HW217589   5.061   1.644   6.101
 5637SOL     OW17590   3.860   1.796   7.430
 5637SOL    HW117591   3.809   1.731   7.479
 5637SOL    HW217592   3.908   1.845   7.497
 5638SOL     OW17593   5.016   0.920   6.258
 5638SOL    HW117594   5.094   0.865   6.245
 5638SOL    HW217595   5.035   1.000   6.210
 5639SOL     OW17596   4.538   1.273   7.016
 5639SOL    HW117597   4.510   1.313   7.099
 5639SOL    HW217598   4.469   1.296   6.954
 5640SOL     OW17599   4.395   1.620   5.741
 5640SOL    HW117600   4.406   1.632   5.647
 5640SOL    HW217601   4.340   1.542   5.749
 5641SOL     OW17602   3.986   0.329   6.305
 5641SOL    HW117603   3.898   0.360   6.283
 5641SOL    HW217604   3.984   0.317   6.400
 5642SOL     OW17605   4.909   1.609   5.627
 5642SOL    HW117606   4.920   1.515   5.638
 5642SOL    HW217607   4.854   1.618   5.549
 5643SOL     OW17608   4.548   1.006   6.959
 5643SOL    HW117609   4.591   1.001   6.873
 5643SOL    HW217610   4.547   1.099   6.980
 5644SOL     OW17611   4.641   0.912   5.876
 5644SOL    HW117612   4.702   0.943   5.810
 5644SOL    HW217613   4.687   0.840   5.920
 5645SOL     OW17614   4.093   1.303   7.078
 5645SOL    HW117615   4.080   1.380   7.023
 5645SOL    HW217616   4.016   1.248   7.061
 5646SOL     OW17617   4.776   1.107   6.293
 5646SOL    HW117618   4.705   1.057   6.333
 5646SOL    HW217619   4.833   1.040   6.255
 5647SOL     OW17620   4.738   0.242   6.557
 5647SOL    HW117621   4.720   0.197   6.474
 5647SOL    HW217622   4.733   0.174   6.624
 5648SOL     OW17623   4.327   1.488   6.068
 5648SOL    HW117624   4.371   1.438   5.999
 5648SOL    HW217625   4.257   1.536   6.022
 5649SOL     OW17626   3.983   1.345   5.874
 5649SOL    HW117627   3.890   1.343   5.852
 5649SOL    HW217628   3.986   1.382   5.963
 5650SOL     OW17629   3.837   1.021   7.305
 5650SOL    HW117630   3.760   0.999   7.358
 5650SOL    HW217631   3.911   0.983   7.353
 5651SOL     OW17632   4.396   0.213   7.076
 5651SOL    HW117633   4.479   0.192   7.033
 5651SOL    HW217634   4.422   0.260   7.155
 5652SOL     OW17635   3.801   0.339   5.627
 5652SOL    HW117636   3.718   0.306   5.594
 5652SOL    HW217637   3.822   0.413   5.570
 5653SOL     OW17638   5.163   0.860   6.989
 5653SOL    HW117639   5.110   0.916   6.933
 5653SOL    HW217640   5.252   0.870   6.956
 5654SOL     OW17641   3.796   0.167   5.901
 5654SOL    HW117642   3.797   0.250   5.853
 5654SOL    HW217643   3.881   0.127   5.881
 5655SOL     OW17644   4.907   1.329   5.700
 5655SOL    HW117645   4.813   1.311   5.701
 5655SOL    HW217646   4.931   1.336   5.792
 5656SOL     OW17647   4.343   0.831   7.019
 5656SOL    HW117648   4.399   0.907   7.004
 5656SOL    HW217649   4.404   0.758   7.027
 5657SOL     OW17650   4.439   0.572   7.289
 5657SOL    HW117651   4.480   0.632   7.351
 5657SOL    HW217652   4.468   0.485   7.318
 5658SOL     OW17653   5.182   1.203   7.217
 5658SOL    HW117654   5.172   1.215   7.311
 5658SOL    HW217655   5.276   1.213   7.202
 5659SOL     OW17656   4.103   1.740   7.150
 5659SOL    HW117657   4.018   1.781   7.137
 5659SOL    HW217658   4.083   1.656   7.192
 5660SOL     OW17659   4.941   0.323   6.047
 5660SOL    HW117660   4.997   0.246   6.040
 5660SOL    HW217661   4.972   0.368   6.126
 5661SOL     OW17662   4.314   0.738   6.255
 5661SOL    HW117663   4.353   0.824   6.239
 5661SOL    HW217664   4.246   0.730   6.189
 5662SOL     OW17665   4.591   1.366   5.621
 5662SOL    HW117666   4.549   1.396   5.702
 5662SOL    HW217667   4.606   1.447   5.571
 5663SOL     OW17668   4.384   1.791   6.530
 5663SOL    HW117669   4.364   1.882   6.507
 5663SOL    HW217670   4.479   1.785   6.524
 5664SOL     OW17671   4.592   0.967   6.441
 5664SOL    HW117672   4.641   0.895   6.481
 5664SOL    HW217673   4.557   1.016   6.516
 5665SOL     OW17674   4.807   0.988   5.676
 5665SOL    HW117675   4.782   1.037   5.598
 5665SOL    HW217676   4.881   0.934   5.648
 5666SOL     OW17677   3.949   1.303   7.443
 5666SOL    HW117678   3.881   1.243   7.412
 5666SOL    HW217679   3.929   1.317   7.535
 5667SOL     OW17680   3.808   1.234   6.251
 5667SOL    HW117681   3.813   1.185   6.333
 5667SOL    HW217682   3.876   1.195   6.196
 5668SOL     OW17683   4.405   1.401   7.214
 5668SOL    HW117684   4.324   1.360   7.245
 5668SOL    HW217685   4.401   1.490   7.249
 5669SOL     OW17686   4.154   0.435   6.110
 5669SOL    HW117687   4.186   0.363   6.056
 5669SOL    HW217688   4.107   0.393   6.182
 5670SOL     OW17689   0.095   1.521   6.686
 5670SOL    HW117690   0.028   1.497   6.622
 5670SOL    HW217691   0.102   1.445   6.744
 5671SOL     OW17692   4.053   0.556   6.877
 5671SOL    HW117693   4.109   0.501   6.931
 5671SOL    HW217694   4.073   0.528   6.787
 5672SOL     OW17695   4.552   1.577   6.263
 5672SOL    HW117696   4.540   1.631   6.185
 5672SOL    HW217697   4.474   1.521   6.266
 5673SOL     OW17698   5.150   0.216   6.706
 5673SOL    HW117699   5.158   0.133   6.754
 5673SOL    HW217700   5.104   0.274   6.767
 5674SOL     OW17701   4.725   0.021   6.726
 5674SOL    HW117702   4.674   5.251   6.684
 5674SOL    HW217703   4.812   5.283   6.737
 5675SOL     OW17704   4.495   1.333   5.901
 5675SOL    HW117705   4.464   1.242   5.907
 5675SOL    HW217706   4.577   1.333   5.949
 5676SOL     OW17707   4.344   1.556   6.871
 5676SOL    HW117708   4.346   1.639   6.920
 5676SOL    HW217709   4.431   1.549   6.833
 5677SOL     OW17710   5.035   0.034   5.746
 5677SOL    HW117711   5.117   0.027   5.696
 5677SOL    HW217712   4.984   5.258   5.719
 5678SOL     OW17713   5.028   0.461   6.271
 5678SOL    HW117714   4.972   0.538   6.276
 5678SOL    HW217715   5.016   0.418   6.356
 5679SOL     OW17716   5.295   0.214   6.469
 5679SOL    HW117717   5.237   0.215   6.544
 5679SOL    HW217718   5.277   0.295   6.422
 5680SOL     OW17719   3.768   1.071   5.892
 5680SOL    HW117720   3.861   1.063   5.874
 5680SOL    HW217721   3.739   0.982   5.915
 5681SOL     OW17722   4.604   1.650   5.932
 5681SOL    HW117723   4.533   1.635   5.869
 5681SOL    HW217724   4.576   1.727   5.981
 5682SOL     OW17725   3.951   0.620   7.572
 5682SOL    HW117726   3.861   0.628   7.603
 5682SOL    HW217727   3.942   0.597   7.479
 5683SOL     OW17728   3.945   1.718   7.919
 5683SOL    HW117729   3.974   1.759   8.000
 5683SOL    HW217730   4.023   1.715   7.864
 5684SOL     OW17731   3.941   1.438   7.991
 5684SOL    HW117732   3.927   1.533   7.990
 5684SOL    HW217733   3.882   1.405   8.058
 5685SOL     OW17734   4.311   0.981   7.579
 5685SOL    HW117735   4.354   1.033   7.510
 5685SOL    HW217736   4.349   1.013   7.661
 5686SOL     OW17737   3.754   1.599   7.578
 5686SOL    HW117738   3.738   1.506   7.593
 5686SOL    HW217739   3.727   1.641   7.659
 5687SOL     OW17740   0.118   0.925   8.015
 5687SOL    HW117741   0.211   0.917   8.035
 5687SOL    HW217742   0.104   1.018   7.999
 5688SOL     OW17743   4.534   5.289   7.946
 5688SOL    HW117744   4.576   0.074   7.930
 5688SOL    HW217745   4.440   0.008   7.942
 5689SOL     OW17746   4.315   0.725   7.709
 5689SOL    HW117747   4.317   0.807   7.659
 5689SOL    HW217748   4.254   0.742   7.781
 5690SOL     OW17749   3.785   0.864   0.089
 5690SOL    HW117750   3.848   0.797   0.117
 5690SOL    HW217751   3.780   0.924   0.163
 5691SOL     OW17752   4.590   0.357   7.633
 5691SOL    HW117753   4.631   0.417   7.571
 5691SOL    HW217754   4.649   0.281   7.637
 5692SOL     OW17755   4.047   0.956   7.697
 5692SOL    HW117756   4.127   0.973   7.647
 5692SOL    HW217757   4.010   0.877   7.658
 5693SOL     OW17758   4.837   1.776   7.684
 5693SOL    HW117759   4.763   1.733   7.727
 5693SOL    HW217760   4.861   1.716   7.614
 5694SOL     OW17761   4.191   1.738   7.769
 5694SOL    HW117762   4.239   1.791   7.833
 5694SOL    HW217763   4.258   1.702   7.711
 5695SOL     OW17764   5.114   0.112   7.872
 5695SOL    HW117765   5.086   0.089   7.784
 5695SOL    HW217766   5.209   0.100   7.871
 5696SOL     OW17767   4.115   0.695   7.918
 5696SOL    HW117768   4.120   0.600   7.927
 5696SOL    HW217769   4.024   0.717   7.940
 5697SOL     OW17770   4.341   0.132   7.560
 5697SOL    HW117771   4.420   0.079   7.574
 5697SOL    HW217772   4.297   0.088   7.487
 5698SOL     OW17773   4.271   0.064   7.952
 5698SOL    HW117774   4.179   0.048   7.973
 5698SOL    HW217775   4.268   0.136   7.889
 5699SOL     OW17776   5.137   1.179   7.488
 5699SOL    HW117777   5.153   1.109   7.552
 5699SOL    HW217778   5.050   1.212   7.511
 5700SOL     OW17779   4.029   0.072   7.659
 5700SOL    HW117780   4.080   0.130   7.602
 5700SOL    HW217781   4.077   5.290   7.660
 5701SOL     OW17782   4.673   0.230   7.911
 5701SOL    HW117783   4.620   0.293   7.863
 5701SOL    HW217784   4.759   0.272   7.919
 5702SOL     OW17785   4.164   1.149   0.100
 5702SOL    HW117786   4.089   1.187   0.146
 5702SOL    HW217787   4.133   1.136   0.010
 5703SOL     OW17788   5.008   1.805   8.012
 5703SOL    HW117789   5.047   1.871   7.955
 5703SOL    HW217790   4.937   1.851   8.057
 5704SOL     OW17791   4.756   0.552   7.463
 5704SOL    HW117792   4.706   0.633   7.449
 5704SOL    HW217793   4.803   0.568   7.545
 5705SOL     OW17794   4.212   1.416   7.605
 5705SOL    HW117795   4.138   1.387   7.658
 5705SOL    HW217796   4.196   1.378   7.518
 5706SOL     OW17797   5.127   0.559   7.530
 5706SOL    HW117798   5.051   0.552   7.587
 5706SOL    HW217799   5.199   0.523   7.581
 5707SOL     OW17800   4.249   0.271   7.773
 5707SOL    HW117801   4.289   0.217   7.705
 5707SOL    HW217802   4.228   0.354   7.730
 5708SOL     OW17803   4.437   1.062   7.811
 5708SOL    HW117804   4.410   1.048   7.902
 5708SOL    HW217805   4.515   1.009   7.801
 5709SOL     OW17806   4.090   1.102   7.927
 5709SOL    HW117807   4.070   1.181   7.877
 5709SOL    HW217808   4.076   1.031   7.865
 5710SOL     OW17809   4.959   1.358   7.819
 5710SOL    HW117810   5.016   1.429   7.848
 5710SOL    HW217811   4.903   1.339   7.895
 5711SOL     OW17812   0.027   0.639   7.936
 5711SOL    HW117813   5.276   0.678   8.007
 5711SOL    HW217814   0.048   0.712   7.878
 5712SOL     OW17815   4.928   0.530   7.715
 5712SOL    HW117816   4.931   0.444   7.758
 5712SOL    HW217817   4.895   0.589   7.782
 5713SOL     OW17818   0.029   0.405   7.803
 5713SOL    HW117819   0.032   0.339   7.873
 5713SOL    HW217820   0.022   0.488   7.849
 5714SOL     OW17821   5.035   0.832   7.490
 5714SOL    HW117822   5.063   0.741   7.486
 5714SOL    HW217823   5.057   0.868   7.405
 5715SOL     OW17824   3.730   1.324   7.640
 5715SOL    HW117825   3.642   1.337   7.603
 5715SOL    HW217826   3.729   1.235   7.674
 5716SOL     OW17827   4.563   0.603   7.761
 5716SOL    HW117828   4.553   0.512   7.734
 5716SOL    HW217829   4.473   0.637   7.763
 5717SOL     OW17830   4.185   0.495   7.637
 5717SOL    HW117831   4.245   0.567   7.654
 5717SOL    HW217832   4.100   0.537   7.622
 5718SOL     OW17833   5.032   0.847   7.773
 5718SOL    HW117834   4.939   0.860   7.791
 5718SOL    HW217835   5.038   0.846   7.678
 5719SOL     OW17836   5.103   1.573   7.907
 5719SOL    HW117837   5.198   1.584   7.906
 5719SOL    HW217838   5.070   1.654   7.945
 5720SOL     OW17839   4.390   1.620   7.604
 5720SOL    HW117840   4.403   1.631   7.509
 5720SOL    HW217841   4.338   1.540   7.611
 5721SOL     OW17842   4.912   1.611   7.486
 5721SOL    HW117843   4.920   1.516   7.501
 5721SOL    HW217844   4.852   1.618   7.411
 5722SOL     OW17845   4.655   0.909   7.759
 5722SOL    HW117846   4.705   0.933   7.681
 5722SOL    HW217847   4.643   0.814   7.751
 5723SOL     OW17848   4.329   1.507   7.936
 5723SOL    HW117849   4.374   1.446   7.877
 5723SOL    HW217850   4.256   1.541   7.884
 5724SOL     OW17851   3.982   1.346   7.741
 5724SOL    HW117852   3.890   1.344   7.716
 5724SOL    HW217853   3.981   1.382   7.830
 5725SOL     OW17854   3.798   0.339   7.490
 5725SOL    HW117855   3.716   0.307   7.453
 5725SOL    HW217856   3.822   0.414   7.435
 5726SOL     OW17857   3.788   0.182   7.745
 5726SOL    HW117858   3.785   0.258   7.687
 5726SOL    HW217859   3.868   0.136   7.722
 5727SOL     OW17860   4.905   1.329   7.555
 5727SOL    HW117861   4.810   1.315   7.555
 5727SOL    HW217862   4.927   1.341   7.648
 5728SOL     OW17863   5.267   1.743   0.321
 5728SOL    HW117864   5.270   1.829   0.281
 5728SOL    HW217865   0.041   1.743   0.383
 5729SOL     OW17866   4.944   0.325   7.909
 5729SOL    HW117867   5.006   0.253   7.906
 5729SOL    HW217868   4.954   0.363   7.996
 5730SOL     OW17869   4.351   0.737   8.054
 5730SOL    HW117870   4.354   0.818   0.024
 5730SOL    HW217871   4.263   0.735   8.017
 5731SOL     OW17872   4.591   1.366   7.483
 5731SOL    HW117873   4.551   1.394   7.565
 5731SOL    HW217874   4.606   1.447   7.435
 5732SOL     OW17875   4.802   0.978   7.540
 5732SOL    HW117876   4.778   1.033   7.465
 5732SOL    HW217877   4.880   0.931   7.511
 5733SOL     OW17878   4.113   0.421   7.984
 5733SOL    HW117879   4.165   0.369   7.923
 5733SOL    HW217880   4.161   0.418   8.066
 5734SOL     OW17881   4.490   1.335   7.759
 5734SOL    HW117882   4.459   1.244   7.762
 5734SOL    HW217883   4.568   1.336   7.814
 5735SOL     OW17884   5.037   0.039   7.612
 5735SOL    HW117885   5.115   0.029   7.558
 5735SOL    HW217886   4.986   5.259   7.595
 5736SOL     OW17887   3.775   1.079   7.750
 5736SOL    HW117888   3.869   1.068   7.736
 5736SOL    HW217889   3.743   0.990   7.766
 5737SOL     OW17890   4.613   1.647   7.783
 5737SOL    HW117891   4.537   1.627   7.729
 5737SOL    HW217892   4.582   1.711   7.846
 5738SOL     OW17893   3.944   2.485   0.123
 5738SOL    HW117894   3.864   2.450   0.160
 5738SOL    HW217895   3.966   2.424   0.052
 5739SOL     OW17896   3.949   2.143   0.992
 5739SOL    HW117897   3.977   2.109   1.076
 5739SOL    HW217898   3.859   2.111   0.982
 5740SOL     OW17899   3.728   2.245   0.638
 5740SOL    HW117900   3.646   2.270   0.679
 5740SOL    HW217901   3.707   2.165   0.590
 5741SOL     OW17902   4.291   3.149   1.175
 5741SOL    HW117903   4.203   3.153   1.137
 5741SOL    HW217904   4.307   3.238   1.208
 5742SOL     OW17905   5.283   3.408   0.707
 5742SOL    HW117906   5.247   3.356   0.778
 5742SOL    HW217907   5.224   3.392   0.633
 5743SOL     OW17908   4.859   2.561   0.701
 5743SOL    HW117909   4.909   2.642   0.690
 5743SOL    HW217910   4.810   2.574   0.782
 5744SOL     OW17911   4.479   3.004   1.040
 5744SOL    HW117912   4.410   3.039   1.097
 5744SOL    HW217913   4.514   3.081   0.996
 5745SOL     OW17914   4.592   2.636   1.822
 5745SOL    HW117915   4.575   2.708   1.884
 5745SOL    HW217916   4.614   2.680   1.740
 5746SOL     OW17917   4.409   2.863   0.650
 5746SOL    HW117918   4.474   2.853   0.719
 5746SOL    HW217919   4.340   2.917   0.690
 5747SOL     OW17920   4.434   3.013   1.812
 5747SOL    HW117921   4.482   3.091   1.839
 5747SOL    HW217922   4.352   3.046   1.777
 5748SOL     OW17923   4.055   3.287   1.068
 5748SOL    HW117924   3.982   3.250   1.017
 5748SOL    HW217925   4.105   3.338   1.004
 5749SOL     OW17926   5.161   3.343   1.351
 5749SOL    HW117927   5.206   3.423   1.376
 5749SOL    HW217928   5.106   3.321   1.427
 5750SOL     OW17929   4.173   2.260   1.487
 5750SOL    HW117930   4.248   2.201   1.493
 5750SOL    HW217931   4.097   2.204   1.500
 5751SOL     OW17932   3.944   3.576   0.471
 5751SOL    HW117933   3.965   3.652   0.526
 5751SOL    HW217934   4.019   3.568   0.412
 5752SOL     OW17935   4.860   3.202   1.694
 5752SOL    HW117936   4.899   3.198   1.781
 5752SOL    HW217937   4.807   3.122   1.688
 5753SOL     OW17938   3.950   3.302   0.530
 5753SOL    HW117939   3.937   3.397   0.534
 5753SOL    HW217940   3.891   3.267   0.597
 5754SOL     OW17941   3.980   2.952   0.890
 5754SOL    HW117942   3.978   2.866   0.932
 5754SOL    HW217943   3.923   3.006   0.944
 5755SOL     OW17944   4.333   3.655   1.426
 5755SOL    HW117945   4.253   3.636   1.475
 5755SOL    HW217946   4.358   3.743   1.453
 5756SOL     OW17947   4.354   2.822   0.133
 5756SOL    HW117948   4.301   2.898   0.108
 5756SOL    HW217949   4.404   2.852   0.209
 5757SOL     OW17950   3.839   2.512   0.562
 5757SOL    HW117951   3.809   2.424   0.583
 5757SOL    HW217952   3.831   2.561   0.644
 5758SOL     OW17953   3.753   3.458   0.111
 5758SOL    HW117954   3.740   3.370   0.146
 5758SOL    HW217955   3.737   3.516   0.185
 5759SOL     OW17956   0.114   2.808   0.594
 5759SOL    HW117957   0.203   2.771   0.592
 5759SOL    HW217958   0.114   2.873   0.525
 5760SOL     OW17959   3.847   2.604   1.586
 5760SOL    HW117960   3.939   2.630   1.594
 5760SOL    HW217961   3.799   2.687   1.594
 5761SOL     OW17962   4.337   3.248   0.735
 5761SOL    HW117963   4.291   3.164   0.744
 5761SOL    HW217964   4.321   3.274   0.644
 5762SOL     OW17965   5.007   3.099   1.425
 5762SOL    HW117966   5.040   3.032   1.365
 5762SOL    HW217967   5.062   3.091   1.503
 5763SOL     OW17968   4.539   1.864   0.511
 5763SOL    HW117969   4.578   1.949   0.489
 5763SOL    HW217970   4.446   1.882   0.519
 5764SOL     OW17971   3.914   2.828   1.271
 5764SOL    HW117972   3.999   2.786   1.256
 5764SOL    HW217973   3.852   2.773   1.225
 5765SOL     OW17974   4.897   3.669   1.623
 5765SOL    HW117975   4.918   3.728   1.551
 5765SOL    HW217976   4.919   3.582   1.590
 5766SOL     OW17977   4.057   2.112   1.811
 5766SOL    HW117978   4.102   2.195   1.828
 5766SOL    HW217979   3.968   2.126   1.843
 5767SOL     OW17980   5.169   3.297   0.936
 5767SOL    HW117981   5.106   3.303   1.008
 5767SOL    HW217982   5.163   3.206   0.907
 5768SOL     OW17983   4.322   2.576   0.282
 5768SOL    HW117984   4.340   2.653   0.228
 5768SOL    HW217985   4.257   2.606   0.346
 5769SOL     OW17986   4.996   2.198   0.919
 5769SOL    HW117987   4.908   2.169   0.941
 5769SOL    HW217988   5.051   2.164   0.990
 5770SOL     OW17989   4.515   2.480   1.451
 5770SOL    HW117990   4.489   2.456   1.540
 5770SOL    HW217991   4.475   2.413   1.396
 5771SOL     OW17992   5.115   2.342   1.680
 5771SOL    HW117993   5.116   2.380   1.768
 5771SOL    HW217994   5.190   2.283   1.679
 5772SOL     OW17995   4.678   2.750   1.582
 5772SOL    HW117996   4.731   2.678   1.547
 5772SOL    HW217997   4.630   2.784   1.507
 5773SOL     OW17998   4.715   2.275   1.238
 5773SOL    HW117999   4.629   2.296   1.275
 5773SOL    HW218000   4.696   2.228   1.157
 5774SOL     OW18001   4.777   2.559   0.426
 5774SOL    HW118002   4.792   2.555   0.520
 5774SOL    HW218003   4.693   2.514   0.413
 5775SOL     OW18004   3.813   2.684   0.776
 5775SOL    HW118005   3.894   2.676   0.826
 5775SOL    HW218006   3.769   2.761   0.811
 5776SOL     OW18007   3.851   3.708   1.578
 5776SOL    HW118008   3.851   3.688   1.671
 5776SOL    HW218009   3.759   3.702   1.552
 5777SOL     OW18010   4.609   2.219   0.200
 5777SOL    HW118011   4.653   2.267   0.131
 5777SOL    HW218012   4.610   2.128   0.170
 5778SOL     OW18013   5.095   3.009   0.548
 5778SOL    HW118014   5.178   3.002   0.501
 5778SOL    HW218015   5.042   3.068   0.495
 5779SOL     OW18016   4.273   2.044   0.893
 5779SOL    HW118017   4.276   2.072   0.984
 5779SOL    HW218018   4.276   2.125   0.843
 5780SOL     OW18019   4.730   3.306   0.473
 5780SOL    HW118020   4.690   3.378   0.423
 5780SOL    HW218021   4.711   3.328   0.565
 5781SOL     OW18022   4.078   3.671   0.862
 5781SOL    HW118023   4.122   3.586   0.870
 5781SOL    HW218024   4.147   3.735   0.880
 5782SOL     OW18025   4.940   3.405   1.520
 5782SOL    HW118026   4.927   3.331   1.579
 5782SOL    HW218027   4.884   3.384   1.444
 5783SOL     OW18028   4.050   2.803   0.255
 5783SOL    HW118029   4.118   2.847   0.203
 5783SOL    HW218030   4.052   2.712   0.225
 5784SOL     OW18031   4.190   3.126   1.738
 5784SOL    HW118032   4.163   3.131   1.646
 5784SOL    HW218033   4.108   3.125   1.787
 5785SOL     OW18034   4.825   3.636   0.225
 5785SOL    HW118035   4.770   3.596   0.292
 5785SOL    HW218036   4.840   3.565   0.162
 5786SOL     OW18037   3.925   2.143   1.501
 5786SOL    HW118038   3.843   2.192   1.497
 5786SOL    HW218039   3.907   2.074   1.564
 5787SOL     OW18040   4.189   3.599   0.323
 5787SOL    HW118041   4.230   3.658   0.386
 5787SOL    HW218042   4.259   3.573   0.264
 5788SOL     OW18043   5.117   1.987   0.438
 5788SOL    HW118044   5.100   1.968   0.346
 5788SOL    HW218045   5.212   1.994   0.445
 5789SOL     OW18046   3.978   3.653   1.232
 5789SOL    HW118047   4.031   3.589   1.279
 5789SOL    HW218048   3.971   3.618   1.143
 5790SOL     OW18049   4.662   3.560   0.899
 5790SOL    HW118050   4.742   3.510   0.916
 5790SOL    HW218051   4.618   3.511   0.830
 5791SOL     OW18052   4.110   2.559   0.477
 5791SOL    HW118053   4.135   2.467   0.487
 5791SOL    HW218054   4.017   2.562   0.499
 5792SOL     OW18055   4.354   1.973   0.136
 5792SOL    HW118056   4.449   1.961   0.142
 5792SOL    HW218057   4.333   1.953   0.044
 5793SOL     OW18058   4.490   2.140   1.754
 5793SOL    HW118059   4.566   2.082   1.755
 5793SOL    HW218060   4.441   2.118   1.834
 5794SOL     OW18061   4.599   3.383   1.194
 5794SOL    HW118062   4.585   3.348   1.106
 5794SOL    HW218063   4.670   3.330   1.230
 5795SOL     OW18064   5.058   2.453   1.432
 5795SOL    HW118065   5.090   2.421   1.516
 5795SOL    HW218066   5.100   2.538   1.421
 5796SOL     OW18067   4.538   3.257   0.939
 5796SOL    HW118068   4.623   3.246   0.896
 5796SOL    HW218069   4.475   3.258   0.868
 5797SOL     OW18070   4.651   2.371   0.903
 5797SOL    HW118071   4.628   2.362   0.810
 5797SOL    HW218072   4.683   2.284   0.928
 5798SOL     OW18073   4.273   1.925   0.505
 5798SOL    HW118074   4.193   1.924   0.557
 5798SOL    HW218075   4.267   2.004   0.451
 5799SOL     OW18076   5.140   3.035   0.043
 5799SOL    HW118077   5.139   2.962   0.106
 5799SOL    HW218078   5.056   3.078   0.056
 5800SOL     OW18079   4.034   1.917   0.169
 5800SOL    HW118080   4.099   1.986   0.185
 5800SOL    HW218081   4.071   1.840   0.211
 5801SOL     OW18082   4.662   2.109   0.459
 5801SOL    HW118083   4.634   2.150   0.377
 5801SOL    HW218084   4.756   2.125   0.463
 5802SOL     OW18085   4.801   2.543   1.461
 5802SOL    HW118086   4.734   2.475   1.463
 5802SOL    HW218087   4.883   2.495   1.451
 5803SOL     OW18088   4.940   3.434   0.796
 5803SOL    HW118089   4.963   3.499   0.730
 5803SOL    HW218090   5.021   3.420   0.845
 5804SOL     OW18091   4.192   3.012   0.734
 5804SOL    HW118092   4.123   2.992   0.797
 5804SOL    HW218093   4.151   2.996   0.649
 5805SOL     OW18094   4.992   3.656   0.605
 5805SOL    HW118095   5.037   3.719   0.548
 5805SOL    HW218096   4.927   3.708   0.652
 5806SOL     OW18097   4.758   2.393   0.029
 5806SOL    HW118098   4.711   2.472   0.003
 5806SOL    HW218099   4.818   2.422   0.098
 5807SOL     OW18100   3.803   2.417   1.392
 5807SOL    HW118101   3.895   2.415   1.365
 5807SOL    HW218102   3.798   2.487   1.457
 5808SOL     OW18103   4.283   2.089   1.165
 5808SOL    HW118104   4.325   2.013   1.205
 5808SOL    HW218105   4.192   2.085   1.196
 5809SOL     OW18106   4.591   2.321   0.639
 5809SOL    HW118107   4.549   2.376   0.573
 5809SOL    HW218108   4.613   2.240   0.591
 5810SOL     OW18109   4.739   1.915   0.751
 5810SOL    HW118110   4.680   1.908   0.676
 5810SOL    HW218111   4.717   1.839   0.806
 5811SOL     OW18112   5.157   3.038   0.850
 5811SOL    HW118113   5.102   2.961   0.863
 5811SOL    HW218114   5.168   3.044   0.755
 5812SOL     OW18115   4.207   3.301   0.172
 5812SOL    HW118116   4.134   3.259   0.219
 5812SOL    HW218117   4.212   3.254   0.089
 5813SOL     OW18118   5.126   2.446   0.076
 5813SOL    HW118119   5.067   2.421   0.148
 5813SOL    HW218120   5.194   2.379   0.077
 5814SOL     OW18121   4.241   2.125   0.324
 5814SOL    HW118122   4.291   2.073   0.261
 5814SOL    HW218123   4.229   2.210   0.280
 5815SOL     OW18124   4.781   3.216   1.333
 5815SOL    HW118125   4.706   3.185   1.384
 5815SOL    HW218126   4.856   3.173   1.374
 5816SOL     OW18127   0.006   3.466   1.616
 5816SOL    HW118128   0.040   3.472   1.527
 5816SOL    HW218129   0.083   3.446   1.670
 5817SOL     OW18130   4.852   3.065   1.107
 5817SOL    HW118131   4.791   3.101   1.171
 5817SOL    HW218132   4.819   3.095   1.022
 5818SOL     OW18133   4.642   1.960   1.396
 5818SOL    HW118134   4.664   1.941   1.305
 5818SOL    HW218135   4.721   1.999   1.433
 5819SOL     OW18136   4.708   2.975   1.725
 5819SOL    HW118137   4.617   2.992   1.745
 5819SOL    HW218138   4.706   2.898   1.668
 5820SOL     OW18139   4.438   2.925   0.380
 5820SOL    HW118140   4.421   2.907   0.473
 5820SOL    HW218141   4.516   2.872   0.360
 5821SOL     OW18142   4.142   2.676   1.251
 5821SOL    HW118143   4.211   2.686   1.317
 5821SOL    HW218144   4.107   2.589   1.266
 5822SOL     OW18145   4.989   2.237   1.276
 5822SOL    HW118146   5.024   2.316   1.317
 5822SOL    HW218147   4.899   2.261   1.251
 5823SOL     OW18148   3.794   3.435   1.352
 5823SOL    HW118149   3.765   3.509   1.299
 5823SOL    HW218150   3.890   3.439   1.348
 5824SOL     OW18151   4.068   2.972   0.491
 5824SOL    HW118152   4.076   3.045   0.430
 5824SOL    HW218153   4.077   2.893   0.437
 5825SOL     OW18154   4.277   2.398   0.860
 5825SOL    HW118155   4.292   2.457   0.786
 5825SOL    HW218156   4.341   2.425   0.925
 5826SOL     OW18157   4.971   3.209   0.392
 5826SOL    HW118158   5.026   3.281   0.419
 5826SOL    HW218159   4.884   3.232   0.424
 5827SOL     OW18160   4.994   3.318   1.139
 5827SOL    HW118161   5.049   3.320   1.218
 5827SOL    HW218162   4.940   3.239   1.150
 5828SOL     OW18163   4.071   3.389   1.315
 5828SOL    HW118164   4.058   3.346   1.230
 5828SOL    HW218165   4.165   3.401   1.323
 5829SOL     OW18166   4.138   2.607   1.602
 5829SOL    HW118167   4.200   2.651   1.544
 5829SOL    HW218168   4.178   2.521   1.618
 5830SOL     OW18169   4.718   1.986   1.755
 5830SOL    HW118170   4.775   2.058   1.728
 5830SOL    HW218171   4.765   1.907   1.730
 5831SOL     OW18172   4.222   1.903   1.747
 5831SOL    HW118173   4.179   1.848   1.682
 5831SOL    HW218174   4.162   1.977   1.760
 5832SOL     OW18175   4.306   2.735   1.031
 5832SOL    HW118176   4.338   2.825   1.031
 5832SOL    HW218177   4.251   2.729   1.109
 5833SOL     OW18178   5.085   2.718   1.039
 5833SOL    HW118179   5.010   2.702   0.982
 5833SOL    HW218180   5.139   2.639   1.031
 5834SOL     OW18181   4.933   2.393   0.269
 5834SOL    HW118182   4.935   2.313   0.321
 5834SOL    HW218183   4.886   2.456   0.325
 5835SOL     OW18184   4.023   2.060   1.246
 5835SOL    HW118185   3.986   2.093   1.328
 5835SOL    HW218186   4.004   1.967   1.247
 5836SOL     OW18187   3.770   3.173   1.276
 5836SOL    HW118188   3.803   3.118   1.348
 5836SOL    HW218189   3.777   3.262   1.309
 5837SOL     OW18190   4.447   2.493   1.057
 5837SOL    HW118191   4.523   2.477   1.000
 5837SOL    HW218192   4.420   2.582   1.036
 5838SOL     OW18193   4.026   1.927   0.623
 5838SOL    HW118194   4.008   2.018   0.647
 5838SOL    HW218195   4.034   1.881   0.707
 5839SOL     OW18196   0.047   2.239   0.357
 5839SOL    HW118197   0.062   2.182   0.432
 5839SOL    HW218198   0.016   2.322   0.395
 5840SOL     OW18199   4.751   2.621   0.960
 5840SOL    HW118200   4.749   2.639   1.054
 5840SOL    HW218201   4.725   2.529   0.953
 5841SOL     OW18202   4.697   3.423   1.714
 5841SOL    HW118203   4.687   3.471   1.631
 5841SOL    HW218204   4.746   3.344   1.689
 5842SOL     OW18205   4.077   2.778   1.809
 5842SOL    HW118206   4.159   2.797   1.854
 5842SOL    HW218207   4.101   2.715   1.740
 5843SOL     OW18208   5.030   2.696   0.028
 5843SOL    HW118209   5.062   2.607   0.045
 5843SOL    HW218210   5.059   2.715   8.018
 5844SOL     OW18211   4.789   3.196   0.856
 5844SOL    HW118212   4.793   3.124   0.792
 5844SOL    HW218213   4.847   3.263   0.819
 5845SOL     OW18214   4.033   2.671   0.947
 5845SOL    HW118215   4.126   2.693   0.942
 5845SOL    HW218216   4.031   2.581   0.980
 5846SOL     OW18217   4.055   2.388   1.012
 5846SOL    HW118218   4.020   2.300   0.997
 5846SOL    HW218219   4.132   2.393   0.955
 5847SOL     OW18220   4.856   2.238   1.681
 5847SOL    HW118221   4.809   2.293   1.743
 5847SOL    HW218222   4.944   2.277   1.676
 5848SOL     OW18223   4.885   2.064   1.469
 5848SOL    HW118224   4.874   2.127   1.541
 5848SOL    HW218225   4.924   2.116   1.398
 5849SOL     OW18226   3.735   3.186   0.190
 5849SOL    HW118227   3.648   3.200   0.152
 5849SOL    HW218228   3.733   3.096   0.222
 5850SOL     OW18229   3.814   3.649   0.937
 5850SOL    HW118230   3.784   3.569   0.894
 5850SOL    HW218231   3.904   3.662   0.907
 5851SOL     OW18232   4.221   3.436   0.906
 5851SOL    HW118233   4.289   3.498   0.930
 5851SOL    HW218234   4.265   3.372   0.849
 5852SOL     OW18235   4.707   2.654   1.227
 5852SOL    HW118236   4.763   2.631   1.301
 5852SOL    HW218237   4.621   2.617   1.248
 5853SOL     OW18238   3.760   2.406   1.116
 5853SOL    HW118239   3.841   2.393   1.067
 5853SOL    HW218240   3.788   2.410   1.208
 5854SOL     OW18241   3.915   2.381   1.727
 5854SOL    HW118242   3.972   2.343   1.660
 5854SOL    HW218243   3.873   2.455   1.683
 5855SOL     OW18244   5.112   2.800   1.666
 5855SOL    HW118245   5.121   2.895   1.654
 5855SOL    HW218246   5.115   2.764   1.577
 5856SOL     OW18247   4.543   2.431   0.367
 5856SOL    HW118248   4.551   2.360   0.303
 5856SOL    HW218249   4.467   2.481   0.337
 5857SOL     OW18250   3.967   3.413   1.728
 5857SOL    HW118251   3.945   3.478   1.795
 5857SOL    HW218252   3.969   3.330   1.774
 5858SOL     OW18253   4.424   2.313   1.259
 5858SOL    HW118254   4.372   2.239   1.229
 5858SOL    HW218255   4.421   2.376   1.187
 5859SOL     OW18256   4.645   3.542   1.469
 5859SOL    HW118257   4.623   3.510   1.381
 5859SOL    HW218258   4.646   3.637   1.459
 5860SOL     OW18259   4.192   2.353   0.179
 5860SOL    HW118260   4.259   2.419   0.198
 5860SOL    HW218261   4.109   2.398   0.190
 5861SOL     OW18262   3.870   3.002   1.472
 5861SOL    HW118263   3.872   2.951   1.553
 5861SOL    HW218264   3.887   2.939   1.402
 5862SOL     OW18265   5.054   2.912   1.224
 5862SOL    HW118266   5.075   2.846   1.158
 5862SOL    HW218267   4.982   2.962   1.186
 5863SOL     OW18268   5.023   2.732   0.319
 5863SOL    HW118269   4.945   2.687   0.352
 5863SOL    HW218270   5.024   2.711   0.225
 5864SOL     OW18271   4.960   3.593   1.122
 5864SOL    HW118272   5.045   3.614   1.084
 5864SOL    HW218273   4.960   3.498   1.131
 5865SOL     OW18274   3.808   3.129   1.012
 5865SOL    HW118275   3.794   3.142   1.106
 5865SOL    HW218276   3.735   3.074   0.984
 5866SOL     OW18277   4.401   3.527   1.728
 5866SOL    HW118278   4.349   3.607   1.722
 5866SOL    HW218279   4.470   3.538   1.663
 5867SOL     OW18280   4.630   1.953   0.133
 5867SOL    HW118281   4.648   1.936   0.041
 5867SOL    HW218282   4.693   1.899   0.181
 5868SOL     OW18283   0.081   2.012   0.522
 5868SOL    HW118284   0.172   2.005   0.494
 5868SOL    HW218285   0.071   1.943   0.588
 5869SOL     OW18286   5.108   3.433   0.478
 5869SOL    HW118287   5.162   3.475   0.411
 5869SOL    HW218288   5.060   3.505   0.519
 5870SOL     OW18289   3.860   3.659   1.843
 5870SOL    HW118290   3.809   3.593   1.892
 5870SOL    HW218291   3.908   3.706   1.911
 5871SOL     OW18292   5.017   2.781   0.672
 5871SOL    HW118293   5.094   2.727   0.658
 5871SOL    HW218294   5.034   2.862   0.624
 5872SOL     OW18295   4.538   3.135   1.430
 5872SOL    HW118296   4.510   3.174   1.513
 5872SOL    HW218297   4.469   3.158   1.368
 5873SOL     OW18298   4.400   3.483   0.157
 5873SOL    HW118299   4.407   3.489   0.061
 5873SOL    HW218300   4.340   3.410   0.172
 5874SOL     OW18301   3.986   2.178   0.717
 5874SOL    HW118302   3.901   2.214   0.694
 5874SOL    HW218303   3.983   2.170   0.813
 5875SOL     OW18304   4.860   3.441   0.045
 5875SOL    HW118305   4.901   3.356   0.060
 5875SOL    HW218306   4.899   3.472   8.043
 5876SOL     OW18307   4.548   2.868   1.372
 5876SOL    HW118308   4.592   2.864   1.287
 5876SOL    HW218309   4.547   2.961   1.394
 5877SOL     OW18310   4.643   2.776   0.299
 5877SOL    HW118311   4.696   2.800   0.223
 5877SOL    HW218312   4.691   2.703   0.339
 5878SOL     OW18313   4.093   3.165   1.492
 5878SOL    HW118314   4.080   3.242   1.437
 5878SOL    HW218315   4.016   3.110   1.475
 5879SOL     OW18316   4.775   2.969   0.707
 5879SOL    HW118317   4.705   2.918   0.747
 5879SOL    HW218318   4.833   2.904   0.667
 5880SOL     OW18319   4.739   2.101   0.968
 5880SOL    HW118320   4.737   2.054   0.885
 5880SOL    HW218321   4.736   2.032   1.035
 5881SOL     OW18322   4.326   3.348   0.480
 5881SOL    HW118323   4.370   3.299   0.411
 5881SOL    HW218324   4.258   3.398   0.434
 5882SOL     OW18325   3.991   3.182   0.293
 5882SOL    HW118326   3.904   3.193   0.253
 5882SOL    HW218327   3.984   3.227   0.377
 5883SOL     OW18328   3.837   2.884   1.719
 5883SOL    HW118329   3.760   2.861   1.772
 5883SOL    HW218330   3.911   2.846   1.766
 5884SOL     OW18331   4.398   2.058   1.499
 5884SOL    HW118332   4.482   2.038   1.458
 5884SOL    HW218333   4.421   2.090   1.587
 5885SOL     OW18334   3.780   2.225   0.039
 5885SOL    HW118335   3.706   2.170   0.014
 5885SOL    HW218336   3.829   2.237   8.037
 5886SOL     OW18337   5.162   2.722   1.404
 5886SOL    HW118338   5.111   2.779   1.347
 5886SOL    HW218339   5.252   2.728   1.370
 5887SOL     OW18340   3.795   2.016   0.305
 5887SOL    HW118341   3.780   2.101   0.263
 5887SOL    HW218342   3.879   1.987   0.271
 5888SOL     OW18343   4.914   3.176   0.120
 5888SOL    HW118344   4.818   3.176   0.114
 5888SOL    HW218345   4.933   3.183   0.213
 5889SOL     OW18346   4.343   2.693   1.433
 5889SOL    HW118347   4.399   2.769   1.418
 5889SOL    HW218348   4.403   2.619   1.441
 5890SOL     OW18349   4.442   2.425   1.704
 5890SOL    HW118350   4.482   2.487   1.765
 5890SOL    HW218351   4.469   2.339   1.736
 5891SOL     OW18352   5.182   3.066   1.632
 5891SOL    HW118353   5.173   3.079   1.727
 5891SOL    HW218354   5.276   3.073   1.616
 5892SOL     OW18355   4.103   3.601   1.564
 5892SOL    HW118356   4.018   3.643   1.551
 5892SOL    HW218357   4.083   3.518   1.606
 5893SOL     OW18358   4.934   2.187   0.460
 5893SOL    HW118359   4.996   2.115   0.450
 5893SOL    HW218360   4.964   2.233   0.539
 5894SOL     OW18361   4.313   2.599   0.669
 5894SOL    HW118362   4.353   2.685   0.655
 5894SOL    HW218363   4.244   2.594   0.602
 5895SOL     OW18364   4.619   3.231   0.033
 5895SOL    HW118365   4.555   3.226   0.104
 5895SOL    HW218366   4.616   3.322   0.004
 5896SOL     OW18367   4.384   3.653   0.944
 5896SOL    HW118368   4.364   3.744   0.921
 5896SOL    HW218369   4.479   3.647   0.938
 5897SOL     OW18370   4.591   2.828   0.855
 5897SOL    HW118371   4.642   2.757   0.895
 5897SOL    HW218372   4.557   2.878   0.930
 5898SOL     OW18373   4.799   2.835   0.085
 5898SOL    HW118374   4.790   2.900   0.016
 5898SOL    HW218375   4.882   2.791   0.066
 5899SOL     OW18376   3.949   3.165   1.856
 5899SOL    HW118377   3.881   3.104   1.827
 5899SOL    HW218378   3.932   3.178   1.949
 5900SOL     OW18379   3.808   3.093   0.664
 5900SOL    HW118380   3.813   3.046   0.747
 5900SOL    HW218381   3.881   3.059   0.612
 5901SOL     OW18382   4.405   3.264   1.628
 5901SOL    HW118383   4.324   3.222   1.659
 5901SOL    HW218384   4.401   3.352   1.664
 5902SOL     OW18385   4.149   2.298   0.523
 5902SOL    HW118386   4.182   2.227   0.469
 5902SOL    HW218387   4.105   2.254   0.596
 5903SOL     OW18388   0.094   3.384   1.100
 5903SOL    HW118389   0.027   3.359   1.036
 5903SOL    HW218390   0.103   3.307   1.157
 5904SOL     OW18391   4.054   2.417   1.292
 5904SOL    HW118392   4.109   2.362   1.347
 5904SOL    HW218393   4.074   2.389   1.202
 5905SOL     OW18394   4.551   3.440   0.678
 5905SOL    HW118395   4.540   3.492   0.599
 5905SOL    HW218396   4.474   3.383   0.680
 5906SOL     OW18397   5.148   2.081   1.115
 5906SOL    HW118398   5.192   2.015   1.169
 5906SOL    HW218399   5.102   2.136   1.177
 5907SOL     OW18400   4.730   1.881   1.142
 5907SOL    HW118401   4.677   1.812   1.102
 5907SOL    HW218402   4.818   1.843   1.147
 5908SOL     OW18403   4.494   3.190   0.309
 5908SOL    HW118404   4.463   3.100   0.323
 5908SOL    HW218405   4.576   3.194   0.357
 5909SOL     OW18406   4.344   3.418   1.285
 5909SOL    HW118407   4.346   3.501   1.334
 5909SOL    HW218408   4.431   3.411   1.247
 5910SOL     OW18409   5.051   1.923   0.186
 5910SOL    HW118410   5.093   1.874   0.115
 5910SOL    HW218411   4.973   1.872   0.208
 5911SOL     OW18412   5.028   2.323   0.684
 5911SOL    HW118413   4.973   2.401   0.688
 5911SOL    HW218414   5.016   2.280   0.769
 5912SOL     OW18415   0.000   2.087   0.877
 5912SOL    HW118416   5.237   2.073   0.948
 5912SOL    HW218417   5.275   2.171   0.839
 5913SOL     OW18418   3.766   2.928   0.303
 5913SOL    HW118419   3.862   2.929   0.307
 5913SOL    HW218420   3.741   2.846   0.344
 5914SOL     OW18421   4.604   3.514   0.350
 5914SOL    HW118422   4.537   3.498   0.283
 5914SOL    HW218423   4.573   3.591   0.398
 5915SOL     OW18424   3.953   2.485   1.985
 5915SOL    HW118425   3.864   2.484   2.019
 5915SOL    HW218426   3.944   2.460   1.893
 5916SOL     OW18427   3.951   2.142   2.853
 5916SOL    HW118428   3.977   2.109   2.939
 5916SOL    HW218429   3.860   2.112   2.842
 5917SOL     OW18430   3.728   2.245   2.500
 5917SOL    HW118431   3.646   2.268   2.543
 5917SOL    HW218432   3.708   2.165   2.450
 5918SOL     OW18433   4.291   3.149   3.037
 5918SOL    HW118434   4.203   3.152   2.999
 5918SOL    HW218435   4.306   3.238   3.070
 5919SOL     OW18436   5.285   3.397   2.568
 5919SOL    HW118437   5.246   3.354   2.644
 5919SOL    HW218438   5.220   3.388   2.498
 5920SOL     OW18439   4.858   2.561   2.562
 5920SOL    HW118440   4.908   2.642   2.552
 5920SOL    HW218441   4.810   2.573   2.643
 5921SOL     OW18442   4.480   3.005   2.903
 5921SOL    HW118443   4.411   3.039   2.959
 5921SOL    HW218444   4.515   3.082   2.858
 5922SOL     OW18445   4.592   2.636   3.684
 5922SOL    HW118446   4.576   2.708   3.745
 5922SOL    HW218447   4.614   2.680   3.602
 5923SOL     OW18448   4.410   2.865   2.509
 5923SOL    HW118449   4.475   2.853   2.579
 5923SOL    HW218450   4.340   2.917   2.549
 5924SOL     OW18451   4.434   3.013   3.675
 5924SOL    HW118452   4.482   3.091   3.701
 5924SOL    HW218453   4.352   3.046   3.638
 5925SOL     OW18454   4.054   3.288   2.930
 5925SOL    HW118455   3.982   3.250   2.880
 5925SOL    HW218456   4.104   3.338   2.865
 5926SOL     OW18457   5.160   3.343   3.213
 5926SOL    HW118458   5.206   3.423   3.238
 5926SOL    HW218459   5.106   3.321   3.289
 5927SOL     OW18460   4.173   2.260   3.350
 5927SOL    HW118461   4.247   2.199   3.355
 5927SOL    HW218462   4.096   2.205   3.362
 5928SOL     OW18463   3.943   3.576   2.334
 5928SOL    HW118464   3.965   3.652   2.388
 5928SOL    HW218465   4.016   3.568   2.273
 5929SOL     OW18466   4.860   3.202   3.556
 5929SOL    HW118467   4.899   3.198   3.643
 5929SOL    HW218468   4.807   3.122   3.549
 5930SOL     OW18469   3.954   3.303   2.397
 5930SOL    HW118470   3.937   3.397   2.401
 5930SOL    HW218471   3.894   3.265   2.461
 5931SOL     OW18472   3.982   2.953   2.754
 5931SOL    HW118473   3.977   2.866   2.793
 5931SOL    HW218474   3.923   3.006   2.807
 5932SOL     OW18475   4.334   3.654   3.289
 5932SOL    HW118476   4.252   3.636   3.337
 5932SOL    HW218477   4.358   3.743   3.316
 5933SOL     OW18478   4.310   2.843   1.996
 5933SOL    HW118479   4.355   2.893   1.928
 5933SOL    HW218480   4.350   2.874   2.078
 5934SOL     OW18481   3.839   2.515   2.421
 5934SOL    HW118482   3.810   2.426   2.443
 5934SOL    HW218483   3.831   2.563   2.503
 5935SOL     OW18484   3.756   3.457   1.986
 5935SOL    HW118485   3.738   3.365   2.006
 5935SOL    HW218486   3.732   3.504   2.066
 5936SOL     OW18487   0.111   2.803   2.437
 5936SOL    HW118488   0.198   2.765   2.454
 5936SOL    HW218489   0.130   2.887   2.396
 5937SOL     OW18490   3.856   2.607   3.445
 5937SOL    HW118491   3.951   2.616   3.452
 5937SOL    HW218492   3.823   2.697   3.442
 5938SOL     OW18493   4.337   3.247   2.597
 5938SOL    HW118494   4.291   3.164   2.607
 5938SOL    HW218495   4.321   3.274   2.507
 5939SOL     OW18496   5.007   3.099   3.287
 5939SOL    HW118497   5.040   3.032   3.227
 5939SOL    HW218498   5.062   3.091   3.365
 5940SOL     OW18499   4.538   1.862   2.370
 5940SOL    HW118500   4.579   1.946   2.351
 5940SOL    HW218501   4.445   1.882   2.380
 5941SOL     OW18502   3.912   2.826   3.136
 5941SOL    HW118503   3.993   2.780   3.114
 5941SOL    HW218504   3.843   2.776   3.093
 5942SOL     OW18505   4.897   3.669   3.485
 5942SOL    HW118506   4.918   3.728   3.413
 5942SOL    HW218507   4.919   3.582   3.453
 5943SOL     OW18508   4.058   2.111   3.675
 5943SOL    HW118509   4.101   2.196   3.688
 5943SOL    HW218510   3.968   2.126   3.705
 5944SOL     OW18511   5.168   3.297   2.798
 5944SOL    HW118512   5.106   3.304   2.871
 5944SOL    HW218513   5.162   3.206   2.770
 5945SOL     OW18514   4.320   2.583   2.128
 5945SOL    HW118515   4.325   2.665   2.078
 5945SOL    HW218516   4.255   2.601   2.196
 5946SOL     OW18517   4.996   2.199   2.781
 5946SOL    HW118518   4.907   2.169   2.803
 5946SOL    HW218519   5.051   2.164   2.852
 5947SOL     OW18520   4.515   2.480   3.313
 5947SOL    HW118521   4.489   2.456   3.402
 5947SOL    HW218522   4.475   2.413   3.257
 5948SOL     OW18523   5.115   2.342   3.542
 5948SOL    HW118524   5.116   2.380   3.630
 5948SOL    HW218525   5.190   2.283   3.540
 5949SOL     OW18526   4.678   2.750   3.444
 5949SOL    HW118527   4.731   2.678   3.409
 5949SOL    HW218528   4.630   2.784   3.369
 5950SOL     OW18529   4.715   2.275   3.100
 5950SOL    HW118530   4.629   2.296   3.137
 5950SOL    HW218531   4.696   2.228   3.019
 5951SOL     OW18532   4.775   2.560   2.287
 5951SOL    HW118533   4.790   2.554   2.382
 5951SOL    HW218534   4.692   2.514   2.274
 5952SOL     OW18535   3.813   2.684   2.637
 5952SOL    HW118536   3.893   2.675   2.688
 5952SOL    HW218537   3.768   2.760   2.674
 5953SOL     OW18538   3.850   3.711   3.440
 5953SOL    HW118539   3.850   3.690   3.534
 5953SOL    HW218540   3.759   3.697   3.413
 5954SOL     OW18541   4.617   2.209   2.056
 5954SOL    HW118542   4.657   2.270   1.994
 5954SOL    HW218543   4.632   2.123   2.018
 5955SOL     OW18544   5.092   3.008   2.410
 5955SOL    HW118545   5.180   3.009   2.371
 5955SOL    HW218546   5.042   3.068   2.354
 5956SOL     OW18547   4.274   2.044   2.755
 5956SOL    HW118548   4.276   2.072   2.846
 5956SOL    HW218549   4.275   2.125   2.704
 5957SOL     OW18550   4.730   3.305   2.334
 5957SOL    HW118551   4.692   3.378   2.285
 5957SOL    HW218552   4.713   3.327   2.426
 5958SOL     OW18553   4.079   3.671   2.724
 5958SOL    HW118554   4.122   3.586   2.732
 5958SOL    HW218555   4.147   3.735   2.742
 5959SOL     OW18556   4.940   3.405   3.382
 5959SOL    HW118557   4.927   3.331   3.441
 5959SOL    HW218558   4.884   3.385   3.307
 5960SOL     OW18559   4.044   2.819   2.112
 5960SOL    HW118560   4.126   2.838   2.067
 5960SOL    HW218561   4.013   2.737   2.073
 5961SOL     OW18562   4.190   3.125   3.599
 5961SOL    HW118563   4.163   3.131   3.507
 5961SOL    HW218564   4.108   3.126   3.648
 5962SOL     OW18565   4.832   3.637   2.098
 5962SOL    HW118566   4.760   3.592   2.143
 5962SOL    HW218567   4.857   3.578   2.028
 5963SOL     OW18568   3.922   2.146   3.363
 5963SOL    HW118569   3.837   2.186   3.347
 5963SOL    HW218570   3.904   2.076   3.426
 5964SOL     OW18571   4.190   3.599   2.183
 5964SOL    HW118572   4.232   3.656   2.247
 5964SOL    HW218573   4.262   3.569   2.127
 5965SOL     OW18574   5.121   1.969   2.286
 5965SOL    HW118575   5.101   1.951   2.194
 5965SOL    HW218576   5.215   1.985   2.288
 5966SOL     OW18577   3.979   3.653   3.094
 5966SOL    HW118578   4.031   3.587   3.140
 5966SOL    HW218579   3.970   3.619   3.005
 5967SOL     OW18580   4.662   3.560   2.761
 5967SOL    HW118581   4.741   3.510   2.779
 5967SOL    HW218582   4.617   3.511   2.692
 5968SOL     OW18583   4.117   2.557   2.338
 5968SOL    HW118584   4.137   2.465   2.349
 5968SOL    HW218585   4.023   2.563   2.356
 5969SOL     OW18586   4.359   1.985   1.967
 5969SOL    HW118587   4.429   1.920   1.979
 5969SOL    HW218588   4.310   1.953   1.891
 5970SOL     OW18589   4.490   2.141   3.616
 5970SOL    HW118590   4.566   2.082   3.617
 5970SOL    HW218591   4.441   2.118   3.695
 5971SOL     OW18592   4.600   3.383   3.056
 5971SOL    HW118593   4.585   3.348   2.968
 5971SOL    HW218594   4.670   3.329   3.092
 5972SOL     OW18595   5.058   2.453   3.294
 5972SOL    HW118596   5.090   2.421   3.378
 5972SOL    HW218597   5.100   2.538   3.283
 5973SOL     OW18598   4.538   3.257   2.801
 5973SOL    HW118599   4.623   3.246   2.757
 5973SOL    HW218600   4.474   3.258   2.730
 5974SOL     OW18601   4.652   2.371   2.765
 5974SOL    HW118602   4.628   2.362   2.672
 5974SOL    HW218603   4.683   2.284   2.790
 5975SOL     OW18604   4.273   1.925   2.364
 5975SOL    HW118605   4.192   1.926   2.416
 5975SOL    HW218606   4.267   2.003   2.310
 5976SOL     OW18607   5.136   3.042   1.906
 5976SOL    HW118608   5.146   2.965   1.961
 5976SOL    HW218609   5.049   3.075   1.926
 5977SOL     OW18610   4.016   1.909   2.047
 5977SOL    HW118611   4.075   1.974   2.007
 5977SOL    HW218612   4.074   1.846   2.088
 5978SOL     OW18613   4.661   2.108   2.322
 5978SOL    HW118614   4.634   2.149   2.240
 5978SOL    HW218615   4.756   2.121   2.325
 5979SOL     OW18616   4.801   2.543   3.323
 5979SOL    HW118617   4.733   2.475   3.325
 5979SOL    HW218618   4.883   2.495   3.313
 5980SOL     OW18619   4.940   3.433   2.656
 5980SOL    HW118620   4.963   3.499   2.591
 5980SOL    HW218621   5.020   3.421   2.707
 5981SOL     OW18622   4.193   3.011   2.596
 5981SOL    HW118623   4.124   2.992   2.659
 5981SOL    HW218624   4.152   2.995   2.510
 5982SOL     OW18625   4.996   3.656   2.467
 5982SOL    HW118626   5.038   3.717   2.407
 5982SOL    HW218627   4.929   3.708   2.512
 5983SOL     OW18628   4.748   2.406   1.883
 5983SOL    HW118629   4.704   2.488   1.863
 5983SOL    HW218630   4.809   2.428   1.954
 5984SOL     OW18631   3.800   2.425   3.245
 5984SOL    HW118632   3.892   2.421   3.218
 5984SOL    HW218633   3.797   2.493   3.312
 5985SOL     OW18634   4.283   2.089   3.028
 5985SOL    HW118635   4.324   2.012   3.068
 5985SOL    HW218636   4.192   2.086   3.057
 5986SOL     OW18637   4.593   2.321   2.501
 5986SOL    HW118638   4.546   2.376   2.438
 5986SOL    HW218639   4.613   2.241   2.453
 5987SOL     OW18640   4.739   1.915   2.614
 5987SOL    HW118641   4.681   1.908   2.538
 5987SOL    HW218642   4.717   1.839   2.668
 5988SOL     OW18643   5.157   3.038   2.713
 5988SOL    HW118644   5.101   2.961   2.726
 5988SOL    HW218645   5.169   3.043   2.618
 5989SOL     OW18646   4.215   3.280   2.019
 5989SOL    HW118647   4.140   3.251   2.071
 5989SOL    HW218648   4.200   3.241   1.932
 5990SOL     OW18649   5.127   2.424   1.942
 5990SOL    HW118650   5.055   2.414   2.003
 5990SOL    HW218651   5.202   2.386   1.987
 5991SOL     OW18652   4.250   2.125   2.180
 5991SOL    HW118653   4.294   2.077   2.110
 5991SOL    HW218654   4.227   2.209   2.142
 5992SOL     OW18655   4.781   3.216   3.195
 5992SOL    HW118656   4.706   3.185   3.246
 5992SOL    HW218657   4.856   3.173   3.236
 5993SOL     OW18658   0.006   3.466   3.479
 5993SOL    HW118659   0.040   3.472   3.389
 5993SOL    HW218660   0.083   3.446   3.532
 5994SOL     OW18661   4.853   3.065   2.968
 5994SOL    HW118662   4.791   3.101   3.033
 5994SOL    HW218663   4.819   3.094   2.884
 5995SOL     OW18664   4.642   1.960   3.259
 5995SOL    HW118665   4.664   1.941   3.167
 5995SOL    HW218666   4.721   1.999   3.295
 5996SOL     OW18667   4.709   2.975   3.587
 5996SOL    HW118668   4.617   2.992   3.607
 5996SOL    HW218669   4.706   2.898   3.530
 5997SOL     OW18670   4.432   2.923   2.233
 5997SOL    HW118671   4.418   2.907   2.326
 5997SOL    HW218672   4.508   2.870   2.210
 5998SOL     OW18673   4.143   2.676   3.112
 5998SOL    HW118674   4.210   2.686   3.179
 5998SOL    HW218675   4.108   2.588   3.126
 5999SOL     OW18676   4.988   2.237   3.138
 5999SOL    HW118677   5.023   2.316   3.179
 5999SOL    HW218678   4.899   2.261   3.113
 6000SOL     OW18679   3.794   3.434   3.216
 6000SOL    HW118680   3.764   3.509   3.165
 6000SOL    HW218681   3.890   3.437   3.209
 6001SOL     OW18682   4.073   2.971   2.353
 6001SOL    HW118683   4.078   3.045   2.292
 6001SOL    HW218684   4.071   2.894   2.296
 6002SOL     OW18685   4.277   2.398   2.722
 6002SOL    HW118686   4.293   2.457   2.647
 6002SOL    HW218687   4.341   2.425   2.787
 6003SOL     OW18688   4.972   3.211   2.249
 6003SOL    HW118689   5.026   3.284   2.280
 6003SOL    HW218690   4.884   3.231   2.283
 6004SOL     OW18691   4.994   3.318   3.001
 6004SOL    HW118692   5.049   3.320   3.080
 6004SOL    HW218693   4.940   3.240   3.012
 6005SOL     OW18694   4.071   3.390   3.177
 6005SOL    HW118695   4.058   3.347   3.093
 6005SOL    HW218696   4.166   3.402   3.183
 6006SOL     OW18697   4.137   2.606   3.463
 6006SOL    HW118698   4.199   2.650   3.406
 6006SOL    HW218699   4.176   2.519   3.478
 6007SOL     OW18700   4.718   1.986   3.618
 6007SOL    HW118701   4.775   2.058   3.590
 6007SOL    HW218702   4.766   1.907   3.592
 6008SOL     OW18703   4.222   1.903   3.610
 6008SOL    HW118704   4.179   1.849   3.544
 6008SOL    HW218705   4.163   1.977   3.622
 6009SOL     OW18706   4.308   2.734   2.893
 6009SOL    HW118707   4.336   2.826   2.892
 6009SOL    HW218708   4.250   2.728   2.970
 6010SOL     OW18709   5.086   2.719   2.899
 6010SOL    HW118710   5.009   2.701   2.845
 6010SOL    HW218711   5.138   2.639   2.894
 6011SOL     OW18712   4.928   2.393   2.127
 6011SOL    HW118713   4.935   2.313   2.179
 6011SOL    HW218714   4.885   2.456   2.184
 6012SOL     OW18715   4.023   2.060   3.109
 6012SOL    HW118716   3.985   2.094   3.190
 6012SOL    HW218717   4.002   1.967   3.110
 6013SOL     OW18718   3.771   3.174   3.134
 6013SOL    HW118719   3.798   3.117   3.206
 6013SOL    HW218720   3.775   3.262   3.170
 6014SOL     OW18721   4.448   2.493   2.920
 6014SOL    HW118722   4.522   2.477   2.862
 6014SOL    HW218723   4.419   2.582   2.899
 6015SOL     OW18724   4.027   1.926   2.485
 6015SOL    HW118725   4.007   2.017   2.508
 6015SOL    HW218726   4.034   1.881   2.569
 6016SOL     OW18727   0.035   2.255   2.221
 6016SOL    HW118728   0.054   2.181   2.278
 6016SOL    HW218729   0.017   2.328   2.282
 6017SOL     OW18730   4.751   2.621   2.822
 6017SOL    HW118731   4.749   2.639   2.916
 6017SOL    HW218732   4.725   2.529   2.814
 6018SOL     OW18733   4.697   3.423   3.576
 6018SOL    HW118734   4.686   3.471   3.493
 6018SOL    HW218735   4.746   3.344   3.551
 6019SOL     OW18736   4.080   2.778   3.670
 6019SOL    HW118737   4.161   2.796   3.716
 6019SOL    HW218738   4.103   2.714   3.603
 6020SOL     OW18739   5.027   2.691   1.899
 6020SOL    HW118740   5.064   2.603   1.901
 6020SOL    HW218741   5.054   2.727   1.814
 6021SOL     OW18742   4.789   3.196   2.717
 6021SOL    HW118743   4.793   3.124   2.654
 6021SOL    HW218744   4.847   3.263   2.681
 6022SOL     OW18745   4.033   2.671   2.808
 6022SOL    HW118746   4.126   2.692   2.803
 6022SOL    HW218747   4.030   2.582   2.843
 6023SOL     OW18748   4.056   2.388   2.876
 6023SOL    HW118749   4.020   2.301   2.860
 6023SOL    HW218750   4.132   2.393   2.817
 6024SOL     OW18751   4.856   2.238   3.543
 6024SOL    HW118752   4.809   2.293   3.605
 6024SOL    HW218753   4.944   2.277   3.538
 6025SOL     OW18754   4.885   2.064   3.331
 6025SOL    HW118755   4.874   2.126   3.403
 6025SOL    HW218756   4.924   2.116   3.260
 6026SOL     OW18757   3.729   3.183   2.057
 6026SOL    HW118758   3.642   3.198   2.019
 6026SOL    HW218759   3.726   3.094   2.091
 6027SOL     OW18760   3.814   3.650   2.799
 6027SOL    HW118761   3.785   3.570   2.756
 6027SOL    HW218762   3.904   3.662   2.768
 6028SOL     OW18763   4.221   3.436   2.767
 6028SOL    HW118764   4.289   3.498   2.792
 6028SOL    HW218765   4.265   3.372   2.711
 6029SOL     OW18766   4.707   2.654   3.089
 6029SOL    HW118767   4.762   2.631   3.163
 6029SOL    HW218768   4.621   2.617   3.109
 6030SOL     OW18769   3.749   2.397   2.971
 6030SOL    HW118770   3.837   2.395   2.934
 6030SOL    HW218771   3.762   2.418   3.064
 6031SOL     OW18772   3.921   2.383   3.591
 6031SOL    HW118773   3.969   2.337   3.522
 6031SOL    HW218774   3.873   2.452   3.546
 6032SOL     OW18775   5.112   2.800   3.528
 6032SOL    HW118776   5.121   2.895   3.516
 6032SOL    HW218777   5.115   2.764   3.440
 6033SOL     OW18778   4.540   2.431   2.221
 6033SOL    HW118779   4.543   2.356   2.161
 6033SOL    HW218780   4.466   2.483   2.190
 6034SOL     OW18781   3.970   3.414   3.590
 6034SOL    HW118782   3.946   3.479   3.656
 6034SOL    HW218783   3.970   3.331   3.637
 6035SOL     OW18784   4.425   2.312   3.121
 6035SOL    HW118785   4.372   2.239   3.091
 6035SOL    HW218786   4.421   2.376   3.050
 6036SOL     OW18787   4.645   3.542   3.330
 6036SOL    HW118788   4.623   3.510   3.243
 6036SOL    HW218789   4.646   3.637   3.321
 6037SOL     OW18790   4.189   2.354   2.049
 6037SOL    HW118791   4.247   2.427   2.071
 6037SOL    HW218792   4.103   2.395   2.037
 6038SOL     OW18793   3.875   3.005   3.332
 6038SOL    HW118794   3.879   2.955   3.413
 6038SOL    HW218795   3.889   2.940   3.263
 6039SOL     OW18796   5.054   2.911   3.086
 6039SOL    HW118797   5.075   2.847   3.019
 6039SOL    HW218798   4.982   2.962   3.048
 6040SOL     OW18799   5.034   2.722   2.178
 6040SOL    HW118800   4.952   2.689   2.215
 6040SOL    HW218801   5.023   2.713   2.084
 6041SOL     OW18802   4.960   3.593   2.983
 6041SOL    HW118803   5.045   3.614   2.947
 6041SOL    HW218804   4.960   3.498   2.993
 6042SOL     OW18805   3.806   3.131   2.871
 6042SOL    HW118806   3.794   3.143   2.965
 6042SOL    HW218807   3.735   3.072   2.845
 6043SOL     OW18808   4.401   3.527   3.590
 6043SOL    HW118809   4.349   3.607   3.584
 6043SOL    HW218810   4.469   3.537   3.525
 6044SOL     OW18811   0.081   2.022   2.392
 6044SOL    HW118812   0.165   2.009   2.349
 6044SOL    HW218813   0.068   1.942   2.443
 6045SOL     OW18814   5.111   3.432   2.342
 6045SOL    HW118815   5.181   3.472   2.291
 6045SOL    HW218816   5.061   3.506   2.377
 6046SOL     OW18817   3.861   3.657   3.706
 6046SOL    HW118818   3.809   3.593   3.754
 6046SOL    HW218819   3.908   3.705   3.774
 6047SOL     OW18820   5.016   2.781   2.534
 6047SOL    HW118821   5.094   2.727   2.521
 6047SOL    HW218822   5.034   2.862   2.485
 6048SOL     OW18823   4.538   3.135   3.292
 6048SOL    HW118824   4.510   3.175   3.375
 6048SOL    HW218825   4.469   3.158   3.230
 6049SOL     OW18826   4.395   3.482   2.017
 6049SOL    HW118827   4.406   3.494   1.923
 6049SOL    HW218828   4.340   3.404   2.025
 6050SOL     OW18829   3.986   2.178   2.579
 6050SOL    HW118830   3.901   2.214   2.555
 6050SOL    HW218831   3.984   2.170   2.674
 6051SOL     OW18832   4.908   3.471   1.904
 6051SOL    HW118833   4.920   3.377   1.914
 6051SOL    HW218834   4.854   3.480   1.825
 6052SOL     OW18835   4.548   2.868   3.235
 6052SOL    HW118836   4.591   2.864   3.149
 6052SOL    HW218837   4.547   2.961   3.256
 6053SOL     OW18838   4.640   2.773   2.152
 6053SOL    HW118839   4.702   2.805   2.086
 6053SOL    HW218840   4.687   2.702   2.197
 6054SOL     OW18841   4.095   3.167   3.354
 6054SOL    HW118842   4.081   3.244   3.299
 6054SOL    HW218843   4.019   3.112   3.336
 6055SOL     OW18844   4.776   2.969   2.568
 6055SOL    HW118845   4.705   2.919   2.609
 6055SOL    HW218846   4.834   2.902   2.531
 6056SOL     OW18847   4.740   2.101   2.830
 6056SOL    HW118848   4.737   2.054   2.747
 6056SOL    HW218849   4.736   2.033   2.897
 6057SOL     OW18850   4.326   3.350   2.344
 6057SOL    HW118851   4.371   3.300   2.275
 6057SOL    HW218852   4.258   3.398   2.298
 6058SOL     OW18853   3.983   3.207   2.150
 6058SOL    HW118854   3.890   3.205   2.128
 6058SOL    HW218855   3.986   3.244   2.238
 6059SOL     OW18856   3.849   2.893   3.584
 6059SOL    HW118857   3.780   2.868   3.644
 6059SOL    HW218858   3.929   2.856   3.622
 6060SOL     OW18859   4.398   2.058   3.362
 6060SOL    HW118860   4.482   2.038   3.320
 6060SOL    HW218861   4.421   2.090   3.449
 6061SOL     OW18862   3.802   2.196   1.897
 6061SOL    HW118863   3.715   2.176   1.863
 6061SOL    HW218864   3.832   2.271   1.846
 6062SOL     OW18865   5.162   2.722   3.266
 6062SOL    HW118866   5.111   2.779   3.209
 6062SOL    HW218867   5.252   2.729   3.232
 6063SOL     OW18868   3.792   2.018   2.172
 6063SOL    HW118869   3.778   2.098   2.121
 6063SOL    HW218870   3.877   1.986   2.143
 6064SOL     OW18871   4.907   3.191   1.976
 6064SOL    HW118872   4.813   3.173   1.977
 6064SOL    HW218873   4.931   3.198   2.068
 6065SOL     OW18874   4.342   2.693   3.296
 6065SOL    HW118875   4.398   2.769   3.280
 6065SOL    HW218876   4.403   2.619   3.303
 6066SOL     OW18877   4.442   2.425   3.566
 6066SOL    HW118878   4.482   2.487   3.627
 6066SOL    HW218879   4.469   2.339   3.598
 6067SOL     OW18880   5.182   3.066   3.494
 6067SOL    HW118881   5.173   3.079   3.589
 6067SOL    HW218882   5.276   3.073   3.478
 6068SOL     OW18883   4.103   3.602   3.426
 6068SOL    HW118884   4.018   3.644   3.412
 6068SOL    HW218885   4.082   3.519   3.468
 6069SOL     OW18886   4.940   2.182   2.318
 6069SOL    HW118887   5.002   2.110   2.305
 6069SOL    HW218888   4.970   2.226   2.397
 6070SOL     OW18889   4.315   2.599   2.531
 6070SOL    HW118890   4.353   2.686   2.516
 6070SOL    HW218891   4.246   2.592   2.464
 6071SOL     OW18892   4.590   3.228   1.897
 6071SOL    HW118893   4.549   3.258   1.978
 6071SOL    HW218894   4.606   3.308   1.847
 6072SOL     OW18895   4.384   3.653   2.806
 6072SOL    HW118896   4.364   3.744   2.783
 6072SOL    HW218897   4.479   3.647   2.800
 6073SOL     OW18898   4.592   2.829   2.717
 6073SOL    HW118899   4.641   2.758   2.757
 6073SOL    HW218900   4.557   2.878   2.792
 6074SOL     OW18901   4.806   2.849   1.952
 6074SOL    HW118902   4.782   2.899   1.874
 6074SOL    HW218903   4.881   2.796   1.925
 6075SOL     OW18904   3.951   3.167   3.718
 6075SOL    HW118905   3.884   3.106   3.688
 6075SOL    HW218906   3.935   3.175   3.812
 6076SOL     OW18907   3.807   3.095   2.527
 6076SOL    HW118908   3.811   3.047   2.609
 6076SOL    HW218909   3.876   3.057   2.473
 6077SOL     OW18910   4.406   3.263   3.491
 6077SOL    HW118911   4.325   3.222   3.520
 6077SOL    HW218912   4.401   3.352   3.526
 6078SOL     OW18913   4.153   2.296   2.387
 6078SOL    HW118914   4.183   2.225   2.331
 6078SOL    HW218915   4.105   2.252   2.458
 6079SOL     OW18916   0.095   3.383   2.962
 6079SOL    HW118917   0.028   3.359   2.898
 6079SOL    HW218918   0.103   3.307   3.019
 6080SOL     OW18919   4.056   2.418   3.154
 6080SOL    HW118920   4.110   2.361   3.209
 6080SOL    HW218921   4.073   2.389   3.065
 6081SOL     OW18922   4.552   3.439   2.539
 6081SOL    HW118923   4.540   3.493   2.461
 6081SOL    HW218924   4.474   3.383   2.542
 6082SOL     OW18925   5.147   2.081   2.977
 6082SOL    HW118926   5.193   2.016   3.031
 6082SOL    HW218927   5.101   2.136   3.040
 6083SOL     OW18928   4.730   1.881   3.005
 6083SOL    HW118929   4.677   1.812   2.964
 6083SOL    HW218930   4.818   1.843   3.009
 6084SOL     OW18931   4.495   3.195   2.177
 6084SOL    HW118932   4.464   3.104   2.183
 6084SOL    HW218933   4.577   3.195   2.225
 6085SOL     OW18934   4.344   3.418   3.147
 6085SOL    HW118935   4.346   3.501   3.196
 6085SOL    HW218936   4.431   3.411   3.109
 6086SOL     OW18937   5.058   1.908   2.029
 6086SOL    HW118938   5.082   1.867   1.946
 6086SOL    HW218939   4.973   1.870   2.051
 6087SOL     OW18940   5.028   2.320   2.544
 6087SOL    HW118941   4.973   2.399   2.548
 6087SOL    HW218942   5.017   2.279   2.630
 6088SOL     OW18943   0.002   2.087   2.742
 6088SOL    HW118944   5.236   2.075   2.810
 6088SOL    HW218945   5.276   2.167   2.697
 6089SOL     OW18946   3.767   2.933   2.168
 6089SOL    HW118947   3.861   2.925   2.151
 6089SOL    HW218948   3.739   2.844   2.191
 6090SOL     OW18949   4.604   3.512   2.208
 6090SOL    HW118950   4.533   3.497   2.145
 6090SOL    HW218951   4.577   3.589   2.257
 6091SOL     OW18952   3.948   2.488   3.849
 6091SOL    HW118953   3.860   2.473   3.882
 6091SOL    HW218954   3.945   2.462   3.757
 6092SOL     OW18955   3.947   2.141   4.714
 6092SOL    HW118956   3.975   2.108   4.800
 6092SOL    HW218957   3.856   2.113   4.707
 6093SOL     OW18958   3.732   2.248   4.365
 6093SOL    HW118959   3.653   2.273   4.414
 6093SOL    HW218960   3.705   2.172   4.314
 6094SOL     OW18961   4.291   3.149   4.899
 6094SOL    HW118962   4.203   3.153   4.861
 6094SOL    HW218963   4.307   3.238   4.932
 6095SOL     OW18964   5.285   3.398   4.430
 6095SOL    HW118965   5.246   3.355   4.506
 6095SOL    HW218966   5.220   3.389   4.360
 6096SOL     OW18967   4.858   2.561   4.424
 6096SOL    HW118968   4.909   2.642   4.414
 6096SOL    HW218969   4.810   2.573   4.506
 6097SOL     OW18970   4.479   3.004   4.764
 6097SOL    HW118971   4.410   3.039   4.821
 6097SOL    HW218972   4.514   3.081   4.720
 6098SOL     OW18973   4.592   2.636   5.547
 6098SOL    HW118974   4.575   2.708   5.608
 6098SOL    HW218975   4.614   2.680   5.464
 6099SOL     OW18976   4.410   2.865   4.371
 6099SOL    HW118977   4.475   2.853   4.441
 6099SOL    HW218978   4.340   2.917   4.412
 6100SOL     OW18979   4.434   3.013   5.537
 6100SOL    HW118980   4.482   3.091   5.563
 6100SOL    HW218981   4.352   3.046   5.501
 6101SOL     OW18982   4.055   3.288   4.792
 6101SOL    HW118983   3.982   3.251   4.742
 6101SOL    HW218984   4.105   3.338   4.727
 6102SOL     OW18985   5.160   3.343   5.075
 6102SOL    HW118986   5.206   3.423   5.100
 6102SOL    HW218987   5.106   3.321   5.151
 6103SOL     OW18988   4.173   2.260   5.212
 6103SOL    HW118989   4.248   2.200   5.217
 6103SOL    HW218990   4.096   2.205   5.224
 6104SOL     OW18991   3.943   3.578   4.197
 6104SOL    HW118992   3.965   3.654   4.250
 6104SOL    HW218993   4.016   3.569   4.135
 6105SOL     OW18994   4.860   3.202   5.418
 6105SOL    HW118995   4.899   3.198   5.505
 6105SOL    HW218996   4.807   3.122   5.411
 6106SOL     OW18997   3.959   3.305   4.253
 6106SOL    HW118998   3.938   3.398   4.262
 6106SOL    HW218999   3.906   3.263   4.320
 6107SOL     OW19000   3.977   2.951   4.615
 6107SOL    HW119001   3.983   2.868   4.663
 6107SOL    HW219002   3.926   3.008   4.672
 6108SOL     OW19003   4.333   3.655   5.150
 6108SOL    HW119004   4.253   3.637   5.199
 6108SOL    HW219005   4.358   3.743   5.177
 6109SOL     OW19006   4.310   2.844   3.858
 6109SOL    HW119007   4.355   2.893   3.790
 6109SOL    HW219008   4.349   2.874   3.940
 6110SOL     OW19009   3.844   2.517   4.278
 6110SOL    HW119010   3.815   2.430   4.307
 6110SOL    HW219011   3.847   2.569   4.359
 6111SOL     OW19012   3.755   3.453   3.848
 6111SOL    HW119013   3.741   3.362   3.872
 6111SOL    HW219014   3.733   3.502   3.927
 6112SOL     OW19015   0.112   2.803   4.301
 6112SOL    HW119016   0.198   2.765   4.315
 6112SOL    HW219017   0.129   2.886   4.257
 6113SOL     OW19018   3.848   2.605   5.310
 6113SOL    HW119019   3.941   2.627   5.317
 6113SOL    HW219020   3.803   2.688   5.321
 6114SOL     OW19021   4.337   3.247   4.460
 6114SOL    HW119022   4.291   3.164   4.469
 6114SOL    HW219023   4.321   3.274   4.369
 6115SOL     OW19024   5.007   3.099   5.149
 6115SOL    HW119025   5.040   3.032   5.089
 6115SOL    HW219026   5.062   3.091   5.227
 6116SOL     OW19027   4.538   1.862   4.232
 6116SOL    HW119028   4.579   1.947   4.213
 6116SOL    HW219029   4.445   1.882   4.242
 6117SOL     OW19030   3.912   2.829   4.994
 6117SOL    HW119031   3.994   2.783   4.976
 6117SOL    HW219032   3.844   2.773   4.958
 6118SOL     OW19033   4.896   3.669   5.347
 6118SOL    HW119034   4.918   3.728   5.275
 6118SOL    HW219035   4.918   3.582   5.315
 6119SOL     OW19036   4.057   2.112   5.537
 6119SOL    HW119037   4.101   2.196   5.551
 6119SOL    HW219038   3.967   2.126   5.567
 6120SOL     OW19039   5.168   3.297   4.660
 6120SOL    HW119040   5.106   3.304   4.733
 6120SOL    HW219041   5.162   3.206   4.632
 6121SOL     OW19042   4.320   2.583   3.990
 6121SOL    HW119043   4.325   2.665   3.940
 6121SOL    HW219044   4.255   2.601   4.058
 6122SOL     OW19045   4.996   2.199   4.644
 6122SOL    HW119046   4.907   2.169   4.665
 6122SOL    HW219047   5.051   2.164   4.714
 6123SOL     OW19048   4.515   2.480   5.175
 6123SOL    HW119049   4.489   2.456   5.264
 6123SOL    HW219050   4.475   2.413   5.119
 6124SOL     OW19051   5.115   2.342   5.404
 6124SOL    HW119052   5.116   2.380   5.492
 6124SOL    HW219053   5.190   2.283   5.402
 6125SOL     OW19054   4.678   2.750   5.306
 6125SOL    HW119055   4.731   2.678   5.271
 6125SOL    HW219056   4.630   2.784   5.231
 6126SOL     OW19057   4.715   2.275   4.962
 6126SOL    HW119058   4.629   2.296   4.999
 6126SOL    HW219059   4.696   2.228   4.881
 6127SOL     OW19060   4.775   2.560   4.149
 6127SOL    HW119061   4.790   2.554   4.244
 6127SOL    HW219062   4.692   2.513   4.136
 6128SOL     OW19063   3.858   2.692   4.489
 6128SOL    HW119064   3.930   2.683   4.550
 6128SOL    HW219065   3.809   2.768   4.520
 6129SOL     OW19066   3.851   3.709   5.302
 6129SOL    HW119067   3.851   3.688   5.395
 6129SOL    HW219068   3.759   3.702   5.276
 6130SOL     OW19069   4.617   2.210   3.918
 6130SOL    HW119070   4.657   2.270   3.856
 6130SOL    HW219071   4.631   2.123   3.880
 6131SOL     OW19072   5.092   3.008   4.271
 6131SOL    HW119073   5.180   3.009   4.233
 6131SOL    HW219074   5.041   3.068   4.216
 6132SOL     OW19075   4.274   2.043   4.617
 6132SOL    HW119076   4.276   2.072   4.708
 6132SOL    HW219077   4.275   2.125   4.566
 6133SOL     OW19078   4.730   3.305   4.196
 6133SOL    HW119079   4.692   3.377   4.147
 6133SOL    HW219080   4.713   3.327   4.288
 6134SOL     OW19081   4.078   3.671   4.587
 6134SOL    HW119082   4.122   3.586   4.594
 6134SOL    HW219083   4.147   3.735   4.604
 6135SOL     OW19084   4.940   3.405   5.244
 6135SOL    HW119085   4.927   3.331   5.303
 6135SOL    HW219086   4.884   3.384   5.168
 6136SOL     OW19087   4.043   2.819   3.973
 6136SOL    HW119088   4.125   2.838   3.928
 6136SOL    HW219089   4.015   2.734   3.938
 6137SOL     OW19090   4.190   3.126   5.462
 6137SOL    HW119091   4.162   3.131   5.370
 6137SOL    HW219092   4.108   3.125   5.511
 6138SOL     OW19093   4.832   3.637   3.961
 6138SOL    HW119094   4.760   3.592   4.005
 6138SOL    HW219095   4.857   3.578   3.890
 6139SOL     OW19096   3.925   2.145   5.225
 6139SOL    HW119097   3.842   2.192   5.213
 6139SOL    HW219098   3.904   2.076   5.287
 6140SOL     OW19099   4.190   3.599   4.045
 6140SOL    HW119100   4.232   3.656   4.109
 6140SOL    HW219101   4.262   3.569   3.989
 6141SOL     OW19102   5.121   1.969   4.148
 6141SOL    HW119103   5.101   1.951   4.056
 6141SOL    HW219104   5.215   1.985   4.150
 6142SOL     OW19105   3.977   3.653   4.956
 6142SOL    HW119106   4.030   3.589   5.003
 6142SOL    HW219107   3.972   3.619   4.866
 6143SOL     OW19108   4.662   3.560   4.623
 6143SOL    HW119109   4.742   3.510   4.640
 6143SOL    HW219110   4.617   3.511   4.554
 6144SOL     OW19111   4.119   2.558   4.199
 6144SOL    HW119112   4.138   2.465   4.211
 6144SOL    HW219113   4.025   2.565   4.216
 6145SOL     OW19114   4.359   1.985   3.829
 6145SOL    HW119115   4.429   1.920   3.841
 6145SOL    HW219116   4.310   1.953   3.754
 6146SOL     OW19117   4.490   2.141   5.478
 6146SOL    HW119118   4.566   2.082   5.479
 6146SOL    HW219119   4.441   2.117   5.557
 6147SOL     OW19120   4.599   3.383   4.918
 6147SOL    HW119121   4.585   3.348   4.830
 6147SOL    HW219122   4.670   3.329   4.954
 6148SOL     OW19123   5.058   2.453   5.156
 6148SOL    HW119124   5.090   2.421   5.240
 6148SOL    HW219125   5.100   2.538   5.145
 6149SOL     OW19126   4.538   3.257   4.663
 6149SOL    HW119127   4.623   3.246   4.619
 6149SOL    HW219128   4.474   3.258   4.592
 6150SOL     OW19129   4.652   2.371   4.627
 6150SOL    HW119130   4.628   2.362   4.534
 6150SOL    HW219131   4.683   2.284   4.652
 6151SOL     OW19132   4.273   1.925   4.226
 6151SOL    HW119133   4.192   1.926   4.278
 6151SOL    HW219134   4.267   2.004   4.171
 6152SOL     OW19135   5.137   3.043   3.768
 6152SOL    HW119136   5.146   2.964   3.822
 6152SOL    HW219137   5.049   3.075   3.788
 6153SOL     OW19138   4.015   1.910   3.909
 6153SOL    HW119139   4.073   1.974   3.868
 6153SOL    HW219140   4.074   1.847   3.950
 6154SOL     OW19141   4.661   2.108   4.184
 6154SOL    HW119142   4.634   2.149   4.102
 6154SOL    HW219143   4.756   2.121   4.187
 6155SOL     OW19144   4.801   2.543   5.185
 6155SOL    HW119145   4.734   2.475   5.187
 6155SOL    HW219146   4.883   2.495   5.175
 6156SOL     OW19147   4.940   3.433   4.518
 6156SOL    HW119148   4.963   3.500   4.453
 6156SOL    HW219149   5.021   3.421   4.569
 6157SOL     OW19150   4.192   3.011   4.459
 6157SOL    HW119151   4.122   2.991   4.521
 6157SOL    HW219152   4.152   2.995   4.373
 6158SOL     OW19153   4.996   3.656   4.329
 6158SOL    HW119154   5.038   3.717   4.269
 6158SOL    HW219155   4.930   3.709   4.374
 6159SOL     OW19156   4.748   2.406   3.746
 6159SOL    HW119157   4.704   2.488   3.725
 6159SOL    HW219158   4.809   2.428   3.816
 6160SOL     OW19159   3.802   2.417   5.113
 6160SOL    HW119160   3.894   2.416   5.087
 6160SOL    HW219161   3.796   2.487   5.178
 6161SOL     OW19162   4.283   2.089   4.890
 6161SOL    HW119163   4.324   2.012   4.930
 6161SOL    HW219164   4.192   2.086   4.919
 6162SOL     OW19165   4.593   2.321   4.363
 6162SOL    HW119166   4.546   2.375   4.300
 6162SOL    HW219167   4.613   2.241   4.315
 6163SOL     OW19168   4.739   1.915   4.476
 6163SOL    HW119169   4.681   1.908   4.400
 6163SOL    HW219170   4.717   1.839   4.530
 6164SOL     OW19171   5.157   3.038   4.575
 6164SOL    HW119172   5.101   2.961   4.588
 6164SOL    HW219173   5.169   3.043   4.480
 6165SOL     OW19174   4.214   3.279   3.882
 6165SOL    HW119175   4.138   3.251   3.932
 6165SOL    HW219176   4.200   3.242   3.794
 6166SOL     OW19177   5.127   2.424   3.804
 6166SOL    HW119178   5.055   2.414   3.866
 6166SOL    HW219179   5.202   2.386   3.849
 6167SOL     OW19180   4.250   2.125   4.042
 6167SOL    HW119181   4.294   2.077   3.972
 6167SOL    HW219182   4.227   2.209   4.003
 6168SOL     OW19183   4.781   3.216   5.057
 6168SOL    HW119184   4.706   3.185   5.108
 6168SOL    HW219185   4.856   3.173   5.098
 6169SOL     OW19186   0.006   3.466   5.341
 6169SOL    HW119187   0.040   3.472   5.251
 6169SOL    HW219188   0.083   3.446   5.394
 6170SOL     OW19189   4.853   3.065   4.830
 6170SOL    HW119190   4.791   3.101   4.895
 6170SOL    HW219191   4.819   3.095   4.746
 6171SOL     OW19192   4.642   1.960   5.121
 6171SOL    HW119193   4.664   1.941   5.029
 6171SOL    HW219194   4.721   1.999   5.157
 6172SOL     OW19195   4.708   2.975   5.449
 6172SOL    HW119196   4.617   2.992   5.469
 6172SOL    HW219197   4.706   2.898   5.392
 6173SOL     OW19198   4.432   2.923   4.095
 6173SOL    HW119199   4.419   2.907   4.189
 6173SOL    HW219200   4.508   2.870   4.072
 6174SOL     OW19201   4.142   2.677   4.976
 6174SOL    HW119202   4.210   2.687   5.043
 6174SOL    HW219203   4.107   2.589   4.990
 6175SOL     OW19204   4.988   2.237   5.000
 6175SOL    HW119205   5.023   2.316   5.042
 6175SOL    HW219206   4.899   2.261   4.975
 6176SOL     OW19207   3.794   3.436   5.077
 6176SOL    HW119208   3.766   3.509   5.022
 6176SOL    HW219209   3.890   3.438   5.072
 6177SOL     OW19210   4.071   2.973   4.216
 6177SOL    HW119211   4.079   3.044   4.152
 6177SOL    HW219212   4.070   2.893   4.162
 6178SOL     OW19213   4.277   2.399   4.584
 6178SOL    HW119214   4.292   2.457   4.510
 6178SOL    HW219215   4.342   2.425   4.649
 6179SOL     OW19216   4.972   3.211   4.111
 6179SOL    HW119217   5.026   3.283   4.142
 6179SOL    HW219218   4.884   3.231   4.145
 6180SOL     OW19219   4.994   3.318   4.863
 6180SOL    HW119220   5.049   3.321   4.942
 6180SOL    HW219221   4.940   3.240   4.874
 6181SOL     OW19222   4.070   3.389   5.039
 6181SOL    HW119223   4.058   3.346   4.955
 6181SOL    HW219224   4.165   3.401   5.047
 6182SOL     OW19225   4.138   2.607   5.326
 6182SOL    HW119226   4.200   2.651   5.268
 6182SOL    HW219227   4.176   2.520   5.341
 6183SOL     OW19228   4.718   1.986   5.480
 6183SOL    HW119229   4.775   2.058   5.452
 6183SOL    HW219230   4.766   1.907   5.454
 6184SOL     OW19231   4.222   1.903   5.472
 6184SOL    HW119232   4.179   1.849   5.406
 6184SOL    HW219233   4.162   1.977   5.484
 6185SOL     OW19234   4.311   2.736   4.758
 6185SOL    HW119235   4.341   2.827   4.756
 6185SOL    HW219236   4.254   2.731   4.835
 6186SOL     OW19237   5.086   2.719   4.761
 6186SOL    HW119238   5.009   2.701   4.707
 6186SOL    HW219239   5.138   2.639   4.756
 6187SOL     OW19240   4.928   2.393   3.989
 6187SOL    HW119241   4.935   2.313   4.041
 6187SOL    HW219242   4.885   2.456   4.046
 6188SOL     OW19243   4.023   2.061   4.970
 6188SOL    HW119244   3.985   2.094   5.051
 6188SOL    HW219245   4.004   1.967   4.971
 6189SOL     OW19246   3.780   3.175   4.997
 6189SOL    HW119247   3.805   3.118   5.070
 6189SOL    HW219248   3.781   3.263   5.034
 6190SOL     OW19249   4.448   2.492   4.782
 6190SOL    HW119250   4.523   2.477   4.724
 6190SOL    HW219251   4.421   2.582   4.762
 6191SOL     OW19252   4.026   1.926   4.347
 6191SOL    HW119253   4.008   2.017   4.370
 6191SOL    HW219254   4.034   1.881   4.431
 6192SOL     OW19255   0.035   2.256   4.083
 6192SOL    HW119256   0.054   2.181   4.140
 6192SOL    HW219257   0.017   2.328   4.144
 6193SOL     OW19258   4.751   2.621   4.684
 6193SOL    HW119259   4.749   2.639   4.778
 6193SOL    HW219260   4.725   2.529   4.676
 6194SOL     OW19261   4.697   3.423   5.438
 6194SOL    HW119262   4.686   3.471   5.355
 6194SOL    HW219263   4.746   3.344   5.413
 6195SOL     OW19264   4.077   2.778   5.533
 6195SOL    HW119265   4.160   2.797   5.578
 6195SOL    HW219266   4.101   2.716   5.464
 6196SOL     OW19267   5.027   2.691   3.761
 6196SOL    HW119268   5.065   2.603   3.763
 6196SOL    HW219269   5.054   2.727   3.676
 6197SOL     OW19270   4.789   3.196   4.579
 6197SOL    HW119271   4.793   3.124   4.516
 6197SOL    HW219272   4.847   3.263   4.543
 6198SOL     OW19273   4.045   2.672   4.680
 6198SOL    HW119274   4.139   2.690   4.676
 6198SOL    HW219275   4.039   2.582   4.712
 6199SOL     OW19276   4.055   2.386   4.737
 6199SOL    HW119277   4.020   2.299   4.721
 6199SOL    HW219278   4.131   2.392   4.679
 6200SOL     OW19279   4.856   2.238   5.405
 6200SOL    HW119280   4.809   2.293   5.467
 6200SOL    HW219281   4.944   2.277   5.400
 6201SOL     OW19282   4.885   2.064   5.193
 6201SOL    HW119283   4.874   2.126   5.265
 6201SOL    HW219284   4.924   2.116   5.122
 6202SOL     OW19285   3.715   3.178   3.919
 6202SOL    HW119286   3.622   3.183   3.902
 6202SOL    HW219287   3.729   3.090   3.955
 6203SOL     OW19288   3.814   3.649   4.662
 6203SOL    HW119289   3.785   3.570   4.618
 6203SOL    HW219290   3.904   3.662   4.631
 6204SOL     OW19291   4.221   3.436   4.629
 6204SOL    HW119292   4.289   3.498   4.654
 6204SOL    HW219293   4.265   3.372   4.573
 6205SOL     OW19294   4.707   2.654   4.951
 6205SOL    HW119295   4.762   2.631   5.025
 6205SOL    HW219296   4.621   2.617   4.972
 6206SOL     OW19297   3.761   2.393   4.838
 6206SOL    HW119298   3.846   2.392   4.794
 6206SOL    HW219299   3.783   2.409   4.930
 6207SOL     OW19300   3.916   2.381   5.451
 6207SOL    HW119301   3.969   2.340   5.383
 6207SOL    HW219302   3.873   2.454   5.407
 6208SOL     OW19303   5.112   2.800   5.390
 6208SOL    HW119304   5.121   2.895   5.378
 6208SOL    HW219305   5.115   2.764   5.302
 6209SOL     OW19306   4.540   2.431   4.083
 6209SOL    HW119307   4.543   2.356   4.024
 6209SOL    HW219308   4.466   2.483   4.052
 6210SOL     OW19309   3.967   3.413   5.452
 6210SOL    HW119310   3.945   3.477   5.519
 6210SOL    HW219311   3.969   3.329   5.498
 6211SOL     OW19312   4.425   2.312   4.983
 6211SOL    HW119313   4.372   2.238   4.954
 6211SOL    HW219314   4.421   2.375   4.911
 6212SOL     OW19315   4.644   3.542   5.193
 6212SOL    HW119316   4.623   3.510   5.105
 6212SOL    HW219317   4.646   3.637   5.183
 6213SOL     OW19318   4.187   2.355   3.911
 6213SOL    HW119319   4.246   2.428   3.932
 6213SOL    HW219320   4.101   2.396   3.900
 6214SOL     OW19321   3.869   3.002   5.196
 6214SOL    HW119322   3.873   2.950   5.276
 6214SOL    HW219323   3.886   2.939   5.125
 6215SOL     OW19324   5.054   2.911   4.948
 6215SOL    HW119325   5.075   2.847   4.881
 6215SOL    HW219326   4.982   2.962   4.910
 6216SOL     OW19327   5.034   2.722   4.040
 6216SOL    HW119328   4.952   2.689   4.077
 6216SOL    HW219329   5.023   2.713   3.946
 6217SOL     OW19330   4.959   3.593   4.845
 6217SOL    HW119331   5.045   3.614   4.808
 6217SOL    HW219332   4.960   3.498   4.855
 6218SOL     OW19333   3.811   3.132   4.734
 6218SOL    HW119334   3.797   3.143   4.828
 6218SOL    HW219335   3.740   3.074   4.705
 6219SOL     OW19336   4.401   3.527   5.452
 6219SOL    HW119337   4.350   3.607   5.446
 6219SOL    HW219338   4.470   3.537   5.387
 6220SOL     OW19339   0.081   2.022   4.254
 6220SOL    HW119340   0.165   2.009   4.210
 6220SOL    HW219341   0.068   1.942   4.305
 6221SOL     OW19342   5.111   3.432   4.204
 6221SOL    HW119343   5.181   3.472   4.153
 6221SOL    HW219344   5.061   3.506   4.239
 6222SOL     OW19345   3.859   3.659   5.567
 6222SOL    HW119346   3.809   3.593   5.616
 6222SOL    HW219347   3.908   3.706   5.635
 6223SOL     OW19348   5.016   2.781   4.396
 6223SOL    HW119349   5.094   2.727   4.383
 6223SOL    HW219350   5.034   2.862   4.347
 6224SOL     OW19351   4.538   3.135   5.154
 6224SOL    HW119352   4.510   3.174   5.237
 6224SOL    HW219353   4.469   3.158   5.092
 6225SOL     OW19354   4.395   3.482   3.880
 6225SOL    HW119355   4.406   3.494   3.785
 6225SOL    HW219356   4.340   3.404   3.887
 6226SOL     OW19357   3.988   2.177   4.441
 6226SOL    HW119358   3.903   2.214   4.417
 6226SOL    HW219359   3.984   2.169   4.536
 6227SOL     OW19360   4.908   3.471   3.766
 6227SOL    HW119361   4.920   3.377   3.776
 6227SOL    HW219362   4.854   3.480   3.687
 6228SOL     OW19363   4.548   2.868   5.096
 6228SOL    HW119364   4.592   2.863   5.011
 6228SOL    HW219365   4.547   2.961   5.118
 6229SOL     OW19366   4.640   2.773   4.014
 6229SOL    HW119367   4.702   2.805   3.948
 6229SOL    HW219368   4.687   2.702   4.059
 6230SOL     OW19369   4.092   3.165   5.216
 6230SOL    HW119370   4.080   3.241   5.160
 6230SOL    HW219371   4.016   3.110   5.199
 6231SOL     OW19372   4.776   2.969   4.431
 6231SOL    HW119373   4.705   2.918   4.471
 6231SOL    HW219374   4.834   2.903   4.393
 6232SOL     OW19375   4.739   2.101   4.692
 6232SOL    HW119376   4.737   2.054   4.609
 6232SOL    HW219377   4.736   2.033   4.759
 6233SOL     OW19378   4.326   3.350   4.206
 6233SOL    HW119379   4.371   3.300   4.137
 6233SOL    HW219380   4.258   3.398   4.160
 6234SOL     OW19381   3.977   3.207   4.006
 6234SOL    HW119382   3.883   3.204   3.989
 6234SOL    HW219383   3.984   3.245   4.094
 6235SOL     OW19384   3.836   2.881   5.441
 6235SOL    HW119385   3.760   2.860   5.496
 6235SOL    HW219386   3.911   2.845   5.489
 6236SOL     OW19387   4.398   2.058   5.223
 6236SOL    HW119388   4.482   2.038   5.182
 6236SOL    HW219389   4.421   2.090   5.311
 6237SOL     OW19390   3.805   2.197   3.758
 6237SOL    HW119391   3.725   2.176   3.710
 6237SOL    HW219392   3.840   2.274   3.714
 6238SOL     OW19393   5.162   2.722   5.128
 6238SOL    HW119394   5.111   2.779   5.071
 6238SOL    HW219395   5.252   2.728   5.094
 6239SOL     OW19396   3.790   2.017   4.035
 6239SOL    HW119397   3.773   2.098   3.987
 6239SOL    HW219398   3.876   1.988   4.003
 6240SOL     OW19399   4.907   3.191   3.838
 6240SOL    HW119400   4.813   3.173   3.839
 6240SOL    HW219401   4.931   3.198   3.930
 6241SOL     OW19402   4.343   2.693   5.158
 6241SOL    HW119403   4.399   2.769   5.142
 6241SOL    HW219404   4.403   2.619   5.166
 6242SOL     OW19405   4.442   2.425   5.428
 6242SOL    HW119406   4.482   2.487   5.489
 6242SOL    HW219407   4.469   2.339   5.460
 6243SOL     OW19408   5.182   3.066   5.356
 6243SOL    HW119409   5.173   3.079   5.451
 6243SOL    HW219410   5.276   3.072   5.340
 6244SOL     OW19411   4.103   3.601   5.289
 6244SOL    HW119412   4.018   3.642   5.275
 6244SOL    HW219413   4.083   3.517   5.330
 6245SOL     OW19414   4.940   2.182   4.180
 6245SOL    HW119415   5.002   2.110   4.167
 6245SOL    HW219416   4.970   2.226   4.259
 6246SOL     OW19417   4.314   2.600   4.393
 6246SOL    HW119418   4.353   2.686   4.378
 6246SOL    HW219419   4.246   2.592   4.327
 6247SOL     OW19420   4.591   3.228   3.759
 6247SOL    HW119421   4.549   3.259   3.840
 6247SOL    HW219422   4.607   3.308   3.708
 6248SOL     OW19423   4.384   3.653   4.668
 6248SOL    HW119424   4.364   3.744   4.645
 6248SOL    HW219425   4.479   3.647   4.662
 6249SOL     OW19426   4.592   2.829   4.579
 6249SOL    HW119427   4.642   2.757   4.619
 6249SOL    HW219428   4.557   2.878   4.654
 6250SOL     OW19429   4.806   2.849   3.814
 6250SOL    HW119430   4.782   2.899   3.736
 6250SOL    HW219431   4.881   2.796   3.787
 6251SOL     OW19432   3.949   3.165   5.580
 6251SOL    HW119433   3.881   3.104   5.551
 6251SOL    HW219434   3.932   3.177   5.673
 6252SOL     OW19435   3.835   3.097   4.391
 6252SOL    HW119436   3.845   3.051   4.474
 6252SOL    HW219437   3.894   3.052   4.331
 6253SOL     OW19438   4.405   3.264   5.352
 6253SOL    HW119439   4.325   3.222   5.383
 6253SOL    HW219440   4.401   3.352   5.388
 6254SOL     OW19441   4.154   2.296   4.249
 6254SOL    HW119442   4.183   2.225   4.192
 6254SOL    HW219443   4.106   2.252   4.320
 6255SOL     OW19444   0.095   3.383   4.824
 6255SOL    HW119445   0.028   3.359   4.760
 6255SOL    HW219446   0.103   3.307   4.881
 6256SOL     OW19447   4.055   2.418   5.016
 6256SOL    HW119448   4.110   2.362   5.071
 6256SOL    HW219449   4.073   2.388   4.927
 6257SOL     OW19450   4.551   3.440   4.401
 6257SOL    HW119451   4.541   3.493   4.323
 6257SOL    HW219452   4.474   3.383   4.403
 6258SOL     OW19453   5.147   2.081   4.839
 6258SOL    HW119454   5.193   2.016   4.893
 6258SOL    HW219455   5.101   2.136   4.902
 6259SOL     OW19456   4.730   1.881   4.867
 6259SOL    HW119457   4.677   1.812   4.826
 6259SOL    HW219458   4.818   1.843   4.871
 6260SOL     OW19459   4.494   3.195   4.040
 6260SOL    HW119460   4.464   3.104   4.045
 6260SOL    HW219461   4.577   3.195   4.087
 6261SOL     OW19462   4.344   3.418   5.009
 6261SOL    HW119463   4.346   3.501   5.058
 6261SOL    HW219464   4.431   3.411   4.971
 6262SOL     OW19465   5.058   1.908   3.891
 6262SOL    HW119466   5.082   1.867   3.808
 6262SOL    HW219467   4.973   1.869   3.913
 6263SOL     OW19468   5.028   2.320   4.406
 6263SOL    HW119469   4.973   2.399   4.410
 6263SOL    HW219470   5.017   2.279   4.492
 6264SOL     OW19471   0.002   2.087   4.604
 6264SOL    HW119472   5.236   2.075   4.672
 6264SOL    HW219473   5.276   2.167   4.559
 6265SOL     OW19474   3.778   2.932   4.028
 6265SOL    HW119475   3.872   2.914   4.015
 6265SOL    HW219476   3.740   2.846   4.047
 6266SOL     OW19477   4.604   3.512   4.070
 6266SOL    HW119478   4.533   3.497   4.007
 6266SOL    HW219479   4.576   3.589   4.119
 6267SOL     OW19480   3.954   2.486   5.709
 6267SOL    HW119481   3.864   2.483   5.743
 6267SOL    HW219482   3.945   2.460   5.617
 6268SOL     OW19483   3.949   2.143   6.578
 6268SOL    HW119484   3.977   2.109   6.662
 6268SOL    HW219485   3.859   2.111   6.568
 6269SOL     OW19486   3.728   2.245   6.224
 6269SOL    HW119487   3.646   2.270   6.265
 6269SOL    HW219488   3.708   2.165   6.175
 6270SOL     OW19489   4.291   3.149   6.761
 6270SOL    HW119490   4.203   3.153   6.723
 6270SOL    HW219491   4.306   3.238   6.794
 6271SOL     OW19492   5.285   3.398   6.292
 6271SOL    HW119493   5.246   3.355   6.368
 6271SOL    HW219494   5.220   3.388   6.222
 6272SOL     OW19495   4.858   2.561   6.286
 6272SOL    HW119496   4.908   2.642   6.276
 6272SOL    HW219497   4.810   2.573   6.368
 6273SOL     OW19498   4.479   3.004   6.627
 6273SOL    HW119499   4.410   3.039   6.683
 6273SOL    HW219500   4.514   3.081   6.582
 6274SOL     OW19501   4.592   2.638   7.407
 6274SOL    HW119502   4.570   2.713   7.463
 6274SOL    HW219503   4.615   2.677   7.323
 6275SOL     OW19504   4.410   2.865   6.233
 6275SOL    HW119505   4.475   2.853   6.303
 6275SOL    HW219506   4.341   2.917   6.273
 6276SOL     OW19507   4.434   3.013   7.398
 6276SOL    HW119508   4.482   3.092   7.425
 6276SOL    HW219509   4.352   3.046   7.362
 6277SOL     OW19510   4.055   3.288   6.654
 6277SOL    HW119511   3.982   3.250   6.604
 6277SOL    HW219512   4.105   3.338   6.590
 6278SOL     OW19513   5.161   3.343   6.937
 6278SOL    HW119514   5.205   3.423   6.963
 6278SOL    HW219515   5.105   3.321   7.012
 6279SOL     OW19516   4.173   2.260   7.074
 6279SOL    HW119517   4.248   2.201   7.079
 6279SOL    HW219518   4.097   2.204   7.086
 6280SOL     OW19519   3.943   3.576   6.058
 6280SOL    HW119520   3.965   3.652   6.112
 6280SOL    HW219521   4.017   3.568   5.997
 6281SOL     OW19522   4.859   3.201   7.278
 6281SOL    HW119523   4.899   3.199   7.365
 6281SOL    HW219524   4.807   3.121   7.273
 6282SOL     OW19525   3.954   3.303   6.121
 6282SOL    HW119526   3.937   3.397   6.125
 6282SOL    HW219527   3.893   3.265   6.185
 6283SOL     OW19528   3.981   2.952   6.477
 6283SOL    HW119529   3.978   2.866   6.518
 6283SOL    HW219530   3.923   3.006   6.531
 6284SOL     OW19531   4.333   3.655   7.012
 6284SOL    HW119532   4.253   3.636   7.061
 6284SOL    HW219533   4.358   3.743   7.039
 6285SOL     OW19534   4.310   2.843   5.720
 6285SOL    HW119535   4.355   2.893   5.652
 6285SOL    HW219536   4.350   2.874   5.802
 6286SOL     OW19537   3.838   2.515   6.145
 6286SOL    HW119538   3.810   2.426   6.166
 6286SOL    HW219539   3.831   2.563   6.228
 6287SOL     OW19540   3.755   3.457   5.710
 6287SOL    HW119541   3.739   3.365   5.730
 6287SOL    HW219542   3.732   3.504   5.790
 6288SOL     OW19543   0.112   2.803   6.162
 6288SOL    HW119544   0.198   2.764   6.177
 6288SOL    HW219545   0.130   2.886   6.119
 6289SOL     OW19546   3.846   2.604   7.172
 6289SOL    HW119547   3.938   2.631   7.180
 6289SOL    HW219548   3.797   2.686   7.179
 6290SOL     OW19549   4.337   3.247   6.321
 6290SOL    HW119550   4.291   3.164   6.331
 6290SOL    HW219551   4.321   3.274   6.231
 6291SOL     OW19552   5.007   3.099   7.010
 6291SOL    HW119553   5.040   3.032   6.950
 6291SOL    HW219554   5.062   3.091   7.088
 6292SOL     OW19555   4.538   1.862   6.095
 6292SOL    HW119556   4.579   1.947   6.075
 6292SOL    HW219557   4.445   1.882   6.104
 6293SOL     OW19558   3.914   2.828   6.857
 6293SOL    HW119559   3.999   2.786   6.842
 6293SOL    HW219560   3.851   2.773   6.811
 6294SOL     OW19561   4.897   3.670   7.209
 6294SOL    HW119562   4.918   3.728   7.135
 6294SOL    HW219563   4.919   3.582   7.177
 6295SOL     OW19564   4.056   2.111   7.399
 6295SOL    HW119565   4.101   2.195   7.411
 6295SOL    HW219566   3.967   2.126   7.429
 6296SOL     OW19567   5.168   3.297   6.522
 6296SOL    HW119568   5.106   3.304   6.595
 6296SOL    HW219569   5.162   3.206   6.494
 6297SOL     OW19570   4.320   2.583   5.852
 6297SOL    HW119571   4.325   2.665   5.802
 6297SOL    HW219572   4.255   2.601   5.920
 6298SOL     OW19573   4.996   2.199   6.506
 6298SOL    HW119574   4.907   2.169   6.527
 6298SOL    HW219575   5.051   2.164   6.576
 6299SOL     OW19576   4.515   2.480   7.037
 6299SOL    HW119577   4.489   2.456   7.126
 6299SOL    HW219578   4.475   2.413   6.982
 6300SOL     OW19579   5.115   2.343   7.266
 6300SOL    HW119580   5.116   2.380   7.354
 6300SOL    HW219581   5.191   2.284   7.264
 6301SOL     OW19582   4.678   2.750   7.168
 6301SOL    HW119583   4.731   2.679   7.132
 6301SOL    HW219584   4.630   2.784   7.093
 6302SOL     OW19585   4.715   2.275   6.824
 6302SOL    HW119586   4.629   2.296   6.861
 6302SOL    HW219587   4.696   2.228   6.743
 6303SOL     OW19588   4.775   2.560   6.011
 6303SOL    HW119589   4.790   2.554   6.106
 6303SOL    HW219590   4.692   2.513   5.998
 6304SOL     OW19591   3.812   2.683   6.362
 6304SOL    HW119592   3.893   2.676   6.412
 6304SOL    HW219593   3.769   2.761   6.397
 6305SOL     OW19594   3.851   3.710   7.164
 6305SOL    HW119595   3.851   3.689   7.258
 6305SOL    HW219596   3.759   3.700   7.138
 6306SOL     OW19597   4.617   2.209   5.781
 6306SOL    HW119598   4.657   2.270   5.718
 6306SOL    HW219599   4.631   2.123   5.742
 6307SOL     OW19600   5.092   3.008   6.134
 6307SOL    HW119601   5.180   3.009   6.095
 6307SOL    HW219602   5.042   3.068   6.078
 6308SOL     OW19603   4.274   2.044   6.479
 6308SOL    HW119604   4.276   2.072   6.570
 6308SOL    HW219605   4.275   2.125   6.428
 6309SOL     OW19606   4.730   3.305   6.058
 6309SOL    HW119607   4.692   3.378   6.009
 6309SOL    HW219608   4.713   3.327   6.150
 6310SOL     OW19609   4.078   3.671   6.448
 6310SOL    HW119610   4.122   3.586   6.456
 6310SOL    HW219611   4.147   3.735   6.466
 6311SOL     OW19612   4.940   3.404   7.105
 6311SOL    HW119613   4.928   3.331   7.165
 6311SOL    HW219614   4.883   3.385   7.031
 6312SOL     OW19615   4.044   2.819   5.836
 6312SOL    HW119616   4.126   2.838   5.790
 6312SOL    HW219617   4.013   2.737   5.797
 6313SOL     OW19618   4.189   3.125   7.323
 6313SOL    HW119619   4.162   3.130   7.232
 6313SOL    HW219620   4.107   3.124   7.373
 6314SOL     OW19621   4.832   3.637   5.822
 6314SOL    HW119622   4.760   3.592   5.867
 6314SOL    HW219623   4.857   3.578   5.751
 6315SOL     OW19624   3.925   2.144   7.087
 6315SOL    HW119625   3.842   2.192   7.081
 6315SOL    HW219626   3.906   2.073   7.149
 6316SOL     OW19627   4.190   3.599   5.907
 6316SOL    HW119628   4.232   3.656   5.971
 6316SOL    HW219629   4.262   3.569   5.851
 6317SOL     OW19630   5.121   1.969   6.010
 6317SOL    HW119631   5.101   1.951   5.918
 6317SOL    HW219632   5.215   1.985   6.012
 6318SOL     OW19633   3.979   3.653   6.818
 6318SOL    HW119634   4.031   3.588   6.865
 6318SOL    HW219635   3.970   3.618   6.729
 6319SOL     OW19636   4.662   3.560   6.485
 6319SOL    HW119637   4.741   3.510   6.503
 6319SOL    HW219638   4.618   3.511   6.416
 6320SOL     OW19639   4.117   2.557   6.062
 6320SOL    HW119640   4.137   2.465   6.073
 6320SOL    HW219641   4.023   2.563   6.080
 6321SOL     OW19642   4.359   1.985   5.691
 6321SOL    HW119643   4.429   1.920   5.703
 6321SOL    HW219644   4.310   1.953   5.616
 6322SOL     OW19645   4.489   2.139   7.340
 6322SOL    HW119646   4.566   2.082   7.341
 6322SOL    HW219647   4.445   2.122   7.423
 6323SOL     OW19648   4.599   3.383   6.780
 6323SOL    HW119649   4.585   3.348   6.692
 6323SOL    HW219650   4.670   3.330   6.816
 6324SOL     OW19651   5.058   2.454   7.018
 6324SOL    HW119652   5.090   2.421   7.102
 6324SOL    HW219653   5.100   2.539   7.007
 6325SOL     OW19654   4.538   3.257   6.525
 6325SOL    HW119655   4.623   3.246   6.481
 6325SOL    HW219656   4.474   3.258   6.454
 6326SOL     OW19657   4.651   2.371   6.489
 6326SOL    HW119658   4.628   2.362   6.396
 6326SOL    HW219659   4.683   2.284   6.514
 6327SOL     OW19660   4.273   1.925   6.088
 6327SOL    HW119661   4.192   1.926   6.140
 6327SOL    HW219662   4.267   2.003   6.033
 6328SOL     OW19663   5.137   3.042   5.630
 6328SOL    HW119664   5.146   2.964   5.684
 6328SOL    HW219665   5.049   3.075   5.650
 6329SOL     OW19666   4.016   1.910   5.771
 6329SOL    HW119667   4.074   1.974   5.730
 6329SOL    HW219668   4.074   1.846   5.812
 6330SOL     OW19669   4.661   2.108   6.046
 6330SOL    HW119670   4.634   2.149   5.964
 6330SOL    HW219671   4.756   2.121   6.049
 6331SOL     OW19672   4.801   2.543   7.047
 6331SOL    HW119673   4.734   2.475   7.049
 6331SOL    HW219674   4.883   2.495   7.037
 6332SOL     OW19675   4.940   3.433   6.380
 6332SOL    HW119676   4.963   3.499   6.315
 6332SOL    HW219677   5.021   3.421   6.431
 6333SOL     OW19678   4.193   3.011   6.320
 6333SOL    HW119679   4.123   2.992   6.383
 6333SOL    HW219680   4.153   2.995   6.234
 6334SOL     OW19681   4.996   3.656   6.191
 6334SOL    HW119682   5.038   3.717   6.131
 6334SOL    HW219683   4.929   3.708   6.236
 6335SOL     OW19684   4.748   2.406   5.607
 6335SOL    HW119685   4.704   2.488   5.587
 6335SOL    HW219686   4.809   2.428   5.678
 6336SOL     OW19687   3.803   2.417   6.978
 6336SOL    HW119688   3.895   2.415   6.951
 6336SOL    HW219689   3.798   2.487   7.043
 6337SOL     OW19690   4.283   2.089   6.752
 6337SOL    HW119691   4.325   2.013   6.792
 6337SOL    HW219692   4.192   2.085   6.782
 6338SOL     OW19693   4.593   2.321   6.225
 6338SOL    HW119694   4.546   2.376   6.162
 6338SOL    HW219695   4.613   2.241   6.177
 6339SOL     OW19696   4.739   1.915   6.338
 6339SOL    HW119697   4.681   1.908   6.262
 6339SOL    HW219698   4.717   1.839   6.392
 6340SOL     OW19699   5.157   3.038   6.437
 6340SOL    HW119700   5.101   2.961   6.450
 6340SOL    HW219701   5.169   3.043   6.342
 6341SOL     OW19702   4.215   3.280   5.743
 6341SOL    HW119703   4.140   3.251   5.795
 6341SOL    HW219704   4.200   3.241   5.656
 6342SOL     OW19705   5.127   2.424   5.666
 6342SOL    HW119706   5.055   2.414   5.728
 6342SOL    HW219707   5.202   2.386   5.711
 6343SOL     OW19708   4.250   2.125   5.904
 6343SOL    HW119709   4.294   2.077   5.834
 6343SOL    HW219710   4.227   2.209   5.865
 6344SOL     OW19711   4.781   3.216   6.919
 6344SOL    HW119712   4.706   3.185   6.970
 6344SOL    HW219713   4.856   3.173   6.960
 6345SOL     OW19714   0.007   3.467   7.202
 6345SOL    HW119715   0.040   3.472   7.113
 6345SOL    HW219716   0.083   3.447   7.256
 6346SOL     OW19717   4.853   3.065   6.692
 6346SOL    HW119718   4.792   3.101   6.757
 6346SOL    HW219719   4.819   3.095   6.608
 6347SOL     OW19720   4.642   1.960   6.982
 6347SOL    HW119721   4.664   1.941   6.891
 6347SOL    HW219722   4.721   1.998   7.019
 6348SOL     OW19723   4.709   2.974   7.313
 6348SOL    HW119724   4.617   2.993   7.331
 6348SOL    HW219725   4.707   2.898   7.255
 6349SOL     OW19726   4.432   2.923   5.957
 6349SOL    HW119727   4.419   2.907   6.051
 6349SOL    HW219728   4.508   2.870   5.934
 6350SOL     OW19729   4.143   2.676   6.837
 6350SOL    HW119730   4.211   2.686   6.903
 6350SOL    HW219731   4.107   2.589   6.851
 6351SOL     OW19732   4.989   2.238   6.862
 6351SOL    HW119733   5.023   2.317   6.903
 6351SOL    HW219734   4.899   2.261   6.837
 6352SOL     OW19735   3.794   3.435   6.939
 6352SOL    HW119736   3.764   3.508   6.885
 6352SOL    HW219737   3.890   3.439   6.933
 6353SOL     OW19738   4.073   2.971   6.077
 6353SOL    HW119739   4.079   3.045   6.016
 6353SOL    HW219740   4.071   2.893   6.021
 6354SOL     OW19741   4.277   2.399   6.446
 6354SOL    HW119742   4.292   2.457   6.371
 6354SOL    HW219743   4.342   2.425   6.511
 6355SOL     OW19744   4.972   3.211   5.973
 6355SOL    HW119745   5.026   3.284   6.004
 6355SOL    HW219746   4.884   3.231   6.007
 6356SOL     OW19747   4.994   3.318   6.726
 6356SOL    HW119748   5.049   3.320   6.804
 6356SOL    HW219749   4.940   3.240   6.737
 6357SOL     OW19750   4.071   3.389   6.901
 6357SOL    HW119751   4.058   3.346   6.816
 6357SOL    HW219752   4.165   3.401   6.908
 6358SOL     OW19753   4.138   2.607   7.188
 6358SOL    HW119754   4.200   2.652   7.130
 6358SOL    HW219755   4.177   2.521   7.203
 6359SOL     OW19756   4.718   1.987   7.341
 6359SOL    HW119757   4.775   2.058   7.313
 6359SOL    HW219758   4.766   1.907   7.316
 6360SOL     OW19759   4.222   1.903   7.334
 6360SOL    HW119760   4.179   1.848   7.267
 6360SOL    HW219761   4.163   1.977   7.345
 6361SOL     OW19762   4.307   2.735   6.617
 6361SOL    HW119763   4.337   2.826   6.616
 6361SOL    HW219764   4.251   2.729   6.694
 6362SOL     OW19765   5.086   2.719   6.623
 6362SOL    HW119766   5.009   2.701   6.569
 6362SOL    HW219767   5.138   2.639   6.618
 6363SOL     OW19768   4.928   2.393   5.851
 6363SOL    HW119769   4.935   2.313   5.903
 6363SOL    HW219770   4.885   2.456   5.908
 6364SOL     OW19771   4.023   2.061   6.833
 6364SOL    HW119772   3.986   2.093   6.914
 6364SOL    HW219773   4.004   1.967   6.833
 6365SOL     OW19774   3.772   3.173   6.862
 6365SOL    HW119775   3.803   3.118   6.934
 6365SOL    HW219776   3.777   3.262   6.895
 6366SOL     OW19777   4.448   2.493   6.644
 6366SOL    HW119778   4.523   2.477   6.586
 6366SOL    HW219779   4.420   2.582   6.623
 6367SOL     OW19780   4.027   1.926   6.209
 6367SOL    HW119781   4.008   2.017   6.232
 6367SOL    HW219782   4.034   1.881   6.293
 6368SOL     OW19783   0.035   2.256   5.945
 6368SOL    HW119784   0.055   2.181   6.002
 6368SOL    HW219785   0.017   2.328   6.006
 6369SOL     OW19786   4.751   2.621   6.546
 6369SOL    HW119787   4.749   2.639   6.640
 6369SOL    HW219788   4.725   2.529   6.539
 6370SOL     OW19789   4.699   3.424   7.300
 6370SOL    HW119790   4.687   3.471   7.217
 6370SOL    HW219791   4.746   3.344   7.275
 6371SOL     OW19792   4.077   2.776   7.397
 6371SOL    HW119793   4.161   2.797   7.438
 6371SOL    HW219794   4.100   2.714   7.327
 6372SOL     OW19795   5.027   2.691   5.623
 6372SOL    HW119796   5.064   2.603   5.625
 6372SOL    HW219797   5.054   2.727   5.538
 6373SOL     OW19798   4.789   3.196   6.441
 6373SOL    HW119799   4.793   3.124   6.378
 6373SOL    HW219800   4.847   3.263   6.405
 6374SOL     OW19801   4.033   2.671   6.533
 6374SOL    HW119802   4.126   2.692   6.527
 6374SOL    HW219803   4.031   2.581   6.566
 6375SOL     OW19804   4.055   2.388   6.598
 6375SOL    HW119805   4.020   2.300   6.583
 6375SOL    HW219806   4.132   2.393   6.541
 6376SOL     OW19807   4.857   2.238   7.266
 6376SOL    HW119808   4.809   2.293   7.328
 6376SOL    HW219809   4.944   2.278   7.261
 6377SOL     OW19810   4.885   2.064   7.054
 6377SOL    HW119811   4.874   2.126   7.126
 6377SOL    HW219812   4.924   2.116   6.984
 6378SOL     OW19813   3.729   3.183   5.781
 6378SOL    HW119814   3.642   3.197   5.743
 6378SOL    HW219815   3.726   3.094   5.815
 6379SOL     OW19816   3.814   3.649   6.524
 6379SOL    HW119817   3.784   3.569   6.480
 6379SOL    HW219818   3.904   3.662   6.493
 6380SOL     OW19819   4.221   3.436   6.491
 6380SOL    HW119820   4.289   3.498   6.516
 6380SOL    HW219821   4.265   3.372   6.435
 6381SOL     OW19822   4.707   2.654   6.813
 6381SOL    HW119823   4.762   2.631   6.887
 6381SOL    HW219824   4.621   2.617   6.834
 6382SOL     OW19825   3.759   2.406   6.703
 6382SOL    HW119826   3.840   2.393   6.653
 6382SOL    HW219827   3.788   2.410   6.794
 6383SOL     OW19828   3.917   2.381   7.313
 6383SOL    HW119829   3.971   2.342   7.245
 6383SOL    HW219830   3.873   2.454   7.270
 6384SOL     OW19831   5.110   2.800   7.253
 6384SOL    HW119832   5.119   2.894   7.241
 6384SOL    HW219833   5.114   2.764   7.164
 6385SOL     OW19834   4.540   2.431   5.945
 6385SOL    HW119835   4.543   2.356   5.886
 6385SOL    HW219836   4.466   2.483   5.914
 6386SOL     OW19837   3.967   3.413   7.314
 6386SOL    HW119838   3.945   3.478   7.381
 6386SOL    HW219839   3.969   3.330   7.360
 6387SOL     OW19840   4.424   2.313   6.846
 6387SOL    HW119841   4.372   2.239   6.815
 6387SOL    HW219842   4.421   2.375   6.773
 6388SOL     OW19843   4.645   3.542   7.054
 6388SOL    HW119844   4.623   3.510   6.967
 6388SOL    HW219845   4.646   3.637   7.045
 6389SOL     OW19846   4.188   2.355   5.774
 6389SOL    HW119847   4.247   2.428   5.795
 6389SOL    HW219848   4.103   2.395   5.760
 6390SOL     OW19849   3.870   3.002   7.058
 6390SOL    HW119850   3.872   2.950   7.139
 6390SOL    HW219851   3.887   2.939   6.989
 6391SOL     OW19852   5.054   2.911   6.810
 6391SOL    HW119853   5.075   2.847   6.743
 6391SOL    HW219854   4.982   2.962   6.772
 6392SOL     OW19855   5.034   2.722   5.902
 6392SOL    HW119856   4.952   2.689   5.939
 6392SOL    HW219857   5.023   2.713   5.808
 6393SOL     OW19858   4.960   3.593   6.707
 6393SOL    HW119859   5.046   3.614   6.670
 6393SOL    HW219860   4.960   3.498   6.717
 6394SOL     OW19861   3.808   3.129   6.598
 6394SOL    HW119862   3.794   3.142   6.692
 6394SOL    HW219863   3.734   3.074   6.570
 6395SOL     OW19864   4.400   3.526   7.313
 6395SOL    HW119865   4.350   3.607   7.309
 6395SOL    HW219866   4.470   3.538   7.248
 6396SOL     OW19867   0.081   2.022   6.116
 6396SOL    HW119868   0.165   2.009   6.072
 6396SOL    HW219869   0.068   1.942   6.167
 6397SOL     OW19870   5.111   3.432   6.066
 6397SOL    HW119871   5.181   3.472   6.015
 6397SOL    HW219872   5.061   3.506   6.101
 6398SOL     OW19873   3.860   3.658   7.430
 6398SOL    HW119874   3.809   3.594   7.479
 6398SOL    HW219875   3.908   3.707   7.497
 6399SOL     OW19876   5.016   2.781   6.258
 6399SOL    HW119877   5.094   2.727   6.245
 6399SOL    HW219878   5.034   2.862   6.209
 6400SOL     OW19879   4.538   3.135   7.016
 6400SOL    HW119880   4.510   3.175   7.099
 6400SOL    HW219881   4.469   3.158   6.954
 6401SOL     OW19882   4.395   3.482   5.741
 6401SOL    HW119883   4.406   3.494   5.647
 6401SOL    HW219884   4.340   3.404   5.749
 6402SOL     OW19885   3.986   2.178   6.303
 6402SOL    HW119886   3.901   2.213   6.279
 6402SOL    HW219887   3.983   2.170   6.398
 6403SOL     OW19888   4.908   3.471   5.628
 6403SOL    HW119889   4.920   3.377   5.638
 6403SOL    HW219890   4.854   3.480   5.549
 6404SOL     OW19891   4.548   2.868   6.958
 6404SOL    HW119892   4.591   2.864   6.873
 6404SOL    HW219893   4.547   2.961   6.980
 6405SOL     OW19894   4.640   2.773   5.876
 6405SOL    HW119895   4.702   2.805   5.810
 6405SOL    HW219896   4.687   2.702   5.921
 6406SOL     OW19897   4.093   3.165   7.078
 6406SOL    HW119898   4.080   3.242   7.023
 6406SOL    HW219899   4.016   3.110   7.061
 6407SOL     OW19900   4.776   2.969   6.293
 6407SOL    HW119901   4.705   2.919   6.333
 6407SOL    HW219902   4.834   2.902   6.255
 6408SOL     OW19903   4.739   2.101   6.554
 6408SOL    HW119904   4.737   2.054   6.471
 6408SOL    HW219905   4.736   2.033   6.621
 6409SOL     OW19906   4.326   3.350   6.068
 6409SOL    HW119907   4.371   3.300   5.999
 6409SOL    HW219908   4.258   3.398   6.021
 6410SOL     OW19909   3.983   3.207   5.874
 6410SOL    HW119910   3.890   3.205   5.852
 6410SOL    HW219911   3.986   3.244   5.962
 6411SOL     OW19912   3.837   2.883   7.306
 6411SOL    HW119913   3.760   2.861   7.358
 6411SOL    HW219914   3.911   2.846   7.354
 6412SOL     OW19915   4.398   2.058   7.085
 6412SOL    HW119916   4.482   2.038   7.044
 6412SOL    HW219917   4.421   2.088   7.173
 6413SOL     OW19918   3.802   2.197   5.621
 6413SOL    HW119919   3.716   2.176   5.584
 6413SOL    HW219920   3.833   2.271   5.570
 6414SOL     OW19921   5.162   2.722   6.990
 6414SOL    HW119922   5.111   2.779   6.933
 6414SOL    HW219923   5.252   2.729   6.956
 6415SOL     OW19924   3.792   2.018   5.896
 6415SOL    HW119925   3.778   2.098   5.845
 6415SOL    HW219926   3.877   1.986   5.867
 6416SOL     OW19927   4.907   3.191   5.700
 6416SOL    HW119928   4.813   3.173   5.701
 6416SOL    HW219929   4.931   3.198   5.792
 6417SOL     OW19930   4.343   2.693   7.019
 6417SOL    HW119931   4.399   2.769   7.004
 6417SOL    HW219932   4.403   2.619   7.027
 6418SOL     OW19933   4.442   2.425   7.290
 6418SOL    HW119934   4.481   2.486   7.352
 6418SOL    HW219935   4.469   2.339   7.322
 6419SOL     OW19936   5.182   3.066   7.217
 6419SOL    HW119937   5.172   3.077   7.312
 6419SOL    HW219938   5.276   3.073   7.202
 6420SOL     OW19939   4.103   3.602   7.150
 6420SOL    HW119940   4.018   3.643   7.137
 6420SOL    HW219941   4.083   3.518   7.192
 6421SOL     OW19942   4.940   2.182   6.042
 6421SOL    HW119943   5.002   2.110   6.029
 6421SOL    HW219944   4.970   2.226   6.121
 6422SOL     OW19945   4.315   2.600   6.255
 6422SOL    HW119946   4.353   2.686   6.240
 6422SOL    HW219947   4.246   2.592   6.188
 6423SOL     OW19948   4.590   3.228   5.621
 6423SOL    HW119949   4.549   3.259   5.702
 6423SOL    HW219950   4.607   3.308   5.571
 6424SOL     OW19951   4.384   3.653   6.530
 6424SOL    HW119952   4.364   3.744   6.507
 6424SOL    HW219953   4.479   3.647   6.524
 6425SOL     OW19954   4.592   2.829   6.441
 6425SOL    HW119955   4.642   2.758   6.481
 6425SOL    HW219956   4.557   2.878   6.516
 6426SOL     OW19957   4.806   2.849   5.676
 6426SOL    HW119958   4.782   2.899   5.598
 6426SOL    HW219959   4.881   2.796   5.649
 6427SOL     OW19960   3.949   3.165   7.443
 6427SOL    HW119961   3.882   3.105   7.412
 6427SOL    HW219962   3.928   3.179   7.535
 6428SOL     OW19963   3.807   3.095   6.250
 6428SOL    HW119964   3.813   3.047   6.333
 6428SOL    HW219965   3.876   3.057   6.196
 6429SOL     OW19966   4.405   3.263   7.214
 6429SOL    HW119967   4.324   3.222   7.245
 6429SOL    HW219968   4.401   3.352   7.249
 6430SOL     OW19969   4.154   2.296   6.112
 6430SOL    HW119970   4.183   2.225   6.054
 6430SOL    HW219971   4.105   2.252   6.182
 6431SOL     OW19972   0.095   3.383   6.686
 6431SOL    HW119973   0.028   3.359   6.622
 6431SOL    HW219974   0.102   3.307   6.743
 6432SOL     OW19975   4.054   2.417   6.878
 6432SOL    HW119976   4.110   2.362   6.933
 6432SOL    HW219977   4.073   2.389   6.788
 6433SOL     OW19978   4.552   3.439   6.263
 6433SOL    HW119979   4.540   3.493   6.185
 6433SOL    HW219980   4.474   3.383   6.266
 6434SOL     OW19981   5.147   2.081   6.701
 6434SOL    HW119982   5.192   2.016   6.755
 6434SOL    HW219983   5.101   2.136   6.764
 6435SOL     OW19984   4.730   1.881   6.728
 6435SOL    HW119985   4.677   1.812   6.688
 6435SOL    HW219986   4.818   1.843   6.733
 6436SOL     OW19987   4.494   3.195   5.901
 6436SOL    HW119988   4.464   3.104   5.907
 6436SOL    HW219989   4.577   3.195   5.949
 6437SOL     OW19990   4.344   3.418   6.871
 6437SOL    HW119991   4.346   3.501   6.920
 6437SOL    HW219992   4.431   3.411   6.833
 6438SOL     OW19993   5.058   1.908   5.753
 6438SOL    HW119994   5.082   1.867   5.670
 6438SOL    HW219995   4.973   1.870   5.775
 6439SOL     OW19996   5.028   2.320   6.268
 6439SOL    HW119997   4.973   2.399   6.272
 6439SOL    HW219998   5.017   2.279   6.354
 6440SOL     OW19999   0.002   2.087   6.466
 6440SOL    HW120000   5.236   2.075   6.534
 6440SOL    HW220001   5.276   2.167   6.421
 6441SOL     OW20002   3.767   2.933   5.892
 6441SOL    HW120003   3.861   2.925   5.875
 6441SOL    HW220004   3.739   2.844   5.914
 6442SOL     OW20005   4.604   3.512   5.932
 6442SOL    HW120006   4.533   3.497   5.869
 6442SOL    HW220007   4.577   3.589   5.981
 6443SOL     OW20008   3.953   2.481   7.572
 6443SOL    HW120009   3.862   2.489   7.602
 6443SOL    HW220010   3.945   2.458   7.479
 6444SOL     OW20011   3.945   3.579   7.919
 6444SOL    HW120012   3.974   3.622   8.000
 6444SOL    HW220013   4.023   3.577   7.864
 6445SOL     OW20014   3.941   3.300   7.991
 6445SOL    HW120015   3.927   3.395   7.989
 6445SOL    HW220016   3.881   3.268   8.058
 6446SOL     OW20017   4.311   2.843   7.579
 6446SOL    HW120018   4.355   2.894   7.510
 6446SOL    HW220019   4.350   2.875   7.661
 6447SOL     OW20020   3.754   3.461   7.577
 6447SOL    HW120021   3.738   3.368   7.592
 6447SOL    HW220022   3.727   3.504   7.659
 6448SOL     OW20023   0.117   2.788   8.016
 6448SOL    HW120024   0.211   2.779   8.036
 6448SOL    HW220025   0.106   2.882   8.000
 6449SOL     OW20026   4.525   1.856   7.938
 6449SOL    HW120027   4.575   1.937   7.922
 6449SOL    HW220028   4.434   1.885   7.947
 6450SOL     OW20029   4.315   2.587   7.709
 6450SOL    HW120030   4.318   2.669   7.659
 6450SOL    HW220031   4.254   2.605   7.780
 6451SOL     OW20032   3.785   2.724   0.090
 6451SOL    HW120033   3.850   2.660   0.119
 6451SOL    HW220034   3.780   2.787   0.162
 6452SOL     OW20035   4.607   2.207   7.639
 6452SOL    HW120036   4.650   2.266   7.577
 6452SOL    HW220037   4.638   2.120   7.615
 6453SOL     OW20038   4.047   2.817   7.698
 6453SOL    HW120039   4.127   2.836   7.647
 6453SOL    HW220040   4.010   2.740   7.656
 6454SOL     OW20041   4.837   3.638   7.684
 6454SOL    HW120042   4.763   3.595   7.728
 6454SOL    HW220043   4.861   3.578   7.613
 6455SOL     OW20044   4.191   3.600   7.769
 6455SOL    HW120045   4.239   3.653   7.833
 6455SOL    HW220046   4.258   3.565   7.711
 6456SOL     OW20047   5.132   1.988   7.857
 6456SOL    HW120048   5.096   1.964   7.772
 6456SOL    HW220049   5.227   1.988   7.844
 6457SOL     OW20050   4.115   2.560   7.918
 6457SOL    HW120051   4.119   2.465   7.926
 6457SOL    HW220052   4.024   2.582   7.934
 6458SOL     OW20053   4.353   1.982   7.559
 6458SOL    HW120054   4.428   1.923   7.569
 6458SOL    HW220055   4.309   1.951   7.480
 6459SOL     OW20056   4.256   1.935   7.959
 6459SOL    HW120057   4.170   1.940   8.002
 6459SOL    HW220058   4.254   2.007   7.895
 6460SOL     OW20059   5.137   3.041   7.488
 6460SOL    HW120060   5.153   2.971   7.551
 6460SOL    HW220061   5.050   3.074   7.511
 6461SOL     OW20062   4.016   1.911   7.633
 6461SOL    HW120063   4.075   1.972   7.587
 6461SOL    HW220064   4.075   1.846   7.672
 6462SOL     OW20065   4.666   2.089   7.911
 6462SOL    HW120066   4.624   2.152   7.853
 6462SOL    HW220067   4.758   2.116   7.913
 6463SOL     OW20068   4.163   3.009   0.100
 6463SOL    HW120069   4.089   3.050   0.145
 6463SOL    HW220070   4.133   2.998   0.010
 6464SOL     OW20071   5.008   3.666   8.012
 6464SOL    HW120072   5.047   3.732   7.955
 6464SOL    HW220073   4.937   3.713   8.058
 6465SOL     OW20074   4.751   2.407   7.465
 6465SOL    HW120075   4.704   2.488   7.448
 6465SOL    HW220076   4.805   2.426   7.542
 6466SOL     OW20077   4.212   3.278   7.605
 6466SOL    HW120078   4.138   3.249   7.658
 6466SOL    HW220079   4.196   3.240   7.518
 6467SOL     OW20080   5.128   2.423   7.529
 6467SOL    HW120081   5.053   2.414   7.589
 6467SOL    HW220082   5.201   2.383   7.577
 6468SOL     OW20083   4.250   2.128   7.770
 6468SOL    HW120084   4.294   2.078   7.702
 6468SOL    HW220085   4.227   2.211   7.729
 6469SOL     OW20086   4.436   2.924   7.811
 6469SOL    HW120087   4.411   2.911   7.902
 6469SOL    HW220088   4.515   2.871   7.801
 6470SOL     OW20089   4.089   2.964   7.927
 6470SOL    HW120090   4.070   3.044   7.877
 6470SOL    HW220091   4.076   2.893   7.865
 6471SOL     OW20092   4.958   3.220   7.819
 6471SOL    HW120093   5.016   3.291   7.848
 6471SOL    HW220094   4.903   3.201   7.895
 6472SOL     OW20095   0.037   2.510   7.924
 6472SOL    HW120096   5.279   2.529   7.999
 6472SOL    HW220097   0.039   2.591   7.874
 6473SOL     OW20098   4.927   2.391   7.713
 6473SOL    HW120099   4.931   2.307   7.759
 6473SOL    HW220100   4.897   2.454   7.779
 6474SOL     OW20101   0.025   2.264   7.807
 6474SOL    HW120102   0.038   2.195   7.872
 6474SOL    HW220103   0.023   2.345   7.857
 6475SOL     OW20104   5.034   2.694   7.490
 6475SOL    HW120105   5.065   2.603   7.487
 6475SOL    HW220106   5.057   2.730   7.404
 6476SOL     OW20107   3.730   3.186   7.640
 6476SOL    HW120108   3.642   3.199   7.603
 6476SOL    HW220109   3.729   3.097   7.674
 6477SOL     OW20110   4.564   2.462   7.759
 6477SOL    HW120111   4.555   2.371   7.734
 6477SOL    HW220112   4.474   2.496   7.760
 6478SOL     OW20113   4.186   2.355   7.642
 6478SOL    HW120114   4.245   2.430   7.657
 6478SOL    HW220115   4.101   2.395   7.623
 6479SOL     OW20116   5.032   2.709   7.773
 6479SOL    HW120117   4.939   2.724   7.791
 6479SOL    HW220118   5.038   2.707   7.677
 6480SOL     OW20119   0.180   2.004   7.990
 6480SOL    HW120120   0.158   1.987   7.899
 6480SOL    HW220121   0.137   1.934   8.040
 6481SOL     OW20122   5.103   3.435   7.907
 6481SOL    HW120123   5.198   3.446   7.906
 6481SOL    HW220124   5.070   3.516   7.945
 6482SOL     OW20125   4.390   3.482   7.604
 6482SOL    HW120126   4.403   3.493   7.509
 6482SOL    HW220127   4.338   3.402   7.611
 6483SOL     OW20128   4.911   3.473   7.486
 6483SOL    HW120129   4.920   3.378   7.501
 6483SOL    HW220130   4.852   3.480   7.411
 6484SOL     OW20131   4.654   2.771   7.758
 6484SOL    HW120132   4.705   2.795   7.681
 6484SOL    HW220133   4.644   2.676   7.751
 6485SOL     OW20134   4.328   3.368   7.936
 6485SOL    HW120135   4.374   3.308   7.878
 6485SOL    HW220136   4.256   3.403   7.883
 6486SOL     OW20137   3.982   3.208   7.741
 6486SOL    HW120138   3.890   3.206   7.716
 6486SOL    HW220139   3.981   3.244   7.830
 6487SOL     OW20140   3.801   2.195   7.483
 6487SOL    HW120141   3.715   2.176   7.447
 6487SOL    HW220142   3.832   2.271   7.433
 6488SOL     OW20143   3.794   2.019   7.758
 6488SOL    HW120144   3.777   2.095   7.703
 6488SOL    HW220145   3.877   1.984   7.726
 6489SOL     OW20146   4.905   3.191   7.555
 6489SOL    HW120147   4.810   3.177   7.555
 6489SOL    HW220148   4.927   3.204   7.648
 6490SOL     OW20149   5.267   3.605   0.321
 6490SOL    HW120150   5.271   3.691   0.281
 6490SOL    HW220151   0.040   3.605   0.383
 6491SOL     OW20152   4.938   2.182   7.901
 6491SOL    HW120153   5.010   2.119   7.890
 6491SOL    HW220154   4.956   2.225   7.984
 6492SOL     OW20155   4.349   2.596   8.057
 6492SOL    HW120156   4.355   2.679   0.024
 6492SOL    HW220157   4.262   2.597   8.017
 6493SOL     OW20158   4.591   3.228   7.483
 6493SOL    HW120159   4.551   3.257   7.565
 6493SOL    HW220160   4.606   3.309   7.434
 6494SOL     OW20161   4.801   2.840   7.540
 6494SOL    HW120162   4.778   2.895   7.465
 6494SOL    HW220163   4.880   2.793   7.511
 6495SOL     OW20164   4.111   2.288   7.982
 6495SOL    HW120165   4.162   2.237   7.919
 6495SOL    HW220166   4.161   2.282   8.064
 6496SOL     OW20167   4.489   3.197   7.759
 6496SOL    HW120168   4.459   3.106   7.762
 6496SOL    HW220169   4.568   3.198   7.814
 6497SOL     OW20170   5.062   1.906   7.611
 6497SOL    HW120171   5.082   1.862   7.528
 6497SOL    HW220172   4.978   1.869   7.638
 6498SOL     OW20173   3.775   2.941   7.750
 6498SOL    HW120174   3.869   2.930   7.736
 6498SOL    HW220175   3.743   2.852   7.766
 6499SOL     OW20176   4.613   3.509   7.783
 6499SOL    HW120177   4.537   3.489   7.729
 6499SOL    HW220178   4.582   3.573   7.846
 6500SOL     OW20179   3.944   4.347   0.122
 6500SOL    HW120180   3.863   4.313   0.161
 6500SOL    HW220181   3.965   4.285   0.052
 6501SOL     OW20182   3.949   4.005   0.992
 6501SOL    HW120183   3.977   3.971   1.076
 6501SOL    HW220184   3.859   3.973   0.982
 6502SOL     OW20185   3.728   4.107   0.638
 6502SOL    HW120186   3.646   4.133   0.679
 6502SOL    HW220187   3.707   4.027   0.590
 6503SOL     OW20188   4.290   5.005   1.179
 6503SOL    HW120189   4.205   5.005   1.135
 6503SOL    HW220190   4.303   5.096   1.205
 6504SOL     OW20191   5.276   5.233   0.692
 6504SOL    HW120192   5.264   5.216   0.786
 6504SOL    HW220193   5.188   5.230   0.655
 6505SOL     OW20194   4.858   4.423   0.701
 6505SOL    HW120195   4.909   4.504   0.690
 6505SOL    HW220196   4.810   4.436   0.782
 6506SOL     OW20197   4.479   4.867   1.038
 6506SOL    HW120198   4.412   4.899   1.098
 6506SOL    HW220199   4.510   4.946   0.992
 6507SOL     OW20200   4.592   4.499   1.822
 6507SOL    HW120201   4.575   4.570   1.883
 6507SOL    HW220202   4.614   4.542   1.740
 6508SOL     OW20203   4.408   4.725   0.651
 6508SOL    HW120204   4.474   4.715   0.720
 6508SOL    HW220205   4.340   4.780   0.691
 6509SOL     OW20206   4.433   4.874   1.812
 6509SOL    HW120207   4.481   4.953   1.836
 6509SOL    HW220208   4.350   4.905   1.777
 6510SOL     OW20209   4.061   5.151   1.060
 6510SOL    HW120210   3.984   5.107   1.024
 6510SOL    HW220211   4.101   5.195   0.985
 6511SOL     OW20212   5.128   5.239   1.341
 6511SOL    HW120213   5.150   0.009   1.403
 6511SOL    HW220214   5.109   5.163   1.396
 6512SOL     OW20215   4.173   4.122   1.488
 6512SOL    HW120216   4.248   4.063   1.493
 6512SOL    HW220217   4.097   4.066   1.500
 6513SOL     OW20218   4.864   5.051   1.700
 6513SOL    HW120219   4.886   5.065   1.792
 6513SOL    HW220220   4.803   4.978   1.701
 6514SOL     OW20221   3.931   5.155   0.515
 6514SOL    HW120222   3.960   5.237   0.556
 6514SOL    HW220223   3.880   5.112   0.583
 6515SOL     OW20224   3.981   4.811   0.891
 6515SOL    HW120225   3.979   4.724   0.931
 6515SOL    HW220226   3.924   4.864   0.947
 6516SOL     OW20227   4.353   4.685   0.132
 6516SOL    HW120228   4.301   4.761   0.107
 6516SOL    HW220229   4.403   4.713   0.209
 6517SOL     OW20230   3.839   4.374   0.562
 6517SOL    HW120231   3.809   4.286   0.583
 6517SOL    HW220232   3.831   4.423   0.644
 6518SOL     OW20233   3.701   0.019   0.095
 6518SOL    HW120234   3.718   5.229   0.123
 6518SOL    HW220235   3.731   0.073   0.169
 6519SOL     OW20236   0.114   4.656   0.582
 6519SOL    HW120237   0.207   4.634   0.589
 6519SOL    HW220238   0.113   4.744   0.546
 6520SOL     OW20239   3.847   4.466   1.586
 6520SOL    HW120240   3.939   4.492   1.594
 6520SOL    HW220241   3.799   4.549   1.594
 6521SOL     OW20242   4.345   5.099   0.737
 6521SOL    HW120243   4.291   5.020   0.735
 6521SOL    HW220244   4.328   5.142   0.654
 6522SOL     OW20245   5.020   4.971   1.421
 6522SOL    HW120246   5.048   4.899   1.363
 6522SOL    HW220247   5.067   4.956   1.503
 6523SOL     OW20248   4.539   3.726   0.511
 6523SOL    HW120249   4.579   3.811   0.489
 6523SOL    HW220250   4.446   3.745   0.519
 6524SOL     OW20251   3.914   4.690   1.270
 6524SOL    HW120252   3.999   4.648   1.255
 6524SOL    HW220253   3.852   4.635   1.223
 6525SOL     OW20254   4.057   3.974   1.811
 6525SOL    HW120255   4.102   4.057   1.827
 6525SOL    HW220256   3.967   3.988   1.843
 6526SOL     OW20257   5.178   5.153   0.951
 6526SOL    HW120258   5.110   5.162   1.017
 6526SOL    HW220259   5.164   5.066   0.914
 6527SOL     OW20260   0.050   0.163   0.563
 6527SOL    HW120261   0.091   0.122   0.487
 6527SOL    HW220262   0.039   0.092   0.626
 6528SOL     OW20263   4.322   4.438   0.282
 6528SOL    HW120264   4.341   4.516   0.229
 6528SOL    HW220265   4.258   4.468   0.346
 6529SOL     OW20266   4.996   4.060   0.919
 6529SOL    HW120267   4.907   4.031   0.941
 6529SOL    HW220268   5.051   4.026   0.990
 6530SOL     OW20269   4.515   4.342   1.451
 6530SOL    HW120270   4.489   4.318   1.540
 6530SOL    HW220271   4.475   4.275   1.396
 6531SOL     OW20272   5.115   4.204   1.680
 6531SOL    HW120273   5.116   4.242   1.768
 6531SOL    HW220274   5.191   4.146   1.678
 6532SOL     OW20275   4.678   4.612   1.582
 6532SOL    HW120276   4.731   4.541   1.547
 6532SOL    HW220277   4.630   4.646   1.506
 6533SOL     OW20278   4.715   4.137   1.238
 6533SOL    HW120279   4.629   4.158   1.275
 6533SOL    HW220280   4.696   4.090   1.157
 6534SOL     OW20281   4.777   4.421   0.426
 6534SOL    HW120282   4.792   4.417   0.520
 6534SOL    HW220283   4.693   4.376   0.413
 6535SOL     OW20284   3.813   4.545   0.776
 6535SOL    HW120285   3.893   4.538   0.826
 6535SOL    HW220286   3.769   4.622   0.811
 6536SOL     OW20287   4.608   4.081   0.200
 6536SOL    HW120288   4.654   4.129   0.131
 6536SOL    HW220289   4.610   3.990   0.170
 6537SOL     OW20290   5.092   4.869   0.547
 6537SOL    HW120291   5.180   4.865   0.510
 6537SOL    HW220292   5.044   4.928   0.489
 6538SOL     OW20293   4.273   3.906   0.893
 6538SOL    HW120294   4.276   3.934   0.984
 6538SOL    HW220295   4.276   3.987   0.843
 6539SOL     OW20296   4.742   5.166   0.468
 6539SOL    HW120297   4.665   5.224   0.468
 6539SOL    HW220298   4.766   5.158   0.560
 6540SOL     OW20299   4.937   5.262   1.556
 6540SOL    HW120300   4.915   5.178   1.597
 6540SOL    HW220301   4.903   5.254   1.467
 6541SOL     OW20302   4.051   4.665   0.254
 6541SOL    HW120303   4.120   4.707   0.203
 6541SOL    HW220304   4.052   4.574   0.225
 6542SOL     OW20305   4.188   4.987   1.741
 6542SOL    HW120306   4.161   4.990   1.649
 6542SOL    HW220307   4.106   4.986   1.790
 6543SOL     OW20308   4.874   0.190   0.218
 6543SOL    HW120309   4.799   0.180   0.276
 6543SOL    HW220310   4.846   0.150   0.136
 6544SOL     OW20311   3.925   4.005   1.501
 6544SOL    HW120312   3.843   4.055   1.497
 6544SOL    HW220313   3.907   3.936   1.565
 6545SOL     OW20314   5.117   3.849   0.439
 6545SOL    HW120315   5.101   3.831   0.346
 6545SOL    HW220316   5.212   3.857   0.445
 6546SOL     OW20317   4.110   4.421   0.477
 6546SOL    HW120318   4.135   4.329   0.488
 6546SOL    HW220319   4.017   4.424   0.499
 6547SOL     OW20320   4.354   3.835   0.136
 6547SOL    HW120321   4.449   3.823   0.142
 6547SOL    HW220322   4.333   3.815   0.044
 6548SOL     OW20323   4.490   4.002   1.754
 6548SOL    HW120324   4.566   3.944   1.755
 6548SOL    HW220325   4.442   3.980   1.834
 6549SOL     OW20326   5.058   4.316   1.432
 6549SOL    HW120327   5.091   4.284   1.516
 6549SOL    HW220328   5.100   4.400   1.420
 6550SOL     OW20329   4.535   5.119   0.936
 6550SOL    HW120330   4.617   5.107   0.887
 6550SOL    HW220331   4.468   5.126   0.869
 6551SOL     OW20332   4.651   4.233   0.903
 6551SOL    HW120333   4.627   4.224   0.810
 6551SOL    HW220334   4.683   4.146   0.927
 6552SOL     OW20335   4.273   3.787   0.505
 6552SOL    HW120336   4.193   3.786   0.557
 6552SOL    HW220337   4.267   3.866   0.451
 6553SOL     OW20338   5.129   4.895   0.031
 6553SOL    HW120339   5.147   4.832   0.100
 6553SOL    HW220340   5.047   4.937   0.059
 6554SOL     OW20341   4.035   3.779   0.169
 6554SOL    HW120342   4.099   3.848   0.185
 6554SOL    HW220343   4.071   3.701   0.211
 6555SOL     OW20344   4.662   3.970   0.459
 6555SOL    HW120345   4.634   4.012   0.377
 6555SOL    HW220346   4.756   3.987   0.463
 6556SOL     OW20347   4.801   4.405   1.461
 6556SOL    HW120348   4.734   4.337   1.463
 6556SOL    HW220349   4.884   4.357   1.451
 6557SOL     OW20350   4.981   5.265   0.774
 6557SOL    HW120351   4.954   0.052   0.745
 6557SOL    HW220352   5.037   5.281   0.850
 6558SOL     OW20353   4.189   4.873   0.731
 6558SOL    HW120354   4.121   4.852   0.795
 6558SOL    HW220355   4.148   4.855   0.646
 6559SOL     OW20356   4.758   4.255   0.029
 6559SOL    HW120357   4.711   4.334   0.003
 6559SOL    HW220358   4.818   4.283   0.098
 6560SOL     OW20359   3.803   4.279   1.392
 6560SOL    HW120360   3.894   4.277   1.365
 6560SOL    HW220361   3.798   4.349   1.457
 6561SOL     OW20362   4.283   3.951   1.165
 6561SOL    HW120363   4.325   3.875   1.206
 6561SOL    HW220364   4.192   3.947   1.196
 6562SOL     OW20365   4.591   4.182   0.639
 6562SOL    HW120366   4.549   4.238   0.574
 6562SOL    HW220367   4.613   4.102   0.591
 6563SOL     OW20368   4.739   3.776   0.751
 6563SOL    HW120369   4.680   3.770   0.676
 6563SOL    HW220370   4.717   3.701   0.806
 6564SOL     OW20371   5.152   4.902   0.849
 6564SOL    HW120372   5.100   4.822   0.859
 6564SOL    HW220373   5.172   4.907   0.756
 6565SOL     OW20374   4.190   5.161   0.155
 6565SOL    HW120375   4.143   5.104   0.217
 6565SOL    HW220376   4.228   5.100   0.091
 6566SOL     OW20377   5.125   4.307   0.075
 6566SOL    HW120378   5.067   4.283   0.148
 6566SOL    HW220379   5.195   4.242   0.078
 6567SOL     OW20380   4.241   3.987   0.323
 6567SOL    HW120381   4.291   3.935   0.261
 6567SOL    HW220382   4.229   4.072   0.280
 6568SOL     OW20383   4.787   5.073   1.330
 6568SOL    HW120384   4.709   5.049   1.380
 6568SOL    HW220385   4.860   5.036   1.379
 6569SOL     OW20386   4.847   4.922   1.109
 6569SOL    HW120387   4.797   4.966   1.177
 6569SOL    HW220388   4.806   4.951   1.027
 6570SOL     OW20389   4.642   3.822   1.396
 6570SOL    HW120390   4.664   3.803   1.305
 6570SOL    HW220391   4.721   3.861   1.433
 6571SOL     OW20392   4.706   4.833   1.730
 6571SOL    HW120393   4.613   4.852   1.746
 6571SOL    HW220394   4.704   4.759   1.669
 6572SOL     OW20395   4.434   4.783   0.381
 6572SOL    HW120396   4.418   4.767   0.474
 6572SOL    HW220397   4.513   4.734   0.361
 6573SOL     OW20398   4.142   4.539   1.252
 6573SOL    HW120399   4.211   4.548   1.318
 6573SOL    HW220400   4.107   4.451   1.266
 6574SOL     OW20401   4.989   4.099   1.276
 6574SOL    HW120402   5.024   4.178   1.317
 6574SOL    HW220403   4.899   4.123   1.251
 6575SOL     OW20404   4.067   4.832   0.490
 6575SOL    HW120405   4.070   4.904   0.428
 6575SOL    HW220406   4.077   4.753   0.437
 6576SOL     OW20407   4.276   4.260   0.860
 6576SOL    HW120408   4.292   4.319   0.785
 6576SOL    HW220409   4.341   4.287   0.925
 6577SOL     OW20410   4.981   5.069   0.385
 6577SOL    HW120411   5.032   5.150   0.389
 6577SOL    HW220412   4.893   5.095   0.413
 6578SOL     OW20413   4.978   5.181   1.131
 6578SOL    HW120414   5.033   5.204   1.206
 6578SOL    HW220415   4.940   5.096   1.154
 6579SOL     OW20416   4.072   5.236   1.315
 6579SOL    HW120417   4.061   5.201   1.226
 6579SOL    HW220418   4.166   5.257   1.321
 6580SOL     OW20419   4.138   4.469   1.602
 6580SOL    HW120420   4.200   4.513   1.544
 6580SOL    HW220421   4.178   4.383   1.618
 6581SOL     OW20422   4.718   3.848   1.756
 6581SOL    HW120423   4.775   3.921   1.729
 6581SOL    HW220424   4.766   3.769   1.730
 6582SOL     OW20425   4.222   3.765   1.748
 6582SOL    HW120426   4.179   3.710   1.682
 6582SOL    HW220427   4.163   3.839   1.760
 6583SOL     OW20428   4.306   4.597   1.031
 6583SOL    HW120429   4.339   4.687   1.030
 6583SOL    HW220430   4.251   4.592   1.109
 6584SOL     OW20431   5.085   4.580   1.038
 6584SOL    HW120432   5.010   4.564   0.981
 6584SOL    HW220433   5.139   4.501   1.030
 6585SOL     OW20434   4.932   4.255   0.269
 6585SOL    HW120435   4.935   4.175   0.321
 6585SOL    HW220436   4.886   4.318   0.325
 6586SOL     OW20437   4.023   3.922   1.246
 6586SOL    HW120438   3.986   3.955   1.328
 6586SOL    HW220439   4.003   3.829   1.247
 6587SOL     OW20440   3.776   5.046   1.284
 6587SOL    HW120441   3.801   4.982   1.351
 6587SOL    HW220442   3.812   5.129   1.317
 6588SOL     OW20443   4.447   4.355   1.057
 6588SOL    HW120444   4.523   4.338   1.001
 6588SOL    HW220445   4.420   4.444   1.036
 6589SOL     OW20446   4.026   3.788   0.623
 6589SOL    HW120447   4.008   3.879   0.647
 6589SOL    HW220448   4.034   3.743   0.707
 6590SOL     OW20449   0.046   4.101   0.357
 6590SOL    HW120450   0.061   4.044   0.433
 6590SOL    HW220451   0.018   4.184   0.395
 6591SOL     OW20452   4.750   4.483   0.960
 6591SOL    HW120453   4.750   4.501   1.054
 6591SOL    HW220454   4.725   4.391   0.953
 6592SOL     OW20455   4.077   4.640   1.809
 6592SOL    HW120456   4.159   4.659   1.854
 6592SOL    HW220457   4.102   4.577   1.740
 6593SOL     OW20458   5.027   4.556   0.026
 6593SOL    HW120459   5.060   4.468   0.044
 6593SOL    HW220460   5.060   4.577   8.019
 6594SOL     OW20461   4.781   5.078   0.828
 6594SOL    HW120462   4.788   4.994   0.784
 6594SOL    HW220463   4.866   5.120   0.813
 6595SOL     OW20464   4.033   4.533   0.947
 6595SOL    HW120465   4.126   4.554   0.942
 6595SOL    HW220466   4.031   4.443   0.980
 6596SOL     OW20467   4.055   4.250   1.012
 6596SOL    HW120468   4.020   4.162   0.997
 6596SOL    HW220469   4.132   4.256   0.955
 6597SOL     OW20470   4.856   4.100   1.681
 6597SOL    HW120471   4.809   4.155   1.743
 6597SOL    HW220472   4.943   4.139   1.676
 6598SOL     OW20473   4.885   3.926   1.469
 6598SOL    HW120474   4.874   3.989   1.541
 6598SOL    HW220475   4.924   3.978   1.398
 6599SOL     OW20476   3.735   5.044   0.179
 6599SOL    HW120477   3.647   5.057   0.144
 6599SOL    HW220478   3.733   4.958   0.219
 6600SOL     OW20479   4.706   4.516   1.227
 6600SOL    HW120480   4.763   4.494   1.300
 6600SOL    HW220481   4.621   4.478   1.249
 6601SOL     OW20482   3.760   4.268   1.116
 6601SOL    HW120483   3.841   4.255   1.067
 6601SOL    HW220484   3.788   4.272   1.208
 6602SOL     OW20485   3.915   4.243   1.727
 6602SOL    HW120486   3.972   4.205   1.660
 6602SOL    HW220487   3.873   4.317   1.683
 6603SOL     OW20488   5.112   4.662   1.666
 6603SOL    HW120489   5.120   4.757   1.654
 6603SOL    HW220490   5.115   4.626   1.577
 6604SOL     OW20491   4.542   4.293   0.367
 6604SOL    HW120492   4.551   4.222   0.303
 6604SOL    HW220493   4.466   4.343   0.336
 6605SOL     OW20494   3.929   5.277   1.745
 6605SOL    HW120495   3.916   0.029   1.824
 6605SOL    HW220496   3.942   5.188   1.778
 6606SOL     OW20497   4.424   4.175   1.259
 6606SOL    HW120498   4.372   4.101   1.229
 6606SOL    HW220499   4.421   4.238   1.187
 6607SOL     OW20500   4.192   4.215   0.179
 6607SOL    HW120501   4.258   4.281   0.198
 6607SOL    HW220502   4.109   4.260   0.190
 6608SOL     OW20503   3.869   4.863   1.471
 6608SOL    HW120504   3.871   4.812   1.551
 6608SOL    HW220505   3.887   4.799   1.401
 6609SOL     OW20506   5.050   4.770   1.227
 6609SOL    HW120507   5.075   4.708   1.158
 6609SOL    HW220508   4.980   4.822   1.189
 6610SOL     OW20509   5.022   4.595   0.319
 6610SOL    HW120510   4.945   4.548   0.352
 6610SOL    HW220511   5.024   4.573   0.226
 6611SOL     OW20512   3.817   4.987   1.021
 6611SOL    HW120513   3.796   5.004   1.113
 6611SOL    HW220514   3.737   4.948   0.986
 6612SOL     OW20515   4.470   0.033   1.713
 6612SOL    HW120516   4.378   0.060   1.716
 6612SOL    HW220517   4.501   0.065   1.628
 6613SOL     OW20518   4.629   3.815   0.133
 6613SOL    HW120519   4.648   3.798   0.041
 6613SOL    HW220520   4.693   3.761   0.181
 6614SOL     OW20521   0.081   3.874   0.522
 6614SOL    HW120522   0.172   3.867   0.494
 6614SOL    HW220523   0.072   3.805   0.588
 6615SOL     OW20524   5.017   4.642   0.673
 6615SOL    HW120525   5.094   4.588   0.658
 6615SOL    HW220526   5.034   4.723   0.623
 6616SOL     OW20527   4.543   4.992   1.422
 6616SOL    HW120528   4.513   5.029   1.506
 6616SOL    HW220529   4.468   5.004   1.363
 6617SOL     OW20530   3.986   4.040   0.717
 6617SOL    HW120531   3.901   4.076   0.694
 6617SOL    HW220532   3.983   4.032   0.813
 6618SOL     OW20533   4.857   0.019   0.007
 6618SOL    HW120534   4.882   5.231   0.035
 6618SOL    HW220535   4.868   0.018   7.992
 6619SOL     OW20536   4.549   4.728   1.370
 6619SOL    HW120537   4.595   4.722   1.287
 6619SOL    HW220538   4.552   4.821   1.392
 6620SOL     OW20539   4.642   4.638   0.299
 6620SOL    HW120540   4.697   4.665   0.225
 6620SOL    HW220541   4.691   4.566   0.340
 6621SOL     OW20542   4.089   5.026   1.497
 6621SOL    HW120543   4.079   5.100   1.437
 6621SOL    HW220544   4.013   4.970   1.479
 6622SOL     OW20545   4.777   4.834   0.712
 6622SOL    HW120546   4.706   4.781   0.750
 6622SOL    HW220547   4.834   4.769   0.670
 6623SOL     OW20548   4.739   3.963   0.968
 6623SOL    HW120549   4.738   3.916   0.885
 6623SOL    HW220550   4.736   3.894   1.035
 6624SOL     OW20551   3.988   5.028   0.288
 6624SOL    HW120552   3.907   5.044   0.241
 6624SOL    HW220553   3.979   5.079   0.369
 6625SOL     OW20554   3.836   4.745   1.718
 6625SOL    HW120555   3.760   4.722   1.772
 6625SOL    HW220556   3.911   4.708   1.765
 6626SOL     OW20557   4.398   3.920   1.499
 6626SOL    HW120558   4.482   3.900   1.458
 6626SOL    HW220559   4.421   3.952   1.587
 6627SOL     OW20560   3.782   4.086   0.039
 6627SOL    HW120561   3.706   4.032   0.015
 6627SOL    HW220562   3.829   4.099   8.037
 6628SOL     OW20563   5.163   4.584   1.404
 6628SOL    HW120564   5.111   4.640   1.348
 6628SOL    HW220565   5.252   4.591   1.369
 6629SOL     OW20566   3.795   3.878   0.305
 6629SOL    HW120567   3.779   3.963   0.263
 6629SOL    HW220568   3.879   3.849   0.271
 6630SOL     OW20569   4.906   5.052   0.108
 6630SOL    HW120570   4.811   5.046   0.106
 6630SOL    HW220571   4.929   5.061   0.201
 6631SOL     OW20572   4.343   4.555   1.433
 6631SOL    HW120573   4.399   4.631   1.417
 6631SOL    HW220574   4.403   4.481   1.442
 6632SOL     OW20575   4.441   4.288   1.704
 6632SOL    HW120576   4.482   4.350   1.765
 6632SOL    HW220577   4.469   4.202   1.736
 6633SOL     OW20578   5.184   4.928   1.633
 6633SOL    HW120579   5.173   4.940   1.727
 6633SOL    HW220580   5.278   4.932   1.618
 6634SOL     OW20581   4.934   4.049   0.461
 6634SOL    HW120582   4.996   3.977   0.450
 6634SOL    HW220583   4.963   4.095   0.539
 6635SOL     OW20584   4.313   4.461   0.669
 6635SOL    HW120585   4.353   4.547   0.656
 6635SOL    HW220586   4.244   4.456   0.602
 6636SOL     OW20587   4.634   5.096   0.037
 6636SOL    HW120588   4.574   5.078   0.109
 6636SOL    HW220589   4.588   5.159   8.062
 6637SOL     OW20590   4.591   4.690   0.856
 6637SOL    HW120591   4.642   4.620   0.896
 6637SOL    HW220592   4.558   4.741   0.930
 6638SOL     OW20593   4.801   4.700   0.087
 6638SOL    HW120594   4.787   4.757   0.012
 6638SOL    HW220595   4.883   4.655   0.068
 6639SOL     OW20596   3.947   5.024   1.853
 6639SOL    HW120597   3.878   4.962   1.828
 6639SOL    HW220598   3.936   5.035   1.947
 6640SOL     OW20599   3.811   4.954   0.669
 6640SOL    HW120600   3.809   4.902   0.750
 6640SOL    HW220601   3.879   4.914   0.616
 6641SOL     OW20602   4.394   5.105   1.609
 6641SOL    HW120603   4.318   5.073   1.657
 6641SOL    HW220604   4.425   5.180   1.659
 6642SOL     OW20605   4.149   4.160   0.523
 6642SOL    HW120606   4.182   4.088   0.469
 6642SOL    HW220607   4.105   4.116   0.596
 6643SOL     OW20608   0.122   5.229   1.052
 6643SOL    HW120609   0.038   5.205   1.013
 6643SOL    HW220610   0.105   5.231   1.146
 6644SOL     OW20611   4.054   4.279   1.292
 6644SOL    HW120612   4.109   4.224   1.347
 6644SOL    HW220613   4.074   4.251   1.202
 6645SOL     OW20614   5.148   3.942   1.115
 6645SOL    HW120615   5.193   3.878   1.169
 6645SOL    HW220616   5.102   3.998   1.177
 6646SOL     OW20617   4.730   3.743   1.142
 6646SOL    HW120618   4.677   3.674   1.102
 6646SOL    HW220619   4.818   3.705   1.147
 6647SOL     OW20620   4.518   5.040   0.282
 6647SOL    HW120621   4.465   4.965   0.308
 6647SOL    HW220622   4.577   5.053   0.356
 6648SOL     OW20623   4.346   5.299   1.291
 6648SOL    HW120624   4.353   0.053   1.369
 6648SOL    HW220625   4.437   5.280   1.267
 6649SOL     OW20626   5.051   3.785   0.186
 6649SOL    HW120627   5.093   3.736   0.116
 6649SOL    HW220628   4.973   3.734   0.207
 6650SOL     OW20629   5.028   4.184   0.683
 6650SOL    HW120630   4.973   4.263   0.688
 6650SOL    HW220631   5.016   4.142   0.769
 6651SOL     OW20632   0.000   3.949   0.877
 6651SOL    HW120633   5.237   3.935   0.948
 6651SOL    HW220634   5.275   4.033   0.839
 6652SOL     OW20635   3.765   4.791   0.303
 6652SOL    HW120636   3.861   4.794   0.307
 6652SOL    HW220637   3.741   4.708   0.343
 6653SOL     OW20638   3.953   4.347   1.985
 6653SOL    HW120639   3.864   4.346   2.019
 6653SOL    HW220640   3.944   4.322   1.893
 6654SOL     OW20641   3.949   4.005   2.854
 6654SOL    HW120642   3.977   3.971   2.938
 6654SOL    HW220643   3.859   3.973   2.844
 6655SOL     OW20644   3.728   4.107   2.500
 6655SOL    HW120645   3.645   4.132   2.541
 6655SOL    HW220646   3.708   4.027   2.451
 6656SOL     OW20647   4.290   5.005   3.041
 6656SOL    HW120648   4.205   5.004   2.997
 6656SOL    HW220649   4.302   5.096   3.067
 6657SOL     OW20650   5.275   5.232   2.555
 6657SOL    HW120651   5.265   5.216   2.649
 6657SOL    HW220652   5.186   5.231   2.521
 6658SOL     OW20653   4.858   4.423   2.562
 6658SOL    HW120654   4.908   4.504   2.552
 6658SOL    HW220655   4.809   4.435   2.644
 6659SOL     OW20656   4.480   4.868   2.900
 6659SOL    HW120657   4.412   4.899   2.960
 6659SOL    HW220658   4.510   4.947   2.854
 6660SOL     OW20659   4.592   4.499   3.684
 6660SOL    HW120660   4.575   4.570   3.745
 6660SOL    HW220661   4.614   4.542   3.602
 6661SOL     OW20662   4.410   4.726   2.510
 6661SOL    HW120663   4.475   4.716   2.580
 6661SOL    HW220664   4.341   4.780   2.550
 6662SOL     OW20665   4.433   4.874   3.674
 6662SOL    HW120666   4.481   4.953   3.698
 6662SOL    HW220667   4.350   4.905   3.639
 6663SOL     OW20668   4.061   5.151   2.922
 6663SOL    HW120669   3.984   5.107   2.886
 6663SOL    HW220670   4.101   5.194   2.847
 6664SOL     OW20671   5.129   5.238   3.203
 6664SOL    HW120672   5.149   0.008   3.264
 6664SOL    HW220673   5.109   5.162   3.258
 6665SOL     OW20674   4.173   4.122   3.350
 6665SOL    HW120675   4.248   4.063   3.355
 6665SOL    HW220676   4.097   4.066   3.363
 6666SOL     OW20677   4.864   5.052   3.562
 6666SOL    HW120678   4.886   5.065   3.654
 6666SOL    HW220679   4.803   4.978   3.563
 6667SOL     OW20680   3.934   5.156   2.382
 6667SOL    HW120681   3.960   5.238   2.424
 6667SOL    HW220682   3.882   5.110   2.449
 6668SOL     OW20683   3.982   4.811   2.754
 6668SOL    HW120684   3.979   4.724   2.793
 6668SOL    HW220685   3.924   4.864   2.809
 6669SOL     OW20686   4.310   4.705   1.996
 6669SOL    HW120687   4.356   4.755   1.928
 6669SOL    HW220688   4.348   4.735   2.078
 6670SOL     OW20689   3.839   4.376   2.421
 6670SOL    HW120690   3.810   4.288   2.443
 6670SOL    HW220691   3.831   4.425   2.504
 6671SOL     OW20692   3.710   0.014   1.961
 6671SOL    HW120693   3.726   5.224   1.991
 6671SOL    HW220694   3.732   0.069   2.036
 6672SOL     OW20695   0.112   4.658   2.429
 6672SOL    HW120696   0.199   4.626   2.452
 6672SOL    HW220697   0.127   4.749   2.401
 6673SOL     OW20698   3.847   4.466   3.448
 6673SOL    HW120699   3.939   4.491   3.456
 6673SOL    HW220700   3.799   4.549   3.456
 6674SOL     OW20701   4.346   5.098   2.599
 6674SOL    HW120702   4.292   5.019   2.597
 6674SOL    HW220703   4.327   5.141   2.515
 6675SOL     OW20704   5.020   4.971   3.282
 6675SOL    HW120705   5.048   4.899   3.225
 6675SOL    HW220706   5.067   4.956   3.364
 6676SOL     OW20707   4.538   3.724   2.370
 6676SOL    HW120708   4.579   3.808   2.351
 6676SOL    HW220709   4.445   3.744   2.380
 6677SOL     OW20710   3.914   4.690   3.132
 6677SOL    HW120711   3.999   4.648   3.117
 6677SOL    HW220712   3.852   4.635   3.085
 6678SOL     OW20713   4.057   3.974   3.675
 6678SOL    HW120714   4.101   4.058   3.689
 6678SOL    HW220715   3.967   3.988   3.705
 6679SOL     OW20716   5.178   5.153   2.813
 6679SOL    HW120717   5.110   5.162   2.880
 6679SOL    HW220718   5.164   5.066   2.777
 6680SOL     OW20719   0.045   0.163   2.427
 6680SOL    HW120720   0.086   0.124   2.350
 6680SOL    HW220721   0.034   0.091   2.489
 6681SOL     OW20722   4.320   4.445   2.128
 6681SOL    HW120723   4.326   4.527   2.078
 6681SOL    HW220724   4.255   4.464   2.196
 6682SOL     OW20725   4.996   4.061   2.782
 6682SOL    HW120726   4.907   4.031   2.803
 6682SOL    HW220727   5.051   4.026   2.852
 6683SOL     OW20728   4.515   4.342   3.313
 6683SOL    HW120729   4.489   4.318   3.402
 6683SOL    HW220730   4.475   4.275   3.257
 6684SOL     OW20731   5.115   4.204   3.542
 6684SOL    HW120732   5.116   4.242   3.630
 6684SOL    HW220733   5.191   4.145   3.540
 6685SOL     OW20734   4.678   4.612   3.444
 6685SOL    HW120735   4.731   4.540   3.409
 6685SOL    HW220736   4.630   4.646   3.368
 6686SOL     OW20737   4.715   4.137   3.100
 6686SOL    HW120738   4.629   4.158   3.137
 6686SOL    HW220739   4.696   4.090   3.019
 6687SOL     OW20740   4.775   4.422   2.287
 6687SOL    HW120741   4.790   4.416   2.382
 6687SOL    HW220742   4.692   4.376   2.274
 6688SOL     OW20743   3.812   4.545   2.638
 6688SOL    HW120744   3.893   4.538   2.689
 6688SOL    HW220745   3.769   4.622   2.673
 6689SOL     OW20746   4.617   4.071   2.056
 6689SOL    HW120747   4.657   4.133   1.994
 6689SOL    HW220748   4.633   3.985   2.018
 6690SOL     OW20749   5.092   4.868   2.408
 6690SOL    HW120750   5.182   4.867   2.375
 6690SOL    HW220751   5.045   4.928   2.350
 6691SOL     OW20752   4.274   3.906   2.755
 6691SOL    HW120753   4.276   3.934   2.846
 6691SOL    HW220754   4.275   3.987   2.704
 6692SOL     OW20755   4.745   5.168   2.332
 6692SOL    HW120756   4.668   5.224   2.324
 6692SOL    HW220757   4.760   5.160   2.426
 6693SOL     OW20758   4.939   5.261   3.417
 6693SOL    HW120759   4.915   5.178   3.459
 6693SOL    HW220760   4.901   5.254   3.329
 6694SOL     OW20761   4.044   4.680   2.112
 6694SOL    HW120762   4.126   4.700   2.067
 6694SOL    HW220763   4.014   4.599   2.072
 6695SOL     OW20764   4.188   4.987   3.603
 6695SOL    HW120765   4.162   4.990   3.511
 6695SOL    HW220766   4.106   4.986   3.652
 6696SOL     OW20767   4.790   0.173   2.073
 6696SOL    HW120768   4.803   0.117   2.150
 6696SOL    HW220769   4.867   0.157   2.018
 6697SOL     OW20770   3.925   4.005   3.364
 6697SOL    HW120771   3.843   4.054   3.358
 6697SOL    HW220772   3.906   3.933   3.424
 6698SOL     OW20773   5.121   3.831   2.286
 6698SOL    HW120774   5.101   3.813   2.194
 6698SOL    HW220775   5.215   3.847   2.288
 6699SOL     OW20776   4.117   4.419   2.339
 6699SOL    HW120777   4.137   4.326   2.350
 6699SOL    HW220778   4.023   4.425   2.356
 6700SOL     OW20779   4.359   3.847   1.967
 6700SOL    HW120780   4.429   3.783   1.979
 6700SOL    HW220781   4.310   3.815   1.891
 6701SOL     OW20782   4.490   4.003   3.616
 6701SOL    HW120783   4.566   3.944   3.617
 6701SOL    HW220784   4.441   3.980   3.696
 6702SOL     OW20785   5.058   4.316   3.294
 6702SOL    HW120786   5.090   4.283   3.378
 6702SOL    HW220787   5.100   4.400   3.283
 6703SOL     OW20788   4.536   5.119   2.798
 6703SOL    HW120789   4.617   5.106   2.748
 6703SOL    HW220790   4.468   5.126   2.731
 6704SOL     OW20791   4.651   4.233   2.765
 6704SOL    HW120792   4.628   4.224   2.672
 6704SOL    HW220793   4.683   4.146   2.790
 6705SOL     OW20794   4.273   3.787   2.364
 6705SOL    HW120795   4.192   3.788   2.416
 6705SOL    HW220796   4.267   3.865   2.310
 6706SOL     OW20797   5.136   4.904   1.905
 6706SOL    HW120798   5.144   4.825   1.959
 6706SOL    HW220799   5.048   4.936   1.921
 6707SOL     OW20800   4.016   3.771   2.046
 6707SOL    HW120801   4.075   3.836   2.007
 6707SOL    HW220802   4.074   3.708   2.088
 6708SOL     OW20803   4.661   3.970   2.322
 6708SOL    HW120804   4.634   4.011   2.240
 6708SOL    HW220805   4.756   3.983   2.325
 6709SOL     OW20806   4.801   4.405   3.323
 6709SOL    HW120807   4.734   4.337   3.325
 6709SOL    HW220808   4.884   4.357   3.313
 6710SOL     OW20809   4.984   5.266   2.633
 6710SOL    HW120810   4.948   0.052   2.612
 6710SOL    HW220811   5.037   5.280   2.711
 6711SOL     OW20812   4.190   4.872   2.593
 6711SOL    HW120813   4.121   4.852   2.656
 6711SOL    HW220814   4.149   4.854   2.508
 6712SOL     OW20815   4.748   4.268   1.884
 6712SOL    HW120816   4.704   4.350   1.863
 6712SOL    HW220817   4.809   4.290   1.954
 6713SOL     OW20818   3.803   4.279   3.254
 6713SOL    HW120819   3.895   4.277   3.227
 6713SOL    HW220820   3.798   4.349   3.319
 6714SOL     OW20821   4.283   3.951   3.028
 6714SOL    HW120822   4.325   3.874   3.067
 6714SOL    HW220823   4.192   3.947   3.058
 6715SOL     OW20824   4.592   4.183   2.501
 6715SOL    HW120825   4.546   4.238   2.438
 6715SOL    HW220826   4.613   4.103   2.453
 6716SOL     OW20827   4.739   3.777   2.614
 6716SOL    HW120828   4.681   3.770   2.538
 6716SOL    HW220829   4.717   3.701   2.668
 6717SOL     OW20830   5.152   4.901   2.712
 6717SOL    HW120831   5.100   4.822   2.723
 6717SOL    HW220832   5.170   4.906   2.618
 6718SOL     OW20833   4.204   5.146   2.016
 6718SOL    HW120834   4.142   5.094   2.067
 6718SOL    HW220835   4.207   5.104   1.930
 6719SOL     OW20836   5.127   4.286   1.942
 6719SOL    HW120837   5.055   4.276   2.003
 6719SOL    HW220838   5.202   4.248   1.987
 6720SOL     OW20839   4.249   3.987   2.180
 6720SOL    HW120840   4.294   3.939   2.110
 6720SOL    HW220841   4.227   4.071   2.142
 6721SOL     OW20842   4.787   5.074   3.192
 6721SOL    HW120843   4.709   5.049   3.242
 6721SOL    HW220844   4.860   5.036   3.241
 6722SOL     OW20845   4.848   4.923   2.971
 6722SOL    HW120846   4.797   4.965   3.040
 6722SOL    HW220847   4.805   4.950   2.889
 6723SOL     OW20848   4.642   3.822   3.259
 6723SOL    HW120849   4.664   3.803   3.167
 6723SOL    HW220850   4.721   3.861   3.295
 6724SOL     OW20851   4.706   4.833   3.592
 6724SOL    HW120852   4.613   4.852   3.608
 6724SOL    HW220853   4.704   4.759   3.531
 6725SOL     OW20854   4.428   4.782   2.234
 6725SOL    HW120855   4.416   4.766   2.328
 6725SOL    HW220856   4.506   4.731   2.211
 6726SOL     OW20857   4.142   4.539   3.113
 6726SOL    HW120858   4.211   4.548   3.180
 6726SOL    HW220859   4.107   4.451   3.127
 6727SOL     OW20860   4.989   4.099   3.139
 6727SOL    HW120861   5.023   4.179   3.179
 6727SOL    HW220862   4.899   4.123   3.113
 6728SOL     OW20863   4.071   4.832   2.351
 6728SOL    HW120864   4.074   4.905   2.289
 6728SOL    HW220865   4.071   4.754   2.296
 6729SOL     OW20866   4.277   4.261   2.722
 6729SOL    HW120867   4.292   4.319   2.647
 6729SOL    HW220868   4.342   4.287   2.787
 6730SOL     OW20869   4.985   5.077   2.249
 6730SOL    HW120870   5.037   5.152   2.276
 6730SOL    HW220871   4.896   5.099   2.277
 6731SOL     OW20872   4.978   5.181   2.993
 6731SOL    HW120873   5.033   5.204   3.068
 6731SOL    HW220874   4.940   5.096   3.016
 6732SOL     OW20875   4.072   5.236   3.177
 6732SOL    HW120876   4.061   5.201   3.088
 6732SOL    HW220877   4.166   5.257   3.183
 6733SOL     OW20878   4.138   4.469   3.464
 6733SOL    HW120879   4.200   4.513   3.406
 6733SOL    HW220880   4.177   4.383   3.480
 6734SOL     OW20881   4.718   3.848   3.618
 6734SOL    HW120882   4.775   3.920   3.590
 6734SOL    HW220883   4.765   3.769   3.592
 6735SOL     OW20884   4.222   3.765   3.610
 6735SOL    HW120885   4.179   3.711   3.544
 6735SOL    HW220886   4.163   3.839   3.622
 6736SOL     OW20887   4.307   4.596   2.893
 6736SOL    HW120888   4.338   4.687   2.891
 6736SOL    HW220889   4.251   4.591   2.970
 6737SOL     OW20890   5.086   4.581   2.897
 6737SOL    HW120891   5.009   4.562   2.844
 6737SOL    HW220892   5.138   4.500   2.894
 6738SOL     OW20893   4.928   4.255   2.127
 6738SOL    HW120894   4.935   4.175   2.179
 6738SOL    HW220895   4.885   4.318   2.184
 6739SOL     OW20896   4.023   3.922   3.109
 6739SOL    HW120897   3.986   3.955   3.190
 6739SOL    HW220898   4.004   3.829   3.109
 6740SOL     OW20899   3.776   5.046   3.147
 6740SOL    HW120900   3.801   4.982   3.213
 6740SOL    HW220901   3.812   5.129   3.178
 6741SOL     OW20902   4.448   4.355   2.920
 6741SOL    HW120903   4.523   4.339   2.863
 6741SOL    HW220904   4.420   4.444   2.899
 6742SOL     OW20905   4.027   3.788   2.485
 6742SOL    HW120906   4.007   3.879   2.508
 6742SOL    HW220907   4.034   3.743   2.569
 6743SOL     OW20908   0.035   4.117   2.221
 6743SOL    HW120909   0.054   4.043   2.278
 6743SOL    HW220910   0.018   4.190   2.282
 6744SOL     OW20911   4.751   4.483   2.822
 6744SOL    HW120912   4.749   4.501   2.916
 6744SOL    HW220913   4.725   4.391   2.815
 6745SOL     OW20914   4.077   4.640   3.671
 6745SOL    HW120915   4.159   4.659   3.716
 6745SOL    HW220916   4.101   4.577   3.602
 6746SOL     OW20917   5.027   4.553   1.898
 6746SOL    HW120918   5.065   4.465   1.900
 6746SOL    HW220919   5.054   4.589   1.814
 6747SOL     OW20920   4.781   5.079   2.689
 6747SOL    HW120921   4.787   4.994   2.645
 6747SOL    HW220922   4.866   5.119   2.674
 6748SOL     OW20923   4.033   4.533   2.809
 6748SOL    HW120924   4.126   4.554   2.803
 6748SOL    HW220925   4.031   4.443   2.842
 6749SOL     OW20926   4.055   4.250   2.874
 6749SOL    HW120927   4.020   4.162   2.859
 6749SOL    HW220928   4.132   4.255   2.817
 6750SOL     OW20929   4.856   4.100   3.543
 6750SOL    HW120930   4.809   4.155   3.605
 6750SOL    HW220931   4.944   4.139   3.538
 6751SOL     OW20932   4.885   3.926   3.331
 6751SOL    HW120933   4.874   3.989   3.403
 6751SOL    HW220934   4.924   3.978   3.260
 6752SOL     OW20935   3.730   5.041   2.053
 6752SOL    HW120936   3.640   5.058   2.026
 6752SOL    HW220937   3.728   4.953   2.090
 6753SOL     OW20938   4.706   4.516   3.089
 6753SOL    HW120939   4.763   4.494   3.163
 6753SOL    HW220940   4.621   4.478   3.110
 6754SOL     OW20941   3.760   4.269   2.978
 6754SOL    HW120942   3.840   4.255   2.929
 6754SOL    HW220943   3.788   4.272   3.070
 6755SOL     OW20944   3.916   4.243   3.589
 6755SOL    HW120945   3.971   4.204   3.522
 6755SOL    HW220946   3.873   4.317   3.546
 6756SOL     OW20947   5.112   4.662   3.528
 6756SOL    HW120948   5.120   4.757   3.516
 6756SOL    HW220949   5.115   4.626   3.439
 6757SOL     OW20950   4.540   4.293   2.221
 6757SOL    HW120951   4.543   4.218   2.161
 6757SOL    HW220952   4.466   4.345   2.190
 6758SOL     OW20953   3.929   5.277   3.607
 6758SOL    HW120954   3.916   0.029   3.686
 6758SOL    HW220955   3.942   5.188   3.639
 6759SOL     OW20956   4.424   4.174   3.122
 6759SOL    HW120957   4.372   4.100   3.091
 6759SOL    HW220958   4.421   4.237   3.049
 6760SOL     OW20959   4.188   4.216   2.049
 6760SOL    HW120960   4.247   4.289   2.071
 6760SOL    HW220961   4.103   4.257   2.037
 6761SOL     OW20962   3.869   4.863   3.333
 6761SOL    HW120963   3.871   4.812   3.413
 6761SOL    HW220964   3.887   4.799   3.263
 6762SOL     OW20965   5.050   4.770   3.089
 6762SOL    HW120966   5.075   4.709   3.020
 6762SOL    HW220967   4.980   4.822   3.051
 6763SOL     OW20968   5.033   4.584   2.178
 6763SOL    HW120969   4.952   4.550   2.215
 6763SOL    HW220970   5.023   4.575   2.084
 6764SOL     OW20971   3.817   4.987   2.884
 6764SOL    HW120972   3.796   5.004   2.975
 6764SOL    HW220973   3.738   4.948   2.847
 6765SOL     OW20974   4.470   0.033   3.575
 6765SOL    HW120975   4.378   0.060   3.578
 6765SOL    HW220976   4.501   0.065   3.490
 6766SOL     OW20977   0.081   3.884   2.392
 6766SOL    HW120978   0.165   3.870   2.348
 6766SOL    HW220979   0.068   3.804   2.443
 6767SOL     OW20980   5.016   4.643   2.535
 6767SOL    HW120981   5.094   4.588   2.522
 6767SOL    HW220982   5.035   4.723   2.485
 6768SOL     OW20983   4.543   4.993   3.284
 6768SOL    HW120984   4.513   5.029   3.367
 6768SOL    HW220985   4.468   5.004   3.225
 6769SOL     OW20986   3.986   4.040   2.579
 6769SOL    HW120987   3.901   4.076   2.555
 6769SOL    HW220988   3.983   4.032   2.674
 6770SOL     OW20989   4.549   4.728   3.232
 6770SOL    HW120990   4.595   4.721   3.149
 6770SOL    HW220991   4.552   4.821   3.254
 6771SOL     OW20992   4.640   4.635   2.153
 6771SOL    HW120993   4.702   4.668   2.087
 6771SOL    HW220994   4.687   4.565   2.197
 6772SOL     OW20995   4.089   5.026   3.359
 6772SOL    HW120996   4.078   5.100   3.299
 6772SOL    HW220997   4.013   4.970   3.341
 6773SOL     OW20998   4.777   4.833   2.573
 6773SOL    HW120999   4.706   4.782   2.611
 6773SOL    HW221000   4.835   4.768   2.534
 6774SOL     OW21001   4.739   3.963   2.830
 6774SOL    HW121002   4.737   3.916   2.747
 6774SOL    HW221003   4.736   3.895   2.897
 6775SOL     OW21004   3.982   5.052   2.144
 6775SOL    HW121005   3.890   5.054   2.118
 6775SOL    HW221006   3.983   5.095   2.230
 6776SOL     OW21007   3.836   4.746   3.580
 6776SOL    HW121008   3.760   4.722   3.634
 6776SOL    HW221009   3.911   4.708   3.627
 6777SOL     OW21010   4.398   3.920   3.361
 6777SOL    HW121011   4.482   3.900   3.320
 6777SOL    HW221012   4.421   3.952   3.449
 6778SOL     OW21013   3.802   4.058   1.897
 6778SOL    HW121014   3.715   4.038   1.863
 6778SOL    HW221015   3.832   4.133   1.846
 6779SOL     OW21016   5.163   4.584   3.266
 6779SOL    HW121017   5.111   4.641   3.210
 6779SOL    HW221018   5.252   4.591   3.231
 6780SOL     OW21019   3.792   3.880   2.172
 6780SOL    HW121020   3.778   3.960   2.121
 6780SOL    HW221021   3.877   3.848   2.143
 6781SOL     OW21022   4.909   5.059   1.983
 6781SOL    HW121023   4.815   5.041   1.981
 6781SOL    HW221024   4.933   5.055   2.075
 6782SOL     OW21025   4.343   4.555   3.295
 6782SOL    HW121026   4.399   4.631   3.279
 6782SOL    HW221027   4.403   4.481   3.304
 6783SOL     OW21028   4.441   4.287   3.566
 6783SOL    HW121029   4.482   4.349   3.627
 6783SOL    HW221030   4.469   4.201   3.598
 6784SOL     OW21031   5.184   4.928   3.495
 6784SOL    HW121032   5.173   4.940   3.589
 6784SOL    HW221033   5.279   4.932   3.481
 6785SOL     OW21034   4.940   4.044   2.318
 6785SOL    HW121035   5.002   3.972   2.305
 6785SOL    HW221036   4.970   4.088   2.397
 6786SOL     OW21037   4.314   4.462   2.531
 6786SOL    HW121038   4.353   4.548   2.517
 6786SOL    HW221039   4.246   4.454   2.464
 6787SOL     OW21040   4.580   5.095   1.882
 6787SOL    HW121041   4.557   5.098   1.974
 6787SOL    HW221042   4.589   5.186   1.856
 6788SOL     OW21043   4.592   4.691   2.717
 6788SOL    HW121044   4.642   4.620   2.757
 6788SOL    HW221045   4.557   4.741   2.792
 6789SOL     OW21046   4.808   4.712   1.954
 6789SOL    HW121047   4.781   4.760   1.876
 6789SOL    HW221048   4.882   4.658   1.925
 6790SOL     OW21049   3.947   5.024   3.715
 6790SOL    HW121050   3.879   4.962   3.689
 6790SOL    HW221051   3.936   5.035   3.809
 6791SOL     OW21052   3.810   4.955   2.532
 6791SOL    HW121053   3.809   4.903   2.612
 6791SOL    HW221054   3.874   4.913   2.475
 6792SOL     OW21055   4.394   5.105   3.471
 6792SOL    HW121056   4.318   5.073   3.519
 6792SOL    HW221057   4.425   5.180   3.521
 6793SOL     OW21058   4.153   4.158   2.388
 6793SOL    HW121059   4.183   4.087   2.330
 6793SOL    HW221060   4.105   4.114   2.458
 6794SOL     OW21061   0.123   5.229   2.913
 6794SOL    HW121062   0.038   5.205   2.875
 6794SOL    HW221063   0.106   5.235   3.007
 6795SOL     OW21064   4.054   4.279   3.154
 6795SOL    HW121065   4.109   4.224   3.209
 6795SOL    HW221066   4.073   4.251   3.064
 6796SOL     OW21067   5.147   3.942   2.977
 6796SOL    HW121068   5.193   3.878   3.031
 6796SOL    HW221069   5.101   3.998   3.040
 6797SOL     OW21070   4.730   3.743   3.005
 6797SOL    HW121071   4.677   3.674   2.964
 6797SOL    HW221072   4.818   3.705   3.009
 6798SOL     OW21073   4.526   5.046   2.146
 6798SOL    HW121074   4.465   4.975   2.166
 6798SOL    HW221075   4.581   5.053   2.224
 6799SOL     OW21076   4.346   5.299   3.153
 6799SOL    HW121077   4.353   0.054   3.232
 6799SOL    HW221078   4.437   5.280   3.129
 6800SOL     OW21079   5.058   3.770   2.029
 6800SOL    HW121080   5.082   3.729   1.946
 6800SOL    HW221081   4.973   3.732   2.051
 6801SOL     OW21082   5.028   4.182   2.544
 6801SOL    HW121083   4.973   4.261   2.548
 6801SOL    HW221084   5.017   4.141   2.630
 6802SOL     OW21085   0.002   3.949   2.742
 6802SOL    HW121086   5.236   3.938   2.810
 6802SOL    HW221087   5.276   4.029   2.697
 6803SOL     OW21088   3.766   4.795   2.169
 6803SOL    HW121089   3.860   4.788   2.152
 6803SOL    HW221090   3.740   4.705   2.191
 6804SOL     OW21091   3.954   4.347   3.847
 6804SOL    HW121092   3.864   4.346   3.881
 6804SOL    HW221093   3.945   4.322   3.755
 6805SOL     OW21094   3.949   4.005   4.716
 6805SOL    HW121095   3.978   3.971   4.800
 6805SOL    HW221096   3.859   3.973   4.706
 6806SOL     OW21097   3.728   4.107   4.363
 6806SOL    HW121098   3.645   4.131   4.403
 6806SOL    HW221099   3.708   4.028   4.312
 6807SOL     OW21100   4.290   5.005   4.903
 6807SOL    HW121101   4.205   5.004   4.859
 6807SOL    HW221102   4.302   5.096   4.929
 6808SOL     OW21103   5.275   5.232   4.417
 6808SOL    HW121104   5.265   5.216   4.511
 6808SOL    HW221105   5.186   5.231   4.383
 6809SOL     OW21106   4.858   4.423   4.424
 6809SOL    HW121107   4.908   4.504   4.414
 6809SOL    HW221108   4.809   4.435   4.506
 6810SOL     OW21109   4.480   4.868   4.762
 6810SOL    HW121110   4.412   4.899   4.822
 6810SOL    HW221111   4.510   4.946   4.716
 6811SOL     OW21112   4.592   4.499   5.546
 6811SOL    HW121113   4.575   4.570   5.607
 6811SOL    HW221114   4.614   4.542   5.464
 6812SOL     OW21115   4.410   4.726   4.372
 6812SOL    HW121116   4.475   4.716   4.442
 6812SOL    HW221117   4.341   4.780   4.412
 6813SOL     OW21118   4.433   4.874   5.536
 6813SOL    HW121119   4.481   4.953   5.560
 6813SOL    HW221120   4.350   4.905   5.501
 6814SOL     OW21121   4.061   5.151   4.784
 6814SOL    HW121122   3.984   5.107   4.748
 6814SOL    HW221123   4.101   5.194   4.709
 6815SOL     OW21124   5.129   5.238   5.065
 6815SOL    HW121125   5.149   0.008   5.126
 6815SOL    HW221126   5.109   5.162   5.120
 6816SOL     OW21127   4.173   4.122   5.212
 6816SOL    HW121128   4.248   4.064   5.217
 6816SOL    HW221129   4.097   4.065   5.224
 6817SOL     OW21130   4.864   5.052   5.424
 6817SOL    HW121131   4.886   5.065   5.516
 6817SOL    HW221132   4.803   4.978   5.425
 6818SOL     OW21133   3.934   5.156   4.244
 6818SOL    HW121134   3.960   5.238   4.286
 6818SOL    HW221135   3.882   5.111   4.311
 6819SOL     OW21136   3.981   4.811   4.615
 6819SOL    HW121137   3.979   4.724   4.655
 6819SOL    HW221138   3.924   4.864   4.671
 6820SOL     OW21139   4.310   4.705   3.858
 6820SOL    HW121140   4.356   4.755   3.790
 6820SOL    HW221141   4.349   4.735   3.940
 6821SOL     OW21142   3.839   4.377   4.283
 6821SOL    HW121143   3.810   4.288   4.305
 6821SOL    HW221144   3.831   4.425   4.366
 6822SOL     OW21145   3.710   0.014   3.823
 6822SOL    HW121146   3.726   5.224   3.853
 6822SOL    HW221147   3.732   0.069   3.898
 6823SOL     OW21148   0.112   4.659   4.292
 6823SOL    HW121149   0.199   4.626   4.314
 6823SOL    HW221150   0.127   4.749   4.263
 6824SOL     OW21151   3.847   4.467   5.310
 6824SOL    HW121152   3.939   4.492   5.318
 6824SOL    HW221153   3.799   4.549   5.318
 6825SOL     OW21154   4.346   5.098   4.461
 6825SOL    HW121155   4.292   5.019   4.459
 6825SOL    HW221156   4.327   5.141   4.377
 6826SOL     OW21157   5.020   4.971   5.144
 6826SOL    HW121158   5.048   4.899   5.087
 6826SOL    HW221159   5.067   4.956   5.226
 6827SOL     OW21160   4.538   3.724   4.233
 6827SOL    HW121161   4.579   3.809   4.213
 6827SOL    HW221162   4.445   3.744   4.242
 6828SOL     OW21163   3.914   4.690   4.994
 6828SOL    HW121164   3.999   4.648   4.980
 6828SOL    HW221165   3.852   4.636   4.946
 6829SOL     OW21166   4.056   3.974   5.534
 6829SOL    HW121167   4.102   4.057   5.551
 6829SOL    HW221168   3.967   3.989   5.567
 6830SOL     OW21169   5.178   5.153   4.675
 6830SOL    HW121170   5.110   5.162   4.742
 6830SOL    HW221171   5.164   5.066   4.639
 6831SOL     OW21172   0.045   0.163   4.289
 6831SOL    HW121173   0.087   0.124   4.212
 6831SOL    HW221174   0.034   0.091   4.351
 6832SOL     OW21175   4.320   4.445   3.990
 6832SOL    HW121176   4.326   4.527   3.940
 6832SOL    HW221177   4.255   4.464   4.058
 6833SOL     OW21178   4.996   4.061   4.644
 6833SOL    HW121179   4.907   4.031   4.665
 6833SOL    HW221180   5.051   4.026   4.714
 6834SOL     OW21181   4.514   4.342   5.175
 6834SOL    HW121182   4.489   4.318   5.264
 6834SOL    HW221183   4.475   4.275   5.120
 6835SOL     OW21184   5.115   4.204   5.404
 6835SOL    HW121185   5.116   4.242   5.492
 6835SOL    HW221186   5.191   4.146   5.402
 6836SOL     OW21187   4.678   4.612   5.306
 6836SOL    HW121188   4.731   4.540   5.271
 6836SOL    HW221189   4.630   4.646   5.230
 6837SOL     OW21190   4.715   4.137   4.962
 6837SOL    HW121191   4.629   4.158   4.999
 6837SOL    HW221192   4.696   4.090   4.881
 6838SOL     OW21193   4.775   4.422   4.149
 6838SOL    HW121194   4.790   4.416   4.244
 6838SOL    HW221195   4.692   4.376   4.136
 6839SOL     OW21196   3.812   4.544   4.501
 6839SOL    HW121197   3.893   4.538   4.551
 6839SOL    HW221198   3.769   4.622   4.535
 6840SOL     OW21199   4.617   4.071   3.918
 6840SOL    HW121200   4.657   4.133   3.856
 6840SOL    HW221201   4.632   3.985   3.880
 6841SOL     OW21202   5.092   4.868   4.270
 6841SOL    HW121203   5.182   4.867   4.237
 6841SOL    HW221204   5.045   4.928   4.212
 6842SOL     OW21205   4.273   3.906   4.617
 6842SOL    HW121206   4.276   3.935   4.708
 6842SOL    HW221207   4.275   3.986   4.566
 6843SOL     OW21208   4.745   5.168   4.194
 6843SOL    HW121209   4.668   5.224   4.186
 6843SOL    HW221210   4.761   5.160   4.288
 6844SOL     OW21211   4.939   5.261   5.279
 6844SOL    HW121212   4.915   5.178   5.321
 6844SOL    HW221213   4.901   5.254   5.191
 6845SOL     OW21214   4.044   4.680   3.974
 6845SOL    HW121215   4.126   4.700   3.929
 6845SOL    HW221216   4.014   4.599   3.934
 6846SOL     OW21217   4.188   4.987   5.465
 6846SOL    HW121218   4.161   4.990   5.373
 6846SOL    HW221219   4.106   4.986   5.514
 6847SOL     OW21220   4.790   0.173   3.935
 6847SOL    HW121221   4.803   0.117   4.012
 6847SOL    HW221222   4.867   0.157   3.880
 6848SOL     OW21223   3.924   4.005   5.224
 6848SOL    HW121224   3.844   4.056   5.222
 6848SOL    HW221225   3.908   3.937   5.289
 6849SOL     OW21226   5.121   3.831   4.148
 6849SOL    HW121227   5.101   3.813   4.056
 6849SOL    HW221228   5.215   3.847   4.150
 6850SOL     OW21229   4.117   4.419   4.201
 6850SOL    HW121230   4.138   4.327   4.212
 6850SOL    HW221231   4.023   4.425   4.218
 6851SOL     OW21232   4.359   3.846   3.830
 6851SOL    HW121233   4.429   3.782   3.841
 6851SOL    HW221234   4.310   3.815   3.754
 6852SOL     OW21235   4.490   4.002   5.478
 6852SOL    HW121236   4.566   3.944   5.479
 6852SOL    HW221237   4.442   3.980   5.558
 6853SOL     OW21238   5.058   4.316   5.156
 6853SOL    HW121239   5.091   4.283   5.240
 6853SOL    HW221240   5.100   4.400   5.145
 6854SOL     OW21241   4.536   5.119   4.660
 6854SOL    HW121242   4.617   5.106   4.610
 6854SOL    HW221243   4.468   5.126   4.593
 6855SOL     OW21244   4.651   4.233   4.627
 6855SOL    HW121245   4.628   4.224   4.534
 6855SOL    HW221246   4.683   4.146   4.652
 6856SOL     OW21247   4.273   3.787   4.226
 6856SOL    HW121248   4.192   3.788   4.278
 6856SOL    HW221249   4.267   3.865   4.171
 6857SOL     OW21250   5.136   4.904   3.767
 6857SOL    HW121251   5.144   4.825   3.821
 6857SOL    HW221252   5.047   4.936   3.783
 6858SOL     OW21253   4.015   3.772   3.909
 6858SOL    HW121254   4.073   3.836   3.868
 6858SOL    HW221255   4.075   3.709   3.950
 6859SOL     OW21256   4.661   3.970   4.184
 6859SOL    HW121257   4.634   4.011   4.102
 6859SOL    HW221258   4.756   3.983   4.187
 6860SOL     OW21259   4.801   4.405   5.185
 6860SOL    HW121260   4.734   4.337   5.187
 6860SOL    HW221261   4.884   4.358   5.175
 6861SOL     OW21262   4.984   5.266   4.495
 6861SOL    HW121263   4.948   0.052   4.474
 6861SOL    HW221264   5.037   5.280   4.573
 6862SOL     OW21265   4.189   4.872   4.455
 6862SOL    HW121266   4.121   4.852   4.518
 6862SOL    HW221267   4.149   4.854   4.370
 6863SOL     OW21268   4.748   4.268   3.746
 6863SOL    HW121269   4.704   4.350   3.725
 6863SOL    HW221270   4.809   4.290   3.816
 6864SOL     OW21271   3.803   4.278   5.117
 6864SOL    HW121272   3.894   4.277   5.089
 6864SOL    HW221273   3.798   4.349   5.181
 6865SOL     OW21274   4.283   3.951   4.889
 6865SOL    HW121275   4.325   3.875   4.929
 6865SOL    HW221276   4.192   3.947   4.920
 6866SOL     OW21277   4.592   4.183   4.363
 6866SOL    HW121278   4.546   4.238   4.299
 6866SOL    HW221279   4.613   4.103   4.315
 6867SOL     OW21280   4.739   3.777   4.476
 6867SOL    HW121281   4.681   3.770   4.400
 6867SOL    HW221282   4.717   3.701   4.530
 6868SOL     OW21283   5.152   4.901   4.574
 6868SOL    HW121284   5.100   4.822   4.585
 6868SOL    HW221285   5.170   4.906   4.480
 6869SOL     OW21286   4.204   5.146   3.878
 6869SOL    HW121287   4.142   5.094   3.929
 6869SOL    HW221288   4.207   5.104   3.792
 6870SOL     OW21289   5.127   4.286   3.804
 6870SOL    HW121290   5.055   4.276   3.866
 6870SOL    HW221291   5.203   4.248   3.849
 6871SOL     OW21292   4.250   3.987   4.042
 6871SOL    HW121293   4.294   3.939   3.972
 6871SOL    HW221294   4.227   4.071   4.004
 6872SOL     OW21295   4.787   5.073   5.054
 6872SOL    HW121296   4.709   5.049   5.104
 6872SOL    HW221297   4.860   5.036   5.103
 6873SOL     OW21298   4.848   4.923   4.833
 6873SOL    HW121299   4.797   4.965   4.902
 6873SOL    HW221300   4.805   4.950   4.751
 6874SOL     OW21301   4.642   3.822   5.120
 6874SOL    HW121302   4.664   3.803   5.029
 6874SOL    HW221303   4.721   3.861   5.157
 6875SOL     OW21304   4.706   4.833   5.454
 6875SOL    HW121305   4.613   4.852   5.470
 6875SOL    HW221306   4.704   4.759   5.393
 6876SOL     OW21307   4.428   4.782   4.096
 6876SOL    HW121308   4.416   4.766   4.190
 6876SOL    HW221309   4.506   4.731   4.073
 6877SOL     OW21310   4.142   4.539   4.976
 6877SOL    HW121311   4.211   4.548   5.042
 6877SOL    HW221312   4.107   4.451   4.990
 6878SOL     OW21313   4.989   4.099   5.001
 6878SOL    HW121314   5.024   4.178   5.042
 6878SOL    HW221315   4.899   4.123   4.975
 6879SOL     OW21316   4.071   4.832   4.213
 6879SOL    HW121317   4.074   4.905   4.151
 6879SOL    HW221318   4.071   4.754   4.158
 6880SOL     OW21319   4.277   4.261   4.584
 6880SOL    HW121320   4.292   4.319   4.509
 6880SOL    HW221321   4.342   4.287   4.649
 6881SOL     OW21322   4.985   5.077   4.111
 6881SOL    HW121323   5.037   5.152   4.138
 6881SOL    HW221324   4.896   5.099   4.139
 6882SOL     OW21325   4.978   5.181   4.855
 6882SOL    HW121326   5.033   5.204   4.930
 6882SOL    HW221327   4.940   5.096   4.878
 6883SOL     OW21328   4.072   5.236   5.039
 6883SOL    HW121329   4.061   5.201   4.950
 6883SOL    HW221330   4.166   5.257   5.045
 6884SOL     OW21331   4.138   4.468   5.326
 6884SOL    HW121332   4.200   4.513   5.268
 6884SOL    HW221333   4.178   4.383   5.342
 6885SOL     OW21334   4.718   3.848   5.480
 6885SOL    HW121335   4.775   3.921   5.452
 6885SOL    HW221336   4.765   3.769   5.454
 6886SOL     OW21337   4.222   3.765   5.472
 6886SOL    HW121338   4.179   3.710   5.406
 6886SOL    HW221339   4.163   3.839   5.483
 6887SOL     OW21340   4.307   4.596   4.755
 6887SOL    HW121341   4.338   4.687   4.753
 6887SOL    HW221342   4.251   4.592   4.833
 6888SOL     OW21343   5.086   4.581   4.760
 6888SOL    HW121344   5.009   4.562   4.706
 6888SOL    HW221345   5.138   4.500   4.756
 6889SOL     OW21346   4.928   4.255   3.989
 6889SOL    HW121347   4.935   4.175   4.041
 6889SOL    HW221348   4.885   4.318   4.046
 6890SOL     OW21349   4.022   3.922   4.970
 6890SOL    HW121350   3.986   3.955   5.053
 6890SOL    HW221351   4.003   3.828   4.971
 6891SOL     OW21352   3.776   5.046   5.009
 6891SOL    HW121353   3.801   4.982   5.075
 6891SOL    HW221354   3.812   5.129   5.040
 6892SOL     OW21355   4.448   4.355   4.782
 6892SOL    HW121356   4.523   4.339   4.725
 6892SOL    HW221357   4.420   4.444   4.761
 6893SOL     OW21358   4.027   3.789   4.348
 6893SOL    HW121359   4.008   3.880   4.371
 6893SOL    HW221360   4.034   3.744   4.432
 6894SOL     OW21361   0.035   4.118   4.084
 6894SOL    HW121362   0.054   4.043   4.140
 6894SOL    HW221363   0.018   4.190   4.144
 6895SOL     OW21364   4.751   4.483   4.684
 6895SOL    HW121365   4.749   4.501   4.778
 6895SOL    HW221366   4.725   4.391   4.677
 6896SOL     OW21367   4.077   4.640   5.533
 6896SOL    HW121368   4.159   4.659   5.578
 6896SOL    HW221369   4.102   4.577   5.464
 6897SOL     OW21370   5.027   4.553   3.761
 6897SOL    HW121371   5.065   4.465   3.762
 6897SOL    HW221372   5.054   4.588   3.676
 6898SOL     OW21373   4.781   5.079   4.551
 6898SOL    HW121374   4.787   4.994   4.507
 6898SOL    HW221375   4.866   5.119   4.536
 6899SOL     OW21376   4.033   4.533   4.671
 6899SOL    HW121377   4.126   4.554   4.665
 6899SOL    HW221378   4.031   4.443   4.704
 6900SOL     OW21379   4.055   4.250   4.736
 6900SOL    HW121380   4.020   4.162   4.721
 6900SOL    HW221381   4.132   4.256   4.679
 6901SOL     OW21382   4.856   4.100   5.405
 6901SOL    HW121383   4.809   4.155   5.467
 6901SOL    HW221384   4.944   4.139   5.400
 6902SOL     OW21385   4.885   3.926   5.193
 6902SOL    HW121386   4.874   3.989   5.265
 6902SOL    HW221387   4.924   3.978   5.122
 6903SOL     OW21388   3.730   5.041   3.915
 6903SOL    HW121389   3.640   5.058   3.888
 6903SOL    HW221390   3.728   4.953   3.952
 6904SOL     OW21391   4.706   4.516   4.951
 6904SOL    HW121392   4.763   4.494   5.025
 6904SOL    HW221393   4.621   4.478   4.973
 6905SOL     OW21394   3.760   4.267   4.841
 6905SOL    HW121395   3.840   4.255   4.791
 6905SOL    HW221396   3.789   4.272   4.932
 6906SOL     OW21397   3.915   4.243   5.451
 6906SOL    HW121398   3.974   4.206   5.385
 6906SOL    HW221399   3.873   4.317   5.407
 6907SOL     OW21400   5.112   4.662   5.390
 6907SOL    HW121401   5.120   4.757   5.378
 6907SOL    HW221402   5.115   4.626   5.301
 6908SOL     OW21403   4.540   4.293   4.083
 6908SOL    HW121404   4.543   4.218   4.024
 6908SOL    HW221405   4.466   4.345   4.052
 6909SOL     OW21406   3.929   5.277   5.469
 6909SOL    HW121407   3.916   0.029   5.548
 6909SOL    HW221408   3.942   5.188   5.502
 6910SOL     OW21409   4.424   4.175   4.984
 6910SOL    HW121410   4.372   4.100   4.953
 6910SOL    HW221411   4.421   4.238   4.912
 6911SOL     OW21412   4.188   4.217   3.912
 6911SOL    HW121413   4.247   4.290   3.933
 6911SOL    HW221414   4.103   4.257   3.899
 6912SOL     OW21415   3.869   4.863   5.195
 6912SOL    HW121416   3.871   4.812   5.276
 6912SOL    HW221417   3.887   4.799   5.125
 6913SOL     OW21418   5.050   4.770   4.951
 6913SOL    HW121419   5.075   4.708   4.882
 6913SOL    HW221420   4.980   4.822   4.913
 6914SOL     OW21421   5.033   4.584   4.040
 6914SOL    HW121422   4.952   4.550   4.077
 6914SOL    HW221423   5.023   4.575   3.946
 6915SOL     OW21424   3.817   4.986   4.746
 6915SOL    HW121425   3.796   5.004   4.837
 6915SOL    HW221426   3.738   4.948   4.709
 6916SOL     OW21427   4.470   0.033   5.437
 6916SOL    HW121428   4.378   0.060   5.440
 6916SOL    HW221429   4.501   0.065   5.352
 6917SOL     OW21430   0.081   3.884   4.254
 6917SOL    HW121431   0.165   3.871   4.210
 6917SOL    HW221432   0.068   3.804   4.305
 6918SOL     OW21433   5.016   4.643   4.397
 6918SOL    HW121434   5.094   4.588   4.384
 6918SOL    HW221435   5.035   4.723   4.347
 6919SOL     OW21436   4.543   4.993   5.146
 6919SOL    HW121437   4.513   5.029   5.229
 6919SOL    HW221438   4.468   5.004   5.087
 6920SOL     OW21439   3.986   4.040   4.441
 6920SOL    HW121440   3.901   4.076   4.417
 6920SOL    HW221441   3.983   4.032   4.536
 6921SOL     OW21442   4.549   4.728   5.094
 6921SOL    HW121443   4.595   4.721   5.011
 6921SOL    HW221444   4.552   4.821   5.116
 6922SOL     OW21445   4.640   4.636   4.015
 6922SOL    HW121446   4.702   4.668   3.949
 6922SOL    HW221447   4.687   4.565   4.059
 6923SOL     OW21448   4.089   5.026   5.221
 6923SOL    HW121449   4.078   5.100   5.161
 6923SOL    HW221450   4.013   4.970   5.203
 6924SOL     OW21451   4.777   4.833   4.436
 6924SOL    HW121452   4.706   4.782   4.473
 6924SOL    HW221453   4.835   4.768   4.396
 6925SOL     OW21454   4.739   3.963   4.692
 6925SOL    HW121455   4.737   3.916   4.609
 6925SOL    HW221456   4.736   3.894   4.759
 6926SOL     OW21457   3.982   5.052   4.006
 6926SOL    HW121458   3.890   5.054   3.980
 6926SOL    HW221459   3.983   5.095   4.092
 6927SOL     OW21460   3.836   4.745   5.442
 6927SOL    HW121461   3.760   4.722   5.496
 6927SOL    HW221462   3.911   4.708   5.489
 6928SOL     OW21463   4.398   3.920   5.223
 6928SOL    HW121464   4.482   3.900   5.182
 6928SOL    HW221465   4.421   3.952   5.311
 6929SOL     OW21466   3.802   4.058   3.759
 6929SOL    HW121467   3.715   4.038   3.724
 6929SOL    HW221468   3.832   4.133   3.708
 6930SOL     OW21469   5.163   4.584   5.128
 6930SOL    HW121470   5.111   4.641   5.072
 6930SOL    HW221471   5.252   4.591   5.093
 6931SOL     OW21472   3.792   3.881   4.035
 6931SOL    HW121473   3.778   3.961   3.983
 6931SOL    HW221474   3.877   3.848   4.005
 6932SOL     OW21475   4.909   5.059   3.845
 6932SOL    HW121476   4.815   5.041   3.843
 6932SOL    HW221477   4.933   5.055   3.937
 6933SOL     OW21478   4.343   4.555   5.157
 6933SOL    HW121479   4.399   4.631   5.141
 6933SOL    HW221480   4.403   4.481   5.166
 6934SOL     OW21481   4.441   4.288   5.428
 6934SOL    HW121482   4.482   4.350   5.489
 6934SOL    HW221483   4.469   4.202   5.460
 6935SOL     OW21484   5.184   4.928   5.357
 6935SOL    HW121485   5.173   4.940   5.451
 6935SOL    HW221486   5.278   4.932   5.342
 6936SOL     OW21487   4.940   4.044   4.180
 6936SOL    HW121488   5.002   3.972   4.167
 6936SOL    HW221489   4.970   4.088   4.259
 6937SOL     OW21490   4.314   4.462   4.393
 6937SOL    HW121491   4.353   4.548   4.379
 6937SOL    HW221492   4.246   4.454   4.326
 6938SOL     OW21493   4.580   5.095   3.744
 6938SOL    HW121494   4.557   5.098   3.836
 6938SOL    HW221495   4.589   5.187   3.718
 6939SOL     OW21496   4.592   4.691   4.579
 6939SOL    HW121497   4.642   4.620   4.619
 6939SOL    HW221498   4.557   4.741   4.654
 6940SOL     OW21499   4.808   4.712   3.816
 6940SOL    HW121500   4.781   4.760   3.738
 6940SOL    HW221501   4.882   4.658   3.787
 6941SOL     OW21502   3.947   5.024   5.577
 6941SOL    HW121503   3.878   4.962   5.552
 6941SOL    HW221504   3.936   5.035   5.671
 6942SOL     OW21505   3.810   4.955   4.394
 6942SOL    HW121506   3.810   4.903   4.474
 6942SOL    HW221507   3.873   4.913   4.337
 6943SOL     OW21508   4.394   5.105   5.333
 6943SOL    HW121509   4.318   5.073   5.381
 6943SOL    HW221510   4.425   5.180   5.383
 6944SOL     OW21511   4.154   4.158   4.250
 6944SOL    HW121512   4.183   4.087   4.192
 6944SOL    HW221513   4.106   4.113   4.320
 6945SOL     OW21514   0.123   5.229   4.775
 6945SOL    HW121515   0.038   5.205   4.737
 6945SOL    HW221516   0.106   5.235   4.869
 6946SOL     OW21517   4.053   4.279   5.016
 6946SOL    HW121518   4.109   4.224   5.071
 6946SOL    HW221519   4.073   4.251   4.926
 6947SOL     OW21520   5.147   3.942   4.839
 6947SOL    HW121521   5.193   3.878   4.893
 6947SOL    HW221522   5.101   3.998   4.902
 6948SOL     OW21523   4.730   3.743   4.867
 6948SOL    HW121524   4.677   3.674   4.826
 6948SOL    HW221525   4.818   3.705   4.871
 6949SOL     OW21526   4.526   5.046   4.008
 6949SOL    HW121527   4.465   4.975   4.028
 6949SOL    HW221528   4.581   5.053   4.086
 6950SOL     OW21529   4.346   5.299   5.015
 6950SOL    HW121530   4.353   0.054   5.094
 6950SOL    HW221531   4.437   5.280   4.991
 6951SOL     OW21532   5.058   3.770   3.891
 6951SOL    HW121533   5.082   3.729   3.808
 6951SOL    HW221534   4.973   3.732   3.913
 6952SOL     OW21535   5.028   4.182   4.406
 6952SOL    HW121536   4.973   4.261   4.410
 6952SOL    HW221537   5.017   4.141   4.492
 6953SOL     OW21538   0.002   3.949   4.604
 6953SOL    HW121539   5.236   3.938   4.672
 6953SOL    HW221540   5.276   4.029   4.559
 6954SOL     OW21541   3.766   4.795   4.031
 6954SOL    HW121542   3.860   4.788   4.014
 6954SOL    HW221543   3.739   4.705   4.053
 6955SOL     OW21544   3.953   4.347   5.709
 6955SOL    HW121545   3.864   4.346   5.743
 6955SOL    HW221546   3.944   4.322   5.617
 6956SOL     OW21547   3.949   4.005   6.578
 6956SOL    HW121548   3.977   3.971   6.662
 6956SOL    HW221549   3.859   3.973   6.568
 6957SOL     OW21550   3.728   4.107   6.224
 6957SOL    HW121551   3.645   4.132   6.265
 6957SOL    HW221552   3.707   4.027   6.175
 6958SOL     OW21553   4.290   5.005   6.765
 6958SOL    HW121554   4.205   5.004   6.721
 6958SOL    HW221555   4.302   5.096   6.791
 6959SOL     OW21556   5.275   5.232   6.279
 6959SOL    HW121557   5.265   5.216   6.373
 6959SOL    HW221558   5.186   5.231   6.245
 6960SOL     OW21559   4.858   4.423   6.286
 6960SOL    HW121560   4.908   4.504   6.276
 6960SOL    HW221561   4.809   4.435   6.368
 6961SOL     OW21562   4.480   4.868   6.624
 6961SOL    HW121563   4.412   4.900   6.684
 6961SOL    HW221564   4.510   4.947   6.578
 6962SOL     OW21565   4.592   4.501   7.407
 6962SOL    HW121566   4.569   4.575   7.463
 6962SOL    HW221567   4.616   4.540   7.323
 6963SOL     OW21568   4.410   4.726   6.234
 6963SOL    HW121569   4.475   4.716   6.304
 6963SOL    HW221570   4.341   4.780   6.274
 6964SOL     OW21571   4.433   4.874   7.398
 6964SOL    HW121572   4.481   4.953   7.421
 6964SOL    HW221573   4.350   4.906   7.362
 6965SOL     OW21574   4.061   5.151   6.646
 6965SOL    HW121575   3.984   5.107   6.610
 6965SOL    HW221576   4.101   5.194   6.571
 6966SOL     OW21577   5.130   5.237   6.927
 6966SOL    HW121578   5.149   0.008   6.988
 6966SOL    HW221579   5.108   5.162   6.982
 6967SOL     OW21580   4.173   4.123   7.074
 6967SOL    HW121581   4.248   4.063   7.079
 6967SOL    HW221582   4.097   4.066   7.087
 6968SOL     OW21583   4.864   5.051   7.284
 6968SOL    HW121584   4.888   5.064   7.376
 6968SOL    HW221585   4.803   4.977   7.286
 6969SOL     OW21586   3.934   5.156   6.106
 6969SOL    HW121587   3.960   5.238   6.148
 6969SOL    HW221588   3.882   5.110   6.173
 6970SOL     OW21589   3.982   4.811   6.478
 6970SOL    HW121590   3.979   4.724   6.517
 6970SOL    HW221591   3.924   4.864   6.533
 6971SOL     OW21592   4.310   4.705   5.720
 6971SOL    HW121593   4.356   4.755   5.652
 6971SOL    HW221594   4.348   4.735   5.802
 6972SOL     OW21595   3.839   4.376   6.145
 6972SOL    HW121596   3.810   4.288   6.167
 6972SOL    HW221597   3.831   4.425   6.228
 6973SOL     OW21598   3.710   0.014   5.685
 6973SOL    HW121599   3.726   5.224   5.715
 6973SOL    HW221600   3.732   0.069   5.759
 6974SOL     OW21601   0.112   4.658   6.153
 6974SOL    HW121602   0.199   4.626   6.176
 6974SOL    HW221603   0.127   4.749   6.125
 6975SOL     OW21604   3.847   4.466   7.172
 6975SOL    HW121605   3.939   4.492   7.180
 6975SOL    HW221606   3.798   4.548   7.180
 6976SOL     OW21607   4.346   5.098   6.322
 6976SOL    HW121608   4.292   5.019   6.321
 6976SOL    HW221609   4.327   5.141   6.239
 6977SOL     OW21610   5.020   4.971   7.006
 6977SOL    HW121611   5.048   4.899   6.949
 6977SOL    HW221612   5.067   4.956   7.088
 6978SOL     OW21613   4.538   3.724   6.094
 6978SOL    HW121614   4.579   3.809   6.075
 6978SOL    HW221615   4.445   3.744   6.104
 6979SOL     OW21616   3.914   4.690   6.856
 6979SOL    HW121617   3.999   4.647   6.841
 6979SOL    HW221618   3.851   4.635   6.809
 6980SOL     OW21619   4.056   3.973   7.398
 6980SOL    HW121620   4.101   4.056   7.412
 6980SOL    HW221621   3.967   3.988   7.429
 6981SOL     OW21622   5.178   5.153   6.537
 6981SOL    HW121623   5.110   5.162   6.604
 6981SOL    HW221624   5.164   5.066   6.501
 6982SOL     OW21625   0.045   0.163   6.151
 6982SOL    HW121626   0.087   0.124   6.074
 6982SOL    HW221627   0.035   0.091   6.213
 6983SOL     OW21628   4.320   4.445   5.852
 6983SOL    HW121629   4.326   4.527   5.802
 6983SOL    HW221630   4.255   4.464   5.920
 6984SOL     OW21631   4.996   4.061   6.506
 6984SOL    HW121632   4.907   4.031   6.527
 6984SOL    HW221633   5.051   4.026   6.576
 6985SOL     OW21634   4.514   4.342   7.037
 6985SOL    HW121635   4.489   4.318   7.126
 6985SOL    HW221636   4.475   4.275   6.982
 6986SOL     OW21637   5.115   4.205   7.266
 6986SOL    HW121638   5.116   4.242   7.354
 6986SOL    HW221639   5.191   4.146   7.264
 6987SOL     OW21640   4.678   4.612   7.168
 6987SOL    HW121641   4.731   4.540   7.132
 6987SOL    HW221642   4.630   4.646   7.092
 6988SOL     OW21643   4.715   4.137   6.824
 6988SOL    HW121644   4.629   4.158   6.861
 6988SOL    HW221645   4.696   4.090   6.743
 6989SOL     OW21646   4.775   4.422   6.011
 6989SOL    HW121647   4.790   4.416   6.106
 6989SOL    HW221648   4.692   4.376   5.998
 6990SOL     OW21649   3.812   4.545   6.362
 6990SOL    HW121650   3.893   4.538   6.413
 6990SOL    HW221651   3.769   4.622   6.397
 6991SOL     OW21652   4.617   4.071   5.780
 6991SOL    HW121653   4.657   4.133   5.718
 6991SOL    HW221654   4.633   3.985   5.742
 6992SOL     OW21655   5.092   4.868   6.132
 6992SOL    HW121656   5.182   4.868   6.099
 6992SOL    HW221657   5.045   4.928   6.074
 6993SOL     OW21658   4.274   3.906   6.479
 6993SOL    HW121659   4.276   3.934   6.570
 6993SOL    HW221660   4.275   3.987   6.428
 6994SOL     OW21661   4.745   5.168   6.056
 6994SOL    HW121662   4.668   5.224   6.048
 6994SOL    HW221663   4.761   5.161   6.150
 6995SOL     OW21664   4.940   5.260   7.141
 6995SOL    HW121665   4.916   5.178   7.183
 6995SOL    HW221666   4.901   5.255   7.054
 6996SOL     OW21667   4.044   4.680   5.836
 6996SOL    HW121668   4.127   4.700   5.791
 6996SOL    HW221669   4.014   4.599   5.796
 6997SOL     OW21670   4.187   4.986   7.328
 6997SOL    HW121671   4.160   4.989   7.236
 6997SOL    HW221672   4.105   4.986   7.377
 6998SOL     OW21673   4.790   0.173   5.797
 6998SOL    HW121674   4.803   0.117   5.874
 6998SOL    HW221675   4.867   0.157   5.742
 6999SOL     OW21676   3.925   4.005   7.087
 6999SOL    HW121677   3.842   4.054   7.082
 6999SOL    HW221678   3.907   3.934   7.149
 7000SOL     OW21679   5.121   3.831   6.010
 7000SOL    HW121680   5.101   3.813   5.918
 7000SOL    HW221681   5.215   3.847   6.012
 7001SOL     OW21682   4.117   4.419   6.062
 7001SOL    HW121683   4.137   4.326   6.074
 7001SOL    HW221684   4.023   4.425   6.080
 7002SOL     OW21685   4.359   3.846   5.692
 7002SOL    HW121686   4.429   3.783   5.703
 7002SOL    HW221687   4.310   3.815   5.615
 7003SOL     OW21688   4.489   4.001   7.340
 7003SOL    HW121689   4.566   3.944   7.341
 7003SOL    HW221690   4.445   3.985   7.423
 7004SOL     OW21691   5.058   4.316   7.018
 7004SOL    HW121692   5.090   4.284   7.102
 7004SOL    HW221693   5.100   4.401   7.006
 7005SOL     OW21694   4.536   5.119   6.522
 7005SOL    HW121695   4.617   5.106   6.472
 7005SOL    HW221696   4.468   5.126   6.455
 7006SOL     OW21697   4.651   4.233   6.489
 7006SOL    HW121698   4.628   4.224   6.396
 7006SOL    HW221699   4.683   4.146   6.514
 7007SOL     OW21700   4.273   3.787   6.088
 7007SOL    HW121701   4.192   3.788   6.140
 7007SOL    HW221702   4.267   3.865   6.034
 7008SOL     OW21703   5.136   4.904   5.629
 7008SOL    HW121704   5.144   4.825   5.683
 7008SOL    HW221705   5.047   4.936   5.645
 7009SOL     OW21706   4.016   3.771   5.770
 7009SOL    HW121707   4.075   3.836   5.731
 7009SOL    HW221708   4.074   3.708   5.812
 7010SOL     OW21709   4.661   3.970   6.046
 7010SOL    HW121710   4.634   4.011   5.964
 7010SOL    HW221711   4.756   3.983   6.049
 7011SOL     OW21712   4.801   4.405   7.047
 7011SOL    HW121713   4.734   4.337   7.049
 7011SOL    HW221714   4.884   4.357   7.037
 7012SOL     OW21715   4.984   5.266   6.357
 7012SOL    HW121716   4.948   0.052   6.336
 7012SOL    HW221717   5.037   5.280   6.435
 7013SOL     OW21718   4.190   4.872   6.317
 7013SOL    HW121719   4.121   4.852   6.380
 7013SOL    HW221720   4.149   4.854   6.232
 7014SOL     OW21721   4.748   4.268   5.608
 7014SOL    HW121722   4.704   4.350   5.587
 7014SOL    HW221723   4.809   4.290   5.678
 7015SOL     OW21724   3.803   4.279   6.978
 7015SOL    HW121725   3.895   4.277   6.951
 7015SOL    HW221726   3.798   4.349   7.043
 7016SOL     OW21727   4.283   3.951   6.752
 7016SOL    HW121728   4.325   3.875   6.792
 7016SOL    HW221729   4.193   3.947   6.782
 7017SOL     OW21730   4.592   4.183   6.225
 7017SOL    HW121731   4.546   4.238   6.162
 7017SOL    HW221732   4.613   4.103   6.177
 7018SOL     OW21733   4.739   3.777   6.338
 7018SOL    HW121734   4.681   3.770   6.262
 7018SOL    HW221735   4.717   3.701   6.392
 7019SOL     OW21736   5.152   4.901   6.436
 7019SOL    HW121737   5.100   4.822   6.446
 7019SOL    HW221738   5.170   4.906   6.342
 7020SOL     OW21739   4.204   5.146   5.740
 7020SOL    HW121740   4.142   5.094   5.791
 7020SOL    HW221741   4.206   5.104   5.654
 7021SOL     OW21742   5.127   4.286   5.666
 7021SOL    HW121743   5.055   4.276   5.728
 7021SOL    HW221744   5.203   4.248   5.711
 7022SOL     OW21745   4.249   3.987   5.904
 7022SOL    HW121746   4.294   3.939   5.834
 7022SOL    HW221747   4.227   4.071   5.866
 7023SOL     OW21748   4.787   5.074   6.916
 7023SOL    HW121749   4.709   5.049   6.966
 7023SOL    HW221750   4.860   5.036   6.965
 7024SOL     OW21751   4.848   4.923   6.695
 7024SOL    HW121752   4.797   4.965   6.764
 7024SOL    HW221753   4.805   4.950   6.613
 7025SOL     OW21754   4.641   3.822   6.982
 7025SOL    HW121755   4.664   3.803   6.891
 7025SOL    HW221756   4.721   3.860   7.019
 7026SOL     OW21757   4.706   4.832   7.318
 7026SOL    HW121758   4.614   4.853   7.332
 7026SOL    HW221759   4.705   4.758   7.257
 7027SOL     OW21760   4.428   4.782   5.958
 7027SOL    HW121761   4.416   4.766   6.052
 7027SOL    HW221762   4.506   4.731   5.935
 7028SOL     OW21763   4.142   4.539   6.837
 7028SOL    HW121764   4.211   4.548   6.904
 7028SOL    HW221765   4.108   4.451   6.851
 7029SOL     OW21766   4.989   4.100   6.862
 7029SOL    HW121767   5.023   4.179   6.903
 7029SOL    HW221768   4.899   4.123   6.837
 7030SOL     OW21769   4.071   4.832   6.075
 7030SOL    HW121770   4.074   4.905   6.014
 7030SOL    HW221771   4.071   4.754   6.020
 7031SOL     OW21772   4.277   4.261   6.446
 7031SOL    HW121773   4.292   4.319   6.371
 7031SOL    HW221774   4.342   4.287   6.511
 7032SOL     OW21775   4.985   5.077   5.973
 7032SOL    HW121776   5.037   5.152   6.000
 7032SOL    HW221777   4.896   5.099   6.001
 7033SOL     OW21778   4.978   5.181   6.717
 7033SOL    HW121779   5.033   5.204   6.792
 7033SOL    HW221780   4.940   5.096   6.740
 7034SOL     OW21781   4.072   5.236   6.901
 7034SOL    HW121782   4.061   5.201   6.812
 7034SOL    HW221783   4.166   5.257   6.907
 7035SOL     OW21784   4.138   4.469   7.188
 7035SOL    HW121785   4.200   4.514   7.130
 7035SOL    HW221786   4.177   4.383   7.203
 7036SOL     OW21787   4.718   3.849   7.341
 7036SOL    HW121788   4.775   3.920   7.313
 7036SOL    HW221789   4.766   3.769   7.316
 7037SOL     OW21790   4.222   3.765   7.333
 7037SOL    HW121791   4.180   3.710   7.267
 7037SOL    HW221792   4.163   3.839   7.345
 7038SOL     OW21793   4.307   4.596   6.617
 7038SOL    HW121794   4.337   4.687   6.615
 7038SOL    HW221795   4.251   4.591   6.694
 7039SOL     OW21796   5.086   4.581   6.622
 7039SOL    HW121797   5.009   4.562   6.568
 7039SOL    HW221798   5.138   4.500   6.618
 7040SOL     OW21799   4.928   4.255   5.851
 7040SOL    HW121800   4.935   4.175   5.903
 7040SOL    HW221801   4.885   4.318   5.908
 7041SOL     OW21802   4.023   3.923   6.833
 7041SOL    HW121803   3.986   3.955   6.914
 7041SOL    HW221804   4.004   3.829   6.833
 7042SOL     OW21805   3.776   5.046   6.870
 7042SOL    HW121806   3.801   4.982   6.937
 7042SOL    HW221807   3.812   5.129   6.903
 7043SOL     OW21808   4.448   4.355   6.644
 7043SOL    HW121809   4.523   4.339   6.587
 7043SOL    HW221810   4.420   4.444   6.623
 7044SOL     OW21811   4.026   3.788   6.209
 7044SOL    HW121812   4.007   3.879   6.232
 7044SOL    HW221813   4.034   3.743   6.293
 7045SOL     OW21814   0.035   4.118   5.945
 7045SOL    HW121815   0.054   4.043   6.002
 7045SOL    HW221816   0.018   4.190   6.006
 7046SOL     OW21817   4.751   4.483   6.546
 7046SOL    HW121818   4.749   4.501   6.640
 7046SOL    HW221819   4.725   4.391   6.539
 7047SOL     OW21820   4.077   4.639   7.396
 7047SOL    HW121821   4.160   4.659   7.439
 7047SOL    HW221822   4.101   4.577   7.326
 7048SOL     OW21823   5.027   4.553   5.622
 7048SOL    HW121824   5.065   4.465   5.624
 7048SOL    HW221825   5.054   4.588   5.538
 7049SOL     OW21826   4.781   5.079   6.413
 7049SOL    HW121827   4.787   4.994   6.369
 7049SOL    HW221828   4.866   5.119   6.398
 7050SOL     OW21829   4.033   4.533   6.533
 7050SOL    HW121830   4.126   4.554   6.527
 7050SOL    HW221831   4.031   4.443   6.566
 7051SOL     OW21832   4.055   4.250   6.598
 7051SOL    HW121833   4.020   4.162   6.583
 7051SOL    HW221834   4.132   4.255   6.541
 7052SOL     OW21835   4.857   4.100   7.266
 7052SOL    HW121836   4.809   4.155   7.328
 7052SOL    HW221837   4.944   4.140   7.260
 7053SOL     OW21838   4.885   3.926   7.054
 7053SOL    HW121839   4.874   3.988   7.126
 7053SOL    HW221840   4.924   3.978   6.984
 7054SOL     OW21841   3.730   5.041   5.776
 7054SOL    HW121842   3.640   5.058   5.750
 7054SOL    HW221843   3.728   4.953   5.814
 7055SOL     OW21844   4.706   4.516   6.813
 7055SOL    HW121845   4.763   4.493   6.887
 7055SOL    HW221846   4.621   4.478   6.834
 7056SOL     OW21847   3.760   4.269   6.702
 7056SOL    HW121848   3.840   4.255   6.653
 7056SOL    HW221849   3.788   4.272   6.794
 7057SOL     OW21850   3.916   4.243   7.313
 7057SOL    HW121851   3.971   4.204   7.246
 7057SOL    HW221852   3.873   4.316   7.270
 7058SOL     OW21853   5.111   4.662   7.253
 7058SOL    HW121854   5.119   4.757   7.240
 7058SOL    HW221855   5.114   4.626   7.164
 7059SOL     OW21856   4.540   4.293   5.945
 7059SOL    HW121857   4.543   4.218   5.885
 7059SOL    HW221858   4.466   4.345   5.914
 7060SOL     OW21859   3.930   5.275   7.329
 7060SOL    HW121860   3.901   0.026   7.405
 7060SOL    HW221861   3.943   5.187   7.363
 7061SOL     OW21862   4.424   4.175   6.846
 7061SOL    HW121863   4.372   4.100   6.815
 7061SOL    HW221864   4.421   4.237   6.773
 7062SOL     OW21865   4.188   4.216   5.773
 7062SOL    HW121866   4.247   4.289   5.795
 7062SOL    HW221867   4.103   4.257   5.761
 7063SOL     OW21868   3.869   4.863   7.057
 7063SOL    HW121869   3.871   4.811   7.138
 7063SOL    HW221870   3.887   4.799   6.987
 7064SOL     OW21871   5.050   4.770   6.813
 7064SOL    HW121872   5.075   4.708   6.744
 7064SOL    HW221873   4.980   4.822   6.775
 7065SOL     OW21874   5.033   4.584   5.902
 7065SOL    HW121875   4.952   4.550   5.939
 7065SOL    HW221876   5.023   4.575   5.808
 7066SOL     OW21877   3.817   4.987   6.607
 7066SOL    HW121878   3.796   5.004   6.699
 7066SOL    HW221879   3.738   4.948   6.571
 7067SOL     OW21880   4.469   0.031   7.300
 7067SOL    HW121881   4.377   0.060   7.302
 7067SOL    HW221882   4.503   0.066   7.218
 7068SOL     OW21883   0.081   3.884   6.116
 7068SOL    HW121884   0.165   3.870   6.072
 7068SOL    HW221885   0.068   3.804   6.167
 7069SOL     OW21886   5.016   4.643   6.259
 7069SOL    HW121887   5.094   4.588   6.246
 7069SOL    HW221888   5.035   4.723   6.209
 7070SOL     OW21889   4.543   4.993   7.008
 7070SOL    HW121890   4.513   5.029   7.091
 7070SOL    HW221891   4.469   5.004   6.949
 7071SOL     OW21892   3.986   4.040   6.303
 7071SOL    HW121893   3.901   4.076   6.279
 7071SOL    HW221894   3.983   4.032   6.398
 7072SOL     OW21895   4.549   4.728   6.956
 7072SOL    HW121896   4.595   4.721   6.873
 7072SOL    HW221897   4.552   4.821   6.978
 7073SOL     OW21898   4.640   4.635   5.877
 7073SOL    HW121899   4.702   4.668   5.811
 7073SOL    HW221900   4.687   4.565   5.921
 7074SOL     OW21901   4.089   5.026   7.083
 7074SOL    HW121902   4.079   5.100   7.023
 7074SOL    HW221903   4.013   4.970   7.065
 7075SOL     OW21904   4.777   4.833   6.297
 7075SOL    HW121905   4.706   4.782   6.335
 7075SOL    HW221906   4.835   4.768   6.258
 7076SOL     OW21907   4.739   3.963   6.554
 7076SOL    HW121908   4.737   3.916   6.471
 7076SOL    HW221909   4.736   3.895   6.621
 7077SOL     OW21910   3.982   5.052   5.868
 7077SOL    HW121911   3.890   5.054   5.842
 7077SOL    HW221912   3.983   5.095   5.954
 7078SOL     OW21913   3.837   4.746   7.305
 7078SOL    HW121914   3.760   4.723   7.357
 7078SOL    HW221915   3.911   4.708   7.352
 7079SOL     OW21916   4.398   3.920   7.085
 7079SOL    HW121917   4.482   3.900   7.044
 7079SOL    HW221918   4.421   3.950   7.173
 7080SOL     OW21919   3.802   4.058   5.621
 7080SOL    HW121920   3.715   4.039   5.587
 7080SOL    HW221921   3.832   4.133   5.570
 7081SOL     OW21922   5.164   4.584   6.990
 7081SOL    HW121923   5.111   4.641   6.934
 7081SOL    HW221924   5.252   4.591   6.955
 7082SOL     OW21925   3.792   3.880   5.896
 7082SOL    HW121926   3.778   3.960   5.846
 7082SOL    HW221927   3.877   3.848   5.867
 7083SOL     OW21928   4.909   5.059   5.707
 7083SOL    HW121929   4.815   5.041   5.705
 7083SOL    HW221930   4.933   5.055   5.799
 7084SOL     OW21931   4.343   4.555   7.019
 7084SOL    HW121932   4.399   4.631   7.003
 7084SOL    HW221933   4.403   4.481   7.028
 7085SOL     OW21934   4.442   4.287   7.291
 7085SOL    HW121935   4.481   4.348   7.353
 7085SOL    HW221936   4.469   4.200   7.322
 7086SOL     OW21937   5.184   4.927   7.218
 7086SOL    HW121938   5.173   4.939   7.312
 7086SOL    HW221939   5.278   4.932   7.204
 7087SOL     OW21940   4.940   4.044   6.042
 7087SOL    HW121941   5.002   3.972   6.029
 7087SOL    HW221942   4.970   4.088   6.121
 7088SOL     OW21943   4.314   4.462   6.255
 7088SOL    HW121944   4.353   4.548   6.241
 7088SOL    HW221945   4.246   4.454   6.188
 7089SOL     OW21946   4.580   5.095   5.606
 7089SOL    HW121947   4.557   5.098   5.698
 7089SOL    HW221948   4.589   5.187   5.580
 7090SOL     OW21949   4.592   4.691   6.441
 7090SOL    HW121950   4.642   4.620   6.481
 7090SOL    HW221951   4.557   4.741   6.516
 7091SOL     OW21952   4.808   4.712   5.678
 7091SOL    HW121953   4.781   4.760   5.600
 7091SOL    HW221954   4.882   4.658   5.649
 7092SOL     OW21955   3.946   5.024   7.442
 7092SOL    HW121956   3.880   4.961   7.412
 7092SOL    HW221957   3.926   5.037   7.534
 7093SOL     OW21958   3.810   4.955   6.256
 7093SOL    HW121959   3.809   4.903   6.336
 7093SOL    HW221960   3.874   4.913   6.199
 7094SOL     OW21961   4.394   5.103   7.195
 7094SOL    HW121962   4.317   5.073   7.243
 7094SOL    HW221963   4.425   5.179   7.244
 7095SOL     OW21964   4.153   4.158   6.111
 7095SOL    HW121965   4.183   4.087   6.054
 7095SOL    HW221966   4.105   4.114   6.182
 7096SOL     OW21967   0.123   5.229   6.637
 7096SOL    HW121968   0.038   5.205   6.599
 7096SOL    HW221969   0.106   5.235   6.731
 7097SOL     OW21970   4.054   4.279   6.878
 7097SOL    HW121971   4.110   4.224   6.933
 7097SOL    HW221972   4.073   4.251   6.788
 7098SOL     OW21973   5.147   3.943   6.701
 7098SOL    HW121974   5.192   3.878   6.755
 7098SOL    HW221975   5.101   3.998   6.764
 7099SOL     OW21976   4.730   3.743   6.728
 7099SOL    HW121977   4.677   3.674   6.688
 7099SOL    HW221978   4.818   3.705   6.733
 7100SOL     OW21979   4.526   5.046   5.870
 7100SOL    HW121980   4.465   4.975   5.890
 7100SOL    HW221981   4.581   5.053   5.948
 7101SOL     OW21982   4.346   5.299   6.877
 7101SOL    HW121983   4.353   0.054   6.956
 7101SOL    HW221984   4.437   5.280   6.853
 7102SOL     OW21985   5.058   3.770   5.753
 7102SOL    HW121986   5.082   3.729   5.670
 7102SOL    HW221987   4.973   3.732   5.775
 7103SOL     OW21988   5.028   4.182   6.268
 7103SOL    HW121989   4.973   4.261   6.272
 7103SOL    HW221990   5.017   4.141   6.354
 7104SOL     OW21991   0.002   3.949   6.466
 7104SOL    HW121992   5.236   3.938   6.534
 7104SOL    HW221993   5.276   4.029   6.421
 7105SOL     OW21994   3.766   4.795   5.893
 7105SOL    HW121995   3.860   4.788   5.876
 7105SOL    HW221996   3.740   4.705   5.915
 7106SOL     OW21997   3.953   4.343   7.572
 7106SOL    HW121998   3.862   4.350   7.602
 7106SOL    HW221999   3.945   4.320   7.479
 7107SOL     OW22000   4.001   0.125   7.957
 7107SOL    HW122001   3.975   0.211   7.992
 7107SOL    HW222002   4.007   0.139   7.863
 7108SOL     OW22003   3.941   5.156   7.990
 7108SOL    HW122004   3.954   5.251   7.997
 7108SOL    HW222005   3.883   5.134   8.063
 7109SOL     OW22006   4.310   4.705   7.579
 7109SOL    HW122007   4.355   4.756   7.511
 7109SOL    HW222008   4.348   4.736   7.661
 7110SOL     OW22009   3.723   0.010   7.538
 7110SOL    HW122010   3.727   5.221   7.574
 7110SOL    HW222011   3.723   0.067   7.615
 7111SOL     OW22012   0.118   4.650   8.013
 7111SOL    HW122013   0.210   4.638   8.039
 7111SOL    HW222014   0.109   4.744   7.998
 7112SOL     OW22015   4.525   3.718   7.938
 7112SOL    HW122016   4.575   3.798   7.922
 7112SOL    HW222017   4.434   3.747   7.947
 7113SOL     OW22018   4.315   4.449   7.709
 7113SOL    HW122019   4.319   4.531   7.659
 7113SOL    HW222020   4.255   4.467   7.781
 7114SOL     OW22021   3.784   4.586   0.090
 7114SOL    HW122022   3.849   4.522   0.118
 7114SOL    HW222023   3.779   4.649   0.162
 7115SOL     OW22024   4.606   4.069   7.639
 7115SOL    HW122025   4.650   4.128   7.577
 7115SOL    HW222026   4.638   3.982   7.615
 7116SOL     OW22027   4.047   4.680   7.697
 7116SOL    HW122028   4.127   4.697   7.648
 7116SOL    HW222029   4.011   4.601   7.656
 7117SOL     OW22030   4.795   0.183   7.648
 7117SOL    HW122031   4.791   0.139   7.733
 7117SOL    HW222032   4.877   0.152   7.609
 7118SOL     OW22033   5.132   3.849   7.857
 7118SOL    HW122034   5.096   3.826   7.772
 7118SOL    HW222035   5.227   3.850   7.844
 7119SOL     OW22036   4.115   4.422   7.918
 7119SOL    HW122037   4.119   4.327   7.926
 7119SOL    HW222038   4.024   4.444   7.937
 7120SOL     OW22039   4.353   3.844   7.559
 7120SOL    HW122040   4.428   3.786   7.569
 7120SOL    HW222041   4.309   3.813   7.480
 7121SOL     OW22042   4.256   3.797   7.959
 7121SOL    HW122043   4.171   3.802   8.002
 7121SOL    HW222044   4.254   3.869   7.895
 7122SOL     OW22045   5.138   4.906   7.490
 7122SOL    HW122046   5.149   4.830   7.547
 7122SOL    HW222047   5.049   4.936   7.508
 7123SOL     OW22048   4.017   3.773   7.633
 7123SOL    HW122049   4.075   3.834   7.588
 7123SOL    HW222050   4.075   3.708   7.672
 7124SOL     OW22051   4.666   3.950   7.911
 7124SOL    HW122052   4.624   4.014   7.853
 7124SOL    HW222053   4.758   3.978   7.913
 7125SOL     OW22054   4.165   4.874   0.099
 7125SOL    HW122055   4.089   4.910   0.146
 7125SOL    HW222056   4.133   4.860   0.010
 7126SOL     OW22057   4.751   4.269   7.465
 7126SOL    HW122058   4.704   4.350   7.448
 7126SOL    HW222059   4.805   4.288   7.543
 7127SOL     OW22060   4.197   5.150   7.602
 7127SOL    HW122061   4.139   5.096   7.656
 7127SOL    HW222062   4.203   5.102   7.519
 7128SOL     OW22063   5.127   4.285   7.529
 7128SOL    HW122064   5.053   4.276   7.589
 7128SOL    HW222065   5.201   4.245   7.576
 7129SOL     OW22066   4.250   3.990   7.770
 7129SOL    HW122067   4.294   3.940   7.702
 7129SOL    HW222068   4.227   4.073   7.729
 7130SOL     OW22069   4.432   4.781   7.812
 7130SOL    HW122070   4.409   4.770   7.905
 7130SOL    HW222071   4.513   4.732   7.801
 7131SOL     OW22072   4.089   4.826   7.927
 7131SOL    HW122073   4.067   4.905   7.878
 7131SOL    HW222074   4.076   4.755   7.864
 7132SOL     OW22075   4.954   5.103   7.832
 7132SOL    HW122076   5.034   5.128   7.878
 7132SOL    HW222077   4.901   5.059   7.898
 7133SOL     OW22078   0.036   4.372   7.924
 7133SOL    HW122079   5.279   4.391   7.999
 7133SOL    HW222080   0.040   4.455   7.876
 7134SOL     OW22081   4.927   4.254   7.714
 7134SOL    HW122082   4.932   4.169   7.759
 7134SOL    HW222083   4.895   4.315   7.780
 7135SOL     OW22084   0.026   4.126   7.807
 7135SOL    HW122085   0.038   4.057   7.873
 7135SOL    HW222086   0.022   4.207   7.857
 7136SOL     OW22087   5.034   4.556   7.489
 7136SOL    HW122088   5.065   4.465   7.487
 7136SOL    HW222089   5.057   4.591   7.403
 7137SOL     OW22090   3.732   5.045   7.640
 7137SOL    HW122091   3.642   5.058   7.610
 7137SOL    HW222092   3.733   4.956   7.675
 7138SOL     OW22093   4.564   4.325   7.758
 7138SOL    HW122094   4.555   4.233   7.734
 7138SOL    HW222095   4.474   4.358   7.761
 7139SOL     OW22096   4.186   4.217   7.642
 7139SOL    HW122097   4.245   4.291   7.657
 7139SOL    HW222098   4.101   4.257   7.623
 7140SOL     OW22099   5.033   4.574   7.772
 7140SOL    HW122100   4.939   4.583   7.791
 7140SOL    HW222101   5.037   4.571   7.676
 7141SOL     OW22102   0.181   3.866   7.990
 7141SOL    HW122103   0.158   3.849   7.899
 7141SOL    HW222104   0.138   3.797   8.040
 7142SOL     OW22105   4.655   4.633   7.760
 7142SOL    HW122106   4.706   4.659   7.682
 7142SOL    HW222107   4.644   4.539   7.751
 7143SOL     OW22108   3.982   5.058   7.745
 7143SOL    HW122109   3.890   5.061   7.717
 7143SOL    HW222110   3.981   5.097   7.833
 7144SOL     OW22111   3.802   4.057   7.483
 7144SOL    HW122112   3.715   4.038   7.448
 7144SOL    HW222113   3.832   4.133   7.433
 7145SOL     OW22114   3.794   3.881   7.758
 7145SOL    HW122115   3.778   3.957   7.703
 7145SOL    HW222116   3.877   3.846   7.726
 7146SOL     OW22117   4.908   5.055   7.567
 7146SOL    HW122118   4.814   5.040   7.560
 7146SOL    HW222119   4.923   5.067   7.660
 7147SOL     OW22120   4.939   4.044   7.901
 7147SOL    HW122121   5.010   3.981   7.890
 7147SOL    HW222122   4.956   4.087   7.984
 7148SOL     OW22123   4.350   4.459   8.055
 7148SOL    HW122124   4.355   4.541   0.024
 7148SOL    HW222125   4.262   4.459   8.016
 7149SOL     OW22126   4.583   5.094   7.466
 7149SOL    HW122127   4.560   5.097   7.559
 7149SOL    HW222128   4.588   5.186   7.440
 7150SOL     OW22129   4.803   4.703   7.541
 7150SOL    HW122130   4.777   4.756   7.466
 7150SOL    HW222131   4.880   4.655   7.511
 7151SOL     OW22132   4.111   4.150   7.982
 7151SOL    HW122133   4.162   4.099   7.919
 7151SOL    HW222134   4.161   4.144   8.064
 7152SOL     OW22135   4.529   5.047   7.730
 7152SOL    HW122136   4.472   4.973   7.750
 7152SOL    HW222137   4.548   5.086   7.815
 7153SOL     OW22138   5.061   3.769   7.611
 7153SOL    HW122139   5.082   3.724   7.529
 7153SOL    HW222140   4.977   3.732   7.638
 7154SOL     OW22141   3.774   4.801   7.751
 7154SOL    HW122142   3.868   4.793   7.738
 7154SOL    HW222143   3.744   4.712   7.766
   5.30000   5.30000   8.08000
