Built with Packmol
21960
    1LIG      O    1   2.227   2.220   0.053
    1LIG      C    2   2.292   2.270   0.173
    1LIG     C1    3   2.221   2.217   0.301
    1LIG     O1    4   2.285   2.267   0.423
    1LIG     C2    5   2.220   2.218   0.544
    1LIG     C3    6   2.291   2.273   0.670
    1LIG     O2    7   2.227   2.225   0.791
    1LIG     C4    8   2.290   2.275   0.912
    1LIG     C5    9   2.218   2.221   1.038
    1LIG     O3   10   2.281   2.270   1.160
    1LIG     C6   11   2.216   2.221   1.280
    1LIG     C7   12   2.288   2.277   1.406
    1LIG     O4   13   2.224   2.229   1.528
    1LIG     C8   14   2.288   2.279   1.649
    1LIG     C9   15   2.215   2.223   1.774
    1LIG     O5   16   2.278   2.273   1.895
    1LIG    C10   17   2.214   2.224   2.016
    1LIG    C11   18   2.287   2.280   2.142
    1LIG     O6   19   2.223   2.231   2.263
    1LIG    C12   20   2.286   2.280   2.384
    1LIG    C13   21   2.213   2.225   2.509
    1LIG     O7   22   2.277   2.274   2.631
    1LIG    C14   23   2.213   2.225   2.752
    1LIG    C15   24   2.285   2.280   2.878
    1LIG     O8   25   2.221   2.232   3.000
    1LIG    C16   26   2.285   2.281   3.121
    1LIG    C17   27   2.214   2.226   3.247
    1LIG     O9   28   2.277   2.275   3.369
    1LIG    C18   29   2.212   2.226   3.489
    1LIG    C19   30   2.284   2.281   3.614
    1LIG    O10   31   2.220   2.232   3.736
    1LIG    C20   32   2.284   2.282   3.857
    1LIG    C21   33   2.212   2.226   3.982
    1LIG    O11   34   2.276   2.275   4.103
    1LIG    C22   35   2.212   2.226   4.224
    1LIG    C23   36   2.284   2.282   4.350
    1LIG    O12   37   2.220   2.233   4.471
    1LIG    C24   38   2.284   2.282   4.593
    1LIG    C25   39   2.212   2.227   4.719
    1LIG    O13   40   2.275   2.276   4.841
    1LIG    C26   41   2.211   2.227   4.961
    1LIG    C27   42   2.283   2.282   5.086
    1LIG    O14   43   2.219   2.233   5.208
    1LIG    C28   44   2.284   2.282   5.329
    1LIG    C29   45   2.212   2.226   5.455
    1LIG    O15   46   2.276   2.276   5.577
    1LIG    C30   47   2.212   2.226   5.697
    1LIG    C31   48   2.284   2.281   5.822
    1LIG    O16   49   2.220   2.232   5.943
    1LIG    C32   50   2.284   2.281   6.065
    1LIG    C33   51   2.212   2.226   6.191
    1LIG    O17   52   2.276   2.275   6.312
    1LIG    C34   53   2.212   2.225   6.433
    1LIG    C35   54   2.283   2.280   6.559
    1LIG    O18   55   2.220   2.231   6.680
    1LIG    C36   56   2.284   2.281   6.801
    1LIG    C37   57   2.213   2.225   6.927
    1LIG    O19   58   2.277   2.274   7.049
    1LIG    C38   59   2.213   2.224   7.169
    1LIG    C39   60   2.284   2.279   7.295
    1LIG    O20   61   2.221   2.230   7.417
    1LIG    C40   62   2.285   2.279   7.538
    1LIG    C41   63   2.214   2.224   7.664
    1LIG    O21   64   2.277   2.273   7.786
    1LIG    C42   65   2.213   2.223   7.906
    1LIG    C43   66   2.285   2.278   8.031
    1LIG    O22   67   2.222   2.229   8.153
    1LIG    C44   68   2.286   2.278   8.274
    1LIG    C45   69   2.214   2.222   8.399
    1LIG    O23   70   2.277   2.271   8.521
    1LIG    C46   71   2.214   2.222   8.642
    1LIG    C47   72   2.286   2.278   8.767
    1LIG    O24   73   2.223   2.228   8.888
    1LIG    C48   74   2.286   2.277   9.010
    1LIG    C49   75   2.214   2.221   9.135
    1LIG    O25   76   2.278   2.270   9.256
    1LIG    C50   77   2.215   2.221   9.378
    1LIG    C51   78   2.287   2.277   9.503
    1LIG    O26   79   2.223   2.227   9.624
    1LIG    C52   80   2.287   2.276   9.746
    1LIG    C53   81   2.215   2.220   9.871
    1LIG    O27   82   2.279   2.269   9.991
    1LIG    C54   83   2.216   2.219  10.113
    1LIG    C55   84   2.288   2.275  10.240
    1LIG    O28   85   2.224   2.225  10.361
    1LIG    C56   86   2.288   2.274  10.482
    1LIG    C57   87   2.217   2.218  10.609
    1LIG    O29   88   2.281   2.267  10.731
    1LIG    C58   89   2.217   2.217  10.852
    1LIG    C59   90   2.288   2.272  10.978
    1LIG      H   91   2.289   2.380   0.171
    1LIG     H1   92   2.397   2.239   0.172
    1LIG     H2   93   2.224   2.108   0.301
    1LIG     H3   94   2.116   2.248   0.300
    1LIG     H4   95   2.222   2.108   0.546
    1LIG     H5   96   2.115   2.249   0.545
    1LIG     H6   97   2.289   2.383   0.668
    1LIG     H7   98   2.396   2.242   0.669
    1LIG     H8   99   2.288   2.384   0.913
    1LIG     H9  100   2.395   2.244   0.914
    1LIG    H10  101   2.221   2.111   1.037
    1LIG    H11  102   2.113   2.251   1.036
    1LIG    H12  103   2.219   2.112   1.282
    1LIG    H13  104   2.111   2.252   1.281
    1LIG    H14  105   2.285   2.387   1.404
    1LIG    H15  106   2.393   2.247   1.405
    1LIG    H16  107   2.285   2.388   1.650
    1LIG    H17  108   2.393   2.248   1.651
    1LIG    H18  109   2.218   2.114   1.772
    1LIG    H19  110   2.110   2.255   1.772
    1LIG    H20  111   2.217   2.115   2.018
    1LIG    H21  112   2.109   2.255   2.018
    1LIG    H22  113   2.284   2.389   2.140
    1LIG    H23  114   2.392   2.249   2.140
    1LIG    H24  115   2.283   2.390   2.386
    1LIG    H25  116   2.391   2.249   2.386
    1LIG    H26  117   2.216   2.115   2.508
    1LIG    H27  118   2.108   2.256   2.508
    1LIG    H28  119   2.216   2.115   2.754
    1LIG    H29  120   2.108   2.256   2.753
    1LIG    H30  121   2.282   2.390   2.877
    1LIG    H31  122   2.390   2.249   2.877
    1LIG    H32  123   2.282   2.391   3.122
    1LIG    H33  124   2.390   2.250   3.122
    1LIG    H34  125   2.216   2.117   3.245
    1LIG    H35  126   2.108   2.257   3.245
    1LIG    H36  127   2.215   2.116   3.490
    1LIG    H37  128   2.107   2.257   3.490
    1LIG    H38  129   2.281   2.391   3.613
    1LIG    H39  130   2.389   2.250   3.613
    1LIG    H40  131   2.282   2.391   3.858
    1LIG    H41  132   2.390   2.251   3.858
    1LIG    H42  133   2.215   2.117   3.981
    1LIG    H43  134   2.107   2.257   3.980
    1LIG    H44  135   2.215   2.117   4.226
    1LIG    H45  136   2.107   2.257   4.226
    1LIG    H46  137   2.281   2.392   4.348
    1LIG    H47  138   2.389   2.251   4.349
    1LIG    H48  139   2.281   2.392   4.594
    1LIG    H49  140   2.389   2.251   4.594
    1LIG    H50  141   2.214   2.117   4.718
    1LIG    H51  142   2.107   2.258   4.717
    1LIG    H52  143   2.214   2.117   4.963
    1LIG    H53  144   2.106   2.258   4.963
    1LIG    H54  145   2.280   2.392   5.085
    1LIG    H55  146   2.388   2.251   5.085
    1LIG    H56  147   2.281   2.391   5.331
    1LIG    H57  148   2.389   2.251   5.330
    1LIG    H58  149   2.215   2.117   5.453
    1LIG    H59  150   2.107   2.257   5.454
    1LIG    H60  151   2.215   2.116   5.699
    1LIG    H61  152   2.107   2.257   5.699
    1LIG    H62  153   2.281   2.391   5.821
    1LIG    H63  154   2.389   2.251   5.821
    1LIG    H64  155   2.281   2.391   6.066
    1LIG    H65  156   2.389   2.250   6.066
    1LIG    H66  157   2.215   2.116   6.189
    1LIG    H67  158   2.107   2.257   6.189
    1LIG    H68  159   2.215   2.116   6.434
    1LIG    H69  160   2.107   2.256   6.434
    1LIG    H70  161   2.280   2.390   6.558
    1LIG    H71  162   2.389   2.250   6.557
    1LIG    H72  163   2.281   2.390   6.802
    1LIG    H73  164   2.389   2.250   6.802
    1LIG    H74  165   2.216   2.116   6.926
    1LIG    H75  166   2.108   2.256   6.926
    1LIG    H76  167   2.216   2.115   7.170
    1LIG    H77  168   2.107   2.255   7.171
    1LIG    H78  169   2.281   2.389   7.294
    1LIG    H79  170   2.389   2.248   7.294
    1LIG    H80  171   2.282   2.389   7.539
    1LIG    H81  172   2.390   2.249   7.539
    1LIG    H82  173   2.217   2.114   7.662
    1LIG    H83  174   2.108   2.254   7.663
    1LIG    H84  175   2.217   2.113   7.907
    1LIG    H85  176   2.108   2.254   7.907
    1LIG    H86  177   2.282   2.388   8.030
    1LIG    H87  178   2.391   2.248   8.029
    1LIG    H88  179   2.283   2.388   8.276
    1LIG    H89  180   2.391   2.248   8.275
    1LIG    H90  181   2.217   2.113   8.398
    1LIG    H91  182   2.109   2.253   8.398
    1LIG    H92  183   2.217   2.112   8.644
    1LIG    H93  184   2.109   2.252   8.644
    1LIG    H94  185   2.283   2.387   8.766
    1LIG    H95  186   2.392   2.247   8.766
    1LIG    H96  187   2.283   2.386   9.012
    1LIG    H97  188   2.391   2.246   9.011
    1LIG    H98  189   2.217   2.111   9.133
    1LIG    H99  190   2.109   2.251   9.134
    1LIG   H100  191   2.218   2.111   9.379
    1LIG   H101  192   2.110   2.251   9.380
    1LIG   H102  193   2.284   2.386   9.502
    1LIG   H103  194   2.392   2.246   9.501
    1LIG   H104  195   2.284   2.385   9.747
    1LIG   H105  196   2.392   2.245   9.747
    1LIG   H106  197   2.219   2.110   9.869
    1LIG   H107  198   2.110   2.250   9.870
    1LIG   H108  199   2.219   2.110  10.114
    1LIG   H109  200   2.111   2.250  10.115
    1LIG   H110  201   2.284   2.384  10.239
    1LIG   H111  202   2.393   2.244  10.238
    1LIG   H112  203   2.285   2.384  10.484
    1LIG   H113  204   2.394   2.244  10.483
    1LIG   H114  205   2.221   2.109  10.607
    1LIG   H115  206   2.112   2.249  10.608
    1LIG   H116  207   2.221   2.108  10.852
    1LIG   H117  208   2.112   2.249  10.853
    1LIG   H118  209   2.393   2.242  10.978
    1LIG   H119  210   2.241   2.235  11.073
    1MOL     C1  211   1.903   1.837   5.047
    1MOL     H1  212   1.895   1.730   5.070
    1MOL     O1  213   1.854   1.901   5.164
    1MOL     C2  214   1.857   2.045   5.162
    1MOL     H2  215   1.961   2.080   5.156
    1MOL     C3  216   1.795   2.091   5.292
    1MOL     H3  217   1.694   2.047   5.300
    1MOL     H4  218   1.785   2.200   5.292
    1MOL     O2  219   1.874   2.048   5.402
    1MOL     C4  220   1.818   2.090   5.525
    1MOL     C5  221   1.810   1.875   4.930
    1MOL     H5  222   1.709   1.844   4.959
    1MOL     O3  223   1.845   1.815   4.807
    1MOL     C6  224   1.809   1.678   4.796
    1MOL     C7  225   1.810   2.027   4.910
    1MOL     H6  226   1.909   2.058   4.874
    1MOL     O4  227   1.709   2.063   4.816
    1MOL     C8  228   1.757   2.094   4.686
    1MOL     C9  229   1.779   2.101   5.040
    1MOL     H7  230   1.671   2.091   5.059
    1MOL     O5  231   1.811   2.239   5.018
    1MOL    C10  232   1.718   2.337   5.056
    1MOL     H8  233   1.621   2.292   5.078
    1MOL     O6  234   1.755   2.403   5.176
    1MOL    C11  235   1.884   2.466   5.173
    1MOL     H9  236   1.962   2.392   5.151
    1MOL    C12  237   1.908   2.522   5.313
    1MOL    H10  238   1.822   2.585   5.341
    1MOL    H11  239   1.998   2.586   5.312
    1MOL     O7  240   1.925   2.415   5.404
    1MOL    C13  241   1.963   2.461   5.532
    1MOL    C14  242   1.705   2.444   4.946
    1MOL    H12  243   1.626   2.513   4.979
    1MOL     O8  244   1.671   2.392   4.819
    1MOL    C15  245   1.537   2.348   4.806
    1MOL    C16  246   1.834   2.525   4.930
    1MOL    H13  247   1.911   2.460   4.886
    1MOL     O9  248   1.810   2.638   4.847
    1MOL    C17  249   1.857   2.624   4.714
    1MOL    C18  250   1.886   2.576   5.065
    1MOL    H14  251   1.822   2.659   5.096
    1MOL    O10  252   2.020   2.624   5.042
    1MOL    C19  253   2.056   2.752   5.089
    1MOL    H15  254   1.967   2.806   5.123
    1MOL    O11  255   2.140   2.746   5.202
    1MOL    C20  256   2.263   2.675   5.184
    1MOL    H16  257   2.242   2.570   5.161
    1MOL    C21  258   2.338   2.685   5.316
    1MOL    H17  259   2.335   2.790   5.350
    1MOL    H18  260   2.443   2.656   5.302
    1MOL    O12  261   2.276   2.601   5.412
    1MOL    C22  262   2.343   2.605   5.537
    1MOL    C23  263   2.129   2.830   4.978
    1MOL    H19  264   2.151   2.930   5.020
    1MOL    O13  265   2.055   2.844   4.859
    1MOL    C24  266   1.948   2.937   4.865
    1MOL    C25  267   2.262   2.763   4.943
    1MOL    H20  268   2.241   2.668   4.894
    1MOL    O14  269   2.338   2.848   4.858
    1MOL    C26  270   2.335   2.812   4.721
    1MOL    C27  271   2.346   2.735   5.068
    1MOL    H21  272   2.391   2.831   5.101
    1MOL    O15  273   2.450   2.645   5.029
    1MOL    C28  274   2.584   2.675   5.059
    1MOL    H22  275   2.593   2.780   5.087
    1MOL    O16  276   2.631   2.603   5.172
    1MOL    C29  277   2.623   2.460   5.159
    1MOL    H23  278   2.518   2.431   5.144
    1MOL    C30  279   2.670   2.401   5.291
    1MOL    H24  280   2.644   2.294   5.294
    1MOL    H25  281   2.616   2.451   5.374
    1MOL    O17  282   2.810   2.418   5.305
    1MOL    C31  283   2.861   2.352   5.418
    1MOL    C32  284   2.674   2.641   4.939
    1MOL    H26  285   2.776   2.671   4.967
    1MOL    O18  286   2.636   2.706   4.819
    1MOL    C33  287   2.672   2.843   4.813
    1MOL    C34  288   2.675   2.490   4.911
    1MOL    H27  289   2.576   2.460   4.873
    1MOL    O19  290   2.776   2.460   4.816
    1MOL    C35  291   2.728   2.430   4.686
    1MOL    C36  292   2.705   2.411   5.038
    1MOL    H28  293   2.812   2.422   5.062
    1MOL    O20  294   2.675   2.273   5.010
    1MOL    C37  295   2.767   2.174   5.049
    1MOL    H29  296   2.863   2.220   5.076
    1MOL    O21  297   2.727   2.105   5.165
    1MOL    C38  298   2.599   2.039   5.154
    1MOL    H30  299   2.522   2.114   5.131
    1MOL    C39  300   2.568   1.979   5.291
    1MOL    H31  301   2.461   1.955   5.297
    1MOL    H32  302   2.589   2.055   5.368
    1MOL    O22  303   2.647   1.864   5.312
    1MOL    C40  304   2.609   1.795   5.430
    1MOL    C41  305   2.785   2.073   4.934
    1MOL    H33  306   2.863   2.002   4.967
    1MOL    O23  307   2.822   2.131   4.811
    1MOL    C42  308   2.956   2.176   4.805
    1MOL    C43  309   2.656   1.993   4.910
    1MOL    H34  310   2.581   2.060   4.867
    1MOL    O24  311   2.683   1.884   4.822
    1MOL    C44  312   2.637   1.903   4.690
    1MOL    C45  313   2.601   1.935   5.041
    1MOL    H35  314   2.665   1.851   5.072
    1MOL    O25  315   2.469   1.887   5.013
    1MOL    C46  316   2.432   1.759   5.058
    1MOL    H36  317   2.521   1.703   5.088
    1MOL    O26  318   2.351   1.763   5.174
    1MOL    C47  319   2.230   1.838   5.161
    1MOL    H37  320   2.253   1.942   5.136
    1MOL    C48  321   2.163   1.833   5.298
    1MOL    H38  322   2.154   1.728   5.330
    1MOL    H39  323   2.062   1.876   5.292
    1MOL    O27  324   2.243   1.906   5.389
    1MOL    C49  325   2.183   1.916   5.517
    1MOL    C50  326   2.354   1.686   4.947
    1MOL    H40  327   2.333   1.585   4.986
    1MOL    O28  328   2.423   1.676   4.825
    1MOL    C51  329   2.533   1.586   4.825
    1MOL    C52  330   2.220   1.755   4.920
    1MOL    H41  331   2.239   1.852   4.873
    1MOL    O29  332   2.139   1.673   4.836
    1MOL    C53  333   2.141   1.710   4.699
    1MOL    C54  334   2.141   1.780   5.049
    1MOL    H42  335   2.098   1.684   5.082
    1MOL    O30  336   2.035   1.872   5.017
    1MOL    H43  337   1.979   2.373   5.594
    1MOL    H44  338   2.056   2.519   5.527
    1MOL    H45  339   1.885   2.523   5.578
    1MOL    H46  340   1.886   2.057   5.604
    1MOL    H47  341   1.807   2.199   5.529
    1MOL    H48  342   1.719   2.044   5.542
    1MOL    H49  343   2.251   1.975   5.579
    1MOL    H50  344   2.086   1.966   5.511
    1MOL    H51  345   2.170   1.817   5.563
    1MOL    H52  346   2.671   1.705   5.436
    1MOL    H53  347   2.628   1.856   5.520
    1MOL    H54  348   2.503   1.767   5.428
    1MOL    H55  349   2.969   2.371   5.420
    1MOL    H56  350   2.817   2.391   5.512
    1MOL    H57  351   2.843   2.244   5.413
    1MOL    H58  352   2.290   2.537   5.604
    1MOL    H59  353   2.448   2.573   5.528
    1MOL    H60  354   2.341   2.706   5.580
    1MOL    H61  355   2.977   2.198   4.699
    1MOL    H62  356   2.972   2.268   4.862
    1MOL    H63  357   3.026   2.099   4.839
    1MOL    H64  358   2.816   2.416   4.623
    1MOL    H65  359   2.669   2.338   4.686
    1MOL    H66  360   2.669   2.513   4.645
    1MOL    H67  361   2.657   2.875   4.710
    1MOL    H68  362   2.609   2.906   4.878
    1MOL    H69  363   2.778   2.858   4.840
    1MOL    H70  364   2.392   2.890   4.668
    1MOL    H71  365   2.384   2.715   4.704
    1MOL    H72  366   2.232   2.810   4.682
    1MOL    H73  367   1.915   2.954   4.762
    1MOL    H74  368   1.863   2.899   4.923
    1MOL    H75  369   1.981   3.033   4.908
    1MOL    H76  370   1.827   2.716   4.661
    1MOL    H77  371   1.966   2.616   4.711
    1MOL    H78  372   1.811   2.538   4.664
    1MOL    H79  373   1.519   2.333   4.700
    1MOL    H80  374   1.519   2.254   4.859
    1MOL    H81  375   1.467   2.425   4.843
    1MOL    H82  376   1.669   2.113   4.624
    1MOL    H83  377   1.819   2.184   4.688
    1MOL    H84  378   1.814   2.010   4.643
    1MOL    H85  379   1.821   1.651   4.691
    1MOL    H86  380   1.875   1.614   4.856
    1MOL    H87  381   1.705   1.662   4.826
    1MOL    H88  382   2.081   1.636   4.646
    1MOL    H89  383   2.095   1.809   4.684
    1MOL    H90  384   2.243   1.710   4.658
    1MOL    H91  385   2.561   1.571   4.720
    1MOL    H92  386   2.619   1.627   4.879
    1MOL    H93  387   2.504   1.489   4.868
    1MOL    H94  388   2.669   1.815   4.633
    1MOL    H95  389   2.527   1.909   4.686
    1MOL    H96  390   2.680   1.993   4.644
    1MOL     C1  391   1.903   1.837   6.047
    1MOL     H1  392   1.895   1.730   6.070
    1MOL     O1  393   1.854   1.901   6.164
    1MOL     C2  394   1.857   2.045   6.162
    1MOL     H2  395   1.961   2.080   6.156
    1MOL     C3  396   1.795   2.091   6.292
    1MOL     H3  397   1.694   2.047   6.300
    1MOL     H4  398   1.785   2.200   6.292
    1MOL     O2  399   1.874   2.048   6.402
    1MOL     C4  400   1.818   2.090   6.525
    1MOL     C5  401   1.810   1.875   5.930
    1MOL     H5  402   1.709   1.844   5.959
    1MOL     O3  403   1.845   1.815   5.807
    1MOL     C6  404   1.809   1.678   5.796
    1MOL     C7  405   1.810   2.027   5.910
    1MOL     H6  406   1.909   2.058   5.874
    1MOL     O4  407   1.709   2.063   5.816
    1MOL     C8  408   1.757   2.094   5.686
    1MOL     C9  409   1.779   2.101   6.040
    1MOL     H7  410   1.671   2.091   6.059
    1MOL     O5  411   1.811   2.239   6.018
    1MOL    C10  412   1.718   2.337   6.056
    1MOL     H8  413   1.621   2.292   6.078
    1MOL     O6  414   1.755   2.403   6.176
    1MOL    C11  415   1.884   2.466   6.173
    1MOL     H9  416   1.962   2.392   6.151
    1MOL    C12  417   1.908   2.522   6.313
    1MOL    H10  418   1.822   2.585   6.341
    1MOL    H11  419   1.998   2.586   6.312
    1MOL     O7  420   1.925   2.415   6.404
    1MOL    C13  421   1.963   2.461   6.532
    1MOL    C14  422   1.705   2.444   5.946
    1MOL    H12  423   1.626   2.513   5.979
    1MOL     O8  424   1.671   2.392   5.819
    1MOL    C15  425   1.537   2.348   5.806
    1MOL    C16  426   1.834   2.525   5.930
    1MOL    H13  427   1.911   2.460   5.886
    1MOL     O9  428   1.810   2.638   5.847
    1MOL    C17  429   1.857   2.624   5.714
    1MOL    C18  430   1.886   2.576   6.065
    1MOL    H14  431   1.822   2.659   6.096
    1MOL    O10  432   2.020   2.624   6.042
    1MOL    C19  433   2.056   2.752   6.089
    1MOL    H15  434   1.967   2.806   6.123
    1MOL    O11  435   2.140   2.746   6.202
    1MOL    C20  436   2.263   2.675   6.184
    1MOL    H16  437   2.242   2.570   6.161
    1MOL    C21  438   2.338   2.685   6.316
    1MOL    H17  439   2.335   2.790   6.350
    1MOL    H18  440   2.443   2.656   6.302
    1MOL    O12  441   2.276   2.601   6.412
    1MOL    C22  442   2.343   2.605   6.537
    1MOL    C23  443   2.129   2.830   5.978
    1MOL    H19  444   2.151   2.930   6.020
    1MOL    O13  445   2.055   2.844   5.859
    1MOL    C24  446   1.948   2.937   5.865
    1MOL    C25  447   2.262   2.763   5.943
    1MOL    H20  448   2.241   2.668   5.894
    1MOL    O14  449   2.338   2.848   5.858
    1MOL    C26  450   2.335   2.812   5.721
    1MOL    C27  451   2.346   2.735   6.068
    1MOL    H21  452   2.391   2.831   6.101
    1MOL    O15  453   2.450   2.645   6.029
    1MOL    C28  454   2.584   2.675   6.059
    1MOL    H22  455   2.593   2.780   6.087
    1MOL    O16  456   2.631   2.603   6.172
    1MOL    C29  457   2.623   2.460   6.159
    1MOL    H23  458   2.518   2.431   6.144
    1MOL    C30  459   2.670   2.401   6.291
    1MOL    H24  460   2.644   2.294   6.294
    1MOL    H25  461   2.616   2.451   6.374
    1MOL    O17  462   2.810   2.418   6.305
    1MOL    C31  463   2.861   2.352   6.418
    1MOL    C32  464   2.674   2.641   5.939
    1MOL    H26  465   2.776   2.671   5.967
    1MOL    O18  466   2.636   2.706   5.819
    1MOL    C33  467   2.672   2.843   5.813
    1MOL    C34  468   2.675   2.490   5.911
    1MOL    H27  469   2.576   2.460   5.873
    1MOL    O19  470   2.776   2.460   5.816
    1MOL    C35  471   2.728   2.430   5.686
    1MOL    C36  472   2.705   2.411   6.038
    1MOL    H28  473   2.812   2.422   6.062
    1MOL    O20  474   2.675   2.273   6.010
    1MOL    C37  475   2.767   2.174   6.049
    1MOL    H29  476   2.863   2.220   6.076
    1MOL    O21  477   2.727   2.105   6.165
    1MOL    C38  478   2.599   2.039   6.154
    1MOL    H30  479   2.522   2.114   6.131
    1MOL    C39  480   2.568   1.979   6.291
    1MOL    H31  481   2.461   1.955   6.297
    1MOL    H32  482   2.589   2.055   6.368
    1MOL    O22  483   2.647   1.864   6.312
    1MOL    C40  484   2.609   1.795   6.430
    1MOL    C41  485   2.785   2.073   5.934
    1MOL    H33  486   2.863   2.002   5.967
    1MOL    O23  487   2.822   2.131   5.811
    1MOL    C42  488   2.956   2.176   5.805
    1MOL    C43  489   2.656   1.993   5.910
    1MOL    H34  490   2.581   2.060   5.867
    1MOL    O24  491   2.683   1.884   5.822
    1MOL    C44  492   2.637   1.903   5.690
    1MOL    C45  493   2.601   1.935   6.041
    1MOL    H35  494   2.665   1.851   6.072
    1MOL    O25  495   2.469   1.887   6.013
    1MOL    C46  496   2.432   1.759   6.058
    1MOL    H36  497   2.521   1.703   6.088
    1MOL    O26  498   2.351   1.763   6.174
    1MOL    C47  499   2.230   1.838   6.161
    1MOL    H37  500   2.253   1.942   6.136
    1MOL    C48  501   2.163   1.833   6.298
    1MOL    H38  502   2.154   1.728   6.330
    1MOL    H39  503   2.062   1.876   6.292
    1MOL    O27  504   2.243   1.906   6.389
    1MOL    C49  505   2.183   1.916   6.517
    1MOL    C50  506   2.354   1.686   5.947
    1MOL    H40  507   2.333   1.585   5.986
    1MOL    O28  508   2.423   1.676   5.825
    1MOL    C51  509   2.533   1.586   5.825
    1MOL    C52  510   2.220   1.755   5.920
    1MOL    H41  511   2.239   1.852   5.873
    1MOL    O29  512   2.139   1.673   5.836
    1MOL    C53  513   2.141   1.710   5.699
    1MOL    C54  514   2.141   1.780   6.049
    1MOL    H42  515   2.098   1.684   6.082
    1MOL    O30  516   2.035   1.872   6.017
    1MOL    H43  517   1.979   2.373   6.594
    1MOL    H44  518   2.056   2.519   6.527
    1MOL    H45  519   1.885   2.523   6.578
    1MOL    H46  520   1.886   2.057   6.604
    1MOL    H47  521   1.807   2.199   6.529
    1MOL    H48  522   1.719   2.044   6.542
    1MOL    H49  523   2.251   1.975   6.579
    1MOL    H50  524   2.086   1.966   6.511
    1MOL    H51  525   2.170   1.817   6.563
    1MOL    H52  526   2.671   1.705   6.436
    1MOL    H53  527   2.628   1.856   6.520
    1MOL    H54  528   2.503   1.767   6.428
    1MOL    H55  529   2.969   2.371   6.420
    1MOL    H56  530   2.817   2.391   6.512
    1MOL    H57  531   2.843   2.244   6.413
    1MOL    H58  532   2.290   2.537   6.604
    1MOL    H59  533   2.448   2.573   6.528
    1MOL    H60  534   2.341   2.706   6.580
    1MOL    H61  535   2.977   2.198   5.699
    1MOL    H62  536   2.972   2.268   5.862
    1MOL    H63  537   3.026   2.099   5.839
    1MOL    H64  538   2.816   2.416   5.623
    1MOL    H65  539   2.669   2.338   5.686
    1MOL    H66  540   2.669   2.513   5.645
    1MOL    H67  541   2.657   2.875   5.710
    1MOL    H68  542   2.609   2.906   5.878
    1MOL    H69  543   2.778   2.858   5.840
    1MOL    H70  544   2.392   2.890   5.668
    1MOL    H71  545   2.384   2.715   5.704
    1MOL    H72  546   2.232   2.810   5.682
    1MOL    H73  547   1.915   2.954   5.762
    1MOL    H74  548   1.863   2.899   5.923
    1MOL    H75  549   1.981   3.033   5.908
    1MOL    H76  550   1.827   2.716   5.661
    1MOL    H77  551   1.966   2.616   5.711
    1MOL    H78  552   1.811   2.538   5.664
    1MOL    H79  553   1.519   2.333   5.700
    1MOL    H80  554   1.519   2.254   5.859
    1MOL    H81  555   1.467   2.425   5.843
    1MOL    H82  556   1.669   2.113   5.624
    1MOL    H83  557   1.819   2.184   5.688
    1MOL    H84  558   1.814   2.010   5.643
    1MOL    H85  559   1.821   1.651   5.691
    1MOL    H86  560   1.875   1.614   5.856
    1MOL    H87  561   1.705   1.662   5.826
    1MOL    H88  562   2.081   1.636   5.646
    1MOL    H89  563   2.095   1.809   5.684
    1MOL    H90  564   2.243   1.710   5.658
    1MOL    H91  565   2.561   1.571   5.720
    1MOL    H92  566   2.619   1.627   5.879
    1MOL    H93  567   2.504   1.489   5.868
    1MOL    H94  568   2.669   1.815   5.633
    1MOL    H95  569   2.527   1.909   5.686
    1MOL    H96  570   2.680   1.993   5.644
    2SOL     OW  571   0.230   0.628   0.113
    2SOL    HW1  572   0.137   0.626   0.150
    2SOL    HW2  573   0.231   0.589   0.021
    3SOL     OW  574   0.225   0.275   0.996
    3SOL    HW1  575   0.260   0.258   1.088
    3SOL    HW2  576   0.137   0.230   0.984
    4SOL     OW  577   0.019   0.368   0.647
    4SOL    HW1  578  -0.063   0.411   0.686
    4SOL    HW2  579  -0.009   0.295   0.584
    5SOL     OW  580   0.569   1.275   1.165
    5SOL    HW1  581   0.476   1.268   1.128
    5SOL    HW2  582   0.580   1.364   1.209
    6SOL     OW  583   1.555   1.511   0.703
    6SOL    HW1  584   1.498   1.495   0.784
    6SOL    HW2  585   1.496   1.521   0.623
    7SOL     OW  586   1.135   0.703   0.717
    7SOL    HW1  587   1.192   0.781   0.692
    7SOL    HW2  588   1.075   0.729   0.793
    8SOL     OW  589   1.755   0.607   0.231
    8SOL    HW1  590   1.743   0.594   0.132
    8SOL    HW2  591   1.725   0.526   0.280
    9SOL     OW  592   0.768   1.144   1.023
    9SOL    HW1  593   0.690   1.161   1.083
    9SOL    HW2  594   0.802   1.231   0.987
   10SOL     OW  595   0.850   0.798   1.823
   10SOL    HW1  596   0.846   0.874   1.888
   10SOL    HW2  597   0.872   0.834   1.732
   11SOL     OW  598   0.685   1.012   0.665
   11SOL    HW1  599   0.754   0.996   0.735
   11SOL    HW2  600   0.612   1.069   0.703
   12SOL     OW  601   0.686   1.161   1.803
   12SOL    HW1  602   0.746   1.240   1.817
   12SOL    HW2  603   0.600   1.192   1.762
   13SOL     OW  604   0.335   1.435   1.061
   13SOL    HW1  605   0.257   1.404   1.008
   13SOL    HW2  606   0.393   1.493   1.004
   14SOL     OW  607   1.460   1.505   1.339
   14SOL    HW1  608   1.484   1.599   1.365
   14SOL    HW2  609   1.444   1.451   1.421
   15SOL     OW  610   0.438   0.392   1.499
   15SOL    HW1  611   0.520   0.336   1.508
   15SOL    HW2  612   0.357   0.334   1.503
   16SOL     OW  613   1.603   0.447   0.737
   16SOL    HW1  614   1.529   0.493   0.687
   16SOL    HW2  615   1.654   0.515   0.790
   17SOL     OW  616   0.231   1.713   0.483
   17SOL    HW1  617   0.265   1.790   0.537
   17SOL    HW2  618   0.275   1.713   0.393
   18SOL     OW  619   1.127   1.341   1.690
   18SOL    HW1  620   1.174   1.341   1.778
   18SOL    HW2  621   1.079   1.254   1.679
   19SOL     OW  622   0.230   1.434   0.538
   19SOL    HW1  623   0.204   1.530   0.538
   19SOL    HW2  624   0.159   1.380   0.583
   20SOL     OW  625   0.240   1.091   0.886
   20SOL    HW1  626   0.254   1.007   0.938
   20SOL    HW2  627   0.185   1.155   0.941
   21SOL     OW  628   0.620   1.786   1.439
   21SOL    HW1  629   0.528   1.769   1.474
   21SOL    HW2  630   0.648   1.878   1.465
   22SOL     OW  631   0.606   0.964   0.123
   22SOL    HW1  632   0.613   1.048   0.069
   22SOL    HW2  633   0.652   0.977   0.211
   23SOL     OW  634   1.594   0.114   1.480
   23SOL    HW1  635   1.576   0.181   1.408
   23SOL    HW2  636   1.591   0.160   1.569
   24SOL     OW  637   0.122   0.643   0.563
   24SOL    HW1  638   0.077   0.555   0.580
   24SOL    HW2  639   0.121   0.697   0.647
   25SOL     OW  640   1.842   1.767   0.359
   25SOL    HW1  641   1.896   1.738   0.439
   25SOL    HW2  642   1.872   1.857   0.330
   26SOL     OW  643   0.027   1.596   0.117
   26SOL    HW1  644   0.008   1.500   0.138
   26SOL    HW2  645  -0.006   1.654   0.192
   27SOL     OW  646   1.689   0.922   0.612
   27SOL    HW1  647   1.784   0.893   0.620
   27SOL    HW2  648   1.681   0.987   0.537
   28SOL     OW  649   1.641   1.108   0.432
   28SOL    HW1  650   1.727   1.110   0.380
   28SOL    HW2  651   1.655   1.155   0.520
   29SOL     OW  652   0.113   0.737   1.597
   29SOL    HW1  653   0.201   0.724   1.642
   29SOL    HW2  654   0.100   0.834   1.575
   30SOL     OW  655   0.613   1.365   0.726
   30SOL    HW1  656   0.564   1.278   0.735
   30SOL    HW2  657   0.590   1.408   0.639
   31SOL     OW  658   1.293   1.228   1.423
   31SOL    HW1  659   1.330   1.155   1.365
   31SOL    HW2  660   1.345   1.233   1.508
   32SOL     OW  661   0.809   0.004   0.502
   32SOL    HW1  662   0.849   0.095   0.493
   32SOL    HW2  663   0.709   0.012   0.508
   33SOL     OW  664   0.197   0.976   1.264
   33SOL    HW1  665   0.286   0.931   1.250
   33SOL    HW2  666   0.124   0.911   1.245
   34SOL     OW  667   1.525   0.999   0.190
   34SOL    HW1  668   1.462   0.923   0.203
   34SOL    HW2  669   1.573   1.017   0.276
   35SOL     OW  670   1.187   1.792   1.616
   35SOL    HW1  671   1.211   1.852   1.540
   35SOL    HW2  672   1.194   1.697   1.586
   36SOL     OW  673   0.317   0.251   1.801
   36SOL    HW1  674   0.388   0.322   1.807
   36SOL    HW2  675   0.229   0.290   1.829
   37SOL     OW  676   1.466   1.417   0.953
   37SOL    HW1  677   1.407   1.423   1.033
   37SOL    HW2  678   1.451   1.329   0.907
   38SOL     OW  679   1.667   1.714   0.572
   38SOL    HW1  680   1.626   1.691   0.484
   38SOL    HW2  681   1.649   1.640   0.637
   39SOL     OW  682   0.598   0.729   0.270
   39SOL    HW1  683   0.622   0.798   0.202
   39SOL    HW2  684   0.520   0.762   0.324
   40SOL     OW  685   1.281   0.345   0.944
   40SOL    HW1  686   1.195   0.295   0.931
   40SOL    HW2  687   1.343   0.291   1.000
   41SOL     OW  688   1.576   1.662   0.307
   41SOL    HW1  689   1.665   1.708   0.310
   41SOL    HW2  690   1.555   1.638   0.212
   42SOL     OW  691   0.807   0.605   1.465
   42SOL    HW1  692   0.760   0.602   1.554
   42SOL    HW2  693   0.756   0.550   1.399
   43SOL     OW  694   1.394   0.469   1.674
   43SOL    HW1  695   1.374   0.512   1.762
   43SOL    HW2  696   1.472   0.407   1.683
   44SOL     OW  697   0.973   0.890   1.572
   44SOL    HW1  698   1.019   0.806   1.543
   44SOL    HW2  699   0.917   0.924   1.497
   45SOL     OW  700   0.991   0.410   1.242
   45SOL    HW1  701   0.914   0.444   1.296
   45SOL    HW2  702   0.957   0.359   1.163
   46SOL     OW  703   1.041   0.701   0.429
   46SOL    HW1  704   1.067   0.697   0.525
   46SOL    HW2  705   0.956   0.650   0.415
   47SOL     OW  706   0.076   0.811   0.789
   47SOL    HW1  707   0.175   0.799   0.798
   47SOL    HW2  708   0.052   0.906   0.810
   48SOL     OW  709   0.130   1.821   1.571
   48SOL    HW1  710   0.120   1.806   1.670
   48SOL    HW2  711   0.044   1.857   1.535
   49SOL     OW  712   0.865   0.348   0.195
   49SOL    HW1  713   0.924   0.411   0.146
   49SOL    HW2  714   0.884   0.254   0.166
   50SOL     OW  715   1.719   0.585   1.831
   50SOL    HW1  716   1.693   0.674   1.795
   50SOL    HW2  717   1.717   0.517   1.758
   51SOL     OW  718   1.362   1.144   0.545
   51SOL    HW1  719   1.445   1.115   0.497
   51SOL    HW2  720   1.313   1.211   0.489
   52SOL     OW  721   0.550   0.196   0.885
   52SOL    HW1  722   0.545   0.191   0.985
   52SOL    HW2  723   0.552   0.292   0.856
   53SOL     OW  724   1.008   1.456   0.477
   53SOL    HW1  725   0.962   1.528   0.425
   53SOL    HW2  726   1.004   1.476   0.575
   54SOL     OW  727   0.351   1.801   0.853
   54SOL    HW1  728   0.401   1.715   0.859
   54SOL    HW2  729   0.416   1.878   0.850
   55SOL     OW  730   1.795   1.066   0.873
   55SOL    HW1  731   1.733   1.051   0.797
   55SOL    HW2  732   1.743   1.077   0.958
   56SOL     OW  733   1.227   1.550   1.506
   56SOL    HW1  734   1.233   1.473   1.570
   56SOL    HW2  735   1.175   1.524   1.426
   57SOL     OW  736   0.321   0.943   0.242
   57SOL    HW1  737   0.403   0.982   0.200
   57SOL    HW2  738   0.294   0.861   0.193
   58SOL     OW  739   1.458   0.735   0.728
   58SOL    HW1  740   1.453   0.670   0.803
   58SOL    HW2  741   1.538   0.794   0.741
   59SOL     OW  742   0.461   1.266   1.727
   59SOL    HW1  743   0.411   1.267   1.641
   59SOL    HW2  744   0.398   1.248   1.803
   60SOL     OW  745   1.111   1.776   0.237
   60SOL    HW1  746   1.051   1.714   0.287
   60SOL    HW2  747   1.142   1.732   0.152
   61SOL     OW  748   0.202   0.285   1.498
   61SOL    HW1  749   0.122   0.345   1.485
   61SOL    HW2  750   0.192   0.236   1.584
   62SOL     OW  751   1.632   1.377   0.081
   62SOL    HW1  752   1.600   1.471   0.071
   62SOL    HW2  753   1.556   1.314   0.069
   63SOL     OW  754   0.464   1.743   0.323
   63SOL    HW1  755   0.497   1.782   0.409
   63SOL    HW2  756   0.540   1.736   0.258
   64SOL     OW  757   1.400   0.107   0.426
   64SOL    HW1  758   1.376   0.070   0.336
   64SOL    HW2  759   1.499   0.123   0.430
   65SOL     OW  760   0.249   1.785   1.241
   65SOL    HW1  761   0.306   1.720   1.291
   65SOL    HW2  762   0.233   1.752   1.148
   66SOL     OW  763   0.940   1.698   0.904
   66SOL    HW1  764   1.020   1.641   0.925
   66SOL    HW2  765   0.891   1.658   0.827
   67SOL     OW  766   0.382   0.700   0.480
   67SOL    HW1  767   0.427   0.610   0.477
   67SOL    HW2  768   0.288   0.689   0.513
   68SOL     OW  769   1.547   0.222   1.729
   68SOL    HW1  770   1.542   0.259   1.821
   68SOL    HW2  771   1.475   0.153   1.717
   69SOL     OW  772   0.614   0.122   0.117
   69SOL    HW1  773   0.712   0.100   0.124
   69SOL    HW2  774   0.583   0.105   0.024
   70SOL     OW  775   0.781   0.264   1.749
   70SOL    HW1  776   0.848   0.203   1.792
   70SOL    HW2  777   0.708   0.283   1.814
   71SOL     OW  778   0.888   1.514   1.195
   71SOL    HW1  779   0.865   1.489   1.101
   71SOL    HW2  780   0.949   1.445   1.234
   72SOL     OW  781   1.351   0.590   1.433
   72SOL    HW1  782   1.379   0.547   1.518
   72SOL    HW2  783   1.376   0.686   1.434
   73SOL     OW  784   0.803   1.402   0.924
   73SOL    HW1  785   0.893   1.416   0.882
   73SOL    HW2  786   0.732   1.404   0.853
   74SOL     OW  787   0.922   0.503   0.899
   74SOL    HW1  788   0.897   0.494   0.803
   74SOL    HW2  789   0.970   0.421   0.930
   75SOL     OW  790   0.539   0.064   0.512
   75SOL    HW1  791   0.458   0.065   0.570
   75SOL    HW2  792   0.542   0.147   0.457
   76SOL     OW  793   1.434   1.188   0.041
   76SOL    HW1  794   1.466   1.112   0.098
   76SOL    HW2  795   1.342   1.215   0.071
   77SOL     OW  796   0.297   0.035   0.171
   77SOL    HW1  797   0.346   0.119   0.150
   77SOL    HW2  798   0.359  -0.030   0.216
   78SOL     OW  799   0.935   0.236   0.480
   78SOL    HW1  800   0.887   0.277   0.402
   78SOL    HW2  801   1.034   0.234   0.461
   79SOL     OW  802   1.076   0.683   1.464
   79SOL    HW1  803   0.996   0.622   1.467
   79SOL    HW2  804   1.157   0.630   1.440
   80SOL     OW  805   1.227   1.570   0.793
   80SOL    HW1  806   1.248   1.644   0.728
   80SOL    HW2  807   1.295   1.570   0.866
   81SOL     OW  808   0.459   1.152   0.741
   81SOL    HW1  809   0.388   1.125   0.806
   81SOL    HW2  810   0.433   1.124   0.648
   82SOL     OW  811   1.271   1.797   0.591
   82SOL    HW1  812   1.315   1.861   0.527
   82SOL    HW2  813   1.221   1.849   0.661
   83SOL     OW  814   1.032   0.549   0.016
   83SOL    HW1  815   0.991   0.631  -0.023
   83SOL    HW2  816   1.096   0.575   0.089
   84SOL     OW  817   0.078   0.556   1.386
   84SOL    HW1  818   0.170   0.555   1.345
   84SOL    HW2  819   0.072   0.630   1.453
   85SOL     OW  820   0.561   0.222   1.147
   85SOL    HW1  821   0.599   0.138   1.184
   85SOL    HW2  822   0.473   0.241   1.191
   86SOL     OW  823   0.866   0.454   0.642
   86SOL    HW1  824   0.834   0.526   0.580
   86SOL    HW2  825   0.890   0.373   0.589
   87SOL     OW  826   1.017   0.039   0.753
   87SOL    HW1  827   0.945   0.044   0.684
   87SOL    HW2  828   0.993  -0.030   0.822
   88SOL     OW  829   1.429   1.173   0.867
   88SOL    HW1  830   1.374   1.089   0.860
   88SOL    HW2  831   1.455   1.202   0.775
   89SOL     OW  832   1.466   0.590   0.992
   89SOL    HW1  833   1.436   0.495   0.999
   89SOL    HW2  834   1.539   0.606   1.058
   90SOL     OW  835   1.857   0.833   0.377
   90SOL    HW1  836   1.899   0.769   0.441
   90SOL    HW2  837   1.819   0.782   0.299
   91SOL     OW  838   0.488   1.385   0.174
   91SOL    HW1  839   0.401   1.370   0.221
   91SOL    HW2  840   0.471   1.411   0.079
   92SOL     OW  841   1.664   1.280   0.657
   92SOL    HW1  842   1.763   1.288   0.671
   92SOL    HW2  843   1.619   1.364   0.688
   93SOL     OW  844   1.390   0.575   0.078
   93SOL    HW1  845   1.336   0.554   0.159
   93SOL    HW2  846   1.481   0.534   0.087
   94SOL     OW  847   0.527   0.256   0.328
   94SOL    HW1  848   0.554   0.197   0.253
   94SOL    HW2  849   0.527   0.351   0.297
   95SOL     OW  850   1.754   1.223   1.588
   95SOL    HW1  851   1.845   1.184   1.575
   95SOL    HW2  852   1.762   1.319   1.612
   96SOL     OW  853   1.064   1.347   1.340
   96SOL    HW1  854   0.984   1.324   1.395
   96SOL    HW2  855   1.147   1.321   1.389
   97SOL     OW  856   1.592   1.629   1.625
   97SOL    HW1  857   1.619   1.663   1.535
   97SOL    HW2  858   1.671   1.591   1.671
   98SOL     OW  859   1.111   1.195   1.100
   98SOL    HW1  860   1.071   1.239   1.181
   98SOL    HW2  861   1.070   1.232   1.017
   99SOL     OW  862   1.638   1.099   1.079
   99SOL    HW1  863   1.643   1.180   1.138
   99SOL    HW2  864   1.552   1.101   1.028
  100SOL     OW  865   0.915   0.089   1.402
  100SOL    HW1  866   0.940   0.069   1.307
  100SOL    HW2  867   0.987   0.145   1.444
  101SOL     OW  868   0.980   1.116   1.719
  101SOL    HW1  869   0.881   1.122   1.729
  101SOL    HW2  870   1.003   1.036   1.663
  102SOL     OW  871   0.705   1.050   0.368
  102SOL    HW1  872   0.691   1.057   0.467
  102SOL    HW2  873   0.789   0.999   0.350
  103SOL     OW  874   0.410   0.813   1.251
  103SOL    HW1  875   0.496   0.825   1.301
  103SOL    HW2  876   0.368   0.726   1.278
  104SOL     OW  877   1.274   0.386   1.262
  104SOL    HW1  878   1.295   0.460   1.326
  104SOL    HW2  879   1.185   0.403   1.219
  105SOL     OW  880   0.064   1.564   1.331
  105SOL    HW1  881   0.018   1.646   1.297
  105SOL    HW2  882   0.162   1.583   1.340
  106SOL     OW  883   0.367   1.100   0.501
  106SOL    HW1  884   0.360   1.183   0.445
  106SOL    HW2  885   0.371   1.020   0.441
  107SOL     OW  886   0.566   0.537   0.865
  107SOL    HW1  887   0.578   0.603   0.791
  107SOL    HW2  888   0.612   0.571   0.948
  108SOL     OW  889   1.252   1.348   0.388
  108SOL    HW1  890   1.302   1.425   0.428
  108SOL    HW2  891   1.157   1.350   0.420
  109SOL     OW  892   1.272   1.445   1.142
  109SOL    HW1  893   1.319   1.458   1.229
  109SOL    HW2  894   1.206   1.371   1.151
  110SOL     OW  895   1.582   0.639   0.472
  110SOL    HW1  896   1.551   0.700   0.545
  110SOL    HW2  897   1.632   0.691   0.403
  111SOL     OW  898   0.354   1.510   1.329
  111SOL    HW1  899   0.333   1.466   1.242
  111SOL    HW2  900   0.451   1.536   1.332
  112SOL     OW  901   0.402   0.751   1.598
  112SOL    HW1  902   0.470   0.806   1.551
  112SOL    HW2  903   0.442   0.663   1.625
  113SOL     OW  904   1.587   0.779   1.670
  113SOL    HW1  905   1.495   0.817   1.665
  113SOL    HW2  906   1.647   0.826   1.605
  114SOL     OW  907   1.013   0.105   1.770
  114SOL    HW1  908   1.019   0.190   1.718
  114SOL    HW2  909   1.045   0.029   1.713
  115SOL     OW  910   0.504   0.050   1.740
  115SOL    HW1  911   0.462  -0.007   1.670
  115SOL    HW2  912   0.438   0.119   1.772
  116SOL     OW  913   0.573   0.870   1.029
  116SOL    HW1  914   0.617   0.959   1.020
  116SOL    HW2  915   0.510   0.870   1.106
  117SOL     OW  916   1.360   0.862   1.045
  117SOL    HW1  917   1.285   0.862   0.979
  117SOL    HW2  918   1.397   0.770   1.054
  118SOL     OW  919   1.209   0.525   0.275
  118SOL    HW1  920   1.222   0.441   0.329
  118SOL    HW2  921   1.180   0.599   0.335
  119SOL     OW  922   0.307   0.213   1.231
  119SOL    HW1  923   0.284   0.250   1.321
  119SOL    HW2  924   0.277   0.118   1.225
  120SOL     OW  925   0.037   1.310   1.282
  120SOL    HW1  926   0.090   1.261   1.350
  120SOL    HW2  927   0.059   1.408   1.287
  121SOL     OW  928   0.732   0.634   1.064
  121SOL    HW1  929   0.791   0.608   0.988
  121SOL    HW2  930   0.704   0.730   1.053
  122SOL     OW  931   1.728   0.935   1.854
  122SOL    HW1  932   1.682   0.928   1.765
  122SOL    HW2  933   1.666   0.979   1.920
  123SOL     OW  934   0.307   0.063   0.618
  123SOL    HW1  935   0.296   0.157   0.651
  123SOL    HW2  936   0.302   0.000   0.695
  124SOL     OW  937   1.622   0.367   0.374
  124SOL    HW1  938   1.624   0.291   0.438
  124SOL    HW2  939   1.574   0.444   0.414
  125SOL     OW  940   1.023   0.766   0.966
  125SOL    HW1  941   1.038   0.787   1.062
  125SOL    HW2  942   0.993   0.671   0.957
  126SOL     OW  943   0.980   1.573   1.700
  126SOL    HW1  944   0.960   1.617   1.612
  126SOL    HW2  945   1.019   1.482   1.684
  127SOL     OW  946   1.859   1.518   1.605
  127SOL    HW1  947   1.873   1.545   1.510
  127SOL    HW2  948   1.942   1.540   1.658
  128SOL     OW  949   0.350   0.898   1.804
  128SOL    HW1  950   0.426   0.942   1.852
  128SOL    HW2  951   0.385   0.851   1.722
  129SOL     OW  952   1.540   0.274   0.125
  129SOL    HW1  953   1.479   0.199   0.148
  129SOL    HW2  954   1.562   0.326   0.208
  130SOL     OW  955   1.303   0.838   0.042
  130SOL    HW1  956   1.337   0.745   0.057
  130SOL    HW2  957   1.321   0.865  -0.053
  131SOL     OW  958   1.068   1.333   0.849
  131SOL    HW1  959   1.075   1.249   0.794
  131SOL    HW2  960   1.130   1.402   0.813
  132SOL     OW  961   0.319   0.810   0.949
  132SOL    HW1  962   0.412   0.846   0.954
  132SOL    HW2  963   0.313   0.725   1.001
  133SOL     OW  964   0.339   0.509   1.006
  133SOL    HW1  965   0.287   0.426   0.989
  133SOL    HW2  966   0.416   0.514   0.942
  134SOL     OW  967   1.138   0.380   1.678
  134SOL    HW1  968   1.093   0.443   1.742
  134SOL    HW2  969   1.231   0.411   1.661
  135SOL     OW  970   1.160   0.207   1.477
  135SOL    HW1  971   1.160   0.271   1.554
  135SOL    HW2  972   1.188   0.255   1.394
  136SOL     OW  973   0.008   1.326   0.200
  136SOL    HW1  974  -0.085   1.347   0.169
  136SOL    HW2  975   0.018   1.227   0.213
  137SOL     OW  976   0.088   1.801   0.927
  137SOL    HW1  977   0.046   1.715   0.900
  137SOL    HW2  978   0.182   1.804   0.893
  138SOL     OW  979   0.504   1.568   0.910
  138SOL    HW1  980   0.570   1.642   0.919
  138SOL    HW2  981   0.548   1.489   0.868
  139SOL     OW  982   1.002   0.796   1.238
  139SOL    HW1  983   1.043   0.764   1.324
  139SOL    HW2  984   0.906   0.769   1.235
  140SOL     OW  985   0.040   0.544   1.114
  140SOL    HW1  986   0.125   0.511   1.073
  140SOL    HW2  987   0.053   0.559   1.212
  141SOL     OW  988   0.189   0.520   1.722
  141SOL    HW1  989   0.248   0.480   1.652
  141SOL    HW2  990   0.131   0.591   1.681
  142SOL     OW  991   1.369   0.950   1.660
  142SOL    HW1  992   1.408   1.039   1.680
  142SOL    HW2  993   1.379   0.930   1.563
  143SOL     OW  994   0.815   0.572   0.325
  143SOL    HW1  995   0.822   0.483   0.279
  143SOL    HW2  996   0.721   0.606   0.317
  144SOL     OW  997   1.657   0.604   1.206
  144SOL    HW1  998   1.619   0.535   1.268
  144SOL    HW2  999   1.739   0.568   1.162
  145SOL     OW 1000   0.252   1.564   1.744
  145SOL    HW1 1001   0.222   1.621   1.820
  145SOL    HW2 1002   0.245   1.467   1.770
  146SOL     OW 1003   0.671   0.464   1.269
  146SOL    HW1 1004   0.637   0.375   1.239
  146SOL    HW2 1005   0.697   0.518   1.189
  147SOL     OW 1006   0.930   1.678   1.465
  147SOL    HW1 1007   0.906   1.660   1.370
  147SOL    HW2 1008   0.960   1.772   1.475
  148SOL     OW 1009   0.473   0.500   0.191
  148SOL    HW1 1010   0.534   0.580   0.195
  148SOL    HW2 1011   0.378   0.531   0.198
  149SOL     OW 1012   0.159   1.137   1.466
  149SOL    HW1 1013   0.181   1.076   1.542
  149SOL    HW2 1014   0.169   1.088   1.380
  150SOL     OW 1015   1.347   1.059   1.234
  150SOL    HW1 1016   1.371   0.996   1.160
  150SOL    HW2 1017   1.257   1.099   1.216
  151SOL     OW 1018   1.302   0.855   0.309
  151SOL    HW1 1019   1.216   0.824   0.351
  151SOL    HW2 1020   1.298   0.841   0.210
  152SOL     OW 1021   1.759   1.747   1.154
  152SOL    HW1 1022   1.820   1.777   1.081
  152SOL    HW2 1023   1.721   1.658   1.132
  153SOL     OW 1024   1.252   1.731   1.128
  153SOL    HW1 1025   1.336   1.736   1.074
  153SOL    HW2 1026   1.229   1.635   1.146
  154SOL     OW 1027   0.083   1.258   1.022
  154SOL    HW1 1028   0.078   1.257   1.122
  154SOL    HW2 1029   0.000   1.217   0.984
  155SOL     OW 1030   0.688   1.662   1.716
  155SOL    HW1 1031   0.632   1.743   1.725
  155SOL    HW2 1032   0.740   1.666   1.630
  156SOL     OW 1033   0.903   0.086   0.133
  156SOL    HW1 1034   0.954   0.087   0.047
  156SOL    HW2 1035   0.959   0.044   0.204
  157SOL     OW 1036   1.726   0.135   0.523
  157SOL    HW1 1037   1.799   0.118   0.456
  157SOL    HW2 1038   1.695   0.048   0.561
  158SOL     OW 1039   1.388   1.573   0.477
  158SOL    HW1 1040   1.455   1.585   0.403
  158SOL    HW2 1041   1.348   1.662   0.500
  159SOL     OW 1042   0.130   1.794   1.851
  159SOL    HW1 1043   0.089   1.720   1.904
  159SOL    HW2 1044   0.194   1.845   1.909
  160SOL     OW 1045   1.280   0.927   0.672
  160SOL    HW1 1046   1.340   0.846   0.674
  160SOL    HW2 1047   1.320   0.996   0.612
  161SOL     OW 1048   0.830   1.273   1.422
  161SOL    HW1 1049   0.825   1.306   1.517
  161SOL    HW2 1050   0.744   1.292   1.376
  162SOL     OW 1051   0.672   1.616   0.154
  162SOL    HW1 1052   0.681   1.626   0.055
  162SOL    HW2 1053   0.632   1.527   0.175
  163SOL     OW 1054   1.650   1.720   1.394
  163SOL    HW1 1055   1.703   1.730   1.310
  163SOL    HW2 1056   1.623   1.810   1.428
  164SOL     OW 1057   1.841   0.175   0.963
  164SOL    HW1 1058   1.880   0.090   0.927
  164SOL    HW2 1059   1.743   0.177   0.944
  165SOL     OW 1060   0.263   0.326   0.720
  165SOL    HW1 1061   0.184   0.377   0.686
  165SOL    HW2 1062   0.254   0.311   0.818
  166SOL     OW 1063   1.194   1.612   0.031
  166SOL    HW1 1064   1.200   1.519   0.068
  166SOL    HW2 1065   1.135   1.612  -0.049
  167SOL     OW 1066   0.822   1.002   1.372
  167SOL    HW1 1067   0.862   1.001   1.280
  167SOL    HW2 1068   0.832   1.094   1.412
  168SOL     OW 1069   0.916   0.910   0.291
  168SOL    HW1 1070   0.979   0.948   0.223
  168SOL    HW2 1071   0.956   0.827   0.330
  169SOL     OW 1072   1.504   1.607   0.044
  169SOL    HW1 1073   1.412   1.644   0.051
  169SOL    HW2 1074   1.542   1.627  -0.046
  170SOL     OW 1075   0.372   1.288   1.490
  170SOL    HW1 1076   0.359   1.381   1.456
  170SOL    HW2 1077   0.288   1.236   1.477
  171SOL     OW 1078   1.614   1.292   1.289
  171SOL    HW1 1079   1.674   1.295   1.369
  171SOL    HW2 1080   1.539   1.356   1.302
  172SOL     OW 1081   1.039   1.098   0.696
  172SOL    HW1 1082   0.969   1.051   0.750
  172SOL    HW2 1083   1.098   1.030   0.653
  173SOL     OW 1084   1.014   0.236   0.971
  173SOL    HW1 1085   1.006   0.200   0.878
  173SOL    HW2 1086   1.012   0.160   1.036
  174SOL     OW 1087   0.590   1.487   0.491
  174SOL    HW1 1088   0.632   1.429   0.421
  174SOL    HW2 1089   0.546   1.566   0.447
  175SOL     OW 1090   1.709   0.385   1.381
  175SOL    HW1 1091   1.782   0.454   1.385
  175SOL    HW2 1092   1.737   0.310   1.322
  176SOL     OW 1093   0.255   1.348   0.290
  176SOL    HW1 1094   0.159   1.349   0.263
  176SOL    HW2 1095   0.267   1.401   0.374
  177SOL     OW 1096   0.105   1.013   1.726
  177SOL    HW1 1097   0.028   0.980   1.780
  177SOL    HW2 1098   0.190   0.983   1.768
  178SOL     OW 1099   0.672   0.203   1.489
  178SOL    HW1 1100   0.762   0.187   1.449
  178SOL    HW2 1101   0.680   0.208   1.588
  179SOL     OW 1102   0.075   0.345   0.033
  179SOL    HW1 1103  -0.017   0.317   0.004
  179SOL    HW2 1104   0.106   0.422  -0.023
  180SOL     OW 1105   1.440   0.856   1.398
  180SOL    HW1 1106   1.383   0.908   1.335
  180SOL    HW2 1107   1.536   0.868   1.374
  181SOL     OW 1108   0.072   0.166   0.318
  181SOL    HW1 1109   0.055   0.249   0.264
  181SOL    HW2 1110   0.162   0.129   0.296
  182SOL     OW 1111   1.183   1.335   0.119
  182SOL    HW1 1112   1.084   1.324   0.121
  182SOL    HW2 1113   1.217   1.350   0.212
  183SOL     OW 1114   0.613   0.842   1.431
  183SOL    HW1 1115   0.669   0.923   1.414
  183SOL    HW2 1116   0.672   0.762   1.434
  184SOL     OW 1117   1.493   1.767   0.959
  184SOL    HW1 1118   1.526   1.831   0.890
  184SOL    HW2 1119   1.559   1.761   1.034
  185SOL     OW 1120   0.716   0.565   1.708
  185SOL    HW1 1121   0.735   0.630   1.782
  185SOL    HW2 1122   0.776   0.485   1.717
  186SOL     OW 1123   1.450   1.220   1.633
  186SOL    HW1 1124   1.441   1.210   1.732
  186SOL    HW2 1125   1.546   1.213   1.607
  187SOL     OW 1126   0.390   1.741   1.560
  187SOL    HW1 1127   0.299   1.782   1.558
  187SOL    HW2 1128   0.383   1.647   1.592
  188SOL     OW 1129   1.674   0.883   1.254
  188SOL    HW1 1130   1.647   0.794   1.217
  188SOL    HW2 1131   1.675   0.951   1.181
  189SOL     OW 1132   1.225   0.325   0.449
  189SOL    HW1 1133   1.290   0.251   0.438
  189SOL    HW2 1134   1.245   0.375   0.533
  190SOL     OW 1135   0.594   0.745   0.652
  190SOL    HW1 1136   0.644   0.830   0.633
  190SOL    HW2 1137   0.506   0.747   0.604
  191SOL     OW 1138   1.777   0.342   1.642
  191SOL    HW1 1139   1.760   0.373   1.548
  191SOL    HW2 1140   1.693   0.305   1.680
  192SOL     OW 1141   1.730   0.934   1.517
  192SOL    HW1 1142   1.768   1.025   1.532
  192SOL    HW2 1143   1.722   0.917   1.418
  193SOL     OW 1144   0.859   1.374   0.016
  193SOL    HW1 1145   0.813   1.389   0.104
  193SOL    HW2 1146   0.903   1.459  -0.014
  194SOL     OW 1147   0.661   1.790   0.953
  194SOL    HW1 1148   0.615   1.878   0.940
  194SOL    HW2 1149   0.760   1.802   0.946
  195SOL     OW 1150   0.859   0.956   0.861
  195SOL    HW1 1151   0.913   0.887   0.909
  195SOL    HW2 1152   0.827   1.025   0.927
  196SOL     OW 1153   1.083   0.984   0.087
  196SOL    HW1 1154   1.060   1.037   0.005
  196SOL    HW2 1155   1.164   0.928   0.068
  197SOL     OW 1156   1.861   1.569   0.851
  197SOL    HW1 1157   1.790   1.557   0.781
  197SOL    HW2 1158   1.862   1.490   0.911
  198SOL     OW 1159   0.221   1.314   1.844
  198SOL    HW1 1160   0.156   1.241   1.823
  198SOL    HW2 1161   0.225   1.328   1.942
  199SOL     OW 1162   0.079   1.240   0.653
  199SOL    HW1 1163   0.078   1.193   0.741
  199SOL    HW2 1164   0.161   1.212   0.602
  200SOL     OW 1165   0.672   1.391   1.624
  200SOL    HW1 1166   0.594   1.341   1.662
  200SOL    HW2 1167   0.669   1.486   1.655
  201SOL     OW 1168   1.824   0.192   1.227
  201SOL    HW1 1169   1.820   0.102   1.271
  201SOL    HW2 1170   1.827   0.181   1.128
  202SOL     OW 1171   0.428   0.424   0.520
  202SOL    HW1 1172   0.458   0.352   0.458
  202SOL    HW2 1173   0.389   0.384   0.603
  203SOL     OW 1174   1.705   1.487   1.104
  203SOL    HW1 1175   1.612   1.462   1.077
  203SOL    HW2 1176   1.731   1.437   1.186
  204SOL     OW 1177   0.317   0.547   1.280
  204SOL    HW1 1178   0.355   0.488   1.352
  204SOL    HW2 1179   0.357   0.521   1.192
  205SOL     OW 1180   0.812   1.586   0.687
  205SOL    HW1 1181   0.844   1.596   0.593
  205SOL    HW2 1182   0.733   1.524   0.689
  206SOL     OW 1183   1.424   0.214   1.112
  206SOL    HW1 1184   1.476   0.149   1.167
  206SOL    HW2 1185   1.375   0.277   1.173
  207SOL     OW 1186   1.001   0.034   1.154
  207SOL    HW1 1187   0.938  -0.038   1.123
  207SOL    HW2 1188   1.094  -0.002   1.154
  208SOL     OW 1189   0.770   1.330   0.301
  208SOL    HW1 1190   0.724   1.243   0.318
  208SOL    HW2 1191   0.861   1.327   0.342
  209SOL     OW 1192   0.618   1.567   1.284
  209SOL    HW1 1193   0.613   1.649   1.341
  209SOL    HW2 1194   0.707   1.564   1.239
  210SOL     OW 1195   1.352   0.052   0.168
  210SOL    HW1 1196   1.387   0.011   0.084
  210SOL    HW2 1197   1.262   0.014   0.188
  211SOL     OW 1198   1.300   0.453   0.691
  211SOL    HW1 1199   1.241   0.533   0.695
  211SOL    HW2 1200   1.315   0.418   0.784
  212SOL     OW 1201   1.593   0.221   0.882
  212SOL    HW1 1202   1.509   0.220   0.936
  212SOL    HW2 1203   1.595   0.304   0.826
  213SOL     OW 1204   0.039   1.077   0.300
  213SOL    HW1 1205   0.138   1.066   0.291
  213SOL    HW2 1206  -0.001   0.991   0.332
  214SOL     OW 1207   0.875   1.646   0.337
  214SOL    HW1 1208   0.798   1.611   0.283
  214SOL    HW2 1209   0.843   1.717   0.399
  215SOL     OW 1210   0.230   0.628   1.975
  215SOL    HW1 1211   0.137   0.626   2.012
  215SOL    HW2 1212   0.231   0.589   1.883
  216SOL     OW 1213   0.225   0.275   2.858
  216SOL    HW1 1214   0.260   0.258   2.950
  216SOL    HW2 1215   0.137   0.230   2.846
  217SOL     OW 1216   0.019   0.368   2.509
  217SOL    HW1 1217  -0.063   0.411   2.548
  217SOL    HW2 1218  -0.009   0.295   2.446
  218SOL     OW 1219   0.569   1.275   3.027
  218SOL    HW1 1220   0.476   1.268   2.990
  218SOL    HW2 1221   0.580   1.364   3.071
  219SOL     OW 1222   1.555   1.511   2.565
  219SOL    HW1 1223   1.498   1.495   2.646
  219SOL    HW2 1224   1.496   1.521   2.485
  220SOL     OW 1225   1.135   0.703   2.579
  220SOL    HW1 1226   1.192   0.781   2.554
  220SOL    HW2 1227   1.075   0.729   2.655
  221SOL     OW 1228   1.755   0.607   2.093
  221SOL    HW1 1229   1.743   0.594   1.994
  221SOL    HW2 1230   1.725   0.526   2.142
  222SOL     OW 1231   0.768   1.144   2.885
  222SOL    HW1 1232   0.690   1.161   2.945
  222SOL    HW2 1233   0.802   1.231   2.849
  223SOL     OW 1234   0.850   0.798   3.685
  223SOL    HW1 1235   0.846   0.874   3.750
  223SOL    HW2 1236   0.872   0.834   3.594
  224SOL     OW 1237   0.685   1.012   2.527
  224SOL    HW1 1238   0.754   0.996   2.597
  224SOL    HW2 1239   0.612   1.069   2.565
  225SOL     OW 1240   0.686   1.161   3.665
  225SOL    HW1 1241   0.746   1.240   3.679
  225SOL    HW2 1242   0.600   1.192   3.624
  226SOL     OW 1243   0.335   1.435   2.923
  226SOL    HW1 1244   0.257   1.404   2.870
  226SOL    HW2 1245   0.393   1.493   2.866
  227SOL     OW 1246   1.460   1.505   3.201
  227SOL    HW1 1247   1.484   1.599   3.227
  227SOL    HW2 1248   1.444   1.451   3.283
  228SOL     OW 1249   0.438   0.392   3.361
  228SOL    HW1 1250   0.520   0.336   3.370
  228SOL    HW2 1251   0.357   0.334   3.365
  229SOL     OW 1252   1.603   0.447   2.599
  229SOL    HW1 1253   1.529   0.493   2.549
  229SOL    HW2 1254   1.654   0.515   2.652
  230SOL     OW 1255   0.231   1.713   2.345
  230SOL    HW1 1256   0.265   1.790   2.399
  230SOL    HW2 1257   0.275   1.713   2.255
  231SOL     OW 1258   1.127   1.341   3.552
  231SOL    HW1 1259   1.174   1.341   3.640
  231SOL    HW2 1260   1.079   1.254   3.541
  232SOL     OW 1261   0.230   1.434   2.400
  232SOL    HW1 1262   0.204   1.530   2.400
  232SOL    HW2 1263   0.159   1.380   2.445
  233SOL     OW 1264   0.240   1.091   2.748
  233SOL    HW1 1265   0.254   1.007   2.800
  233SOL    HW2 1266   0.185   1.155   2.803
  234SOL     OW 1267   0.620   1.786   3.301
  234SOL    HW1 1268   0.528   1.769   3.336
  234SOL    HW2 1269   0.648   1.878   3.327
  235SOL     OW 1270   0.606   0.964   1.985
  235SOL    HW1 1271   0.613   1.048   1.931
  235SOL    HW2 1272   0.652   0.977   2.073
  236SOL     OW 1273   1.594   0.114   3.342
  236SOL    HW1 1274   1.576   0.181   3.270
  236SOL    HW2 1275   1.591   0.160   3.431
  237SOL     OW 1276   0.122   0.643   2.425
  237SOL    HW1 1277   0.077   0.555   2.442
  237SOL    HW2 1278   0.121   0.697   2.509
  238SOL     OW 1279   1.842   1.767   2.221
  238SOL    HW1 1280   1.896   1.738   2.301
  238SOL    HW2 1281   1.872   1.857   2.192
  239SOL     OW 1282   0.027   1.596   1.979
  239SOL    HW1 1283   0.008   1.500   2.000
  239SOL    HW2 1284  -0.006   1.654   2.054
  240SOL     OW 1285   1.689   0.922   2.474
  240SOL    HW1 1286   1.784   0.893   2.482
  240SOL    HW2 1287   1.681   0.987   2.399
  241SOL     OW 1288   1.641   1.108   2.294
  241SOL    HW1 1289   1.727   1.110   2.242
  241SOL    HW2 1290   1.655   1.155   2.382
  242SOL     OW 1291   0.113   0.737   3.459
  242SOL    HW1 1292   0.201   0.724   3.504
  242SOL    HW2 1293   0.100   0.834   3.437
  243SOL     OW 1294   0.613   1.365   2.588
  243SOL    HW1 1295   0.564   1.278   2.597
  243SOL    HW2 1296   0.590   1.408   2.501
  244SOL     OW 1297   1.293   1.228   3.285
  244SOL    HW1 1298   1.330   1.155   3.227
  244SOL    HW2 1299   1.345   1.233   3.370
  245SOL     OW 1300   0.809   0.004   2.364
  245SOL    HW1 1301   0.849   0.095   2.355
  245SOL    HW2 1302   0.709   0.012   2.370
  246SOL     OW 1303   0.197   0.976   3.126
  246SOL    HW1 1304   0.286   0.931   3.112
  246SOL    HW2 1305   0.124   0.911   3.107
  247SOL     OW 1306   1.525   0.999   2.052
  247SOL    HW1 1307   1.462   0.923   2.065
  247SOL    HW2 1308   1.573   1.017   2.138
  248SOL     OW 1309   1.187   1.792   3.478
  248SOL    HW1 1310   1.211   1.852   3.402
  248SOL    HW2 1311   1.194   1.697   3.448
  249SOL     OW 1312   0.317   0.251   3.663
  249SOL    HW1 1313   0.388   0.322   3.669
  249SOL    HW2 1314   0.229   0.290   3.691
  250SOL     OW 1315   1.466   1.417   2.815
  250SOL    HW1 1316   1.407   1.423   2.895
  250SOL    HW2 1317   1.451   1.329   2.769
  251SOL     OW 1318   1.667   1.714   2.434
  251SOL    HW1 1319   1.626   1.691   2.346
  251SOL    HW2 1320   1.649   1.640   2.499
  252SOL     OW 1321   0.598   0.729   2.132
  252SOL    HW1 1322   0.622   0.798   2.064
  252SOL    HW2 1323   0.520   0.762   2.186
  253SOL     OW 1324   1.281   0.345   2.806
  253SOL    HW1 1325   1.195   0.295   2.793
  253SOL    HW2 1326   1.343   0.291   2.862
  254SOL     OW 1327   1.576   1.662   2.169
  254SOL    HW1 1328   1.665   1.708   2.172
  254SOL    HW2 1329   1.555   1.638   2.074
  255SOL     OW 1330   0.807   0.605   3.327
  255SOL    HW1 1331   0.760   0.602   3.416
  255SOL    HW2 1332   0.756   0.550   3.261
  256SOL     OW 1333   1.394   0.469   3.536
  256SOL    HW1 1334   1.374   0.512   3.624
  256SOL    HW2 1335   1.472   0.407   3.545
  257SOL     OW 1336   0.973   0.890   3.434
  257SOL    HW1 1337   1.019   0.806   3.405
  257SOL    HW2 1338   0.917   0.924   3.359
  258SOL     OW 1339   0.991   0.410   3.104
  258SOL    HW1 1340   0.914   0.444   3.158
  258SOL    HW2 1341   0.957   0.359   3.025
  259SOL     OW 1342   1.041   0.701   2.291
  259SOL    HW1 1343   1.067   0.697   2.387
  259SOL    HW2 1344   0.956   0.650   2.277
  260SOL     OW 1345   0.076   0.811   2.651
  260SOL    HW1 1346   0.175   0.799   2.660
  260SOL    HW2 1347   0.052   0.906   2.672
  261SOL     OW 1348   0.130   1.821   3.433
  261SOL    HW1 1349   0.120   1.806   3.532
  261SOL    HW2 1350   0.044   1.857   3.397
  262SOL     OW 1351   0.865   0.348   2.057
  262SOL    HW1 1352   0.924   0.411   2.008
  262SOL    HW2 1353   0.884   0.254   2.028
  263SOL     OW 1354   1.719   0.585   3.693
  263SOL    HW1 1355   1.693   0.674   3.657
  263SOL    HW2 1356   1.717   0.517   3.620
  264SOL     OW 1357   1.362   1.144   2.407
  264SOL    HW1 1358   1.445   1.115   2.359
  264SOL    HW2 1359   1.313   1.211   2.351
  265SOL     OW 1360   0.550   0.196   2.747
  265SOL    HW1 1361   0.545   0.191   2.847
  265SOL    HW2 1362   0.552   0.292   2.718
  266SOL     OW 1363   1.008   1.456   2.339
  266SOL    HW1 1364   0.962   1.528   2.287
  266SOL    HW2 1365   1.004   1.476   2.437
  267SOL     OW 1366   0.351   1.801   2.715
  267SOL    HW1 1367   0.401   1.715   2.721
  267SOL    HW2 1368   0.416   1.878   2.712
  268SOL     OW 1369   1.795   1.066   2.735
  268SOL    HW1 1370   1.733   1.051   2.659
  268SOL    HW2 1371   1.743   1.077   2.820
  269SOL     OW 1372   1.227   1.550   3.368
  269SOL    HW1 1373   1.233   1.473   3.432
  269SOL    HW2 1374   1.175   1.524   3.288
  270SOL     OW 1375   0.321   0.943   2.104
  270SOL    HW1 1376   0.403   0.982   2.062
  270SOL    HW2 1377   0.294   0.861   2.055
  271SOL     OW 1378   1.458   0.735   2.590
  271SOL    HW1 1379   1.453   0.670   2.665
  271SOL    HW2 1380   1.538   0.794   2.603
  272SOL     OW 1381   0.461   1.266   3.589
  272SOL    HW1 1382   0.411   1.267   3.503
  272SOL    HW2 1383   0.398   1.248   3.665
  273SOL     OW 1384   1.111   1.776   2.099
  273SOL    HW1 1385   1.051   1.714   2.149
  273SOL    HW2 1386   1.142   1.732   2.014
  274SOL     OW 1387   0.202   0.285   3.360
  274SOL    HW1 1388   0.122   0.345   3.347
  274SOL    HW2 1389   0.192   0.236   3.446
  275SOL     OW 1390   1.632   1.377   1.943
  275SOL    HW1 1391   1.600   1.471   1.933
  275SOL    HW2 1392   1.556   1.314   1.931
  276SOL     OW 1393   0.464   1.743   2.185
  276SOL    HW1 1394   0.497   1.782   2.271
  276SOL    HW2 1395   0.540   1.736   2.120
  277SOL     OW 1396   1.400   0.107   2.288
  277SOL    HW1 1397   1.376   0.070   2.198
  277SOL    HW2 1398   1.499   0.123   2.292
  278SOL     OW 1399   0.249   1.785   3.103
  278SOL    HW1 1400   0.306   1.720   3.153
  278SOL    HW2 1401   0.233   1.752   3.010
  279SOL     OW 1402   0.940   1.698   2.766
  279SOL    HW1 1403   1.020   1.641   2.787
  279SOL    HW2 1404   0.891   1.658   2.689
  280SOL     OW 1405   0.382   0.700   2.342
  280SOL    HW1 1406   0.427   0.610   2.339
  280SOL    HW2 1407   0.288   0.689   2.375
  281SOL     OW 1408   1.547   0.222   3.591
  281SOL    HW1 1409   1.542   0.259   3.683
  281SOL    HW2 1410   1.475   0.153   3.579
  282SOL     OW 1411   0.614   0.122   1.979
  282SOL    HW1 1412   0.712   0.100   1.986
  282SOL    HW2 1413   0.583   0.105   1.886
  283SOL     OW 1414   0.781   0.264   3.611
  283SOL    HW1 1415   0.848   0.203   3.654
  283SOL    HW2 1416   0.708   0.283   3.676
  284SOL     OW 1417   0.888   1.514   3.057
  284SOL    HW1 1418   0.865   1.489   2.963
  284SOL    HW2 1419   0.949   1.445   3.096
  285SOL     OW 1420   1.351   0.590   3.295
  285SOL    HW1 1421   1.379   0.547   3.380
  285SOL    HW2 1422   1.376   0.686   3.296
  286SOL     OW 1423   0.803   1.402   2.786
  286SOL    HW1 1424   0.893   1.416   2.744
  286SOL    HW2 1425   0.732   1.404   2.715
  287SOL     OW 1426   0.922   0.503   2.761
  287SOL    HW1 1427   0.897   0.494   2.665
  287SOL    HW2 1428   0.970   0.421   2.792
  288SOL     OW 1429   0.539   0.064   2.374
  288SOL    HW1 1430   0.458   0.065   2.432
  288SOL    HW2 1431   0.542   0.147   2.319
  289SOL     OW 1432   1.434   1.188   1.903
  289SOL    HW1 1433   1.466   1.112   1.960
  289SOL    HW2 1434   1.342   1.215   1.933
  290SOL     OW 1435   0.297   0.035   2.033
  290SOL    HW1 1436   0.346   0.119   2.012
  290SOL    HW2 1437   0.359  -0.030   2.078
  291SOL     OW 1438   0.935   0.236   2.342
  291SOL    HW1 1439   0.887   0.277   2.264
  291SOL    HW2 1440   1.034   0.234   2.323
  292SOL     OW 1441   1.076   0.683   3.326
  292SOL    HW1 1442   0.996   0.622   3.329
  292SOL    HW2 1443   1.157   0.630   3.302
  293SOL     OW 1444   1.227   1.570   2.655
  293SOL    HW1 1445   1.248   1.644   2.590
  293SOL    HW2 1446   1.295   1.570   2.728
  294SOL     OW 1447   0.459   1.152   2.603
  294SOL    HW1 1448   0.388   1.125   2.668
  294SOL    HW2 1449   0.433   1.124   2.510
  295SOL     OW 1450   1.271   1.797   2.453
  295SOL    HW1 1451   1.315   1.861   2.389
  295SOL    HW2 1452   1.221   1.849   2.523
  296SOL     OW 1453   1.032   0.549   1.878
  296SOL    HW1 1454   0.991   0.631   1.839
  296SOL    HW2 1455   1.096   0.575   1.951
  297SOL     OW 1456   0.078   0.556   3.248
  297SOL    HW1 1457   0.170   0.555   3.207
  297SOL    HW2 1458   0.072   0.630   3.315
  298SOL     OW 1459   0.561   0.222   3.009
  298SOL    HW1 1460   0.599   0.138   3.046
  298SOL    HW2 1461   0.473   0.241   3.053
  299SOL     OW 1462   0.866   0.454   2.504
  299SOL    HW1 1463   0.834   0.526   2.442
  299SOL    HW2 1464   0.890   0.373   2.451
  300SOL     OW 1465   1.017   0.039   2.615
  300SOL    HW1 1466   0.945   0.044   2.546
  300SOL    HW2 1467   0.993  -0.030   2.684
  301SOL     OW 1468   1.429   1.173   2.729
  301SOL    HW1 1469   1.374   1.089   2.722
  301SOL    HW2 1470   1.455   1.202   2.637
  302SOL     OW 1471   1.466   0.590   2.854
  302SOL    HW1 1472   1.436   0.495   2.861
  302SOL    HW2 1473   1.539   0.606   2.920
  303SOL     OW 1474   1.857   0.833   2.239
  303SOL    HW1 1475   1.899   0.769   2.303
  303SOL    HW2 1476   1.819   0.782   2.161
  304SOL     OW 1477   0.488   1.385   2.036
  304SOL    HW1 1478   0.401   1.370   2.083
  304SOL    HW2 1479   0.471   1.411   1.941
  305SOL     OW 1480   1.664   1.280   2.519
  305SOL    HW1 1481   1.763   1.288   2.533
  305SOL    HW2 1482   1.619   1.364   2.550
  306SOL     OW 1483   1.390   0.575   1.940
  306SOL    HW1 1484   1.336   0.554   2.021
  306SOL    HW2 1485   1.481   0.534   1.949
  307SOL     OW 1486   0.527   0.256   2.190
  307SOL    HW1 1487   0.554   0.197   2.115
  307SOL    HW2 1488   0.527   0.351   2.159
  308SOL     OW 1489   1.754   1.223   3.450
  308SOL    HW1 1490   1.845   1.184   3.437
  308SOL    HW2 1491   1.762   1.319   3.474
  309SOL     OW 1492   1.064   1.347   3.202
  309SOL    HW1 1493   0.984   1.324   3.257
  309SOL    HW2 1494   1.147   1.321   3.251
  310SOL     OW 1495   1.592   1.629   3.487
  310SOL    HW1 1496   1.619   1.663   3.397
  310SOL    HW2 1497   1.671   1.591   3.533
  311SOL     OW 1498   1.111   1.195   2.962
  311SOL    HW1 1499   1.071   1.239   3.043
  311SOL    HW2 1500   1.070   1.232   2.879
  312SOL     OW 1501   1.638   1.099   2.941
  312SOL    HW1 1502   1.643   1.180   3.000
  312SOL    HW2 1503   1.552   1.101   2.890
  313SOL     OW 1504   0.915   0.089   3.264
  313SOL    HW1 1505   0.940   0.069   3.169
  313SOL    HW2 1506   0.987   0.145   3.306
  314SOL     OW 1507   0.980   1.116   3.581
  314SOL    HW1 1508   0.881   1.122   3.591
  314SOL    HW2 1509   1.003   1.036   3.525
  315SOL     OW 1510   0.705   1.050   2.230
  315SOL    HW1 1511   0.691   1.057   2.329
  315SOL    HW2 1512   0.789   0.999   2.212
  316SOL     OW 1513   0.410   0.813   3.113
  316SOL    HW1 1514   0.496   0.825   3.163
  316SOL    HW2 1515   0.368   0.726   3.140
  317SOL     OW 1516   1.274   0.386   3.124
  317SOL    HW1 1517   1.295   0.460   3.188
  317SOL    HW2 1518   1.185   0.403   3.081
  318SOL     OW 1519   0.064   1.564   3.193
  318SOL    HW1 1520   0.018   1.646   3.159
  318SOL    HW2 1521   0.162   1.583   3.202
  319SOL     OW 1522   0.367   1.100   2.363
  319SOL    HW1 1523   0.360   1.183   2.307
  319SOL    HW2 1524   0.371   1.020   2.303
  320SOL     OW 1525   0.566   0.537   2.727
  320SOL    HW1 1526   0.578   0.603   2.653
  320SOL    HW2 1527   0.612   0.571   2.810
  321SOL     OW 1528   1.252   1.348   2.250
  321SOL    HW1 1529   1.302   1.425   2.290
  321SOL    HW2 1530   1.157   1.350   2.282
  322SOL     OW 1531   1.272   1.445   3.004
  322SOL    HW1 1532   1.319   1.458   3.091
  322SOL    HW2 1533   1.206   1.371   3.013
  323SOL     OW 1534   1.582   0.639   2.334
  323SOL    HW1 1535   1.551   0.700   2.407
  323SOL    HW2 1536   1.632   0.691   2.265
  324SOL     OW 1537   0.354   1.510   3.191
  324SOL    HW1 1538   0.333   1.466   3.104
  324SOL    HW2 1539   0.451   1.536   3.194
  325SOL     OW 1540   0.402   0.751   3.460
  325SOL    HW1 1541   0.470   0.806   3.413
  325SOL    HW2 1542   0.442   0.663   3.487
  326SOL     OW 1543   1.587   0.779   3.532
  326SOL    HW1 1544   1.495   0.817   3.527
  326SOL    HW2 1545   1.647   0.826   3.467
  327SOL     OW 1546   1.013   0.105   3.632
  327SOL    HW1 1547   1.019   0.190   3.580
  327SOL    HW2 1548   1.045   0.029   3.575
  328SOL     OW 1549   0.504   0.050   3.602
  328SOL    HW1 1550   0.462  -0.007   3.532
  328SOL    HW2 1551   0.438   0.119   3.634
  329SOL     OW 1552   0.573   0.870   2.891
  329SOL    HW1 1553   0.617   0.959   2.882
  329SOL    HW2 1554   0.510   0.870   2.968
  330SOL     OW 1555   1.360   0.862   2.907
  330SOL    HW1 1556   1.285   0.862   2.841
  330SOL    HW2 1557   1.397   0.770   2.916
  331SOL     OW 1558   1.209   0.525   2.137
  331SOL    HW1 1559   1.222   0.441   2.191
  331SOL    HW2 1560   1.180   0.599   2.197
  332SOL     OW 1561   0.307   0.213   3.093
  332SOL    HW1 1562   0.284   0.250   3.183
  332SOL    HW2 1563   0.277   0.118   3.087
  333SOL     OW 1564   0.037   1.310   3.144
  333SOL    HW1 1565   0.090   1.261   3.212
  333SOL    HW2 1566   0.059   1.408   3.149
  334SOL     OW 1567   0.732   0.634   2.926
  334SOL    HW1 1568   0.791   0.608   2.850
  334SOL    HW2 1569   0.704   0.730   2.915
  335SOL     OW 1570   1.728   0.935   3.716
  335SOL    HW1 1571   1.682   0.928   3.627
  335SOL    HW2 1572   1.666   0.979   3.782
  336SOL     OW 1573   0.307   0.063   2.480
  336SOL    HW1 1574   0.296   0.157   2.513
  336SOL    HW2 1575   0.302   0.000   2.557
  337SOL     OW 1576   1.622   0.367   2.236
  337SOL    HW1 1577   1.624   0.291   2.300
  337SOL    HW2 1578   1.574   0.444   2.276
  338SOL     OW 1579   1.023   0.766   2.828
  338SOL    HW1 1580   1.038   0.787   2.924
  338SOL    HW2 1581   0.993   0.671   2.819
  339SOL     OW 1582   0.980   1.573   3.562
  339SOL    HW1 1583   0.960   1.617   3.474
  339SOL    HW2 1584   1.019   1.482   3.546
  340SOL     OW 1585   1.859   1.518   3.467
  340SOL    HW1 1586   1.873   1.545   3.372
  340SOL    HW2 1587   1.942   1.540   3.520
  341SOL     OW 1588   0.350   0.898   3.666
  341SOL    HW1 1589   0.426   0.942   3.714
  341SOL    HW2 1590   0.385   0.851   3.584
  342SOL     OW 1591   1.540   0.274   1.987
  342SOL    HW1 1592   1.479   0.199   2.010
  342SOL    HW2 1593   1.562   0.326   2.070
  343SOL     OW 1594   1.303   0.838   1.904
  343SOL    HW1 1595   1.337   0.745   1.919
  343SOL    HW2 1596   1.321   0.865   1.809
  344SOL     OW 1597   1.068   1.333   2.711
  344SOL    HW1 1598   1.075   1.249   2.656
  344SOL    HW2 1599   1.130   1.402   2.675
  345SOL     OW 1600   0.319   0.810   2.811
  345SOL    HW1 1601   0.412   0.846   2.816
  345SOL    HW2 1602   0.313   0.725   2.863
  346SOL     OW 1603   0.339   0.509   2.868
  346SOL    HW1 1604   0.287   0.426   2.851
  346SOL    HW2 1605   0.416   0.514   2.804
  347SOL     OW 1606   1.138   0.380   3.540
  347SOL    HW1 1607   1.093   0.443   3.604
  347SOL    HW2 1608   1.231   0.411   3.523
  348SOL     OW 1609   1.160   0.207   3.339
  348SOL    HW1 1610   1.160   0.271   3.416
  348SOL    HW2 1611   1.188   0.255   3.256
  349SOL     OW 1612   0.008   1.326   2.062
  349SOL    HW1 1613  -0.085   1.347   2.031
  349SOL    HW2 1614   0.018   1.227   2.075
  350SOL     OW 1615   0.088   1.801   2.789
  350SOL    HW1 1616   0.046   1.715   2.762
  350SOL    HW2 1617   0.182   1.804   2.755
  351SOL     OW 1618   0.504   1.568   2.772
  351SOL    HW1 1619   0.570   1.642   2.781
  351SOL    HW2 1620   0.548   1.489   2.730
  352SOL     OW 1621   1.002   0.796   3.100
  352SOL    HW1 1622   1.043   0.764   3.186
  352SOL    HW2 1623   0.906   0.769   3.097
  353SOL     OW 1624   0.040   0.544   2.976
  353SOL    HW1 1625   0.125   0.511   2.935
  353SOL    HW2 1626   0.053   0.559   3.074
  354SOL     OW 1627   0.189   0.520   3.584
  354SOL    HW1 1628   0.248   0.480   3.514
  354SOL    HW2 1629   0.131   0.591   3.543
  355SOL     OW 1630   1.369   0.950   3.522
  355SOL    HW1 1631   1.408   1.039   3.542
  355SOL    HW2 1632   1.379   0.930   3.425
  356SOL     OW 1633   0.815   0.572   2.187
  356SOL    HW1 1634   0.822   0.483   2.141
  356SOL    HW2 1635   0.721   0.606   2.179
  357SOL     OW 1636   1.657   0.604   3.068
  357SOL    HW1 1637   1.619   0.535   3.130
  357SOL    HW2 1638   1.739   0.568   3.024
  358SOL     OW 1639   0.252   1.564   3.606
  358SOL    HW1 1640   0.222   1.621   3.682
  358SOL    HW2 1641   0.245   1.467   3.632
  359SOL     OW 1642   0.671   0.464   3.131
  359SOL    HW1 1643   0.637   0.375   3.101
  359SOL    HW2 1644   0.697   0.518   3.051
  360SOL     OW 1645   0.930   1.678   3.327
  360SOL    HW1 1646   0.906   1.660   3.232
  360SOL    HW2 1647   0.960   1.772   3.337
  361SOL     OW 1648   0.473   0.500   2.053
  361SOL    HW1 1649   0.534   0.580   2.057
  361SOL    HW2 1650   0.378   0.531   2.060
  362SOL     OW 1651   0.159   1.137   3.328
  362SOL    HW1 1652   0.181   1.076   3.404
  362SOL    HW2 1653   0.169   1.088   3.242
  363SOL     OW 1654   1.347   1.059   3.096
  363SOL    HW1 1655   1.371   0.996   3.022
  363SOL    HW2 1656   1.257   1.099   3.078
  364SOL     OW 1657   1.302   0.855   2.171
  364SOL    HW1 1658   1.216   0.824   2.213
  364SOL    HW2 1659   1.298   0.841   2.072
  365SOL     OW 1660   1.759   1.747   3.016
  365SOL    HW1 1661   1.820   1.777   2.943
  365SOL    HW2 1662   1.721   1.658   2.994
  366SOL     OW 1663   1.252   1.731   2.990
  366SOL    HW1 1664   1.336   1.736   2.936
  366SOL    HW2 1665   1.229   1.635   3.008
  367SOL     OW 1666   0.083   1.258   2.884
  367SOL    HW1 1667   0.078   1.257   2.984
  367SOL    HW2 1668   0.000   1.217   2.846
  368SOL     OW 1669   0.688   1.662   3.578
  368SOL    HW1 1670   0.632   1.743   3.587
  368SOL    HW2 1671   0.740   1.666   3.492
  369SOL     OW 1672   1.726   0.135   2.385
  369SOL    HW1 1673   1.799   0.118   2.318
  369SOL    HW2 1674   1.695   0.048   2.423
  370SOL     OW 1675   1.388   1.573   2.339
  370SOL    HW1 1676   1.455   1.585   2.265
  370SOL    HW2 1677   1.348   1.662   2.362
  371SOL     OW 1678   0.130   1.794   3.713
  371SOL    HW1 1679   0.089   1.720   3.766
  371SOL    HW2 1680   0.194   1.845   3.771
  372SOL     OW 1681   1.280   0.927   2.534
  372SOL    HW1 1682   1.340   0.846   2.536
  372SOL    HW2 1683   1.320   0.996   2.474
  373SOL     OW 1684   0.830   1.273   3.284
  373SOL    HW1 1685   0.825   1.306   3.379
  373SOL    HW2 1686   0.744   1.292   3.238
  374SOL     OW 1687   0.672   1.616   2.016
  374SOL    HW1 1688   0.681   1.626   1.917
  374SOL    HW2 1689   0.632   1.527   2.037
  375SOL     OW 1690   1.650   1.720   3.256
  375SOL    HW1 1691   1.703   1.730   3.172
  375SOL    HW2 1692   1.623   1.810   3.290
  376SOL     OW 1693   1.841   0.175   2.825
  376SOL    HW1 1694   1.880   0.090   2.789
  376SOL    HW2 1695   1.743   0.177   2.806
  377SOL     OW 1696   0.263   0.326   2.582
  377SOL    HW1 1697   0.184   0.377   2.548
  377SOL    HW2 1698   0.254   0.311   2.680
  378SOL     OW 1699   1.194   1.612   1.893
  378SOL    HW1 1700   1.200   1.519   1.930
  378SOL    HW2 1701   1.135   1.612   1.813
  379SOL     OW 1702   0.822   1.002   3.234
  379SOL    HW1 1703   0.862   1.001   3.142
  379SOL    HW2 1704   0.832   1.094   3.274
  380SOL     OW 1705   0.916   0.910   2.153
  380SOL    HW1 1706   0.979   0.948   2.085
  380SOL    HW2 1707   0.956   0.827   2.192
  381SOL     OW 1708   1.504   1.607   1.906
  381SOL    HW1 1709   1.412   1.644   1.913
  381SOL    HW2 1710   1.542   1.627   1.816
  382SOL     OW 1711   0.372   1.288   3.352
  382SOL    HW1 1712   0.359   1.381   3.318
  382SOL    HW2 1713   0.288   1.236   3.339
  383SOL     OW 1714   1.614   1.292   3.151
  383SOL    HW1 1715   1.674   1.295   3.231
  383SOL    HW2 1716   1.539   1.356   3.164
  384SOL     OW 1717   1.039   1.098   2.558
  384SOL    HW1 1718   0.969   1.051   2.612
  384SOL    HW2 1719   1.098   1.030   2.515
  385SOL     OW 1720   1.014   0.236   2.833
  385SOL    HW1 1721   1.006   0.200   2.740
  385SOL    HW2 1722   1.012   0.160   2.898
  386SOL     OW 1723   0.590   1.487   2.353
  386SOL    HW1 1724   0.632   1.429   2.283
  386SOL    HW2 1725   0.546   1.566   2.309
  387SOL     OW 1726   1.709   0.385   3.243
  387SOL    HW1 1727   1.782   0.454   3.247
  387SOL    HW2 1728   1.737   0.310   3.184
  388SOL     OW 1729   0.255   1.348   2.152
  388SOL    HW1 1730   0.159   1.349   2.125
  388SOL    HW2 1731   0.267   1.401   2.236
  389SOL     OW 1732   0.105   1.013   3.588
  389SOL    HW1 1733   0.028   0.980   3.642
  389SOL    HW2 1734   0.190   0.983   3.630
  390SOL     OW 1735   0.672   0.203   3.351
  390SOL    HW1 1736   0.762   0.187   3.311
  390SOL    HW2 1737   0.680   0.208   3.450
  391SOL     OW 1738   0.075   0.345   1.895
  391SOL    HW1 1739  -0.017   0.317   1.866
  391SOL    HW2 1740   0.106   0.422   1.839
  392SOL     OW 1741   1.440   0.856   3.260
  392SOL    HW1 1742   1.383   0.908   3.197
  392SOL    HW2 1743   1.536   0.868   3.236
  393SOL     OW 1744   0.072   0.166   2.180
  393SOL    HW1 1745   0.055   0.249   2.126
  393SOL    HW2 1746   0.162   0.129   2.158
  394SOL     OW 1747   1.183   1.335   1.981
  394SOL    HW1 1748   1.084   1.324   1.983
  394SOL    HW2 1749   1.217   1.350   2.074
  395SOL     OW 1750   0.613   0.842   3.293
  395SOL    HW1 1751   0.669   0.923   3.276
  395SOL    HW2 1752   0.672   0.762   3.296
  396SOL     OW 1753   1.493   1.767   2.821
  396SOL    HW1 1754   1.526   1.831   2.752
  396SOL    HW2 1755   1.559   1.761   2.896
  397SOL     OW 1756   0.716   0.565   3.570
  397SOL    HW1 1757   0.735   0.630   3.644
  397SOL    HW2 1758   0.776   0.485   3.579
  398SOL     OW 1759   1.450   1.220   3.495
  398SOL    HW1 1760   1.441   1.210   3.594
  398SOL    HW2 1761   1.546   1.213   3.469
  399SOL     OW 1762   0.390   1.741   3.422
  399SOL    HW1 1763   0.299   1.782   3.420
  399SOL    HW2 1764   0.383   1.647   3.454
  400SOL     OW 1765   1.674   0.883   3.116
  400SOL    HW1 1766   1.647   0.794   3.079
  400SOL    HW2 1767   1.675   0.951   3.043
  401SOL     OW 1768   1.225   0.325   2.311
  401SOL    HW1 1769   1.290   0.251   2.300
  401SOL    HW2 1770   1.245   0.375   2.395
  402SOL     OW 1771   0.594   0.745   2.514
  402SOL    HW1 1772   0.644   0.830   2.495
  402SOL    HW2 1773   0.506   0.747   2.466
  403SOL     OW 1774   1.777   0.342   3.504
  403SOL    HW1 1775   1.760   0.373   3.410
  403SOL    HW2 1776   1.693   0.305   3.542
  404SOL     OW 1777   1.730   0.934   3.379
  404SOL    HW1 1778   1.768   1.025   3.394
  404SOL    HW2 1779   1.722   0.917   3.280
  405SOL     OW 1780   0.859   1.374   1.878
  405SOL    HW1 1781   0.813   1.389   1.966
  405SOL    HW2 1782   0.903   1.459   1.848
  406SOL     OW 1783   0.661   1.790   2.815
  406SOL    HW1 1784   0.615   1.878   2.802
  406SOL    HW2 1785   0.760   1.802   2.808
  407SOL     OW 1786   0.859   0.956   2.723
  407SOL    HW1 1787   0.913   0.887   2.771
  407SOL    HW2 1788   0.827   1.025   2.789
  408SOL     OW 1789   1.083   0.984   1.949
  408SOL    HW1 1790   1.060   1.037   1.867
  408SOL    HW2 1791   1.164   0.928   1.930
  409SOL     OW 1792   1.861   1.569   2.713
  409SOL    HW1 1793   1.790   1.557   2.643
  409SOL    HW2 1794   1.862   1.490   2.773
  410SOL     OW 1795   0.221   1.314   3.706
  410SOL    HW1 1796   0.156   1.241   3.685
  410SOL    HW2 1797   0.225   1.328   3.804
  411SOL     OW 1798   0.079   1.240   2.515
  411SOL    HW1 1799   0.078   1.193   2.603
  411SOL    HW2 1800   0.161   1.212   2.464
  412SOL     OW 1801   0.672   1.391   3.486
  412SOL    HW1 1802   0.594   1.341   3.524
  412SOL    HW2 1803   0.669   1.486   3.517
  413SOL     OW 1804   1.824   0.192   3.089
  413SOL    HW1 1805   1.820   0.102   3.133
  413SOL    HW2 1806   1.827   0.181   2.990
  414SOL     OW 1807   0.428   0.424   2.382
  414SOL    HW1 1808   0.458   0.352   2.320
  414SOL    HW2 1809   0.389   0.384   2.465
  415SOL     OW 1810   1.705   1.487   2.966
  415SOL    HW1 1811   1.612   1.462   2.939
  415SOL    HW2 1812   1.731   1.437   3.048
  416SOL     OW 1813   0.317   0.547   3.142
  416SOL    HW1 1814   0.355   0.488   3.214
  416SOL    HW2 1815   0.357   0.521   3.054
  417SOL     OW 1816   0.812   1.586   2.549
  417SOL    HW1 1817   0.844   1.596   2.455
  417SOL    HW2 1818   0.733   1.524   2.551
  418SOL     OW 1819   1.424   0.214   2.974
  418SOL    HW1 1820   1.476   0.149   3.029
  418SOL    HW2 1821   1.375   0.277   3.035
  419SOL     OW 1822   1.001   0.034   3.016
  419SOL    HW1 1823   0.938  -0.038   2.985
  419SOL    HW2 1824   1.094  -0.002   3.016
  420SOL     OW 1825   0.770   1.330   2.163
  420SOL    HW1 1826   0.724   1.243   2.180
  420SOL    HW2 1827   0.861   1.327   2.204
  421SOL     OW 1828   0.618   1.567   3.146
  421SOL    HW1 1829   0.613   1.649   3.203
  421SOL    HW2 1830   0.707   1.564   3.101
  422SOL     OW 1831   1.352   0.052   2.030
  422SOL    HW1 1832   1.387   0.011   1.946
  422SOL    HW2 1833   1.262   0.014   2.050
  423SOL     OW 1834   1.300   0.453   2.553
  423SOL    HW1 1835   1.241   0.533   2.557
  423SOL    HW2 1836   1.315   0.418   2.646
  424SOL     OW 1837   1.593   0.221   2.744
  424SOL    HW1 1838   1.509   0.220   2.798
  424SOL    HW2 1839   1.595   0.304   2.688
  425SOL     OW 1840   0.039   1.077   2.162
  425SOL    HW1 1841   0.138   1.066   2.153
  425SOL    HW2 1842  -0.001   0.991   2.194
  426SOL     OW 1843   0.875   1.646   2.199
  426SOL    HW1 1844   0.798   1.611   2.145
  426SOL    HW2 1845   0.843   1.717   2.261
  427SOL     OW 1846   0.230   0.628   3.837
  427SOL    HW1 1847   0.137   0.626   3.874
  427SOL    HW2 1848   0.231   0.589   3.745
  428SOL     OW 1849   0.225   0.275   4.720
  428SOL    HW1 1850   0.260   0.258   4.812
  428SOL    HW2 1851   0.137   0.230   4.708
  429SOL     OW 1852   0.019   0.368   4.371
  429SOL    HW1 1853  -0.063   0.411   4.410
  429SOL    HW2 1854  -0.009   0.295   4.308
  430SOL     OW 1855   0.569   1.275   4.889
  430SOL    HW1 1856   0.476   1.268   4.852
  430SOL    HW2 1857   0.580   1.364   4.933
  431SOL     OW 1858   1.555   1.511   4.427
  431SOL    HW1 1859   1.498   1.495   4.508
  431SOL    HW2 1860   1.496   1.521   4.347
  432SOL     OW 1861   1.135   0.703   4.441
  432SOL    HW1 1862   1.192   0.781   4.416
  432SOL    HW2 1863   1.075   0.729   4.517
  433SOL     OW 1864   1.755   0.607   3.955
  433SOL    HW1 1865   1.743   0.594   3.856
  433SOL    HW2 1866   1.725   0.526   4.004
  434SOL     OW 1867   0.768   1.144   4.747
  434SOL    HW1 1868   0.690   1.161   4.807
  434SOL    HW2 1869   0.802   1.231   4.711
  435SOL     OW 1870   0.850   0.798   5.547
  435SOL    HW1 1871   0.846   0.874   5.612
  435SOL    HW2 1872   0.872   0.834   5.456
  436SOL     OW 1873   0.685   1.012   4.389
  436SOL    HW1 1874   0.754   0.996   4.459
  436SOL    HW2 1875   0.612   1.069   4.427
  437SOL     OW 1876   0.686   1.161   5.527
  437SOL    HW1 1877   0.746   1.240   5.541
  437SOL    HW2 1878   0.600   1.192   5.486
  438SOL     OW 1879   0.335   1.435   4.785
  438SOL    HW1 1880   0.257   1.404   4.732
  438SOL    HW2 1881   0.393   1.493   4.728
  439SOL     OW 1882   1.460   1.505   5.063
  439SOL    HW1 1883   1.484   1.599   5.089
  439SOL    HW2 1884   1.444   1.451   5.145
  440SOL     OW 1885   0.438   0.392   5.223
  440SOL    HW1 1886   0.520   0.336   5.232
  440SOL    HW2 1887   0.357   0.334   5.227
  441SOL     OW 1888   1.603   0.447   4.461
  441SOL    HW1 1889   1.529   0.493   4.411
  441SOL    HW2 1890   1.654   0.515   4.514
  442SOL     OW 1891   0.231   1.713   4.207
  442SOL    HW1 1892   0.265   1.790   4.261
  442SOL    HW2 1893   0.275   1.713   4.117
  443SOL     OW 1894   1.127   1.341   5.414
  443SOL    HW1 1895   1.174   1.341   5.502
  443SOL    HW2 1896   1.079   1.254   5.403
  444SOL     OW 1897   0.230   1.434   4.262
  444SOL    HW1 1898   0.204   1.530   4.262
  444SOL    HW2 1899   0.159   1.380   4.307
  445SOL     OW 1900   0.240   1.091   4.610
  445SOL    HW1 1901   0.254   1.007   4.662
  445SOL    HW2 1902   0.185   1.155   4.665
  446SOL     OW 1903   0.620   1.786   5.163
  446SOL    HW1 1904   0.528   1.769   5.198
  446SOL    HW2 1905   0.648   1.878   5.189
  447SOL     OW 1906   0.606   0.964   3.847
  447SOL    HW1 1907   0.613   1.048   3.793
  447SOL    HW2 1908   0.652   0.977   3.935
  448SOL     OW 1909   1.594   0.114   5.204
  448SOL    HW1 1910   1.576   0.181   5.132
  448SOL    HW2 1911   1.591   0.160   5.293
  449SOL     OW 1912   0.122   0.643   4.287
  449SOL    HW1 1913   0.077   0.555   4.304
  449SOL    HW2 1914   0.121   0.697   4.371
  450SOL     OW 1915   1.842   1.767   4.083
  450SOL    HW1 1916   1.896   1.738   4.163
  450SOL    HW2 1917   1.872   1.857   4.054
  451SOL     OW 1918   0.027   1.596   3.841
  451SOL    HW1 1919   0.008   1.500   3.862
  451SOL    HW2 1920  -0.006   1.654   3.916
  452SOL     OW 1921   1.689   0.922   4.336
  452SOL    HW1 1922   1.784   0.893   4.344
  452SOL    HW2 1923   1.681   0.987   4.261
  453SOL     OW 1924   1.641   1.108   4.156
  453SOL    HW1 1925   1.727   1.110   4.104
  453SOL    HW2 1926   1.655   1.155   4.244
  454SOL     OW 1927   0.113   0.737   5.321
  454SOL    HW1 1928   0.201   0.724   5.366
  454SOL    HW2 1929   0.100   0.834   5.299
  455SOL     OW 1930   0.613   1.365   4.450
  455SOL    HW1 1931   0.564   1.278   4.459
  455SOL    HW2 1932   0.590   1.408   4.363
  456SOL     OW 1933   1.293   1.228   5.147
  456SOL    HW1 1934   1.330   1.155   5.089
  456SOL    HW2 1935   1.345   1.233   5.232
  457SOL     OW 1936   0.809   0.004   4.226
  457SOL    HW1 1937   0.849   0.095   4.217
  457SOL    HW2 1938   0.709   0.012   4.232
  458SOL     OW 1939   0.197   0.976   4.988
  458SOL    HW1 1940   0.286   0.931   4.974
  458SOL    HW2 1941   0.124   0.911   4.969
  459SOL     OW 1942   1.525   0.999   3.914
  459SOL    HW1 1943   1.462   0.923   3.927
  459SOL    HW2 1944   1.573   1.017   4.000
  460SOL     OW 1945   1.187   1.792   5.340
  460SOL    HW1 1946   1.211   1.852   5.264
  460SOL    HW2 1947   1.194   1.697   5.310
  461SOL     OW 1948   0.317   0.251   5.525
  461SOL    HW1 1949   0.388   0.322   5.531
  461SOL    HW2 1950   0.229   0.290   5.553
  462SOL     OW 1951   1.466   1.417   4.677
  462SOL    HW1 1952   1.407   1.423   4.757
  462SOL    HW2 1953   1.451   1.329   4.631
  463SOL     OW 1954   1.667   1.714   4.296
  463SOL    HW1 1955   1.626   1.691   4.208
  463SOL    HW2 1956   1.649   1.640   4.361
  464SOL     OW 1957   0.598   0.729   3.994
  464SOL    HW1 1958   0.622   0.798   3.926
  464SOL    HW2 1959   0.520   0.762   4.048
  465SOL     OW 1960   1.281   0.345   4.668
  465SOL    HW1 1961   1.195   0.295   4.655
  465SOL    HW2 1962   1.343   0.291   4.724
  466SOL     OW 1963   1.576   1.662   4.031
  466SOL    HW1 1964   1.665   1.708   4.034
  466SOL    HW2 1965   1.555   1.638   3.936
  467SOL     OW 1966   0.807   0.605   5.189
  467SOL    HW1 1967   0.760   0.602   5.278
  467SOL    HW2 1968   0.756   0.550   5.123
  468SOL     OW 1969   1.394   0.469   5.398
  468SOL    HW1 1970   1.374   0.512   5.486
  468SOL    HW2 1971   1.472   0.407   5.407
  469SOL     OW 1972   0.973   0.890   5.296
  469SOL    HW1 1973   1.019   0.806   5.267
  469SOL    HW2 1974   0.917   0.924   5.221
  470SOL     OW 1975   0.991   0.410   4.966
  470SOL    HW1 1976   0.914   0.444   5.020
  470SOL    HW2 1977   0.957   0.359   4.887
  471SOL     OW 1978   1.041   0.701   4.153
  471SOL    HW1 1979   1.067   0.697   4.249
  471SOL    HW2 1980   0.956   0.650   4.139
  472SOL     OW 1981   0.076   0.811   4.513
  472SOL    HW1 1982   0.175   0.799   4.522
  472SOL    HW2 1983   0.052   0.906   4.534
  473SOL     OW 1984   0.130   1.821   5.295
  473SOL    HW1 1985   0.120   1.806   5.394
  473SOL    HW2 1986   0.044   1.857   5.259
  474SOL     OW 1987   0.865   0.348   3.919
  474SOL    HW1 1988   0.924   0.411   3.870
  474SOL    HW2 1989   0.884   0.254   3.890
  475SOL     OW 1990   1.719   0.585   5.555
  475SOL    HW1 1991   1.693   0.674   5.519
  475SOL    HW2 1992   1.717   0.517   5.482
  476SOL     OW 1993   1.362   1.144   4.269
  476SOL    HW1 1994   1.445   1.115   4.221
  476SOL    HW2 1995   1.313   1.211   4.213
  477SOL     OW 1996   0.550   0.196   4.609
  477SOL    HW1 1997   0.545   0.191   4.709
  477SOL    HW2 1998   0.552   0.292   4.580
  478SOL     OW 1999   1.008   1.456   4.201
  478SOL    HW1 2000   0.962   1.528   4.149
  478SOL    HW2 2001   1.004   1.476   4.299
  479SOL     OW 2002   0.351   1.801   4.577
  479SOL    HW1 2003   0.401   1.715   4.583
  479SOL    HW2 2004   0.416   1.878   4.574
  480SOL     OW 2005   1.795   1.066   4.597
  480SOL    HW1 2006   1.733   1.051   4.521
  480SOL    HW2 2007   1.743   1.077   4.682
  481SOL     OW 2008   1.227   1.550   5.230
  481SOL    HW1 2009   1.233   1.473   5.294
  481SOL    HW2 2010   1.175   1.524   5.150
  482SOL     OW 2011   0.321   0.943   3.966
  482SOL    HW1 2012   0.403   0.982   3.924
  482SOL    HW2 2013   0.294   0.861   3.917
  483SOL     OW 2014   1.458   0.735   4.452
  483SOL    HW1 2015   1.453   0.670   4.527
  483SOL    HW2 2016   1.538   0.794   4.465
  484SOL     OW 2017   0.461   1.266   5.451
  484SOL    HW1 2018   0.411   1.267   5.365
  484SOL    HW2 2019   0.398   1.248   5.527
  485SOL     OW 2020   1.111   1.776   3.961
  485SOL    HW1 2021   1.051   1.714   4.011
  485SOL    HW2 2022   1.142   1.732   3.876
  486SOL     OW 2023   0.202   0.285   5.222
  486SOL    HW1 2024   0.122   0.345   5.209
  486SOL    HW2 2025   0.192   0.236   5.308
  487SOL     OW 2026   1.632   1.377   3.805
  487SOL    HW1 2027   1.600   1.471   3.795
  487SOL    HW2 2028   1.556   1.314   3.793
  488SOL     OW 2029   0.464   1.743   4.047
  488SOL    HW1 2030   0.497   1.782   4.133
  488SOL    HW2 2031   0.540   1.736   3.982
  489SOL     OW 2032   1.400   0.107   4.150
  489SOL    HW1 2033   1.376   0.070   4.060
  489SOL    HW2 2034   1.499   0.123   4.154
  490SOL     OW 2035   0.249   1.785   4.965
  490SOL    HW1 2036   0.306   1.720   5.015
  490SOL    HW2 2037   0.233   1.752   4.872
  491SOL     OW 2038   0.940   1.698   4.628
  491SOL    HW1 2039   1.020   1.641   4.649
  491SOL    HW2 2040   0.891   1.658   4.551
  492SOL     OW 2041   0.382   0.700   4.204
  492SOL    HW1 2042   0.427   0.610   4.201
  492SOL    HW2 2043   0.288   0.689   4.237
  493SOL     OW 2044   1.547   0.222   5.453
  493SOL    HW1 2045   1.542   0.259   5.545
  493SOL    HW2 2046   1.475   0.153   5.441
  494SOL     OW 2047   0.614   0.122   3.841
  494SOL    HW1 2048   0.712   0.100   3.848
  494SOL    HW2 2049   0.583   0.105   3.748
  495SOL     OW 2050   0.781   0.264   5.473
  495SOL    HW1 2051   0.848   0.203   5.516
  495SOL    HW2 2052   0.708   0.283   5.538
  496SOL     OW 2053   0.888   1.514   4.919
  496SOL    HW1 2054   0.865   1.489   4.825
  496SOL    HW2 2055   0.949   1.445   4.958
  497SOL     OW 2056   1.351   0.590   5.157
  497SOL    HW1 2057   1.379   0.547   5.242
  497SOL    HW2 2058   1.376   0.686   5.158
  498SOL     OW 2059   0.803   1.402   4.648
  498SOL    HW1 2060   0.893   1.416   4.606
  498SOL    HW2 2061   0.732   1.404   4.577
  499SOL     OW 2062   0.922   0.503   4.623
  499SOL    HW1 2063   0.897   0.494   4.527
  499SOL    HW2 2064   0.970   0.421   4.654
  500SOL     OW 2065   0.539   0.064   4.236
  500SOL    HW1 2066   0.458   0.065   4.294
  500SOL    HW2 2067   0.542   0.147   4.181
  501SOL     OW 2068   1.434   1.188   3.765
  501SOL    HW1 2069   1.466   1.112   3.822
  501SOL    HW2 2070   1.342   1.215   3.795
  502SOL     OW 2071   0.297   0.035   3.895
  502SOL    HW1 2072   0.346   0.119   3.874
  502SOL    HW2 2073   0.359  -0.030   3.940
  503SOL     OW 2074   0.935   0.236   4.204
  503SOL    HW1 2075   0.887   0.277   4.126
  503SOL    HW2 2076   1.034   0.234   4.185
  504SOL     OW 2077   1.076   0.683   5.188
  504SOL    HW1 2078   0.996   0.622   5.191
  504SOL    HW2 2079   1.157   0.630   5.164
  505SOL     OW 2080   1.227   1.570   4.517
  505SOL    HW1 2081   1.248   1.644   4.452
  505SOL    HW2 2082   1.295   1.570   4.590
  506SOL     OW 2083   0.459   1.152   4.465
  506SOL    HW1 2084   0.388   1.125   4.530
  506SOL    HW2 2085   0.433   1.124   4.372
  507SOL     OW 2086   1.271   1.797   4.315
  507SOL    HW1 2087   1.315   1.861   4.251
  507SOL    HW2 2088   1.221   1.849   4.385
  508SOL     OW 2089   1.032   0.549   3.740
  508SOL    HW1 2090   0.991   0.631   3.701
  508SOL    HW2 2091   1.096   0.575   3.813
  509SOL     OW 2092   0.078   0.556   5.110
  509SOL    HW1 2093   0.170   0.555   5.069
  509SOL    HW2 2094   0.072   0.630   5.177
  510SOL     OW 2095   0.561   0.222   4.871
  510SOL    HW1 2096   0.599   0.138   4.908
  510SOL    HW2 2097   0.473   0.241   4.915
  511SOL     OW 2098   0.866   0.454   4.366
  511SOL    HW1 2099   0.834   0.526   4.304
  511SOL    HW2 2100   0.890   0.373   4.313
  512SOL     OW 2101   1.017   0.039   4.477
  512SOL    HW1 2102   0.945   0.044   4.408
  512SOL    HW2 2103   0.993  -0.030   4.546
  513SOL     OW 2104   1.429   1.173   4.591
  513SOL    HW1 2105   1.374   1.089   4.584
  513SOL    HW2 2106   1.455   1.202   4.499
  514SOL     OW 2107   1.466   0.590   4.716
  514SOL    HW1 2108   1.436   0.495   4.723
  514SOL    HW2 2109   1.539   0.606   4.782
  515SOL     OW 2110   1.857   0.833   4.101
  515SOL    HW1 2111   1.899   0.769   4.165
  515SOL    HW2 2112   1.819   0.782   4.023
  516SOL     OW 2113   0.488   1.385   3.898
  516SOL    HW1 2114   0.401   1.370   3.945
  516SOL    HW2 2115   0.471   1.411   3.803
  517SOL     OW 2116   1.664   1.280   4.381
  517SOL    HW1 2117   1.763   1.288   4.395
  517SOL    HW2 2118   1.619   1.364   4.412
  518SOL     OW 2119   1.390   0.575   3.802
  518SOL    HW1 2120   1.336   0.554   3.883
  518SOL    HW2 2121   1.481   0.534   3.811
  519SOL     OW 2122   0.527   0.256   4.052
  519SOL    HW1 2123   0.554   0.197   3.977
  519SOL    HW2 2124   0.527   0.351   4.021
  520SOL     OW 2125   1.754   1.223   5.312
  520SOL    HW1 2126   1.845   1.184   5.299
  520SOL    HW2 2127   1.762   1.319   5.336
  521SOL     OW 2128   1.064   1.347   5.064
  521SOL    HW1 2129   0.984   1.324   5.119
  521SOL    HW2 2130   1.147   1.321   5.113
  522SOL     OW 2131   1.592   1.629   5.349
  522SOL    HW1 2132   1.619   1.663   5.259
  522SOL    HW2 2133   1.671   1.591   5.395
  523SOL     OW 2134   1.111   1.195   4.824
  523SOL    HW1 2135   1.071   1.239   4.905
  523SOL    HW2 2136   1.070   1.232   4.741
  524SOL     OW 2137   1.638   1.099   4.803
  524SOL    HW1 2138   1.643   1.180   4.862
  524SOL    HW2 2139   1.552   1.101   4.752
  525SOL     OW 2140   0.915   0.089   5.126
  525SOL    HW1 2141   0.940   0.069   5.031
  525SOL    HW2 2142   0.987   0.145   5.168
  526SOL     OW 2143   0.980   1.116   5.443
  526SOL    HW1 2144   0.881   1.122   5.453
  526SOL    HW2 2145   1.003   1.036   5.387
  527SOL     OW 2146   0.705   1.050   4.092
  527SOL    HW1 2147   0.691   1.057   4.191
  527SOL    HW2 2148   0.789   0.999   4.074
  528SOL     OW 2149   0.410   0.813   4.975
  528SOL    HW1 2150   0.496   0.825   5.025
  528SOL    HW2 2151   0.368   0.726   5.002
  529SOL     OW 2152   1.274   0.386   4.986
  529SOL    HW1 2153   1.295   0.460   5.050
  529SOL    HW2 2154   1.185   0.403   4.943
  530SOL     OW 2155   0.064   1.564   5.055
  530SOL    HW1 2156   0.018   1.646   5.021
  530SOL    HW2 2157   0.162   1.583   5.064
  531SOL     OW 2158   0.367   1.100   4.225
  531SOL    HW1 2159   0.360   1.183   4.169
  531SOL    HW2 2160   0.371   1.020   4.165
  532SOL     OW 2161   0.566   0.537   4.589
  532SOL    HW1 2162   0.578   0.603   4.515
  532SOL    HW2 2163   0.612   0.571   4.672
  533SOL     OW 2164   1.252   1.348   4.112
  533SOL    HW1 2165   1.302   1.425   4.152
  533SOL    HW2 2166   1.157   1.350   4.144
  534SOL     OW 2167   1.272   1.445   4.866
  534SOL    HW1 2168   1.319   1.458   4.953
  534SOL    HW2 2169   1.206   1.371   4.875
  535SOL     OW 2170   1.582   0.639   4.196
  535SOL    HW1 2171   1.551   0.700   4.269
  535SOL    HW2 2172   1.632   0.691   4.127
  536SOL     OW 2173   0.354   1.510   5.053
  536SOL    HW1 2174   0.333   1.466   4.966
  536SOL    HW2 2175   0.451   1.536   5.056
  537SOL     OW 2176   0.402   0.751   5.322
  537SOL    HW1 2177   0.470   0.806   5.275
  537SOL    HW2 2178   0.442   0.663   5.349
  538SOL     OW 2179   1.587   0.779   5.394
  538SOL    HW1 2180   1.495   0.817   5.389
  538SOL    HW2 2181   1.647   0.826   5.329
  539SOL     OW 2182   1.013   0.105   5.494
  539SOL    HW1 2183   1.019   0.190   5.442
  539SOL    HW2 2184   1.045   0.029   5.437
  540SOL     OW 2185   0.504   0.050   5.464
  540SOL    HW1 2186   0.462  -0.007   5.394
  540SOL    HW2 2187   0.438   0.119   5.496
  541SOL     OW 2188   0.573   0.870   4.753
  541SOL    HW1 2189   0.617   0.959   4.744
  541SOL    HW2 2190   0.510   0.870   4.830
  542SOL     OW 2191   1.360   0.862   4.769
  542SOL    HW1 2192   1.285   0.862   4.703
  542SOL    HW2 2193   1.397   0.770   4.778
  543SOL     OW 2194   1.209   0.525   3.999
  543SOL    HW1 2195   1.222   0.441   4.053
  543SOL    HW2 2196   1.180   0.599   4.059
  544SOL     OW 2197   0.307   0.213   4.955
  544SOL    HW1 2198   0.284   0.250   5.045
  544SOL    HW2 2199   0.277   0.118   4.949
  545SOL     OW 2200   0.037   1.310   5.006
  545SOL    HW1 2201   0.090   1.261   5.074
  545SOL    HW2 2202   0.059   1.408   5.011
  546SOL     OW 2203   0.732   0.634   4.788
  546SOL    HW1 2204   0.791   0.608   4.712
  546SOL    HW2 2205   0.704   0.730   4.777
  547SOL     OW 2206   1.728   0.935   5.578
  547SOL    HW1 2207   1.682   0.928   5.489
  547SOL    HW2 2208   1.666   0.979   5.644
  548SOL     OW 2209   0.307   0.063   4.342
  548SOL    HW1 2210   0.296   0.157   4.375
  548SOL    HW2 2211   0.302   0.000   4.419
  549SOL     OW 2212   1.622   0.367   4.098
  549SOL    HW1 2213   1.624   0.291   4.162
  549SOL    HW2 2214   1.574   0.444   4.138
  550SOL     OW 2215   1.023   0.766   4.690
  550SOL    HW1 2216   1.038   0.787   4.786
  550SOL    HW2 2217   0.993   0.671   4.681
  551SOL     OW 2218   0.980   1.573   5.424
  551SOL    HW1 2219   0.960   1.617   5.336
  551SOL    HW2 2220   1.019   1.482   5.408
  552SOL     OW 2221   1.859   1.518   5.329
  552SOL    HW1 2222   1.873   1.545   5.234
  552SOL    HW2 2223   1.942   1.540   5.382
  553SOL     OW 2224   0.350   0.898   5.528
  553SOL    HW1 2225   0.426   0.942   5.576
  553SOL    HW2 2226   0.385   0.851   5.446
  554SOL     OW 2227   1.540   0.274   3.849
  554SOL    HW1 2228   1.479   0.199   3.872
  554SOL    HW2 2229   1.562   0.326   3.932
  555SOL     OW 2230   1.303   0.838   3.766
  555SOL    HW1 2231   1.337   0.745   3.781
  555SOL    HW2 2232   1.321   0.865   3.671
  556SOL     OW 2233   1.068   1.333   4.573
  556SOL    HW1 2234   1.075   1.249   4.518
  556SOL    HW2 2235   1.130   1.402   4.537
  557SOL     OW 2236   0.319   0.810   4.673
  557SOL    HW1 2237   0.412   0.846   4.678
  557SOL    HW2 2238   0.313   0.725   4.725
  558SOL     OW 2239   0.339   0.509   4.730
  558SOL    HW1 2240   0.287   0.426   4.713
  558SOL    HW2 2241   0.416   0.514   4.666
  559SOL     OW 2242   1.138   0.380   5.402
  559SOL    HW1 2243   1.093   0.443   5.466
  559SOL    HW2 2244   1.231   0.411   5.385
  560SOL     OW 2245   1.160   0.207   5.201
  560SOL    HW1 2246   1.160   0.271   5.278
  560SOL    HW2 2247   1.188   0.255   5.118
  561SOL     OW 2248   0.008   1.326   3.924
  561SOL    HW1 2249  -0.085   1.347   3.893
  561SOL    HW2 2250   0.018   1.227   3.937
  562SOL     OW 2251   0.088   1.801   4.651
  562SOL    HW1 2252   0.046   1.715   4.624
  562SOL    HW2 2253   0.182   1.804   4.617
  563SOL     OW 2254   0.504   1.568   4.634
  563SOL    HW1 2255   0.570   1.642   4.643
  563SOL    HW2 2256   0.548   1.489   4.592
  564SOL     OW 2257   1.002   0.796   4.962
  564SOL    HW1 2258   1.043   0.764   5.048
  564SOL    HW2 2259   0.906   0.769   4.959
  565SOL     OW 2260   0.040   0.544   4.838
  565SOL    HW1 2261   0.125   0.511   4.797
  565SOL    HW2 2262   0.053   0.559   4.936
  566SOL     OW 2263   0.189   0.520   5.446
  566SOL    HW1 2264   0.248   0.480   5.376
  566SOL    HW2 2265   0.131   0.591   5.405
  567SOL     OW 2266   1.369   0.950   5.384
  567SOL    HW1 2267   1.408   1.039   5.404
  567SOL    HW2 2268   1.379   0.930   5.287
  568SOL     OW 2269   0.815   0.572   4.049
  568SOL    HW1 2270   0.822   0.483   4.003
  568SOL    HW2 2271   0.721   0.606   4.041
  569SOL     OW 2272   1.657   0.604   4.930
  569SOL    HW1 2273   1.619   0.535   4.992
  569SOL    HW2 2274   1.739   0.568   4.886
  570SOL     OW 2275   0.252   1.564   5.468
  570SOL    HW1 2276   0.222   1.621   5.544
  570SOL    HW2 2277   0.245   1.467   5.494
  571SOL     OW 2278   0.671   0.464   4.993
  571SOL    HW1 2279   0.637   0.375   4.963
  571SOL    HW2 2280   0.697   0.518   4.913
  572SOL     OW 2281   0.930   1.678   5.189
  572SOL    HW1 2282   0.906   1.660   5.094
  572SOL    HW2 2283   0.960   1.772   5.199
  573SOL     OW 2284   0.473   0.500   3.915
  573SOL    HW1 2285   0.534   0.580   3.919
  573SOL    HW2 2286   0.378   0.531   3.922
  574SOL     OW 2287   0.159   1.137   5.190
  574SOL    HW1 2288   0.181   1.076   5.266
  574SOL    HW2 2289   0.169   1.088   5.104
  575SOL     OW 2290   1.347   1.059   4.958
  575SOL    HW1 2291   1.371   0.996   4.884
  575SOL    HW2 2292   1.257   1.099   4.940
  576SOL     OW 2293   1.302   0.855   4.033
  576SOL    HW1 2294   1.216   0.824   4.075
  576SOL    HW2 2295   1.298   0.841   3.934
  577SOL     OW 2296   1.252   1.731   4.852
  577SOL    HW1 2297   1.336   1.736   4.798
  577SOL    HW2 2298   1.229   1.635   4.870
  578SOL     OW 2299   0.083   1.258   4.746
  578SOL    HW1 2300   0.078   1.257   4.846
  578SOL    HW2 2301   0.000   1.217   4.708
  579SOL     OW 2302   0.688   1.662   5.440
  579SOL    HW1 2303   0.632   1.743   5.449
  579SOL    HW2 2304   0.740   1.666   5.354
  580SOL     OW 2305   1.726   0.135   4.247
  580SOL    HW1 2306   1.799   0.118   4.180
  580SOL    HW2 2307   1.695   0.048   4.285
  581SOL     OW 2308   1.388   1.573   4.201
  581SOL    HW1 2309   1.455   1.585   4.127
  581SOL    HW2 2310   1.348   1.662   4.224
  582SOL     OW 2311   0.130   1.794   5.575
  582SOL    HW1 2312   0.089   1.720   5.628
  582SOL    HW2 2313   0.194   1.845   5.633
  583SOL     OW 2314   1.280   0.927   4.396
  583SOL    HW1 2315   1.340   0.846   4.398
  583SOL    HW2 2316   1.320   0.996   4.336
  584SOL     OW 2317   0.830   1.273   5.146
  584SOL    HW1 2318   0.825   1.306   5.241
  584SOL    HW2 2319   0.744   1.292   5.100
  585SOL     OW 2320   0.672   1.616   3.878
  585SOL    HW1 2321   0.681   1.626   3.779
  585SOL    HW2 2322   0.632   1.527   3.899
  586SOL     OW 2323   1.841   0.175   4.687
  586SOL    HW1 2324   1.880   0.090   4.651
  586SOL    HW2 2325   1.743   0.177   4.668
  587SOL     OW 2326   0.263   0.326   4.444
  587SOL    HW1 2327   0.184   0.377   4.410
  587SOL    HW2 2328   0.254   0.311   4.542
  588SOL     OW 2329   1.194   1.612   3.755
  588SOL    HW1 2330   1.200   1.519   3.792
  588SOL    HW2 2331   1.135   1.612   3.675
  589SOL     OW 2332   0.822   1.002   5.096
  589SOL    HW1 2333   0.862   1.001   5.004
  589SOL    HW2 2334   0.832   1.094   5.136
  590SOL     OW 2335   0.916   0.910   4.015
  590SOL    HW1 2336   0.979   0.948   3.947
  590SOL    HW2 2337   0.956   0.827   4.054
  591SOL     OW 2338   1.504   1.607   3.768
  591SOL    HW1 2339   1.412   1.644   3.775
  591SOL    HW2 2340   1.542   1.627   3.678
  592SOL     OW 2341   0.372   1.288   5.214
  592SOL    HW1 2342   0.359   1.381   5.180
  592SOL    HW2 2343   0.288   1.236   5.201
  593SOL     OW 2344   1.614   1.292   5.013
  593SOL    HW1 2345   1.674   1.295   5.093
  593SOL    HW2 2346   1.539   1.356   5.026
  594SOL     OW 2347   1.039   1.098   4.420
  594SOL    HW1 2348   0.969   1.051   4.474
  594SOL    HW2 2349   1.098   1.030   4.377
  595SOL     OW 2350   1.014   0.236   4.695
  595SOL    HW1 2351   1.006   0.200   4.602
  595SOL    HW2 2352   1.012   0.160   4.760
  596SOL     OW 2353   0.590   1.487   4.215
  596SOL    HW1 2354   0.632   1.429   4.145
  596SOL    HW2 2355   0.546   1.566   4.171
  597SOL     OW 2356   1.709   0.385   5.105
  597SOL    HW1 2357   1.782   0.454   5.109
  597SOL    HW2 2358   1.737   0.310   5.046
  598SOL     OW 2359   0.255   1.348   4.014
  598SOL    HW1 2360   0.159   1.349   3.987
  598SOL    HW2 2361   0.267   1.401   4.098
  599SOL     OW 2362   0.105   1.013   5.450
  599SOL    HW1 2363   0.028   0.980   5.504
  599SOL    HW2 2364   0.190   0.983   5.492
  600SOL     OW 2365   0.672   0.203   5.213
  600SOL    HW1 2366   0.762   0.187   5.173
  600SOL    HW2 2367   0.680   0.208   5.312
  601SOL     OW 2368   0.075   0.345   3.757
  601SOL    HW1 2369  -0.017   0.317   3.728
  601SOL    HW2 2370   0.106   0.422   3.701
  602SOL     OW 2371   1.440   0.856   5.122
  602SOL    HW1 2372   1.383   0.908   5.059
  602SOL    HW2 2373   1.536   0.868   5.098
  603SOL     OW 2374   0.072   0.166   4.042
  603SOL    HW1 2375   0.055   0.249   3.988
  603SOL    HW2 2376   0.162   0.129   4.020
  604SOL     OW 2377   1.183   1.335   3.843
  604SOL    HW1 2378   1.084   1.324   3.845
  604SOL    HW2 2379   1.217   1.350   3.936
  605SOL     OW 2380   0.613   0.842   5.155
  605SOL    HW1 2381   0.669   0.923   5.138
  605SOL    HW2 2382   0.672   0.762   5.158
  606SOL     OW 2383   1.493   1.767   4.683
  606SOL    HW1 2384   1.526   1.831   4.614
  606SOL    HW2 2385   1.559   1.761   4.758
  607SOL     OW 2386   0.716   0.565   5.432
  607SOL    HW1 2387   0.735   0.630   5.506
  607SOL    HW2 2388   0.776   0.485   5.441
  608SOL     OW 2389   1.450   1.220   5.357
  608SOL    HW1 2390   1.441   1.210   5.456
  608SOL    HW2 2391   1.546   1.213   5.331
  609SOL     OW 2392   0.390   1.741   5.284
  609SOL    HW1 2393   0.299   1.782   5.282
  609SOL    HW2 2394   0.383   1.647   5.316
  610SOL     OW 2395   1.674   0.883   4.978
  610SOL    HW1 2396   1.647   0.794   4.941
  610SOL    HW2 2397   1.675   0.951   4.905
  611SOL     OW 2398   1.225   0.325   4.173
  611SOL    HW1 2399   1.290   0.251   4.162
  611SOL    HW2 2400   1.245   0.375   4.257
  612SOL     OW 2401   0.594   0.745   4.376
  612SOL    HW1 2402   0.644   0.830   4.357
  612SOL    HW2 2403   0.506   0.747   4.328
  613SOL     OW 2404   1.777   0.342   5.366
  613SOL    HW1 2405   1.760   0.373   5.272
  613SOL    HW2 2406   1.693   0.305   5.404
  614SOL     OW 2407   1.730   0.934   5.241
  614SOL    HW1 2408   1.768   1.025   5.256
  614SOL    HW2 2409   1.722   0.917   5.142
  615SOL     OW 2410   0.859   1.374   3.740
  615SOL    HW1 2411   0.813   1.389   3.828
  615SOL    HW2 2412   0.903   1.459   3.710
  616SOL     OW 2413   0.661   1.790   4.677
  616SOL    HW1 2414   0.615   1.878   4.664
  616SOL    HW2 2415   0.760   1.802   4.670
  617SOL     OW 2416   0.859   0.956   4.585
  617SOL    HW1 2417   0.913   0.887   4.633
  617SOL    HW2 2418   0.827   1.025   4.651
  618SOL     OW 2419   1.083   0.984   3.811
  618SOL    HW1 2420   1.060   1.037   3.729
  618SOL    HW2 2421   1.164   0.928   3.792
  619SOL     OW 2422   0.221   1.314   5.568
  619SOL    HW1 2423   0.156   1.241   5.547
  619SOL    HW2 2424   0.225   1.328   5.666
  620SOL     OW 2425   0.079   1.240   4.377
  620SOL    HW1 2426   0.078   1.193   4.465
  620SOL    HW2 2427   0.161   1.212   4.326
  621SOL     OW 2428   0.672   1.391   5.348
  621SOL    HW1 2429   0.594   1.341   5.386
  621SOL    HW2 2430   0.669   1.486   5.379
  622SOL     OW 2431   1.824   0.192   4.951
  622SOL    HW1 2432   1.820   0.102   4.995
  622SOL    HW2 2433   1.827   0.181   4.852
  623SOL     OW 2434   0.428   0.424   4.244
  623SOL    HW1 2435   0.458   0.352   4.182
  623SOL    HW2 2436   0.389   0.384   4.327
  624SOL     OW 2437   1.705   1.487   4.828
  624SOL    HW1 2438   1.612   1.462   4.801
  624SOL    HW2 2439   1.731   1.437   4.910
  625SOL     OW 2440   0.317   0.547   5.004
  625SOL    HW1 2441   0.355   0.488   5.076
  625SOL    HW2 2442   0.357   0.521   4.916
  626SOL     OW 2443   0.812   1.586   4.411
  626SOL    HW1 2444   0.844   1.596   4.317
  626SOL    HW2 2445   0.733   1.524   4.413
  627SOL     OW 2446   1.424   0.214   4.836
  627SOL    HW1 2447   1.476   0.149   4.891
  627SOL    HW2 2448   1.375   0.277   4.897
  628SOL     OW 2449   1.001   0.034   4.878
  628SOL    HW1 2450   0.938  -0.038   4.847
  628SOL    HW2 2451   1.094  -0.002   4.878
  629SOL     OW 2452   0.770   1.330   4.025
  629SOL    HW1 2453   0.724   1.243   4.042
  629SOL    HW2 2454   0.861   1.327   4.066
  630SOL     OW 2455   0.618   1.567   5.008
  630SOL    HW1 2456   0.613   1.649   5.065
  630SOL    HW2 2457   0.707   1.564   4.963
  631SOL     OW 2458   1.352   0.052   3.892
  631SOL    HW1 2459   1.387   0.011   3.808
  631SOL    HW2 2460   1.262   0.014   3.912
  632SOL     OW 2461   1.300   0.453   4.415
  632SOL    HW1 2462   1.241   0.533   4.419
  632SOL    HW2 2463   1.315   0.418   4.508
  633SOL     OW 2464   1.593   0.221   4.606
  633SOL    HW1 2465   1.509   0.220   4.660
  633SOL    HW2 2466   1.595   0.304   4.550
  634SOL     OW 2467   0.039   1.077   4.024
  634SOL    HW1 2468   0.138   1.066   4.015
  634SOL    HW2 2469  -0.001   0.991   4.056
  635SOL     OW 2470   0.875   1.646   4.061
  635SOL    HW1 2471   0.798   1.611   4.007
  635SOL    HW2 2472   0.843   1.717   4.123
  636SOL     OW 2473   0.230   0.628   5.699
  636SOL    HW1 2474   0.137   0.626   5.736
  636SOL    HW2 2475   0.231   0.589   5.607
  637SOL     OW 2476   0.225   0.275   6.582
  637SOL    HW1 2477   0.260   0.258   6.674
  637SOL    HW2 2478   0.137   0.230   6.570
  638SOL     OW 2479   0.019   0.368   6.233
  638SOL    HW1 2480  -0.063   0.411   6.272
  638SOL    HW2 2481  -0.009   0.295   6.170
  639SOL     OW 2482   0.569   1.275   6.751
  639SOL    HW1 2483   0.476   1.268   6.714
  639SOL    HW2 2484   0.580   1.364   6.795
  640SOL     OW 2485   1.555   1.511   6.289
  640SOL    HW1 2486   1.498   1.495   6.370
  640SOL    HW2 2487   1.496   1.521   6.209
  641SOL     OW 2488   1.135   0.703   6.303
  641SOL    HW1 2489   1.192   0.781   6.278
  641SOL    HW2 2490   1.075   0.729   6.379
  642SOL     OW 2491   1.755   0.607   5.817
  642SOL    HW1 2492   1.743   0.594   5.718
  642SOL    HW2 2493   1.725   0.526   5.866
  643SOL     OW 2494   0.768   1.144   6.609
  643SOL    HW1 2495   0.690   1.161   6.669
  643SOL    HW2 2496   0.802   1.231   6.573
  644SOL     OW 2497   0.850   0.798   7.409
  644SOL    HW1 2498   0.846   0.874   7.474
  644SOL    HW2 2499   0.872   0.834   7.318
  645SOL     OW 2500   0.685   1.012   6.251
  645SOL    HW1 2501   0.754   0.996   6.321
  645SOL    HW2 2502   0.612   1.069   6.289
  646SOL     OW 2503   0.686   1.161   7.389
  646SOL    HW1 2504   0.746   1.240   7.403
  646SOL    HW2 2505   0.600   1.192   7.348
  647SOL     OW 2506   0.335   1.435   6.647
  647SOL    HW1 2507   0.257   1.404   6.594
  647SOL    HW2 2508   0.393   1.493   6.590
  648SOL     OW 2509   1.460   1.505   6.925
  648SOL    HW1 2510   1.484   1.599   6.951
  648SOL    HW2 2511   1.444   1.451   7.007
  649SOL     OW 2512   0.438   0.392   7.085
  649SOL    HW1 2513   0.520   0.336   7.094
  649SOL    HW2 2514   0.357   0.334   7.089
  650SOL     OW 2515   1.603   0.447   6.323
  650SOL    HW1 2516   1.529   0.493   6.273
  650SOL    HW2 2517   1.654   0.515   6.376
  651SOL     OW 2518   0.231   1.713   6.069
  651SOL    HW1 2519   0.265   1.790   6.123
  651SOL    HW2 2520   0.275   1.713   5.979
  652SOL     OW 2521   1.127   1.341   7.276
  652SOL    HW1 2522   1.174   1.341   7.364
  652SOL    HW2 2523   1.079   1.254   7.265
  653SOL     OW 2524   0.230   1.434   6.124
  653SOL    HW1 2525   0.204   1.530   6.124
  653SOL    HW2 2526   0.159   1.380   6.169
  654SOL     OW 2527   0.240   1.091   6.472
  654SOL    HW1 2528   0.254   1.007   6.524
  654SOL    HW2 2529   0.185   1.155   6.527
  655SOL     OW 2530   0.620   1.786   7.025
  655SOL    HW1 2531   0.528   1.769   7.060
  655SOL    HW2 2532   0.648   1.878   7.051
  656SOL     OW 2533   0.606   0.964   5.709
  656SOL    HW1 2534   0.613   1.048   5.655
  656SOL    HW2 2535   0.652   0.977   5.797
  657SOL     OW 2536   1.594   0.114   7.066
  657SOL    HW1 2537   1.576   0.181   6.994
  657SOL    HW2 2538   1.591   0.160   7.155
  658SOL     OW 2539   0.122   0.643   6.149
  658SOL    HW1 2540   0.077   0.555   6.166
  658SOL    HW2 2541   0.121   0.697   6.233
  659SOL     OW 2542   0.027   1.596   5.703
  659SOL    HW1 2543   0.008   1.500   5.724
  659SOL    HW2 2544  -0.006   1.654   5.778
  660SOL     OW 2545   1.689   0.922   6.198
  660SOL    HW1 2546   1.784   0.893   6.206
  660SOL    HW2 2547   1.681   0.987   6.123
  661SOL     OW 2548   1.641   1.108   6.018
  661SOL    HW1 2549   1.727   1.110   5.966
  661SOL    HW2 2550   1.655   1.155   6.106
  662SOL     OW 2551   0.113   0.737   7.183
  662SOL    HW1 2552   0.201   0.724   7.228
  662SOL    HW2 2553   0.100   0.834   7.161
  663SOL     OW 2554   0.613   1.365   6.312
  663SOL    HW1 2555   0.564   1.278   6.321
  663SOL    HW2 2556   0.590   1.408   6.225
  664SOL     OW 2557   1.293   1.228   7.009
  664SOL    HW1 2558   1.330   1.155   6.951
  664SOL    HW2 2559   1.345   1.233   7.094
  665SOL     OW 2560   0.809   0.004   6.088
  665SOL    HW1 2561   0.849   0.095   6.079
  665SOL    HW2 2562   0.709   0.012   6.094
  666SOL     OW 2563   0.197   0.976   6.850
  666SOL    HW1 2564   0.286   0.931   6.836
  666SOL    HW2 2565   0.124   0.911   6.831
  667SOL     OW 2566   1.525   0.999   5.776
  667SOL    HW1 2567   1.462   0.923   5.789
  667SOL    HW2 2568   1.573   1.017   5.862
  668SOL     OW 2569   1.187   1.792   7.202
  668SOL    HW1 2570   1.211   1.852   7.126
  668SOL    HW2 2571   1.194   1.697   7.172
  669SOL     OW 2572   0.317   0.251   7.387
  669SOL    HW1 2573   0.388   0.322   7.393
  669SOL    HW2 2574   0.229   0.290   7.415
  670SOL     OW 2575   1.466   1.417   6.539
  670SOL    HW1 2576   1.407   1.423   6.619
  670SOL    HW2 2577   1.451   1.329   6.493
  671SOL     OW 2578   1.667   1.714   6.158
  671SOL    HW1 2579   1.626   1.691   6.070
  671SOL    HW2 2580   1.649   1.640   6.223
  672SOL     OW 2581   0.598   0.729   5.856
  672SOL    HW1 2582   0.622   0.798   5.788
  672SOL    HW2 2583   0.520   0.762   5.910
  673SOL     OW 2584   1.281   0.345   6.530
  673SOL    HW1 2585   1.195   0.295   6.517
  673SOL    HW2 2586   1.343   0.291   6.586
  674SOL     OW 2587   0.807   0.605   7.051
  674SOL    HW1 2588   0.760   0.602   7.140
  674SOL    HW2 2589   0.756   0.550   6.985
  675SOL     OW 2590   1.394   0.469   7.260
  675SOL    HW1 2591   1.374   0.512   7.348
  675SOL    HW2 2592   1.472   0.407   7.269
  676SOL     OW 2593   0.973   0.890   7.158
  676SOL    HW1 2594   1.019   0.806   7.129
  676SOL    HW2 2595   0.917   0.924   7.083
  677SOL     OW 2596   0.991   0.410   6.828
  677SOL    HW1 2597   0.914   0.444   6.882
  677SOL    HW2 2598   0.957   0.359   6.749
  678SOL     OW 2599   1.041   0.701   6.015
  678SOL    HW1 2600   1.067   0.697   6.111
  678SOL    HW2 2601   0.956   0.650   6.001
  679SOL     OW 2602   0.076   0.811   6.375
  679SOL    HW1 2603   0.175   0.799   6.384
  679SOL    HW2 2604   0.052   0.906   6.396
  680SOL     OW 2605   0.130   1.821   7.157
  680SOL    HW1 2606   0.120   1.806   7.256
  680SOL    HW2 2607   0.044   1.857   7.121
  681SOL     OW 2608   0.865   0.348   5.781
  681SOL    HW1 2609   0.924   0.411   5.732
  681SOL    HW2 2610   0.884   0.254   5.752
  682SOL     OW 2611   1.719   0.585   7.417
  682SOL    HW1 2612   1.693   0.674   7.381
  682SOL    HW2 2613   1.717   0.517   7.344
  683SOL     OW 2614   1.362   1.144   6.131
  683SOL    HW1 2615   1.445   1.115   6.083
  683SOL    HW2 2616   1.313   1.211   6.075
  684SOL     OW 2617   0.550   0.196   6.471
  684SOL    HW1 2618   0.545   0.191   6.571
  684SOL    HW2 2619   0.552   0.292   6.442
  685SOL     OW 2620   1.008   1.456   6.063
  685SOL    HW1 2621   0.962   1.528   6.011
  685SOL    HW2 2622   1.004   1.476   6.161
  686SOL     OW 2623   0.351   1.801   6.439
  686SOL    HW1 2624   0.401   1.715   6.445
  686SOL    HW2 2625   0.416   1.878   6.436
  687SOL     OW 2626   1.795   1.066   6.459
  687SOL    HW1 2627   1.733   1.051   6.383
  687SOL    HW2 2628   1.743   1.077   6.544
  688SOL     OW 2629   1.227   1.550   7.092
  688SOL    HW1 2630   1.233   1.473   7.156
  688SOL    HW2 2631   1.175   1.524   7.012
  689SOL     OW 2632   0.321   0.943   5.828
  689SOL    HW1 2633   0.403   0.982   5.786
  689SOL    HW2 2634   0.294   0.861   5.779
  690SOL     OW 2635   1.458   0.735   6.314
  690SOL    HW1 2636   1.453   0.670   6.389
  690SOL    HW2 2637   1.538   0.794   6.327
  691SOL     OW 2638   0.461   1.266   7.313
  691SOL    HW1 2639   0.411   1.267   7.227
  691SOL    HW2 2640   0.398   1.248   7.389
  692SOL     OW 2641   1.111   1.776   5.823
  692SOL    HW1 2642   1.051   1.714   5.873
  692SOL    HW2 2643   1.142   1.732   5.738
  693SOL     OW 2644   0.202   0.285   7.084
  693SOL    HW1 2645   0.122   0.345   7.071
  693SOL    HW2 2646   0.192   0.236   7.170
  694SOL     OW 2647   1.632   1.377   5.667
  694SOL    HW1 2648   1.600   1.471   5.657
  694SOL    HW2 2649   1.556   1.314   5.655
  695SOL     OW 2650   0.464   1.743   5.909
  695SOL    HW1 2651   0.497   1.782   5.995
  695SOL    HW2 2652   0.540   1.736   5.844
  696SOL     OW 2653   1.400   0.107   6.012
  696SOL    HW1 2654   1.376   0.070   5.922
  696SOL    HW2 2655   1.499   0.123   6.016
  697SOL     OW 2656   0.249   1.785   6.827
  697SOL    HW1 2657   0.306   1.720   6.877
  697SOL    HW2 2658   0.233   1.752   6.734
  698SOL     OW 2659   0.940   1.698   6.490
  698SOL    HW1 2660   1.020   1.641   6.511
  698SOL    HW2 2661   0.891   1.658   6.413
  699SOL     OW 2662   0.382   0.700   6.066
  699SOL    HW1 2663   0.427   0.610   6.063
  699SOL    HW2 2664   0.288   0.689   6.099
  700SOL     OW 2665   1.547   0.222   7.315
  700SOL    HW1 2666   1.542   0.259   7.407
  700SOL    HW2 2667   1.475   0.153   7.303
  701SOL     OW 2668   0.614   0.122   5.703
  701SOL    HW1 2669   0.712   0.100   5.710
  701SOL    HW2 2670   0.583   0.105   5.610
  702SOL     OW 2671   0.781   0.264   7.335
  702SOL    HW1 2672   0.848   0.203   7.378
  702SOL    HW2 2673   0.708   0.283   7.400
  703SOL     OW 2674   0.888   1.514   6.781
  703SOL    HW1 2675   0.865   1.489   6.687
  703SOL    HW2 2676   0.949   1.445   6.820
  704SOL     OW 2677   1.351   0.590   7.019
  704SOL    HW1 2678   1.379   0.547   7.104
  704SOL    HW2 2679   1.376   0.686   7.020
  705SOL     OW 2680   0.803   1.402   6.510
  705SOL    HW1 2681   0.893   1.416   6.468
  705SOL    HW2 2682   0.732   1.404   6.439
  706SOL     OW 2683   0.922   0.503   6.485
  706SOL    HW1 2684   0.897   0.494   6.389
  706SOL    HW2 2685   0.970   0.421   6.516
  707SOL     OW 2686   0.539   0.064   6.098
  707SOL    HW1 2687   0.458   0.065   6.156
  707SOL    HW2 2688   0.542   0.147   6.043
  708SOL     OW 2689   1.434   1.188   5.627
  708SOL    HW1 2690   1.466   1.112   5.684
  708SOL    HW2 2691   1.342   1.215   5.657
  709SOL     OW 2692   0.297   0.035   5.757
  709SOL    HW1 2693   0.346   0.119   5.736
  709SOL    HW2 2694   0.359  -0.030   5.802
  710SOL     OW 2695   0.935   0.236   6.066
  710SOL    HW1 2696   0.887   0.277   5.988
  710SOL    HW2 2697   1.034   0.234   6.047
  711SOL     OW 2698   1.076   0.683   7.050
  711SOL    HW1 2699   0.996   0.622   7.053
  711SOL    HW2 2700   1.157   0.630   7.026
  712SOL     OW 2701   1.227   1.570   6.379
  712SOL    HW1 2702   1.248   1.644   6.314
  712SOL    HW2 2703   1.295   1.570   6.452
  713SOL     OW 2704   0.459   1.152   6.327
  713SOL    HW1 2705   0.388   1.125   6.392
  713SOL    HW2 2706   0.433   1.124   6.234
  714SOL     OW 2707   1.271   1.797   6.177
  714SOL    HW1 2708   1.315   1.861   6.113
  714SOL    HW2 2709   1.221   1.849   6.247
  715SOL     OW 2710   1.032   0.549   5.602
  715SOL    HW1 2711   0.991   0.631   5.563
  715SOL    HW2 2712   1.096   0.575   5.675
  716SOL     OW 2713   0.078   0.556   6.972
  716SOL    HW1 2714   0.170   0.555   6.931
  716SOL    HW2 2715   0.072   0.630   7.039
  717SOL     OW 2716   0.561   0.222   6.733
  717SOL    HW1 2717   0.599   0.138   6.770
  717SOL    HW2 2718   0.473   0.241   6.777
  718SOL     OW 2719   0.866   0.454   6.228
  718SOL    HW1 2720   0.834   0.526   6.166
  718SOL    HW2 2721   0.890   0.373   6.175
  719SOL     OW 2722   1.017   0.039   6.339
  719SOL    HW1 2723   0.945   0.044   6.270
  719SOL    HW2 2724   0.993  -0.030   6.408
  720SOL     OW 2725   1.429   1.173   6.453
  720SOL    HW1 2726   1.374   1.089   6.446
  720SOL    HW2 2727   1.455   1.202   6.361
  721SOL     OW 2728   1.466   0.590   6.578
  721SOL    HW1 2729   1.436   0.495   6.585
  721SOL    HW2 2730   1.539   0.606   6.644
  722SOL     OW 2731   1.857   0.833   5.963
  722SOL    HW1 2732   1.899   0.769   6.027
  722SOL    HW2 2733   1.819   0.782   5.885
  723SOL     OW 2734   0.488   1.385   5.760
  723SOL    HW1 2735   0.401   1.370   5.807
  723SOL    HW2 2736   0.471   1.411   5.665
  724SOL     OW 2737   1.664   1.280   6.243
  724SOL    HW1 2738   1.763   1.288   6.257
  724SOL    HW2 2739   1.619   1.364   6.274
  725SOL     OW 2740   1.390   0.575   5.664
  725SOL    HW1 2741   1.336   0.554   5.745
  725SOL    HW2 2742   1.481   0.534   5.673
  726SOL     OW 2743   0.527   0.256   5.914
  726SOL    HW1 2744   0.554   0.197   5.839
  726SOL    HW2 2745   0.527   0.351   5.883
  727SOL     OW 2746   1.754   1.223   7.174
  727SOL    HW1 2747   1.845   1.184   7.161
  727SOL    HW2 2748   1.762   1.319   7.198
  728SOL     OW 2749   1.064   1.347   6.926
  728SOL    HW1 2750   0.984   1.324   6.981
  728SOL    HW2 2751   1.147   1.321   6.975
  729SOL     OW 2752   1.592   1.629   7.211
  729SOL    HW1 2753   1.619   1.663   7.121
  729SOL    HW2 2754   1.671   1.591   7.257
  730SOL     OW 2755   1.111   1.195   6.686
  730SOL    HW1 2756   1.071   1.239   6.767
  730SOL    HW2 2757   1.070   1.232   6.603
  731SOL     OW 2758   1.638   1.099   6.665
  731SOL    HW1 2759   1.643   1.180   6.724
  731SOL    HW2 2760   1.552   1.101   6.614
  732SOL     OW 2761   0.915   0.089   6.988
  732SOL    HW1 2762   0.940   0.069   6.893
  732SOL    HW2 2763   0.987   0.145   7.030
  733SOL     OW 2764   0.980   1.116   7.305
  733SOL    HW1 2765   0.881   1.122   7.315
  733SOL    HW2 2766   1.003   1.036   7.249
  734SOL     OW 2767   0.705   1.050   5.954
  734SOL    HW1 2768   0.691   1.057   6.053
  734SOL    HW2 2769   0.789   0.999   5.936
  735SOL     OW 2770   0.410   0.813   6.837
  735SOL    HW1 2771   0.496   0.825   6.887
  735SOL    HW2 2772   0.368   0.726   6.864
  736SOL     OW 2773   1.274   0.386   6.848
  736SOL    HW1 2774   1.295   0.460   6.912
  736SOL    HW2 2775   1.185   0.403   6.805
  737SOL     OW 2776   0.064   1.564   6.917
  737SOL    HW1 2777   0.018   1.646   6.883
  737SOL    HW2 2778   0.162   1.583   6.926
  738SOL     OW 2779   0.367   1.100   6.087
  738SOL    HW1 2780   0.360   1.183   6.031
  738SOL    HW2 2781   0.371   1.020   6.027
  739SOL     OW 2782   0.566   0.537   6.451
  739SOL    HW1 2783   0.578   0.603   6.377
  739SOL    HW2 2784   0.612   0.571   6.534
  740SOL     OW 2785   1.252   1.348   5.974
  740SOL    HW1 2786   1.302   1.425   6.014
  740SOL    HW2 2787   1.157   1.350   6.006
  741SOL     OW 2788   1.272   1.445   6.728
  741SOL    HW1 2789   1.319   1.458   6.815
  741SOL    HW2 2790   1.206   1.371   6.737
  742SOL     OW 2791   1.582   0.639   6.058
  742SOL    HW1 2792   1.551   0.700   6.131
  742SOL    HW2 2793   1.632   0.691   5.989
  743SOL     OW 2794   0.354   1.510   6.915
  743SOL    HW1 2795   0.333   1.466   6.828
  743SOL    HW2 2796   0.451   1.536   6.918
  744SOL     OW 2797   0.402   0.751   7.184
  744SOL    HW1 2798   0.470   0.806   7.137
  744SOL    HW2 2799   0.442   0.663   7.211
  745SOL     OW 2800   1.587   0.779   7.256
  745SOL    HW1 2801   1.495   0.817   7.251
  745SOL    HW2 2802   1.647   0.826   7.191
  746SOL     OW 2803   1.013   0.105   7.356
  746SOL    HW1 2804   1.019   0.190   7.304
  746SOL    HW2 2805   1.045   0.029   7.299
  747SOL     OW 2806   0.504   0.050   7.326
  747SOL    HW1 2807   0.462  -0.007   7.256
  747SOL    HW2 2808   0.438   0.119   7.358
  748SOL     OW 2809   0.573   0.870   6.615
  748SOL    HW1 2810   0.617   0.959   6.606
  748SOL    HW2 2811   0.510   0.870   6.692
  749SOL     OW 2812   1.360   0.862   6.631
  749SOL    HW1 2813   1.285   0.862   6.565
  749SOL    HW2 2814   1.397   0.770   6.640
  750SOL     OW 2815   1.209   0.525   5.861
  750SOL    HW1 2816   1.222   0.441   5.915
  750SOL    HW2 2817   1.180   0.599   5.921
  751SOL     OW 2818   0.307   0.213   6.817
  751SOL    HW1 2819   0.284   0.250   6.907
  751SOL    HW2 2820   0.277   0.118   6.811
  752SOL     OW 2821   0.037   1.310   6.868
  752SOL    HW1 2822   0.090   1.261   6.936
  752SOL    HW2 2823   0.059   1.408   6.873
  753SOL     OW 2824   0.732   0.634   6.650
  753SOL    HW1 2825   0.791   0.608   6.574
  753SOL    HW2 2826   0.704   0.730   6.639
  754SOL     OW 2827   1.728   0.935   7.440
  754SOL    HW1 2828   1.682   0.928   7.351
  754SOL    HW2 2829   1.666   0.979   7.506
  755SOL     OW 2830   0.307   0.063   6.204
  755SOL    HW1 2831   0.296   0.157   6.237
  755SOL    HW2 2832   0.302   0.000   6.281
  756SOL     OW 2833   1.622   0.367   5.960
  756SOL    HW1 2834   1.624   0.291   6.024
  756SOL    HW2 2835   1.574   0.444   6.000
  757SOL     OW 2836   1.023   0.766   6.552
  757SOL    HW1 2837   1.038   0.787   6.648
  757SOL    HW2 2838   0.993   0.671   6.543
  758SOL     OW 2839   0.980   1.573   7.286
  758SOL    HW1 2840   0.960   1.617   7.198
  758SOL    HW2 2841   1.019   1.482   7.270
  759SOL     OW 2842   1.859   1.518   7.191
  759SOL    HW1 2843   1.873   1.545   7.096
  759SOL    HW2 2844   1.942   1.540   7.244
  760SOL     OW 2845   0.350   0.898   7.390
  760SOL    HW1 2846   0.426   0.942   7.438
  760SOL    HW2 2847   0.385   0.851   7.308
  761SOL     OW 2848   1.540   0.274   5.711
  761SOL    HW1 2849   1.479   0.199   5.734
  761SOL    HW2 2850   1.562   0.326   5.794
  762SOL     OW 2851   1.303   0.838   5.628
  762SOL    HW1 2852   1.337   0.745   5.643
  762SOL    HW2 2853   1.321   0.865   5.533
  763SOL     OW 2854   1.068   1.333   6.435
  763SOL    HW1 2855   1.075   1.249   6.380
  763SOL    HW2 2856   1.130   1.402   6.399
  764SOL     OW 2857   0.319   0.810   6.535
  764SOL    HW1 2858   0.412   0.846   6.540
  764SOL    HW2 2859   0.313   0.725   6.587
  765SOL     OW 2860   0.339   0.509   6.592
  765SOL    HW1 2861   0.287   0.426   6.575
  765SOL    HW2 2862   0.416   0.514   6.528
  766SOL     OW 2863   1.138   0.380   7.264
  766SOL    HW1 2864   1.093   0.443   7.328
  766SOL    HW2 2865   1.231   0.411   7.247
  767SOL     OW 2866   1.160   0.207   7.063
  767SOL    HW1 2867   1.160   0.271   7.140
  767SOL    HW2 2868   1.188   0.255   6.980
  768SOL     OW 2869   0.008   1.326   5.786
  768SOL    HW1 2870  -0.085   1.347   5.755
  768SOL    HW2 2871   0.018   1.227   5.799
  769SOL     OW 2872   0.088   1.801   6.513
  769SOL    HW1 2873   0.046   1.715   6.486
  769SOL    HW2 2874   0.182   1.804   6.479
  770SOL     OW 2875   0.504   1.568   6.496
  770SOL    HW1 2876   0.570   1.642   6.505
  770SOL    HW2 2877   0.548   1.489   6.454
  771SOL     OW 2878   1.002   0.796   6.824
  771SOL    HW1 2879   1.043   0.764   6.910
  771SOL    HW2 2880   0.906   0.769   6.821
  772SOL     OW 2881   0.040   0.544   6.700
  772SOL    HW1 2882   0.125   0.511   6.659
  772SOL    HW2 2883   0.053   0.559   6.798
  773SOL     OW 2884   0.189   0.520   7.308
  773SOL    HW1 2885   0.248   0.480   7.238
  773SOL    HW2 2886   0.131   0.591   7.267
  774SOL     OW 2887   1.369   0.950   7.246
  774SOL    HW1 2888   1.408   1.039   7.266
  774SOL    HW2 2889   1.379   0.930   7.149
  775SOL     OW 2890   0.815   0.572   5.911
  775SOL    HW1 2891   0.822   0.483   5.865
  775SOL    HW2 2892   0.721   0.606   5.903
  776SOL     OW 2893   1.657   0.604   6.792
  776SOL    HW1 2894   1.619   0.535   6.854
  776SOL    HW2 2895   1.739   0.568   6.748
  777SOL     OW 2896   0.252   1.564   7.330
  777SOL    HW1 2897   0.222   1.621   7.406
  777SOL    HW2 2898   0.245   1.467   7.356
  778SOL     OW 2899   0.671   0.464   6.855
  778SOL    HW1 2900   0.637   0.375   6.825
  778SOL    HW2 2901   0.697   0.518   6.775
  779SOL     OW 2902   0.930   1.678   7.051
  779SOL    HW1 2903   0.906   1.660   6.956
  779SOL    HW2 2904   0.960   1.772   7.061
  780SOL     OW 2905   0.473   0.500   5.777
  780SOL    HW1 2906   0.534   0.580   5.781
  780SOL    HW2 2907   0.378   0.531   5.784
  781SOL     OW 2908   0.159   1.137   7.052
  781SOL    HW1 2909   0.181   1.076   7.128
  781SOL    HW2 2910   0.169   1.088   6.966
  782SOL     OW 2911   1.347   1.059   6.820
  782SOL    HW1 2912   1.371   0.996   6.746
  782SOL    HW2 2913   1.257   1.099   6.802
  783SOL     OW 2914   1.302   0.855   5.895
  783SOL    HW1 2915   1.216   0.824   5.937
  783SOL    HW2 2916   1.298   0.841   5.796
  784SOL     OW 2917   1.759   1.747   6.740
  784SOL    HW1 2918   1.820   1.777   6.667
  784SOL    HW2 2919   1.721   1.658   6.718
  785SOL     OW 2920   1.252   1.731   6.714
  785SOL    HW1 2921   1.336   1.736   6.660
  785SOL    HW2 2922   1.229   1.635   6.732
  786SOL     OW 2923   0.083   1.258   6.608
  786SOL    HW1 2924   0.078   1.257   6.708
  786SOL    HW2 2925   0.000   1.217   6.570
  787SOL     OW 2926   0.688   1.662   7.302
  787SOL    HW1 2927   0.632   1.743   7.311
  787SOL    HW2 2928   0.740   1.666   7.216
  788SOL     OW 2929   1.726   0.135   6.109
  788SOL    HW1 2930   1.799   0.118   6.042
  788SOL    HW2 2931   1.695   0.048   6.147
  789SOL     OW 2932   1.388   1.573   6.063
  789SOL    HW1 2933   1.455   1.585   5.989
  789SOL    HW2 2934   1.348   1.662   6.086
  790SOL     OW 2935   0.130   1.794   7.437
  790SOL    HW1 2936   0.089   1.720   7.490
  790SOL    HW2 2937   0.194   1.845   7.495
  791SOL     OW 2938   1.280   0.927   6.258
  791SOL    HW1 2939   1.340   0.846   6.260
  791SOL    HW2 2940   1.320   0.996   6.198
  792SOL     OW 2941   0.830   1.273   7.008
  792SOL    HW1 2942   0.825   1.306   7.103
  792SOL    HW2 2943   0.744   1.292   6.962
  793SOL     OW 2944   0.672   1.616   5.740
  793SOL    HW1 2945   0.681   1.626   5.641
  793SOL    HW2 2946   0.632   1.527   5.761
  794SOL     OW 2947   1.650   1.720   6.980
  794SOL    HW1 2948   1.703   1.730   6.896
  794SOL    HW2 2949   1.623   1.810   7.014
  795SOL     OW 2950   1.841   0.175   6.549
  795SOL    HW1 2951   1.880   0.090   6.513
  795SOL    HW2 2952   1.743   0.177   6.530
  796SOL     OW 2953   0.263   0.326   6.306
  796SOL    HW1 2954   0.184   0.377   6.272
  796SOL    HW2 2955   0.254   0.311   6.404
  797SOL     OW 2956   1.194   1.612   5.617
  797SOL    HW1 2957   1.200   1.519   5.654
  797SOL    HW2 2958   1.135   1.612   5.537
  798SOL     OW 2959   0.822   1.002   6.958
  798SOL    HW1 2960   0.862   1.001   6.866
  798SOL    HW2 2961   0.832   1.094   6.998
  799SOL     OW 2962   0.916   0.910   5.877
  799SOL    HW1 2963   0.979   0.948   5.809
  799SOL    HW2 2964   0.956   0.827   5.916
  800SOL     OW 2965   1.504   1.607   5.630
  800SOL    HW1 2966   1.412   1.644   5.637
  800SOL    HW2 2967   1.542   1.627   5.540
  801SOL     OW 2968   0.372   1.288   7.076
  801SOL    HW1 2969   0.359   1.381   7.042
  801SOL    HW2 2970   0.288   1.236   7.063
  802SOL     OW 2971   1.614   1.292   6.875
  802SOL    HW1 2972   1.674   1.295   6.955
  802SOL    HW2 2973   1.539   1.356   6.888
  803SOL     OW 2974   1.039   1.098   6.282
  803SOL    HW1 2975   0.969   1.051   6.336
  803SOL    HW2 2976   1.098   1.030   6.239
  804SOL     OW 2977   1.014   0.236   6.557
  804SOL    HW1 2978   1.006   0.200   6.464
  804SOL    HW2 2979   1.012   0.160   6.622
  805SOL     OW 2980   0.590   1.487   6.077
  805SOL    HW1 2981   0.632   1.429   6.007
  805SOL    HW2 2982   0.546   1.566   6.033
  806SOL     OW 2983   1.709   0.385   6.967
  806SOL    HW1 2984   1.782   0.454   6.971
  806SOL    HW2 2985   1.737   0.310   6.908
  807SOL     OW 2986   0.255   1.348   5.876
  807SOL    HW1 2987   0.159   1.349   5.849
  807SOL    HW2 2988   0.267   1.401   5.960
  808SOL     OW 2989   0.105   1.013   7.312
  808SOL    HW1 2990   0.028   0.980   7.366
  808SOL    HW2 2991   0.190   0.983   7.354
  809SOL     OW 2992   0.672   0.203   7.075
  809SOL    HW1 2993   0.762   0.187   7.035
  809SOL    HW2 2994   0.680   0.208   7.174
  810SOL     OW 2995   0.075   0.345   5.619
  810SOL    HW1 2996  -0.017   0.317   5.590
  810SOL    HW2 2997   0.106   0.422   5.563
  811SOL     OW 2998   1.440   0.856   6.984
  811SOL    HW1 2999   1.383   0.908   6.921
  811SOL    HW2 3000   1.536   0.868   6.960
  812SOL     OW 3001   0.072   0.166   5.904
  812SOL    HW1 3002   0.055   0.249   5.850
  812SOL    HW2 3003   0.162   0.129   5.882
  813SOL     OW 3004   1.183   1.335   5.705
  813SOL    HW1 3005   1.084   1.324   5.707
  813SOL    HW2 3006   1.217   1.350   5.798
  814SOL     OW 3007   0.613   0.842   7.017
  814SOL    HW1 3008   0.669   0.923   7.000
  814SOL    HW2 3009   0.672   0.762   7.020
  815SOL     OW 3010   1.493   1.767   6.545
  815SOL    HW1 3011   1.526   1.831   6.476
  815SOL    HW2 3012   1.559   1.761   6.620
  816SOL     OW 3013   0.716   0.565   7.294
  816SOL    HW1 3014   0.735   0.630   7.368
  816SOL    HW2 3015   0.776   0.485   7.303
  817SOL     OW 3016   1.450   1.220   7.219
  817SOL    HW1 3017   1.441   1.210   7.318
  817SOL    HW2 3018   1.546   1.213   7.193
  818SOL     OW 3019   0.390   1.741   7.146
  818SOL    HW1 3020   0.299   1.782   7.144
  818SOL    HW2 3021   0.383   1.647   7.178
  819SOL     OW 3022   1.674   0.883   6.840
  819SOL    HW1 3023   1.647   0.794   6.803
  819SOL    HW2 3024   1.675   0.951   6.767
  820SOL     OW 3025   1.225   0.325   6.035
  820SOL    HW1 3026   1.290   0.251   6.024
  820SOL    HW2 3027   1.245   0.375   6.119
  821SOL     OW 3028   0.594   0.745   6.238
  821SOL    HW1 3029   0.644   0.830   6.219
  821SOL    HW2 3030   0.506   0.747   6.190
  822SOL     OW 3031   1.777   0.342   7.228
  822SOL    HW1 3032   1.760   0.373   7.134
  822SOL    HW2 3033   1.693   0.305   7.266
  823SOL     OW 3034   1.730   0.934   7.103
  823SOL    HW1 3035   1.768   1.025   7.118
  823SOL    HW2 3036   1.722   0.917   7.004
  824SOL     OW 3037   0.859   1.374   5.602
  824SOL    HW1 3038   0.813   1.389   5.690
  824SOL    HW2 3039   0.903   1.459   5.572
  825SOL     OW 3040   0.661   1.790   6.539
  825SOL    HW1 3041   0.615   1.878   6.526
  825SOL    HW2 3042   0.760   1.802   6.532
  826SOL     OW 3043   0.859   0.956   6.447
  826SOL    HW1 3044   0.913   0.887   6.495
  826SOL    HW2 3045   0.827   1.025   6.513
  827SOL     OW 3046   1.083   0.984   5.673
  827SOL    HW1 3047   1.060   1.037   5.591
  827SOL    HW2 3048   1.164   0.928   5.654
  828SOL     OW 3049   1.861   1.569   6.437
  828SOL    HW1 3050   1.790   1.557   6.367
  828SOL    HW2 3051   1.862   1.490   6.497
  829SOL     OW 3052   0.221   1.314   7.430
  829SOL    HW1 3053   0.156   1.241   7.409
  829SOL    HW2 3054   0.225   1.328   7.528
  830SOL     OW 3055   0.079   1.240   6.239
  830SOL    HW1 3056   0.078   1.193   6.327
  830SOL    HW2 3057   0.161   1.212   6.188
  831SOL     OW 3058   0.672   1.391   7.210
  831SOL    HW1 3059   0.594   1.341   7.248
  831SOL    HW2 3060   0.669   1.486   7.241
  832SOL     OW 3061   1.824   0.192   6.813
  832SOL    HW1 3062   1.820   0.102   6.857
  832SOL    HW2 3063   1.827   0.181   6.714
  833SOL     OW 3064   0.428   0.424   6.106
  833SOL    HW1 3065   0.458   0.352   6.044
  833SOL    HW2 3066   0.389   0.384   6.189
  834SOL     OW 3067   1.705   1.487   6.690
  834SOL    HW1 3068   1.612   1.462   6.663
  834SOL    HW2 3069   1.731   1.437   6.772
  835SOL     OW 3070   0.317   0.547   6.866
  835SOL    HW1 3071   0.355   0.488   6.938
  835SOL    HW2 3072   0.357   0.521   6.778
  836SOL     OW 3073   0.812   1.586   6.273
  836SOL    HW1 3074   0.844   1.596   6.179
  836SOL    HW2 3075   0.733   1.524   6.275
  837SOL     OW 3076   1.424   0.214   6.698
  837SOL    HW1 3077   1.476   0.149   6.753
  837SOL    HW2 3078   1.375   0.277   6.759
  838SOL     OW 3079   1.001   0.034   6.740
  838SOL    HW1 3080   0.938  -0.038   6.709
  838SOL    HW2 3081   1.094  -0.002   6.740
  839SOL     OW 3082   0.770   1.330   5.887
  839SOL    HW1 3083   0.724   1.243   5.904
  839SOL    HW2 3084   0.861   1.327   5.928
  840SOL     OW 3085   0.618   1.567   6.870
  840SOL    HW1 3086   0.613   1.649   6.927
  840SOL    HW2 3087   0.707   1.564   6.825
  841SOL     OW 3088   1.352   0.052   5.754
  841SOL    HW1 3089   1.387   0.011   5.670
  841SOL    HW2 3090   1.262   0.014   5.774
  842SOL     OW 3091   1.300   0.453   6.277
  842SOL    HW1 3092   1.241   0.533   6.281
  842SOL    HW2 3093   1.315   0.418   6.370
  843SOL     OW 3094   1.593   0.221   6.468
  843SOL    HW1 3095   1.509   0.220   6.522
  843SOL    HW2 3096   1.595   0.304   6.412
  844SOL     OW 3097   0.039   1.077   5.886
  844SOL    HW1 3098   0.138   1.066   5.877
  844SOL    HW2 3099  -0.001   0.991   5.918
  845SOL     OW 3100   0.875   1.646   5.923
  845SOL    HW1 3101   0.798   1.611   5.869
  845SOL    HW2 3102   0.843   1.717   5.985
  846SOL     OW 3103   0.230   0.628   7.561
  846SOL    HW1 3104   0.137   0.626   7.598
  846SOL    HW2 3105   0.231   0.589   7.469
  847SOL     OW 3106   0.225   0.275   8.444
  847SOL    HW1 3107   0.260   0.258   8.536
  847SOL    HW2 3108   0.137   0.230   8.432
  848SOL     OW 3109   0.019   0.368   8.095
  848SOL    HW1 3110  -0.063   0.411   8.134
  848SOL    HW2 3111  -0.009   0.295   8.032
  849SOL     OW 3112   0.569   1.275   8.613
  849SOL    HW1 3113   0.476   1.268   8.576
  849SOL    HW2 3114   0.580   1.364   8.657
  850SOL     OW 3115   1.555   1.511   8.151
  850SOL    HW1 3116   1.498   1.495   8.232
  850SOL    HW2 3117   1.496   1.521   8.071
  851SOL     OW 3118   1.135   0.703   8.165
  851SOL    HW1 3119   1.192   0.781   8.140
  851SOL    HW2 3120   1.075   0.729   8.241
  852SOL     OW 3121   1.755   0.607   7.679
  852SOL    HW1 3122   1.743   0.594   7.580
  852SOL    HW2 3123   1.725   0.526   7.728
  853SOL     OW 3124   0.768   1.144   8.471
  853SOL    HW1 3125   0.690   1.161   8.531
  853SOL    HW2 3126   0.802   1.231   8.435
  854SOL     OW 3127   0.850   0.798   9.271
  854SOL    HW1 3128   0.846   0.874   9.336
  854SOL    HW2 3129   0.872   0.834   9.180
  855SOL     OW 3130   0.685   1.012   8.113
  855SOL    HW1 3131   0.754   0.996   8.183
  855SOL    HW2 3132   0.612   1.069   8.151
  856SOL     OW 3133   0.686   1.161   9.251
  856SOL    HW1 3134   0.746   1.240   9.265
  856SOL    HW2 3135   0.600   1.192   9.210
  857SOL     OW 3136   0.335   1.435   8.509
  857SOL    HW1 3137   0.257   1.404   8.456
  857SOL    HW2 3138   0.393   1.493   8.452
  858SOL     OW 3139   1.460   1.505   8.787
  858SOL    HW1 3140   1.484   1.599   8.813
  858SOL    HW2 3141   1.444   1.451   8.869
  859SOL     OW 3142   0.438   0.392   8.947
  859SOL    HW1 3143   0.520   0.336   8.956
  859SOL    HW2 3144   0.357   0.334   8.951
  860SOL     OW 3145   1.603   0.447   8.185
  860SOL    HW1 3146   1.529   0.493   8.135
  860SOL    HW2 3147   1.654   0.515   8.238
  861SOL     OW 3148   0.231   1.713   7.931
  861SOL    HW1 3149   0.265   1.790   7.985
  861SOL    HW2 3150   0.275   1.713   7.841
  862SOL     OW 3151   1.127   1.341   9.138
  862SOL    HW1 3152   1.174   1.341   9.226
  862SOL    HW2 3153   1.079   1.254   9.127
  863SOL     OW 3154   0.230   1.434   7.986
  863SOL    HW1 3155   0.204   1.530   7.986
  863SOL    HW2 3156   0.159   1.380   8.031
  864SOL     OW 3157   0.240   1.091   8.334
  864SOL    HW1 3158   0.254   1.007   8.386
  864SOL    HW2 3159   0.185   1.155   8.389
  865SOL     OW 3160   0.620   1.786   8.887
  865SOL    HW1 3161   0.528   1.769   8.922
  865SOL    HW2 3162   0.648   1.878   8.913
  866SOL     OW 3163   0.606   0.964   7.571
  866SOL    HW1 3164   0.613   1.048   7.517
  866SOL    HW2 3165   0.652   0.977   7.659
  867SOL     OW 3166   1.594   0.114   8.928
  867SOL    HW1 3167   1.576   0.181   8.856
  867SOL    HW2 3168   1.591   0.160   9.017
  868SOL     OW 3169   0.122   0.643   8.011
  868SOL    HW1 3170   0.077   0.555   8.028
  868SOL    HW2 3171   0.121   0.697   8.095
  869SOL     OW 3172   1.842   1.767   7.807
  869SOL    HW1 3173   1.896   1.738   7.887
  869SOL    HW2 3174   1.872   1.857   7.778
  870SOL     OW 3175   0.027   1.596   7.565
  870SOL    HW1 3176   0.008   1.500   7.586
  870SOL    HW2 3177  -0.006   1.654   7.640
  871SOL     OW 3178   1.689   0.922   8.060
  871SOL    HW1 3179   1.784   0.893   8.068
  871SOL    HW2 3180   1.681   0.987   7.985
  872SOL     OW 3181   1.641   1.108   7.880
  872SOL    HW1 3182   1.727   1.110   7.828
  872SOL    HW2 3183   1.655   1.155   7.968
  873SOL     OW 3184   0.113   0.737   9.045
  873SOL    HW1 3185   0.201   0.724   9.090
  873SOL    HW2 3186   0.100   0.834   9.023
  874SOL     OW 3187   0.613   1.365   8.174
  874SOL    HW1 3188   0.564   1.278   8.183
  874SOL    HW2 3189   0.590   1.408   8.087
  875SOL     OW 3190   1.293   1.228   8.871
  875SOL    HW1 3191   1.330   1.155   8.813
  875SOL    HW2 3192   1.345   1.233   8.956
  876SOL     OW 3193   0.809   0.004   7.950
  876SOL    HW1 3194   0.849   0.095   7.941
  876SOL    HW2 3195   0.709   0.012   7.956
  877SOL     OW 3196   0.197   0.976   8.712
  877SOL    HW1 3197   0.286   0.931   8.698
  877SOL    HW2 3198   0.124   0.911   8.693
  878SOL     OW 3199   1.525   0.999   7.638
  878SOL    HW1 3200   1.462   0.923   7.651
  878SOL    HW2 3201   1.573   1.017   7.724
  879SOL     OW 3202   1.187   1.792   9.064
  879SOL    HW1 3203   1.211   1.852   8.988
  879SOL    HW2 3204   1.194   1.697   9.034
  880SOL     OW 3205   0.317   0.251   9.249
  880SOL    HW1 3206   0.388   0.322   9.255
  880SOL    HW2 3207   0.229   0.290   9.277
  881SOL     OW 3208   1.466   1.417   8.401
  881SOL    HW1 3209   1.407   1.423   8.481
  881SOL    HW2 3210   1.451   1.329   8.355
  882SOL     OW 3211   1.667   1.714   8.020
  882SOL    HW1 3212   1.626   1.691   7.932
  882SOL    HW2 3213   1.649   1.640   8.085
  883SOL     OW 3214   0.598   0.729   7.718
  883SOL    HW1 3215   0.622   0.798   7.650
  883SOL    HW2 3216   0.520   0.762   7.772
  884SOL     OW 3217   1.281   0.345   8.392
  884SOL    HW1 3218   1.195   0.295   8.379
  884SOL    HW2 3219   1.343   0.291   8.448
  885SOL     OW 3220   1.576   1.662   7.755
  885SOL    HW1 3221   1.665   1.708   7.758
  885SOL    HW2 3222   1.555   1.638   7.660
  886SOL     OW 3223   0.807   0.605   8.913
  886SOL    HW1 3224   0.760   0.602   9.002
  886SOL    HW2 3225   0.756   0.550   8.847
  887SOL     OW 3226   1.394   0.469   9.122
  887SOL    HW1 3227   1.374   0.512   9.210
  887SOL    HW2 3228   1.472   0.407   9.131
  888SOL     OW 3229   0.973   0.890   9.020
  888SOL    HW1 3230   1.019   0.806   8.991
  888SOL    HW2 3231   0.917   0.924   8.945
  889SOL     OW 3232   0.991   0.410   8.690
  889SOL    HW1 3233   0.914   0.444   8.744
  889SOL    HW2 3234   0.957   0.359   8.611
  890SOL     OW 3235   1.041   0.701   7.877
  890SOL    HW1 3236   1.067   0.697   7.973
  890SOL    HW2 3237   0.956   0.650   7.863
  891SOL     OW 3238   0.076   0.811   8.237
  891SOL    HW1 3239   0.175   0.799   8.246
  891SOL    HW2 3240   0.052   0.906   8.258
  892SOL     OW 3241   0.130   1.821   9.019
  892SOL    HW1 3242   0.120   1.806   9.118
  892SOL    HW2 3243   0.044   1.857   8.983
  893SOL     OW 3244   0.865   0.348   7.643
  893SOL    HW1 3245   0.924   0.411   7.594
  893SOL    HW2 3246   0.884   0.254   7.614
  894SOL     OW 3247   1.719   0.585   9.279
  894SOL    HW1 3248   1.693   0.674   9.243
  894SOL    HW2 3249   1.717   0.517   9.206
  895SOL     OW 3250   1.362   1.144   7.993
  895SOL    HW1 3251   1.445   1.115   7.945
  895SOL    HW2 3252   1.313   1.211   7.937
  896SOL     OW 3253   0.550   0.196   8.333
  896SOL    HW1 3254   0.545   0.191   8.433
  896SOL    HW2 3255   0.552   0.292   8.304
  897SOL     OW 3256   1.008   1.456   7.925
  897SOL    HW1 3257   0.962   1.528   7.873
  897SOL    HW2 3258   1.004   1.476   8.023
  898SOL     OW 3259   0.351   1.801   8.301
  898SOL    HW1 3260   0.401   1.715   8.307
  898SOL    HW2 3261   0.416   1.878   8.298
  899SOL     OW 3262   1.795   1.066   8.321
  899SOL    HW1 3263   1.733   1.051   8.245
  899SOL    HW2 3264   1.743   1.077   8.406
  900SOL     OW 3265   1.227   1.550   8.954
  900SOL    HW1 3266   1.233   1.473   9.018
  900SOL    HW2 3267   1.175   1.524   8.874
  901SOL     OW 3268   0.321   0.943   7.690
  901SOL    HW1 3269   0.403   0.982   7.648
  901SOL    HW2 3270   0.294   0.861   7.641
  902SOL     OW 3271   1.458   0.735   8.176
  902SOL    HW1 3272   1.453   0.670   8.251
  902SOL    HW2 3273   1.538   0.794   8.189
  903SOL     OW 3274   0.461   1.266   9.175
  903SOL    HW1 3275   0.411   1.267   9.089
  903SOL    HW2 3276   0.398   1.248   9.251
  904SOL     OW 3277   1.111   1.776   7.685
  904SOL    HW1 3278   1.051   1.714   7.735
  904SOL    HW2 3279   1.142   1.732   7.600
  905SOL     OW 3280   0.202   0.285   8.946
  905SOL    HW1 3281   0.122   0.345   8.933
  905SOL    HW2 3282   0.192   0.236   9.032
  906SOL     OW 3283   1.632   1.377   7.529
  906SOL    HW1 3284   1.600   1.471   7.519
  906SOL    HW2 3285   1.556   1.314   7.517
  907SOL     OW 3286   0.464   1.743   7.771
  907SOL    HW1 3287   0.497   1.782   7.857
  907SOL    HW2 3288   0.540   1.736   7.706
  908SOL     OW 3289   1.400   0.107   7.874
  908SOL    HW1 3290   1.376   0.070   7.784
  908SOL    HW2 3291   1.499   0.123   7.878
  909SOL     OW 3292   0.249   1.785   8.689
  909SOL    HW1 3293   0.306   1.720   8.739
  909SOL    HW2 3294   0.233   1.752   8.596
  910SOL     OW 3295   0.940   1.698   8.352
  910SOL    HW1 3296   1.020   1.641   8.373
  910SOL    HW2 3297   0.891   1.658   8.275
  911SOL     OW 3298   0.382   0.700   7.928
  911SOL    HW1 3299   0.427   0.610   7.925
  911SOL    HW2 3300   0.288   0.689   7.961
  912SOL     OW 3301   1.547   0.222   9.177
  912SOL    HW1 3302   1.542   0.259   9.269
  912SOL    HW2 3303   1.475   0.153   9.165
  913SOL     OW 3304   0.614   0.122   7.565
  913SOL    HW1 3305   0.712   0.100   7.572
  913SOL    HW2 3306   0.583   0.105   7.472
  914SOL     OW 3307   0.781   0.264   9.197
  914SOL    HW1 3308   0.848   0.203   9.240
  914SOL    HW2 3309   0.708   0.283   9.262
  915SOL     OW 3310   0.888   1.514   8.643
  915SOL    HW1 3311   0.865   1.489   8.549
  915SOL    HW2 3312   0.949   1.445   8.682
  916SOL     OW 3313   1.351   0.590   8.881
  916SOL    HW1 3314   1.379   0.547   8.966
  916SOL    HW2 3315   1.376   0.686   8.882
  917SOL     OW 3316   0.803   1.402   8.372
  917SOL    HW1 3317   0.893   1.416   8.330
  917SOL    HW2 3318   0.732   1.404   8.301
  918SOL     OW 3319   0.922   0.503   8.347
  918SOL    HW1 3320   0.897   0.494   8.251
  918SOL    HW2 3321   0.970   0.421   8.378
  919SOL     OW 3322   0.539   0.064   7.960
  919SOL    HW1 3323   0.458   0.065   8.018
  919SOL    HW2 3324   0.542   0.147   7.905
  920SOL     OW 3325   1.434   1.188   7.489
  920SOL    HW1 3326   1.466   1.112   7.546
  920SOL    HW2 3327   1.342   1.215   7.519
  921SOL     OW 3328   0.297   0.035   7.619
  921SOL    HW1 3329   0.346   0.119   7.598
  921SOL    HW2 3330   0.359  -0.030   7.664
  922SOL     OW 3331   0.935   0.236   7.928
  922SOL    HW1 3332   0.887   0.277   7.850
  922SOL    HW2 3333   1.034   0.234   7.909
  923SOL     OW 3334   1.076   0.683   8.912
  923SOL    HW1 3335   0.996   0.622   8.915
  923SOL    HW2 3336   1.157   0.630   8.888
  924SOL     OW 3337   1.227   1.570   8.241
  924SOL    HW1 3338   1.248   1.644   8.176
  924SOL    HW2 3339   1.295   1.570   8.314
  925SOL     OW 3340   0.459   1.152   8.189
  925SOL    HW1 3341   0.388   1.125   8.254
  925SOL    HW2 3342   0.433   1.124   8.096
  926SOL     OW 3343   1.271   1.797   8.039
  926SOL    HW1 3344   1.315   1.861   7.975
  926SOL    HW2 3345   1.221   1.849   8.109
  927SOL     OW 3346   1.032   0.549   7.464
  927SOL    HW1 3347   0.991   0.631   7.425
  927SOL    HW2 3348   1.096   0.575   7.537
  928SOL     OW 3349   0.078   0.556   8.834
  928SOL    HW1 3350   0.170   0.555   8.793
  928SOL    HW2 3351   0.072   0.630   8.901
  929SOL     OW 3352   0.561   0.222   8.595
  929SOL    HW1 3353   0.599   0.138   8.632
  929SOL    HW2 3354   0.473   0.241   8.639
  930SOL     OW 3355   0.866   0.454   8.090
  930SOL    HW1 3356   0.834   0.526   8.028
  930SOL    HW2 3357   0.890   0.373   8.037
  931SOL     OW 3358   1.017   0.039   8.201
  931SOL    HW1 3359   0.945   0.044   8.132
  931SOL    HW2 3360   0.993  -0.030   8.270
  932SOL     OW 3361   1.429   1.173   8.315
  932SOL    HW1 3362   1.374   1.089   8.308
  932SOL    HW2 3363   1.455   1.202   8.223
  933SOL     OW 3364   1.466   0.590   8.440
  933SOL    HW1 3365   1.436   0.495   8.447
  933SOL    HW2 3366   1.539   0.606   8.506
  934SOL     OW 3367   1.857   0.833   7.825
  934SOL    HW1 3368   1.899   0.769   7.889
  934SOL    HW2 3369   1.819   0.782   7.747
  935SOL     OW 3370   0.488   1.385   7.622
  935SOL    HW1 3371   0.401   1.370   7.669
  935SOL    HW2 3372   0.471   1.411   7.527
  936SOL     OW 3373   1.664   1.280   8.105
  936SOL    HW1 3374   1.763   1.288   8.119
  936SOL    HW2 3375   1.619   1.364   8.136
  937SOL     OW 3376   1.390   0.575   7.526
  937SOL    HW1 3377   1.336   0.554   7.607
  937SOL    HW2 3378   1.481   0.534   7.535
  938SOL     OW 3379   0.527   0.256   7.776
  938SOL    HW1 3380   0.554   0.197   7.701
  938SOL    HW2 3381   0.527   0.351   7.745
  939SOL     OW 3382   1.754   1.223   9.036
  939SOL    HW1 3383   1.845   1.184   9.023
  939SOL    HW2 3384   1.762   1.319   9.060
  940SOL     OW 3385   1.064   1.347   8.788
  940SOL    HW1 3386   0.984   1.324   8.843
  940SOL    HW2 3387   1.147   1.321   8.837
  941SOL     OW 3388   1.592   1.629   9.073
  941SOL    HW1 3389   1.619   1.663   8.983
  941SOL    HW2 3390   1.671   1.591   9.119
  942SOL     OW 3391   1.111   1.195   8.548
  942SOL    HW1 3392   1.071   1.239   8.629
  942SOL    HW2 3393   1.070   1.232   8.465
  943SOL     OW 3394   1.638   1.099   8.527
  943SOL    HW1 3395   1.643   1.180   8.586
  943SOL    HW2 3396   1.552   1.101   8.476
  944SOL     OW 3397   0.915   0.089   8.850
  944SOL    HW1 3398   0.940   0.069   8.755
  944SOL    HW2 3399   0.987   0.145   8.892
  945SOL     OW 3400   0.980   1.116   9.167
  945SOL    HW1 3401   0.881   1.122   9.177
  945SOL    HW2 3402   1.003   1.036   9.111
  946SOL     OW 3403   0.705   1.050   7.816
  946SOL    HW1 3404   0.691   1.057   7.915
  946SOL    HW2 3405   0.789   0.999   7.798
  947SOL     OW 3406   0.410   0.813   8.699
  947SOL    HW1 3407   0.496   0.825   8.749
  947SOL    HW2 3408   0.368   0.726   8.726
  948SOL     OW 3409   1.274   0.386   8.710
  948SOL    HW1 3410   1.295   0.460   8.774
  948SOL    HW2 3411   1.185   0.403   8.667
  949SOL     OW 3412   0.064   1.564   8.779
  949SOL    HW1 3413   0.018   1.646   8.745
  949SOL    HW2 3414   0.162   1.583   8.788
  950SOL     OW 3415   0.367   1.100   7.949
  950SOL    HW1 3416   0.360   1.183   7.893
  950SOL    HW2 3417   0.371   1.020   7.889
  951SOL     OW 3418   0.566   0.537   8.313
  951SOL    HW1 3419   0.578   0.603   8.239
  951SOL    HW2 3420   0.612   0.571   8.396
  952SOL     OW 3421   1.252   1.348   7.836
  952SOL    HW1 3422   1.302   1.425   7.876
  952SOL    HW2 3423   1.157   1.350   7.868
  953SOL     OW 3424   1.272   1.445   8.590
  953SOL    HW1 3425   1.319   1.458   8.677
  953SOL    HW2 3426   1.206   1.371   8.599
  954SOL     OW 3427   1.582   0.639   7.920
  954SOL    HW1 3428   1.551   0.700   7.993
  954SOL    HW2 3429   1.632   0.691   7.851
  955SOL     OW 3430   0.354   1.510   8.777
  955SOL    HW1 3431   0.333   1.466   8.690
  955SOL    HW2 3432   0.451   1.536   8.780
  956SOL     OW 3433   0.402   0.751   9.046
  956SOL    HW1 3434   0.470   0.806   8.999
  956SOL    HW2 3435   0.442   0.663   9.073
  957SOL     OW 3436   1.587   0.779   9.118
  957SOL    HW1 3437   1.495   0.817   9.113
  957SOL    HW2 3438   1.647   0.826   9.053
  958SOL     OW 3439   1.013   0.105   9.218
  958SOL    HW1 3440   1.019   0.190   9.166
  958SOL    HW2 3441   1.045   0.029   9.161
  959SOL     OW 3442   0.504   0.050   9.188
  959SOL    HW1 3443   0.462  -0.007   9.118
  959SOL    HW2 3444   0.438   0.119   9.220
  960SOL     OW 3445   0.573   0.870   8.477
  960SOL    HW1 3446   0.617   0.959   8.468
  960SOL    HW2 3447   0.510   0.870   8.554
  961SOL     OW 3448   1.360   0.862   8.493
  961SOL    HW1 3449   1.285   0.862   8.427
  961SOL    HW2 3450   1.397   0.770   8.502
  962SOL     OW 3451   1.209   0.525   7.723
  962SOL    HW1 3452   1.222   0.441   7.777
  962SOL    HW2 3453   1.180   0.599   7.783
  963SOL     OW 3454   0.307   0.213   8.679
  963SOL    HW1 3455   0.284   0.250   8.769
  963SOL    HW2 3456   0.277   0.118   8.673
  964SOL     OW 3457   0.037   1.310   8.730
  964SOL    HW1 3458   0.090   1.261   8.798
  964SOL    HW2 3459   0.059   1.408   8.735
  965SOL     OW 3460   0.732   0.634   8.512
  965SOL    HW1 3461   0.791   0.608   8.436
  965SOL    HW2 3462   0.704   0.730   8.501
  966SOL     OW 3463   1.728   0.935   9.302
  966SOL    HW1 3464   1.682   0.928   9.213
  966SOL    HW2 3465   1.666   0.979   9.368
  967SOL     OW 3466   0.307   0.063   8.066
  967SOL    HW1 3467   0.296   0.157   8.099
  967SOL    HW2 3468   0.302   0.000   8.143
  968SOL     OW 3469   1.622   0.367   7.822
  968SOL    HW1 3470   1.624   0.291   7.886
  968SOL    HW2 3471   1.574   0.444   7.862
  969SOL     OW 3472   1.023   0.766   8.414
  969SOL    HW1 3473   1.038   0.787   8.510
  969SOL    HW2 3474   0.993   0.671   8.405
  970SOL     OW 3475   0.980   1.573   9.148
  970SOL    HW1 3476   0.960   1.617   9.060
  970SOL    HW2 3477   1.019   1.482   9.132
  971SOL     OW 3478   1.859   1.518   9.053
  971SOL    HW1 3479   1.873   1.545   8.958
  971SOL    HW2 3480   1.942   1.540   9.106
  972SOL     OW 3481   0.350   0.898   9.252
  972SOL    HW1 3482   0.426   0.942   9.300
  972SOL    HW2 3483   0.385   0.851   9.170
  973SOL     OW 3484   1.540   0.274   7.573
  973SOL    HW1 3485   1.479   0.199   7.596
  973SOL    HW2 3486   1.562   0.326   7.656
  974SOL     OW 3487   1.303   0.838   7.490
  974SOL    HW1 3488   1.337   0.745   7.505
  974SOL    HW2 3489   1.321   0.865   7.395
  975SOL     OW 3490   1.068   1.333   8.297
  975SOL    HW1 3491   1.075   1.249   8.242
  975SOL    HW2 3492   1.130   1.402   8.261
  976SOL     OW 3493   0.319   0.810   8.397
  976SOL    HW1 3494   0.412   0.846   8.402
  976SOL    HW2 3495   0.313   0.725   8.449
  977SOL     OW 3496   0.339   0.509   8.454
  977SOL    HW1 3497   0.287   0.426   8.437
  977SOL    HW2 3498   0.416   0.514   8.390
  978SOL     OW 3499   1.138   0.380   9.126
  978SOL    HW1 3500   1.093   0.443   9.190
  978SOL    HW2 3501   1.231   0.411   9.109
  979SOL     OW 3502   1.160   0.207   8.925
  979SOL    HW1 3503   1.160   0.271   9.002
  979SOL    HW2 3504   1.188   0.255   8.842
  980SOL     OW 3505   0.008   1.326   7.648
  980SOL    HW1 3506  -0.085   1.347   7.617
  980SOL    HW2 3507   0.018   1.227   7.661
  981SOL     OW 3508   0.088   1.801   8.375
  981SOL    HW1 3509   0.046   1.715   8.348
  981SOL    HW2 3510   0.182   1.804   8.341
  982SOL     OW 3511   0.504   1.568   8.358
  982SOL    HW1 3512   0.570   1.642   8.367
  982SOL    HW2 3513   0.548   1.489   8.316
  983SOL     OW 3514   1.002   0.796   8.686
  983SOL    HW1 3515   1.043   0.764   8.772
  983SOL    HW2 3516   0.906   0.769   8.683
  984SOL     OW 3517   0.040   0.544   8.562
  984SOL    HW1 3518   0.125   0.511   8.521
  984SOL    HW2 3519   0.053   0.559   8.660
  985SOL     OW 3520   0.189   0.520   9.170
  985SOL    HW1 3521   0.248   0.480   9.100
  985SOL    HW2 3522   0.131   0.591   9.129
  986SOL     OW 3523   1.369   0.950   9.108
  986SOL    HW1 3524   1.408   1.039   9.128
  986SOL    HW2 3525   1.379   0.930   9.011
  987SOL     OW 3526   0.815   0.572   7.773
  987SOL    HW1 3527   0.822   0.483   7.727
  987SOL    HW2 3528   0.721   0.606   7.765
  988SOL     OW 3529   1.657   0.604   8.654
  988SOL    HW1 3530   1.619   0.535   8.716
  988SOL    HW2 3531   1.739   0.568   8.610
  989SOL     OW 3532   0.252   1.564   9.192
  989SOL    HW1 3533   0.222   1.621   9.268
  989SOL    HW2 3534   0.245   1.467   9.218
  990SOL     OW 3535   0.671   0.464   8.717
  990SOL    HW1 3536   0.637   0.375   8.687
  990SOL    HW2 3537   0.697   0.518   8.637
  991SOL     OW 3538   0.930   1.678   8.913
  991SOL    HW1 3539   0.906   1.660   8.818
  991SOL    HW2 3540   0.960   1.772   8.923
  992SOL     OW 3541   0.473   0.500   7.639
  992SOL    HW1 3542   0.534   0.580   7.643
  992SOL    HW2 3543   0.378   0.531   7.646
  993SOL     OW 3544   0.159   1.137   8.914
  993SOL    HW1 3545   0.181   1.076   8.990
  993SOL    HW2 3546   0.169   1.088   8.828
  994SOL     OW 3547   1.347   1.059   8.682
  994SOL    HW1 3548   1.371   0.996   8.608
  994SOL    HW2 3549   1.257   1.099   8.664
  995SOL     OW 3550   1.302   0.855   7.757
  995SOL    HW1 3551   1.216   0.824   7.799
  995SOL    HW2 3552   1.298   0.841   7.658
  996SOL     OW 3553   1.759   1.747   8.602
  996SOL    HW1 3554   1.820   1.777   8.529
  996SOL    HW2 3555   1.721   1.658   8.580
  997SOL     OW 3556   1.252   1.731   8.576
  997SOL    HW1 3557   1.336   1.736   8.522
  997SOL    HW2 3558   1.229   1.635   8.594
  998SOL     OW 3559   0.083   1.258   8.470
  998SOL    HW1 3560   0.078   1.257   8.570
  998SOL    HW2 3561   0.000   1.217   8.432
  999SOL     OW 3562   0.688   1.662   9.164
  999SOL    HW1 3563   0.632   1.743   9.173
  999SOL    HW2 3564   0.740   1.666   9.078
 1000SOL     OW 3565   1.726   0.135   7.971
 1000SOL    HW1 3566   1.799   0.118   7.904
 1000SOL    HW2 3567   1.695   0.048   8.009
 1001SOL     OW 3568   1.388   1.573   7.925
 1001SOL    HW1 3569   1.455   1.585   7.851
 1001SOL    HW2 3570   1.348   1.662   7.948
 1002SOL     OW 3571   0.130   1.794   9.299
 1002SOL    HW1 3572   0.089   1.720   9.352
 1002SOL    HW2 3573   0.194   1.845   9.357
 1003SOL     OW 3574   1.280   0.927   8.120
 1003SOL    HW1 3575   1.340   0.846   8.122
 1003SOL    HW2 3576   1.320   0.996   8.060
 1004SOL     OW 3577   0.830   1.273   8.870
 1004SOL    HW1 3578   0.825   1.306   8.965
 1004SOL    HW2 3579   0.744   1.292   8.824
 1005SOL     OW 3580   0.672   1.616   7.602
 1005SOL    HW1 3581   0.681   1.626   7.503
 1005SOL    HW2 3582   0.632   1.527   7.623
 1006SOL     OW 3583   1.650   1.720   8.842
 1006SOL    HW1 3584   1.703   1.730   8.758
 1006SOL    HW2 3585   1.623   1.810   8.876
 1007SOL     OW 3586   1.841   0.175   8.411
 1007SOL    HW1 3587   1.880   0.090   8.375
 1007SOL    HW2 3588   1.743   0.177   8.392
 1008SOL     OW 3589   0.263   0.326   8.168
 1008SOL    HW1 3590   0.184   0.377   8.134
 1008SOL    HW2 3591   0.254   0.311   8.266
 1009SOL     OW 3592   1.194   1.612   7.479
 1009SOL    HW1 3593   1.200   1.519   7.516
 1009SOL    HW2 3594   1.135   1.612   7.399
 1010SOL     OW 3595   0.822   1.002   8.820
 1010SOL    HW1 3596   0.862   1.001   8.728
 1010SOL    HW2 3597   0.832   1.094   8.860
 1011SOL     OW 3598   0.916   0.910   7.739
 1011SOL    HW1 3599   0.979   0.948   7.671
 1011SOL    HW2 3600   0.956   0.827   7.778
 1012SOL     OW 3601   1.504   1.607   7.492
 1012SOL    HW1 3602   1.412   1.644   7.499
 1012SOL    HW2 3603   1.542   1.627   7.402
 1013SOL     OW 3604   0.372   1.288   8.938
 1013SOL    HW1 3605   0.359   1.381   8.904
 1013SOL    HW2 3606   0.288   1.236   8.925
 1014SOL     OW 3607   1.614   1.292   8.737
 1014SOL    HW1 3608   1.674   1.295   8.817
 1014SOL    HW2 3609   1.539   1.356   8.750
 1015SOL     OW 3610   1.039   1.098   8.144
 1015SOL    HW1 3611   0.969   1.051   8.198
 1015SOL    HW2 3612   1.098   1.030   8.101
 1016SOL     OW 3613   1.014   0.236   8.419
 1016SOL    HW1 3614   1.006   0.200   8.326
 1016SOL    HW2 3615   1.012   0.160   8.484
 1017SOL     OW 3616   0.590   1.487   7.939
 1017SOL    HW1 3617   0.632   1.429   7.869
 1017SOL    HW2 3618   0.546   1.566   7.895
 1018SOL     OW 3619   1.709   0.385   8.829
 1018SOL    HW1 3620   1.782   0.454   8.833
 1018SOL    HW2 3621   1.737   0.310   8.770
 1019SOL     OW 3622   0.255   1.348   7.738
 1019SOL    HW1 3623   0.159   1.349   7.711
 1019SOL    HW2 3624   0.267   1.401   7.822
 1020SOL     OW 3625   0.105   1.013   9.174
 1020SOL    HW1 3626   0.028   0.980   9.228
 1020SOL    HW2 3627   0.190   0.983   9.216
 1021SOL     OW 3628   0.672   0.203   8.937
 1021SOL    HW1 3629   0.762   0.187   8.897
 1021SOL    HW2 3630   0.680   0.208   9.036
 1022SOL     OW 3631   0.075   0.345   7.481
 1022SOL    HW1 3632  -0.017   0.317   7.452
 1022SOL    HW2 3633   0.106   0.422   7.425
 1023SOL     OW 3634   1.440   0.856   8.846
 1023SOL    HW1 3635   1.383   0.908   8.783
 1023SOL    HW2 3636   1.536   0.868   8.822
 1024SOL     OW 3637   0.072   0.166   7.766
 1024SOL    HW1 3638   0.055   0.249   7.712
 1024SOL    HW2 3639   0.162   0.129   7.744
 1025SOL     OW 3640   1.183   1.335   7.567
 1025SOL    HW1 3641   1.084   1.324   7.569
 1025SOL    HW2 3642   1.217   1.350   7.660
 1026SOL     OW 3643   0.613   0.842   8.879
 1026SOL    HW1 3644   0.669   0.923   8.862
 1026SOL    HW2 3645   0.672   0.762   8.882
 1027SOL     OW 3646   1.493   1.767   8.407
 1027SOL    HW1 3647   1.526   1.831   8.338
 1027SOL    HW2 3648   1.559   1.761   8.482
 1028SOL     OW 3649   0.716   0.565   9.156
 1028SOL    HW1 3650   0.735   0.630   9.230
 1028SOL    HW2 3651   0.776   0.485   9.165
 1029SOL     OW 3652   1.450   1.220   9.081
 1029SOL    HW1 3653   1.441   1.210   9.180
 1029SOL    HW2 3654   1.546   1.213   9.055
 1030SOL     OW 3655   0.390   1.741   9.008
 1030SOL    HW1 3656   0.299   1.782   9.006
 1030SOL    HW2 3657   0.383   1.647   9.040
 1031SOL     OW 3658   1.674   0.883   8.702
 1031SOL    HW1 3659   1.647   0.794   8.665
 1031SOL    HW2 3660   1.675   0.951   8.629
 1032SOL     OW 3661   1.225   0.325   7.897
 1032SOL    HW1 3662   1.290   0.251   7.886
 1032SOL    HW2 3663   1.245   0.375   7.981
 1033SOL     OW 3664   0.594   0.745   8.100
 1033SOL    HW1 3665   0.644   0.830   8.081
 1033SOL    HW2 3666   0.506   0.747   8.052
 1034SOL     OW 3667   1.777   0.342   9.090
 1034SOL    HW1 3668   1.760   0.373   8.996
 1034SOL    HW2 3669   1.693   0.305   9.128
 1035SOL     OW 3670   1.730   0.934   8.965
 1035SOL    HW1 3671   1.768   1.025   8.980
 1035SOL    HW2 3672   1.722   0.917   8.866
 1036SOL     OW 3673   0.859   1.374   7.464
 1036SOL    HW1 3674   0.813   1.389   7.552
 1036SOL    HW2 3675   0.903   1.459   7.434
 1037SOL     OW 3676   0.661   1.790   8.401
 1037SOL    HW1 3677   0.615   1.878   8.388
 1037SOL    HW2 3678   0.760   1.802   8.394
 1038SOL     OW 3679   0.859   0.956   8.309
 1038SOL    HW1 3680   0.913   0.887   8.357
 1038SOL    HW2 3681   0.827   1.025   8.375
 1039SOL     OW 3682   1.083   0.984   7.535
 1039SOL    HW1 3683   1.060   1.037   7.453
 1039SOL    HW2 3684   1.164   0.928   7.516
 1040SOL     OW 3685   1.861   1.569   8.299
 1040SOL    HW1 3686   1.790   1.557   8.229
 1040SOL    HW2 3687   1.862   1.490   8.359
 1041SOL     OW 3688   0.221   1.314   9.292
 1041SOL    HW1 3689   0.156   1.241   9.271
 1041SOL    HW2 3690   0.225   1.328   9.390
 1042SOL     OW 3691   0.079   1.240   8.101
 1042SOL    HW1 3692   0.078   1.193   8.189
 1042SOL    HW2 3693   0.161   1.212   8.050
 1043SOL     OW 3694   0.672   1.391   9.072
 1043SOL    HW1 3695   0.594   1.341   9.110
 1043SOL    HW2 3696   0.669   1.486   9.103
 1044SOL     OW 3697   1.824   0.192   8.675
 1044SOL    HW1 3698   1.820   0.102   8.719
 1044SOL    HW2 3699   1.827   0.181   8.576
 1045SOL     OW 3700   0.428   0.424   7.968
 1045SOL    HW1 3701   0.458   0.352   7.906
 1045SOL    HW2 3702   0.389   0.384   8.051
 1046SOL     OW 3703   1.705   1.487   8.552
 1046SOL    HW1 3704   1.612   1.462   8.525
 1046SOL    HW2 3705   1.731   1.437   8.634
 1047SOL     OW 3706   0.317   0.547   8.728
 1047SOL    HW1 3707   0.355   0.488   8.800
 1047SOL    HW2 3708   0.357   0.521   8.640
 1048SOL     OW 3709   0.812   1.586   8.135
 1048SOL    HW1 3710   0.844   1.596   8.041
 1048SOL    HW2 3711   0.733   1.524   8.137
 1049SOL     OW 3712   1.424   0.214   8.560
 1049SOL    HW1 3713   1.476   0.149   8.615
 1049SOL    HW2 3714   1.375   0.277   8.621
 1050SOL     OW 3715   1.001   0.034   8.602
 1050SOL    HW1 3716   0.938  -0.038   8.571
 1050SOL    HW2 3717   1.094  -0.002   8.602
 1051SOL     OW 3718   0.770   1.330   7.749
 1051SOL    HW1 3719   0.724   1.243   7.766
 1051SOL    HW2 3720   0.861   1.327   7.790
 1052SOL     OW 3721   0.618   1.567   8.732
 1052SOL    HW1 3722   0.613   1.649   8.789
 1052SOL    HW2 3723   0.707   1.564   8.687
 1053SOL     OW 3724   1.352   0.052   7.616
 1053SOL    HW1 3725   1.387   0.011   7.532
 1053SOL    HW2 3726   1.262   0.014   7.636
 1054SOL     OW 3727   1.300   0.453   8.139
 1054SOL    HW1 3728   1.241   0.533   8.143
 1054SOL    HW2 3729   1.315   0.418   8.232
 1055SOL     OW 3730   1.593   0.221   8.330
 1055SOL    HW1 3731   1.509   0.220   8.384
 1055SOL    HW2 3732   1.595   0.304   8.274
 1056SOL     OW 3733   0.039   1.077   7.748
 1056SOL    HW1 3734   0.138   1.066   7.739
 1056SOL    HW2 3735  -0.001   0.991   7.780
 1057SOL     OW 3736   0.875   1.646   7.785
 1057SOL    HW1 3737   0.798   1.611   7.731
 1057SOL    HW2 3738   0.843   1.717   7.847
 1058SOL     OW 3739   0.230   0.628   9.423
 1058SOL    HW1 3740   0.137   0.626   9.460
 1058SOL    HW2 3741   0.231   0.589   9.331
 1059SOL     OW 3742   0.225   0.275  10.306
 1059SOL    HW1 3743   0.260   0.258  10.398
 1059SOL    HW2 3744   0.137   0.230  10.294
 1060SOL     OW 3745   0.019   0.368   9.957
 1060SOL    HW1 3746  -0.063   0.411   9.996
 1060SOL    HW2 3747  -0.009   0.295   9.894
 1061SOL     OW 3748   0.569   1.275  10.475
 1061SOL    HW1 3749   0.476   1.268  10.438
 1061SOL    HW2 3750   0.580   1.364  10.519
 1062SOL     OW 3751   1.555   1.511  10.013
 1062SOL    HW1 3752   1.498   1.495  10.094
 1062SOL    HW2 3753   1.496   1.521   9.933
 1063SOL     OW 3754   1.135   0.703  10.027
 1063SOL    HW1 3755   1.192   0.781  10.002
 1063SOL    HW2 3756   1.075   0.729  10.103
 1064SOL     OW 3757   1.755   0.607   9.541
 1064SOL    HW1 3758   1.743   0.594   9.442
 1064SOL    HW2 3759   1.725   0.526   9.590
 1065SOL     OW 3760   0.768   1.144  10.333
 1065SOL    HW1 3761   0.690   1.161  10.393
 1065SOL    HW2 3762   0.802   1.231  10.297
 1066SOL     OW 3763   0.850   0.798  11.133
 1066SOL    HW1 3764   0.846   0.874  11.198
 1066SOL    HW2 3765   0.872   0.834  11.042
 1067SOL     OW 3766   0.685   1.012   9.975
 1067SOL    HW1 3767   0.754   0.996  10.045
 1067SOL    HW2 3768   0.612   1.069  10.013
 1068SOL     OW 3769   0.335   1.435  10.371
 1068SOL    HW1 3770   0.257   1.404  10.318
 1068SOL    HW2 3771   0.393   1.493  10.314
 1069SOL     OW 3772   1.460   1.505  10.649
 1069SOL    HW1 3773   1.484   1.599  10.675
 1069SOL    HW2 3774   1.444   1.451  10.731
 1070SOL     OW 3775   0.438   0.392  10.809
 1070SOL    HW1 3776   0.520   0.336  10.818
 1070SOL    HW2 3777   0.357   0.334  10.813
 1071SOL     OW 3778   1.603   0.447  10.047
 1071SOL    HW1 3779   1.529   0.493   9.997
 1071SOL    HW2 3780   1.654   0.515  10.100
 1072SOL     OW 3781   0.231   1.713   9.793
 1072SOL    HW1 3782   0.265   1.790   9.847
 1072SOL    HW2 3783   0.275   1.713   9.703
 1073SOL     OW 3784   0.230   1.434   9.848
 1073SOL    HW1 3785   0.204   1.530   9.848
 1073SOL    HW2 3786   0.159   1.380   9.893
 1074SOL     OW 3787   0.240   1.091  10.196
 1074SOL    HW1 3788   0.254   1.007  10.248
 1074SOL    HW2 3789   0.185   1.155  10.251
 1075SOL     OW 3790   0.620   1.786  10.749
 1075SOL    HW1 3791   0.528   1.769  10.784
 1075SOL    HW2 3792   0.648   1.878  10.775
 1076SOL     OW 3793   0.606   0.964   9.433
 1076SOL    HW1 3794   0.613   1.048   9.379
 1076SOL    HW2 3795   0.652   0.977   9.521
 1077SOL     OW 3796   1.594   0.114  10.790
 1077SOL    HW1 3797   1.576   0.181  10.718
 1077SOL    HW2 3798   1.591   0.160  10.879
 1078SOL     OW 3799   0.122   0.643   9.873
 1078SOL    HW1 3800   0.077   0.555   9.890
 1078SOL    HW2 3801   0.121   0.697   9.957
 1079SOL     OW 3802   1.842   1.767   9.669
 1079SOL    HW1 3803   1.896   1.738   9.749
 1079SOL    HW2 3804   1.872   1.857   9.640
 1080SOL     OW 3805   0.027   1.596   9.427
 1080SOL    HW1 3806   0.008   1.500   9.448
 1080SOL    HW2 3807  -0.006   1.654   9.502
 1081SOL     OW 3808   1.689   0.922   9.922
 1081SOL    HW1 3809   1.784   0.893   9.930
 1081SOL    HW2 3810   1.681   0.987   9.847
 1082SOL     OW 3811   1.641   1.108   9.742
 1082SOL    HW1 3812   1.727   1.110   9.690
 1082SOL    HW2 3813   1.655   1.155   9.830
 1083SOL     OW 3814   0.113   0.737  10.907
 1083SOL    HW1 3815   0.201   0.724  10.952
 1083SOL    HW2 3816   0.100   0.834  10.885
 1084SOL     OW 3817   0.613   1.365  10.036
 1084SOL    HW1 3818   0.564   1.278  10.045
 1084SOL    HW2 3819   0.590   1.408   9.949
 1085SOL     OW 3820   1.293   1.228  10.733
 1085SOL    HW1 3821   1.330   1.155  10.675
 1085SOL    HW2 3822   1.345   1.233  10.818
 1086SOL     OW 3823   0.809   0.004   9.812
 1086SOL    HW1 3824   0.849   0.095   9.803
 1086SOL    HW2 3825   0.709   0.012   9.818
 1087SOL     OW 3826   0.197   0.976  10.574
 1087SOL    HW1 3827   0.286   0.931  10.560
 1087SOL    HW2 3828   0.124   0.911  10.555
 1088SOL     OW 3829   1.525   0.999   9.500
 1088SOL    HW1 3830   1.462   0.923   9.513
 1088SOL    HW2 3831   1.573   1.017   9.586
 1089SOL     OW 3832   1.187   1.792  10.926
 1089SOL    HW1 3833   1.211   1.852  10.850
 1089SOL    HW2 3834   1.194   1.697  10.896
 1090SOL     OW 3835   0.317   0.251  11.111
 1090SOL    HW1 3836   0.388   0.322  11.117
 1090SOL    HW2 3837   0.229   0.290  11.139
 1091SOL     OW 3838   1.466   1.417  10.263
 1091SOL    HW1 3839   1.407   1.423  10.343
 1091SOL    HW2 3840   1.451   1.329  10.217
 1092SOL     OW 3841   1.667   1.714   9.882
 1092SOL    HW1 3842   1.626   1.691   9.794
 1092SOL    HW2 3843   1.649   1.640   9.947
 1093SOL     OW 3844   0.598   0.729   9.580
 1093SOL    HW1 3845   0.622   0.798   9.512
 1093SOL    HW2 3846   0.520   0.762   9.634
 1094SOL     OW 3847   1.281   0.345  10.254
 1094SOL    HW1 3848   1.195   0.295  10.241
 1094SOL    HW2 3849   1.343   0.291  10.310
 1095SOL     OW 3850   1.576   1.662   9.617
 1095SOL    HW1 3851   1.665   1.708   9.620
 1095SOL    HW2 3852   1.555   1.638   9.522
 1096SOL     OW 3853   0.807   0.605  10.775
 1096SOL    HW1 3854   0.760   0.602  10.864
 1096SOL    HW2 3855   0.756   0.550  10.709
 1097SOL     OW 3856   0.973   0.890  10.882
 1097SOL    HW1 3857   1.019   0.806  10.853
 1097SOL    HW2 3858   0.917   0.924  10.807
 1098SOL     OW 3859   0.991   0.410  10.552
 1098SOL    HW1 3860   0.914   0.444  10.606
 1098SOL    HW2 3861   0.957   0.359  10.473
 1099SOL     OW 3862   1.041   0.701   9.739
 1099SOL    HW1 3863   1.067   0.697   9.835
 1099SOL    HW2 3864   0.956   0.650   9.725
 1100SOL     OW 3865   0.076   0.811  10.099
 1100SOL    HW1 3866   0.175   0.799  10.108
 1100SOL    HW2 3867   0.052   0.906  10.120
 1101SOL     OW 3868   0.130   1.821  10.881
 1101SOL    HW1 3869   0.120   1.806  10.980
 1101SOL    HW2 3870   0.044   1.857  10.845
 1102SOL     OW 3871   0.865   0.348   9.505
 1102SOL    HW1 3872   0.924   0.411   9.456
 1102SOL    HW2 3873   0.884   0.254   9.476
 1103SOL     OW 3874   1.362   1.144   9.855
 1103SOL    HW1 3875   1.445   1.115   9.807
 1103SOL    HW2 3876   1.313   1.211   9.799
 1104SOL     OW 3877   0.550   0.196  10.195
 1104SOL    HW1 3878   0.545   0.191  10.295
 1104SOL    HW2 3879   0.552   0.292  10.166
 1105SOL     OW 3880   1.008   1.456   9.787
 1105SOL    HW1 3881   0.962   1.528   9.735
 1105SOL    HW2 3882   1.004   1.476   9.885
 1106SOL     OW 3883   0.351   1.801  10.163
 1106SOL    HW1 3884   0.401   1.715  10.169
 1106SOL    HW2 3885   0.416   1.878  10.160
 1107SOL     OW 3886   1.795   1.066  10.183
 1107SOL    HW1 3887   1.733   1.051  10.107
 1107SOL    HW2 3888   1.743   1.077  10.268
 1108SOL     OW 3889   1.227   1.550  10.816
 1108SOL    HW1 3890   1.233   1.473  10.880
 1108SOL    HW2 3891   1.175   1.524  10.736
 1109SOL     OW 3892   0.321   0.943   9.552
 1109SOL    HW1 3893   0.403   0.982   9.510
 1109SOL    HW2 3894   0.294   0.861   9.503
 1110SOL     OW 3895   1.458   0.735  10.038
 1110SOL    HW1 3896   1.453   0.670  10.113
 1110SOL    HW2 3897   1.538   0.794  10.051
 1111SOL     OW 3898   0.461   1.266  11.037
 1111SOL    HW1 3899   0.411   1.267  10.951
 1111SOL    HW2 3900   0.398   1.248  11.113
 1112SOL     OW 3901   1.111   1.776   9.547
 1112SOL    HW1 3902   1.051   1.714   9.597
 1112SOL    HW2 3903   1.142   1.732   9.462
 1113SOL     OW 3904   0.202   0.285  10.808
 1113SOL    HW1 3905   0.122   0.345  10.795
 1113SOL    HW2 3906   0.192   0.236  10.894
 1114SOL     OW 3907   1.632   1.377   9.391
 1114SOL    HW1 3908   1.600   1.471   9.381
 1114SOL    HW2 3909   1.556   1.314   9.379
 1115SOL     OW 3910   0.464   1.743   9.633
 1115SOL    HW1 3911   0.497   1.782   9.719
 1115SOL    HW2 3912   0.540   1.736   9.568
 1116SOL     OW 3913   1.400   0.107   9.736
 1116SOL    HW1 3914   1.376   0.070   9.646
 1116SOL    HW2 3915   1.499   0.123   9.740
 1117SOL     OW 3916   0.249   1.785  10.551
 1117SOL    HW1 3917   0.306   1.720  10.601
 1117SOL    HW2 3918   0.233   1.752  10.458
 1118SOL     OW 3919   0.940   1.698  10.214
 1118SOL    HW1 3920   1.020   1.641  10.235
 1118SOL    HW2 3921   0.891   1.658  10.137
 1119SOL     OW 3922   0.382   0.700   9.790
 1119SOL    HW1 3923   0.427   0.610   9.787
 1119SOL    HW2 3924   0.288   0.689   9.823
 1120SOL     OW 3925   0.614   0.122   9.427
 1120SOL    HW1 3926   0.712   0.100   9.434
 1120SOL    HW2 3927   0.583   0.105   9.334
 1121SOL     OW 3928   0.781   0.264  11.059
 1121SOL    HW1 3929   0.848   0.203  11.102
 1121SOL    HW2 3930   0.708   0.283  11.124
 1122SOL     OW 3931   0.888   1.514  10.505
 1122SOL    HW1 3932   0.865   1.489  10.411
 1122SOL    HW2 3933   0.949   1.445  10.544
 1123SOL     OW 3934   1.351   0.590  10.743
 1123SOL    HW1 3935   1.379   0.547  10.828
 1123SOL    HW2 3936   1.376   0.686  10.744
 1124SOL     OW 3937   0.803   1.402  10.234
 1124SOL    HW1 3938   0.893   1.416  10.192
 1124SOL    HW2 3939   0.732   1.404  10.163
 1125SOL     OW 3940   0.922   0.503  10.209
 1125SOL    HW1 3941   0.897   0.494  10.113
 1125SOL    HW2 3942   0.970   0.421  10.240
 1126SOL     OW 3943   0.539   0.064   9.822
 1126SOL    HW1 3944   0.458   0.065   9.880
 1126SOL    HW2 3945   0.542   0.147   9.767
 1127SOL     OW 3946   1.434   1.188   9.351
 1127SOL    HW1 3947   1.466   1.112   9.408
 1127SOL    HW2 3948   1.342   1.215   9.381
 1128SOL     OW 3949   0.297   0.035   9.481
 1128SOL    HW1 3950   0.346   0.119   9.460
 1128SOL    HW2 3951   0.359  -0.030   9.526
 1129SOL     OW 3952   0.935   0.236   9.790
 1129SOL    HW1 3953   0.887   0.277   9.712
 1129SOL    HW2 3954   1.034   0.234   9.771
 1130SOL     OW 3955   1.076   0.683  10.774
 1130SOL    HW1 3956   0.996   0.622  10.777
 1130SOL    HW2 3957   1.157   0.630  10.750
 1131SOL     OW 3958   1.227   1.570  10.103
 1131SOL    HW1 3959   1.248   1.644  10.038
 1131SOL    HW2 3960   1.295   1.570  10.176
 1132SOL     OW 3961   0.459   1.152  10.051
 1132SOL    HW1 3962   0.388   1.125  10.116
 1132SOL    HW2 3963   0.433   1.124   9.958
 1133SOL     OW 3964   1.271   1.797   9.901
 1133SOL    HW1 3965   1.315   1.861   9.837
 1133SOL    HW2 3966   1.221   1.849   9.971
 1134SOL     OW 3967   1.032   0.549   9.326
 1134SOL    HW1 3968   0.991   0.631   9.287
 1134SOL    HW2 3969   1.096   0.575   9.399
 1135SOL     OW 3970   0.078   0.556  10.696
 1135SOL    HW1 3971   0.170   0.555  10.655
 1135SOL    HW2 3972   0.072   0.630  10.763
 1136SOL     OW 3973   0.561   0.222  10.457
 1136SOL    HW1 3974   0.599   0.138  10.494
 1136SOL    HW2 3975   0.473   0.241  10.501
 1137SOL     OW 3976   0.866   0.454   9.952
 1137SOL    HW1 3977   0.834   0.526   9.890
 1137SOL    HW2 3978   0.890   0.373   9.899
 1138SOL     OW 3979   1.017   0.039  10.063
 1138SOL    HW1 3980   0.945   0.044   9.994
 1138SOL    HW2 3981   0.993  -0.030  10.132
 1139SOL     OW 3982   1.429   1.173  10.177
 1139SOL    HW1 3983   1.374   1.089  10.170
 1139SOL    HW2 3984   1.455   1.202  10.085
 1140SOL     OW 3985   1.466   0.590  10.302
 1140SOL    HW1 3986   1.436   0.495  10.309
 1140SOL    HW2 3987   1.539   0.606  10.368
 1141SOL     OW 3988   1.857   0.833   9.687
 1141SOL    HW1 3989   1.899   0.769   9.751
 1141SOL    HW2 3990   1.819   0.782   9.609
 1142SOL     OW 3991   0.488   1.385   9.484
 1142SOL    HW1 3992   0.401   1.370   9.531
 1142SOL    HW2 3993   0.471   1.411   9.389
 1143SOL     OW 3994   1.664   1.280   9.967
 1143SOL    HW1 3995   1.763   1.288   9.981
 1143SOL    HW2 3996   1.619   1.364   9.998
 1144SOL     OW 3997   1.390   0.575   9.388
 1144SOL    HW1 3998   1.336   0.554   9.469
 1144SOL    HW2 3999   1.481   0.534   9.397
 1145SOL     OW 4000   0.527   0.256   9.638
 1145SOL    HW1 4001   0.554   0.197   9.563
 1145SOL    HW2 4002   0.527   0.351   9.607
 1146SOL     OW 4003   1.754   1.223  10.898
 1146SOL    HW1 4004   1.845   1.184  10.885
 1146SOL    HW2 4005   1.762   1.319  10.922
 1147SOL     OW 4006   1.064   1.347  10.650
 1147SOL    HW1 4007   0.984   1.324  10.705
 1147SOL    HW2 4008   1.147   1.321  10.699
 1148SOL     OW 4009   1.111   1.195  10.410
 1148SOL    HW1 4010   1.071   1.239  10.491
 1148SOL    HW2 4011   1.070   1.232  10.327
 1149SOL     OW 4012   1.638   1.099  10.389
 1149SOL    HW1 4013   1.643   1.180  10.448
 1149SOL    HW2 4014   1.552   1.101  10.338
 1150SOL     OW 4015   0.915   0.089  10.712
 1150SOL    HW1 4016   0.940   0.069  10.617
 1150SOL    HW2 4017   0.987   0.145  10.754
 1151SOL     OW 4018   0.705   1.050   9.678
 1151SOL    HW1 4019   0.691   1.057   9.777
 1151SOL    HW2 4020   0.789   0.999   9.660
 1152SOL     OW 4021   0.410   0.813  10.561
 1152SOL    HW1 4022   0.496   0.825  10.611
 1152SOL    HW2 4023   0.368   0.726  10.588
 1153SOL     OW 4024   1.274   0.386  10.572
 1153SOL    HW1 4025   1.295   0.460  10.636
 1153SOL    HW2 4026   1.185   0.403  10.529
 1154SOL     OW 4027   0.064   1.564  10.641
 1154SOL    HW1 4028   0.018   1.646  10.607
 1154SOL    HW2 4029   0.162   1.583  10.650
 1155SOL     OW 4030   0.367   1.100   9.811
 1155SOL    HW1 4031   0.360   1.183   9.755
 1155SOL    HW2 4032   0.371   1.020   9.751
 1156SOL     OW 4033   0.566   0.537  10.175
 1156SOL    HW1 4034   0.578   0.603  10.101
 1156SOL    HW2 4035   0.612   0.571  10.258
 1157SOL     OW 4036   1.252   1.348   9.698
 1157SOL    HW1 4037   1.302   1.425   9.738
 1157SOL    HW2 4038   1.157   1.350   9.730
 1158SOL     OW 4039   1.272   1.445  10.452
 1158SOL    HW1 4040   1.319   1.458  10.539
 1158SOL    HW2 4041   1.206   1.371  10.461
 1159SOL     OW 4042   1.582   0.639   9.782
 1159SOL    HW1 4043   1.551   0.700   9.855
 1159SOL    HW2 4044   1.632   0.691   9.713
 1160SOL     OW 4045   0.354   1.510  10.639
 1160SOL    HW1 4046   0.333   1.466  10.552
 1160SOL    HW2 4047   0.451   1.536  10.642
 1161SOL     OW 4048   0.402   0.751  10.908
 1161SOL    HW1 4049   0.470   0.806  10.861
 1161SOL    HW2 4050   0.442   0.663  10.935
 1162SOL     OW 4051   1.587   0.779  10.980
 1162SOL    HW1 4052   1.495   0.817  10.975
 1162SOL    HW2 4053   1.647   0.826  10.915
 1163SOL     OW 4054   0.573   0.870  10.339
 1163SOL    HW1 4055   0.617   0.959  10.330
 1163SOL    HW2 4056   0.510   0.870  10.416
 1164SOL     OW 4057   1.360   0.862  10.355
 1164SOL    HW1 4058   1.285   0.862  10.289
 1164SOL    HW2 4059   1.397   0.770  10.364
 1165SOL     OW 4060   1.209   0.525   9.585
 1165SOL    HW1 4061   1.222   0.441   9.639
 1165SOL    HW2 4062   1.180   0.599   9.645
 1166SOL     OW 4063   0.307   0.213  10.541
 1166SOL    HW1 4064   0.284   0.250  10.631
 1166SOL    HW2 4065   0.277   0.118  10.535
 1167SOL     OW 4066   0.037   1.310  10.592
 1167SOL    HW1 4067   0.090   1.261  10.660
 1167SOL    HW2 4068   0.059   1.408  10.597
 1168SOL     OW 4069   0.732   0.634  10.374
 1168SOL    HW1 4070   0.791   0.608  10.298
 1168SOL    HW2 4071   0.704   0.730  10.363
 1169SOL     OW 4072   0.307   0.063   9.928
 1169SOL    HW1 4073   0.296   0.157   9.961
 1169SOL    HW2 4074   0.302   0.000  10.005
 1170SOL     OW 4075   1.622   0.367   9.684
 1170SOL    HW1 4076   1.624   0.291   9.748
 1170SOL    HW2 4077   1.574   0.444   9.724
 1171SOL     OW 4078   1.023   0.766  10.276
 1171SOL    HW1 4079   1.038   0.787  10.372
 1171SOL    HW2 4080   0.993   0.671  10.267
 1172SOL     OW 4081   0.980   1.573  11.010
 1172SOL    HW1 4082   0.960   1.617  10.922
 1172SOL    HW2 4083   1.019   1.482  10.994
 1173SOL     OW 4084   1.859   1.518  10.915
 1173SOL    HW1 4085   1.873   1.545  10.820
 1173SOL    HW2 4086   1.942   1.540  10.968
 1174SOL     OW 4087   0.350   0.898  11.114
 1174SOL    HW1 4088   0.426   0.942  11.162
 1174SOL    HW2 4089   0.385   0.851  11.032
 1175SOL     OW 4090   1.540   0.274   9.435
 1175SOL    HW1 4091   1.479   0.199   9.458
 1175SOL    HW2 4092   1.562   0.326   9.518
 1176SOL     OW 4093   1.303   0.838   9.352
 1176SOL    HW1 4094   1.337   0.745   9.367
 1176SOL    HW2 4095   1.321   0.865   9.257
 1177SOL     OW 4096   1.068   1.333  10.159
 1177SOL    HW1 4097   1.075   1.249  10.104
 1177SOL    HW2 4098   1.130   1.402  10.123
 1178SOL     OW 4099   0.319   0.810  10.259
 1178SOL    HW1 4100   0.412   0.846  10.264
 1178SOL    HW2 4101   0.313   0.725  10.311
 1179SOL     OW 4102   0.339   0.509  10.316
 1179SOL    HW1 4103   0.287   0.426  10.299
 1179SOL    HW2 4104   0.416   0.514  10.252
 1180SOL     OW 4105   1.160   0.207  10.787
 1180SOL    HW1 4106   1.160   0.271  10.864
 1180SOL    HW2 4107   1.188   0.255  10.704
 1181SOL     OW 4108   0.008   1.326   9.510
 1181SOL    HW1 4109  -0.085   1.347   9.479
 1181SOL    HW2 4110   0.018   1.227   9.523
 1182SOL     OW 4111   0.088   1.801  10.237
 1182SOL    HW1 4112   0.046   1.715  10.210
 1182SOL    HW2 4113   0.182   1.804  10.203
 1183SOL     OW 4114   0.504   1.568  10.220
 1183SOL    HW1 4115   0.570   1.642  10.229
 1183SOL    HW2 4116   0.548   1.489  10.178
 1184SOL     OW 4117   1.002   0.796  10.548
 1184SOL    HW1 4118   1.043   0.764  10.634
 1184SOL    HW2 4119   0.906   0.769  10.545
 1185SOL     OW 4120   0.040   0.544  10.424
 1185SOL    HW1 4121   0.125   0.511  10.383
 1185SOL    HW2 4122   0.053   0.559  10.522
 1186SOL     OW 4123   0.815   0.572   9.635
 1186SOL    HW1 4124   0.822   0.483   9.589
 1186SOL    HW2 4125   0.721   0.606   9.627
 1187SOL     OW 4126   1.657   0.604  10.516
 1187SOL    HW1 4127   1.619   0.535  10.578
 1187SOL    HW2 4128   1.739   0.568  10.472
 1188SOL     OW 4129   0.252   1.564  11.054
 1188SOL    HW1 4130   0.222   1.621  11.130
 1188SOL    HW2 4131   0.245   1.467  11.080
 1189SOL     OW 4132   0.671   0.464  10.579
 1189SOL    HW1 4133   0.637   0.375  10.549
 1189SOL    HW2 4134   0.697   0.518  10.499
 1190SOL     OW 4135   0.930   1.678  10.775
 1190SOL    HW1 4136   0.906   1.660  10.680
 1190SOL    HW2 4137   0.960   1.772  10.785
 1191SOL     OW 4138   0.473   0.500   9.501
 1191SOL    HW1 4139   0.534   0.580   9.505
 1191SOL    HW2 4140   0.378   0.531   9.508
 1192SOL     OW 4141   0.159   1.137  10.776
 1192SOL    HW1 4142   0.181   1.076  10.852
 1192SOL    HW2 4143   0.169   1.088  10.690
 1193SOL     OW 4144   1.347   1.059  10.544
 1193SOL    HW1 4145   1.371   0.996  10.470
 1193SOL    HW2 4146   1.257   1.099  10.526
 1194SOL     OW 4147   1.302   0.855   9.619
 1194SOL    HW1 4148   1.216   0.824   9.661
 1194SOL    HW2 4149   1.298   0.841   9.520
 1195SOL     OW 4150   1.759   1.747  10.464
 1195SOL    HW1 4151   1.820   1.777  10.391
 1195SOL    HW2 4152   1.721   1.658  10.442
 1196SOL     OW 4153   1.252   1.731  10.438
 1196SOL    HW1 4154   1.336   1.736  10.384
 1196SOL    HW2 4155   1.229   1.635  10.456
 1197SOL     OW 4156   0.083   1.258  10.332
 1197SOL    HW1 4157   0.078   1.257  10.432
 1197SOL    HW2 4158   0.000   1.217  10.294
 1198SOL     OW 4159   1.726   0.135   9.833
 1198SOL    HW1 4160   1.799   0.118   9.766
 1198SOL    HW2 4161   1.695   0.048   9.871
 1199SOL     OW 4162   1.388   1.573   9.787
 1199SOL    HW1 4163   1.455   1.585   9.713
 1199SOL    HW2 4164   1.348   1.662   9.810
 1200SOL     OW 4165   1.280   0.927   9.982
 1200SOL    HW1 4166   1.340   0.846   9.984
 1200SOL    HW2 4167   1.320   0.996   9.922
 1201SOL     OW 4168   0.830   1.273  10.732
 1201SOL    HW1 4169   0.825   1.306  10.827
 1201SOL    HW2 4170   0.744   1.292  10.686
 1202SOL     OW 4171   0.672   1.616   9.464
 1202SOL    HW1 4172   0.681   1.626   9.365
 1202SOL    HW2 4173   0.632   1.527   9.485
 1203SOL     OW 4174   1.650   1.720  10.704
 1203SOL    HW1 4175   1.703   1.730  10.620
 1203SOL    HW2 4176   1.623   1.810  10.738
 1204SOL     OW 4177   1.841   0.175  10.273
 1204SOL    HW1 4178   1.880   0.090  10.237
 1204SOL    HW2 4179   1.743   0.177  10.254
 1205SOL     OW 4180   0.263   0.326  10.030
 1205SOL    HW1 4181   0.184   0.377   9.996
 1205SOL    HW2 4182   0.254   0.311  10.128
 1206SOL     OW 4183   1.194   1.612   9.341
 1206SOL    HW1 4184   1.200   1.519   9.378
 1206SOL    HW2 4185   1.135   1.612   9.261
 1207SOL     OW 4186   0.822   1.002  10.682
 1207SOL    HW1 4187   0.862   1.001  10.590
 1207SOL    HW2 4188   0.832   1.094  10.722
 1208SOL     OW 4189   0.916   0.910   9.601
 1208SOL    HW1 4190   0.979   0.948   9.533
 1208SOL    HW2 4191   0.956   0.827   9.640
 1209SOL     OW 4192   1.504   1.607   9.354
 1209SOL    HW1 4193   1.412   1.644   9.361
 1209SOL    HW2 4194   1.542   1.627   9.264
 1210SOL     OW 4195   0.372   1.288  10.800
 1210SOL    HW1 4196   0.359   1.381  10.766
 1210SOL    HW2 4197   0.288   1.236  10.787
 1211SOL     OW 4198   1.614   1.292  10.599
 1211SOL    HW1 4199   1.674   1.295  10.679
 1211SOL    HW2 4200   1.539   1.356  10.612
 1212SOL     OW 4201   1.039   1.098  10.006
 1212SOL    HW1 4202   0.969   1.051  10.060
 1212SOL    HW2 4203   1.098   1.030   9.963
 1213SOL     OW 4204   1.014   0.236  10.281
 1213SOL    HW1 4205   1.006   0.200  10.188
 1213SOL    HW2 4206   1.012   0.160  10.346
 1214SOL     OW 4207   0.590   1.487   9.801
 1214SOL    HW1 4208   0.632   1.429   9.731
 1214SOL    HW2 4209   0.546   1.566   9.757
 1215SOL     OW 4210   1.709   0.385  10.691
 1215SOL    HW1 4211   1.782   0.454  10.695
 1215SOL    HW2 4212   1.737   0.310  10.632
 1216SOL     OW 4213   0.255   1.348   9.600
 1216SOL    HW1 4214   0.159   1.349   9.573
 1216SOL    HW2 4215   0.267   1.401   9.684
 1217SOL     OW 4216   0.105   1.013  11.036
 1217SOL    HW1 4217   0.028   0.980  11.090
 1217SOL    HW2 4218   0.190   0.983  11.078
 1218SOL     OW 4219   0.672   0.203  10.799
 1218SOL    HW1 4220   0.762   0.187  10.759
 1218SOL    HW2 4221   0.680   0.208  10.898
 1219SOL     OW 4222   0.075   0.345   9.343
 1219SOL    HW1 4223  -0.017   0.317   9.314
 1219SOL    HW2 4224   0.106   0.422   9.287
 1220SOL     OW 4225   1.440   0.856  10.708
 1220SOL    HW1 4226   1.383   0.908  10.645
 1220SOL    HW2 4227   1.536   0.868  10.684
 1221SOL     OW 4228   0.072   0.166   9.628
 1221SOL    HW1 4229   0.055   0.249   9.574
 1221SOL    HW2 4230   0.162   0.129   9.606
 1222SOL     OW 4231   1.183   1.335   9.429
 1222SOL    HW1 4232   1.084   1.324   9.431
 1222SOL    HW2 4233   1.217   1.350   9.522
 1223SOL     OW 4234   0.613   0.842  10.741
 1223SOL    HW1 4235   0.669   0.923  10.724
 1223SOL    HW2 4236   0.672   0.762  10.744
 1224SOL     OW 4237   1.493   1.767  10.269
 1224SOL    HW1 4238   1.526   1.831  10.200
 1224SOL    HW2 4239   1.559   1.761  10.344
 1225SOL     OW 4240   0.716   0.565  11.018
 1225SOL    HW1 4241   0.735   0.630  11.092
 1225SOL    HW2 4242   0.776   0.485  11.027
 1226SOL     OW 4243   0.390   1.741  10.870
 1226SOL    HW1 4244   0.299   1.782  10.868
 1226SOL    HW2 4245   0.383   1.647  10.902
 1227SOL     OW 4246   1.674   0.883  10.564
 1227SOL    HW1 4247   1.647   0.794  10.527
 1227SOL    HW2 4248   1.675   0.951  10.491
 1228SOL     OW 4249   1.225   0.325   9.759
 1228SOL    HW1 4250   1.290   0.251   9.748
 1228SOL    HW2 4251   1.245   0.375   9.843
 1229SOL     OW 4252   0.594   0.745   9.962
 1229SOL    HW1 4253   0.644   0.830   9.943
 1229SOL    HW2 4254   0.506   0.747   9.914
 1230SOL     OW 4255   1.777   0.342  10.952
 1230SOL    HW1 4256   1.760   0.373  10.858
 1230SOL    HW2 4257   1.693   0.305  10.990
 1231SOL     OW 4258   1.730   0.934  10.827
 1231SOL    HW1 4259   1.768   1.025  10.842
 1231SOL    HW2 4260   1.722   0.917  10.728
 1232SOL     OW 4261   0.859   1.374   9.326
 1232SOL    HW1 4262   0.813   1.389   9.414
 1232SOL    HW2 4263   0.903   1.459   9.296
 1233SOL     OW 4264   0.661   1.790  10.263
 1233SOL    HW1 4265   0.615   1.878  10.250
 1233SOL    HW2 4266   0.760   1.802  10.256
 1234SOL     OW 4267   0.859   0.956  10.171
 1234SOL    HW1 4268   0.913   0.887  10.219
 1234SOL    HW2 4269   0.827   1.025  10.237
 1235SOL     OW 4270   1.083   0.984   9.397
 1235SOL    HW1 4271   1.060   1.037   9.315
 1235SOL    HW2 4272   1.164   0.928   9.378
 1236SOL     OW 4273   1.861   1.569  10.161
 1236SOL    HW1 4274   1.790   1.557  10.091
 1236SOL    HW2 4275   1.862   1.490  10.221
 1237SOL     OW 4276   0.079   1.240   9.963
 1237SOL    HW1 4277   0.078   1.193  10.051
 1237SOL    HW2 4278   0.161   1.212   9.912
 1238SOL     OW 4279   0.672   1.391  10.934
 1238SOL    HW1 4280   0.594   1.341  10.972
 1238SOL    HW2 4281   0.669   1.486  10.965
 1239SOL     OW 4282   1.824   0.192  10.537
 1239SOL    HW1 4283   1.820   0.102  10.581
 1239SOL    HW2 4284   1.827   0.181  10.438
 1240SOL     OW 4285   0.428   0.424   9.830
 1240SOL    HW1 4286   0.458   0.352   9.768
 1240SOL    HW2 4287   0.389   0.384   9.913
 1241SOL     OW 4288   1.705   1.487  10.414
 1241SOL    HW1 4289   1.612   1.462  10.387
 1241SOL    HW2 4290   1.731   1.437  10.496
 1242SOL     OW 4291   0.317   0.547  10.590
 1242SOL    HW1 4292   0.355   0.488  10.662
 1242SOL    HW2 4293   0.357   0.521  10.502
 1243SOL     OW 4294   0.812   1.586   9.997
 1243SOL    HW1 4295   0.844   1.596   9.903
 1243SOL    HW2 4296   0.733   1.524   9.999
 1244SOL     OW 4297   1.424   0.214  10.422
 1244SOL    HW1 4298   1.476   0.149  10.477
 1244SOL    HW2 4299   1.375   0.277  10.483
 1245SOL     OW 4300   1.001   0.034  10.464
 1245SOL    HW1 4301   0.938  -0.038  10.433
 1245SOL    HW2 4302   1.094  -0.002  10.464
 1246SOL     OW 4303   0.770   1.330   9.611
 1246SOL    HW1 4304   0.724   1.243   9.628
 1246SOL    HW2 4305   0.861   1.327   9.652
 1247SOL     OW 4306   0.618   1.567  10.594
 1247SOL    HW1 4307   0.613   1.649  10.651
 1247SOL    HW2 4308   0.707   1.564  10.549
 1248SOL     OW 4309   1.352   0.052   9.478
 1248SOL    HW1 4310   1.387   0.011   9.394
 1248SOL    HW2 4311   1.262   0.014   9.498
 1249SOL     OW 4312   1.300   0.453  10.001
 1249SOL    HW1 4313   1.241   0.533  10.005
 1249SOL    HW2 4314   1.315   0.418  10.094
 1250SOL     OW 4315   1.593   0.221  10.192
 1250SOL    HW1 4316   1.509   0.220  10.246
 1250SOL    HW2 4317   1.595   0.304  10.136
 1251SOL     OW 4318   0.039   1.077   9.610
 1251SOL    HW1 4319   0.138   1.066   9.601
 1251SOL    HW2 4320  -0.001   0.991   9.642
 1252SOL     OW 4321   0.875   1.646   9.647
 1252SOL    HW1 4322   0.798   1.611   9.593
 1252SOL    HW2 4323   0.843   1.717   9.709
 1253SOL     OW 4324   0.230   2.490   0.113
 1253SOL    HW1 4325   0.137   2.488   0.150
 1253SOL    HW2 4326   0.231   2.451   0.021
 1254SOL     OW 4327   0.225   2.137   0.996
 1254SOL    HW1 4328   0.260   2.120   1.088
 1254SOL    HW2 4329   0.137   2.092   0.984
 1255SOL     OW 4330   0.019   2.230   0.647
 1255SOL    HW1 4331  -0.063   2.273   0.686
 1255SOL    HW2 4332  -0.009   2.157   0.584
 1256SOL     OW 4333   0.569   3.137   1.165
 1256SOL    HW1 4334   0.476   3.130   1.128
 1256SOL    HW2 4335   0.580   3.226   1.209
 1257SOL     OW 4336   1.555   3.373   0.703
 1257SOL    HW1 4337   1.498   3.357   0.784
 1257SOL    HW2 4338   1.496   3.383   0.623
 1258SOL     OW 4339   1.135   2.565   0.717
 1258SOL    HW1 4340   1.192   2.643   0.692
 1258SOL    HW2 4341   1.075   2.591   0.793
 1259SOL     OW 4342   1.755   2.469   0.231
 1259SOL    HW1 4343   1.743   2.456   0.132
 1259SOL    HW2 4344   1.725   2.388   0.280
 1260SOL     OW 4345   0.768   3.006   1.023
 1260SOL    HW1 4346   0.690   3.023   1.083
 1260SOL    HW2 4347   0.802   3.093   0.987
 1261SOL     OW 4348   0.850   2.660   1.823
 1261SOL    HW1 4349   0.846   2.736   1.888
 1261SOL    HW2 4350   0.872   2.696   1.732
 1262SOL     OW 4351   0.685   2.874   0.665
 1262SOL    HW1 4352   0.754   2.858   0.735
 1262SOL    HW2 4353   0.612   2.931   0.703
 1263SOL     OW 4354   0.686   3.023   1.803
 1263SOL    HW1 4355   0.746   3.102   1.817
 1263SOL    HW2 4356   0.600   3.054   1.762
 1264SOL     OW 4357   0.335   3.297   1.061
 1264SOL    HW1 4358   0.257   3.266   1.008
 1264SOL    HW2 4359   0.393   3.355   1.004
 1265SOL     OW 4360   1.460   3.367   1.339
 1265SOL    HW1 4361   1.484   3.461   1.365
 1265SOL    HW2 4362   1.444   3.313   1.421
 1266SOL     OW 4363   0.438   2.254   1.499
 1266SOL    HW1 4364   0.520   2.198   1.508
 1266SOL    HW2 4365   0.357   2.196   1.503
 1267SOL     OW 4366   1.603   2.309   0.737
 1267SOL    HW1 4367   1.529   2.355   0.687
 1267SOL    HW2 4368   1.654   2.377   0.790
 1268SOL     OW 4369   0.231   3.575   0.483
 1268SOL    HW1 4370   0.265   3.652   0.537
 1268SOL    HW2 4371   0.275   3.575   0.393
 1269SOL     OW 4372   1.127   3.203   1.690
 1269SOL    HW1 4373   1.174   3.203   1.778
 1269SOL    HW2 4374   1.079   3.116   1.679
 1270SOL     OW 4375   0.230   3.296   0.538
 1270SOL    HW1 4376   0.204   3.392   0.538
 1270SOL    HW2 4377   0.159   3.242   0.583
 1271SOL     OW 4378   0.240   2.953   0.886
 1271SOL    HW1 4379   0.254   2.869   0.938
 1271SOL    HW2 4380   0.185   3.017   0.941
 1272SOL     OW 4381   0.620   3.648   1.439
 1272SOL    HW1 4382   0.528   3.631   1.474
 1272SOL    HW2 4383   0.648   3.740   1.465
 1273SOL     OW 4384   0.606   2.826   0.123
 1273SOL    HW1 4385   0.613   2.910   0.069
 1273SOL    HW2 4386   0.652   2.839   0.211
 1274SOL     OW 4387   1.594   1.976   1.480
 1274SOL    HW1 4388   1.576   2.043   1.408
 1274SOL    HW2 4389   1.591   2.022   1.569
 1275SOL     OW 4390   0.122   2.505   0.563
 1275SOL    HW1 4391   0.077   2.417   0.580
 1275SOL    HW2 4392   0.121   2.559   0.647
 1276SOL     OW 4393   1.842   3.629   0.359
 1276SOL    HW1 4394   1.896   3.600   0.439
 1276SOL    HW2 4395   1.872   3.719   0.330
 1277SOL     OW 4396   0.027   3.458   0.117
 1277SOL    HW1 4397   0.008   3.362   0.138
 1277SOL    HW2 4398  -0.006   3.516   0.192
 1278SOL     OW 4399   1.689   2.784   0.612
 1278SOL    HW1 4400   1.784   2.755   0.620
 1278SOL    HW2 4401   1.681   2.849   0.537
 1279SOL     OW 4402   1.641   2.970   0.432
 1279SOL    HW1 4403   1.727   2.972   0.380
 1279SOL    HW2 4404   1.655   3.017   0.520
 1280SOL     OW 4405   0.113   2.599   1.597
 1280SOL    HW1 4406   0.201   2.586   1.642
 1280SOL    HW2 4407   0.100   2.696   1.575
 1281SOL     OW 4408   0.613   3.227   0.726
 1281SOL    HW1 4409   0.564   3.140   0.735
 1281SOL    HW2 4410   0.590   3.270   0.639
 1282SOL     OW 4411   1.293   3.090   1.423
 1282SOL    HW1 4412   1.330   3.017   1.365
 1282SOL    HW2 4413   1.345   3.095   1.508
 1283SOL     OW 4414   0.809   1.866   0.502
 1283SOL    HW1 4415   0.849   1.957   0.493
 1283SOL    HW2 4416   0.709   1.874   0.508
 1284SOL     OW 4417   0.197   2.838   1.264
 1284SOL    HW1 4418   0.286   2.793   1.250
 1284SOL    HW2 4419   0.124   2.773   1.245
 1285SOL     OW 4420   1.525   2.861   0.190
 1285SOL    HW1 4421   1.462   2.785   0.203
 1285SOL    HW2 4422   1.573   2.879   0.276
 1286SOL     OW 4423   1.187   3.654   1.616
 1286SOL    HW1 4424   1.211   3.714   1.540
 1286SOL    HW2 4425   1.194   3.559   1.586
 1287SOL     OW 4426   0.317   2.113   1.801
 1287SOL    HW1 4427   0.388   2.184   1.807
 1287SOL    HW2 4428   0.229   2.152   1.829
 1288SOL     OW 4429   1.466   3.279   0.953
 1288SOL    HW1 4430   1.407   3.285   1.033
 1288SOL    HW2 4431   1.451   3.191   0.907
 1289SOL     OW 4432   1.667   3.576   0.572
 1289SOL    HW1 4433   1.626   3.553   0.484
 1289SOL    HW2 4434   1.649   3.502   0.637
 1290SOL     OW 4435   0.598   2.591   0.270
 1290SOL    HW1 4436   0.622   2.660   0.202
 1290SOL    HW2 4437   0.520   2.624   0.324
 1291SOL     OW 4438   1.281   2.207   0.944
 1291SOL    HW1 4439   1.195   2.157   0.931
 1291SOL    HW2 4440   1.343   2.153   1.000
 1292SOL     OW 4441   1.576   3.524   0.307
 1292SOL    HW1 4442   1.665   3.570   0.310
 1292SOL    HW2 4443   1.555   3.500   0.212
 1293SOL     OW 4444   0.807   2.467   1.465
 1293SOL    HW1 4445   0.760   2.464   1.554
 1293SOL    HW2 4446   0.756   2.412   1.399
 1294SOL     OW 4447   1.394   2.331   1.674
 1294SOL    HW1 4448   1.374   2.374   1.762
 1294SOL    HW2 4449   1.472   2.269   1.683
 1295SOL     OW 4450   0.973   2.752   1.572
 1295SOL    HW1 4451   1.019   2.668   1.543
 1295SOL    HW2 4452   0.917   2.786   1.497
 1296SOL     OW 4453   0.991   2.272   1.242
 1296SOL    HW1 4454   0.914   2.306   1.296
 1296SOL    HW2 4455   0.957   2.221   1.163
 1297SOL     OW 4456   1.041   2.563   0.429
 1297SOL    HW1 4457   1.067   2.559   0.525
 1297SOL    HW2 4458   0.956   2.512   0.415
 1298SOL     OW 4459   0.076   2.673   0.789
 1298SOL    HW1 4460   0.175   2.661   0.798
 1298SOL    HW2 4461   0.052   2.768   0.810
 1299SOL     OW 4462   0.130   3.683   1.571
 1299SOL    HW1 4463   0.120   3.668   1.670
 1299SOL    HW2 4464   0.044   3.719   1.535
 1300SOL     OW 4465   0.865   2.210   0.195
 1300SOL    HW1 4466   0.924   2.273   0.146
 1300SOL    HW2 4467   0.884   2.116   0.166
 1301SOL     OW 4468   1.719   2.447   1.831
 1301SOL    HW1 4469   1.693   2.536   1.795
 1301SOL    HW2 4470   1.717   2.379   1.758
 1302SOL     OW 4471   1.362   3.006   0.545
 1302SOL    HW1 4472   1.445   2.977   0.497
 1302SOL    HW2 4473   1.313   3.073   0.489
 1303SOL     OW 4474   0.550   2.058   0.885
 1303SOL    HW1 4475   0.545   2.053   0.985
 1303SOL    HW2 4476   0.552   2.154   0.856
 1304SOL     OW 4477   1.008   3.318   0.477
 1304SOL    HW1 4478   0.962   3.390   0.425
 1304SOL    HW2 4479   1.004   3.338   0.575
 1305SOL     OW 4480   0.351   3.663   0.853
 1305SOL    HW1 4481   0.401   3.577   0.859
 1305SOL    HW2 4482   0.416   3.740   0.850
 1306SOL     OW 4483   1.795   2.928   0.873
 1306SOL    HW1 4484   1.733   2.913   0.797
 1306SOL    HW2 4485   1.743   2.939   0.958
 1307SOL     OW 4486   1.227   3.412   1.506
 1307SOL    HW1 4487   1.233   3.335   1.570
 1307SOL    HW2 4488   1.175   3.386   1.426
 1308SOL     OW 4489   0.321   2.805   0.242
 1308SOL    HW1 4490   0.403   2.844   0.200
 1308SOL    HW2 4491   0.294   2.723   0.193
 1309SOL     OW 4492   1.458   2.597   0.728
 1309SOL    HW1 4493   1.453   2.532   0.803
 1309SOL    HW2 4494   1.538   2.656   0.741
 1310SOL     OW 4495   0.461   3.128   1.727
 1310SOL    HW1 4496   0.411   3.129   1.641
 1310SOL    HW2 4497   0.398   3.110   1.803
 1311SOL     OW 4498   1.111   3.638   0.237
 1311SOL    HW1 4499   1.051   3.576   0.287
 1311SOL    HW2 4500   1.142   3.594   0.152
 1312SOL     OW 4501   0.202   2.147   1.498
 1312SOL    HW1 4502   0.122   2.207   1.485
 1312SOL    HW2 4503   0.192   2.098   1.584
 1313SOL     OW 4504   1.632   3.239   0.081
 1313SOL    HW1 4505   1.600   3.333   0.071
 1313SOL    HW2 4506   1.556   3.176   0.069
 1314SOL     OW 4507   0.464   3.605   0.323
 1314SOL    HW1 4508   0.497   3.644   0.409
 1314SOL    HW2 4509   0.540   3.598   0.258
 1315SOL     OW 4510   1.400   1.969   0.426
 1315SOL    HW1 4511   1.376   1.932   0.336
 1315SOL    HW2 4512   1.499   1.985   0.430
 1316SOL     OW 4513   0.249   3.647   1.241
 1316SOL    HW1 4514   0.306   3.582   1.291
 1316SOL    HW2 4515   0.233   3.614   1.148
 1317SOL     OW 4516   0.940   3.560   0.904
 1317SOL    HW1 4517   1.020   3.503   0.925
 1317SOL    HW2 4518   0.891   3.520   0.827
 1318SOL     OW 4519   0.382   2.562   0.480
 1318SOL    HW1 4520   0.427   2.472   0.477
 1318SOL    HW2 4521   0.288   2.551   0.513
 1319SOL     OW 4522   1.547   2.084   1.729
 1319SOL    HW1 4523   1.542   2.121   1.821
 1319SOL    HW2 4524   1.475   2.015   1.717
 1320SOL     OW 4525   0.614   1.984   0.117
 1320SOL    HW1 4526   0.712   1.962   0.124
 1320SOL    HW2 4527   0.583   1.967   0.024
 1321SOL     OW 4528   0.781   2.126   1.749
 1321SOL    HW1 4529   0.848   2.065   1.792
 1321SOL    HW2 4530   0.708   2.145   1.814
 1322SOL     OW 4531   0.888   3.376   1.195
 1322SOL    HW1 4532   0.865   3.351   1.101
 1322SOL    HW2 4533   0.949   3.307   1.234
 1323SOL     OW 4534   1.351   2.452   1.433
 1323SOL    HW1 4535   1.379   2.409   1.518
 1323SOL    HW2 4536   1.376   2.548   1.434
 1324SOL     OW 4537   0.803   3.264   0.924
 1324SOL    HW1 4538   0.893   3.278   0.882
 1324SOL    HW2 4539   0.732   3.266   0.853
 1325SOL     OW 4540   0.922   2.365   0.899
 1325SOL    HW1 4541   0.897   2.356   0.803
 1325SOL    HW2 4542   0.970   2.283   0.930
 1326SOL     OW 4543   0.539   1.926   0.512
 1326SOL    HW1 4544   0.458   1.927   0.570
 1326SOL    HW2 4545   0.542   2.009   0.457
 1327SOL     OW 4546   1.434   3.050   0.041
 1327SOL    HW1 4547   1.466   2.974   0.098
 1327SOL    HW2 4548   1.342   3.077   0.071
 1328SOL     OW 4549   0.297   1.897   0.171
 1328SOL    HW1 4550   0.346   1.981   0.150
 1328SOL    HW2 4551   0.359   1.832   0.216
 1329SOL     OW 4552   0.935   2.098   0.480
 1329SOL    HW1 4553   0.887   2.139   0.402
 1329SOL    HW2 4554   1.034   2.096   0.461
 1330SOL     OW 4555   1.076   2.545   1.464
 1330SOL    HW1 4556   0.996   2.484   1.467
 1330SOL    HW2 4557   1.157   2.492   1.440
 1331SOL     OW 4558   1.227   3.432   0.793
 1331SOL    HW1 4559   1.248   3.506   0.728
 1331SOL    HW2 4560   1.295   3.432   0.866
 1332SOL     OW 4561   0.459   3.014   0.741
 1332SOL    HW1 4562   0.388   2.987   0.806
 1332SOL    HW2 4563   0.433   2.986   0.648
 1333SOL     OW 4564   1.271   3.659   0.591
 1333SOL    HW1 4565   1.315   3.723   0.527
 1333SOL    HW2 4566   1.221   3.711   0.661
 1334SOL     OW 4567   1.032   2.411   0.016
 1334SOL    HW1 4568   0.991   2.493  -0.023
 1334SOL    HW2 4569   1.096   2.437   0.089
 1335SOL     OW 4570   0.078   2.418   1.386
 1335SOL    HW1 4571   0.170   2.417   1.345
 1335SOL    HW2 4572   0.072   2.492   1.453
 1336SOL     OW 4573   0.561   2.084   1.147
 1336SOL    HW1 4574   0.599   2.000   1.184
 1336SOL    HW2 4575   0.473   2.103   1.191
 1337SOL     OW 4576   0.866   2.316   0.642
 1337SOL    HW1 4577   0.834   2.388   0.580
 1337SOL    HW2 4578   0.890   2.235   0.589
 1338SOL     OW 4579   1.017   1.901   0.753
 1338SOL    HW1 4580   0.945   1.906   0.684
 1338SOL    HW2 4581   0.993   1.832   0.822
 1339SOL     OW 4582   1.429   3.035   0.867
 1339SOL    HW1 4583   1.374   2.951   0.860
 1339SOL    HW2 4584   1.455   3.064   0.775
 1340SOL     OW 4585   1.466   2.452   0.992
 1340SOL    HW1 4586   1.436   2.357   0.999
 1340SOL    HW2 4587   1.539   2.468   1.058
 1341SOL     OW 4588   1.857   2.695   0.377
 1341SOL    HW1 4589   1.899   2.631   0.441
 1341SOL    HW2 4590   1.819   2.644   0.299
 1342SOL     OW 4591   0.488   3.247   0.174
 1342SOL    HW1 4592   0.401   3.232   0.221
 1342SOL    HW2 4593   0.471   3.273   0.079
 1343SOL     OW 4594   1.664   3.142   0.657
 1343SOL    HW1 4595   1.763   3.150   0.671
 1343SOL    HW2 4596   1.619   3.226   0.688
 1344SOL     OW 4597   1.390   2.437   0.078
 1344SOL    HW1 4598   1.336   2.416   0.159
 1344SOL    HW2 4599   1.481   2.396   0.087
 1345SOL     OW 4600   0.527   2.118   0.328
 1345SOL    HW1 4601   0.554   2.059   0.253
 1345SOL    HW2 4602   0.527   2.213   0.297
 1346SOL     OW 4603   1.754   3.085   1.588
 1346SOL    HW1 4604   1.845   3.046   1.575
 1346SOL    HW2 4605   1.762   3.181   1.612
 1347SOL     OW 4606   1.064   3.209   1.340
 1347SOL    HW1 4607   0.984   3.186   1.395
 1347SOL    HW2 4608   1.147   3.183   1.389
 1348SOL     OW 4609   1.592   3.491   1.625
 1348SOL    HW1 4610   1.619   3.525   1.535
 1348SOL    HW2 4611   1.671   3.453   1.671
 1349SOL     OW 4612   1.111   3.057   1.100
 1349SOL    HW1 4613   1.071   3.101   1.181
 1349SOL    HW2 4614   1.070   3.094   1.017
 1350SOL     OW 4615   1.638   2.961   1.079
 1350SOL    HW1 4616   1.643   3.042   1.138
 1350SOL    HW2 4617   1.552   2.963   1.028
 1351SOL     OW 4618   0.915   1.951   1.402
 1351SOL    HW1 4619   0.940   1.931   1.307
 1351SOL    HW2 4620   0.987   2.007   1.444
 1352SOL     OW 4621   0.980   2.978   1.719
 1352SOL    HW1 4622   0.881   2.984   1.729
 1352SOL    HW2 4623   1.003   2.898   1.663
 1353SOL     OW 4624   0.705   2.912   0.368
 1353SOL    HW1 4625   0.691   2.919   0.467
 1353SOL    HW2 4626   0.789   2.861   0.350
 1354SOL     OW 4627   0.410   2.675   1.251
 1354SOL    HW1 4628   0.496   2.687   1.301
 1354SOL    HW2 4629   0.368   2.588   1.278
 1355SOL     OW 4630   1.274   2.248   1.262
 1355SOL    HW1 4631   1.295   2.322   1.326
 1355SOL    HW2 4632   1.185   2.265   1.219
 1356SOL     OW 4633   0.064   3.426   1.331
 1356SOL    HW1 4634   0.018   3.508   1.297
 1356SOL    HW2 4635   0.162   3.445   1.340
 1357SOL     OW 4636   0.367   2.962   0.501
 1357SOL    HW1 4637   0.360   3.045   0.445
 1357SOL    HW2 4638   0.371   2.882   0.441
 1358SOL     OW 4639   0.566   2.399   0.865
 1358SOL    HW1 4640   0.578   2.465   0.791
 1358SOL    HW2 4641   0.612   2.433   0.948
 1359SOL     OW 4642   1.252   3.210   0.388
 1359SOL    HW1 4643   1.302   3.287   0.428
 1359SOL    HW2 4644   1.157   3.212   0.420
 1360SOL     OW 4645   1.272   3.307   1.142
 1360SOL    HW1 4646   1.319   3.320   1.229
 1360SOL    HW2 4647   1.206   3.233   1.151
 1361SOL     OW 4648   1.582   2.501   0.472
 1361SOL    HW1 4649   1.551   2.562   0.545
 1361SOL    HW2 4650   1.632   2.553   0.403
 1362SOL     OW 4651   0.354   3.372   1.329
 1362SOL    HW1 4652   0.333   3.328   1.242
 1362SOL    HW2 4653   0.451   3.398   1.332
 1363SOL     OW 4654   0.402   2.613   1.598
 1363SOL    HW1 4655   0.470   2.668   1.551
 1363SOL    HW2 4656   0.442   2.525   1.625
 1364SOL     OW 4657   1.587   2.641   1.670
 1364SOL    HW1 4658   1.495   2.679   1.665
 1364SOL    HW2 4659   1.647   2.688   1.605
 1365SOL     OW 4660   1.013   1.967   1.770
 1365SOL    HW1 4661   1.019   2.052   1.718
 1365SOL    HW2 4662   1.045   1.891   1.713
 1366SOL     OW 4663   0.504   1.912   1.740
 1366SOL    HW1 4664   0.462   1.855   1.670
 1366SOL    HW2 4665   0.438   1.981   1.772
 1367SOL     OW 4666   0.573   2.732   1.029
 1367SOL    HW1 4667   0.617   2.821   1.020
 1367SOL    HW2 4668   0.510   2.732   1.106
 1368SOL     OW 4669   1.360   2.724   1.045
 1368SOL    HW1 4670   1.285   2.724   0.979
 1368SOL    HW2 4671   1.397   2.632   1.054
 1369SOL     OW 4672   1.209   2.387   0.275
 1369SOL    HW1 4673   1.222   2.303   0.329
 1369SOL    HW2 4674   1.180   2.461   0.335
 1370SOL     OW 4675   0.307   2.075   1.231
 1370SOL    HW1 4676   0.284   2.112   1.321
 1370SOL    HW2 4677   0.277   1.980   1.225
 1371SOL     OW 4678   0.037   3.172   1.282
 1371SOL    HW1 4679   0.090   3.123   1.350
 1371SOL    HW2 4680   0.059   3.270   1.287
 1372SOL     OW 4681   0.732   2.496   1.064
 1372SOL    HW1 4682   0.791   2.470   0.988
 1372SOL    HW2 4683   0.704   2.592   1.053
 1373SOL     OW 4684   1.728   2.797   1.854
 1373SOL    HW1 4685   1.682   2.790   1.765
 1373SOL    HW2 4686   1.666   2.841   1.920
 1374SOL     OW 4687   0.307   1.925   0.618
 1374SOL    HW1 4688   0.296   2.019   0.651
 1374SOL    HW2 4689   0.302   1.862   0.695
 1375SOL     OW 4690   1.622   2.229   0.374
 1375SOL    HW1 4691   1.624   2.153   0.438
 1375SOL    HW2 4692   1.574   2.306   0.414
 1376SOL     OW 4693   1.023   2.628   0.966
 1376SOL    HW1 4694   1.038   2.649   1.062
 1376SOL    HW2 4695   0.993   2.533   0.957
 1377SOL     OW 4696   0.980   3.435   1.700
 1377SOL    HW1 4697   0.960   3.479   1.612
 1377SOL    HW2 4698   1.019   3.344   1.684
 1378SOL     OW 4699   1.859   3.380   1.605
 1378SOL    HW1 4700   1.873   3.407   1.510
 1378SOL    HW2 4701   1.942   3.402   1.658
 1379SOL     OW 4702   0.350   2.760   1.804
 1379SOL    HW1 4703   0.426   2.804   1.852
 1379SOL    HW2 4704   0.385   2.713   1.722
 1380SOL     OW 4705   1.540   2.136   0.125
 1380SOL    HW1 4706   1.479   2.061   0.148
 1380SOL    HW2 4707   1.562   2.188   0.208
 1381SOL     OW 4708   1.303   2.700   0.042
 1381SOL    HW1 4709   1.337   2.607   0.057
 1381SOL    HW2 4710   1.321   2.727  -0.053
 1382SOL     OW 4711   1.068   3.195   0.849
 1382SOL    HW1 4712   1.075   3.111   0.794
 1382SOL    HW2 4713   1.130   3.264   0.813
 1383SOL     OW 4714   0.319   2.672   0.949
 1383SOL    HW1 4715   0.412   2.708   0.954
 1383SOL    HW2 4716   0.313   2.587   1.001
 1384SOL     OW 4717   0.339   2.371   1.006
 1384SOL    HW1 4718   0.287   2.288   0.989
 1384SOL    HW2 4719   0.416   2.376   0.942
 1385SOL     OW 4720   1.138   2.242   1.678
 1385SOL    HW1 4721   1.093   2.305   1.742
 1385SOL    HW2 4722   1.231   2.273   1.661
 1386SOL     OW 4723   1.160   2.069   1.477
 1386SOL    HW1 4724   1.160   2.133   1.554
 1386SOL    HW2 4725   1.188   2.117   1.394
 1387SOL     OW 4726   0.008   3.188   0.200
 1387SOL    HW1 4727  -0.085   3.209   0.169
 1387SOL    HW2 4728   0.018   3.089   0.213
 1388SOL     OW 4729   0.088   3.663   0.927
 1388SOL    HW1 4730   0.046   3.577   0.900
 1388SOL    HW2 4731   0.182   3.666   0.893
 1389SOL     OW 4732   0.504   3.430   0.910
 1389SOL    HW1 4733   0.570   3.504   0.919
 1389SOL    HW2 4734   0.548   3.351   0.868
 1390SOL     OW 4735   1.002   2.658   1.238
 1390SOL    HW1 4736   1.043   2.626   1.324
 1390SOL    HW2 4737   0.906   2.631   1.235
 1391SOL     OW 4738   0.040   2.406   1.114
 1391SOL    HW1 4739   0.125   2.373   1.073
 1391SOL    HW2 4740   0.053   2.421   1.212
 1392SOL     OW 4741   0.189   2.382   1.722
 1392SOL    HW1 4742   0.248   2.342   1.652
 1392SOL    HW2 4743   0.131   2.453   1.681
 1393SOL     OW 4744   1.369   2.812   1.660
 1393SOL    HW1 4745   1.408   2.901   1.680
 1393SOL    HW2 4746   1.379   2.792   1.563
 1394SOL     OW 4747   0.815   2.434   0.325
 1394SOL    HW1 4748   0.822   2.345   0.279
 1394SOL    HW2 4749   0.721   2.468   0.317
 1395SOL     OW 4750   1.657   2.466   1.206
 1395SOL    HW1 4751   1.619   2.397   1.268
 1395SOL    HW2 4752   1.739   2.430   1.162
 1396SOL     OW 4753   0.252   3.426   1.744
 1396SOL    HW1 4754   0.222   3.483   1.820
 1396SOL    HW2 4755   0.245   3.329   1.770
 1397SOL     OW 4756   0.671   2.326   1.269
 1397SOL    HW1 4757   0.637   2.237   1.239
 1397SOL    HW2 4758   0.697   2.380   1.189
 1398SOL     OW 4759   0.930   3.540   1.465
 1398SOL    HW1 4760   0.906   3.522   1.370
 1398SOL    HW2 4761   0.960   3.634   1.475
 1399SOL     OW 4762   0.473   2.362   0.191
 1399SOL    HW1 4763   0.534   2.442   0.195
 1399SOL    HW2 4764   0.378   2.393   0.198
 1400SOL     OW 4765   0.159   2.999   1.466
 1400SOL    HW1 4766   0.181   2.938   1.542
 1400SOL    HW2 4767   0.169   2.950   1.380
 1401SOL     OW 4768   1.347   2.921   1.234
 1401SOL    HW1 4769   1.371   2.858   1.160
 1401SOL    HW2 4770   1.257   2.961   1.216
 1402SOL     OW 4771   1.302   2.717   0.309
 1402SOL    HW1 4772   1.216   2.686   0.351
 1402SOL    HW2 4773   1.298   2.703   0.210
 1403SOL     OW 4774   1.759   3.609   1.154
 1403SOL    HW1 4775   1.820   3.639   1.081
 1403SOL    HW2 4776   1.721   3.520   1.132
 1404SOL     OW 4777   1.252   3.593   1.128
 1404SOL    HW1 4778   1.336   3.598   1.074
 1404SOL    HW2 4779   1.229   3.497   1.146
 1405SOL     OW 4780   0.083   3.120   1.022
 1405SOL    HW1 4781   0.078   3.119   1.122
 1405SOL    HW2 4782   0.000   3.079   0.984
 1406SOL     OW 4783   0.688   3.524   1.716
 1406SOL    HW1 4784   0.632   3.605   1.725
 1406SOL    HW2 4785   0.740   3.528   1.630
 1407SOL     OW 4786   0.903   1.948   0.133
 1407SOL    HW1 4787   0.954   1.949   0.047
 1407SOL    HW2 4788   0.959   1.906   0.204
 1408SOL     OW 4789   1.726   1.997   0.523
 1408SOL    HW1 4790   1.799   1.980   0.456
 1408SOL    HW2 4791   1.695   1.910   0.561
 1409SOL     OW 4792   1.388   3.435   0.477
 1409SOL    HW1 4793   1.455   3.447   0.403
 1409SOL    HW2 4794   1.348   3.524   0.500
 1410SOL     OW 4795   0.130   3.656   1.851
 1410SOL    HW1 4796   0.089   3.582   1.904
 1410SOL    HW2 4797   0.194   3.707   1.909
 1411SOL     OW 4798   1.280   2.789   0.672
 1411SOL    HW1 4799   1.340   2.708   0.674
 1411SOL    HW2 4800   1.320   2.858   0.612
 1412SOL     OW 4801   0.830   3.135   1.422
 1412SOL    HW1 4802   0.825   3.168   1.517
 1412SOL    HW2 4803   0.744   3.154   1.376
 1413SOL     OW 4804   0.672   3.478   0.154
 1413SOL    HW1 4805   0.681   3.488   0.055
 1413SOL    HW2 4806   0.632   3.389   0.175
 1414SOL     OW 4807   1.650   3.582   1.394
 1414SOL    HW1 4808   1.703   3.592   1.310
 1414SOL    HW2 4809   1.623   3.672   1.428
 1415SOL     OW 4810   1.841   2.037   0.963
 1415SOL    HW1 4811   1.880   1.952   0.927
 1415SOL    HW2 4812   1.743   2.039   0.944
 1416SOL     OW 4813   0.263   2.188   0.720
 1416SOL    HW1 4814   0.184   2.239   0.686
 1416SOL    HW2 4815   0.254   2.173   0.818
 1417SOL     OW 4816   1.194   3.474   0.031
 1417SOL    HW1 4817   1.200   3.381   0.068
 1417SOL    HW2 4818   1.135   3.474  -0.049
 1418SOL     OW 4819   0.822   2.864   1.372
 1418SOL    HW1 4820   0.862   2.863   1.280
 1418SOL    HW2 4821   0.832   2.956   1.412
 1419SOL     OW 4822   0.916   2.772   0.291
 1419SOL    HW1 4823   0.979   2.810   0.223
 1419SOL    HW2 4824   0.956   2.689   0.330
 1420SOL     OW 4825   1.504   3.469   0.044
 1420SOL    HW1 4826   1.412   3.506   0.051
 1420SOL    HW2 4827   1.542   3.489  -0.046
 1421SOL     OW 4828   0.372   3.150   1.490
 1421SOL    HW1 4829   0.359   3.243   1.456
 1421SOL    HW2 4830   0.288   3.098   1.477
 1422SOL     OW 4831   1.614   3.154   1.289
 1422SOL    HW1 4832   1.674   3.157   1.369
 1422SOL    HW2 4833   1.539   3.218   1.302
 1423SOL     OW 4834   1.039   2.960   0.696
 1423SOL    HW1 4835   0.969   2.913   0.750
 1423SOL    HW2 4836   1.098   2.892   0.653
 1424SOL     OW 4837   1.014   2.098   0.971
 1424SOL    HW1 4838   1.006   2.062   0.878
 1424SOL    HW2 4839   1.012   2.022   1.036
 1425SOL     OW 4840   0.590   3.349   0.491
 1425SOL    HW1 4841   0.632   3.291   0.421
 1425SOL    HW2 4842   0.546   3.428   0.447
 1426SOL     OW 4843   1.709   2.247   1.381
 1426SOL    HW1 4844   1.782   2.316   1.385
 1426SOL    HW2 4845   1.737   2.172   1.322
 1427SOL     OW 4846   0.255   3.210   0.290
 1427SOL    HW1 4847   0.159   3.211   0.263
 1427SOL    HW2 4848   0.267   3.263   0.374
 1428SOL     OW 4849   0.105   2.875   1.726
 1428SOL    HW1 4850   0.028   2.842   1.780
 1428SOL    HW2 4851   0.190   2.845   1.768
 1429SOL     OW 4852   0.672   2.065   1.489
 1429SOL    HW1 4853   0.762   2.049   1.449
 1429SOL    HW2 4854   0.680   2.070   1.588
 1430SOL     OW 4855   0.075   2.207   0.033
 1430SOL    HW1 4856  -0.017   2.179   0.004
 1430SOL    HW2 4857   0.106   2.284  -0.023
 1431SOL     OW 4858   1.440   2.718   1.398
 1431SOL    HW1 4859   1.383   2.770   1.335
 1431SOL    HW2 4860   1.536   2.730   1.374
 1432SOL     OW 4861   0.072   2.028   0.318
 1432SOL    HW1 4862   0.055   2.111   0.264
 1432SOL    HW2 4863   0.162   1.991   0.296
 1433SOL     OW 4864   1.183   3.197   0.119
 1433SOL    HW1 4865   1.084   3.186   0.121
 1433SOL    HW2 4866   1.217   3.212   0.212
 1434SOL     OW 4867   0.613   2.704   1.431
 1434SOL    HW1 4868   0.669   2.785   1.414
 1434SOL    HW2 4869   0.672   2.624   1.434
 1435SOL     OW 4870   1.493   3.629   0.959
 1435SOL    HW1 4871   1.526   3.693   0.890
 1435SOL    HW2 4872   1.559   3.623   1.034
 1436SOL     OW 4873   0.716   2.427   1.708
 1436SOL    HW1 4874   0.735   2.492   1.782
 1436SOL    HW2 4875   0.776   2.347   1.717
 1437SOL     OW 4876   1.450   3.082   1.633
 1437SOL    HW1 4877   1.441   3.072   1.732
 1437SOL    HW2 4878   1.546   3.075   1.607
 1438SOL     OW 4879   0.390   3.603   1.560
 1438SOL    HW1 4880   0.299   3.644   1.558
 1438SOL    HW2 4881   0.383   3.509   1.592
 1439SOL     OW 4882   1.674   2.745   1.254
 1439SOL    HW1 4883   1.647   2.656   1.217
 1439SOL    HW2 4884   1.675   2.813   1.181
 1440SOL     OW 4885   1.225   2.187   0.449
 1440SOL    HW1 4886   1.290   2.113   0.438
 1440SOL    HW2 4887   1.245   2.237   0.533
 1441SOL     OW 4888   0.594   2.607   0.652
 1441SOL    HW1 4889   0.644   2.692   0.633
 1441SOL    HW2 4890   0.506   2.609   0.604
 1442SOL     OW 4891   1.777   2.204   1.642
 1442SOL    HW1 4892   1.760   2.235   1.548
 1442SOL    HW2 4893   1.693   2.167   1.680
 1443SOL     OW 4894   1.730   2.796   1.517
 1443SOL    HW1 4895   1.768   2.887   1.532
 1443SOL    HW2 4896   1.722   2.779   1.418
 1444SOL     OW 4897   0.859   3.236   0.016
 1444SOL    HW1 4898   0.813   3.251   0.104
 1444SOL    HW2 4899   0.903   3.321  -0.014
 1445SOL     OW 4900   0.661   3.652   0.953
 1445SOL    HW1 4901   0.615   3.740   0.940
 1445SOL    HW2 4902   0.760   3.664   0.946
 1446SOL     OW 4903   0.859   2.818   0.861
 1446SOL    HW1 4904   0.913   2.749   0.909
 1446SOL    HW2 4905   0.827   2.887   0.927
 1447SOL     OW 4906   1.083   2.846   0.087
 1447SOL    HW1 4907   1.060   2.899   0.005
 1447SOL    HW2 4908   1.164   2.790   0.068
 1448SOL     OW 4909   1.861   3.431   0.851
 1448SOL    HW1 4910   1.790   3.419   0.781
 1448SOL    HW2 4911   1.862   3.352   0.911
 1449SOL     OW 4912   0.221   3.176   1.844
 1449SOL    HW1 4913   0.156   3.103   1.823
 1449SOL    HW2 4914   0.225   3.190   1.942
 1450SOL     OW 4915   0.079   3.102   0.653
 1450SOL    HW1 4916   0.078   3.055   0.741
 1450SOL    HW2 4917   0.161   3.074   0.602
 1451SOL     OW 4918   0.672   3.253   1.624
 1451SOL    HW1 4919   0.594   3.203   1.662
 1451SOL    HW2 4920   0.669   3.348   1.655
 1452SOL     OW 4921   1.824   2.054   1.227
 1452SOL    HW1 4922   1.820   1.964   1.271
 1452SOL    HW2 4923   1.827   2.043   1.128
 1453SOL     OW 4924   0.428   2.286   0.520
 1453SOL    HW1 4925   0.458   2.214   0.458
 1453SOL    HW2 4926   0.389   2.246   0.603
 1454SOL     OW 4927   1.705   3.349   1.104
 1454SOL    HW1 4928   1.612   3.324   1.077
 1454SOL    HW2 4929   1.731   3.299   1.186
 1455SOL     OW 4930   0.317   2.409   1.280
 1455SOL    HW1 4931   0.355   2.350   1.352
 1455SOL    HW2 4932   0.357   2.383   1.192
 1456SOL     OW 4933   0.812   3.448   0.687
 1456SOL    HW1 4934   0.844   3.458   0.593
 1456SOL    HW2 4935   0.733   3.386   0.689
 1457SOL     OW 4936   1.424   2.076   1.112
 1457SOL    HW1 4937   1.476   2.011   1.167
 1457SOL    HW2 4938   1.375   2.139   1.173
 1458SOL     OW 4939   1.001   1.896   1.154
 1458SOL    HW1 4940   0.938   1.824   1.123
 1458SOL    HW2 4941   1.094   1.860   1.154
 1459SOL     OW 4942   0.770   3.192   0.301
 1459SOL    HW1 4943   0.724   3.105   0.318
 1459SOL    HW2 4944   0.861   3.189   0.342
 1460SOL     OW 4945   0.618   3.429   1.284
 1460SOL    HW1 4946   0.613   3.511   1.341
 1460SOL    HW2 4947   0.707   3.426   1.239
 1461SOL     OW 4948   1.352   1.914   0.168
 1461SOL    HW1 4949   1.387   1.873   0.084
 1461SOL    HW2 4950   1.262   1.876   0.188
 1462SOL     OW 4951   1.300   2.315   0.691
 1462SOL    HW1 4952   1.241   2.395   0.695
 1462SOL    HW2 4953   1.315   2.280   0.784
 1463SOL     OW 4954   1.593   2.083   0.882
 1463SOL    HW1 4955   1.509   2.082   0.936
 1463SOL    HW2 4956   1.595   2.166   0.826
 1464SOL     OW 4957   0.039   2.939   0.300
 1464SOL    HW1 4958   0.138   2.928   0.291
 1464SOL    HW2 4959  -0.001   2.853   0.332
 1465SOL     OW 4960   0.875   3.508   0.337
 1465SOL    HW1 4961   0.798   3.473   0.283
 1465SOL    HW2 4962   0.843   3.579   0.399
 1466SOL     OW 4963   0.230   2.490   1.975
 1466SOL    HW1 4964   0.137   2.488   2.012
 1466SOL    HW2 4965   0.231   2.451   1.883
 1467SOL     OW 4966   0.225   2.137   2.858
 1467SOL    HW1 4967   0.260   2.120   2.950
 1467SOL    HW2 4968   0.137   2.092   2.846
 1468SOL     OW 4969   0.019   2.230   2.509
 1468SOL    HW1 4970  -0.063   2.273   2.548
 1468SOL    HW2 4971  -0.009   2.157   2.446
 1469SOL     OW 4972   0.569   3.137   3.027
 1469SOL    HW1 4973   0.476   3.130   2.990
 1469SOL    HW2 4974   0.580   3.226   3.071
 1470SOL     OW 4975   1.555   3.373   2.565
 1470SOL    HW1 4976   1.498   3.357   2.646
 1470SOL    HW2 4977   1.496   3.383   2.485
 1471SOL     OW 4978   1.135   2.565   2.579
 1471SOL    HW1 4979   1.192   2.643   2.554
 1471SOL    HW2 4980   1.075   2.591   2.655
 1472SOL     OW 4981   1.755   2.469   2.093
 1472SOL    HW1 4982   1.743   2.456   1.994
 1472SOL    HW2 4983   1.725   2.388   2.142
 1473SOL     OW 4984   0.768   3.006   2.885
 1473SOL    HW1 4985   0.690   3.023   2.945
 1473SOL    HW2 4986   0.802   3.093   2.849
 1474SOL     OW 4987   0.850   2.660   3.685
 1474SOL    HW1 4988   0.846   2.736   3.750
 1474SOL    HW2 4989   0.872   2.696   3.594
 1475SOL     OW 4990   0.685   2.874   2.527
 1475SOL    HW1 4991   0.754   2.858   2.597
 1475SOL    HW2 4992   0.612   2.931   2.565
 1476SOL     OW 4993   0.686   3.023   3.665
 1476SOL    HW1 4994   0.746   3.102   3.679
 1476SOL    HW2 4995   0.600   3.054   3.624
 1477SOL     OW 4996   0.335   3.297   2.923
 1477SOL    HW1 4997   0.257   3.266   2.870
 1477SOL    HW2 4998   0.393   3.355   2.866
 1478SOL     OW 4999   1.460   3.367   3.201
 1478SOL    HW1 5000   1.484   3.461   3.227
 1478SOL    HW2 5001   1.444   3.313   3.283
 1479SOL     OW 5002   0.438   2.254   3.361
 1479SOL    HW1 5003   0.520   2.198   3.370
 1479SOL    HW2 5004   0.357   2.196   3.365
 1480SOL     OW 5005   1.603   2.309   2.599
 1480SOL    HW1 5006   1.529   2.355   2.549
 1480SOL    HW2 5007   1.654   2.377   2.652
 1481SOL     OW 5008   0.231   3.575   2.345
 1481SOL    HW1 5009   0.265   3.652   2.399
 1481SOL    HW2 5010   0.275   3.575   2.255
 1482SOL     OW 5011   1.127   3.203   3.552
 1482SOL    HW1 5012   1.174   3.203   3.640
 1482SOL    HW2 5013   1.079   3.116   3.541
 1483SOL     OW 5014   0.230   3.296   2.400
 1483SOL    HW1 5015   0.204   3.392   2.400
 1483SOL    HW2 5016   0.159   3.242   2.445
 1484SOL     OW 5017   0.240   2.953   2.748
 1484SOL    HW1 5018   0.254   2.869   2.800
 1484SOL    HW2 5019   0.185   3.017   2.803
 1485SOL     OW 5020   0.620   3.648   3.301
 1485SOL    HW1 5021   0.528   3.631   3.336
 1485SOL    HW2 5022   0.648   3.740   3.327
 1486SOL     OW 5023   0.606   2.826   1.985
 1486SOL    HW1 5024   0.613   2.910   1.931
 1486SOL    HW2 5025   0.652   2.839   2.073
 1487SOL     OW 5026   1.594   1.976   3.342
 1487SOL    HW1 5027   1.576   2.043   3.270
 1487SOL    HW2 5028   1.591   2.022   3.431
 1488SOL     OW 5029   0.122   2.505   2.425
 1488SOL    HW1 5030   0.077   2.417   2.442
 1488SOL    HW2 5031   0.121   2.559   2.509
 1489SOL     OW 5032   1.842   3.629   2.221
 1489SOL    HW1 5033   1.896   3.600   2.301
 1489SOL    HW2 5034   1.872   3.719   2.192
 1490SOL     OW 5035   0.027   3.458   1.979
 1490SOL    HW1 5036   0.008   3.362   2.000
 1490SOL    HW2 5037  -0.006   3.516   2.054
 1491SOL     OW 5038   1.689   2.784   2.474
 1491SOL    HW1 5039   1.784   2.755   2.482
 1491SOL    HW2 5040   1.681   2.849   2.399
 1492SOL     OW 5041   1.641   2.970   2.294
 1492SOL    HW1 5042   1.727   2.972   2.242
 1492SOL    HW2 5043   1.655   3.017   2.382
 1493SOL     OW 5044   0.113   2.599   3.459
 1493SOL    HW1 5045   0.201   2.586   3.504
 1493SOL    HW2 5046   0.100   2.696   3.437
 1494SOL     OW 5047   0.613   3.227   2.588
 1494SOL    HW1 5048   0.564   3.140   2.597
 1494SOL    HW2 5049   0.590   3.270   2.501
 1495SOL     OW 5050   1.293   3.090   3.285
 1495SOL    HW1 5051   1.330   3.017   3.227
 1495SOL    HW2 5052   1.345   3.095   3.370
 1496SOL     OW 5053   0.809   1.866   2.364
 1496SOL    HW1 5054   0.849   1.957   2.355
 1496SOL    HW2 5055   0.709   1.874   2.370
 1497SOL     OW 5056   0.197   2.838   3.126
 1497SOL    HW1 5057   0.286   2.793   3.112
 1497SOL    HW2 5058   0.124   2.773   3.107
 1498SOL     OW 5059   1.525   2.861   2.052
 1498SOL    HW1 5060   1.462   2.785   2.065
 1498SOL    HW2 5061   1.573   2.879   2.138
 1499SOL     OW 5062   1.187   3.654   3.478
 1499SOL    HW1 5063   1.211   3.714   3.402
 1499SOL    HW2 5064   1.194   3.559   3.448
 1500SOL     OW 5065   0.317   2.113   3.663
 1500SOL    HW1 5066   0.388   2.184   3.669
 1500SOL    HW2 5067   0.229   2.152   3.691
 1501SOL     OW 5068   1.466   3.279   2.815
 1501SOL    HW1 5069   1.407   3.285   2.895
 1501SOL    HW2 5070   1.451   3.191   2.769
 1502SOL     OW 5071   1.667   3.576   2.434
 1502SOL    HW1 5072   1.626   3.553   2.346
 1502SOL    HW2 5073   1.649   3.502   2.499
 1503SOL     OW 5074   0.598   2.591   2.132
 1503SOL    HW1 5075   0.622   2.660   2.064
 1503SOL    HW2 5076   0.520   2.624   2.186
 1504SOL     OW 5077   1.281   2.207   2.806
 1504SOL    HW1 5078   1.195   2.157   2.793
 1504SOL    HW2 5079   1.343   2.153   2.862
 1505SOL     OW 5080   1.576   3.524   2.169
 1505SOL    HW1 5081   1.665   3.570   2.172
 1505SOL    HW2 5082   1.555   3.500   2.074
 1506SOL     OW 5083   0.807   2.467   3.327
 1506SOL    HW1 5084   0.760   2.464   3.416
 1506SOL    HW2 5085   0.756   2.412   3.261
 1507SOL     OW 5086   1.394   2.331   3.536
 1507SOL    HW1 5087   1.374   2.374   3.624
 1507SOL    HW2 5088   1.472   2.269   3.545
 1508SOL     OW 5089   0.973   2.752   3.434
 1508SOL    HW1 5090   1.019   2.668   3.405
 1508SOL    HW2 5091   0.917   2.786   3.359
 1509SOL     OW 5092   0.991   2.272   3.104
 1509SOL    HW1 5093   0.914   2.306   3.158
 1509SOL    HW2 5094   0.957   2.221   3.025
 1510SOL     OW 5095   1.041   2.563   2.291
 1510SOL    HW1 5096   1.067   2.559   2.387
 1510SOL    HW2 5097   0.956   2.512   2.277
 1511SOL     OW 5098   0.076   2.673   2.651
 1511SOL    HW1 5099   0.175   2.661   2.660
 1511SOL    HW2 5100   0.052   2.768   2.672
 1512SOL     OW 5101   0.130   3.683   3.433
 1512SOL    HW1 5102   0.120   3.668   3.532
 1512SOL    HW2 5103   0.044   3.719   3.397
 1513SOL     OW 5104   0.865   2.210   2.057
 1513SOL    HW1 5105   0.924   2.273   2.008
 1513SOL    HW2 5106   0.884   2.116   2.028
 1514SOL     OW 5107   1.719   2.447   3.693
 1514SOL    HW1 5108   1.693   2.536   3.657
 1514SOL    HW2 5109   1.717   2.379   3.620
 1515SOL     OW 5110   1.362   3.006   2.407
 1515SOL    HW1 5111   1.445   2.977   2.359
 1515SOL    HW2 5112   1.313   3.073   2.351
 1516SOL     OW 5113   0.550   2.058   2.747
 1516SOL    HW1 5114   0.545   2.053   2.847
 1516SOL    HW2 5115   0.552   2.154   2.718
 1517SOL     OW 5116   1.008   3.318   2.339
 1517SOL    HW1 5117   0.962   3.390   2.287
 1517SOL    HW2 5118   1.004   3.338   2.437
 1518SOL     OW 5119   0.351   3.663   2.715
 1518SOL    HW1 5120   0.401   3.577   2.721
 1518SOL    HW2 5121   0.416   3.740   2.712
 1519SOL     OW 5122   1.795   2.928   2.735
 1519SOL    HW1 5123   1.733   2.913   2.659
 1519SOL    HW2 5124   1.743   2.939   2.820
 1520SOL     OW 5125   1.227   3.412   3.368
 1520SOL    HW1 5126   1.233   3.335   3.432
 1520SOL    HW2 5127   1.175   3.386   3.288
 1521SOL     OW 5128   0.321   2.805   2.104
 1521SOL    HW1 5129   0.403   2.844   2.062
 1521SOL    HW2 5130   0.294   2.723   2.055
 1522SOL     OW 5131   1.458   2.597   2.590
 1522SOL    HW1 5132   1.453   2.532   2.665
 1522SOL    HW2 5133   1.538   2.656   2.603
 1523SOL     OW 5134   0.461   3.128   3.589
 1523SOL    HW1 5135   0.411   3.129   3.503
 1523SOL    HW2 5136   0.398   3.110   3.665
 1524SOL     OW 5137   1.111   3.638   2.099
 1524SOL    HW1 5138   1.051   3.576   2.149
 1524SOL    HW2 5139   1.142   3.594   2.014
 1525SOL     OW 5140   0.202   2.147   3.360
 1525SOL    HW1 5141   0.122   2.207   3.347
 1525SOL    HW2 5142   0.192   2.098   3.446
 1526SOL     OW 5143   1.632   3.239   1.943
 1526SOL    HW1 5144   1.600   3.333   1.933
 1526SOL    HW2 5145   1.556   3.176   1.931
 1527SOL     OW 5146   0.464   3.605   2.185
 1527SOL    HW1 5147   0.497   3.644   2.271
 1527SOL    HW2 5148   0.540   3.598   2.120
 1528SOL     OW 5149   1.400   1.969   2.288
 1528SOL    HW1 5150   1.376   1.932   2.198
 1528SOL    HW2 5151   1.499   1.985   2.292
 1529SOL     OW 5152   0.249   3.647   3.103
 1529SOL    HW1 5153   0.306   3.582   3.153
 1529SOL    HW2 5154   0.233   3.614   3.010
 1530SOL     OW 5155   0.940   3.560   2.766
 1530SOL    HW1 5156   1.020   3.503   2.787
 1530SOL    HW2 5157   0.891   3.520   2.689
 1531SOL     OW 5158   0.382   2.562   2.342
 1531SOL    HW1 5159   0.427   2.472   2.339
 1531SOL    HW2 5160   0.288   2.551   2.375
 1532SOL     OW 5161   1.547   2.084   3.591
 1532SOL    HW1 5162   1.542   2.121   3.683
 1532SOL    HW2 5163   1.475   2.015   3.579
 1533SOL     OW 5164   0.614   1.984   1.979
 1533SOL    HW1 5165   0.712   1.962   1.986
 1533SOL    HW2 5166   0.583   1.967   1.886
 1534SOL     OW 5167   0.781   2.126   3.611
 1534SOL    HW1 5168   0.848   2.065   3.654
 1534SOL    HW2 5169   0.708   2.145   3.676
 1535SOL     OW 5170   0.888   3.376   3.057
 1535SOL    HW1 5171   0.865   3.351   2.963
 1535SOL    HW2 5172   0.949   3.307   3.096
 1536SOL     OW 5173   1.351   2.452   3.295
 1536SOL    HW1 5174   1.379   2.409   3.380
 1536SOL    HW2 5175   1.376   2.548   3.296
 1537SOL     OW 5176   0.803   3.264   2.786
 1537SOL    HW1 5177   0.893   3.278   2.744
 1537SOL    HW2 5178   0.732   3.266   2.715
 1538SOL     OW 5179   0.922   2.365   2.761
 1538SOL    HW1 5180   0.897   2.356   2.665
 1538SOL    HW2 5181   0.970   2.283   2.792
 1539SOL     OW 5182   0.539   1.926   2.374
 1539SOL    HW1 5183   0.458   1.927   2.432
 1539SOL    HW2 5184   0.542   2.009   2.319
 1540SOL     OW 5185   1.434   3.050   1.903
 1540SOL    HW1 5186   1.466   2.974   1.960
 1540SOL    HW2 5187   1.342   3.077   1.933
 1541SOL     OW 5188   0.297   1.897   2.033
 1541SOL    HW1 5189   0.346   1.981   2.012
 1541SOL    HW2 5190   0.359   1.832   2.078
 1542SOL     OW 5191   0.935   2.098   2.342
 1542SOL    HW1 5192   0.887   2.139   2.264
 1542SOL    HW2 5193   1.034   2.096   2.323
 1543SOL     OW 5194   1.076   2.545   3.326
 1543SOL    HW1 5195   0.996   2.484   3.329
 1543SOL    HW2 5196   1.157   2.492   3.302
 1544SOL     OW 5197   1.227   3.432   2.655
 1544SOL    HW1 5198   1.248   3.506   2.590
 1544SOL    HW2 5199   1.295   3.432   2.728
 1545SOL     OW 5200   0.459   3.014   2.603
 1545SOL    HW1 5201   0.388   2.987   2.668
 1545SOL    HW2 5202   0.433   2.986   2.510
 1546SOL     OW 5203   1.271   3.659   2.453
 1546SOL    HW1 5204   1.315   3.723   2.389
 1546SOL    HW2 5205   1.221   3.711   2.523
 1547SOL     OW 5206   1.032   2.411   1.878
 1547SOL    HW1 5207   0.991   2.493   1.839
 1547SOL    HW2 5208   1.096   2.437   1.951
 1548SOL     OW 5209   0.078   2.418   3.248
 1548SOL    HW1 5210   0.170   2.417   3.207
 1548SOL    HW2 5211   0.072   2.492   3.315
 1549SOL     OW 5212   0.561   2.084   3.009
 1549SOL    HW1 5213   0.599   2.000   3.046
 1549SOL    HW2 5214   0.473   2.103   3.053
 1550SOL     OW 5215   0.866   2.316   2.504
 1550SOL    HW1 5216   0.834   2.388   2.442
 1550SOL    HW2 5217   0.890   2.235   2.451
 1551SOL     OW 5218   1.017   1.901   2.615
 1551SOL    HW1 5219   0.945   1.906   2.546
 1551SOL    HW2 5220   0.993   1.832   2.684
 1552SOL     OW 5221   1.429   3.035   2.729
 1552SOL    HW1 5222   1.374   2.951   2.722
 1552SOL    HW2 5223   1.455   3.064   2.637
 1553SOL     OW 5224   1.466   2.452   2.854
 1553SOL    HW1 5225   1.436   2.357   2.861
 1553SOL    HW2 5226   1.539   2.468   2.920
 1554SOL     OW 5227   1.857   2.695   2.239
 1554SOL    HW1 5228   1.899   2.631   2.303
 1554SOL    HW2 5229   1.819   2.644   2.161
 1555SOL     OW 5230   0.488   3.247   2.036
 1555SOL    HW1 5231   0.401   3.232   2.083
 1555SOL    HW2 5232   0.471   3.273   1.941
 1556SOL     OW 5233   1.664   3.142   2.519
 1556SOL    HW1 5234   1.763   3.150   2.533
 1556SOL    HW2 5235   1.619   3.226   2.550
 1557SOL     OW 5236   1.390   2.437   1.940
 1557SOL    HW1 5237   1.336   2.416   2.021
 1557SOL    HW2 5238   1.481   2.396   1.949
 1558SOL     OW 5239   0.527   2.118   2.190
 1558SOL    HW1 5240   0.554   2.059   2.115
 1558SOL    HW2 5241   0.527   2.213   2.159
 1559SOL     OW 5242   1.754   3.085   3.450
 1559SOL    HW1 5243   1.845   3.046   3.437
 1559SOL    HW2 5244   1.762   3.181   3.474
 1560SOL     OW 5245   1.064   3.209   3.202
 1560SOL    HW1 5246   0.984   3.186   3.257
 1560SOL    HW2 5247   1.147   3.183   3.251
 1561SOL     OW 5248   1.592   3.491   3.487
 1561SOL    HW1 5249   1.619   3.525   3.397
 1561SOL    HW2 5250   1.671   3.453   3.533
 1562SOL     OW 5251   1.111   3.057   2.962
 1562SOL    HW1 5252   1.071   3.101   3.043
 1562SOL    HW2 5253   1.070   3.094   2.879
 1563SOL     OW 5254   1.638   2.961   2.941
 1563SOL    HW1 5255   1.643   3.042   3.000
 1563SOL    HW2 5256   1.552   2.963   2.890
 1564SOL     OW 5257   0.915   1.951   3.264
 1564SOL    HW1 5258   0.940   1.931   3.169
 1564SOL    HW2 5259   0.987   2.007   3.306
 1565SOL     OW 5260   0.980   2.978   3.581
 1565SOL    HW1 5261   0.881   2.984   3.591
 1565SOL    HW2 5262   1.003   2.898   3.525
 1566SOL     OW 5263   0.705   2.912   2.230
 1566SOL    HW1 5264   0.691   2.919   2.329
 1566SOL    HW2 5265   0.789   2.861   2.212
 1567SOL     OW 5266   0.410   2.675   3.113
 1567SOL    HW1 5267   0.496   2.687   3.163
 1567SOL    HW2 5268   0.368   2.588   3.140
 1568SOL     OW 5269   1.274   2.248   3.124
 1568SOL    HW1 5270   1.295   2.322   3.188
 1568SOL    HW2 5271   1.185   2.265   3.081
 1569SOL     OW 5272   0.064   3.426   3.193
 1569SOL    HW1 5273   0.018   3.508   3.159
 1569SOL    HW2 5274   0.162   3.445   3.202
 1570SOL     OW 5275   0.367   2.962   2.363
 1570SOL    HW1 5276   0.360   3.045   2.307
 1570SOL    HW2 5277   0.371   2.882   2.303
 1571SOL     OW 5278   0.566   2.399   2.727
 1571SOL    HW1 5279   0.578   2.465   2.653
 1571SOL    HW2 5280   0.612   2.433   2.810
 1572SOL     OW 5281   1.252   3.210   2.250
 1572SOL    HW1 5282   1.302   3.287   2.290
 1572SOL    HW2 5283   1.157   3.212   2.282
 1573SOL     OW 5284   1.272   3.307   3.004
 1573SOL    HW1 5285   1.319   3.320   3.091
 1573SOL    HW2 5286   1.206   3.233   3.013
 1574SOL     OW 5287   1.582   2.501   2.334
 1574SOL    HW1 5288   1.551   2.562   2.407
 1574SOL    HW2 5289   1.632   2.553   2.265
 1575SOL     OW 5290   0.354   3.372   3.191
 1575SOL    HW1 5291   0.333   3.328   3.104
 1575SOL    HW2 5292   0.451   3.398   3.194
 1576SOL     OW 5293   0.402   2.613   3.460
 1576SOL    HW1 5294   0.470   2.668   3.413
 1576SOL    HW2 5295   0.442   2.525   3.487
 1577SOL     OW 5296   1.587   2.641   3.532
 1577SOL    HW1 5297   1.495   2.679   3.527
 1577SOL    HW2 5298   1.647   2.688   3.467
 1578SOL     OW 5299   1.013   1.967   3.632
 1578SOL    HW1 5300   1.019   2.052   3.580
 1578SOL    HW2 5301   1.045   1.891   3.575
 1579SOL     OW 5302   0.504   1.912   3.602
 1579SOL    HW1 5303   0.462   1.855   3.532
 1579SOL    HW2 5304   0.438   1.981   3.634
 1580SOL     OW 5305   0.573   2.732   2.891
 1580SOL    HW1 5306   0.617   2.821   2.882
 1580SOL    HW2 5307   0.510   2.732   2.968
 1581SOL     OW 5308   1.360   2.724   2.907
 1581SOL    HW1 5309   1.285   2.724   2.841
 1581SOL    HW2 5310   1.397   2.632   2.916
 1582SOL     OW 5311   1.209   2.387   2.137
 1582SOL    HW1 5312   1.222   2.303   2.191
 1582SOL    HW2 5313   1.180   2.461   2.197
 1583SOL     OW 5314   0.307   2.075   3.093
 1583SOL    HW1 5315   0.284   2.112   3.183
 1583SOL    HW2 5316   0.277   1.980   3.087
 1584SOL     OW 5317   0.037   3.172   3.144
 1584SOL    HW1 5318   0.090   3.123   3.212
 1584SOL    HW2 5319   0.059   3.270   3.149
 1585SOL     OW 5320   0.732   2.496   2.926
 1585SOL    HW1 5321   0.791   2.470   2.850
 1585SOL    HW2 5322   0.704   2.592   2.915
 1586SOL     OW 5323   1.728   2.797   3.716
 1586SOL    HW1 5324   1.682   2.790   3.627
 1586SOL    HW2 5325   1.666   2.841   3.782
 1587SOL     OW 5326   0.307   1.925   2.480
 1587SOL    HW1 5327   0.296   2.019   2.513
 1587SOL    HW2 5328   0.302   1.862   2.557
 1588SOL     OW 5329   1.622   2.229   2.236
 1588SOL    HW1 5330   1.624   2.153   2.300
 1588SOL    HW2 5331   1.574   2.306   2.276
 1589SOL     OW 5332   1.023   2.628   2.828
 1589SOL    HW1 5333   1.038   2.649   2.924
 1589SOL    HW2 5334   0.993   2.533   2.819
 1590SOL     OW 5335   0.980   3.435   3.562
 1590SOL    HW1 5336   0.960   3.479   3.474
 1590SOL    HW2 5337   1.019   3.344   3.546
 1591SOL     OW 5338   1.859   3.380   3.467
 1591SOL    HW1 5339   1.873   3.407   3.372
 1591SOL    HW2 5340   1.942   3.402   3.520
 1592SOL     OW 5341   0.350   2.760   3.666
 1592SOL    HW1 5342   0.426   2.804   3.714
 1592SOL    HW2 5343   0.385   2.713   3.584
 1593SOL     OW 5344   1.540   2.136   1.987
 1593SOL    HW1 5345   1.479   2.061   2.010
 1593SOL    HW2 5346   1.562   2.188   2.070
 1594SOL     OW 5347   1.303   2.700   1.904
 1594SOL    HW1 5348   1.337   2.607   1.919
 1594SOL    HW2 5349   1.321   2.727   1.809
 1595SOL     OW 5350   1.068   3.195   2.711
 1595SOL    HW1 5351   1.075   3.111   2.656
 1595SOL    HW2 5352   1.130   3.264   2.675
 1596SOL     OW 5353   0.319   2.672   2.811
 1596SOL    HW1 5354   0.412   2.708   2.816
 1596SOL    HW2 5355   0.313   2.587   2.863
 1597SOL     OW 5356   0.339   2.371   2.868
 1597SOL    HW1 5357   0.287   2.288   2.851
 1597SOL    HW2 5358   0.416   2.376   2.804
 1598SOL     OW 5359   1.138   2.242   3.540
 1598SOL    HW1 5360   1.093   2.305   3.604
 1598SOL    HW2 5361   1.231   2.273   3.523
 1599SOL     OW 5362   1.160   2.069   3.339
 1599SOL    HW1 5363   1.160   2.133   3.416
 1599SOL    HW2 5364   1.188   2.117   3.256
 1600SOL     OW 5365   0.008   3.188   2.062
 1600SOL    HW1 5366  -0.085   3.209   2.031
 1600SOL    HW2 5367   0.018   3.089   2.075
 1601SOL     OW 5368   0.088   3.663   2.789
 1601SOL    HW1 5369   0.046   3.577   2.762
 1601SOL    HW2 5370   0.182   3.666   2.755
 1602SOL     OW 5371   0.504   3.430   2.772
 1602SOL    HW1 5372   0.570   3.504   2.781
 1602SOL    HW2 5373   0.548   3.351   2.730
 1603SOL     OW 5374   1.002   2.658   3.100
 1603SOL    HW1 5375   1.043   2.626   3.186
 1603SOL    HW2 5376   0.906   2.631   3.097
 1604SOL     OW 5377   0.040   2.406   2.976
 1604SOL    HW1 5378   0.125   2.373   2.935
 1604SOL    HW2 5379   0.053   2.421   3.074
 1605SOL     OW 5380   0.189   2.382   3.584
 1605SOL    HW1 5381   0.248   2.342   3.514
 1605SOL    HW2 5382   0.131   2.453   3.543
 1606SOL     OW 5383   1.369   2.812   3.522
 1606SOL    HW1 5384   1.408   2.901   3.542
 1606SOL    HW2 5385   1.379   2.792   3.425
 1607SOL     OW 5386   0.815   2.434   2.187
 1607SOL    HW1 5387   0.822   2.345   2.141
 1607SOL    HW2 5388   0.721   2.468   2.179
 1608SOL     OW 5389   1.657   2.466   3.068
 1608SOL    HW1 5390   1.619   2.397   3.130
 1608SOL    HW2 5391   1.739   2.430   3.024
 1609SOL     OW 5392   0.252   3.426   3.606
 1609SOL    HW1 5393   0.222   3.483   3.682
 1609SOL    HW2 5394   0.245   3.329   3.632
 1610SOL     OW 5395   0.671   2.326   3.131
 1610SOL    HW1 5396   0.637   2.237   3.101
 1610SOL    HW2 5397   0.697   2.380   3.051
 1611SOL     OW 5398   0.930   3.540   3.327
 1611SOL    HW1 5399   0.906   3.522   3.232
 1611SOL    HW2 5400   0.960   3.634   3.337
 1612SOL     OW 5401   0.473   2.362   2.053
 1612SOL    HW1 5402   0.534   2.442   2.057
 1612SOL    HW2 5403   0.378   2.393   2.060
 1613SOL     OW 5404   0.159   2.999   3.328
 1613SOL    HW1 5405   0.181   2.938   3.404
 1613SOL    HW2 5406   0.169   2.950   3.242
 1614SOL     OW 5407   1.347   2.921   3.096
 1614SOL    HW1 5408   1.371   2.858   3.022
 1614SOL    HW2 5409   1.257   2.961   3.078
 1615SOL     OW 5410   1.302   2.717   2.171
 1615SOL    HW1 5411   1.216   2.686   2.213
 1615SOL    HW2 5412   1.298   2.703   2.072
 1616SOL     OW 5413   1.759   3.609   3.016
 1616SOL    HW1 5414   1.820   3.639   2.943
 1616SOL    HW2 5415   1.721   3.520   2.994
 1617SOL     OW 5416   1.252   3.593   2.990
 1617SOL    HW1 5417   1.336   3.598   2.936
 1617SOL    HW2 5418   1.229   3.497   3.008
 1618SOL     OW 5419   0.083   3.120   2.884
 1618SOL    HW1 5420   0.078   3.119   2.984
 1618SOL    HW2 5421   0.000   3.079   2.846
 1619SOL     OW 5422   0.688   3.524   3.578
 1619SOL    HW1 5423   0.632   3.605   3.587
 1619SOL    HW2 5424   0.740   3.528   3.492
 1620SOL     OW 5425   1.726   1.997   2.385
 1620SOL    HW1 5426   1.799   1.980   2.318
 1620SOL    HW2 5427   1.695   1.910   2.423
 1621SOL     OW 5428   1.388   3.435   2.339
 1621SOL    HW1 5429   1.455   3.447   2.265
 1621SOL    HW2 5430   1.348   3.524   2.362
 1622SOL     OW 5431   0.130   3.656   3.713
 1622SOL    HW1 5432   0.089   3.582   3.766
 1622SOL    HW2 5433   0.194   3.707   3.771
 1623SOL     OW 5434   1.280   2.789   2.534
 1623SOL    HW1 5435   1.340   2.708   2.536
 1623SOL    HW2 5436   1.320   2.858   2.474
 1624SOL     OW 5437   0.830   3.135   3.284
 1624SOL    HW1 5438   0.825   3.168   3.379
 1624SOL    HW2 5439   0.744   3.154   3.238
 1625SOL     OW 5440   0.672   3.478   2.016
 1625SOL    HW1 5441   0.681   3.488   1.917
 1625SOL    HW2 5442   0.632   3.389   2.037
 1626SOL     OW 5443   1.650   3.582   3.256
 1626SOL    HW1 5444   1.703   3.592   3.172
 1626SOL    HW2 5445   1.623   3.672   3.290
 1627SOL     OW 5446   1.841   2.037   2.825
 1627SOL    HW1 5447   1.880   1.952   2.789
 1627SOL    HW2 5448   1.743   2.039   2.806
 1628SOL     OW 5449   0.263   2.188   2.582
 1628SOL    HW1 5450   0.184   2.239   2.548
 1628SOL    HW2 5451   0.254   2.173   2.680
 1629SOL     OW 5452   1.194   3.474   1.893
 1629SOL    HW1 5453   1.200   3.381   1.930
 1629SOL    HW2 5454   1.135   3.474   1.813
 1630SOL     OW 5455   0.822   2.864   3.234
 1630SOL    HW1 5456   0.862   2.863   3.142
 1630SOL    HW2 5457   0.832   2.956   3.274
 1631SOL     OW 5458   0.916   2.772   2.153
 1631SOL    HW1 5459   0.979   2.810   2.085
 1631SOL    HW2 5460   0.956   2.689   2.192
 1632SOL     OW 5461   1.504   3.469   1.906
 1632SOL    HW1 5462   1.412   3.506   1.913
 1632SOL    HW2 5463   1.542   3.489   1.816
 1633SOL     OW 5464   0.372   3.150   3.352
 1633SOL    HW1 5465   0.359   3.243   3.318
 1633SOL    HW2 5466   0.288   3.098   3.339
 1634SOL     OW 5467   1.614   3.154   3.151
 1634SOL    HW1 5468   1.674   3.157   3.231
 1634SOL    HW2 5469   1.539   3.218   3.164
 1635SOL     OW 5470   1.039   2.960   2.558
 1635SOL    HW1 5471   0.969   2.913   2.612
 1635SOL    HW2 5472   1.098   2.892   2.515
 1636SOL     OW 5473   1.014   2.098   2.833
 1636SOL    HW1 5474   1.006   2.062   2.740
 1636SOL    HW2 5475   1.012   2.022   2.898
 1637SOL     OW 5476   0.590   3.349   2.353
 1637SOL    HW1 5477   0.632   3.291   2.283
 1637SOL    HW2 5478   0.546   3.428   2.309
 1638SOL     OW 5479   1.709   2.247   3.243
 1638SOL    HW1 5480   1.782   2.316   3.247
 1638SOL    HW2 5481   1.737   2.172   3.184
 1639SOL     OW 5482   0.255   3.210   2.152
 1639SOL    HW1 5483   0.159   3.211   2.125
 1639SOL    HW2 5484   0.267   3.263   2.236
 1640SOL     OW 5485   0.105   2.875   3.588
 1640SOL    HW1 5486   0.028   2.842   3.642
 1640SOL    HW2 5487   0.190   2.845   3.630
 1641SOL     OW 5488   0.672   2.065   3.351
 1641SOL    HW1 5489   0.762   2.049   3.311
 1641SOL    HW2 5490   0.680   2.070   3.450
 1642SOL     OW 5491   0.075   2.207   1.895
 1642SOL    HW1 5492  -0.017   2.179   1.866
 1642SOL    HW2 5493   0.106   2.284   1.839
 1643SOL     OW 5494   1.440   2.718   3.260
 1643SOL    HW1 5495   1.383   2.770   3.197
 1643SOL    HW2 5496   1.536   2.730   3.236
 1644SOL     OW 5497   0.072   2.028   2.180
 1644SOL    HW1 5498   0.055   2.111   2.126
 1644SOL    HW2 5499   0.162   1.991   2.158
 1645SOL     OW 5500   1.183   3.197   1.981
 1645SOL    HW1 5501   1.084   3.186   1.983
 1645SOL    HW2 5502   1.217   3.212   2.074
 1646SOL     OW 5503   0.613   2.704   3.293
 1646SOL    HW1 5504   0.669   2.785   3.276
 1646SOL    HW2 5505   0.672   2.624   3.296
 1647SOL     OW 5506   1.493   3.629   2.821
 1647SOL    HW1 5507   1.526   3.693   2.752
 1647SOL    HW2 5508   1.559   3.623   2.896
 1648SOL     OW 5509   0.716   2.427   3.570
 1648SOL    HW1 5510   0.735   2.492   3.644
 1648SOL    HW2 5511   0.776   2.347   3.579
 1649SOL     OW 5512   1.450   3.082   3.495
 1649SOL    HW1 5513   1.441   3.072   3.594
 1649SOL    HW2 5514   1.546   3.075   3.469
 1650SOL     OW 5515   0.390   3.603   3.422
 1650SOL    HW1 5516   0.299   3.644   3.420
 1650SOL    HW2 5517   0.383   3.509   3.454
 1651SOL     OW 5518   1.674   2.745   3.116
 1651SOL    HW1 5519   1.647   2.656   3.079
 1651SOL    HW2 5520   1.675   2.813   3.043
 1652SOL     OW 5521   1.225   2.187   2.311
 1652SOL    HW1 5522   1.290   2.113   2.300
 1652SOL    HW2 5523   1.245   2.237   2.395
 1653SOL     OW 5524   0.594   2.607   2.514
 1653SOL    HW1 5525   0.644   2.692   2.495
 1653SOL    HW2 5526   0.506   2.609   2.466
 1654SOL     OW 5527   1.777   2.204   3.504
 1654SOL    HW1 5528   1.760   2.235   3.410
 1654SOL    HW2 5529   1.693   2.167   3.542
 1655SOL     OW 5530   1.730   2.796   3.379
 1655SOL    HW1 5531   1.768   2.887   3.394
 1655SOL    HW2 5532   1.722   2.779   3.280
 1656SOL     OW 5533   0.859   3.236   1.878
 1656SOL    HW1 5534   0.813   3.251   1.966
 1656SOL    HW2 5535   0.903   3.321   1.848
 1657SOL     OW 5536   0.661   3.652   2.815
 1657SOL    HW1 5537   0.615   3.740   2.802
 1657SOL    HW2 5538   0.760   3.664   2.808
 1658SOL     OW 5539   0.859   2.818   2.723
 1658SOL    HW1 5540   0.913   2.749   2.771
 1658SOL    HW2 5541   0.827   2.887   2.789
 1659SOL     OW 5542   1.083   2.846   1.949
 1659SOL    HW1 5543   1.060   2.899   1.867
 1659SOL    HW2 5544   1.164   2.790   1.930
 1660SOL     OW 5545   1.861   3.431   2.713
 1660SOL    HW1 5546   1.790   3.419   2.643
 1660SOL    HW2 5547   1.862   3.352   2.773
 1661SOL     OW 5548   0.221   3.176   3.706
 1661SOL    HW1 5549   0.156   3.103   3.685
 1661SOL    HW2 5550   0.225   3.190   3.804
 1662SOL     OW 5551   0.079   3.102   2.515
 1662SOL    HW1 5552   0.078   3.055   2.603
 1662SOL    HW2 5553   0.161   3.074   2.464
 1663SOL     OW 5554   0.672   3.253   3.486
 1663SOL    HW1 5555   0.594   3.203   3.524
 1663SOL    HW2 5556   0.669   3.348   3.517
 1664SOL     OW 5557   1.824   2.054   3.089
 1664SOL    HW1 5558   1.820   1.964   3.133
 1664SOL    HW2 5559   1.827   2.043   2.990
 1665SOL     OW 5560   0.428   2.286   2.382
 1665SOL    HW1 5561   0.458   2.214   2.320
 1665SOL    HW2 5562   0.389   2.246   2.465
 1666SOL     OW 5563   1.705   3.349   2.966
 1666SOL    HW1 5564   1.612   3.324   2.939
 1666SOL    HW2 5565   1.731   3.299   3.048
 1667SOL     OW 5566   0.317   2.409   3.142
 1667SOL    HW1 5567   0.355   2.350   3.214
 1667SOL    HW2 5568   0.357   2.383   3.054
 1668SOL     OW 5569   0.812   3.448   2.549
 1668SOL    HW1 5570   0.844   3.458   2.455
 1668SOL    HW2 5571   0.733   3.386   2.551
 1669SOL     OW 5572   1.424   2.076   2.974
 1669SOL    HW1 5573   1.476   2.011   3.029
 1669SOL    HW2 5574   1.375   2.139   3.035
 1670SOL     OW 5575   1.001   1.896   3.016
 1670SOL    HW1 5576   0.938   1.824   2.985
 1670SOL    HW2 5577   1.094   1.860   3.016
 1671SOL     OW 5578   0.770   3.192   2.163
 1671SOL    HW1 5579   0.724   3.105   2.180
 1671SOL    HW2 5580   0.861   3.189   2.204
 1672SOL     OW 5581   0.618   3.429   3.146
 1672SOL    HW1 5582   0.613   3.511   3.203
 1672SOL    HW2 5583   0.707   3.426   3.101
 1673SOL     OW 5584   1.352   1.914   2.030
 1673SOL    HW1 5585   1.387   1.873   1.946
 1673SOL    HW2 5586   1.262   1.876   2.050
 1674SOL     OW 5587   1.300   2.315   2.553
 1674SOL    HW1 5588   1.241   2.395   2.557
 1674SOL    HW2 5589   1.315   2.280   2.646
 1675SOL     OW 5590   1.593   2.083   2.744
 1675SOL    HW1 5591   1.509   2.082   2.798
 1675SOL    HW2 5592   1.595   2.166   2.688
 1676SOL     OW 5593   0.039   2.939   2.162
 1676SOL    HW1 5594   0.138   2.928   2.153
 1676SOL    HW2 5595  -0.001   2.853   2.194
 1677SOL     OW 5596   0.875   3.508   2.199
 1677SOL    HW1 5597   0.798   3.473   2.145
 1677SOL    HW2 5598   0.843   3.579   2.261
 1678SOL     OW 5599   0.230   2.490   3.837
 1678SOL    HW1 5600   0.137   2.488   3.874
 1678SOL    HW2 5601   0.231   2.451   3.745
 1679SOL     OW 5602   0.225   2.137   4.720
 1679SOL    HW1 5603   0.260   2.120   4.812
 1679SOL    HW2 5604   0.137   2.092   4.708
 1680SOL     OW 5605   0.019   2.230   4.371
 1680SOL    HW1 5606  -0.063   2.273   4.410
 1680SOL    HW2 5607  -0.009   2.157   4.308
 1681SOL     OW 5608   0.569   3.137   4.889
 1681SOL    HW1 5609   0.476   3.130   4.852
 1681SOL    HW2 5610   0.580   3.226   4.933
 1682SOL     OW 5611   1.555   3.373   4.427
 1682SOL    HW1 5612   1.498   3.357   4.508
 1682SOL    HW2 5613   1.496   3.383   4.347
 1683SOL     OW 5614   1.135   2.565   4.441
 1683SOL    HW1 5615   1.192   2.643   4.416
 1683SOL    HW2 5616   1.075   2.591   4.517
 1684SOL     OW 5617   1.755   2.469   3.955
 1684SOL    HW1 5618   1.743   2.456   3.856
 1684SOL    HW2 5619   1.725   2.388   4.004
 1685SOL     OW 5620   0.768   3.006   4.747
 1685SOL    HW1 5621   0.690   3.023   4.807
 1685SOL    HW2 5622   0.802   3.093   4.711
 1686SOL     OW 5623   0.850   2.660   5.547
 1686SOL    HW1 5624   0.846   2.736   5.612
 1686SOL    HW2 5625   0.872   2.696   5.456
 1687SOL     OW 5626   0.685   2.874   4.389
 1687SOL    HW1 5627   0.754   2.858   4.459
 1687SOL    HW2 5628   0.612   2.931   4.427
 1688SOL     OW 5629   0.686   3.023   5.527
 1688SOL    HW1 5630   0.746   3.102   5.541
 1688SOL    HW2 5631   0.600   3.054   5.486
 1689SOL     OW 5632   0.335   3.297   4.785
 1689SOL    HW1 5633   0.257   3.266   4.732
 1689SOL    HW2 5634   0.393   3.355   4.728
 1690SOL     OW 5635   1.460   3.367   5.063
 1690SOL    HW1 5636   1.484   3.461   5.089
 1690SOL    HW2 5637   1.444   3.313   5.145
 1691SOL     OW 5638   0.438   2.254   5.223
 1691SOL    HW1 5639   0.520   2.198   5.232
 1691SOL    HW2 5640   0.357   2.196   5.227
 1692SOL     OW 5641   1.603   2.309   4.461
 1692SOL    HW1 5642   1.529   2.355   4.411
 1692SOL    HW2 5643   1.654   2.377   4.514
 1693SOL     OW 5644   0.231   3.575   4.207
 1693SOL    HW1 5645   0.265   3.652   4.261
 1693SOL    HW2 5646   0.275   3.575   4.117
 1694SOL     OW 5647   1.127   3.203   5.414
 1694SOL    HW1 5648   1.174   3.203   5.502
 1694SOL    HW2 5649   1.079   3.116   5.403
 1695SOL     OW 5650   0.230   3.296   4.262
 1695SOL    HW1 5651   0.204   3.392   4.262
 1695SOL    HW2 5652   0.159   3.242   4.307
 1696SOL     OW 5653   0.240   2.953   4.610
 1696SOL    HW1 5654   0.254   2.869   4.662
 1696SOL    HW2 5655   0.185   3.017   4.665
 1697SOL     OW 5656   0.620   3.648   5.163
 1697SOL    HW1 5657   0.528   3.631   5.198
 1697SOL    HW2 5658   0.648   3.740   5.189
 1698SOL     OW 5659   0.606   2.826   3.847
 1698SOL    HW1 5660   0.613   2.910   3.793
 1698SOL    HW2 5661   0.652   2.839   3.935
 1699SOL     OW 5662   0.122   2.505   4.287
 1699SOL    HW1 5663   0.077   2.417   4.304
 1699SOL    HW2 5664   0.121   2.559   4.371
 1700SOL     OW 5665   1.842   3.629   4.083
 1700SOL    HW1 5666   1.896   3.600   4.163
 1700SOL    HW2 5667   1.872   3.719   4.054
 1701SOL     OW 5668   0.027   3.458   3.841
 1701SOL    HW1 5669   0.008   3.362   3.862
 1701SOL    HW2 5670  -0.006   3.516   3.916
 1702SOL     OW 5671   1.689   2.784   4.336
 1702SOL    HW1 5672   1.784   2.755   4.344
 1702SOL    HW2 5673   1.681   2.849   4.261
 1703SOL     OW 5674   1.641   2.970   4.156
 1703SOL    HW1 5675   1.727   2.972   4.104
 1703SOL    HW2 5676   1.655   3.017   4.244
 1704SOL     OW 5677   0.113   2.599   5.321
 1704SOL    HW1 5678   0.201   2.586   5.366
 1704SOL    HW2 5679   0.100   2.696   5.299
 1705SOL     OW 5680   0.613   3.227   4.450
 1705SOL    HW1 5681   0.564   3.140   4.459
 1705SOL    HW2 5682   0.590   3.270   4.363
 1706SOL     OW 5683   1.293   3.090   5.147
 1706SOL    HW1 5684   1.330   3.017   5.089
 1706SOL    HW2 5685   1.345   3.095   5.232
 1707SOL     OW 5686   0.809   1.866   4.226
 1707SOL    HW1 5687   0.849   1.957   4.217
 1707SOL    HW2 5688   0.709   1.874   4.232
 1708SOL     OW 5689   0.197   2.838   4.988
 1708SOL    HW1 5690   0.286   2.793   4.974
 1708SOL    HW2 5691   0.124   2.773   4.969
 1709SOL     OW 5692   1.525   2.861   3.914
 1709SOL    HW1 5693   1.462   2.785   3.927
 1709SOL    HW2 5694   1.573   2.879   4.000
 1710SOL     OW 5695   1.187   3.654   5.340
 1710SOL    HW1 5696   1.211   3.714   5.264
 1710SOL    HW2 5697   1.194   3.559   5.310
 1711SOL     OW 5698   0.317   2.113   5.525
 1711SOL    HW1 5699   0.388   2.184   5.531
 1711SOL    HW2 5700   0.229   2.152   5.553
 1712SOL     OW 5701   1.466   3.279   4.677
 1712SOL    HW1 5702   1.407   3.285   4.757
 1712SOL    HW2 5703   1.451   3.191   4.631
 1713SOL     OW 5704   1.667   3.576   4.296
 1713SOL    HW1 5705   1.626   3.553   4.208
 1713SOL    HW2 5706   1.649   3.502   4.361
 1714SOL     OW 5707   0.598   2.591   3.994
 1714SOL    HW1 5708   0.622   2.660   3.926
 1714SOL    HW2 5709   0.520   2.624   4.048
 1715SOL     OW 5710   1.281   2.207   4.668
 1715SOL    HW1 5711   1.195   2.157   4.655
 1715SOL    HW2 5712   1.343   2.153   4.724
 1716SOL     OW 5713   1.576   3.524   4.031
 1716SOL    HW1 5714   1.665   3.570   4.034
 1716SOL    HW2 5715   1.555   3.500   3.936
 1717SOL     OW 5716   0.807   2.467   5.189
 1717SOL    HW1 5717   0.760   2.464   5.278
 1717SOL    HW2 5718   0.756   2.412   5.123
 1718SOL     OW 5719   1.394   2.331   5.398
 1718SOL    HW1 5720   1.374   2.374   5.486
 1718SOL    HW2 5721   1.472   2.269   5.407
 1719SOL     OW 5722   0.973   2.752   5.296
 1719SOL    HW1 5723   1.019   2.668   5.267
 1719SOL    HW2 5724   0.917   2.786   5.221
 1720SOL     OW 5725   0.991   2.272   4.966
 1720SOL    HW1 5726   0.914   2.306   5.020
 1720SOL    HW2 5727   0.957   2.221   4.887
 1721SOL     OW 5728   1.041   2.563   4.153
 1721SOL    HW1 5729   1.067   2.559   4.249
 1721SOL    HW2 5730   0.956   2.512   4.139
 1722SOL     OW 5731   0.076   2.673   4.513
 1722SOL    HW1 5732   0.175   2.661   4.522
 1722SOL    HW2 5733   0.052   2.768   4.534
 1723SOL     OW 5734   0.130   3.683   5.295
 1723SOL    HW1 5735   0.120   3.668   5.394
 1723SOL    HW2 5736   0.044   3.719   5.259
 1724SOL     OW 5737   0.865   2.210   3.919
 1724SOL    HW1 5738   0.924   2.273   3.870
 1724SOL    HW2 5739   0.884   2.116   3.890
 1725SOL     OW 5740   1.719   2.447   5.555
 1725SOL    HW1 5741   1.693   2.536   5.519
 1725SOL    HW2 5742   1.717   2.379   5.482
 1726SOL     OW 5743   1.362   3.006   4.269
 1726SOL    HW1 5744   1.445   2.977   4.221
 1726SOL    HW2 5745   1.313   3.073   4.213
 1727SOL     OW 5746   0.550   2.058   4.609
 1727SOL    HW1 5747   0.545   2.053   4.709
 1727SOL    HW2 5748   0.552   2.154   4.580
 1728SOL     OW 5749   1.008   3.318   4.201
 1728SOL    HW1 5750   0.962   3.390   4.149
 1728SOL    HW2 5751   1.004   3.338   4.299
 1729SOL     OW 5752   0.351   3.663   4.577
 1729SOL    HW1 5753   0.401   3.577   4.583
 1729SOL    HW2 5754   0.416   3.740   4.574
 1730SOL     OW 5755   1.795   2.928   4.597
 1730SOL    HW1 5756   1.733   2.913   4.521
 1730SOL    HW2 5757   1.743   2.939   4.682
 1731SOL     OW 5758   1.227   3.412   5.230
 1731SOL    HW1 5759   1.233   3.335   5.294
 1731SOL    HW2 5760   1.175   3.386   5.150
 1732SOL     OW 5761   0.321   2.805   3.966
 1732SOL    HW1 5762   0.403   2.844   3.924
 1732SOL    HW2 5763   0.294   2.723   3.917
 1733SOL     OW 5764   1.458   2.597   4.452
 1733SOL    HW1 5765   1.453   2.532   4.527
 1733SOL    HW2 5766   1.538   2.656   4.465
 1734SOL     OW 5767   0.461   3.128   5.451
 1734SOL    HW1 5768   0.411   3.129   5.365
 1734SOL    HW2 5769   0.398   3.110   5.527
 1735SOL     OW 5770   1.111   3.638   3.961
 1735SOL    HW1 5771   1.051   3.576   4.011
 1735SOL    HW2 5772   1.142   3.594   3.876
 1736SOL     OW 5773   0.202   2.147   5.222
 1736SOL    HW1 5774   0.122   2.207   5.209
 1736SOL    HW2 5775   0.192   2.098   5.308
 1737SOL     OW 5776   1.632   3.239   3.805
 1737SOL    HW1 5777   1.600   3.333   3.795
 1737SOL    HW2 5778   1.556   3.176   3.793
 1738SOL     OW 5779   0.464   3.605   4.047
 1738SOL    HW1 5780   0.497   3.644   4.133
 1738SOL    HW2 5781   0.540   3.598   3.982
 1739SOL     OW 5782   1.400   1.969   4.150
 1739SOL    HW1 5783   1.376   1.932   4.060
 1739SOL    HW2 5784   1.499   1.985   4.154
 1740SOL     OW 5785   0.249   3.647   4.965
 1740SOL    HW1 5786   0.306   3.582   5.015
 1740SOL    HW2 5787   0.233   3.614   4.872
 1741SOL     OW 5788   0.940   3.560   4.628
 1741SOL    HW1 5789   1.020   3.503   4.649
 1741SOL    HW2 5790   0.891   3.520   4.551
 1742SOL     OW 5791   0.382   2.562   4.204
 1742SOL    HW1 5792   0.427   2.472   4.201
 1742SOL    HW2 5793   0.288   2.551   4.237
 1743SOL     OW 5794   1.547   2.084   5.453
 1743SOL    HW1 5795   1.542   2.121   5.545
 1743SOL    HW2 5796   1.475   2.015   5.441
 1744SOL     OW 5797   0.614   1.984   3.841
 1744SOL    HW1 5798   0.712   1.962   3.848
 1744SOL    HW2 5799   0.583   1.967   3.748
 1745SOL     OW 5800   0.781   2.126   5.473
 1745SOL    HW1 5801   0.848   2.065   5.516
 1745SOL    HW2 5802   0.708   2.145   5.538
 1746SOL     OW 5803   0.888   3.376   4.919
 1746SOL    HW1 5804   0.865   3.351   4.825
 1746SOL    HW2 5805   0.949   3.307   4.958
 1747SOL     OW 5806   1.351   2.452   5.157
 1747SOL    HW1 5807   1.379   2.409   5.242
 1747SOL    HW2 5808   1.376   2.548   5.158
 1748SOL     OW 5809   0.803   3.264   4.648
 1748SOL    HW1 5810   0.893   3.278   4.606
 1748SOL    HW2 5811   0.732   3.266   4.577
 1749SOL     OW 5812   0.922   2.365   4.623
 1749SOL    HW1 5813   0.897   2.356   4.527
 1749SOL    HW2 5814   0.970   2.283   4.654
 1750SOL     OW 5815   0.539   1.926   4.236
 1750SOL    HW1 5816   0.458   1.927   4.294
 1750SOL    HW2 5817   0.542   2.009   4.181
 1751SOL     OW 5818   1.434   3.050   3.765
 1751SOL    HW1 5819   1.466   2.974   3.822
 1751SOL    HW2 5820   1.342   3.077   3.795
 1752SOL     OW 5821   0.297   1.897   3.895
 1752SOL    HW1 5822   0.346   1.981   3.874
 1752SOL    HW2 5823   0.359   1.832   3.940
 1753SOL     OW 5824   0.935   2.098   4.204
 1753SOL    HW1 5825   0.887   2.139   4.126
 1753SOL    HW2 5826   1.034   2.096   4.185
 1754SOL     OW 5827   1.076   2.545   5.188
 1754SOL    HW1 5828   0.996   2.484   5.191
 1754SOL    HW2 5829   1.157   2.492   5.164
 1755SOL     OW 5830   1.227   3.432   4.517
 1755SOL    HW1 5831   1.248   3.506   4.452
 1755SOL    HW2 5832   1.295   3.432   4.590
 1756SOL     OW 5833   0.459   3.014   4.465
 1756SOL    HW1 5834   0.388   2.987   4.530
 1756SOL    HW2 5835   0.433   2.986   4.372
 1757SOL     OW 5836   1.271   3.659   4.315
 1757SOL    HW1 5837   1.315   3.723   4.251
 1757SOL    HW2 5838   1.221   3.711   4.385
 1758SOL     OW 5839   1.032   2.411   3.740
 1758SOL    HW1 5840   0.991   2.493   3.701
 1758SOL    HW2 5841   1.096   2.437   3.813
 1759SOL     OW 5842   0.078   2.418   5.110
 1759SOL    HW1 5843   0.170   2.417   5.069
 1759SOL    HW2 5844   0.072   2.492   5.177
 1760SOL     OW 5845   0.561   2.084   4.871
 1760SOL    HW1 5846   0.599   2.000   4.908
 1760SOL    HW2 5847   0.473   2.103   4.915
 1761SOL     OW 5848   0.866   2.316   4.366
 1761SOL    HW1 5849   0.834   2.388   4.304
 1761SOL    HW2 5850   0.890   2.235   4.313
 1762SOL     OW 5851   1.017   1.901   4.477
 1762SOL    HW1 5852   0.945   1.906   4.408
 1762SOL    HW2 5853   0.993   1.832   4.546
 1763SOL     OW 5854   1.429   3.035   4.591
 1763SOL    HW1 5855   1.374   2.951   4.584
 1763SOL    HW2 5856   1.455   3.064   4.499
 1764SOL     OW 5857   1.857   2.695   4.101
 1764SOL    HW1 5858   1.899   2.631   4.165
 1764SOL    HW2 5859   1.819   2.644   4.023
 1765SOL     OW 5860   0.488   3.247   3.898
 1765SOL    HW1 5861   0.401   3.232   3.945
 1765SOL    HW2 5862   0.471   3.273   3.803
 1766SOL     OW 5863   1.664   3.142   4.381
 1766SOL    HW1 5864   1.763   3.150   4.395
 1766SOL    HW2 5865   1.619   3.226   4.412
 1767SOL     OW 5866   1.390   2.437   3.802
 1767SOL    HW1 5867   1.336   2.416   3.883
 1767SOL    HW2 5868   1.481   2.396   3.811
 1768SOL     OW 5869   0.527   2.118   4.052
 1768SOL    HW1 5870   0.554   2.059   3.977
 1768SOL    HW2 5871   0.527   2.213   4.021
 1769SOL     OW 5872   1.754   3.085   5.312
 1769SOL    HW1 5873   1.845   3.046   5.299
 1769SOL    HW2 5874   1.762   3.181   5.336
 1770SOL     OW 5875   1.064   3.209   5.064
 1770SOL    HW1 5876   0.984   3.186   5.119
 1770SOL    HW2 5877   1.147   3.183   5.113
 1771SOL     OW 5878   1.592   3.491   5.349
 1771SOL    HW1 5879   1.619   3.525   5.259
 1771SOL    HW2 5880   1.671   3.453   5.395
 1772SOL     OW 5881   1.111   3.057   4.824
 1772SOL    HW1 5882   1.071   3.101   4.905
 1772SOL    HW2 5883   1.070   3.094   4.741
 1773SOL     OW 5884   1.638   2.961   4.803
 1773SOL    HW1 5885   1.643   3.042   4.862
 1773SOL    HW2 5886   1.552   2.963   4.752
 1774SOL     OW 5887   0.915   1.951   5.126
 1774SOL    HW1 5888   0.940   1.931   5.031
 1774SOL    HW2 5889   0.987   2.007   5.168
 1775SOL     OW 5890   0.980   2.978   5.443
 1775SOL    HW1 5891   0.881   2.984   5.453
 1775SOL    HW2 5892   1.003   2.898   5.387
 1776SOL     OW 5893   0.705   2.912   4.092
 1776SOL    HW1 5894   0.691   2.919   4.191
 1776SOL    HW2 5895   0.789   2.861   4.074
 1777SOL     OW 5896   0.410   2.675   4.975
 1777SOL    HW1 5897   0.496   2.687   5.025
 1777SOL    HW2 5898   0.368   2.588   5.002
 1778SOL     OW 5899   1.274   2.248   4.986
 1778SOL    HW1 5900   1.295   2.322   5.050
 1778SOL    HW2 5901   1.185   2.265   4.943
 1779SOL     OW 5902   0.064   3.426   5.055
 1779SOL    HW1 5903   0.018   3.508   5.021
 1779SOL    HW2 5904   0.162   3.445   5.064
 1780SOL     OW 5905   0.367   2.962   4.225
 1780SOL    HW1 5906   0.360   3.045   4.169
 1780SOL    HW2 5907   0.371   2.882   4.165
 1781SOL     OW 5908   0.566   2.399   4.589
 1781SOL    HW1 5909   0.578   2.465   4.515
 1781SOL    HW2 5910   0.612   2.433   4.672
 1782SOL     OW 5911   1.252   3.210   4.112
 1782SOL    HW1 5912   1.302   3.287   4.152
 1782SOL    HW2 5913   1.157   3.212   4.144
 1783SOL     OW 5914   1.272   3.307   4.866
 1783SOL    HW1 5915   1.319   3.320   4.953
 1783SOL    HW2 5916   1.206   3.233   4.875
 1784SOL     OW 5917   1.582   2.501   4.196
 1784SOL    HW1 5918   1.551   2.562   4.269
 1784SOL    HW2 5919   1.632   2.553   4.127
 1785SOL     OW 5920   0.354   3.372   5.053
 1785SOL    HW1 5921   0.333   3.328   4.966
 1785SOL    HW2 5922   0.451   3.398   5.056
 1786SOL     OW 5923   0.402   2.613   5.322
 1786SOL    HW1 5924   0.470   2.668   5.275
 1786SOL    HW2 5925   0.442   2.525   5.349
 1787SOL     OW 5926   1.587   2.641   5.394
 1787SOL    HW1 5927   1.495   2.679   5.389
 1787SOL    HW2 5928   1.647   2.688   5.329
 1788SOL     OW 5929   1.013   1.967   5.494
 1788SOL    HW1 5930   1.019   2.052   5.442
 1788SOL    HW2 5931   1.045   1.891   5.437
 1789SOL     OW 5932   0.504   1.912   5.464
 1789SOL    HW1 5933   0.462   1.855   5.394
 1789SOL    HW2 5934   0.438   1.981   5.496
 1790SOL     OW 5935   0.573   2.732   4.753
 1790SOL    HW1 5936   0.617   2.821   4.744
 1790SOL    HW2 5937   0.510   2.732   4.830
 1791SOL     OW 5938   1.360   2.724   4.769
 1791SOL    HW1 5939   1.285   2.724   4.703
 1791SOL    HW2 5940   1.397   2.632   4.778
 1792SOL     OW 5941   1.209   2.387   3.999
 1792SOL    HW1 5942   1.222   2.303   4.053
 1792SOL    HW2 5943   1.180   2.461   4.059
 1793SOL     OW 5944   0.307   2.075   4.955
 1793SOL    HW1 5945   0.284   2.112   5.045
 1793SOL    HW2 5946   0.277   1.980   4.949
 1794SOL     OW 5947   0.037   3.172   5.006
 1794SOL    HW1 5948   0.090   3.123   5.074
 1794SOL    HW2 5949   0.059   3.270   5.011
 1795SOL     OW 5950   0.732   2.496   4.788
 1795SOL    HW1 5951   0.791   2.470   4.712
 1795SOL    HW2 5952   0.704   2.592   4.777
 1796SOL     OW 5953   0.307   1.925   4.342
 1796SOL    HW1 5954   0.296   2.019   4.375
 1796SOL    HW2 5955   0.302   1.862   4.419
 1797SOL     OW 5956   1.622   2.229   4.098
 1797SOL    HW1 5957   1.624   2.153   4.162
 1797SOL    HW2 5958   1.574   2.306   4.138
 1798SOL     OW 5959   1.023   2.628   4.690
 1798SOL    HW1 5960   1.038   2.649   4.786
 1798SOL    HW2 5961   0.993   2.533   4.681
 1799SOL     OW 5962   0.980   3.435   5.424
 1799SOL    HW1 5963   0.960   3.479   5.336
 1799SOL    HW2 5964   1.019   3.344   5.408
 1800SOL     OW 5965   1.859   3.380   5.329
 1800SOL    HW1 5966   1.873   3.407   5.234
 1800SOL    HW2 5967   1.942   3.402   5.382
 1801SOL     OW 5968   0.350   2.760   5.528
 1801SOL    HW1 5969   0.426   2.804   5.576
 1801SOL    HW2 5970   0.385   2.713   5.446
 1802SOL     OW 5971   1.540   2.136   3.849
 1802SOL    HW1 5972   1.479   2.061   3.872
 1802SOL    HW2 5973   1.562   2.188   3.932
 1803SOL     OW 5974   1.303   2.700   3.766
 1803SOL    HW1 5975   1.337   2.607   3.781
 1803SOL    HW2 5976   1.321   2.727   3.671
 1804SOL     OW 5977   1.068   3.195   4.573
 1804SOL    HW1 5978   1.075   3.111   4.518
 1804SOL    HW2 5979   1.130   3.264   4.537
 1805SOL     OW 5980   0.319   2.672   4.673
 1805SOL    HW1 5981   0.412   2.708   4.678
 1805SOL    HW2 5982   0.313   2.587   4.725
 1806SOL     OW 5983   0.339   2.371   4.730
 1806SOL    HW1 5984   0.287   2.288   4.713
 1806SOL    HW2 5985   0.416   2.376   4.666
 1807SOL     OW 5986   1.138   2.242   5.402
 1807SOL    HW1 5987   1.093   2.305   5.466
 1807SOL    HW2 5988   1.231   2.273   5.385
 1808SOL     OW 5989   1.160   2.069   5.201
 1808SOL    HW1 5990   1.160   2.133   5.278
 1808SOL    HW2 5991   1.188   2.117   5.118
 1809SOL     OW 5992   0.008   3.188   3.924
 1809SOL    HW1 5993  -0.085   3.209   3.893
 1809SOL    HW2 5994   0.018   3.089   3.937
 1810SOL     OW 5995   0.088   3.663   4.651
 1810SOL    HW1 5996   0.046   3.577   4.624
 1810SOL    HW2 5997   0.182   3.666   4.617
 1811SOL     OW 5998   0.504   3.430   4.634
 1811SOL    HW1 5999   0.570   3.504   4.643
 1811SOL    HW2 6000   0.548   3.351   4.592
 1812SOL     OW 6001   1.002   2.658   4.962
 1812SOL    HW1 6002   1.043   2.626   5.048
 1812SOL    HW2 6003   0.906   2.631   4.959
 1813SOL     OW 6004   0.040   2.406   4.838
 1813SOL    HW1 6005   0.125   2.373   4.797
 1813SOL    HW2 6006   0.053   2.421   4.936
 1814SOL     OW 6007   0.189   2.382   5.446
 1814SOL    HW1 6008   0.248   2.342   5.376
 1814SOL    HW2 6009   0.131   2.453   5.405
 1815SOL     OW 6010   1.369   2.812   5.384
 1815SOL    HW1 6011   1.408   2.901   5.404
 1815SOL    HW2 6012   1.379   2.792   5.287
 1816SOL     OW 6013   0.815   2.434   4.049
 1816SOL    HW1 6014   0.822   2.345   4.003
 1816SOL    HW2 6015   0.721   2.468   4.041
 1817SOL     OW 6016   0.252   3.426   5.468
 1817SOL    HW1 6017   0.222   3.483   5.544
 1817SOL    HW2 6018   0.245   3.329   5.494
 1818SOL     OW 6019   0.671   2.326   4.993
 1818SOL    HW1 6020   0.637   2.237   4.963
 1818SOL    HW2 6021   0.697   2.380   4.913
 1819SOL     OW 6022   0.930   3.540   5.189
 1819SOL    HW1 6023   0.906   3.522   5.094
 1819SOL    HW2 6024   0.960   3.634   5.199
 1820SOL     OW 6025   0.473   2.362   3.915
 1820SOL    HW1 6026   0.534   2.442   3.919
 1820SOL    HW2 6027   0.378   2.393   3.922
 1821SOL     OW 6028   0.159   2.999   5.190
 1821SOL    HW1 6029   0.181   2.938   5.266
 1821SOL    HW2 6030   0.169   2.950   5.104
 1822SOL     OW 6031   1.347   2.921   4.958
 1822SOL    HW1 6032   1.371   2.858   4.884
 1822SOL    HW2 6033   1.257   2.961   4.940
 1823SOL     OW 6034   1.302   2.717   4.033
 1823SOL    HW1 6035   1.216   2.686   4.075
 1823SOL    HW2 6036   1.298   2.703   3.934
 1824SOL     OW 6037   1.759   3.609   4.878
 1824SOL    HW1 6038   1.820   3.639   4.805
 1824SOL    HW2 6039   1.721   3.520   4.856
 1825SOL     OW 6040   1.252   3.593   4.852
 1825SOL    HW1 6041   1.336   3.598   4.798
 1825SOL    HW2 6042   1.229   3.497   4.870
 1826SOL     OW 6043   0.083   3.120   4.746
 1826SOL    HW1 6044   0.078   3.119   4.846
 1826SOL    HW2 6045   0.000   3.079   4.708
 1827SOL     OW 6046   0.688   3.524   5.440
 1827SOL    HW1 6047   0.632   3.605   5.449
 1827SOL    HW2 6048   0.740   3.528   5.354
 1828SOL     OW 6049   1.726   1.997   4.247
 1828SOL    HW1 6050   1.799   1.980   4.180
 1828SOL    HW2 6051   1.695   1.910   4.285
 1829SOL     OW 6052   1.388   3.435   4.201
 1829SOL    HW1 6053   1.455   3.447   4.127
 1829SOL    HW2 6054   1.348   3.524   4.224
 1830SOL     OW 6055   0.130   3.656   5.575
 1830SOL    HW1 6056   0.089   3.582   5.628
 1830SOL    HW2 6057   0.194   3.707   5.633
 1831SOL     OW 6058   1.280   2.789   4.396
 1831SOL    HW1 6059   1.340   2.708   4.398
 1831SOL    HW2 6060   1.320   2.858   4.336
 1832SOL     OW 6061   0.830   3.135   5.146
 1832SOL    HW1 6062   0.825   3.168   5.241
 1832SOL    HW2 6063   0.744   3.154   5.100
 1833SOL     OW 6064   0.672   3.478   3.878
 1833SOL    HW1 6065   0.681   3.488   3.779
 1833SOL    HW2 6066   0.632   3.389   3.899
 1834SOL     OW 6067   1.650   3.582   5.118
 1834SOL    HW1 6068   1.703   3.592   5.034
 1834SOL    HW2 6069   1.623   3.672   5.152
 1835SOL     OW 6070   0.263   2.188   4.444
 1835SOL    HW1 6071   0.184   2.239   4.410
 1835SOL    HW2 6072   0.254   2.173   4.542
 1836SOL     OW 6073   1.194   3.474   3.755
 1836SOL    HW1 6074   1.200   3.381   3.792
 1836SOL    HW2 6075   1.135   3.474   3.675
 1837SOL     OW 6076   0.822   2.864   5.096
 1837SOL    HW1 6077   0.862   2.863   5.004
 1837SOL    HW2 6078   0.832   2.956   5.136
 1838SOL     OW 6079   0.916   2.772   4.015
 1838SOL    HW1 6080   0.979   2.810   3.947
 1838SOL    HW2 6081   0.956   2.689   4.054
 1839SOL     OW 6082   1.504   3.469   3.768
 1839SOL    HW1 6083   1.412   3.506   3.775
 1839SOL    HW2 6084   1.542   3.489   3.678
 1840SOL     OW 6085   0.372   3.150   5.214
 1840SOL    HW1 6086   0.359   3.243   5.180
 1840SOL    HW2 6087   0.288   3.098   5.201
 1841SOL     OW 6088   1.614   3.154   5.013
 1841SOL    HW1 6089   1.674   3.157   5.093
 1841SOL    HW2 6090   1.539   3.218   5.026
 1842SOL     OW 6091   1.039   2.960   4.420
 1842SOL    HW1 6092   0.969   2.913   4.474
 1842SOL    HW2 6093   1.098   2.892   4.377
 1843SOL     OW 6094   1.014   2.098   4.695
 1843SOL    HW1 6095   1.006   2.062   4.602
 1843SOL    HW2 6096   1.012   2.022   4.760
 1844SOL     OW 6097   0.590   3.349   4.215
 1844SOL    HW1 6098   0.632   3.291   4.145
 1844SOL    HW2 6099   0.546   3.428   4.171
 1845SOL     OW 6100   0.255   3.210   4.014
 1845SOL    HW1 6101   0.159   3.211   3.987
 1845SOL    HW2 6102   0.267   3.263   4.098
 1846SOL     OW 6103   0.105   2.875   5.450
 1846SOL    HW1 6104   0.028   2.842   5.504
 1846SOL    HW2 6105   0.190   2.845   5.492
 1847SOL     OW 6106   0.672   2.065   5.213
 1847SOL    HW1 6107   0.762   2.049   5.173
 1847SOL    HW2 6108   0.680   2.070   5.312
 1848SOL     OW 6109   0.075   2.207   3.757
 1848SOL    HW1 6110  -0.017   2.179   3.728
 1848SOL    HW2 6111   0.106   2.284   3.701
 1849SOL     OW 6112   1.440   2.718   5.122
 1849SOL    HW1 6113   1.383   2.770   5.059
 1849SOL    HW2 6114   1.536   2.730   5.098
 1850SOL     OW 6115   0.072   2.028   4.042
 1850SOL    HW1 6116   0.055   2.111   3.988
 1850SOL    HW2 6117   0.162   1.991   4.020
 1851SOL     OW 6118   1.183   3.197   3.843
 1851SOL    HW1 6119   1.084   3.186   3.845
 1851SOL    HW2 6120   1.217   3.212   3.936
 1852SOL     OW 6121   0.613   2.704   5.155
 1852SOL    HW1 6122   0.669   2.785   5.138
 1852SOL    HW2 6123   0.672   2.624   5.158
 1853SOL     OW 6124   1.493   3.629   4.683
 1853SOL    HW1 6125   1.526   3.693   4.614
 1853SOL    HW2 6126   1.559   3.623   4.758
 1854SOL     OW 6127   0.716   2.427   5.432
 1854SOL    HW1 6128   0.735   2.492   5.506
 1854SOL    HW2 6129   0.776   2.347   5.441
 1855SOL     OW 6130   1.450   3.082   5.357
 1855SOL    HW1 6131   1.441   3.072   5.456
 1855SOL    HW2 6132   1.546   3.075   5.331
 1856SOL     OW 6133   0.390   3.603   5.284
 1856SOL    HW1 6134   0.299   3.644   5.282
 1856SOL    HW2 6135   0.383   3.509   5.316
 1857SOL     OW 6136   1.674   2.745   4.978
 1857SOL    HW1 6137   1.647   2.656   4.941
 1857SOL    HW2 6138   1.675   2.813   4.905
 1858SOL     OW 6139   1.225   2.187   4.173
 1858SOL    HW1 6140   1.290   2.113   4.162
 1858SOL    HW2 6141   1.245   2.237   4.257
 1859SOL     OW 6142   0.594   2.607   4.376
 1859SOL    HW1 6143   0.644   2.692   4.357
 1859SOL    HW2 6144   0.506   2.609   4.328
 1860SOL     OW 6145   1.730   2.796   5.241
 1860SOL    HW1 6146   1.768   2.887   5.256
 1860SOL    HW2 6147   1.722   2.779   5.142
 1861SOL     OW 6148   0.859   3.236   3.740
 1861SOL    HW1 6149   0.813   3.251   3.828
 1861SOL    HW2 6150   0.903   3.321   3.710
 1862SOL     OW 6151   0.661   3.652   4.677
 1862SOL    HW1 6152   0.615   3.740   4.664
 1862SOL    HW2 6153   0.760   3.664   4.670
 1863SOL     OW 6154   0.859   2.818   4.585
 1863SOL    HW1 6155   0.913   2.749   4.633
 1863SOL    HW2 6156   0.827   2.887   4.651
 1864SOL     OW 6157   1.083   2.846   3.811
 1864SOL    HW1 6158   1.060   2.899   3.729
 1864SOL    HW2 6159   1.164   2.790   3.792
 1865SOL     OW 6160   1.861   3.431   4.575
 1865SOL    HW1 6161   1.790   3.419   4.505
 1865SOL    HW2 6162   1.862   3.352   4.635
 1866SOL     OW 6163   0.221   3.176   5.568
 1866SOL    HW1 6164   0.156   3.103   5.547
 1866SOL    HW2 6165   0.225   3.190   5.666
 1867SOL     OW 6166   0.079   3.102   4.377
 1867SOL    HW1 6167   0.078   3.055   4.465
 1867SOL    HW2 6168   0.161   3.074   4.326
 1868SOL     OW 6169   0.672   3.253   5.348
 1868SOL    HW1 6170   0.594   3.203   5.386
 1868SOL    HW2 6171   0.669   3.348   5.379
 1869SOL     OW 6172   0.428   2.286   4.244
 1869SOL    HW1 6173   0.458   2.214   4.182
 1869SOL    HW2 6174   0.389   2.246   4.327
 1870SOL     OW 6175   1.705   3.349   4.828
 1870SOL    HW1 6176   1.612   3.324   4.801
 1870SOL    HW2 6177   1.731   3.299   4.910
 1871SOL     OW 6178   0.317   2.409   5.004
 1871SOL    HW1 6179   0.355   2.350   5.076
 1871SOL    HW2 6180   0.357   2.383   4.916
 1872SOL     OW 6181   0.812   3.448   4.411
 1872SOL    HW1 6182   0.844   3.458   4.317
 1872SOL    HW2 6183   0.733   3.386   4.413
 1873SOL     OW 6184   1.424   2.076   4.836
 1873SOL    HW1 6185   1.476   2.011   4.891
 1873SOL    HW2 6186   1.375   2.139   4.897
 1874SOL     OW 6187   1.001   1.896   4.878
 1874SOL    HW1 6188   0.938   1.824   4.847
 1874SOL    HW2 6189   1.094   1.860   4.878
 1875SOL     OW 6190   0.770   3.192   4.025
 1875SOL    HW1 6191   0.724   3.105   4.042
 1875SOL    HW2 6192   0.861   3.189   4.066
 1876SOL     OW 6193   0.618   3.429   5.008
 1876SOL    HW1 6194   0.613   3.511   5.065
 1876SOL    HW2 6195   0.707   3.426   4.963
 1877SOL     OW 6196   1.352   1.914   3.892
 1877SOL    HW1 6197   1.387   1.873   3.808
 1877SOL    HW2 6198   1.262   1.876   3.912
 1878SOL     OW 6199   1.300   2.315   4.415
 1878SOL    HW1 6200   1.241   2.395   4.419
 1878SOL    HW2 6201   1.315   2.280   4.508
 1879SOL     OW 6202   0.039   2.939   4.024
 1879SOL    HW1 6203   0.138   2.928   4.015
 1879SOL    HW2 6204  -0.001   2.853   4.056
 1880SOL     OW 6205   0.875   3.508   4.061
 1880SOL    HW1 6206   0.798   3.473   4.007
 1880SOL    HW2 6207   0.843   3.579   4.123
 1881SOL     OW 6208   0.230   2.490   5.699
 1881SOL    HW1 6209   0.137   2.488   5.736
 1881SOL    HW2 6210   0.231   2.451   5.607
 1882SOL     OW 6211   0.225   2.137   6.582
 1882SOL    HW1 6212   0.260   2.120   6.674
 1882SOL    HW2 6213   0.137   2.092   6.570
 1883SOL     OW 6214   0.019   2.230   6.233
 1883SOL    HW1 6215  -0.063   2.273   6.272
 1883SOL    HW2 6216  -0.009   2.157   6.170
 1884SOL     OW 6217   0.569   3.137   6.751
 1884SOL    HW1 6218   0.476   3.130   6.714
 1884SOL    HW2 6219   0.580   3.226   6.795
 1885SOL     OW 6220   1.555   3.373   6.289
 1885SOL    HW1 6221   1.498   3.357   6.370
 1885SOL    HW2 6222   1.496   3.383   6.209
 1886SOL     OW 6223   1.135   2.565   6.303
 1886SOL    HW1 6224   1.192   2.643   6.278
 1886SOL    HW2 6225   1.075   2.591   6.379
 1887SOL     OW 6226   0.768   3.006   6.609
 1887SOL    HW1 6227   0.690   3.023   6.669
 1887SOL    HW2 6228   0.802   3.093   6.573
 1888SOL     OW 6229   0.850   2.660   7.409
 1888SOL    HW1 6230   0.846   2.736   7.474
 1888SOL    HW2 6231   0.872   2.696   7.318
 1889SOL     OW 6232   0.685   2.874   6.251
 1889SOL    HW1 6233   0.754   2.858   6.321
 1889SOL    HW2 6234   0.612   2.931   6.289
 1890SOL     OW 6235   0.686   3.023   7.389
 1890SOL    HW1 6236   0.746   3.102   7.403
 1890SOL    HW2 6237   0.600   3.054   7.348
 1891SOL     OW 6238   0.335   3.297   6.647
 1891SOL    HW1 6239   0.257   3.266   6.594
 1891SOL    HW2 6240   0.393   3.355   6.590
 1892SOL     OW 6241   1.460   3.367   6.925
 1892SOL    HW1 6242   1.484   3.461   6.951
 1892SOL    HW2 6243   1.444   3.313   7.007
 1893SOL     OW 6244   0.438   2.254   7.085
 1893SOL    HW1 6245   0.520   2.198   7.094
 1893SOL    HW2 6246   0.357   2.196   7.089
 1894SOL     OW 6247   1.603   2.309   6.323
 1894SOL    HW1 6248   1.529   2.355   6.273
 1894SOL    HW2 6249   1.654   2.377   6.376
 1895SOL     OW 6250   0.231   3.575   6.069
 1895SOL    HW1 6251   0.265   3.652   6.123
 1895SOL    HW2 6252   0.275   3.575   5.979
 1896SOL     OW 6253   1.127   3.203   7.276
 1896SOL    HW1 6254   1.174   3.203   7.364
 1896SOL    HW2 6255   1.079   3.116   7.265
 1897SOL     OW 6256   0.230   3.296   6.124
 1897SOL    HW1 6257   0.204   3.392   6.124
 1897SOL    HW2 6258   0.159   3.242   6.169
 1898SOL     OW 6259   0.240   2.953   6.472
 1898SOL    HW1 6260   0.254   2.869   6.524
 1898SOL    HW2 6261   0.185   3.017   6.527
 1899SOL     OW 6262   0.620   3.648   7.025
 1899SOL    HW1 6263   0.528   3.631   7.060
 1899SOL    HW2 6264   0.648   3.740   7.051
 1900SOL     OW 6265   0.606   2.826   5.709
 1900SOL    HW1 6266   0.613   2.910   5.655
 1900SOL    HW2 6267   0.652   2.839   5.797
 1901SOL     OW 6268   1.594   1.976   7.066
 1901SOL    HW1 6269   1.576   2.043   6.994
 1901SOL    HW2 6270   1.591   2.022   7.155
 1902SOL     OW 6271   0.122   2.505   6.149
 1902SOL    HW1 6272   0.077   2.417   6.166
 1902SOL    HW2 6273   0.121   2.559   6.233
 1903SOL     OW 6274   1.842   3.629   5.945
 1903SOL    HW1 6275   1.896   3.600   6.025
 1903SOL    HW2 6276   1.872   3.719   5.916
 1904SOL     OW 6277   0.027   3.458   5.703
 1904SOL    HW1 6278   0.008   3.362   5.724
 1904SOL    HW2 6279  -0.006   3.516   5.778
 1905SOL     OW 6280   1.689   2.784   6.198
 1905SOL    HW1 6281   1.784   2.755   6.206
 1905SOL    HW2 6282   1.681   2.849   6.123
 1906SOL     OW 6283   1.641   2.970   6.018
 1906SOL    HW1 6284   1.727   2.972   5.966
 1906SOL    HW2 6285   1.655   3.017   6.106
 1907SOL     OW 6286   0.113   2.599   7.183
 1907SOL    HW1 6287   0.201   2.586   7.228
 1907SOL    HW2 6288   0.100   2.696   7.161
 1908SOL     OW 6289   0.613   3.227   6.312
 1908SOL    HW1 6290   0.564   3.140   6.321
 1908SOL    HW2 6291   0.590   3.270   6.225
 1909SOL     OW 6292   1.293   3.090   7.009
 1909SOL    HW1 6293   1.330   3.017   6.951
 1909SOL    HW2 6294   1.345   3.095   7.094
 1910SOL     OW 6295   0.809   1.866   6.088
 1910SOL    HW1 6296   0.849   1.957   6.079
 1910SOL    HW2 6297   0.709   1.874   6.094
 1911SOL     OW 6298   0.197   2.838   6.850
 1911SOL    HW1 6299   0.286   2.793   6.836
 1911SOL    HW2 6300   0.124   2.773   6.831
 1912SOL     OW 6301   1.525   2.861   5.776
 1912SOL    HW1 6302   1.462   2.785   5.789
 1912SOL    HW2 6303   1.573   2.879   5.862
 1913SOL     OW 6304   1.187   3.654   7.202
 1913SOL    HW1 6305   1.211   3.714   7.126
 1913SOL    HW2 6306   1.194   3.559   7.172
 1914SOL     OW 6307   0.317   2.113   7.387
 1914SOL    HW1 6308   0.388   2.184   7.393
 1914SOL    HW2 6309   0.229   2.152   7.415
 1915SOL     OW 6310   1.466   3.279   6.539
 1915SOL    HW1 6311   1.407   3.285   6.619
 1915SOL    HW2 6312   1.451   3.191   6.493
 1916SOL     OW 6313   1.667   3.576   6.158
 1916SOL    HW1 6314   1.626   3.553   6.070
 1916SOL    HW2 6315   1.649   3.502   6.223
 1917SOL     OW 6316   0.598   2.591   5.856
 1917SOL    HW1 6317   0.622   2.660   5.788
 1917SOL    HW2 6318   0.520   2.624   5.910
 1918SOL     OW 6319   1.281   2.207   6.530
 1918SOL    HW1 6320   1.195   2.157   6.517
 1918SOL    HW2 6321   1.343   2.153   6.586
 1919SOL     OW 6322   1.576   3.524   5.893
 1919SOL    HW1 6323   1.665   3.570   5.896
 1919SOL    HW2 6324   1.555   3.500   5.798
 1920SOL     OW 6325   0.807   2.467   7.051
 1920SOL    HW1 6326   0.760   2.464   7.140
 1920SOL    HW2 6327   0.756   2.412   6.985
 1921SOL     OW 6328   1.394   2.331   7.260
 1921SOL    HW1 6329   1.374   2.374   7.348
 1921SOL    HW2 6330   1.472   2.269   7.269
 1922SOL     OW 6331   0.973   2.752   7.158
 1922SOL    HW1 6332   1.019   2.668   7.129
 1922SOL    HW2 6333   0.917   2.786   7.083
 1923SOL     OW 6334   0.991   2.272   6.828
 1923SOL    HW1 6335   0.914   2.306   6.882
 1923SOL    HW2 6336   0.957   2.221   6.749
 1924SOL     OW 6337   1.041   2.563   6.015
 1924SOL    HW1 6338   1.067   2.559   6.111
 1924SOL    HW2 6339   0.956   2.512   6.001
 1925SOL     OW 6340   0.076   2.673   6.375
 1925SOL    HW1 6341   0.175   2.661   6.384
 1925SOL    HW2 6342   0.052   2.768   6.396
 1926SOL     OW 6343   0.130   3.683   7.157
 1926SOL    HW1 6344   0.120   3.668   7.256
 1926SOL    HW2 6345   0.044   3.719   7.121
 1927SOL     OW 6346   0.865   2.210   5.781
 1927SOL    HW1 6347   0.924   2.273   5.732
 1927SOL    HW2 6348   0.884   2.116   5.752
 1928SOL     OW 6349   1.719   2.447   7.417
 1928SOL    HW1 6350   1.693   2.536   7.381
 1928SOL    HW2 6351   1.717   2.379   7.344
 1929SOL     OW 6352   1.362   3.006   6.131
 1929SOL    HW1 6353   1.445   2.977   6.083
 1929SOL    HW2 6354   1.313   3.073   6.075
 1930SOL     OW 6355   0.550   2.058   6.471
 1930SOL    HW1 6356   0.545   2.053   6.571
 1930SOL    HW2 6357   0.552   2.154   6.442
 1931SOL     OW 6358   1.008   3.318   6.063
 1931SOL    HW1 6359   0.962   3.390   6.011
 1931SOL    HW2 6360   1.004   3.338   6.161
 1932SOL     OW 6361   0.351   3.663   6.439
 1932SOL    HW1 6362   0.401   3.577   6.445
 1932SOL    HW2 6363   0.416   3.740   6.436
 1933SOL     OW 6364   1.795   2.928   6.459
 1933SOL    HW1 6365   1.733   2.913   6.383
 1933SOL    HW2 6366   1.743   2.939   6.544
 1934SOL     OW 6367   1.227   3.412   7.092
 1934SOL    HW1 6368   1.233   3.335   7.156
 1934SOL    HW2 6369   1.175   3.386   7.012
 1935SOL     OW 6370   0.321   2.805   5.828
 1935SOL    HW1 6371   0.403   2.844   5.786
 1935SOL    HW2 6372   0.294   2.723   5.779
 1936SOL     OW 6373   1.458   2.597   6.314
 1936SOL    HW1 6374   1.453   2.532   6.389
 1936SOL    HW2 6375   1.538   2.656   6.327
 1937SOL     OW 6376   0.461   3.128   7.313
 1937SOL    HW1 6377   0.411   3.129   7.227
 1937SOL    HW2 6378   0.398   3.110   7.389
 1938SOL     OW 6379   1.111   3.638   5.823
 1938SOL    HW1 6380   1.051   3.576   5.873
 1938SOL    HW2 6381   1.142   3.594   5.738
 1939SOL     OW 6382   0.202   2.147   7.084
 1939SOL    HW1 6383   0.122   2.207   7.071
 1939SOL    HW2 6384   0.192   2.098   7.170
 1940SOL     OW 6385   1.632   3.239   5.667
 1940SOL    HW1 6386   1.600   3.333   5.657
 1940SOL    HW2 6387   1.556   3.176   5.655
 1941SOL     OW 6388   0.464   3.605   5.909
 1941SOL    HW1 6389   0.497   3.644   5.995
 1941SOL    HW2 6390   0.540   3.598   5.844
 1942SOL     OW 6391   1.400   1.969   6.012
 1942SOL    HW1 6392   1.376   1.932   5.922
 1942SOL    HW2 6393   1.499   1.985   6.016
 1943SOL     OW 6394   0.249   3.647   6.827
 1943SOL    HW1 6395   0.306   3.582   6.877
 1943SOL    HW2 6396   0.233   3.614   6.734
 1944SOL     OW 6397   0.940   3.560   6.490
 1944SOL    HW1 6398   1.020   3.503   6.511
 1944SOL    HW2 6399   0.891   3.520   6.413
 1945SOL     OW 6400   0.382   2.562   6.066
 1945SOL    HW1 6401   0.427   2.472   6.063
 1945SOL    HW2 6402   0.288   2.551   6.099
 1946SOL     OW 6403   1.547   2.084   7.315
 1946SOL    HW1 6404   1.542   2.121   7.407
 1946SOL    HW2 6405   1.475   2.015   7.303
 1947SOL     OW 6406   0.614   1.984   5.703
 1947SOL    HW1 6407   0.712   1.962   5.710
 1947SOL    HW2 6408   0.583   1.967   5.610
 1948SOL     OW 6409   0.781   2.126   7.335
 1948SOL    HW1 6410   0.848   2.065   7.378
 1948SOL    HW2 6411   0.708   2.145   7.400
 1949SOL     OW 6412   0.888   3.376   6.781
 1949SOL    HW1 6413   0.865   3.351   6.687
 1949SOL    HW2 6414   0.949   3.307   6.820
 1950SOL     OW 6415   1.351   2.452   7.019
 1950SOL    HW1 6416   1.379   2.409   7.104
 1950SOL    HW2 6417   1.376   2.548   7.020
 1951SOL     OW 6418   0.803   3.264   6.510
 1951SOL    HW1 6419   0.893   3.278   6.468
 1951SOL    HW2 6420   0.732   3.266   6.439
 1952SOL     OW 6421   0.922   2.365   6.485
 1952SOL    HW1 6422   0.897   2.356   6.389
 1952SOL    HW2 6423   0.970   2.283   6.516
 1953SOL     OW 6424   0.539   1.926   6.098
 1953SOL    HW1 6425   0.458   1.927   6.156
 1953SOL    HW2 6426   0.542   2.009   6.043
 1954SOL     OW 6427   1.434   3.050   5.627
 1954SOL    HW1 6428   1.466   2.974   5.684
 1954SOL    HW2 6429   1.342   3.077   5.657
 1955SOL     OW 6430   0.297   1.897   5.757
 1955SOL    HW1 6431   0.346   1.981   5.736
 1955SOL    HW2 6432   0.359   1.832   5.802
 1956SOL     OW 6433   0.935   2.098   6.066
 1956SOL    HW1 6434   0.887   2.139   5.988
 1956SOL    HW2 6435   1.034   2.096   6.047
 1957SOL     OW 6436   1.076   2.545   7.050
 1957SOL    HW1 6437   0.996   2.484   7.053
 1957SOL    HW2 6438   1.157   2.492   7.026
 1958SOL     OW 6439   1.227   3.432   6.379
 1958SOL    HW1 6440   1.248   3.506   6.314
 1958SOL    HW2 6441   1.295   3.432   6.452
 1959SOL     OW 6442   0.459   3.014   6.327
 1959SOL    HW1 6443   0.388   2.987   6.392
 1959SOL    HW2 6444   0.433   2.986   6.234
 1960SOL     OW 6445   1.271   3.659   6.177
 1960SOL    HW1 6446   1.315   3.723   6.113
 1960SOL    HW2 6447   1.221   3.711   6.247
 1961SOL     OW 6448   1.032   2.411   5.602
 1961SOL    HW1 6449   0.991   2.493   5.563
 1961SOL    HW2 6450   1.096   2.437   5.675
 1962SOL     OW 6451   0.078   2.418   6.972
 1962SOL    HW1 6452   0.170   2.417   6.931
 1962SOL    HW2 6453   0.072   2.492   7.039
 1963SOL     OW 6454   0.561   2.084   6.733
 1963SOL    HW1 6455   0.599   2.000   6.770
 1963SOL    HW2 6456   0.473   2.103   6.777
 1964SOL     OW 6457   0.866   2.316   6.228
 1964SOL    HW1 6458   0.834   2.388   6.166
 1964SOL    HW2 6459   0.890   2.235   6.175
 1965SOL     OW 6460   1.017   1.901   6.339
 1965SOL    HW1 6461   0.945   1.906   6.270
 1965SOL    HW2 6462   0.993   1.832   6.408
 1966SOL     OW 6463   1.429   3.035   6.453
 1966SOL    HW1 6464   1.374   2.951   6.446
 1966SOL    HW2 6465   1.455   3.064   6.361
 1967SOL     OW 6466   1.466   2.452   6.578
 1967SOL    HW1 6467   1.436   2.357   6.585
 1967SOL    HW2 6468   1.539   2.468   6.644
 1968SOL     OW 6469   0.488   3.247   5.760
 1968SOL    HW1 6470   0.401   3.232   5.807
 1968SOL    HW2 6471   0.471   3.273   5.665
 1969SOL     OW 6472   1.664   3.142   6.243
 1969SOL    HW1 6473   1.763   3.150   6.257
 1969SOL    HW2 6474   1.619   3.226   6.274
 1970SOL     OW 6475   0.527   2.118   5.914
 1970SOL    HW1 6476   0.554   2.059   5.839
 1970SOL    HW2 6477   0.527   2.213   5.883
 1971SOL     OW 6478   1.754   3.085   7.174
 1971SOL    HW1 6479   1.845   3.046   7.161
 1971SOL    HW2 6480   1.762   3.181   7.198
 1972SOL     OW 6481   1.064   3.209   6.926
 1972SOL    HW1 6482   0.984   3.186   6.981
 1972SOL    HW2 6483   1.147   3.183   6.975
 1973SOL     OW 6484   1.592   3.491   7.211
 1973SOL    HW1 6485   1.619   3.525   7.121
 1973SOL    HW2 6486   1.671   3.453   7.257
 1974SOL     OW 6487   1.111   3.057   6.686
 1974SOL    HW1 6488   1.071   3.101   6.767
 1974SOL    HW2 6489   1.070   3.094   6.603
 1975SOL     OW 6490   1.638   2.961   6.665
 1975SOL    HW1 6491   1.643   3.042   6.724
 1975SOL    HW2 6492   1.552   2.963   6.614
 1976SOL     OW 6493   0.915   1.951   6.988
 1976SOL    HW1 6494   0.940   1.931   6.893
 1976SOL    HW2 6495   0.987   2.007   7.030
 1977SOL     OW 6496   0.980   2.978   7.305
 1977SOL    HW1 6497   0.881   2.984   7.315
 1977SOL    HW2 6498   1.003   2.898   7.249
 1978SOL     OW 6499   0.705   2.912   5.954
 1978SOL    HW1 6500   0.691   2.919   6.053
 1978SOL    HW2 6501   0.789   2.861   5.936
 1979SOL     OW 6502   0.410   2.675   6.837
 1979SOL    HW1 6503   0.496   2.687   6.887
 1979SOL    HW2 6504   0.368   2.588   6.864
 1980SOL     OW 6505   1.274   2.248   6.848
 1980SOL    HW1 6506   1.295   2.322   6.912
 1980SOL    HW2 6507   1.185   2.265   6.805
 1981SOL     OW 6508   0.064   3.426   6.917
 1981SOL    HW1 6509   0.018   3.508   6.883
 1981SOL    HW2 6510   0.162   3.445   6.926
 1982SOL     OW 6511   0.367   2.962   6.087
 1982SOL    HW1 6512   0.360   3.045   6.031
 1982SOL    HW2 6513   0.371   2.882   6.027
 1983SOL     OW 6514   0.566   2.399   6.451
 1983SOL    HW1 6515   0.578   2.465   6.377
 1983SOL    HW2 6516   0.612   2.433   6.534
 1984SOL     OW 6517   1.252   3.210   5.974
 1984SOL    HW1 6518   1.302   3.287   6.014
 1984SOL    HW2 6519   1.157   3.212   6.006
 1985SOL     OW 6520   1.272   3.307   6.728
 1985SOL    HW1 6521   1.319   3.320   6.815
 1985SOL    HW2 6522   1.206   3.233   6.737
 1986SOL     OW 6523   0.354   3.372   6.915
 1986SOL    HW1 6524   0.333   3.328   6.828
 1986SOL    HW2 6525   0.451   3.398   6.918
 1987SOL     OW 6526   0.402   2.613   7.184
 1987SOL    HW1 6527   0.470   2.668   7.137
 1987SOL    HW2 6528   0.442   2.525   7.211
 1988SOL     OW 6529   1.587   2.641   7.256
 1988SOL    HW1 6530   1.495   2.679   7.251
 1988SOL    HW2 6531   1.647   2.688   7.191
 1989SOL     OW 6532   1.013   1.967   7.356
 1989SOL    HW1 6533   1.019   2.052   7.304
 1989SOL    HW2 6534   1.045   1.891   7.299
 1990SOL     OW 6535   0.504   1.912   7.326
 1990SOL    HW1 6536   0.462   1.855   7.256
 1990SOL    HW2 6537   0.438   1.981   7.358
 1991SOL     OW 6538   0.573   2.732   6.615
 1991SOL    HW1 6539   0.617   2.821   6.606
 1991SOL    HW2 6540   0.510   2.732   6.692
 1992SOL     OW 6541   1.360   2.724   6.631
 1992SOL    HW1 6542   1.285   2.724   6.565
 1992SOL    HW2 6543   1.397   2.632   6.640
 1993SOL     OW 6544   1.209   2.387   5.861
 1993SOL    HW1 6545   1.222   2.303   5.915
 1993SOL    HW2 6546   1.180   2.461   5.921
 1994SOL     OW 6547   0.307   2.075   6.817
 1994SOL    HW1 6548   0.284   2.112   6.907
 1994SOL    HW2 6549   0.277   1.980   6.811
 1995SOL     OW 6550   0.037   3.172   6.868
 1995SOL    HW1 6551   0.090   3.123   6.936
 1995SOL    HW2 6552   0.059   3.270   6.873
 1996SOL     OW 6553   0.732   2.496   6.650
 1996SOL    HW1 6554   0.791   2.470   6.574
 1996SOL    HW2 6555   0.704   2.592   6.639
 1997SOL     OW 6556   1.728   2.797   7.440
 1997SOL    HW1 6557   1.682   2.790   7.351
 1997SOL    HW2 6558   1.666   2.841   7.506
 1998SOL     OW 6559   0.307   1.925   6.204
 1998SOL    HW1 6560   0.296   2.019   6.237
 1998SOL    HW2 6561   0.302   1.862   6.281
 1999SOL     OW 6562   1.023   2.628   6.552
 1999SOL    HW1 6563   1.038   2.649   6.648
 1999SOL    HW2 6564   0.993   2.533   6.543
 2000SOL     OW 6565   0.980   3.435   7.286
 2000SOL    HW1 6566   0.960   3.479   7.198
 2000SOL    HW2 6567   1.019   3.344   7.270
 2001SOL     OW 6568   1.859   3.380   7.191
 2001SOL    HW1 6569   1.873   3.407   7.096
 2001SOL    HW2 6570   1.942   3.402   7.244
 2002SOL     OW 6571   0.350   2.760   7.390
 2002SOL    HW1 6572   0.426   2.804   7.438
 2002SOL    HW2 6573   0.385   2.713   7.308
 2003SOL     OW 6574   1.303   2.700   5.628
 2003SOL    HW1 6575   1.337   2.607   5.643
 2003SOL    HW2 6576   1.321   2.727   5.533
 2004SOL     OW 6577   1.068   3.195   6.435
 2004SOL    HW1 6578   1.075   3.111   6.380
 2004SOL    HW2 6579   1.130   3.264   6.399
 2005SOL     OW 6580   0.319   2.672   6.535
 2005SOL    HW1 6581   0.412   2.708   6.540
 2005SOL    HW2 6582   0.313   2.587   6.587
 2006SOL     OW 6583   0.339   2.371   6.592
 2006SOL    HW1 6584   0.287   2.288   6.575
 2006SOL    HW2 6585   0.416   2.376   6.528
 2007SOL     OW 6586   1.138   2.242   7.264
 2007SOL    HW1 6587   1.093   2.305   7.328
 2007SOL    HW2 6588   1.231   2.273   7.247
 2008SOL     OW 6589   1.160   2.069   7.063
 2008SOL    HW1 6590   1.160   2.133   7.140
 2008SOL    HW2 6591   1.188   2.117   6.980
 2009SOL     OW 6592   0.008   3.188   5.786
 2009SOL    HW1 6593  -0.085   3.209   5.755
 2009SOL    HW2 6594   0.018   3.089   5.799
 2010SOL     OW 6595   0.088   3.663   6.513
 2010SOL    HW1 6596   0.046   3.577   6.486
 2010SOL    HW2 6597   0.182   3.666   6.479
 2011SOL     OW 6598   0.504   3.430   6.496
 2011SOL    HW1 6599   0.570   3.504   6.505
 2011SOL    HW2 6600   0.548   3.351   6.454
 2012SOL     OW 6601   1.002   2.658   6.824
 2012SOL    HW1 6602   1.043   2.626   6.910
 2012SOL    HW2 6603   0.906   2.631   6.821
 2013SOL     OW 6604   0.040   2.406   6.700
 2013SOL    HW1 6605   0.125   2.373   6.659
 2013SOL    HW2 6606   0.053   2.421   6.798
 2014SOL     OW 6607   0.189   2.382   7.308
 2014SOL    HW1 6608   0.248   2.342   7.238
 2014SOL    HW2 6609   0.131   2.453   7.267
 2015SOL     OW 6610   1.369   2.812   7.246
 2015SOL    HW1 6611   1.408   2.901   7.266
 2015SOL    HW2 6612   1.379   2.792   7.149
 2016SOL     OW 6613   0.815   2.434   5.911
 2016SOL    HW1 6614   0.822   2.345   5.865
 2016SOL    HW2 6615   0.721   2.468   5.903
 2017SOL     OW 6616   1.657   2.466   6.792
 2017SOL    HW1 6617   1.619   2.397   6.854
 2017SOL    HW2 6618   1.739   2.430   6.748
 2018SOL     OW 6619   0.252   3.426   7.330
 2018SOL    HW1 6620   0.222   3.483   7.406
 2018SOL    HW2 6621   0.245   3.329   7.356
 2019SOL     OW 6622   0.671   2.326   6.855
 2019SOL    HW1 6623   0.637   2.237   6.825
 2019SOL    HW2 6624   0.697   2.380   6.775
 2020SOL     OW 6625   0.930   3.540   7.051
 2020SOL    HW1 6626   0.906   3.522   6.956
 2020SOL    HW2 6627   0.960   3.634   7.061
 2021SOL     OW 6628   0.473   2.362   5.777
 2021SOL    HW1 6629   0.534   2.442   5.781
 2021SOL    HW2 6630   0.378   2.393   5.784
 2022SOL     OW 6631   0.159   2.999   7.052
 2022SOL    HW1 6632   0.181   2.938   7.128
 2022SOL    HW2 6633   0.169   2.950   6.966
 2023SOL     OW 6634   1.347   2.921   6.820
 2023SOL    HW1 6635   1.371   2.858   6.746
 2023SOL    HW2 6636   1.257   2.961   6.802
 2024SOL     OW 6637   1.302   2.717   5.895
 2024SOL    HW1 6638   1.216   2.686   5.937
 2024SOL    HW2 6639   1.298   2.703   5.796
 2025SOL     OW 6640   1.759   3.609   6.740
 2025SOL    HW1 6641   1.820   3.639   6.667
 2025SOL    HW2 6642   1.721   3.520   6.718
 2026SOL     OW 6643   1.252   3.593   6.714
 2026SOL    HW1 6644   1.336   3.598   6.660
 2026SOL    HW2 6645   1.229   3.497   6.732
 2027SOL     OW 6646   0.083   3.120   6.608
 2027SOL    HW1 6647   0.078   3.119   6.708
 2027SOL    HW2 6648   0.000   3.079   6.570
 2028SOL     OW 6649   0.688   3.524   7.302
 2028SOL    HW1 6650   0.632   3.605   7.311
 2028SOL    HW2 6651   0.740   3.528   7.216
 2029SOL     OW 6652   1.388   3.435   6.063
 2029SOL    HW1 6653   1.455   3.447   5.989
 2029SOL    HW2 6654   1.348   3.524   6.086
 2030SOL     OW 6655   0.130   3.656   7.437
 2030SOL    HW1 6656   0.089   3.582   7.490
 2030SOL    HW2 6657   0.194   3.707   7.495
 2031SOL     OW 6658   1.280   2.789   6.258
 2031SOL    HW1 6659   1.340   2.708   6.260
 2031SOL    HW2 6660   1.320   2.858   6.198
 2032SOL     OW 6661   0.830   3.135   7.008
 2032SOL    HW1 6662   0.825   3.168   7.103
 2032SOL    HW2 6663   0.744   3.154   6.962
 2033SOL     OW 6664   0.672   3.478   5.740
 2033SOL    HW1 6665   0.681   3.488   5.641
 2033SOL    HW2 6666   0.632   3.389   5.761
 2034SOL     OW 6667   1.650   3.582   6.980
 2034SOL    HW1 6668   1.703   3.592   6.896
 2034SOL    HW2 6669   1.623   3.672   7.014
 2035SOL     OW 6670   0.263   2.188   6.306
 2035SOL    HW1 6671   0.184   2.239   6.272
 2035SOL    HW2 6672   0.254   2.173   6.404
 2036SOL     OW 6673   1.194   3.474   5.617
 2036SOL    HW1 6674   1.200   3.381   5.654
 2036SOL    HW2 6675   1.135   3.474   5.537
 2037SOL     OW 6676   0.822   2.864   6.958
 2037SOL    HW1 6677   0.862   2.863   6.866
 2037SOL    HW2 6678   0.832   2.956   6.998
 2038SOL     OW 6679   0.916   2.772   5.877
 2038SOL    HW1 6680   0.979   2.810   5.809
 2038SOL    HW2 6681   0.956   2.689   5.916
 2039SOL     OW 6682   1.504   3.469   5.630
 2039SOL    HW1 6683   1.412   3.506   5.637
 2039SOL    HW2 6684   1.542   3.489   5.540
 2040SOL     OW 6685   0.372   3.150   7.076
 2040SOL    HW1 6686   0.359   3.243   7.042
 2040SOL    HW2 6687   0.288   3.098   7.063
 2041SOL     OW 6688   1.614   3.154   6.875
 2041SOL    HW1 6689   1.674   3.157   6.955
 2041SOL    HW2 6690   1.539   3.218   6.888
 2042SOL     OW 6691   1.039   2.960   6.282
 2042SOL    HW1 6692   0.969   2.913   6.336
 2042SOL    HW2 6693   1.098   2.892   6.239
 2043SOL     OW 6694   1.014   2.098   6.557
 2043SOL    HW1 6695   1.006   2.062   6.464
 2043SOL    HW2 6696   1.012   2.022   6.622
 2044SOL     OW 6697   0.590   3.349   6.077
 2044SOL    HW1 6698   0.632   3.291   6.007
 2044SOL    HW2 6699   0.546   3.428   6.033
 2045SOL     OW 6700   1.709   2.247   6.967
 2045SOL    HW1 6701   1.782   2.316   6.971
 2045SOL    HW2 6702   1.737   2.172   6.908
 2046SOL     OW 6703   0.255   3.210   5.876
 2046SOL    HW1 6704   0.159   3.211   5.849
 2046SOL    HW2 6705   0.267   3.263   5.960
 2047SOL     OW 6706   0.105   2.875   7.312
 2047SOL    HW1 6707   0.028   2.842   7.366
 2047SOL    HW2 6708   0.190   2.845   7.354
 2048SOL     OW 6709   0.672   2.065   7.075
 2048SOL    HW1 6710   0.762   2.049   7.035
 2048SOL    HW2 6711   0.680   2.070   7.174
 2049SOL     OW 6712   0.075   2.207   5.619
 2049SOL    HW1 6713  -0.017   2.179   5.590
 2049SOL    HW2 6714   0.106   2.284   5.563
 2050SOL     OW 6715   1.440   2.718   6.984
 2050SOL    HW1 6716   1.383   2.770   6.921
 2050SOL    HW2 6717   1.536   2.730   6.960
 2051SOL     OW 6718   0.072   2.028   5.904
 2051SOL    HW1 6719   0.055   2.111   5.850
 2051SOL    HW2 6720   0.162   1.991   5.882
 2052SOL     OW 6721   1.183   3.197   5.705
 2052SOL    HW1 6722   1.084   3.186   5.707
 2052SOL    HW2 6723   1.217   3.212   5.798
 2053SOL     OW 6724   0.613   2.704   7.017
 2053SOL    HW1 6725   0.669   2.785   7.000
 2053SOL    HW2 6726   0.672   2.624   7.020
 2054SOL     OW 6727   1.493   3.629   6.545
 2054SOL    HW1 6728   1.526   3.693   6.476
 2054SOL    HW2 6729   1.559   3.623   6.620
 2055SOL     OW 6730   0.716   2.427   7.294
 2055SOL    HW1 6731   0.735   2.492   7.368
 2055SOL    HW2 6732   0.776   2.347   7.303
 2056SOL     OW 6733   1.450   3.082   7.219
 2056SOL    HW1 6734   1.441   3.072   7.318
 2056SOL    HW2 6735   1.546   3.075   7.193
 2057SOL     OW 6736   0.390   3.603   7.146
 2057SOL    HW1 6737   0.299   3.644   7.144
 2057SOL    HW2 6738   0.383   3.509   7.178
 2058SOL     OW 6739   1.674   2.745   6.840
 2058SOL    HW1 6740   1.647   2.656   6.803
 2058SOL    HW2 6741   1.675   2.813   6.767
 2059SOL     OW 6742   1.225   2.187   6.035
 2059SOL    HW1 6743   1.290   2.113   6.024
 2059SOL    HW2 6744   1.245   2.237   6.119
 2060SOL     OW 6745   0.594   2.607   6.238
 2060SOL    HW1 6746   0.644   2.692   6.219
 2060SOL    HW2 6747   0.506   2.609   6.190
 2061SOL     OW 6748   1.777   2.204   7.228
 2061SOL    HW1 6749   1.760   2.235   7.134
 2061SOL    HW2 6750   1.693   2.167   7.266
 2062SOL     OW 6751   1.730   2.796   7.103
 2062SOL    HW1 6752   1.768   2.887   7.118
 2062SOL    HW2 6753   1.722   2.779   7.004
 2063SOL     OW 6754   0.859   3.236   5.602
 2063SOL    HW1 6755   0.813   3.251   5.690
 2063SOL    HW2 6756   0.903   3.321   5.572
 2064SOL     OW 6757   0.661   3.652   6.539
 2064SOL    HW1 6758   0.615   3.740   6.526
 2064SOL    HW2 6759   0.760   3.664   6.532
 2065SOL     OW 6760   0.859   2.818   6.447
 2065SOL    HW1 6761   0.913   2.749   6.495
 2065SOL    HW2 6762   0.827   2.887   6.513
 2066SOL     OW 6763   1.083   2.846   5.673
 2066SOL    HW1 6764   1.060   2.899   5.591
 2066SOL    HW2 6765   1.164   2.790   5.654
 2067SOL     OW 6766   1.861   3.431   6.437
 2067SOL    HW1 6767   1.790   3.419   6.367
 2067SOL    HW2 6768   1.862   3.352   6.497
 2068SOL     OW 6769   0.221   3.176   7.430
 2068SOL    HW1 6770   0.156   3.103   7.409
 2068SOL    HW2 6771   0.225   3.190   7.528
 2069SOL     OW 6772   0.079   3.102   6.239
 2069SOL    HW1 6773   0.078   3.055   6.327
 2069SOL    HW2 6774   0.161   3.074   6.188
 2070SOL     OW 6775   0.672   3.253   7.210
 2070SOL    HW1 6776   0.594   3.203   7.248
 2070SOL    HW2 6777   0.669   3.348   7.241
 2071SOL     OW 6778   0.428   2.286   6.106
 2071SOL    HW1 6779   0.458   2.214   6.044
 2071SOL    HW2 6780   0.389   2.246   6.189
 2072SOL     OW 6781   1.705   3.349   6.690
 2072SOL    HW1 6782   1.612   3.324   6.663
 2072SOL    HW2 6783   1.731   3.299   6.772
 2073SOL     OW 6784   0.317   2.409   6.866
 2073SOL    HW1 6785   0.355   2.350   6.938
 2073SOL    HW2 6786   0.357   2.383   6.778
 2074SOL     OW 6787   0.812   3.448   6.273
 2074SOL    HW1 6788   0.844   3.458   6.179
 2074SOL    HW2 6789   0.733   3.386   6.275
 2075SOL     OW 6790   1.424   2.076   6.698
 2075SOL    HW1 6791   1.476   2.011   6.753
 2075SOL    HW2 6792   1.375   2.139   6.759
 2076SOL     OW 6793   1.001   1.896   6.740
 2076SOL    HW1 6794   0.938   1.824   6.709
 2076SOL    HW2 6795   1.094   1.860   6.740
 2077SOL     OW 6796   0.770   3.192   5.887
 2077SOL    HW1 6797   0.724   3.105   5.904
 2077SOL    HW2 6798   0.861   3.189   5.928
 2078SOL     OW 6799   0.618   3.429   6.870
 2078SOL    HW1 6800   0.613   3.511   6.927
 2078SOL    HW2 6801   0.707   3.426   6.825
 2079SOL     OW 6802   1.352   1.914   5.754
 2079SOL    HW1 6803   1.387   1.873   5.670
 2079SOL    HW2 6804   1.262   1.876   5.774
 2080SOL     OW 6805   1.300   2.315   6.277
 2080SOL    HW1 6806   1.241   2.395   6.281
 2080SOL    HW2 6807   1.315   2.280   6.370
 2081SOL     OW 6808   0.039   2.939   5.886
 2081SOL    HW1 6809   0.138   2.928   5.877
 2081SOL    HW2 6810  -0.001   2.853   5.918
 2082SOL     OW 6811   0.875   3.508   5.923
 2082SOL    HW1 6812   0.798   3.473   5.869
 2082SOL    HW2 6813   0.843   3.579   5.985
 2083SOL     OW 6814   0.230   2.490   7.561
 2083SOL    HW1 6815   0.137   2.488   7.598
 2083SOL    HW2 6816   0.231   2.451   7.469
 2084SOL     OW 6817   0.225   2.137   8.444
 2084SOL    HW1 6818   0.260   2.120   8.536
 2084SOL    HW2 6819   0.137   2.092   8.432
 2085SOL     OW 6820   0.019   2.230   8.095
 2085SOL    HW1 6821  -0.063   2.273   8.134
 2085SOL    HW2 6822  -0.009   2.157   8.032
 2086SOL     OW 6823   0.569   3.137   8.613
 2086SOL    HW1 6824   0.476   3.130   8.576
 2086SOL    HW2 6825   0.580   3.226   8.657
 2087SOL     OW 6826   1.555   3.373   8.151
 2087SOL    HW1 6827   1.498   3.357   8.232
 2087SOL    HW2 6828   1.496   3.383   8.071
 2088SOL     OW 6829   1.135   2.565   8.165
 2088SOL    HW1 6830   1.192   2.643   8.140
 2088SOL    HW2 6831   1.075   2.591   8.241
 2089SOL     OW 6832   1.755   2.469   7.679
 2089SOL    HW1 6833   1.743   2.456   7.580
 2089SOL    HW2 6834   1.725   2.388   7.728
 2090SOL     OW 6835   0.768   3.006   8.471
 2090SOL    HW1 6836   0.690   3.023   8.531
 2090SOL    HW2 6837   0.802   3.093   8.435
 2091SOL     OW 6838   0.850   2.660   9.271
 2091SOL    HW1 6839   0.846   2.736   9.336
 2091SOL    HW2 6840   0.872   2.696   9.180
 2092SOL     OW 6841   0.685   2.874   8.113
 2092SOL    HW1 6842   0.754   2.858   8.183
 2092SOL    HW2 6843   0.612   2.931   8.151
 2093SOL     OW 6844   0.686   3.023   9.251
 2093SOL    HW1 6845   0.746   3.102   9.265
 2093SOL    HW2 6846   0.600   3.054   9.210
 2094SOL     OW 6847   0.335   3.297   8.509
 2094SOL    HW1 6848   0.257   3.266   8.456
 2094SOL    HW2 6849   0.393   3.355   8.452
 2095SOL     OW 6850   1.460   3.367   8.787
 2095SOL    HW1 6851   1.484   3.461   8.813
 2095SOL    HW2 6852   1.444   3.313   8.869
 2096SOL     OW 6853   0.438   2.254   8.947
 2096SOL    HW1 6854   0.520   2.198   8.956
 2096SOL    HW2 6855   0.357   2.196   8.951
 2097SOL     OW 6856   1.603   2.309   8.185
 2097SOL    HW1 6857   1.529   2.355   8.135
 2097SOL    HW2 6858   1.654   2.377   8.238
 2098SOL     OW 6859   0.231   3.575   7.931
 2098SOL    HW1 6860   0.265   3.652   7.985
 2098SOL    HW2 6861   0.275   3.575   7.841
 2099SOL     OW 6862   1.127   3.203   9.138
 2099SOL    HW1 6863   1.174   3.203   9.226
 2099SOL    HW2 6864   1.079   3.116   9.127
 2100SOL     OW 6865   0.230   3.296   7.986
 2100SOL    HW1 6866   0.204   3.392   7.986
 2100SOL    HW2 6867   0.159   3.242   8.031
 2101SOL     OW 6868   0.240   2.953   8.334
 2101SOL    HW1 6869   0.254   2.869   8.386
 2101SOL    HW2 6870   0.185   3.017   8.389
 2102SOL     OW 6871   0.620   3.648   8.887
 2102SOL    HW1 6872   0.528   3.631   8.922
 2102SOL    HW2 6873   0.648   3.740   8.913
 2103SOL     OW 6874   0.606   2.826   7.571
 2103SOL    HW1 6875   0.613   2.910   7.517
 2103SOL    HW2 6876   0.652   2.839   7.659
 2104SOL     OW 6877   1.594   1.976   8.928
 2104SOL    HW1 6878   1.576   2.043   8.856
 2104SOL    HW2 6879   1.591   2.022   9.017
 2105SOL     OW 6880   0.122   2.505   8.011
 2105SOL    HW1 6881   0.077   2.417   8.028
 2105SOL    HW2 6882   0.121   2.559   8.095
 2106SOL     OW 6883   1.842   3.629   7.807
 2106SOL    HW1 6884   1.896   3.600   7.887
 2106SOL    HW2 6885   1.872   3.719   7.778
 2107SOL     OW 6886   0.027   3.458   7.565
 2107SOL    HW1 6887   0.008   3.362   7.586
 2107SOL    HW2 6888  -0.006   3.516   7.640
 2108SOL     OW 6889   1.689   2.784   8.060
 2108SOL    HW1 6890   1.784   2.755   8.068
 2108SOL    HW2 6891   1.681   2.849   7.985
 2109SOL     OW 6892   1.641   2.970   7.880
 2109SOL    HW1 6893   1.727   2.972   7.828
 2109SOL    HW2 6894   1.655   3.017   7.968
 2110SOL     OW 6895   0.113   2.599   9.045
 2110SOL    HW1 6896   0.201   2.586   9.090
 2110SOL    HW2 6897   0.100   2.696   9.023
 2111SOL     OW 6898   0.613   3.227   8.174
 2111SOL    HW1 6899   0.564   3.140   8.183
 2111SOL    HW2 6900   0.590   3.270   8.087
 2112SOL     OW 6901   1.293   3.090   8.871
 2112SOL    HW1 6902   1.330   3.017   8.813
 2112SOL    HW2 6903   1.345   3.095   8.956
 2113SOL     OW 6904   0.809   1.866   7.950
 2113SOL    HW1 6905   0.849   1.957   7.941
 2113SOL    HW2 6906   0.709   1.874   7.956
 2114SOL     OW 6907   0.197   2.838   8.712
 2114SOL    HW1 6908   0.286   2.793   8.698
 2114SOL    HW2 6909   0.124   2.773   8.693
 2115SOL     OW 6910   1.525   2.861   7.638
 2115SOL    HW1 6911   1.462   2.785   7.651
 2115SOL    HW2 6912   1.573   2.879   7.724
 2116SOL     OW 6913   1.187   3.654   9.064
 2116SOL    HW1 6914   1.211   3.714   8.988
 2116SOL    HW2 6915   1.194   3.559   9.034
 2117SOL     OW 6916   0.317   2.113   9.249
 2117SOL    HW1 6917   0.388   2.184   9.255
 2117SOL    HW2 6918   0.229   2.152   9.277
 2118SOL     OW 6919   1.466   3.279   8.401
 2118SOL    HW1 6920   1.407   3.285   8.481
 2118SOL    HW2 6921   1.451   3.191   8.355
 2119SOL     OW 6922   1.667   3.576   8.020
 2119SOL    HW1 6923   1.626   3.553   7.932
 2119SOL    HW2 6924   1.649   3.502   8.085
 2120SOL     OW 6925   0.598   2.591   7.718
 2120SOL    HW1 6926   0.622   2.660   7.650
 2120SOL    HW2 6927   0.520   2.624   7.772
 2121SOL     OW 6928   1.281   2.207   8.392
 2121SOL    HW1 6929   1.195   2.157   8.379
 2121SOL    HW2 6930   1.343   2.153   8.448
 2122SOL     OW 6931   1.576   3.524   7.755
 2122SOL    HW1 6932   1.665   3.570   7.758
 2122SOL    HW2 6933   1.555   3.500   7.660
 2123SOL     OW 6934   0.807   2.467   8.913
 2123SOL    HW1 6935   0.760   2.464   9.002
 2123SOL    HW2 6936   0.756   2.412   8.847
 2124SOL     OW 6937   1.394   2.331   9.122
 2124SOL    HW1 6938   1.374   2.374   9.210
 2124SOL    HW2 6939   1.472   2.269   9.131
 2125SOL     OW 6940   0.973   2.752   9.020
 2125SOL    HW1 6941   1.019   2.668   8.991
 2125SOL    HW2 6942   0.917   2.786   8.945
 2126SOL     OW 6943   0.991   2.272   8.690
 2126SOL    HW1 6944   0.914   2.306   8.744
 2126SOL    HW2 6945   0.957   2.221   8.611
 2127SOL     OW 6946   1.041   2.563   7.877
 2127SOL    HW1 6947   1.067   2.559   7.973
 2127SOL    HW2 6948   0.956   2.512   7.863
 2128SOL     OW 6949   0.076   2.673   8.237
 2128SOL    HW1 6950   0.175   2.661   8.246
 2128SOL    HW2 6951   0.052   2.768   8.258
 2129SOL     OW 6952   0.130   3.683   9.019
 2129SOL    HW1 6953   0.120   3.668   9.118
 2129SOL    HW2 6954   0.044   3.719   8.983
 2130SOL     OW 6955   0.865   2.210   7.643
 2130SOL    HW1 6956   0.924   2.273   7.594
 2130SOL    HW2 6957   0.884   2.116   7.614
 2131SOL     OW 6958   1.719   2.447   9.279
 2131SOL    HW1 6959   1.693   2.536   9.243
 2131SOL    HW2 6960   1.717   2.379   9.206
 2132SOL     OW 6961   1.362   3.006   7.993
 2132SOL    HW1 6962   1.445   2.977   7.945
 2132SOL    HW2 6963   1.313   3.073   7.937
 2133SOL     OW 6964   0.550   2.058   8.333
 2133SOL    HW1 6965   0.545   2.053   8.433
 2133SOL    HW2 6966   0.552   2.154   8.304
 2134SOL     OW 6967   1.008   3.318   7.925
 2134SOL    HW1 6968   0.962   3.390   7.873
 2134SOL    HW2 6969   1.004   3.338   8.023
 2135SOL     OW 6970   0.351   3.663   8.301
 2135SOL    HW1 6971   0.401   3.577   8.307
 2135SOL    HW2 6972   0.416   3.740   8.298
 2136SOL     OW 6973   1.795   2.928   8.321
 2136SOL    HW1 6974   1.733   2.913   8.245
 2136SOL    HW2 6975   1.743   2.939   8.406
 2137SOL     OW 6976   1.227   3.412   8.954
 2137SOL    HW1 6977   1.233   3.335   9.018
 2137SOL    HW2 6978   1.175   3.386   8.874
 2138SOL     OW 6979   0.321   2.805   7.690
 2138SOL    HW1 6980   0.403   2.844   7.648
 2138SOL    HW2 6981   0.294   2.723   7.641
 2139SOL     OW 6982   1.458   2.597   8.176
 2139SOL    HW1 6983   1.453   2.532   8.251
 2139SOL    HW2 6984   1.538   2.656   8.189
 2140SOL     OW 6985   0.461   3.128   9.175
 2140SOL    HW1 6986   0.411   3.129   9.089
 2140SOL    HW2 6987   0.398   3.110   9.251
 2141SOL     OW 6988   1.111   3.638   7.685
 2141SOL    HW1 6989   1.051   3.576   7.735
 2141SOL    HW2 6990   1.142   3.594   7.600
 2142SOL     OW 6991   0.202   2.147   8.946
 2142SOL    HW1 6992   0.122   2.207   8.933
 2142SOL    HW2 6993   0.192   2.098   9.032
 2143SOL     OW 6994   1.632   3.239   7.529
 2143SOL    HW1 6995   1.600   3.333   7.519
 2143SOL    HW2 6996   1.556   3.176   7.517
 2144SOL     OW 6997   0.464   3.605   7.771
 2144SOL    HW1 6998   0.497   3.644   7.857
 2144SOL    HW2 6999   0.540   3.598   7.706
 2145SOL     OW 7000   1.400   1.969   7.874
 2145SOL    HW1 7001   1.376   1.932   7.784
 2145SOL    HW2 7002   1.499   1.985   7.878
 2146SOL     OW 7003   0.249   3.647   8.689
 2146SOL    HW1 7004   0.306   3.582   8.739
 2146SOL    HW2 7005   0.233   3.614   8.596
 2147SOL     OW 7006   0.940   3.560   8.352
 2147SOL    HW1 7007   1.020   3.503   8.373
 2147SOL    HW2 7008   0.891   3.520   8.275
 2148SOL     OW 7009   0.382   2.562   7.928
 2148SOL    HW1 7010   0.427   2.472   7.925
 2148SOL    HW2 7011   0.288   2.551   7.961
 2149SOL     OW 7012   1.547   2.084   9.177
 2149SOL    HW1 7013   1.542   2.121   9.269
 2149SOL    HW2 7014   1.475   2.015   9.165
 2150SOL     OW 7015   0.614   1.984   7.565
 2150SOL    HW1 7016   0.712   1.962   7.572
 2150SOL    HW2 7017   0.583   1.967   7.472
 2151SOL     OW 7018   0.781   2.126   9.197
 2151SOL    HW1 7019   0.848   2.065   9.240
 2151SOL    HW2 7020   0.708   2.145   9.262
 2152SOL     OW 7021   0.888   3.376   8.643
 2152SOL    HW1 7022   0.865   3.351   8.549
 2152SOL    HW2 7023   0.949   3.307   8.682
 2153SOL     OW 7024   1.351   2.452   8.881
 2153SOL    HW1 7025   1.379   2.409   8.966
 2153SOL    HW2 7026   1.376   2.548   8.882
 2154SOL     OW 7027   0.803   3.264   8.372
 2154SOL    HW1 7028   0.893   3.278   8.330
 2154SOL    HW2 7029   0.732   3.266   8.301
 2155SOL     OW 7030   0.922   2.365   8.347
 2155SOL    HW1 7031   0.897   2.356   8.251
 2155SOL    HW2 7032   0.970   2.283   8.378
 2156SOL     OW 7033   0.539   1.926   7.960
 2156SOL    HW1 7034   0.458   1.927   8.018
 2156SOL    HW2 7035   0.542   2.009   7.905
 2157SOL     OW 7036   1.434   3.050   7.489
 2157SOL    HW1 7037   1.466   2.974   7.546
 2157SOL    HW2 7038   1.342   3.077   7.519
 2158SOL     OW 7039   0.297   1.897   7.619
 2158SOL    HW1 7040   0.346   1.981   7.598
 2158SOL    HW2 7041   0.359   1.832   7.664
 2159SOL     OW 7042   0.935   2.098   7.928
 2159SOL    HW1 7043   0.887   2.139   7.850
 2159SOL    HW2 7044   1.034   2.096   7.909
 2160SOL     OW 7045   1.076   2.545   8.912
 2160SOL    HW1 7046   0.996   2.484   8.915
 2160SOL    HW2 7047   1.157   2.492   8.888
 2161SOL     OW 7048   1.227   3.432   8.241
 2161SOL    HW1 7049   1.248   3.506   8.176
 2161SOL    HW2 7050   1.295   3.432   8.314
 2162SOL     OW 7051   0.459   3.014   8.189
 2162SOL    HW1 7052   0.388   2.987   8.254
 2162SOL    HW2 7053   0.433   2.986   8.096
 2163SOL     OW 7054   1.271   3.659   8.039
 2163SOL    HW1 7055   1.315   3.723   7.975
 2163SOL    HW2 7056   1.221   3.711   8.109
 2164SOL     OW 7057   1.032   2.411   7.464
 2164SOL    HW1 7058   0.991   2.493   7.425
 2164SOL    HW2 7059   1.096   2.437   7.537
 2165SOL     OW 7060   0.078   2.418   8.834
 2165SOL    HW1 7061   0.170   2.417   8.793
 2165SOL    HW2 7062   0.072   2.492   8.901
 2166SOL     OW 7063   0.561   2.084   8.595
 2166SOL    HW1 7064   0.599   2.000   8.632
 2166SOL    HW2 7065   0.473   2.103   8.639
 2167SOL     OW 7066   0.866   2.316   8.090
 2167SOL    HW1 7067   0.834   2.388   8.028
 2167SOL    HW2 7068   0.890   2.235   8.037
 2168SOL     OW 7069   1.017   1.901   8.201
 2168SOL    HW1 7070   0.945   1.906   8.132
 2168SOL    HW2 7071   0.993   1.832   8.270
 2169SOL     OW 7072   1.429   3.035   8.315
 2169SOL    HW1 7073   1.374   2.951   8.308
 2169SOL    HW2 7074   1.455   3.064   8.223
 2170SOL     OW 7075   1.466   2.452   8.440
 2170SOL    HW1 7076   1.436   2.357   8.447
 2170SOL    HW2 7077   1.539   2.468   8.506
 2171SOL     OW 7078   1.857   2.695   7.825
 2171SOL    HW1 7079   1.899   2.631   7.889
 2171SOL    HW2 7080   1.819   2.644   7.747
 2172SOL     OW 7081   0.488   3.247   7.622
 2172SOL    HW1 7082   0.401   3.232   7.669
 2172SOL    HW2 7083   0.471   3.273   7.527
 2173SOL     OW 7084   1.664   3.142   8.105
 2173SOL    HW1 7085   1.763   3.150   8.119
 2173SOL    HW2 7086   1.619   3.226   8.136
 2174SOL     OW 7087   1.390   2.437   7.526
 2174SOL    HW1 7088   1.336   2.416   7.607
 2174SOL    HW2 7089   1.481   2.396   7.535
 2175SOL     OW 7090   0.527   2.118   7.776
 2175SOL    HW1 7091   0.554   2.059   7.701
 2175SOL    HW2 7092   0.527   2.213   7.745
 2176SOL     OW 7093   1.754   3.085   9.036
 2176SOL    HW1 7094   1.845   3.046   9.023
 2176SOL    HW2 7095   1.762   3.181   9.060
 2177SOL     OW 7096   1.064   3.209   8.788
 2177SOL    HW1 7097   0.984   3.186   8.843
 2177SOL    HW2 7098   1.147   3.183   8.837
 2178SOL     OW 7099   1.592   3.491   9.073
 2178SOL    HW1 7100   1.619   3.525   8.983
 2178SOL    HW2 7101   1.671   3.453   9.119
 2179SOL     OW 7102   1.111   3.057   8.548
 2179SOL    HW1 7103   1.071   3.101   8.629
 2179SOL    HW2 7104   1.070   3.094   8.465
 2180SOL     OW 7105   1.638   2.961   8.527
 2180SOL    HW1 7106   1.643   3.042   8.586
 2180SOL    HW2 7107   1.552   2.963   8.476
 2181SOL     OW 7108   0.915   1.951   8.850
 2181SOL    HW1 7109   0.940   1.931   8.755
 2181SOL    HW2 7110   0.987   2.007   8.892
 2182SOL     OW 7111   0.980   2.978   9.167
 2182SOL    HW1 7112   0.881   2.984   9.177
 2182SOL    HW2 7113   1.003   2.898   9.111
 2183SOL     OW 7114   0.705   2.912   7.816
 2183SOL    HW1 7115   0.691   2.919   7.915
 2183SOL    HW2 7116   0.789   2.861   7.798
 2184SOL     OW 7117   0.410   2.675   8.699
 2184SOL    HW1 7118   0.496   2.687   8.749
 2184SOL    HW2 7119   0.368   2.588   8.726
 2185SOL     OW 7120   1.274   2.248   8.710
 2185SOL    HW1 7121   1.295   2.322   8.774
 2185SOL    HW2 7122   1.185   2.265   8.667
 2186SOL     OW 7123   0.064   3.426   8.779
 2186SOL    HW1 7124   0.018   3.508   8.745
 2186SOL    HW2 7125   0.162   3.445   8.788
 2187SOL     OW 7126   0.367   2.962   7.949
 2187SOL    HW1 7127   0.360   3.045   7.893
 2187SOL    HW2 7128   0.371   2.882   7.889
 2188SOL     OW 7129   0.566   2.399   8.313
 2188SOL    HW1 7130   0.578   2.465   8.239
 2188SOL    HW2 7131   0.612   2.433   8.396
 2189SOL     OW 7132   1.252   3.210   7.836
 2189SOL    HW1 7133   1.302   3.287   7.876
 2189SOL    HW2 7134   1.157   3.212   7.868
 2190SOL     OW 7135   1.272   3.307   8.590
 2190SOL    HW1 7136   1.319   3.320   8.677
 2190SOL    HW2 7137   1.206   3.233   8.599
 2191SOL     OW 7138   1.582   2.501   7.920
 2191SOL    HW1 7139   1.551   2.562   7.993
 2191SOL    HW2 7140   1.632   2.553   7.851
 2192SOL     OW 7141   0.354   3.372   8.777
 2192SOL    HW1 7142   0.333   3.328   8.690
 2192SOL    HW2 7143   0.451   3.398   8.780
 2193SOL     OW 7144   0.402   2.613   9.046
 2193SOL    HW1 7145   0.470   2.668   8.999
 2193SOL    HW2 7146   0.442   2.525   9.073
 2194SOL     OW 7147   1.587   2.641   9.118
 2194SOL    HW1 7148   1.495   2.679   9.113
 2194SOL    HW2 7149   1.647   2.688   9.053
 2195SOL     OW 7150   1.013   1.967   9.218
 2195SOL    HW1 7151   1.019   2.052   9.166
 2195SOL    HW2 7152   1.045   1.891   9.161
 2196SOL     OW 7153   0.504   1.912   9.188
 2196SOL    HW1 7154   0.462   1.855   9.118
 2196SOL    HW2 7155   0.438   1.981   9.220
 2197SOL     OW 7156   0.573   2.732   8.477
 2197SOL    HW1 7157   0.617   2.821   8.468
 2197SOL    HW2 7158   0.510   2.732   8.554
 2198SOL     OW 7159   1.360   2.724   8.493
 2198SOL    HW1 7160   1.285   2.724   8.427
 2198SOL    HW2 7161   1.397   2.632   8.502
 2199SOL     OW 7162   1.209   2.387   7.723
 2199SOL    HW1 7163   1.222   2.303   7.777
 2199SOL    HW2 7164   1.180   2.461   7.783
 2200SOL     OW 7165   0.307   2.075   8.679
 2200SOL    HW1 7166   0.284   2.112   8.769
 2200SOL    HW2 7167   0.277   1.980   8.673
 2201SOL     OW 7168   0.037   3.172   8.730
 2201SOL    HW1 7169   0.090   3.123   8.798
 2201SOL    HW2 7170   0.059   3.270   8.735
 2202SOL     OW 7171   0.732   2.496   8.512
 2202SOL    HW1 7172   0.791   2.470   8.436
 2202SOL    HW2 7173   0.704   2.592   8.501
 2203SOL     OW 7174   1.728   2.797   9.302
 2203SOL    HW1 7175   1.682   2.790   9.213
 2203SOL    HW2 7176   1.666   2.841   9.368
 2204SOL     OW 7177   0.307   1.925   8.066
 2204SOL    HW1 7178   0.296   2.019   8.099
 2204SOL    HW2 7179   0.302   1.862   8.143
 2205SOL     OW 7180   1.622   2.229   7.822
 2205SOL    HW1 7181   1.624   2.153   7.886
 2205SOL    HW2 7182   1.574   2.306   7.862
 2206SOL     OW 7183   1.023   2.628   8.414
 2206SOL    HW1 7184   1.038   2.649   8.510
 2206SOL    HW2 7185   0.993   2.533   8.405
 2207SOL     OW 7186   0.980   3.435   9.148
 2207SOL    HW1 7187   0.960   3.479   9.060
 2207SOL    HW2 7188   1.019   3.344   9.132
 2208SOL     OW 7189   1.859   3.380   9.053
 2208SOL    HW1 7190   1.873   3.407   8.958
 2208SOL    HW2 7191   1.942   3.402   9.106
 2209SOL     OW 7192   0.350   2.760   9.252
 2209SOL    HW1 7193   0.426   2.804   9.300
 2209SOL    HW2 7194   0.385   2.713   9.170
 2210SOL     OW 7195   1.540   2.136   7.573
 2210SOL    HW1 7196   1.479   2.061   7.596
 2210SOL    HW2 7197   1.562   2.188   7.656
 2211SOL     OW 7198   1.303   2.700   7.490
 2211SOL    HW1 7199   1.337   2.607   7.505
 2211SOL    HW2 7200   1.321   2.727   7.395
 2212SOL     OW 7201   1.068   3.195   8.297
 2212SOL    HW1 7202   1.075   3.111   8.242
 2212SOL    HW2 7203   1.130   3.264   8.261
 2213SOL     OW 7204   0.319   2.672   8.397
 2213SOL    HW1 7205   0.412   2.708   8.402
 2213SOL    HW2 7206   0.313   2.587   8.449
 2214SOL     OW 7207   0.339   2.371   8.454
 2214SOL    HW1 7208   0.287   2.288   8.437
 2214SOL    HW2 7209   0.416   2.376   8.390
 2215SOL     OW 7210   1.138   2.242   9.126
 2215SOL    HW1 7211   1.093   2.305   9.190
 2215SOL    HW2 7212   1.231   2.273   9.109
 2216SOL     OW 7213   1.160   2.069   8.925
 2216SOL    HW1 7214   1.160   2.133   9.002
 2216SOL    HW2 7215   1.188   2.117   8.842
 2217SOL     OW 7216   0.008   3.188   7.648
 2217SOL    HW1 7217  -0.085   3.209   7.617
 2217SOL    HW2 7218   0.018   3.089   7.661
 2218SOL     OW 7219   0.088   3.663   8.375
 2218SOL    HW1 7220   0.046   3.577   8.348
 2218SOL    HW2 7221   0.182   3.666   8.341
 2219SOL     OW 7222   0.504   3.430   8.358
 2219SOL    HW1 7223   0.570   3.504   8.367
 2219SOL    HW2 7224   0.548   3.351   8.316
 2220SOL     OW 7225   1.002   2.658   8.686
 2220SOL    HW1 7226   1.043   2.626   8.772
 2220SOL    HW2 7227   0.906   2.631   8.683
 2221SOL     OW 7228   0.040   2.406   8.562
 2221SOL    HW1 7229   0.125   2.373   8.521
 2221SOL    HW2 7230   0.053   2.421   8.660
 2222SOL     OW 7231   0.189   2.382   9.170
 2222SOL    HW1 7232   0.248   2.342   9.100
 2222SOL    HW2 7233   0.131   2.453   9.129
 2223SOL     OW 7234   1.369   2.812   9.108
 2223SOL    HW1 7235   1.408   2.901   9.128
 2223SOL    HW2 7236   1.379   2.792   9.011
 2224SOL     OW 7237   0.815   2.434   7.773
 2224SOL    HW1 7238   0.822   2.345   7.727
 2224SOL    HW2 7239   0.721   2.468   7.765
 2225SOL     OW 7240   1.657   2.466   8.654
 2225SOL    HW1 7241   1.619   2.397   8.716
 2225SOL    HW2 7242   1.739   2.430   8.610
 2226SOL     OW 7243   0.252   3.426   9.192
 2226SOL    HW1 7244   0.222   3.483   9.268
 2226SOL    HW2 7245   0.245   3.329   9.218
 2227SOL     OW 7246   0.671   2.326   8.717
 2227SOL    HW1 7247   0.637   2.237   8.687
 2227SOL    HW2 7248   0.697   2.380   8.637
 2228SOL     OW 7249   0.930   3.540   8.913
 2228SOL    HW1 7250   0.906   3.522   8.818
 2228SOL    HW2 7251   0.960   3.634   8.923
 2229SOL     OW 7252   0.473   2.362   7.639
 2229SOL    HW1 7253   0.534   2.442   7.643
 2229SOL    HW2 7254   0.378   2.393   7.646
 2230SOL     OW 7255   0.159   2.999   8.914
 2230SOL    HW1 7256   0.181   2.938   8.990
 2230SOL    HW2 7257   0.169   2.950   8.828
 2231SOL     OW 7258   1.347   2.921   8.682
 2231SOL    HW1 7259   1.371   2.858   8.608
 2231SOL    HW2 7260   1.257   2.961   8.664
 2232SOL     OW 7261   1.302   2.717   7.757
 2232SOL    HW1 7262   1.216   2.686   7.799
 2232SOL    HW2 7263   1.298   2.703   7.658
 2233SOL     OW 7264   1.759   3.609   8.602
 2233SOL    HW1 7265   1.820   3.639   8.529
 2233SOL    HW2 7266   1.721   3.520   8.580
 2234SOL     OW 7267   1.252   3.593   8.576
 2234SOL    HW1 7268   1.336   3.598   8.522
 2234SOL    HW2 7269   1.229   3.497   8.594
 2235SOL     OW 7270   0.083   3.120   8.470
 2235SOL    HW1 7271   0.078   3.119   8.570
 2235SOL    HW2 7272   0.000   3.079   8.432
 2236SOL     OW 7273   0.688   3.524   9.164
 2236SOL    HW1 7274   0.632   3.605   9.173
 2236SOL    HW2 7275   0.740   3.528   9.078
 2237SOL     OW 7276   1.726   1.997   7.971
 2237SOL    HW1 7277   1.799   1.980   7.904
 2237SOL    HW2 7278   1.695   1.910   8.009
 2238SOL     OW 7279   1.388   3.435   7.925
 2238SOL    HW1 7280   1.455   3.447   7.851
 2238SOL    HW2 7281   1.348   3.524   7.948
 2239SOL     OW 7282   0.130   3.656   9.299
 2239SOL    HW1 7283   0.089   3.582   9.352
 2239SOL    HW2 7284   0.194   3.707   9.357
 2240SOL     OW 7285   1.280   2.789   8.120
 2240SOL    HW1 7286   1.340   2.708   8.122
 2240SOL    HW2 7287   1.320   2.858   8.060
 2241SOL     OW 7288   0.830   3.135   8.870
 2241SOL    HW1 7289   0.825   3.168   8.965
 2241SOL    HW2 7290   0.744   3.154   8.824
 2242SOL     OW 7291   0.672   3.478   7.602
 2242SOL    HW1 7292   0.681   3.488   7.503
 2242SOL    HW2 7293   0.632   3.389   7.623
 2243SOL     OW 7294   1.650   3.582   8.842
 2243SOL    HW1 7295   1.703   3.592   8.758
 2243SOL    HW2 7296   1.623   3.672   8.876
 2244SOL     OW 7297   1.841   2.037   8.411
 2244SOL    HW1 7298   1.880   1.952   8.375
 2244SOL    HW2 7299   1.743   2.039   8.392
 2245SOL     OW 7300   0.263   2.188   8.168
 2245SOL    HW1 7301   0.184   2.239   8.134
 2245SOL    HW2 7302   0.254   2.173   8.266
 2246SOL     OW 7303   1.194   3.474   7.479
 2246SOL    HW1 7304   1.200   3.381   7.516
 2246SOL    HW2 7305   1.135   3.474   7.399
 2247SOL     OW 7306   0.822   2.864   8.820
 2247SOL    HW1 7307   0.862   2.863   8.728
 2247SOL    HW2 7308   0.832   2.956   8.860
 2248SOL     OW 7309   0.916   2.772   7.739
 2248SOL    HW1 7310   0.979   2.810   7.671
 2248SOL    HW2 7311   0.956   2.689   7.778
 2249SOL     OW 7312   1.504   3.469   7.492
 2249SOL    HW1 7313   1.412   3.506   7.499
 2249SOL    HW2 7314   1.542   3.489   7.402
 2250SOL     OW 7315   0.372   3.150   8.938
 2250SOL    HW1 7316   0.359   3.243   8.904
 2250SOL    HW2 7317   0.288   3.098   8.925
 2251SOL     OW 7318   1.614   3.154   8.737
 2251SOL    HW1 7319   1.674   3.157   8.817
 2251SOL    HW2 7320   1.539   3.218   8.750
 2252SOL     OW 7321   1.039   2.960   8.144
 2252SOL    HW1 7322   0.969   2.913   8.198
 2252SOL    HW2 7323   1.098   2.892   8.101
 2253SOL     OW 7324   1.014   2.098   8.419
 2253SOL    HW1 7325   1.006   2.062   8.326
 2253SOL    HW2 7326   1.012   2.022   8.484
 2254SOL     OW 7327   0.590   3.349   7.939
 2254SOL    HW1 7328   0.632   3.291   7.869
 2254SOL    HW2 7329   0.546   3.428   7.895
 2255SOL     OW 7330   1.709   2.247   8.829
 2255SOL    HW1 7331   1.782   2.316   8.833
 2255SOL    HW2 7332   1.737   2.172   8.770
 2256SOL     OW 7333   0.255   3.210   7.738
 2256SOL    HW1 7334   0.159   3.211   7.711
 2256SOL    HW2 7335   0.267   3.263   7.822
 2257SOL     OW 7336   0.105   2.875   9.174
 2257SOL    HW1 7337   0.028   2.842   9.228
 2257SOL    HW2 7338   0.190   2.845   9.216
 2258SOL     OW 7339   0.672   2.065   8.937
 2258SOL    HW1 7340   0.762   2.049   8.897
 2258SOL    HW2 7341   0.680   2.070   9.036
 2259SOL     OW 7342   0.075   2.207   7.481
 2259SOL    HW1 7343  -0.017   2.179   7.452
 2259SOL    HW2 7344   0.106   2.284   7.425
 2260SOL     OW 7345   1.440   2.718   8.846
 2260SOL    HW1 7346   1.383   2.770   8.783
 2260SOL    HW2 7347   1.536   2.730   8.822
 2261SOL     OW 7348   0.072   2.028   7.766
 2261SOL    HW1 7349   0.055   2.111   7.712
 2261SOL    HW2 7350   0.162   1.991   7.744
 2262SOL     OW 7351   1.183   3.197   7.567
 2262SOL    HW1 7352   1.084   3.186   7.569
 2262SOL    HW2 7353   1.217   3.212   7.660
 2263SOL     OW 7354   0.613   2.704   8.879
 2263SOL    HW1 7355   0.669   2.785   8.862
 2263SOL    HW2 7356   0.672   2.624   8.882
 2264SOL     OW 7357   1.493   3.629   8.407
 2264SOL    HW1 7358   1.526   3.693   8.338
 2264SOL    HW2 7359   1.559   3.623   8.482
 2265SOL     OW 7360   0.716   2.427   9.156
 2265SOL    HW1 7361   0.735   2.492   9.230
 2265SOL    HW2 7362   0.776   2.347   9.165
 2266SOL     OW 7363   1.450   3.082   9.081
 2266SOL    HW1 7364   1.441   3.072   9.180
 2266SOL    HW2 7365   1.546   3.075   9.055
 2267SOL     OW 7366   0.390   3.603   9.008
 2267SOL    HW1 7367   0.299   3.644   9.006
 2267SOL    HW2 7368   0.383   3.509   9.040
 2268SOL     OW 7369   1.674   2.745   8.702
 2268SOL    HW1 7370   1.647   2.656   8.665
 2268SOL    HW2 7371   1.675   2.813   8.629
 2269SOL     OW 7372   1.225   2.187   7.897
 2269SOL    HW1 7373   1.290   2.113   7.886
 2269SOL    HW2 7374   1.245   2.237   7.981
 2270SOL     OW 7375   0.594   2.607   8.100
 2270SOL    HW1 7376   0.644   2.692   8.081
 2270SOL    HW2 7377   0.506   2.609   8.052
 2271SOL     OW 7378   1.777   2.204   9.090
 2271SOL    HW1 7379   1.760   2.235   8.996
 2271SOL    HW2 7380   1.693   2.167   9.128
 2272SOL     OW 7381   1.730   2.796   8.965
 2272SOL    HW1 7382   1.768   2.887   8.980
 2272SOL    HW2 7383   1.722   2.779   8.866
 2273SOL     OW 7384   0.859   3.236   7.464
 2273SOL    HW1 7385   0.813   3.251   7.552
 2273SOL    HW2 7386   0.903   3.321   7.434
 2274SOL     OW 7387   0.661   3.652   8.401
 2274SOL    HW1 7388   0.615   3.740   8.388
 2274SOL    HW2 7389   0.760   3.664   8.394
 2275SOL     OW 7390   0.859   2.818   8.309
 2275SOL    HW1 7391   0.913   2.749   8.357
 2275SOL    HW2 7392   0.827   2.887   8.375
 2276SOL     OW 7393   1.083   2.846   7.535
 2276SOL    HW1 7394   1.060   2.899   7.453
 2276SOL    HW2 7395   1.164   2.790   7.516
 2277SOL     OW 7396   1.861   3.431   8.299
 2277SOL    HW1 7397   1.790   3.419   8.229
 2277SOL    HW2 7398   1.862   3.352   8.359
 2278SOL     OW 7399   0.221   3.176   9.292
 2278SOL    HW1 7400   0.156   3.103   9.271
 2278SOL    HW2 7401   0.225   3.190   9.390
 2279SOL     OW 7402   0.079   3.102   8.101
 2279SOL    HW1 7403   0.078   3.055   8.189
 2279SOL    HW2 7404   0.161   3.074   8.050
 2280SOL     OW 7405   0.672   3.253   9.072
 2280SOL    HW1 7406   0.594   3.203   9.110
 2280SOL    HW2 7407   0.669   3.348   9.103
 2281SOL     OW 7408   1.824   2.054   8.675
 2281SOL    HW1 7409   1.820   1.964   8.719
 2281SOL    HW2 7410   1.827   2.043   8.576
 2282SOL     OW 7411   0.428   2.286   7.968
 2282SOL    HW1 7412   0.458   2.214   7.906
 2282SOL    HW2 7413   0.389   2.246   8.051
 2283SOL     OW 7414   1.705   3.349   8.552
 2283SOL    HW1 7415   1.612   3.324   8.525
 2283SOL    HW2 7416   1.731   3.299   8.634
 2284SOL     OW 7417   0.317   2.409   8.728
 2284SOL    HW1 7418   0.355   2.350   8.800
 2284SOL    HW2 7419   0.357   2.383   8.640
 2285SOL     OW 7420   0.812   3.448   8.135
 2285SOL    HW1 7421   0.844   3.458   8.041
 2285SOL    HW2 7422   0.733   3.386   8.137
 2286SOL     OW 7423   1.424   2.076   8.560
 2286SOL    HW1 7424   1.476   2.011   8.615
 2286SOL    HW2 7425   1.375   2.139   8.621
 2287SOL     OW 7426   1.001   1.896   8.602
 2287SOL    HW1 7427   0.938   1.824   8.571
 2287SOL    HW2 7428   1.094   1.860   8.602
 2288SOL     OW 7429   0.770   3.192   7.749
 2288SOL    HW1 7430   0.724   3.105   7.766
 2288SOL    HW2 7431   0.861   3.189   7.790
 2289SOL     OW 7432   0.618   3.429   8.732
 2289SOL    HW1 7433   0.613   3.511   8.789
 2289SOL    HW2 7434   0.707   3.426   8.687
 2290SOL     OW 7435   1.352   1.914   7.616
 2290SOL    HW1 7436   1.387   1.873   7.532
 2290SOL    HW2 7437   1.262   1.876   7.636
 2291SOL     OW 7438   1.300   2.315   8.139
 2291SOL    HW1 7439   1.241   2.395   8.143
 2291SOL    HW2 7440   1.315   2.280   8.232
 2292SOL     OW 7441   1.593   2.083   8.330
 2292SOL    HW1 7442   1.509   2.082   8.384
 2292SOL    HW2 7443   1.595   2.166   8.274
 2293SOL     OW 7444   0.039   2.939   7.748
 2293SOL    HW1 7445   0.138   2.928   7.739
 2293SOL    HW2 7446  -0.001   2.853   7.780
 2294SOL     OW 7447   0.875   3.508   7.785
 2294SOL    HW1 7448   0.798   3.473   7.731
 2294SOL    HW2 7449   0.843   3.579   7.847
 2295SOL     OW 7450   0.230   2.490   9.423
 2295SOL    HW1 7451   0.137   2.488   9.460
 2295SOL    HW2 7452   0.231   2.451   9.331
 2296SOL     OW 7453   0.225   2.137  10.306
 2296SOL    HW1 7454   0.260   2.120  10.398
 2296SOL    HW2 7455   0.137   2.092  10.294
 2297SOL     OW 7456   0.019   2.230   9.957
 2297SOL    HW1 7457  -0.063   2.273   9.996
 2297SOL    HW2 7458  -0.009   2.157   9.894
 2298SOL     OW 7459   0.569   3.137  10.475
 2298SOL    HW1 7460   0.476   3.130  10.438
 2298SOL    HW2 7461   0.580   3.226  10.519
 2299SOL     OW 7462   1.555   3.373  10.013
 2299SOL    HW1 7463   1.498   3.357  10.094
 2299SOL    HW2 7464   1.496   3.383   9.933
 2300SOL     OW 7465   1.135   2.565  10.027
 2300SOL    HW1 7466   1.192   2.643  10.002
 2300SOL    HW2 7467   1.075   2.591  10.103
 2301SOL     OW 7468   1.755   2.469   9.541
 2301SOL    HW1 7469   1.743   2.456   9.442
 2301SOL    HW2 7470   1.725   2.388   9.590
 2302SOL     OW 7471   0.768   3.006  10.333
 2302SOL    HW1 7472   0.690   3.023  10.393
 2302SOL    HW2 7473   0.802   3.093  10.297
 2303SOL     OW 7474   0.850   2.660  11.133
 2303SOL    HW1 7475   0.846   2.736  11.198
 2303SOL    HW2 7476   0.872   2.696  11.042
 2304SOL     OW 7477   0.685   2.874   9.975
 2304SOL    HW1 7478   0.754   2.858  10.045
 2304SOL    HW2 7479   0.612   2.931  10.013
 2305SOL     OW 7480   0.335   3.297  10.371
 2305SOL    HW1 7481   0.257   3.266  10.318
 2305SOL    HW2 7482   0.393   3.355  10.314
 2306SOL     OW 7483   1.460   3.367  10.649
 2306SOL    HW1 7484   1.484   3.461  10.675
 2306SOL    HW2 7485   1.444   3.313  10.731
 2307SOL     OW 7486   0.438   2.254  10.809
 2307SOL    HW1 7487   0.520   2.198  10.818
 2307SOL    HW2 7488   0.357   2.196  10.813
 2308SOL     OW 7489   1.603   2.309  10.047
 2308SOL    HW1 7490   1.529   2.355   9.997
 2308SOL    HW2 7491   1.654   2.377  10.100
 2309SOL     OW 7492   0.231   3.575   9.793
 2309SOL    HW1 7493   0.265   3.652   9.847
 2309SOL    HW2 7494   0.275   3.575   9.703
 2310SOL     OW 7495   0.230   3.296   9.848
 2310SOL    HW1 7496   0.204   3.392   9.848
 2310SOL    HW2 7497   0.159   3.242   9.893
 2311SOL     OW 7498   0.240   2.953  10.196
 2311SOL    HW1 7499   0.254   2.869  10.248
 2311SOL    HW2 7500   0.185   3.017  10.251
 2312SOL     OW 7501   0.620   3.648  10.749
 2312SOL    HW1 7502   0.528   3.631  10.784
 2312SOL    HW2 7503   0.648   3.740  10.775
 2313SOL     OW 7504   0.606   2.826   9.433
 2313SOL    HW1 7505   0.613   2.910   9.379
 2313SOL    HW2 7506   0.652   2.839   9.521
 2314SOL     OW 7507   1.594   1.976  10.790
 2314SOL    HW1 7508   1.576   2.043  10.718
 2314SOL    HW2 7509   1.591   2.022  10.879
 2315SOL     OW 7510   0.122   2.505   9.873
 2315SOL    HW1 7511   0.077   2.417   9.890
 2315SOL    HW2 7512   0.121   2.559   9.957
 2316SOL     OW 7513   1.842   3.629   9.669
 2316SOL    HW1 7514   1.896   3.600   9.749
 2316SOL    HW2 7515   1.872   3.719   9.640
 2317SOL     OW 7516   0.027   3.458   9.427
 2317SOL    HW1 7517   0.008   3.362   9.448
 2317SOL    HW2 7518  -0.006   3.516   9.502
 2318SOL     OW 7519   1.689   2.784   9.922
 2318SOL    HW1 7520   1.784   2.755   9.930
 2318SOL    HW2 7521   1.681   2.849   9.847
 2319SOL     OW 7522   1.641   2.970   9.742
 2319SOL    HW1 7523   1.727   2.972   9.690
 2319SOL    HW2 7524   1.655   3.017   9.830
 2320SOL     OW 7525   0.113   2.599  10.907
 2320SOL    HW1 7526   0.201   2.586  10.952
 2320SOL    HW2 7527   0.100   2.696  10.885
 2321SOL     OW 7528   0.613   3.227  10.036
 2321SOL    HW1 7529   0.564   3.140  10.045
 2321SOL    HW2 7530   0.590   3.270   9.949
 2322SOL     OW 7531   1.293   3.090  10.733
 2322SOL    HW1 7532   1.330   3.017  10.675
 2322SOL    HW2 7533   1.345   3.095  10.818
 2323SOL     OW 7534   0.809   1.866   9.812
 2323SOL    HW1 7535   0.849   1.957   9.803
 2323SOL    HW2 7536   0.709   1.874   9.818
 2324SOL     OW 7537   0.197   2.838  10.574
 2324SOL    HW1 7538   0.286   2.793  10.560
 2324SOL    HW2 7539   0.124   2.773  10.555
 2325SOL     OW 7540   1.525   2.861   9.500
 2325SOL    HW1 7541   1.462   2.785   9.513
 2325SOL    HW2 7542   1.573   2.879   9.586
 2326SOL     OW 7543   1.187   3.654  10.926
 2326SOL    HW1 7544   1.211   3.714  10.850
 2326SOL    HW2 7545   1.194   3.559  10.896
 2327SOL     OW 7546   0.317   2.113  11.111
 2327SOL    HW1 7547   0.388   2.184  11.117
 2327SOL    HW2 7548   0.229   2.152  11.139
 2328SOL     OW 7549   1.466   3.279  10.263
 2328SOL    HW1 7550   1.407   3.285  10.343
 2328SOL    HW2 7551   1.451   3.191  10.217
 2329SOL     OW 7552   1.667   3.576   9.882
 2329SOL    HW1 7553   1.626   3.553   9.794
 2329SOL    HW2 7554   1.649   3.502   9.947
 2330SOL     OW 7555   0.598   2.591   9.580
 2330SOL    HW1 7556   0.622   2.660   9.512
 2330SOL    HW2 7557   0.520   2.624   9.634
 2331SOL     OW 7558   1.281   2.207  10.254
 2331SOL    HW1 7559   1.195   2.157  10.241
 2331SOL    HW2 7560   1.343   2.153  10.310
 2332SOL     OW 7561   1.576   3.524   9.617
 2332SOL    HW1 7562   1.665   3.570   9.620
 2332SOL    HW2 7563   1.555   3.500   9.522
 2333SOL     OW 7564   0.807   2.467  10.775
 2333SOL    HW1 7565   0.760   2.464  10.864
 2333SOL    HW2 7566   0.756   2.412  10.709
 2334SOL     OW 7567   0.973   2.752  10.882
 2334SOL    HW1 7568   1.019   2.668  10.853
 2334SOL    HW2 7569   0.917   2.786  10.807
 2335SOL     OW 7570   0.991   2.272  10.552
 2335SOL    HW1 7571   0.914   2.306  10.606
 2335SOL    HW2 7572   0.957   2.221  10.473
 2336SOL     OW 7573   1.041   2.563   9.739
 2336SOL    HW1 7574   1.067   2.559   9.835
 2336SOL    HW2 7575   0.956   2.512   9.725
 2337SOL     OW 7576   0.076   2.673  10.099
 2337SOL    HW1 7577   0.175   2.661  10.108
 2337SOL    HW2 7578   0.052   2.768  10.120
 2338SOL     OW 7579   0.130   3.683  10.881
 2338SOL    HW1 7580   0.120   3.668  10.980
 2338SOL    HW2 7581   0.044   3.719  10.845
 2339SOL     OW 7582   0.865   2.210   9.505
 2339SOL    HW1 7583   0.924   2.273   9.456
 2339SOL    HW2 7584   0.884   2.116   9.476
 2340SOL     OW 7585   1.362   3.006   9.855
 2340SOL    HW1 7586   1.445   2.977   9.807
 2340SOL    HW2 7587   1.313   3.073   9.799
 2341SOL     OW 7588   0.550   2.058  10.195
 2341SOL    HW1 7589   0.545   2.053  10.295
 2341SOL    HW2 7590   0.552   2.154  10.166
 2342SOL     OW 7591   1.008   3.318   9.787
 2342SOL    HW1 7592   0.962   3.390   9.735
 2342SOL    HW2 7593   1.004   3.338   9.885
 2343SOL     OW 7594   0.351   3.663  10.163
 2343SOL    HW1 7595   0.401   3.577  10.169
 2343SOL    HW2 7596   0.416   3.740  10.160
 2344SOL     OW 7597   1.795   2.928  10.183
 2344SOL    HW1 7598   1.733   2.913  10.107
 2344SOL    HW2 7599   1.743   2.939  10.268
 2345SOL     OW 7600   1.227   3.412  10.816
 2345SOL    HW1 7601   1.233   3.335  10.880
 2345SOL    HW2 7602   1.175   3.386  10.736
 2346SOL     OW 7603   0.321   2.805   9.552
 2346SOL    HW1 7604   0.403   2.844   9.510
 2346SOL    HW2 7605   0.294   2.723   9.503
 2347SOL     OW 7606   1.458   2.597  10.038
 2347SOL    HW1 7607   1.453   2.532  10.113
 2347SOL    HW2 7608   1.538   2.656  10.051
 2348SOL     OW 7609   0.461   3.128  11.037
 2348SOL    HW1 7610   0.411   3.129  10.951
 2348SOL    HW2 7611   0.398   3.110  11.113
 2349SOL     OW 7612   1.111   3.638   9.547
 2349SOL    HW1 7613   1.051   3.576   9.597
 2349SOL    HW2 7614   1.142   3.594   9.462
 2350SOL     OW 7615   0.202   2.147  10.808
 2350SOL    HW1 7616   0.122   2.207  10.795
 2350SOL    HW2 7617   0.192   2.098  10.894
 2351SOL     OW 7618   1.632   3.239   9.391
 2351SOL    HW1 7619   1.600   3.333   9.381
 2351SOL    HW2 7620   1.556   3.176   9.379
 2352SOL     OW 7621   0.464   3.605   9.633
 2352SOL    HW1 7622   0.497   3.644   9.719
 2352SOL    HW2 7623   0.540   3.598   9.568
 2353SOL     OW 7624   1.400   1.969   9.736
 2353SOL    HW1 7625   1.376   1.932   9.646
 2353SOL    HW2 7626   1.499   1.985   9.740
 2354SOL     OW 7627   0.249   3.647  10.551
 2354SOL    HW1 7628   0.306   3.582  10.601
 2354SOL    HW2 7629   0.233   3.614  10.458
 2355SOL     OW 7630   0.940   3.560  10.214
 2355SOL    HW1 7631   1.020   3.503  10.235
 2355SOL    HW2 7632   0.891   3.520  10.137
 2356SOL     OW 7633   0.382   2.562   9.790
 2356SOL    HW1 7634   0.427   2.472   9.787
 2356SOL    HW2 7635   0.288   2.551   9.823
 2357SOL     OW 7636   0.614   1.984   9.427
 2357SOL    HW1 7637   0.712   1.962   9.434
 2357SOL    HW2 7638   0.583   1.967   9.334
 2358SOL     OW 7639   0.781   2.126  11.059
 2358SOL    HW1 7640   0.848   2.065  11.102
 2358SOL    HW2 7641   0.708   2.145  11.124
 2359SOL     OW 7642   0.888   3.376  10.505
 2359SOL    HW1 7643   0.865   3.351  10.411
 2359SOL    HW2 7644   0.949   3.307  10.544
 2360SOL     OW 7645   1.351   2.452  10.743
 2360SOL    HW1 7646   1.379   2.409  10.828
 2360SOL    HW2 7647   1.376   2.548  10.744
 2361SOL     OW 7648   0.803   3.264  10.234
 2361SOL    HW1 7649   0.893   3.278  10.192
 2361SOL    HW2 7650   0.732   3.266  10.163
 2362SOL     OW 7651   0.922   2.365  10.209
 2362SOL    HW1 7652   0.897   2.356  10.113
 2362SOL    HW2 7653   0.970   2.283  10.240
 2363SOL     OW 7654   0.539   1.926   9.822
 2363SOL    HW1 7655   0.458   1.927   9.880
 2363SOL    HW2 7656   0.542   2.009   9.767
 2364SOL     OW 7657   1.434   3.050   9.351
 2364SOL    HW1 7658   1.466   2.974   9.408
 2364SOL    HW2 7659   1.342   3.077   9.381
 2365SOL     OW 7660   0.297   1.897   9.481
 2365SOL    HW1 7661   0.346   1.981   9.460
 2365SOL    HW2 7662   0.359   1.832   9.526
 2366SOL     OW 7663   0.935   2.098   9.790
 2366SOL    HW1 7664   0.887   2.139   9.712
 2366SOL    HW2 7665   1.034   2.096   9.771
 2367SOL     OW 7666   1.076   2.545  10.774
 2367SOL    HW1 7667   0.996   2.484  10.777
 2367SOL    HW2 7668   1.157   2.492  10.750
 2368SOL     OW 7669   1.227   3.432  10.103
 2368SOL    HW1 7670   1.248   3.506  10.038
 2368SOL    HW2 7671   1.295   3.432  10.176
 2369SOL     OW 7672   0.459   3.014  10.051
 2369SOL    HW1 7673   0.388   2.987  10.116
 2369SOL    HW2 7674   0.433   2.986   9.958
 2370SOL     OW 7675   1.271   3.659   9.901
 2370SOL    HW1 7676   1.315   3.723   9.837
 2370SOL    HW2 7677   1.221   3.711   9.971
 2371SOL     OW 7678   1.032   2.411   9.326
 2371SOL    HW1 7679   0.991   2.493   9.287
 2371SOL    HW2 7680   1.096   2.437   9.399
 2372SOL     OW 7681   0.078   2.418  10.696
 2372SOL    HW1 7682   0.170   2.417  10.655
 2372SOL    HW2 7683   0.072   2.492  10.763
 2373SOL     OW 7684   0.561   2.084  10.457
 2373SOL    HW1 7685   0.599   2.000  10.494
 2373SOL    HW2 7686   0.473   2.103  10.501
 2374SOL     OW 7687   0.866   2.316   9.952
 2374SOL    HW1 7688   0.834   2.388   9.890
 2374SOL    HW2 7689   0.890   2.235   9.899
 2375SOL     OW 7690   1.017   1.901  10.063
 2375SOL    HW1 7691   0.945   1.906   9.994
 2375SOL    HW2 7692   0.993   1.832  10.132
 2376SOL     OW 7693   1.429   3.035  10.177
 2376SOL    HW1 7694   1.374   2.951  10.170
 2376SOL    HW2 7695   1.455   3.064  10.085
 2377SOL     OW 7696   1.466   2.452  10.302
 2377SOL    HW1 7697   1.436   2.357  10.309
 2377SOL    HW2 7698   1.539   2.468  10.368
 2378SOL     OW 7699   1.857   2.695   9.687
 2378SOL    HW1 7700   1.899   2.631   9.751
 2378SOL    HW2 7701   1.819   2.644   9.609
 2379SOL     OW 7702   0.488   3.247   9.484
 2379SOL    HW1 7703   0.401   3.232   9.531
 2379SOL    HW2 7704   0.471   3.273   9.389
 2380SOL     OW 7705   1.664   3.142   9.967
 2380SOL    HW1 7706   1.763   3.150   9.981
 2380SOL    HW2 7707   1.619   3.226   9.998
 2381SOL     OW 7708   1.390   2.437   9.388
 2381SOL    HW1 7709   1.336   2.416   9.469
 2381SOL    HW2 7710   1.481   2.396   9.397
 2382SOL     OW 7711   0.527   2.118   9.638
 2382SOL    HW1 7712   0.554   2.059   9.563
 2382SOL    HW2 7713   0.527   2.213   9.607
 2383SOL     OW 7714   1.754   3.085  10.898
 2383SOL    HW1 7715   1.845   3.046  10.885
 2383SOL    HW2 7716   1.762   3.181  10.922
 2384SOL     OW 7717   1.064   3.209  10.650
 2384SOL    HW1 7718   0.984   3.186  10.705
 2384SOL    HW2 7719   1.147   3.183  10.699
 2385SOL     OW 7720   1.111   3.057  10.410
 2385SOL    HW1 7721   1.071   3.101  10.491
 2385SOL    HW2 7722   1.070   3.094  10.327
 2386SOL     OW 7723   1.638   2.961  10.389
 2386SOL    HW1 7724   1.643   3.042  10.448
 2386SOL    HW2 7725   1.552   2.963  10.338
 2387SOL     OW 7726   0.915   1.951  10.712
 2387SOL    HW1 7727   0.940   1.931  10.617
 2387SOL    HW2 7728   0.987   2.007  10.754
 2388SOL     OW 7729   0.705   2.912   9.678
 2388SOL    HW1 7730   0.691   2.919   9.777
 2388SOL    HW2 7731   0.789   2.861   9.660
 2389SOL     OW 7732   0.410   2.675  10.561
 2389SOL    HW1 7733   0.496   2.687  10.611
 2389SOL    HW2 7734   0.368   2.588  10.588
 2390SOL     OW 7735   1.274   2.248  10.572
 2390SOL    HW1 7736   1.295   2.322  10.636
 2390SOL    HW2 7737   1.185   2.265  10.529
 2391SOL     OW 7738   0.064   3.426  10.641
 2391SOL    HW1 7739   0.018   3.508  10.607
 2391SOL    HW2 7740   0.162   3.445  10.650
 2392SOL     OW 7741   0.367   2.962   9.811
 2392SOL    HW1 7742   0.360   3.045   9.755
 2392SOL    HW2 7743   0.371   2.882   9.751
 2393SOL     OW 7744   0.566   2.399  10.175
 2393SOL    HW1 7745   0.578   2.465  10.101
 2393SOL    HW2 7746   0.612   2.433  10.258
 2394SOL     OW 7747   1.252   3.210   9.698
 2394SOL    HW1 7748   1.302   3.287   9.738
 2394SOL    HW2 7749   1.157   3.212   9.730
 2395SOL     OW 7750   1.272   3.307  10.452
 2395SOL    HW1 7751   1.319   3.320  10.539
 2395SOL    HW2 7752   1.206   3.233  10.461
 2396SOL     OW 7753   1.582   2.501   9.782
 2396SOL    HW1 7754   1.551   2.562   9.855
 2396SOL    HW2 7755   1.632   2.553   9.713
 2397SOL     OW 7756   0.354   3.372  10.639
 2397SOL    HW1 7757   0.333   3.328  10.552
 2397SOL    HW2 7758   0.451   3.398  10.642
 2398SOL     OW 7759   0.402   2.613  10.908
 2398SOL    HW1 7760   0.470   2.668  10.861
 2398SOL    HW2 7761   0.442   2.525  10.935
 2399SOL     OW 7762   1.587   2.641  10.980
 2399SOL    HW1 7763   1.495   2.679  10.975
 2399SOL    HW2 7764   1.647   2.688  10.915
 2400SOL     OW 7765   0.573   2.732  10.339
 2400SOL    HW1 7766   0.617   2.821  10.330
 2400SOL    HW2 7767   0.510   2.732  10.416
 2401SOL     OW 7768   1.360   2.724  10.355
 2401SOL    HW1 7769   1.285   2.724  10.289
 2401SOL    HW2 7770   1.397   2.632  10.364
 2402SOL     OW 7771   1.209   2.387   9.585
 2402SOL    HW1 7772   1.222   2.303   9.639
 2402SOL    HW2 7773   1.180   2.461   9.645
 2403SOL     OW 7774   0.307   2.075  10.541
 2403SOL    HW1 7775   0.284   2.112  10.631
 2403SOL    HW2 7776   0.277   1.980  10.535
 2404SOL     OW 7777   0.037   3.172  10.592
 2404SOL    HW1 7778   0.090   3.123  10.660
 2404SOL    HW2 7779   0.059   3.270  10.597
 2405SOL     OW 7780   0.732   2.496  10.374
 2405SOL    HW1 7781   0.791   2.470  10.298
 2405SOL    HW2 7782   0.704   2.592  10.363
 2406SOL     OW 7783   0.307   1.925   9.928
 2406SOL    HW1 7784   0.296   2.019   9.961
 2406SOL    HW2 7785   0.302   1.862  10.005
 2407SOL     OW 7786   1.622   2.229   9.684
 2407SOL    HW1 7787   1.624   2.153   9.748
 2407SOL    HW2 7788   1.574   2.306   9.724
 2408SOL     OW 7789   1.023   2.628  10.276
 2408SOL    HW1 7790   1.038   2.649  10.372
 2408SOL    HW2 7791   0.993   2.533  10.267
 2409SOL     OW 7792   0.980   3.435  11.010
 2409SOL    HW1 7793   0.960   3.479  10.922
 2409SOL    HW2 7794   1.019   3.344  10.994
 2410SOL     OW 7795   1.859   3.380  10.915
 2410SOL    HW1 7796   1.873   3.407  10.820
 2410SOL    HW2 7797   1.942   3.402  10.968
 2411SOL     OW 7798   0.350   2.760  11.114
 2411SOL    HW1 7799   0.426   2.804  11.162
 2411SOL    HW2 7800   0.385   2.713  11.032
 2412SOL     OW 7801   1.540   2.136   9.435
 2412SOL    HW1 7802   1.479   2.061   9.458
 2412SOL    HW2 7803   1.562   2.188   9.518
 2413SOL     OW 7804   1.303   2.700   9.352
 2413SOL    HW1 7805   1.337   2.607   9.367
 2413SOL    HW2 7806   1.321   2.727   9.257
 2414SOL     OW 7807   1.068   3.195  10.159
 2414SOL    HW1 7808   1.075   3.111  10.104
 2414SOL    HW2 7809   1.130   3.264  10.123
 2415SOL     OW 7810   0.319   2.672  10.259
 2415SOL    HW1 7811   0.412   2.708  10.264
 2415SOL    HW2 7812   0.313   2.587  10.311
 2416SOL     OW 7813   0.339   2.371  10.316
 2416SOL    HW1 7814   0.287   2.288  10.299
 2416SOL    HW2 7815   0.416   2.376  10.252
 2417SOL     OW 7816   1.160   2.069  10.787
 2417SOL    HW1 7817   1.160   2.133  10.864
 2417SOL    HW2 7818   1.188   2.117  10.704
 2418SOL     OW 7819   0.008   3.188   9.510
 2418SOL    HW1 7820  -0.085   3.209   9.479
 2418SOL    HW2 7821   0.018   3.089   9.523
 2419SOL     OW 7822   0.088   3.663  10.237
 2419SOL    HW1 7823   0.046   3.577  10.210
 2419SOL    HW2 7824   0.182   3.666  10.203
 2420SOL     OW 7825   0.504   3.430  10.220
 2420SOL    HW1 7826   0.570   3.504  10.229
 2420SOL    HW2 7827   0.548   3.351  10.178
 2421SOL     OW 7828   1.002   2.658  10.548
 2421SOL    HW1 7829   1.043   2.626  10.634
 2421SOL    HW2 7830   0.906   2.631  10.545
 2422SOL     OW 7831   0.040   2.406  10.424
 2422SOL    HW1 7832   0.125   2.373  10.383
 2422SOL    HW2 7833   0.053   2.421  10.522
 2423SOL     OW 7834   0.815   2.434   9.635
 2423SOL    HW1 7835   0.822   2.345   9.589
 2423SOL    HW2 7836   0.721   2.468   9.627
 2424SOL     OW 7837   1.657   2.466  10.516
 2424SOL    HW1 7838   1.619   2.397  10.578
 2424SOL    HW2 7839   1.739   2.430  10.472
 2425SOL     OW 7840   0.252   3.426  11.054
 2425SOL    HW1 7841   0.222   3.483  11.130
 2425SOL    HW2 7842   0.245   3.329  11.080
 2426SOL     OW 7843   0.671   2.326  10.579
 2426SOL    HW1 7844   0.637   2.237  10.549
 2426SOL    HW2 7845   0.697   2.380  10.499
 2427SOL     OW 7846   0.930   3.540  10.775
 2427SOL    HW1 7847   0.906   3.522  10.680
 2427SOL    HW2 7848   0.960   3.634  10.785
 2428SOL     OW 7849   0.473   2.362   9.501
 2428SOL    HW1 7850   0.534   2.442   9.505
 2428SOL    HW2 7851   0.378   2.393   9.508
 2429SOL     OW 7852   0.159   2.999  10.776
 2429SOL    HW1 7853   0.181   2.938  10.852
 2429SOL    HW2 7854   0.169   2.950  10.690
 2430SOL     OW 7855   1.347   2.921  10.544
 2430SOL    HW1 7856   1.371   2.858  10.470
 2430SOL    HW2 7857   1.257   2.961  10.526
 2431SOL     OW 7858   1.302   2.717   9.619
 2431SOL    HW1 7859   1.216   2.686   9.661
 2431SOL    HW2 7860   1.298   2.703   9.520
 2432SOL     OW 7861   1.759   3.609  10.464
 2432SOL    HW1 7862   1.820   3.639  10.391
 2432SOL    HW2 7863   1.721   3.520  10.442
 2433SOL     OW 7864   1.252   3.593  10.438
 2433SOL    HW1 7865   1.336   3.598  10.384
 2433SOL    HW2 7866   1.229   3.497  10.456
 2434SOL     OW 7867   0.083   3.120  10.332
 2434SOL    HW1 7868   0.078   3.119  10.432
 2434SOL    HW2 7869   0.000   3.079  10.294
 2435SOL     OW 7870   1.726   1.997   9.833
 2435SOL    HW1 7871   1.799   1.980   9.766
 2435SOL    HW2 7872   1.695   1.910   9.871
 2436SOL     OW 7873   1.388   3.435   9.787
 2436SOL    HW1 7874   1.455   3.447   9.713
 2436SOL    HW2 7875   1.348   3.524   9.810
 2437SOL     OW 7876   1.280   2.789   9.982
 2437SOL    HW1 7877   1.340   2.708   9.984
 2437SOL    HW2 7878   1.320   2.858   9.922
 2438SOL     OW 7879   0.830   3.135  10.732
 2438SOL    HW1 7880   0.825   3.168  10.827
 2438SOL    HW2 7881   0.744   3.154  10.686
 2439SOL     OW 7882   0.672   3.478   9.464
 2439SOL    HW1 7883   0.681   3.488   9.365
 2439SOL    HW2 7884   0.632   3.389   9.485
 2440SOL     OW 7885   1.650   3.582  10.704
 2440SOL    HW1 7886   1.703   3.592  10.620
 2440SOL    HW2 7887   1.623   3.672  10.738
 2441SOL     OW 7888   1.841   2.037  10.273
 2441SOL    HW1 7889   1.880   1.952  10.237
 2441SOL    HW2 7890   1.743   2.039  10.254
 2442SOL     OW 7891   0.263   2.188  10.030
 2442SOL    HW1 7892   0.184   2.239   9.996
 2442SOL    HW2 7893   0.254   2.173  10.128
 2443SOL     OW 7894   1.194   3.474   9.341
 2443SOL    HW1 7895   1.200   3.381   9.378
 2443SOL    HW2 7896   1.135   3.474   9.261
 2444SOL     OW 7897   0.822   2.864  10.682
 2444SOL    HW1 7898   0.862   2.863  10.590
 2444SOL    HW2 7899   0.832   2.956  10.722
 2445SOL     OW 7900   0.916   2.772   9.601
 2445SOL    HW1 7901   0.979   2.810   9.533
 2445SOL    HW2 7902   0.956   2.689   9.640
 2446SOL     OW 7903   1.504   3.469   9.354
 2446SOL    HW1 7904   1.412   3.506   9.361
 2446SOL    HW2 7905   1.542   3.489   9.264
 2447SOL     OW 7906   0.372   3.150  10.800
 2447SOL    HW1 7907   0.359   3.243  10.766
 2447SOL    HW2 7908   0.288   3.098  10.787
 2448SOL     OW 7909   1.614   3.154  10.599
 2448SOL    HW1 7910   1.674   3.157  10.679
 2448SOL    HW2 7911   1.539   3.218  10.612
 2449SOL     OW 7912   1.039   2.960  10.006
 2449SOL    HW1 7913   0.969   2.913  10.060
 2449SOL    HW2 7914   1.098   2.892   9.963
 2450SOL     OW 7915   1.014   2.098  10.281
 2450SOL    HW1 7916   1.006   2.062  10.188
 2450SOL    HW2 7917   1.012   2.022  10.346
 2451SOL     OW 7918   0.590   3.349   9.801
 2451SOL    HW1 7919   0.632   3.291   9.731
 2451SOL    HW2 7920   0.546   3.428   9.757
 2452SOL     OW 7921   1.709   2.247  10.691
 2452SOL    HW1 7922   1.782   2.316  10.695
 2452SOL    HW2 7923   1.737   2.172  10.632
 2453SOL     OW 7924   0.255   3.210   9.600
 2453SOL    HW1 7925   0.159   3.211   9.573
 2453SOL    HW2 7926   0.267   3.263   9.684
 2454SOL     OW 7927   0.105   2.875  11.036
 2454SOL    HW1 7928   0.028   2.842  11.090
 2454SOL    HW2 7929   0.190   2.845  11.078
 2455SOL     OW 7930   0.672   2.065  10.799
 2455SOL    HW1 7931   0.762   2.049  10.759
 2455SOL    HW2 7932   0.680   2.070  10.898
 2456SOL     OW 7933   0.075   2.207   9.343
 2456SOL    HW1 7934  -0.017   2.179   9.314
 2456SOL    HW2 7935   0.106   2.284   9.287
 2457SOL     OW 7936   1.440   2.718  10.708
 2457SOL    HW1 7937   1.383   2.770  10.645
 2457SOL    HW2 7938   1.536   2.730  10.684
 2458SOL     OW 7939   0.072   2.028   9.628
 2458SOL    HW1 7940   0.055   2.111   9.574
 2458SOL    HW2 7941   0.162   1.991   9.606
 2459SOL     OW 7942   1.183   3.197   9.429
 2459SOL    HW1 7943   1.084   3.186   9.431
 2459SOL    HW2 7944   1.217   3.212   9.522
 2460SOL     OW 7945   0.613   2.704  10.741
 2460SOL    HW1 7946   0.669   2.785  10.724
 2460SOL    HW2 7947   0.672   2.624  10.744
 2461SOL     OW 7948   1.493   3.629  10.269
 2461SOL    HW1 7949   1.526   3.693  10.200
 2461SOL    HW2 7950   1.559   3.623  10.344
 2462SOL     OW 7951   0.716   2.427  11.018
 2462SOL    HW1 7952   0.735   2.492  11.092
 2462SOL    HW2 7953   0.776   2.347  11.027
 2463SOL     OW 7954   0.390   3.603  10.870
 2463SOL    HW1 7955   0.299   3.644  10.868
 2463SOL    HW2 7956   0.383   3.509  10.902
 2464SOL     OW 7957   1.674   2.745  10.564
 2464SOL    HW1 7958   1.647   2.656  10.527
 2464SOL    HW2 7959   1.675   2.813  10.491
 2465SOL     OW 7960   1.225   2.187   9.759
 2465SOL    HW1 7961   1.290   2.113   9.748
 2465SOL    HW2 7962   1.245   2.237   9.843
 2466SOL     OW 7963   0.594   2.607   9.962
 2466SOL    HW1 7964   0.644   2.692   9.943
 2466SOL    HW2 7965   0.506   2.609   9.914
 2467SOL     OW 7966   1.777   2.204  10.952
 2467SOL    HW1 7967   1.760   2.235  10.858
 2467SOL    HW2 7968   1.693   2.167  10.990
 2468SOL     OW 7969   1.730   2.796  10.827
 2468SOL    HW1 7970   1.768   2.887  10.842
 2468SOL    HW2 7971   1.722   2.779  10.728
 2469SOL     OW 7972   0.859   3.236   9.326
 2469SOL    HW1 7973   0.813   3.251   9.414
 2469SOL    HW2 7974   0.903   3.321   9.296
 2470SOL     OW 7975   0.661   3.652  10.263
 2470SOL    HW1 7976   0.615   3.740  10.250
 2470SOL    HW2 7977   0.760   3.664  10.256
 2471SOL     OW 7978   0.859   2.818  10.171
 2471SOL    HW1 7979   0.913   2.749  10.219
 2471SOL    HW2 7980   0.827   2.887  10.237
 2472SOL     OW 7981   1.083   2.846   9.397
 2472SOL    HW1 7982   1.060   2.899   9.315
 2472SOL    HW2 7983   1.164   2.790   9.378
 2473SOL     OW 7984   1.861   3.431  10.161
 2473SOL    HW1 7985   1.790   3.419  10.091
 2473SOL    HW2 7986   1.862   3.352  10.221
 2474SOL     OW 7987   0.079   3.102   9.963
 2474SOL    HW1 7988   0.078   3.055  10.051
 2474SOL    HW2 7989   0.161   3.074   9.912
 2475SOL     OW 7990   0.672   3.253  10.934
 2475SOL    HW1 7991   0.594   3.203  10.972
 2475SOL    HW2 7992   0.669   3.348  10.965
 2476SOL     OW 7993   1.824   2.054  10.537
 2476SOL    HW1 7994   1.820   1.964  10.581
 2476SOL    HW2 7995   1.827   2.043  10.438
 2477SOL     OW 7996   0.428   2.286   9.830
 2477SOL    HW1 7997   0.458   2.214   9.768
 2477SOL    HW2 7998   0.389   2.246   9.913
 2478SOL     OW 7999   1.705   3.349  10.414
 2478SOL    HW1 8000   1.612   3.324  10.387
 2478SOL    HW2 8001   1.731   3.299  10.496
 2479SOL     OW 8002   0.317   2.409  10.590
 2479SOL    HW1 8003   0.355   2.350  10.662
 2479SOL    HW2 8004   0.357   2.383  10.502
 2480SOL     OW 8005   0.812   3.448   9.997
 2480SOL    HW1 8006   0.844   3.458   9.903
 2480SOL    HW2 8007   0.733   3.386   9.999
 2481SOL     OW 8008   1.424   2.076  10.422
 2481SOL    HW1 8009   1.476   2.011  10.477
 2481SOL    HW2 8010   1.375   2.139  10.483
 2482SOL     OW 8011   1.001   1.896  10.464
 2482SOL    HW1 8012   0.938   1.824  10.433
 2482SOL    HW2 8013   1.094   1.860  10.464
 2483SOL     OW 8014   0.770   3.192   9.611
 2483SOL    HW1 8015   0.724   3.105   9.628
 2483SOL    HW2 8016   0.861   3.189   9.652
 2484SOL     OW 8017   0.618   3.429  10.594
 2484SOL    HW1 8018   0.613   3.511  10.651
 2484SOL    HW2 8019   0.707   3.426  10.549
 2485SOL     OW 8020   1.352   1.914   9.478
 2485SOL    HW1 8021   1.387   1.873   9.394
 2485SOL    HW2 8022   1.262   1.876   9.498
 2486SOL     OW 8023   1.300   2.315  10.001
 2486SOL    HW1 8024   1.241   2.395  10.005
 2486SOL    HW2 8025   1.315   2.280  10.094
 2487SOL     OW 8026   1.593   2.083  10.192
 2487SOL    HW1 8027   1.509   2.082  10.246
 2487SOL    HW2 8028   1.595   2.166  10.136
 2488SOL     OW 8029   0.039   2.939   9.610
 2488SOL    HW1 8030   0.138   2.928   9.601
 2488SOL    HW2 8031  -0.001   2.853   9.642
 2489SOL     OW 8032   0.875   3.508   9.647
 2489SOL    HW1 8033   0.798   3.473   9.593
 2489SOL    HW2 8034   0.843   3.579   9.709
 2490SOL     OW 8035   0.230   4.352   0.113
 2490SOL    HW1 8036   0.137   4.350   0.150
 2490SOL    HW2 8037   0.231   4.313   0.021
 2491SOL     OW 8038   0.225   3.999   0.996
 2491SOL    HW1 8039   0.260   3.982   1.088
 2491SOL    HW2 8040   0.137   3.954   0.984
 2492SOL     OW 8041   0.019   4.092   0.647
 2492SOL    HW1 8042  -0.063   4.135   0.686
 2492SOL    HW2 8043  -0.009   4.019   0.584
 2493SOL     OW 8044   1.755   4.331   0.231
 2493SOL    HW1 8045   1.743   4.318   0.132
 2493SOL    HW2 8046   1.725   4.250   0.280
 2494SOL     OW 8047   0.685   4.736   0.665
 2494SOL    HW1 8048   0.754   4.720   0.735
 2494SOL    HW2 8049   0.612   4.793   0.703
 2495SOL     OW 8050   0.438   4.116   1.499
 2495SOL    HW1 8051   0.520   4.060   1.508
 2495SOL    HW2 8052   0.357   4.058   1.503
 2496SOL     OW 8053   1.603   4.171   0.737
 2496SOL    HW1 8054   1.529   4.217   0.687
 2496SOL    HW2 8055   1.654   4.239   0.790
 2497SOL     OW 8056   1.594   3.838   1.480
 2497SOL    HW1 8057   1.576   3.905   1.408
 2497SOL    HW2 8058   1.591   3.884   1.569
 2498SOL     OW 8059   0.122   4.367   0.563
 2498SOL    HW1 8060   0.077   4.279   0.580
 2498SOL    HW2 8061   0.121   4.421   0.647
 2499SOL     OW 8062   0.113   4.461   1.597
 2499SOL    HW1 8063   0.201   4.448   1.642
 2499SOL    HW2 8064   0.100   4.558   1.575
 2500SOL     OW 8065   0.809   3.728   0.502
 2500SOL    HW1 8066   0.849   3.819   0.493
 2500SOL    HW2 8067   0.709   3.736   0.508
 2501SOL     OW 8068   0.317   3.975   1.801
 2501SOL    HW1 8069   0.388   4.046   1.807
 2501SOL    HW2 8070   0.229   4.014   1.829
 2502SOL     OW 8071   1.281   4.069   0.944
 2502SOL    HW1 8072   1.195   4.019   0.931
 2502SOL    HW2 8073   1.343   4.015   1.000
 2503SOL     OW 8074   0.807   4.329   1.465
 2503SOL    HW1 8075   0.760   4.326   1.554
 2503SOL    HW2 8076   0.756   4.274   1.399
 2504SOL     OW 8077   1.394   4.193   1.674
 2504SOL    HW1 8078   1.374   4.236   1.762
 2504SOL    HW2 8079   1.472   4.131   1.683
 2505SOL     OW 8080   0.991   4.134   1.242
 2505SOL    HW1 8081   0.914   4.168   1.296
 2505SOL    HW2 8082   0.957   4.083   1.163
 2506SOL     OW 8083   1.041   4.425   0.429
 2506SOL    HW1 8084   1.067   4.421   0.525
 2506SOL    HW2 8085   0.956   4.374   0.415
 2507SOL     OW 8086   0.076   4.535   0.789
 2507SOL    HW1 8087   0.175   4.523   0.798
 2507SOL    HW2 8088   0.052   4.630   0.810
 2508SOL     OW 8089   0.865   4.072   0.195
 2508SOL    HW1 8090   0.924   4.135   0.146
 2508SOL    HW2 8091   0.884   3.978   0.166
 2509SOL     OW 8092   1.719   4.309   1.831
 2509SOL    HW1 8093   1.693   4.398   1.795
 2509SOL    HW2 8094   1.717   4.241   1.758
 2510SOL     OW 8095   0.550   3.920   0.885
 2510SOL    HW1 8096   0.545   3.915   0.985
 2510SOL    HW2 8097   0.552   4.016   0.856
 2511SOL     OW 8098   1.458   4.459   0.728
 2511SOL    HW1 8099   1.453   4.394   0.803
 2511SOL    HW2 8100   1.538   4.518   0.741
 2512SOL     OW 8101   0.202   4.009   1.498
 2512SOL    HW1 8102   0.122   4.069   1.485
 2512SOL    HW2 8103   0.192   3.960   1.584
 2513SOL     OW 8104   1.400   3.831   0.426
 2513SOL    HW1 8105   1.376   3.794   0.336
 2513SOL    HW2 8106   1.499   3.847   0.430
 2514SOL     OW 8107   0.382   4.424   0.480
 2514SOL    HW1 8108   0.427   4.334   0.477
 2514SOL    HW2 8109   0.288   4.413   0.513
 2515SOL     OW 8110   1.547   3.946   1.729
 2515SOL    HW1 8111   1.542   3.983   1.821
 2515SOL    HW2 8112   1.475   3.877   1.717
 2516SOL     OW 8113   0.614   3.846   0.117
 2516SOL    HW1 8114   0.712   3.824   0.124
 2516SOL    HW2 8115   0.583   3.829   0.024
 2517SOL     OW 8116   0.781   3.988   1.749
 2517SOL    HW1 8117   0.848   3.927   1.792
 2517SOL    HW2 8118   0.708   4.007   1.814
 2518SOL     OW 8119   1.351   4.314   1.433
 2518SOL    HW1 8120   1.379   4.271   1.518
 2518SOL    HW2 8121   1.376   4.410   1.434
 2519SOL     OW 8122   0.922   4.227   0.899
 2519SOL    HW1 8123   0.897   4.218   0.803
 2519SOL    HW2 8124   0.970   4.145   0.930
 2520SOL     OW 8125   0.539   3.788   0.512
 2520SOL    HW1 8126   0.458   3.789   0.570
 2520SOL    HW2 8127   0.542   3.871   0.457
 2521SOL     OW 8128   0.297   3.759   0.171
 2521SOL    HW1 8129   0.346   3.843   0.150
 2521SOL    HW2 8130   0.359   3.694   0.216
 2522SOL     OW 8131   0.935   3.960   0.480
 2522SOL    HW1 8132   0.887   4.001   0.402
 2522SOL    HW2 8133   1.034   3.958   0.461
 2523SOL     OW 8134   1.076   4.407   1.464
 2523SOL    HW1 8135   0.996   4.346   1.467
 2523SOL    HW2 8136   1.157   4.354   1.440
 2524SOL     OW 8137   1.032   4.273   0.016
 2524SOL    HW1 8138   0.991   4.355  -0.023
 2524SOL    HW2 8139   1.096   4.299   0.089
 2525SOL     OW 8140   0.078   4.280   1.386
 2525SOL    HW1 8141   0.170   4.279   1.345
 2525SOL    HW2 8142   0.072   4.354   1.453
 2526SOL     OW 8143   0.561   3.946   1.147
 2526SOL    HW1 8144   0.599   3.862   1.184
 2526SOL    HW2 8145   0.473   3.965   1.191
 2527SOL     OW 8146   0.866   4.178   0.642
 2527SOL    HW1 8147   0.834   4.250   0.580
 2527SOL    HW2 8148   0.890   4.097   0.589
 2528SOL     OW 8149   1.017   3.763   0.753
 2528SOL    HW1 8150   0.945   3.768   0.684
 2528SOL    HW2 8151   0.993   3.694   0.822
 2529SOL     OW 8152   1.466   4.314   0.992
 2529SOL    HW1 8153   1.436   4.219   0.999
 2529SOL    HW2 8154   1.539   4.330   1.058
 2530SOL     OW 8155   1.390   4.299   0.078
 2530SOL    HW1 8156   1.336   4.278   0.159
 2530SOL    HW2 8157   1.481   4.258   0.087
 2531SOL     OW 8158   0.527   3.980   0.328
 2531SOL    HW1 8159   0.554   3.921   0.253
 2531SOL    HW2 8160   0.527   4.075   0.297
 2532SOL     OW 8161   0.915   3.813   1.402
 2532SOL    HW1 8162   0.940   3.793   1.307
 2532SOL    HW2 8163   0.987   3.869   1.444
 2533SOL     OW 8164   0.410   4.537   1.251
 2533SOL    HW1 8165   0.496   4.549   1.301
 2533SOL    HW2 8166   0.368   4.450   1.278
 2534SOL     OW 8167   1.274   4.110   1.262
 2534SOL    HW1 8168   1.295   4.184   1.326
 2534SOL    HW2 8169   1.185   4.127   1.219
 2535SOL     OW 8170   0.566   4.261   0.865
 2535SOL    HW1 8171   0.578   4.327   0.791
 2535SOL    HW2 8172   0.612   4.295   0.948
 2536SOL     OW 8173   1.582   4.363   0.472
 2536SOL    HW1 8174   1.551   4.424   0.545
 2536SOL    HW2 8175   1.632   4.415   0.403
 2537SOL     OW 8176   1.013   3.829   1.770
 2537SOL    HW1 8177   1.019   3.914   1.718
 2537SOL    HW2 8178   1.045   3.753   1.713
 2538SOL     OW 8179   0.504   3.774   1.740
 2538SOL    HW1 8180   0.462   3.717   1.670
 2538SOL    HW2 8181   0.438   3.843   1.772
 2539SOL     OW 8182   1.209   4.249   0.275
 2539SOL    HW1 8183   1.222   4.165   0.329
 2539SOL    HW2 8184   1.180   4.323   0.335
 2540SOL     OW 8185   0.307   3.937   1.231
 2540SOL    HW1 8186   0.284   3.974   1.321
 2540SOL    HW2 8187   0.277   3.842   1.225
 2541SOL     OW 8188   0.732   4.358   1.064
 2541SOL    HW1 8189   0.791   4.332   0.988
 2541SOL    HW2 8190   0.704   4.454   1.053
 2542SOL     OW 8191   1.728   4.659   1.854
 2542SOL    HW1 8192   1.682   4.652   1.765
 2542SOL    HW2 8193   1.666   4.703   1.920
 2543SOL     OW 8194   0.307   3.787   0.618
 2543SOL    HW1 8195   0.296   3.881   0.651
 2543SOL    HW2 8196   0.302   3.724   0.695
 2544SOL     OW 8197   1.622   4.091   0.374
 2544SOL    HW1 8198   1.624   4.015   0.438
 2544SOL    HW2 8199   1.574   4.168   0.414
 2545SOL     OW 8200   1.540   3.998   0.125
 2545SOL    HW1 8201   1.479   3.923   0.148
 2545SOL    HW2 8202   1.562   4.050   0.208
 2546SOL     OW 8203   0.319   4.534   0.949
 2546SOL    HW1 8204   0.412   4.570   0.954
 2546SOL    HW2 8205   0.313   4.449   1.001
 2547SOL     OW 8206   0.339   4.233   1.006
 2547SOL    HW1 8207   0.287   4.150   0.989
 2547SOL    HW2 8208   0.416   4.238   0.942
 2548SOL     OW 8209   1.138   4.104   1.678
 2548SOL    HW1 8210   1.093   4.167   1.742
 2548SOL    HW2 8211   1.231   4.135   1.661
 2549SOL     OW 8212   1.160   3.931   1.477
 2549SOL    HW1 8213   1.160   3.995   1.554
 2549SOL    HW2 8214   1.188   3.979   1.394
 2550SOL     OW 8215   0.040   4.268   1.114
 2550SOL    HW1 8216   0.125   4.235   1.073
 2550SOL    HW2 8217   0.053   4.283   1.212
 2551SOL     OW 8218   0.189   4.244   1.722
 2551SOL    HW1 8219   0.248   4.204   1.652
 2551SOL    HW2 8220   0.131   4.315   1.681
 2552SOL     OW 8221   0.815   4.296   0.325
 2552SOL    HW1 8222   0.822   4.207   0.279
 2552SOL    HW2 8223   0.721   4.330   0.317
 2553SOL     OW 8224   1.657   4.328   1.206
 2553SOL    HW1 8225   1.619   4.259   1.268
 2553SOL    HW2 8226   1.739   4.292   1.162
 2554SOL     OW 8227   0.671   4.188   1.269
 2554SOL    HW1 8228   0.637   4.099   1.239
 2554SOL    HW2 8229   0.697   4.242   1.189
 2555SOL     OW 8230   0.473   4.224   0.191
 2555SOL    HW1 8231   0.534   4.304   0.195
 2555SOL    HW2 8232   0.378   4.255   0.198
 2556SOL     OW 8233   0.903   3.810   0.133
 2556SOL    HW1 8234   0.954   3.811   0.047
 2556SOL    HW2 8235   0.959   3.768   0.204
 2557SOL     OW 8236   1.726   3.859   0.523
 2557SOL    HW1 8237   1.799   3.842   0.456
 2557SOL    HW2 8238   1.695   3.772   0.561
 2558SOL     OW 8239   1.280   4.651   0.672
 2558SOL    HW1 8240   1.340   4.570   0.674
 2558SOL    HW2 8241   1.320   4.720   0.612
 2559SOL     OW 8242   1.841   3.899   0.963
 2559SOL    HW1 8243   1.880   3.814   0.927
 2559SOL    HW2 8244   1.743   3.901   0.944
 2560SOL     OW 8245   0.263   4.050   0.720
 2560SOL    HW1 8246   0.184   4.101   0.686
 2560SOL    HW2 8247   0.254   4.035   0.818
 2561SOL     OW 8248   1.039   4.822   0.696
 2561SOL    HW1 8249   0.969   4.775   0.750
 2561SOL    HW2 8250   1.098   4.754   0.653
 2562SOL     OW 8251   1.014   3.960   0.971
 2562SOL    HW1 8252   1.006   3.924   0.878
 2562SOL    HW2 8253   1.012   3.884   1.036
 2563SOL     OW 8254   1.709   4.109   1.381
 2563SOL    HW1 8255   1.782   4.178   1.385
 2563SOL    HW2 8256   1.737   4.034   1.322
 2564SOL     OW 8257   0.672   3.927   1.489
 2564SOL    HW1 8258   0.762   3.911   1.449
 2564SOL    HW2 8259   0.680   3.932   1.588
 2565SOL     OW 8260   0.075   4.069   0.033
 2565SOL    HW1 8261  -0.017   4.041   0.004
 2565SOL    HW2 8262   0.106   4.146  -0.023
 2566SOL     OW 8263   0.072   3.890   0.318
 2566SOL    HW1 8264   0.055   3.973   0.264
 2566SOL    HW2 8265   0.162   3.853   0.296
 2567SOL     OW 8266   0.716   4.289   1.708
 2567SOL    HW1 8267   0.735   4.354   1.782
 2567SOL    HW2 8268   0.776   4.209   1.717
 2568SOL     OW 8269   1.225   4.049   0.449
 2568SOL    HW1 8270   1.290   3.975   0.438
 2568SOL    HW2 8271   1.245   4.099   0.533
 2569SOL     OW 8272   1.777   4.066   1.642
 2569SOL    HW1 8273   1.760   4.097   1.548
 2569SOL    HW2 8274   1.693   4.029   1.680
 2570SOL     OW 8275   1.083   4.708   0.087
 2570SOL    HW1 8276   1.060   4.761   0.005
 2570SOL    HW2 8277   1.164   4.652   0.068
 2571SOL     OW 8278   1.824   3.916   1.227
 2571SOL    HW1 8279   1.820   3.826   1.271
 2571SOL    HW2 8280   1.827   3.905   1.128
 2572SOL     OW 8281   0.428   4.148   0.520
 2572SOL    HW1 8282   0.458   4.076   0.458
 2572SOL    HW2 8283   0.389   4.108   0.603
 2573SOL     OW 8284   0.317   4.271   1.280
 2573SOL    HW1 8285   0.355   4.212   1.352
 2573SOL    HW2 8286   0.357   4.245   1.192
 2574SOL     OW 8287   1.424   3.938   1.112
 2574SOL    HW1 8288   1.476   3.873   1.167
 2574SOL    HW2 8289   1.375   4.001   1.173
 2575SOL     OW 8290   1.001   3.758   1.154
 2575SOL    HW1 8291   0.938   3.686   1.123
 2575SOL    HW2 8292   1.094   3.722   1.154
 2576SOL     OW 8293   1.352   3.776   0.168
 2576SOL    HW1 8294   1.387   3.735   0.084
 2576SOL    HW2 8295   1.262   3.738   0.188
 2577SOL     OW 8296   1.300   4.177   0.691
 2577SOL    HW1 8297   1.241   4.257   0.695
 2577SOL    HW2 8298   1.315   4.142   0.784
 2578SOL     OW 8299   1.593   3.945   0.882
 2578SOL    HW1 8300   1.509   3.944   0.936
 2578SOL    HW2 8301   1.595   4.028   0.826
 2579SOL     OW 8302   0.230   4.352   1.975
 2579SOL    HW1 8303   0.137   4.350   2.012
 2579SOL    HW2 8304   0.231   4.313   1.883
 2580SOL     OW 8305   0.225   3.999   2.858
 2580SOL    HW1 8306   0.260   3.982   2.950
 2580SOL    HW2 8307   0.137   3.954   2.846
 2581SOL     OW 8308   0.019   4.092   2.509
 2581SOL    HW1 8309  -0.063   4.135   2.548
 2581SOL    HW2 8310  -0.009   4.019   2.446
 2582SOL     OW 8311   1.755   4.331   2.093
 2582SOL    HW1 8312   1.743   4.318   1.994
 2582SOL    HW2 8313   1.725   4.250   2.142
 2583SOL     OW 8314   0.685   4.736   2.527
 2583SOL    HW1 8315   0.754   4.720   2.597
 2583SOL    HW2 8316   0.612   4.793   2.565
 2584SOL     OW 8317   0.438   4.116   3.361
 2584SOL    HW1 8318   0.520   4.060   3.370
 2584SOL    HW2 8319   0.357   4.058   3.365
 2585SOL     OW 8320   1.603   4.171   2.599
 2585SOL    HW1 8321   1.529   4.217   2.549
 2585SOL    HW2 8322   1.654   4.239   2.652
 2586SOL     OW 8323   1.594   3.838   3.342
 2586SOL    HW1 8324   1.576   3.905   3.270
 2586SOL    HW2 8325   1.591   3.884   3.431
 2587SOL     OW 8326   0.122   4.367   2.425
 2587SOL    HW1 8327   0.077   4.279   2.442
 2587SOL    HW2 8328   0.121   4.421   2.509
 2588SOL     OW 8329   0.113   4.461   3.459
 2588SOL    HW1 8330   0.201   4.448   3.504
 2588SOL    HW2 8331   0.100   4.558   3.437
 2589SOL     OW 8332   0.809   3.728   2.364
 2589SOL    HW1 8333   0.849   3.819   2.355
 2589SOL    HW2 8334   0.709   3.736   2.370
 2590SOL     OW 8335   0.317   3.975   3.663
 2590SOL    HW1 8336   0.388   4.046   3.669
 2590SOL    HW2 8337   0.229   4.014   3.691
 2591SOL     OW 8338   1.281   4.069   2.806
 2591SOL    HW1 8339   1.195   4.019   2.793
 2591SOL    HW2 8340   1.343   4.015   2.862
 2592SOL     OW 8341   0.807   4.329   3.327
 2592SOL    HW1 8342   0.760   4.326   3.416
 2592SOL    HW2 8343   0.756   4.274   3.261
 2593SOL     OW 8344   1.394   4.193   3.536
 2593SOL    HW1 8345   1.374   4.236   3.624
 2593SOL    HW2 8346   1.472   4.131   3.545
 2594SOL     OW 8347   0.991   4.134   3.104
 2594SOL    HW1 8348   0.914   4.168   3.158
 2594SOL    HW2 8349   0.957   4.083   3.025
 2595SOL     OW 8350   1.041   4.425   2.291
 2595SOL    HW1 8351   1.067   4.421   2.387
 2595SOL    HW2 8352   0.956   4.374   2.277
 2596SOL     OW 8353   0.076   4.535   2.651
 2596SOL    HW1 8354   0.175   4.523   2.660
 2596SOL    HW2 8355   0.052   4.630   2.672
 2597SOL     OW 8356   0.865   4.072   2.057
 2597SOL    HW1 8357   0.924   4.135   2.008
 2597SOL    HW2 8358   0.884   3.978   2.028
 2598SOL     OW 8359   1.719   4.309   3.693
 2598SOL    HW1 8360   1.693   4.398   3.657
 2598SOL    HW2 8361   1.717   4.241   3.620
 2599SOL     OW 8362   0.550   3.920   2.747
 2599SOL    HW1 8363   0.545   3.915   2.847
 2599SOL    HW2 8364   0.552   4.016   2.718
 2600SOL     OW 8365   1.458   4.459   2.590
 2600SOL    HW1 8366   1.453   4.394   2.665
 2600SOL    HW2 8367   1.538   4.518   2.603
 2601SOL     OW 8368   0.202   4.009   3.360
 2601SOL    HW1 8369   0.122   4.069   3.347
 2601SOL    HW2 8370   0.192   3.960   3.446
 2602SOL     OW 8371   1.400   3.831   2.288
 2602SOL    HW1 8372   1.376   3.794   2.198
 2602SOL    HW2 8373   1.499   3.847   2.292
 2603SOL     OW 8374   0.382   4.424   2.342
 2603SOL    HW1 8375   0.427   4.334   2.339
 2603SOL    HW2 8376   0.288   4.413   2.375
 2604SOL     OW 8377   1.547   3.946   3.591
 2604SOL    HW1 8378   1.542   3.983   3.683
 2604SOL    HW2 8379   1.475   3.877   3.579
 2605SOL     OW 8380   0.614   3.846   1.979
 2605SOL    HW1 8381   0.712   3.824   1.986
 2605SOL    HW2 8382   0.583   3.829   1.886
 2606SOL     OW 8383   0.781   3.988   3.611
 2606SOL    HW1 8384   0.848   3.927   3.654
 2606SOL    HW2 8385   0.708   4.007   3.676
 2607SOL     OW 8386   1.351   4.314   3.295
 2607SOL    HW1 8387   1.379   4.271   3.380
 2607SOL    HW2 8388   1.376   4.410   3.296
 2608SOL     OW 8389   0.922   4.227   2.761
 2608SOL    HW1 8390   0.897   4.218   2.665
 2608SOL    HW2 8391   0.970   4.145   2.792
 2609SOL     OW 8392   0.539   3.788   2.374
 2609SOL    HW1 8393   0.458   3.789   2.432
 2609SOL    HW2 8394   0.542   3.871   2.319
 2610SOL     OW 8395   0.297   3.759   2.033
 2610SOL    HW1 8396   0.346   3.843   2.012
 2610SOL    HW2 8397   0.359   3.694   2.078
 2611SOL     OW 8398   0.935   3.960   2.342
 2611SOL    HW1 8399   0.887   4.001   2.264
 2611SOL    HW2 8400   1.034   3.958   2.323
 2612SOL     OW 8401   1.076   4.407   3.326
 2612SOL    HW1 8402   0.996   4.346   3.329
 2612SOL    HW2 8403   1.157   4.354   3.302
 2613SOL     OW 8404   1.032   4.273   1.878
 2613SOL    HW1 8405   0.991   4.355   1.839
 2613SOL    HW2 8406   1.096   4.299   1.951
 2614SOL     OW 8407   0.078   4.280   3.248
 2614SOL    HW1 8408   0.170   4.279   3.207
 2614SOL    HW2 8409   0.072   4.354   3.315
 2615SOL     OW 8410   0.561   3.946   3.009
 2615SOL    HW1 8411   0.599   3.862   3.046
 2615SOL    HW2 8412   0.473   3.965   3.053
 2616SOL     OW 8413   0.866   4.178   2.504
 2616SOL    HW1 8414   0.834   4.250   2.442
 2616SOL    HW2 8415   0.890   4.097   2.451
 2617SOL     OW 8416   1.017   3.763   2.615
 2617SOL    HW1 8417   0.945   3.768   2.546
 2617SOL    HW2 8418   0.993   3.694   2.684
 2618SOL     OW 8419   1.466   4.314   2.854
 2618SOL    HW1 8420   1.436   4.219   2.861
 2618SOL    HW2 8421   1.539   4.330   2.920
 2619SOL     OW 8422   1.390   4.299   1.940
 2619SOL    HW1 8423   1.336   4.278   2.021
 2619SOL    HW2 8424   1.481   4.258   1.949
 2620SOL     OW 8425   0.527   3.980   2.190
 2620SOL    HW1 8426   0.554   3.921   2.115
 2620SOL    HW2 8427   0.527   4.075   2.159
 2621SOL     OW 8428   0.915   3.813   3.264
 2621SOL    HW1 8429   0.940   3.793   3.169
 2621SOL    HW2 8430   0.987   3.869   3.306
 2622SOL     OW 8431   0.410   4.537   3.113
 2622SOL    HW1 8432   0.496   4.549   3.163
 2622SOL    HW2 8433   0.368   4.450   3.140
 2623SOL     OW 8434   1.274   4.110   3.124
 2623SOL    HW1 8435   1.295   4.184   3.188
 2623SOL    HW2 8436   1.185   4.127   3.081
 2624SOL     OW 8437   0.566   4.261   2.727
 2624SOL    HW1 8438   0.578   4.327   2.653
 2624SOL    HW2 8439   0.612   4.295   2.810
 2625SOL     OW 8440   1.582   4.363   2.334
 2625SOL    HW1 8441   1.551   4.424   2.407
 2625SOL    HW2 8442   1.632   4.415   2.265
 2626SOL     OW 8443   1.013   3.829   3.632
 2626SOL    HW1 8444   1.019   3.914   3.580
 2626SOL    HW2 8445   1.045   3.753   3.575
 2627SOL     OW 8446   0.504   3.774   3.602
 2627SOL    HW1 8447   0.462   3.717   3.532
 2627SOL    HW2 8448   0.438   3.843   3.634
 2628SOL     OW 8449   1.209   4.249   2.137
 2628SOL    HW1 8450   1.222   4.165   2.191
 2628SOL    HW2 8451   1.180   4.323   2.197
 2629SOL     OW 8452   0.307   3.937   3.093
 2629SOL    HW1 8453   0.284   3.974   3.183
 2629SOL    HW2 8454   0.277   3.842   3.087
 2630SOL     OW 8455   0.732   4.358   2.926
 2630SOL    HW1 8456   0.791   4.332   2.850
 2630SOL    HW2 8457   0.704   4.454   2.915
 2631SOL     OW 8458   1.728   4.659   3.716
 2631SOL    HW1 8459   1.682   4.652   3.627
 2631SOL    HW2 8460   1.666   4.703   3.782
 2632SOL     OW 8461   0.307   3.787   2.480
 2632SOL    HW1 8462   0.296   3.881   2.513
 2632SOL    HW2 8463   0.302   3.724   2.557
 2633SOL     OW 8464   1.622   4.091   2.236
 2633SOL    HW1 8465   1.624   4.015   2.300
 2633SOL    HW2 8466   1.574   4.168   2.276
 2634SOL     OW 8467   1.540   3.998   1.987
 2634SOL    HW1 8468   1.479   3.923   2.010
 2634SOL    HW2 8469   1.562   4.050   2.070
 2635SOL     OW 8470   0.319   4.534   2.811
 2635SOL    HW1 8471   0.412   4.570   2.816
 2635SOL    HW2 8472   0.313   4.449   2.863
 2636SOL     OW 8473   0.339   4.233   2.868
 2636SOL    HW1 8474   0.287   4.150   2.851
 2636SOL    HW2 8475   0.416   4.238   2.804
 2637SOL     OW 8476   1.138   4.104   3.540
 2637SOL    HW1 8477   1.093   4.167   3.604
 2637SOL    HW2 8478   1.231   4.135   3.523
 2638SOL     OW 8479   1.160   3.931   3.339
 2638SOL    HW1 8480   1.160   3.995   3.416
 2638SOL    HW2 8481   1.188   3.979   3.256
 2639SOL     OW 8482   0.040   4.268   2.976
 2639SOL    HW1 8483   0.125   4.235   2.935
 2639SOL    HW2 8484   0.053   4.283   3.074
 2640SOL     OW 8485   0.189   4.244   3.584
 2640SOL    HW1 8486   0.248   4.204   3.514
 2640SOL    HW2 8487   0.131   4.315   3.543
 2641SOL     OW 8488   0.815   4.296   2.187
 2641SOL    HW1 8489   0.822   4.207   2.141
 2641SOL    HW2 8490   0.721   4.330   2.179
 2642SOL     OW 8491   1.657   4.328   3.068
 2642SOL    HW1 8492   1.619   4.259   3.130
 2642SOL    HW2 8493   1.739   4.292   3.024
 2643SOL     OW 8494   0.671   4.188   3.131
 2643SOL    HW1 8495   0.637   4.099   3.101
 2643SOL    HW2 8496   0.697   4.242   3.051
 2644SOL     OW 8497   0.473   4.224   2.053
 2644SOL    HW1 8498   0.534   4.304   2.057
 2644SOL    HW2 8499   0.378   4.255   2.060
 2645SOL     OW 8500   1.726   3.859   2.385
 2645SOL    HW1 8501   1.799   3.842   2.318
 2645SOL    HW2 8502   1.695   3.772   2.423
 2646SOL     OW 8503   1.280   4.651   2.534
 2646SOL    HW1 8504   1.340   4.570   2.536
 2646SOL    HW2 8505   1.320   4.720   2.474
 2647SOL     OW 8506   1.841   3.899   2.825
 2647SOL    HW1 8507   1.880   3.814   2.789
 2647SOL    HW2 8508   1.743   3.901   2.806
 2648SOL     OW 8509   0.263   4.050   2.582
 2648SOL    HW1 8510   0.184   4.101   2.548
 2648SOL    HW2 8511   0.254   4.035   2.680
 2649SOL     OW 8512   0.916   4.634   2.153
 2649SOL    HW1 8513   0.979   4.672   2.085
 2649SOL    HW2 8514   0.956   4.551   2.192
 2650SOL     OW 8515   1.039   4.822   2.558
 2650SOL    HW1 8516   0.969   4.775   2.612
 2650SOL    HW2 8517   1.098   4.754   2.515
 2651SOL     OW 8518   1.014   3.960   2.833
 2651SOL    HW1 8519   1.006   3.924   2.740
 2651SOL    HW2 8520   1.012   3.884   2.898
 2652SOL     OW 8521   1.709   4.109   3.243
 2652SOL    HW1 8522   1.782   4.178   3.247
 2652SOL    HW2 8523   1.737   4.034   3.184
 2653SOL     OW 8524   0.672   3.927   3.351
 2653SOL    HW1 8525   0.762   3.911   3.311
 2653SOL    HW2 8526   0.680   3.932   3.450
 2654SOL     OW 8527   0.075   4.069   1.895
 2654SOL    HW1 8528  -0.017   4.041   1.866
 2654SOL    HW2 8529   0.106   4.146   1.839
 2655SOL     OW 8530   0.072   3.890   2.180
 2655SOL    HW1 8531   0.055   3.973   2.126
 2655SOL    HW2 8532   0.162   3.853   2.158
 2656SOL     OW 8533   0.716   4.289   3.570
 2656SOL    HW1 8534   0.735   4.354   3.644
 2656SOL    HW2 8535   0.776   4.209   3.579
 2657SOL     OW 8536   1.225   4.049   2.311
 2657SOL    HW1 8537   1.290   3.975   2.300
 2657SOL    HW2 8538   1.245   4.099   2.395
 2658SOL     OW 8539   1.777   4.066   3.504
 2658SOL    HW1 8540   1.760   4.097   3.410
 2658SOL    HW2 8541   1.693   4.029   3.542
 2659SOL     OW 8542   1.083   4.708   1.949
 2659SOL    HW1 8543   1.060   4.761   1.867
 2659SOL    HW2 8544   1.164   4.652   1.930
 2660SOL     OW 8545   1.824   3.916   3.089
 2660SOL    HW1 8546   1.820   3.826   3.133
 2660SOL    HW2 8547   1.827   3.905   2.990
 2661SOL     OW 8548   0.428   4.148   2.382
 2661SOL    HW1 8549   0.458   4.076   2.320
 2661SOL    HW2 8550   0.389   4.108   2.465
 2662SOL     OW 8551   0.317   4.271   3.142
 2662SOL    HW1 8552   0.355   4.212   3.214
 2662SOL    HW2 8553   0.357   4.245   3.054
 2663SOL     OW 8554   1.424   3.938   2.974
 2663SOL    HW1 8555   1.476   3.873   3.029
 2663SOL    HW2 8556   1.375   4.001   3.035
 2664SOL     OW 8557   1.001   3.758   3.016
 2664SOL    HW1 8558   0.938   3.686   2.985
 2664SOL    HW2 8559   1.094   3.722   3.016
 2665SOL     OW 8560   1.352   3.776   2.030
 2665SOL    HW1 8561   1.387   3.735   1.946
 2665SOL    HW2 8562   1.262   3.738   2.050
 2666SOL     OW 8563   1.300   4.177   2.553
 2666SOL    HW1 8564   1.241   4.257   2.557
 2666SOL    HW2 8565   1.315   4.142   2.646
 2667SOL     OW 8566   1.593   3.945   2.744
 2667SOL    HW1 8567   1.509   3.944   2.798
 2667SOL    HW2 8568   1.595   4.028   2.688
 2668SOL     OW 8569   0.230   4.352   3.837
 2668SOL    HW1 8570   0.137   4.350   3.874
 2668SOL    HW2 8571   0.231   4.313   3.745
 2669SOL     OW 8572   0.225   3.999   4.720
 2669SOL    HW1 8573   0.260   3.982   4.812
 2669SOL    HW2 8574   0.137   3.954   4.708
 2670SOL     OW 8575   0.019   4.092   4.371
 2670SOL    HW1 8576  -0.063   4.135   4.410
 2670SOL    HW2 8577  -0.009   4.019   4.308
 2671SOL     OW 8578   1.755   4.331   3.955
 2671SOL    HW1 8579   1.743   4.318   3.856
 2671SOL    HW2 8580   1.725   4.250   4.004
 2672SOL     OW 8581   0.685   4.736   4.389
 2672SOL    HW1 8582   0.754   4.720   4.459
 2672SOL    HW2 8583   0.612   4.793   4.427
 2673SOL     OW 8584   0.438   4.116   5.223
 2673SOL    HW1 8585   0.520   4.060   5.232
 2673SOL    HW2 8586   0.357   4.058   5.227
 2674SOL     OW 8587   1.603   4.171   4.461
 2674SOL    HW1 8588   1.529   4.217   4.411
 2674SOL    HW2 8589   1.654   4.239   4.514
 2675SOL     OW 8590   1.594   3.838   5.204
 2675SOL    HW1 8591   1.576   3.905   5.132
 2675SOL    HW2 8592   1.591   3.884   5.293
 2676SOL     OW 8593   0.122   4.367   4.287
 2676SOL    HW1 8594   0.077   4.279   4.304
 2676SOL    HW2 8595   0.121   4.421   4.371
 2677SOL     OW 8596   0.113   4.461   5.321
 2677SOL    HW1 8597   0.201   4.448   5.366
 2677SOL    HW2 8598   0.100   4.558   5.299
 2678SOL     OW 8599   0.809   3.728   4.226
 2678SOL    HW1 8600   0.849   3.819   4.217
 2678SOL    HW2 8601   0.709   3.736   4.232
 2679SOL     OW 8602   0.317   3.975   5.525
 2679SOL    HW1 8603   0.388   4.046   5.531
 2679SOL    HW2 8604   0.229   4.014   5.553
 2680SOL     OW 8605   1.281   4.069   4.668
 2680SOL    HW1 8606   1.195   4.019   4.655
 2680SOL    HW2 8607   1.343   4.015   4.724
 2681SOL     OW 8608   0.807   4.329   5.189
 2681SOL    HW1 8609   0.760   4.326   5.278
 2681SOL    HW2 8610   0.756   4.274   5.123
 2682SOL     OW 8611   1.394   4.193   5.398
 2682SOL    HW1 8612   1.374   4.236   5.486
 2682SOL    HW2 8613   1.472   4.131   5.407
 2683SOL     OW 8614   0.991   4.134   4.966
 2683SOL    HW1 8615   0.914   4.168   5.020
 2683SOL    HW2 8616   0.957   4.083   4.887
 2684SOL     OW 8617   1.041   4.425   4.153
 2684SOL    HW1 8618   1.067   4.421   4.249
 2684SOL    HW2 8619   0.956   4.374   4.139
 2685SOL     OW 8620   0.076   4.535   4.513
 2685SOL    HW1 8621   0.175   4.523   4.522
 2685SOL    HW2 8622   0.052   4.630   4.534
 2686SOL     OW 8623   0.865   4.072   3.919
 2686SOL    HW1 8624   0.924   4.135   3.870
 2686SOL    HW2 8625   0.884   3.978   3.890
 2687SOL     OW 8626   1.719   4.309   5.555
 2687SOL    HW1 8627   1.693   4.398   5.519
 2687SOL    HW2 8628   1.717   4.241   5.482
 2688SOL     OW 8629   0.550   3.920   4.609
 2688SOL    HW1 8630   0.545   3.915   4.709
 2688SOL    HW2 8631   0.552   4.016   4.580
 2689SOL     OW 8632   1.458   4.459   4.452
 2689SOL    HW1 8633   1.453   4.394   4.527
 2689SOL    HW2 8634   1.538   4.518   4.465
 2690SOL     OW 8635   0.202   4.009   5.222
 2690SOL    HW1 8636   0.122   4.069   5.209
 2690SOL    HW2 8637   0.192   3.960   5.308
 2691SOL     OW 8638   1.400   3.831   4.150
 2691SOL    HW1 8639   1.376   3.794   4.060
 2691SOL    HW2 8640   1.499   3.847   4.154
 2692SOL     OW 8641   0.382   4.424   4.204
 2692SOL    HW1 8642   0.427   4.334   4.201
 2692SOL    HW2 8643   0.288   4.413   4.237
 2693SOL     OW 8644   1.547   3.946   5.453
 2693SOL    HW1 8645   1.542   3.983   5.545
 2693SOL    HW2 8646   1.475   3.877   5.441
 2694SOL     OW 8647   0.614   3.846   3.841
 2694SOL    HW1 8648   0.712   3.824   3.848
 2694SOL    HW2 8649   0.583   3.829   3.748
 2695SOL     OW 8650   0.781   3.988   5.473
 2695SOL    HW1 8651   0.848   3.927   5.516
 2695SOL    HW2 8652   0.708   4.007   5.538
 2696SOL     OW 8653   1.351   4.314   5.157
 2696SOL    HW1 8654   1.379   4.271   5.242
 2696SOL    HW2 8655   1.376   4.410   5.158
 2697SOL     OW 8656   0.922   4.227   4.623
 2697SOL    HW1 8657   0.897   4.218   4.527
 2697SOL    HW2 8658   0.970   4.145   4.654
 2698SOL     OW 8659   0.539   3.788   4.236
 2698SOL    HW1 8660   0.458   3.789   4.294
 2698SOL    HW2 8661   0.542   3.871   4.181
 2699SOL     OW 8662   0.297   3.759   3.895
 2699SOL    HW1 8663   0.346   3.843   3.874
 2699SOL    HW2 8664   0.359   3.694   3.940
 2700SOL     OW 8665   0.935   3.960   4.204
 2700SOL    HW1 8666   0.887   4.001   4.126
 2700SOL    HW2 8667   1.034   3.958   4.185
 2701SOL     OW 8668   1.076   4.407   5.188
 2701SOL    HW1 8669   0.996   4.346   5.191
 2701SOL    HW2 8670   1.157   4.354   5.164
 2702SOL     OW 8671   1.032   4.273   3.740
 2702SOL    HW1 8672   0.991   4.355   3.701
 2702SOL    HW2 8673   1.096   4.299   3.813
 2703SOL     OW 8674   0.078   4.280   5.110
 2703SOL    HW1 8675   0.170   4.279   5.069
 2703SOL    HW2 8676   0.072   4.354   5.177
 2704SOL     OW 8677   0.561   3.946   4.871
 2704SOL    HW1 8678   0.599   3.862   4.908
 2704SOL    HW2 8679   0.473   3.965   4.915
 2705SOL     OW 8680   0.866   4.178   4.366
 2705SOL    HW1 8681   0.834   4.250   4.304
 2705SOL    HW2 8682   0.890   4.097   4.313
 2706SOL     OW 8683   1.017   3.763   4.477
 2706SOL    HW1 8684   0.945   3.768   4.408
 2706SOL    HW2 8685   0.993   3.694   4.546
 2707SOL     OW 8686   1.466   4.314   4.716
 2707SOL    HW1 8687   1.436   4.219   4.723
 2707SOL    HW2 8688   1.539   4.330   4.782
 2708SOL     OW 8689   1.390   4.299   3.802
 2708SOL    HW1 8690   1.336   4.278   3.883
 2708SOL    HW2 8691   1.481   4.258   3.811
 2709SOL     OW 8692   0.527   3.980   4.052
 2709SOL    HW1 8693   0.554   3.921   3.977
 2709SOL    HW2 8694   0.527   4.075   4.021
 2710SOL     OW 8695   0.915   3.813   5.126
 2710SOL    HW1 8696   0.940   3.793   5.031
 2710SOL    HW2 8697   0.987   3.869   5.168
 2711SOL     OW 8698   0.410   4.537   4.975
 2711SOL    HW1 8699   0.496   4.549   5.025
 2711SOL    HW2 8700   0.368   4.450   5.002
 2712SOL     OW 8701   1.274   4.110   4.986
 2712SOL    HW1 8702   1.295   4.184   5.050
 2712SOL    HW2 8703   1.185   4.127   4.943
 2713SOL     OW 8704   0.566   4.261   4.589
 2713SOL    HW1 8705   0.578   4.327   4.515
 2713SOL    HW2 8706   0.612   4.295   4.672
 2714SOL     OW 8707   1.582   4.363   4.196
 2714SOL    HW1 8708   1.551   4.424   4.269
 2714SOL    HW2 8709   1.632   4.415   4.127
 2715SOL     OW 8710   1.013   3.829   5.494
 2715SOL    HW1 8711   1.019   3.914   5.442
 2715SOL    HW2 8712   1.045   3.753   5.437
 2716SOL     OW 8713   0.504   3.774   5.464
 2716SOL    HW1 8714   0.462   3.717   5.394
 2716SOL    HW2 8715   0.438   3.843   5.496
 2717SOL     OW 8716   1.209   4.249   3.999
 2717SOL    HW1 8717   1.222   4.165   4.053
 2717SOL    HW2 8718   1.180   4.323   4.059
 2718SOL     OW 8719   0.307   3.937   4.955
 2718SOL    HW1 8720   0.284   3.974   5.045
 2718SOL    HW2 8721   0.277   3.842   4.949
 2719SOL     OW 8722   0.732   4.358   4.788
 2719SOL    HW1 8723   0.791   4.332   4.712
 2719SOL    HW2 8724   0.704   4.454   4.777
 2720SOL     OW 8725   1.728   4.659   5.578
 2720SOL    HW1 8726   1.682   4.652   5.489
 2720SOL    HW2 8727   1.666   4.703   5.644
 2721SOL     OW 8728   0.307   3.787   4.342
 2721SOL    HW1 8729   0.296   3.881   4.375
 2721SOL    HW2 8730   0.302   3.724   4.419
 2722SOL     OW 8731   1.622   4.091   4.098
 2722SOL    HW1 8732   1.624   4.015   4.162
 2722SOL    HW2 8733   1.574   4.168   4.138
 2723SOL     OW 8734   1.540   3.998   3.849
 2723SOL    HW1 8735   1.479   3.923   3.872
 2723SOL    HW2 8736   1.562   4.050   3.932
 2724SOL     OW 8737   0.319   4.534   4.673
 2724SOL    HW1 8738   0.412   4.570   4.678
 2724SOL    HW2 8739   0.313   4.449   4.725
 2725SOL     OW 8740   0.339   4.233   4.730
 2725SOL    HW1 8741   0.287   4.150   4.713
 2725SOL    HW2 8742   0.416   4.238   4.666
 2726SOL     OW 8743   1.138   4.104   5.402
 2726SOL    HW1 8744   1.093   4.167   5.466
 2726SOL    HW2 8745   1.231   4.135   5.385
 2727SOL     OW 8746   1.160   3.931   5.201
 2727SOL    HW1 8747   1.160   3.995   5.278
 2727SOL    HW2 8748   1.188   3.979   5.118
 2728SOL     OW 8749   0.040   4.268   4.838
 2728SOL    HW1 8750   0.125   4.235   4.797
 2728SOL    HW2 8751   0.053   4.283   4.936
 2729SOL     OW 8752   0.189   4.244   5.446
 2729SOL    HW1 8753   0.248   4.204   5.376
 2729SOL    HW2 8754   0.131   4.315   5.405
 2730SOL     OW 8755   0.815   4.296   4.049
 2730SOL    HW1 8756   0.822   4.207   4.003
 2730SOL    HW2 8757   0.721   4.330   4.041
 2731SOL     OW 8758   1.657   4.328   4.930
 2731SOL    HW1 8759   1.619   4.259   4.992
 2731SOL    HW2 8760   1.739   4.292   4.886
 2732SOL     OW 8761   0.671   4.188   4.993
 2732SOL    HW1 8762   0.637   4.099   4.963
 2732SOL    HW2 8763   0.697   4.242   4.913
 2733SOL     OW 8764   0.473   4.224   3.915
 2733SOL    HW1 8765   0.534   4.304   3.919
 2733SOL    HW2 8766   0.378   4.255   3.922
 2734SOL     OW 8767   1.726   3.859   4.247
 2734SOL    HW1 8768   1.799   3.842   4.180
 2734SOL    HW2 8769   1.695   3.772   4.285
 2735SOL     OW 8770   1.280   4.651   4.396
 2735SOL    HW1 8771   1.340   4.570   4.398
 2735SOL    HW2 8772   1.320   4.720   4.336
 2736SOL     OW 8773   1.841   3.899   4.687
 2736SOL    HW1 8774   1.880   3.814   4.651
 2736SOL    HW2 8775   1.743   3.901   4.668
 2737SOL     OW 8776   0.263   4.050   4.444
 2737SOL    HW1 8777   0.184   4.101   4.410
 2737SOL    HW2 8778   0.254   4.035   4.542
 2738SOL     OW 8779   0.916   4.634   4.015
 2738SOL    HW1 8780   0.979   4.672   3.947
 2738SOL    HW2 8781   0.956   4.551   4.054
 2739SOL     OW 8782   1.039   4.822   4.420
 2739SOL    HW1 8783   0.969   4.775   4.474
 2739SOL    HW2 8784   1.098   4.754   4.377
 2740SOL     OW 8785   1.014   3.960   4.695
 2740SOL    HW1 8786   1.006   3.924   4.602
 2740SOL    HW2 8787   1.012   3.884   4.760
 2741SOL     OW 8788   1.709   4.109   5.105
 2741SOL    HW1 8789   1.782   4.178   5.109
 2741SOL    HW2 8790   1.737   4.034   5.046
 2742SOL     OW 8791   0.672   3.927   5.213
 2742SOL    HW1 8792   0.762   3.911   5.173
 2742SOL    HW2 8793   0.680   3.932   5.312
 2743SOL     OW 8794   0.075   4.069   3.757
 2743SOL    HW1 8795  -0.017   4.041   3.728
 2743SOL    HW2 8796   0.106   4.146   3.701
 2744SOL     OW 8797   0.072   3.890   4.042
 2744SOL    HW1 8798   0.055   3.973   3.988
 2744SOL    HW2 8799   0.162   3.853   4.020
 2745SOL     OW 8800   0.716   4.289   5.432
 2745SOL    HW1 8801   0.735   4.354   5.506
 2745SOL    HW2 8802   0.776   4.209   5.441
 2746SOL     OW 8803   1.225   4.049   4.173
 2746SOL    HW1 8804   1.290   3.975   4.162
 2746SOL    HW2 8805   1.245   4.099   4.257
 2747SOL     OW 8806   1.777   4.066   5.366
 2747SOL    HW1 8807   1.760   4.097   5.272
 2747SOL    HW2 8808   1.693   4.029   5.404
 2748SOL     OW 8809   1.083   4.708   3.811
 2748SOL    HW1 8810   1.060   4.761   3.729
 2748SOL    HW2 8811   1.164   4.652   3.792
 2749SOL     OW 8812   1.824   3.916   4.951
 2749SOL    HW1 8813   1.820   3.826   4.995
 2749SOL    HW2 8814   1.827   3.905   4.852
 2750SOL     OW 8815   0.428   4.148   4.244
 2750SOL    HW1 8816   0.458   4.076   4.182
 2750SOL    HW2 8817   0.389   4.108   4.327
 2751SOL     OW 8818   0.317   4.271   5.004
 2751SOL    HW1 8819   0.355   4.212   5.076
 2751SOL    HW2 8820   0.357   4.245   4.916
 2752SOL     OW 8821   1.424   3.938   4.836
 2752SOL    HW1 8822   1.476   3.873   4.891
 2752SOL    HW2 8823   1.375   4.001   4.897
 2753SOL     OW 8824   1.001   3.758   4.878
 2753SOL    HW1 8825   0.938   3.686   4.847
 2753SOL    HW2 8826   1.094   3.722   4.878
 2754SOL     OW 8827   1.352   3.776   3.892
 2754SOL    HW1 8828   1.387   3.735   3.808
 2754SOL    HW2 8829   1.262   3.738   3.912
 2755SOL     OW 8830   1.300   4.177   4.415
 2755SOL    HW1 8831   1.241   4.257   4.419
 2755SOL    HW2 8832   1.315   4.142   4.508
 2756SOL     OW 8833   1.593   3.945   4.606
 2756SOL    HW1 8834   1.509   3.944   4.660
 2756SOL    HW2 8835   1.595   4.028   4.550
 2757SOL     OW 8836   0.230   4.352   5.699
 2757SOL    HW1 8837   0.137   4.350   5.736
 2757SOL    HW2 8838   0.231   4.313   5.607
 2758SOL     OW 8839   0.225   3.999   6.582
 2758SOL    HW1 8840   0.260   3.982   6.674
 2758SOL    HW2 8841   0.137   3.954   6.570
 2759SOL     OW 8842   0.019   4.092   6.233
 2759SOL    HW1 8843  -0.063   4.135   6.272
 2759SOL    HW2 8844  -0.009   4.019   6.170
 2760SOL     OW 8845   1.755   4.331   5.817
 2760SOL    HW1 8846   1.743   4.318   5.718
 2760SOL    HW2 8847   1.725   4.250   5.866
 2761SOL     OW 8848   0.685   4.736   6.251
 2761SOL    HW1 8849   0.754   4.720   6.321
 2761SOL    HW2 8850   0.612   4.793   6.289
 2762SOL     OW 8851   0.438   4.116   7.085
 2762SOL    HW1 8852   0.520   4.060   7.094
 2762SOL    HW2 8853   0.357   4.058   7.089
 2763SOL     OW 8854   1.603   4.171   6.323
 2763SOL    HW1 8855   1.529   4.217   6.273
 2763SOL    HW2 8856   1.654   4.239   6.376
 2764SOL     OW 8857   1.594   3.838   7.066
 2764SOL    HW1 8858   1.576   3.905   6.994
 2764SOL    HW2 8859   1.591   3.884   7.155
 2765SOL     OW 8860   0.122   4.367   6.149
 2765SOL    HW1 8861   0.077   4.279   6.166
 2765SOL    HW2 8862   0.121   4.421   6.233
 2766SOL     OW 8863   0.113   4.461   7.183
 2766SOL    HW1 8864   0.201   4.448   7.228
 2766SOL    HW2 8865   0.100   4.558   7.161
 2767SOL     OW 8866   0.809   3.728   6.088
 2767SOL    HW1 8867   0.849   3.819   6.079
 2767SOL    HW2 8868   0.709   3.736   6.094
 2768SOL     OW 8869   0.317   3.975   7.387
 2768SOL    HW1 8870   0.388   4.046   7.393
 2768SOL    HW2 8871   0.229   4.014   7.415
 2769SOL     OW 8872   1.281   4.069   6.530
 2769SOL    HW1 8873   1.195   4.019   6.517
 2769SOL    HW2 8874   1.343   4.015   6.586
 2770SOL     OW 8875   0.807   4.329   7.051
 2770SOL    HW1 8876   0.760   4.326   7.140
 2770SOL    HW2 8877   0.756   4.274   6.985
 2771SOL     OW 8878   1.394   4.193   7.260
 2771SOL    HW1 8879   1.374   4.236   7.348
 2771SOL    HW2 8880   1.472   4.131   7.269
 2772SOL     OW 8881   0.991   4.134   6.828
 2772SOL    HW1 8882   0.914   4.168   6.882
 2772SOL    HW2 8883   0.957   4.083   6.749
 2773SOL     OW 8884   1.041   4.425   6.015
 2773SOL    HW1 8885   1.067   4.421   6.111
 2773SOL    HW2 8886   0.956   4.374   6.001
 2774SOL     OW 8887   0.076   4.535   6.375
 2774SOL    HW1 8888   0.175   4.523   6.384
 2774SOL    HW2 8889   0.052   4.630   6.396
 2775SOL     OW 8890   0.865   4.072   5.781
 2775SOL    HW1 8891   0.924   4.135   5.732
 2775SOL    HW2 8892   0.884   3.978   5.752
 2776SOL     OW 8893   1.719   4.309   7.417
 2776SOL    HW1 8894   1.693   4.398   7.381
 2776SOL    HW2 8895   1.717   4.241   7.344
 2777SOL     OW 8896   0.550   3.920   6.471
 2777SOL    HW1 8897   0.545   3.915   6.571
 2777SOL    HW2 8898   0.552   4.016   6.442
 2778SOL     OW 8899   1.458   4.459   6.314
 2778SOL    HW1 8900   1.453   4.394   6.389
 2778SOL    HW2 8901   1.538   4.518   6.327
 2779SOL     OW 8902   0.202   4.009   7.084
 2779SOL    HW1 8903   0.122   4.069   7.071
 2779SOL    HW2 8904   0.192   3.960   7.170
 2780SOL     OW 8905   1.400   3.831   6.012
 2780SOL    HW1 8906   1.376   3.794   5.922
 2780SOL    HW2 8907   1.499   3.847   6.016
 2781SOL     OW 8908   0.382   4.424   6.066
 2781SOL    HW1 8909   0.427   4.334   6.063
 2781SOL    HW2 8910   0.288   4.413   6.099
 2782SOL     OW 8911   1.547   3.946   7.315
 2782SOL    HW1 8912   1.542   3.983   7.407
 2782SOL    HW2 8913   1.475   3.877   7.303
 2783SOL     OW 8914   0.614   3.846   5.703
 2783SOL    HW1 8915   0.712   3.824   5.710
 2783SOL    HW2 8916   0.583   3.829   5.610
 2784SOL     OW 8917   0.781   3.988   7.335
 2784SOL    HW1 8918   0.848   3.927   7.378
 2784SOL    HW2 8919   0.708   4.007   7.400
 2785SOL     OW 8920   1.351   4.314   7.019
 2785SOL    HW1 8921   1.379   4.271   7.104
 2785SOL    HW2 8922   1.376   4.410   7.020
 2786SOL     OW 8923   0.922   4.227   6.485
 2786SOL    HW1 8924   0.897   4.218   6.389
 2786SOL    HW2 8925   0.970   4.145   6.516
 2787SOL     OW 8926   0.539   3.788   6.098
 2787SOL    HW1 8927   0.458   3.789   6.156
 2787SOL    HW2 8928   0.542   3.871   6.043
 2788SOL     OW 8929   0.297   3.759   5.757
 2788SOL    HW1 8930   0.346   3.843   5.736
 2788SOL    HW2 8931   0.359   3.694   5.802
 2789SOL     OW 8932   0.935   3.960   6.066
 2789SOL    HW1 8933   0.887   4.001   5.988
 2789SOL    HW2 8934   1.034   3.958   6.047
 2790SOL     OW 8935   1.076   4.407   7.050
 2790SOL    HW1 8936   0.996   4.346   7.053
 2790SOL    HW2 8937   1.157   4.354   7.026
 2791SOL     OW 8938   1.032   4.273   5.602
 2791SOL    HW1 8939   0.991   4.355   5.563
 2791SOL    HW2 8940   1.096   4.299   5.675
 2792SOL     OW 8941   0.078   4.280   6.972
 2792SOL    HW1 8942   0.170   4.279   6.931
 2792SOL    HW2 8943   0.072   4.354   7.039
 2793SOL     OW 8944   0.561   3.946   6.733
 2793SOL    HW1 8945   0.599   3.862   6.770
 2793SOL    HW2 8946   0.473   3.965   6.777
 2794SOL     OW 8947   0.866   4.178   6.228
 2794SOL    HW1 8948   0.834   4.250   6.166
 2794SOL    HW2 8949   0.890   4.097   6.175
 2795SOL     OW 8950   1.017   3.763   6.339
 2795SOL    HW1 8951   0.945   3.768   6.270
 2795SOL    HW2 8952   0.993   3.694   6.408
 2796SOL     OW 8953   1.466   4.314   6.578
 2796SOL    HW1 8954   1.436   4.219   6.585
 2796SOL    HW2 8955   1.539   4.330   6.644
 2797SOL     OW 8956   1.390   4.299   5.664
 2797SOL    HW1 8957   1.336   4.278   5.745
 2797SOL    HW2 8958   1.481   4.258   5.673
 2798SOL     OW 8959   0.527   3.980   5.914
 2798SOL    HW1 8960   0.554   3.921   5.839
 2798SOL    HW2 8961   0.527   4.075   5.883
 2799SOL     OW 8962   0.915   3.813   6.988
 2799SOL    HW1 8963   0.940   3.793   6.893
 2799SOL    HW2 8964   0.987   3.869   7.030
 2800SOL     OW 8965   0.410   4.537   6.837
 2800SOL    HW1 8966   0.496   4.549   6.887
 2800SOL    HW2 8967   0.368   4.450   6.864
 2801SOL     OW 8968   1.274   4.110   6.848
 2801SOL    HW1 8969   1.295   4.184   6.912
 2801SOL    HW2 8970   1.185   4.127   6.805
 2802SOL     OW 8971   0.566   4.261   6.451
 2802SOL    HW1 8972   0.578   4.327   6.377
 2802SOL    HW2 8973   0.612   4.295   6.534
 2803SOL     OW 8974   1.582   4.363   6.058
 2803SOL    HW1 8975   1.551   4.424   6.131
 2803SOL    HW2 8976   1.632   4.415   5.989
 2804SOL     OW 8977   1.013   3.829   7.356
 2804SOL    HW1 8978   1.019   3.914   7.304
 2804SOL    HW2 8979   1.045   3.753   7.299
 2805SOL     OW 8980   0.504   3.774   7.326
 2805SOL    HW1 8981   0.462   3.717   7.256
 2805SOL    HW2 8982   0.438   3.843   7.358
 2806SOL     OW 8983   1.209   4.249   5.861
 2806SOL    HW1 8984   1.222   4.165   5.915
 2806SOL    HW2 8985   1.180   4.323   5.921
 2807SOL     OW 8986   0.307   3.937   6.817
 2807SOL    HW1 8987   0.284   3.974   6.907
 2807SOL    HW2 8988   0.277   3.842   6.811
 2808SOL     OW 8989   0.732   4.358   6.650
 2808SOL    HW1 8990   0.791   4.332   6.574
 2808SOL    HW2 8991   0.704   4.454   6.639
 2809SOL     OW 8992   1.728   4.659   7.440
 2809SOL    HW1 8993   1.682   4.652   7.351
 2809SOL    HW2 8994   1.666   4.703   7.506
 2810SOL     OW 8995   0.307   3.787   6.204
 2810SOL    HW1 8996   0.296   3.881   6.237
 2810SOL    HW2 8997   0.302   3.724   6.281
 2811SOL     OW 8998   1.622   4.091   5.960
 2811SOL    HW1 8999   1.624   4.015   6.024
 2811SOL    HW2 9000   1.574   4.168   6.000
 2812SOL     OW 9001   1.540   3.998   5.711
 2812SOL    HW1 9002   1.479   3.923   5.734
 2812SOL    HW2 9003   1.562   4.050   5.794
 2813SOL     OW 9004   0.319   4.534   6.535
 2813SOL    HW1 9005   0.412   4.570   6.540
 2813SOL    HW2 9006   0.313   4.449   6.587
 2814SOL     OW 9007   0.339   4.233   6.592
 2814SOL    HW1 9008   0.287   4.150   6.575
 2814SOL    HW2 9009   0.416   4.238   6.528
 2815SOL     OW 9010   1.138   4.104   7.264
 2815SOL    HW1 9011   1.093   4.167   7.328
 2815SOL    HW2 9012   1.231   4.135   7.247
 2816SOL     OW 9013   1.160   3.931   7.063
 2816SOL    HW1 9014   1.160   3.995   7.140
 2816SOL    HW2 9015   1.188   3.979   6.980
 2817SOL     OW 9016   0.040   4.268   6.700
 2817SOL    HW1 9017   0.125   4.235   6.659
 2817SOL    HW2 9018   0.053   4.283   6.798
 2818SOL     OW 9019   0.189   4.244   7.308
 2818SOL    HW1 9020   0.248   4.204   7.238
 2818SOL    HW2 9021   0.131   4.315   7.267
 2819SOL     OW 9022   0.815   4.296   5.911
 2819SOL    HW1 9023   0.822   4.207   5.865
 2819SOL    HW2 9024   0.721   4.330   5.903
 2820SOL     OW 9025   1.657   4.328   6.792
 2820SOL    HW1 9026   1.619   4.259   6.854
 2820SOL    HW2 9027   1.739   4.292   6.748
 2821SOL     OW 9028   0.671   4.188   6.855
 2821SOL    HW1 9029   0.637   4.099   6.825
 2821SOL    HW2 9030   0.697   4.242   6.775
 2822SOL     OW 9031   0.473   4.224   5.777
 2822SOL    HW1 9032   0.534   4.304   5.781
 2822SOL    HW2 9033   0.378   4.255   5.784
 2823SOL     OW 9034   1.726   3.859   6.109
 2823SOL    HW1 9035   1.799   3.842   6.042
 2823SOL    HW2 9036   1.695   3.772   6.147
 2824SOL     OW 9037   1.280   4.651   6.258
 2824SOL    HW1 9038   1.340   4.570   6.260
 2824SOL    HW2 9039   1.320   4.720   6.198
 2825SOL     OW 9040   1.841   3.899   6.549
 2825SOL    HW1 9041   1.880   3.814   6.513
 2825SOL    HW2 9042   1.743   3.901   6.530
 2826SOL     OW 9043   0.263   4.050   6.306
 2826SOL    HW1 9044   0.184   4.101   6.272
 2826SOL    HW2 9045   0.254   4.035   6.404
 2827SOL     OW 9046   0.916   4.634   5.877
 2827SOL    HW1 9047   0.979   4.672   5.809
 2827SOL    HW2 9048   0.956   4.551   5.916
 2828SOL     OW 9049   1.039   4.822   6.282
 2828SOL    HW1 9050   0.969   4.775   6.336
 2828SOL    HW2 9051   1.098   4.754   6.239
 2829SOL     OW 9052   1.014   3.960   6.557
 2829SOL    HW1 9053   1.006   3.924   6.464
 2829SOL    HW2 9054   1.012   3.884   6.622
 2830SOL     OW 9055   1.709   4.109   6.967
 2830SOL    HW1 9056   1.782   4.178   6.971
 2830SOL    HW2 9057   1.737   4.034   6.908
 2831SOL     OW 9058   0.672   3.927   7.075
 2831SOL    HW1 9059   0.762   3.911   7.035
 2831SOL    HW2 9060   0.680   3.932   7.174
 2832SOL     OW 9061   0.075   4.069   5.619
 2832SOL    HW1 9062  -0.017   4.041   5.590
 2832SOL    HW2 9063   0.106   4.146   5.563
 2833SOL     OW 9064   0.072   3.890   5.904
 2833SOL    HW1 9065   0.055   3.973   5.850
 2833SOL    HW2 9066   0.162   3.853   5.882
 2834SOL     OW 9067   0.716   4.289   7.294
 2834SOL    HW1 9068   0.735   4.354   7.368
 2834SOL    HW2 9069   0.776   4.209   7.303
 2835SOL     OW 9070   1.225   4.049   6.035
 2835SOL    HW1 9071   1.290   3.975   6.024
 2835SOL    HW2 9072   1.245   4.099   6.119
 2836SOL     OW 9073   1.777   4.066   7.228
 2836SOL    HW1 9074   1.760   4.097   7.134
 2836SOL    HW2 9075   1.693   4.029   7.266
 2837SOL     OW 9076   1.083   4.708   5.673
 2837SOL    HW1 9077   1.060   4.761   5.591
 2837SOL    HW2 9078   1.164   4.652   5.654
 2838SOL     OW 9079   1.824   3.916   6.813
 2838SOL    HW1 9080   1.820   3.826   6.857
 2838SOL    HW2 9081   1.827   3.905   6.714
 2839SOL     OW 9082   0.428   4.148   6.106
 2839SOL    HW1 9083   0.458   4.076   6.044
 2839SOL    HW2 9084   0.389   4.108   6.189
 2840SOL     OW 9085   0.317   4.271   6.866
 2840SOL    HW1 9086   0.355   4.212   6.938
 2840SOL    HW2 9087   0.357   4.245   6.778
 2841SOL     OW 9088   1.424   3.938   6.698
 2841SOL    HW1 9089   1.476   3.873   6.753
 2841SOL    HW2 9090   1.375   4.001   6.759
 2842SOL     OW 9091   1.001   3.758   6.740
 2842SOL    HW1 9092   0.938   3.686   6.709
 2842SOL    HW2 9093   1.094   3.722   6.740
 2843SOL     OW 9094   1.352   3.776   5.754
 2843SOL    HW1 9095   1.387   3.735   5.670
 2843SOL    HW2 9096   1.262   3.738   5.774
 2844SOL     OW 9097   1.300   4.177   6.277
 2844SOL    HW1 9098   1.241   4.257   6.281
 2844SOL    HW2 9099   1.315   4.142   6.370
 2845SOL     OW 9100   1.593   3.945   6.468
 2845SOL    HW1 9101   1.509   3.944   6.522
 2845SOL    HW2 9102   1.595   4.028   6.412
 2846SOL     OW 9103   0.230   4.352   7.561
 2846SOL    HW1 9104   0.137   4.350   7.598
 2846SOL    HW2 9105   0.231   4.313   7.469
 2847SOL     OW 9106   0.225   3.999   8.444
 2847SOL    HW1 9107   0.260   3.982   8.536
 2847SOL    HW2 9108   0.137   3.954   8.432
 2848SOL     OW 9109   0.019   4.092   8.095
 2848SOL    HW1 9110  -0.063   4.135   8.134
 2848SOL    HW2 9111  -0.009   4.019   8.032
 2849SOL     OW 9112   1.755   4.331   7.679
 2849SOL    HW1 9113   1.743   4.318   7.580
 2849SOL    HW2 9114   1.725   4.250   7.728
 2850SOL     OW 9115   0.685   4.736   8.113
 2850SOL    HW1 9116   0.754   4.720   8.183
 2850SOL    HW2 9117   0.612   4.793   8.151
 2851SOL     OW 9118   0.438   4.116   8.947
 2851SOL    HW1 9119   0.520   4.060   8.956
 2851SOL    HW2 9120   0.357   4.058   8.951
 2852SOL     OW 9121   1.603   4.171   8.185
 2852SOL    HW1 9122   1.529   4.217   8.135
 2852SOL    HW2 9123   1.654   4.239   8.238
 2853SOL     OW 9124   1.594   3.838   8.928
 2853SOL    HW1 9125   1.576   3.905   8.856
 2853SOL    HW2 9126   1.591   3.884   9.017
 2854SOL     OW 9127   0.122   4.367   8.011
 2854SOL    HW1 9128   0.077   4.279   8.028
 2854SOL    HW2 9129   0.121   4.421   8.095
 2855SOL     OW 9130   0.113   4.461   9.045
 2855SOL    HW1 9131   0.201   4.448   9.090
 2855SOL    HW2 9132   0.100   4.558   9.023
 2856SOL     OW 9133   0.809   3.728   7.950
 2856SOL    HW1 9134   0.849   3.819   7.941
 2856SOL    HW2 9135   0.709   3.736   7.956
 2857SOL     OW 9136   0.317   3.975   9.249
 2857SOL    HW1 9137   0.388   4.046   9.255
 2857SOL    HW2 9138   0.229   4.014   9.277
 2858SOL     OW 9139   1.281   4.069   8.392
 2858SOL    HW1 9140   1.195   4.019   8.379
 2858SOL    HW2 9141   1.343   4.015   8.448
 2859SOL     OW 9142   0.807   4.329   8.913
 2859SOL    HW1 9143   0.760   4.326   9.002
 2859SOL    HW2 9144   0.756   4.274   8.847
 2860SOL     OW 9145   1.394   4.193   9.122
 2860SOL    HW1 9146   1.374   4.236   9.210
 2860SOL    HW2 9147   1.472   4.131   9.131
 2861SOL     OW 9148   0.991   4.134   8.690
 2861SOL    HW1 9149   0.914   4.168   8.744
 2861SOL    HW2 9150   0.957   4.083   8.611
 2862SOL     OW 9151   1.041   4.425   7.877
 2862SOL    HW1 9152   1.067   4.421   7.973
 2862SOL    HW2 9153   0.956   4.374   7.863
 2863SOL     OW 9154   0.076   4.535   8.237
 2863SOL    HW1 9155   0.175   4.523   8.246
 2863SOL    HW2 9156   0.052   4.630   8.258
 2864SOL     OW 9157   0.865   4.072   7.643
 2864SOL    HW1 9158   0.924   4.135   7.594
 2864SOL    HW2 9159   0.884   3.978   7.614
 2865SOL     OW 9160   1.719   4.309   9.279
 2865SOL    HW1 9161   1.693   4.398   9.243
 2865SOL    HW2 9162   1.717   4.241   9.206
 2866SOL     OW 9163   0.550   3.920   8.333
 2866SOL    HW1 9164   0.545   3.915   8.433
 2866SOL    HW2 9165   0.552   4.016   8.304
 2867SOL     OW 9166   1.458   4.459   8.176
 2867SOL    HW1 9167   1.453   4.394   8.251
 2867SOL    HW2 9168   1.538   4.518   8.189
 2868SOL     OW 9169   0.202   4.009   8.946
 2868SOL    HW1 9170   0.122   4.069   8.933
 2868SOL    HW2 9171   0.192   3.960   9.032
 2869SOL     OW 9172   1.400   3.831   7.874
 2869SOL    HW1 9173   1.376   3.794   7.784
 2869SOL    HW2 9174   1.499   3.847   7.878
 2870SOL     OW 9175   0.382   4.424   7.928
 2870SOL    HW1 9176   0.427   4.334   7.925
 2870SOL    HW2 9177   0.288   4.413   7.961
 2871SOL     OW 9178   1.547   3.946   9.177
 2871SOL    HW1 9179   1.542   3.983   9.269
 2871SOL    HW2 9180   1.475   3.877   9.165
 2872SOL     OW 9181   0.614   3.846   7.565
 2872SOL    HW1 9182   0.712   3.824   7.572
 2872SOL    HW2 9183   0.583   3.829   7.472
 2873SOL     OW 9184   0.781   3.988   9.197
 2873SOL    HW1 9185   0.848   3.927   9.240
 2873SOL    HW2 9186   0.708   4.007   9.262
 2874SOL     OW 9187   1.351   4.314   8.881
 2874SOL    HW1 9188   1.379   4.271   8.966
 2874SOL    HW2 9189   1.376   4.410   8.882
 2875SOL     OW 9190   0.922   4.227   8.347
 2875SOL    HW1 9191   0.897   4.218   8.251
 2875SOL    HW2 9192   0.970   4.145   8.378
 2876SOL     OW 9193   0.539   3.788   7.960
 2876SOL    HW1 9194   0.458   3.789   8.018
 2876SOL    HW2 9195   0.542   3.871   7.905
 2877SOL     OW 9196   0.297   3.759   7.619
 2877SOL    HW1 9197   0.346   3.843   7.598
 2877SOL    HW2 9198   0.359   3.694   7.664
 2878SOL     OW 9199   0.935   3.960   7.928
 2878SOL    HW1 9200   0.887   4.001   7.850
 2878SOL    HW2 9201   1.034   3.958   7.909
 2879SOL     OW 9202   1.076   4.407   8.912
 2879SOL    HW1 9203   0.996   4.346   8.915
 2879SOL    HW2 9204   1.157   4.354   8.888
 2880SOL     OW 9205   1.032   4.273   7.464
 2880SOL    HW1 9206   0.991   4.355   7.425
 2880SOL    HW2 9207   1.096   4.299   7.537
 2881SOL     OW 9208   0.078   4.280   8.834
 2881SOL    HW1 9209   0.170   4.279   8.793
 2881SOL    HW2 9210   0.072   4.354   8.901
 2882SOL     OW 9211   0.561   3.946   8.595
 2882SOL    HW1 9212   0.599   3.862   8.632
 2882SOL    HW2 9213   0.473   3.965   8.639
 2883SOL     OW 9214   0.866   4.178   8.090
 2883SOL    HW1 9215   0.834   4.250   8.028
 2883SOL    HW2 9216   0.890   4.097   8.037
 2884SOL     OW 9217   1.017   3.763   8.201
 2884SOL    HW1 9218   0.945   3.768   8.132
 2884SOL    HW2 9219   0.993   3.694   8.270
 2885SOL     OW 9220   1.466   4.314   8.440
 2885SOL    HW1 9221   1.436   4.219   8.447
 2885SOL    HW2 9222   1.539   4.330   8.506
 2886SOL     OW 9223   1.390   4.299   7.526
 2886SOL    HW1 9224   1.336   4.278   7.607
 2886SOL    HW2 9225   1.481   4.258   7.535
 2887SOL     OW 9226   0.527   3.980   7.776
 2887SOL    HW1 9227   0.554   3.921   7.701
 2887SOL    HW2 9228   0.527   4.075   7.745
 2888SOL     OW 9229   0.915   3.813   8.850
 2888SOL    HW1 9230   0.940   3.793   8.755
 2888SOL    HW2 9231   0.987   3.869   8.892
 2889SOL     OW 9232   0.410   4.537   8.699
 2889SOL    HW1 9233   0.496   4.549   8.749
 2889SOL    HW2 9234   0.368   4.450   8.726
 2890SOL     OW 9235   1.274   4.110   8.710
 2890SOL    HW1 9236   1.295   4.184   8.774
 2890SOL    HW2 9237   1.185   4.127   8.667
 2891SOL     OW 9238   0.566   4.261   8.313
 2891SOL    HW1 9239   0.578   4.327   8.239
 2891SOL    HW2 9240   0.612   4.295   8.396
 2892SOL     OW 9241   1.582   4.363   7.920
 2892SOL    HW1 9242   1.551   4.424   7.993
 2892SOL    HW2 9243   1.632   4.415   7.851
 2893SOL     OW 9244   1.013   3.829   9.218
 2893SOL    HW1 9245   1.019   3.914   9.166
 2893SOL    HW2 9246   1.045   3.753   9.161
 2894SOL     OW 9247   0.504   3.774   9.188
 2894SOL    HW1 9248   0.462   3.717   9.118
 2894SOL    HW2 9249   0.438   3.843   9.220
 2895SOL     OW 9250   1.209   4.249   7.723
 2895SOL    HW1 9251   1.222   4.165   7.777
 2895SOL    HW2 9252   1.180   4.323   7.783
 2896SOL     OW 9253   0.307   3.937   8.679
 2896SOL    HW1 9254   0.284   3.974   8.769
 2896SOL    HW2 9255   0.277   3.842   8.673
 2897SOL     OW 9256   0.732   4.358   8.512
 2897SOL    HW1 9257   0.791   4.332   8.436
 2897SOL    HW2 9258   0.704   4.454   8.501
 2898SOL     OW 9259   1.728   4.659   9.302
 2898SOL    HW1 9260   1.682   4.652   9.213
 2898SOL    HW2 9261   1.666   4.703   9.368
 2899SOL     OW 9262   0.307   3.787   8.066
 2899SOL    HW1 9263   0.296   3.881   8.099
 2899SOL    HW2 9264   0.302   3.724   8.143
 2900SOL     OW 9265   1.622   4.091   7.822
 2900SOL    HW1 9266   1.624   4.015   7.886
 2900SOL    HW2 9267   1.574   4.168   7.862
 2901SOL     OW 9268   1.540   3.998   7.573
 2901SOL    HW1 9269   1.479   3.923   7.596
 2901SOL    HW2 9270   1.562   4.050   7.656
 2902SOL     OW 9271   0.319   4.534   8.397
 2902SOL    HW1 9272   0.412   4.570   8.402
 2902SOL    HW2 9273   0.313   4.449   8.449
 2903SOL     OW 9274   0.339   4.233   8.454
 2903SOL    HW1 9275   0.287   4.150   8.437
 2903SOL    HW2 9276   0.416   4.238   8.390
 2904SOL     OW 9277   1.138   4.104   9.126
 2904SOL    HW1 9278   1.093   4.167   9.190
 2904SOL    HW2 9279   1.231   4.135   9.109
 2905SOL     OW 9280   1.160   3.931   8.925
 2905SOL    HW1 9281   1.160   3.995   9.002
 2905SOL    HW2 9282   1.188   3.979   8.842
 2906SOL     OW 9283   0.040   4.268   8.562
 2906SOL    HW1 9284   0.125   4.235   8.521
 2906SOL    HW2 9285   0.053   4.283   8.660
 2907SOL     OW 9286   0.189   4.244   9.170
 2907SOL    HW1 9287   0.248   4.204   9.100
 2907SOL    HW2 9288   0.131   4.315   9.129
 2908SOL     OW 9289   0.815   4.296   7.773
 2908SOL    HW1 9290   0.822   4.207   7.727
 2908SOL    HW2 9291   0.721   4.330   7.765
 2909SOL     OW 9292   1.657   4.328   8.654
 2909SOL    HW1 9293   1.619   4.259   8.716
 2909SOL    HW2 9294   1.739   4.292   8.610
 2910SOL     OW 9295   0.671   4.188   8.717
 2910SOL    HW1 9296   0.637   4.099   8.687
 2910SOL    HW2 9297   0.697   4.242   8.637
 2911SOL     OW 9298   0.473   4.224   7.639
 2911SOL    HW1 9299   0.534   4.304   7.643
 2911SOL    HW2 9300   0.378   4.255   7.646
 2912SOL     OW 9301   1.726   3.859   7.971
 2912SOL    HW1 9302   1.799   3.842   7.904
 2912SOL    HW2 9303   1.695   3.772   8.009
 2913SOL     OW 9304   1.280   4.651   8.120
 2913SOL    HW1 9305   1.340   4.570   8.122
 2913SOL    HW2 9306   1.320   4.720   8.060
 2914SOL     OW 9307   1.841   3.899   8.411
 2914SOL    HW1 9308   1.880   3.814   8.375
 2914SOL    HW2 9309   1.743   3.901   8.392
 2915SOL     OW 9310   0.263   4.050   8.168
 2915SOL    HW1 9311   0.184   4.101   8.134
 2915SOL    HW2 9312   0.254   4.035   8.266
 2916SOL     OW 9313   0.916   4.634   7.739
 2916SOL    HW1 9314   0.979   4.672   7.671
 2916SOL    HW2 9315   0.956   4.551   7.778
 2917SOL     OW 9316   1.039   4.822   8.144
 2917SOL    HW1 9317   0.969   4.775   8.198
 2917SOL    HW2 9318   1.098   4.754   8.101
 2918SOL     OW 9319   1.014   3.960   8.419
 2918SOL    HW1 9320   1.006   3.924   8.326
 2918SOL    HW2 9321   1.012   3.884   8.484
 2919SOL     OW 9322   1.709   4.109   8.829
 2919SOL    HW1 9323   1.782   4.178   8.833
 2919SOL    HW2 9324   1.737   4.034   8.770
 2920SOL     OW 9325   0.672   3.927   8.937
 2920SOL    HW1 9326   0.762   3.911   8.897
 2920SOL    HW2 9327   0.680   3.932   9.036
 2921SOL     OW 9328   0.075   4.069   7.481
 2921SOL    HW1 9329  -0.017   4.041   7.452
 2921SOL    HW2 9330   0.106   4.146   7.425
 2922SOL     OW 9331   0.072   3.890   7.766
 2922SOL    HW1 9332   0.055   3.973   7.712
 2922SOL    HW2 9333   0.162   3.853   7.744
 2923SOL     OW 9334   0.716   4.289   9.156
 2923SOL    HW1 9335   0.735   4.354   9.230
 2923SOL    HW2 9336   0.776   4.209   9.165
 2924SOL     OW 9337   1.225   4.049   7.897
 2924SOL    HW1 9338   1.290   3.975   7.886
 2924SOL    HW2 9339   1.245   4.099   7.981
 2925SOL     OW 9340   1.777   4.066   9.090
 2925SOL    HW1 9341   1.760   4.097   8.996
 2925SOL    HW2 9342   1.693   4.029   9.128
 2926SOL     OW 9343   1.083   4.708   7.535
 2926SOL    HW1 9344   1.060   4.761   7.453
 2926SOL    HW2 9345   1.164   4.652   7.516
 2927SOL     OW 9346   1.824   3.916   8.675
 2927SOL    HW1 9347   1.820   3.826   8.719
 2927SOL    HW2 9348   1.827   3.905   8.576
 2928SOL     OW 9349   0.428   4.148   7.968
 2928SOL    HW1 9350   0.458   4.076   7.906
 2928SOL    HW2 9351   0.389   4.108   8.051
 2929SOL     OW 9352   0.317   4.271   8.728
 2929SOL    HW1 9353   0.355   4.212   8.800
 2929SOL    HW2 9354   0.357   4.245   8.640
 2930SOL     OW 9355   1.424   3.938   8.560
 2930SOL    HW1 9356   1.476   3.873   8.615
 2930SOL    HW2 9357   1.375   4.001   8.621
 2931SOL     OW 9358   1.001   3.758   8.602
 2931SOL    HW1 9359   0.938   3.686   8.571
 2931SOL    HW2 9360   1.094   3.722   8.602
 2932SOL     OW 9361   1.352   3.776   7.616
 2932SOL    HW1 9362   1.387   3.735   7.532
 2932SOL    HW2 9363   1.262   3.738   7.636
 2933SOL     OW 9364   1.300   4.177   8.139
 2933SOL    HW1 9365   1.241   4.257   8.143
 2933SOL    HW2 9366   1.315   4.142   8.232
 2934SOL     OW 9367   1.593   3.945   8.330
 2934SOL    HW1 9368   1.509   3.944   8.384
 2934SOL    HW2 9369   1.595   4.028   8.274
 2935SOL     OW 9370   0.230   4.352   9.423
 2935SOL    HW1 9371   0.137   4.350   9.460
 2935SOL    HW2 9372   0.231   4.313   9.331
 2936SOL     OW 9373   0.225   3.999  10.306
 2936SOL    HW1 9374   0.260   3.982  10.398
 2936SOL    HW2 9375   0.137   3.954  10.294
 2937SOL     OW 9376   0.019   4.092   9.957
 2937SOL    HW1 9377  -0.063   4.135   9.996
 2937SOL    HW2 9378  -0.009   4.019   9.894
 2938SOL     OW 9379   1.755   4.331   9.541
 2938SOL    HW1 9380   1.743   4.318   9.442
 2938SOL    HW2 9381   1.725   4.250   9.590
 2939SOL     OW 9382   0.685   4.736   9.975
 2939SOL    HW1 9383   0.754   4.720  10.045
 2939SOL    HW2 9384   0.612   4.793  10.013
 2940SOL     OW 9385   0.438   4.116  10.809
 2940SOL    HW1 9386   0.520   4.060  10.818
 2940SOL    HW2 9387   0.357   4.058  10.813
 2941SOL     OW 9388   1.603   4.171  10.047
 2941SOL    HW1 9389   1.529   4.217   9.997
 2941SOL    HW2 9390   1.654   4.239  10.100
 2942SOL     OW 9391   1.594   3.838  10.790
 2942SOL    HW1 9392   1.576   3.905  10.718
 2942SOL    HW2 9393   1.591   3.884  10.879
 2943SOL     OW 9394   0.122   4.367   9.873
 2943SOL    HW1 9395   0.077   4.279   9.890
 2943SOL    HW2 9396   0.121   4.421   9.957
 2944SOL     OW 9397   0.113   4.461  10.907
 2944SOL    HW1 9398   0.201   4.448  10.952
 2944SOL    HW2 9399   0.100   4.558  10.885
 2945SOL     OW 9400   0.809   3.728   9.812
 2945SOL    HW1 9401   0.849   3.819   9.803
 2945SOL    HW2 9402   0.709   3.736   9.818
 2946SOL     OW 9403   0.317   3.975  11.111
 2946SOL    HW1 9404   0.388   4.046  11.117
 2946SOL    HW2 9405   0.229   4.014  11.139
 2947SOL     OW 9406   1.281   4.069  10.254
 2947SOL    HW1 9407   1.195   4.019  10.241
 2947SOL    HW2 9408   1.343   4.015  10.310
 2948SOL     OW 9409   0.807   4.329  10.775
 2948SOL    HW1 9410   0.760   4.326  10.864
 2948SOL    HW2 9411   0.756   4.274  10.709
 2949SOL     OW 9412   0.991   4.134  10.552
 2949SOL    HW1 9413   0.914   4.168  10.606
 2949SOL    HW2 9414   0.957   4.083  10.473
 2950SOL     OW 9415   1.041   4.425   9.739
 2950SOL    HW1 9416   1.067   4.421   9.835
 2950SOL    HW2 9417   0.956   4.374   9.725
 2951SOL     OW 9418   0.076   4.535  10.099
 2951SOL    HW1 9419   0.175   4.523  10.108
 2951SOL    HW2 9420   0.052   4.630  10.120
 2952SOL     OW 9421   0.865   4.072   9.505
 2952SOL    HW1 9422   0.924   4.135   9.456
 2952SOL    HW2 9423   0.884   3.978   9.476
 2953SOL     OW 9424   0.550   3.920  10.195
 2953SOL    HW1 9425   0.545   3.915  10.295
 2953SOL    HW2 9426   0.552   4.016  10.166
 2954SOL     OW 9427   1.458   4.459  10.038
 2954SOL    HW1 9428   1.453   4.394  10.113
 2954SOL    HW2 9429   1.538   4.518  10.051
 2955SOL     OW 9430   0.202   4.009  10.808
 2955SOL    HW1 9431   0.122   4.069  10.795
 2955SOL    HW2 9432   0.192   3.960  10.894
 2956SOL     OW 9433   1.400   3.831   9.736
 2956SOL    HW1 9434   1.376   3.794   9.646
 2956SOL    HW2 9435   1.499   3.847   9.740
 2957SOL     OW 9436   0.382   4.424   9.790
 2957SOL    HW1 9437   0.427   4.334   9.787
 2957SOL    HW2 9438   0.288   4.413   9.823
 2958SOL     OW 9439   0.614   3.846   9.427
 2958SOL    HW1 9440   0.712   3.824   9.434
 2958SOL    HW2 9441   0.583   3.829   9.334
 2959SOL     OW 9442   0.781   3.988  11.059
 2959SOL    HW1 9443   0.848   3.927  11.102
 2959SOL    HW2 9444   0.708   4.007  11.124
 2960SOL     OW 9445   1.351   4.314  10.743
 2960SOL    HW1 9446   1.379   4.271  10.828
 2960SOL    HW2 9447   1.376   4.410  10.744
 2961SOL     OW 9448   0.922   4.227  10.209
 2961SOL    HW1 9449   0.897   4.218  10.113
 2961SOL    HW2 9450   0.970   4.145  10.240
 2962SOL     OW 9451   0.539   3.788   9.822
 2962SOL    HW1 9452   0.458   3.789   9.880
 2962SOL    HW2 9453   0.542   3.871   9.767
 2963SOL     OW 9454   0.297   3.759   9.481
 2963SOL    HW1 9455   0.346   3.843   9.460
 2963SOL    HW2 9456   0.359   3.694   9.526
 2964SOL     OW 9457   0.935   3.960   9.790
 2964SOL    HW1 9458   0.887   4.001   9.712
 2964SOL    HW2 9459   1.034   3.958   9.771
 2965SOL     OW 9460   1.076   4.407  10.774
 2965SOL    HW1 9461   0.996   4.346  10.777
 2965SOL    HW2 9462   1.157   4.354  10.750
 2966SOL     OW 9463   1.032   4.273   9.326
 2966SOL    HW1 9464   0.991   4.355   9.287
 2966SOL    HW2 9465   1.096   4.299   9.399
 2967SOL     OW 9466   0.078   4.280  10.696
 2967SOL    HW1 9467   0.170   4.279  10.655
 2967SOL    HW2 9468   0.072   4.354  10.763
 2968SOL     OW 9469   0.561   3.946  10.457
 2968SOL    HW1 9470   0.599   3.862  10.494
 2968SOL    HW2 9471   0.473   3.965  10.501
 2969SOL     OW 9472   0.866   4.178   9.952
 2969SOL    HW1 9473   0.834   4.250   9.890
 2969SOL    HW2 9474   0.890   4.097   9.899
 2970SOL     OW 9475   1.017   3.763  10.063
 2970SOL    HW1 9476   0.945   3.768   9.994
 2970SOL    HW2 9477   0.993   3.694  10.132
 2971SOL     OW 9478   1.466   4.314  10.302
 2971SOL    HW1 9479   1.436   4.219  10.309
 2971SOL    HW2 9480   1.539   4.330  10.368
 2972SOL     OW 9481   1.390   4.299   9.388
 2972SOL    HW1 9482   1.336   4.278   9.469
 2972SOL    HW2 9483   1.481   4.258   9.397
 2973SOL     OW 9484   0.527   3.980   9.638
 2973SOL    HW1 9485   0.554   3.921   9.563
 2973SOL    HW2 9486   0.527   4.075   9.607
 2974SOL     OW 9487   0.915   3.813  10.712
 2974SOL    HW1 9488   0.940   3.793  10.617
 2974SOL    HW2 9489   0.987   3.869  10.754
 2975SOL     OW 9490   0.410   4.537  10.561
 2975SOL    HW1 9491   0.496   4.549  10.611
 2975SOL    HW2 9492   0.368   4.450  10.588
 2976SOL     OW 9493   1.274   4.110  10.572
 2976SOL    HW1 9494   1.295   4.184  10.636
 2976SOL    HW2 9495   1.185   4.127  10.529
 2977SOL     OW 9496   0.566   4.261  10.175
 2977SOL    HW1 9497   0.578   4.327  10.101
 2977SOL    HW2 9498   0.612   4.295  10.258
 2978SOL     OW 9499   1.582   4.363   9.782
 2978SOL    HW1 9500   1.551   4.424   9.855
 2978SOL    HW2 9501   1.632   4.415   9.713
 2979SOL     OW 9502   0.402   4.475  10.908
 2979SOL    HW1 9503   0.470   4.530  10.861
 2979SOL    HW2 9504   0.442   4.387  10.935
 2980SOL     OW 9505   1.209   4.249   9.585
 2980SOL    HW1 9506   1.222   4.165   9.639
 2980SOL    HW2 9507   1.180   4.323   9.645
 2981SOL     OW 9508   0.307   3.937  10.541
 2981SOL    HW1 9509   0.284   3.974  10.631
 2981SOL    HW2 9510   0.277   3.842  10.535
 2982SOL     OW 9511   0.732   4.358  10.374
 2982SOL    HW1 9512   0.791   4.332  10.298
 2982SOL    HW2 9513   0.704   4.454  10.363
 2983SOL     OW 9514   0.307   3.787   9.928
 2983SOL    HW1 9515   0.296   3.881   9.961
 2983SOL    HW2 9516   0.302   3.724  10.005
 2984SOL     OW 9517   1.622   4.091   9.684
 2984SOL    HW1 9518   1.624   4.015   9.748
 2984SOL    HW2 9519   1.574   4.168   9.724
 2985SOL     OW 9520   1.540   3.998   9.435
 2985SOL    HW1 9521   1.479   3.923   9.458
 2985SOL    HW2 9522   1.562   4.050   9.518
 2986SOL     OW 9523   0.319   4.534  10.259
 2986SOL    HW1 9524   0.412   4.570  10.264
 2986SOL    HW2 9525   0.313   4.449  10.311
 2987SOL     OW 9526   0.339   4.233  10.316
 2987SOL    HW1 9527   0.287   4.150  10.299
 2987SOL    HW2 9528   0.416   4.238  10.252
 2988SOL     OW 9529   1.160   3.931  10.787
 2988SOL    HW1 9530   1.160   3.995  10.864
 2988SOL    HW2 9531   1.188   3.979  10.704
 2989SOL     OW 9532   0.040   4.268  10.424
 2989SOL    HW1 9533   0.125   4.235  10.383
 2989SOL    HW2 9534   0.053   4.283  10.522
 2990SOL     OW 9535   1.369   4.674  10.970
 2990SOL    HW1 9536   1.408   4.763  10.990
 2990SOL    HW2 9537   1.379   4.654  10.873
 2991SOL     OW 9538   0.815   4.296   9.635
 2991SOL    HW1 9539   0.822   4.207   9.589
 2991SOL    HW2 9540   0.721   4.330   9.627
 2992SOL     OW 9541   1.657   4.328  10.516
 2992SOL    HW1 9542   1.619   4.259  10.578
 2992SOL    HW2 9543   1.739   4.292  10.472
 2993SOL     OW 9544   0.671   4.188  10.579
 2993SOL    HW1 9545   0.637   4.099  10.549
 2993SOL    HW2 9546   0.697   4.242  10.499
 2994SOL     OW 9547   0.473   4.224   9.501
 2994SOL    HW1 9548   0.534   4.304   9.505
 2994SOL    HW2 9549   0.378   4.255   9.508
 2995SOL     OW 9550   1.726   3.859   9.833
 2995SOL    HW1 9551   1.799   3.842   9.766
 2995SOL    HW2 9552   1.695   3.772   9.871
 2996SOL     OW 9553   1.280   4.651   9.982
 2996SOL    HW1 9554   1.340   4.570   9.984
 2996SOL    HW2 9555   1.320   4.720   9.922
 2997SOL     OW 9556   1.841   3.899  10.273
 2997SOL    HW1 9557   1.880   3.814  10.237
 2997SOL    HW2 9558   1.743   3.901  10.254
 2998SOL     OW 9559   0.263   4.050  10.030
 2998SOL    HW1 9560   0.184   4.101   9.996
 2998SOL    HW2 9561   0.254   4.035  10.128
 2999SOL     OW 9562   0.916   4.634   9.601
 2999SOL    HW1 9563   0.979   4.672   9.533
 2999SOL    HW2 9564   0.956   4.551   9.640
 3000SOL     OW 9565   1.039   4.822  10.006
 3000SOL    HW1 9566   0.969   4.775  10.060
 3000SOL    HW2 9567   1.098   4.754   9.963
 3001SOL     OW 9568   1.014   3.960  10.281
 3001SOL    HW1 9569   1.006   3.924  10.188
 3001SOL    HW2 9570   1.012   3.884  10.346
 3002SOL     OW 9571   1.709   4.109  10.691
 3002SOL    HW1 9572   1.782   4.178  10.695
 3002SOL    HW2 9573   1.737   4.034  10.632
 3003SOL     OW 9574   0.672   3.927  10.799
 3003SOL    HW1 9575   0.762   3.911  10.759
 3003SOL    HW2 9576   0.680   3.932  10.898
 3004SOL     OW 9577   0.075   4.069   9.343
 3004SOL    HW1 9578  -0.017   4.041   9.314
 3004SOL    HW2 9579   0.106   4.146   9.287
 3005SOL     OW 9580   0.072   3.890   9.628
 3005SOL    HW1 9581   0.055   3.973   9.574
 3005SOL    HW2 9582   0.162   3.853   9.606
 3006SOL     OW 9583   0.716   4.289  11.018
 3006SOL    HW1 9584   0.735   4.354  11.092
 3006SOL    HW2 9585   0.776   4.209  11.027
 3007SOL     OW 9586   1.225   4.049   9.759
 3007SOL    HW1 9587   1.290   3.975   9.748
 3007SOL    HW2 9588   1.245   4.099   9.843
 3008SOL     OW 9589   1.777   4.066  10.952
 3008SOL    HW1 9590   1.760   4.097  10.858
 3008SOL    HW2 9591   1.693   4.029  10.990
 3009SOL     OW 9592   1.083   4.708   9.397
 3009SOL    HW1 9593   1.060   4.761   9.315
 3009SOL    HW2 9594   1.164   4.652   9.378
 3010SOL     OW 9595   1.824   3.916  10.537
 3010SOL    HW1 9596   1.820   3.826  10.581
 3010SOL    HW2 9597   1.827   3.905  10.438
 3011SOL     OW 9598   0.428   4.148   9.830
 3011SOL    HW1 9599   0.458   4.076   9.768
 3011SOL    HW2 9600   0.389   4.108   9.913
 3012SOL     OW 9601   0.317   4.271  10.590
 3012SOL    HW1 9602   0.355   4.212  10.662
 3012SOL    HW2 9603   0.357   4.245  10.502
 3013SOL     OW 9604   1.424   3.938  10.422
 3013SOL    HW1 9605   1.476   3.873  10.477
 3013SOL    HW2 9606   1.375   4.001  10.483
 3014SOL     OW 9607   1.001   3.758  10.464
 3014SOL    HW1 9608   0.938   3.686  10.433
 3014SOL    HW2 9609   1.094   3.722  10.464
 3015SOL     OW 9610   1.352   3.776   9.478
 3015SOL    HW1 9611   1.387   3.735   9.394
 3015SOL    HW2 9612   1.262   3.738   9.498
 3016SOL     OW 9613   1.300   4.177  10.001
 3016SOL    HW1 9614   1.241   4.257  10.005
 3016SOL    HW2 9615   1.315   4.142  10.094
 3017SOL     OW 9616   1.593   3.945  10.192
 3017SOL    HW1 9617   1.509   3.944  10.246
 3017SOL    HW2 9618   1.595   4.028  10.136
 3018SOL     OW 9619   2.092   0.628   0.113
 3018SOL    HW1 9620   1.999   0.626   0.150
 3018SOL    HW2 9621   2.093   0.589   0.021
 3019SOL     OW 9622   2.087   0.275   0.996
 3019SOL    HW1 9623   2.122   0.258   1.088
 3019SOL    HW2 9624   1.999   0.230   0.984
 3020SOL     OW 9625   1.881   0.368   0.647
 3020SOL    HW1 9626   1.799   0.411   0.686
 3020SOL    HW2 9627   1.853   0.295   0.584
 3021SOL     OW 9628   2.431   1.275   1.165
 3021SOL    HW1 9629   2.338   1.268   1.128
 3021SOL    HW2 9630   2.442   1.364   1.209
 3022SOL     OW 9631   3.417   1.511   0.703
 3022SOL    HW1 9632   3.360   1.495   0.784
 3022SOL    HW2 9633   3.358   1.521   0.623
 3023SOL     OW 9634   2.997   0.703   0.717
 3023SOL    HW1 9635   3.054   0.781   0.692
 3023SOL    HW2 9636   2.937   0.729   0.793
 3024SOL     OW 9637   3.617   0.607   0.231
 3024SOL    HW1 9638   3.605   0.594   0.132
 3024SOL    HW2 9639   3.587   0.526   0.280
 3025SOL     OW 9640   2.630   1.144   1.023
 3025SOL    HW1 9641   2.552   1.161   1.083
 3025SOL    HW2 9642   2.664   1.231   0.987
 3026SOL     OW 9643   2.712   0.798   1.823
 3026SOL    HW1 9644   2.708   0.874   1.888
 3026SOL    HW2 9645   2.734   0.834   1.732
 3027SOL     OW 9646   2.547   1.012   0.665
 3027SOL    HW1 9647   2.616   0.996   0.735
 3027SOL    HW2 9648   2.474   1.069   0.703
 3028SOL     OW 9649   2.548   1.161   1.803
 3028SOL    HW1 9650   2.608   1.240   1.817
 3028SOL    HW2 9651   2.462   1.192   1.762
 3029SOL     OW 9652   2.197   1.435   1.061
 3029SOL    HW1 9653   2.119   1.404   1.008
 3029SOL    HW2 9654   2.255   1.493   1.004
 3030SOL     OW 9655   3.322   1.505   1.339
 3030SOL    HW1 9656   3.346   1.599   1.365
 3030SOL    HW2 9657   3.306   1.451   1.421
 3031SOL     OW 9658   2.300   0.392   1.499
 3031SOL    HW1 9659   2.382   0.336   1.508
 3031SOL    HW2 9660   2.219   0.334   1.503
 3032SOL     OW 9661   3.465   0.447   0.737
 3032SOL    HW1 9662   3.391   0.493   0.687
 3032SOL    HW2 9663   3.516   0.515   0.790
 3033SOL     OW 9664   2.093   1.713   0.483
 3033SOL    HW1 9665   2.127   1.790   0.537
 3033SOL    HW2 9666   2.137   1.713   0.393
 3034SOL     OW 9667   2.989   1.341   1.690
 3034SOL    HW1 9668   3.036   1.341   1.778
 3034SOL    HW2 9669   2.941   1.254   1.679
 3035SOL     OW 9670   2.092   1.434   0.538
 3035SOL    HW1 9671   2.066   1.530   0.538
 3035SOL    HW2 9672   2.021   1.380   0.583
 3036SOL     OW 9673   2.102   1.091   0.886
 3036SOL    HW1 9674   2.116   1.007   0.938
 3036SOL    HW2 9675   2.047   1.155   0.941
 3037SOL     OW 9676   2.482   1.786   1.439
 3037SOL    HW1 9677   2.390   1.769   1.474
 3037SOL    HW2 9678   2.510   1.878   1.465
 3038SOL     OW 9679   2.468   0.964   0.123
 3038SOL    HW1 9680   2.475   1.048   0.069
 3038SOL    HW2 9681   2.514   0.977   0.211
 3039SOL     OW 9682   3.456   0.114   1.480
 3039SOL    HW1 9683   3.438   0.181   1.408
 3039SOL    HW2 9684   3.453   0.160   1.569
 3040SOL     OW 9685   1.984   0.643   0.563
 3040SOL    HW1 9686   1.939   0.555   0.580
 3040SOL    HW2 9687   1.983   0.697   0.647
 3041SOL     OW 9688   3.704   1.767   0.359
 3041SOL    HW1 9689   3.758   1.738   0.439
 3041SOL    HW2 9690   3.734   1.857   0.330
 3042SOL     OW 9691   1.889   1.596   0.117
 3042SOL    HW1 9692   1.870   1.500   0.138
 3042SOL    HW2 9693   1.856   1.654   0.192
 3043SOL     OW 9694   3.551   0.922   0.612
 3043SOL    HW1 9695   3.646   0.893   0.620
 3043SOL    HW2 9696   3.543   0.987   0.537
 3044SOL     OW 9697   3.503   1.108   0.432
 3044SOL    HW1 9698   3.589   1.110   0.380
 3044SOL    HW2 9699   3.517   1.155   0.520
 3045SOL     OW 9700   1.975   0.737   1.597
 3045SOL    HW1 9701   2.063   0.724   1.642
 3045SOL    HW2 9702   1.962   0.834   1.575
 3046SOL     OW 9703   2.475   1.365   0.726
 3046SOL    HW1 9704   2.426   1.278   0.735
 3046SOL    HW2 9705   2.452   1.408   0.639
 3047SOL     OW 9706   3.155   1.228   1.423
 3047SOL    HW1 9707   3.192   1.155   1.365
 3047SOL    HW2 9708   3.207   1.233   1.508
 3048SOL     OW 9709   2.671   0.004   0.502
 3048SOL    HW1 9710   2.711   0.095   0.493
 3048SOL    HW2 9711   2.571   0.012   0.508
 3049SOL     OW 9712   2.059   0.976   1.264
 3049SOL    HW1 9713   2.148   0.931   1.250
 3049SOL    HW2 9714   1.986   0.911   1.245
 3050SOL     OW 9715   3.387   0.999   0.190
 3050SOL    HW1 9716   3.324   0.923   0.203
 3050SOL    HW2 9717   3.435   1.017   0.276
 3051SOL     OW 9718   3.049   1.792   1.616
 3051SOL    HW1 9719   3.073   1.852   1.540
 3051SOL    HW2 9720   3.056   1.697   1.586
 3052SOL     OW 9721   2.179   0.251   1.801
 3052SOL    HW1 9722   2.250   0.322   1.807
 3052SOL    HW2 9723   2.091   0.290   1.829
 3053SOL     OW 9724   3.328   1.417   0.953
 3053SOL    HW1 9725   3.269   1.423   1.033
 3053SOL    HW2 9726   3.313   1.329   0.907
 3054SOL     OW 9727   3.529   1.714   0.572
 3054SOL    HW1 9728   3.488   1.691   0.484
 3054SOL    HW2 9729   3.511   1.640   0.637
 3055SOL     OW 9730   2.460   0.729   0.270
 3055SOL    HW1 9731   2.484   0.798   0.202
 3055SOL    HW2 9732   2.382   0.762   0.324
 3056SOL     OW 9733   3.143   0.345   0.944
 3056SOL    HW1 9734   3.057   0.295   0.931
 3056SOL    HW2 9735   3.205   0.291   1.000
 3057SOL     OW 9736   3.438   1.662   0.307
 3057SOL    HW1 9737   3.527   1.708   0.310
 3057SOL    HW2 9738   3.417   1.638   0.212
 3058SOL     OW 9739   2.669   0.605   1.465
 3058SOL    HW1 9740   2.622   0.602   1.554
 3058SOL    HW2 9741   2.618   0.550   1.399
 3059SOL     OW 9742   3.256   0.469   1.674
 3059SOL    HW1 9743   3.236   0.512   1.762
 3059SOL    HW2 9744   3.334   0.407   1.683
 3060SOL     OW 9745   2.835   0.890   1.572
 3060SOL    HW1 9746   2.881   0.806   1.543
 3060SOL    HW2 9747   2.779   0.924   1.497
 3061SOL     OW 9748   2.853   0.410   1.242
 3061SOL    HW1 9749   2.776   0.444   1.296
 3061SOL    HW2 9750   2.819   0.359   1.163
 3062SOL     OW 9751   2.903   0.701   0.429
 3062SOL    HW1 9752   2.929   0.697   0.525
 3062SOL    HW2 9753   2.818   0.650   0.415
 3063SOL     OW 9754   1.938   0.811   0.789
 3063SOL    HW1 9755   2.037   0.799   0.798
 3063SOL    HW2 9756   1.914   0.906   0.810
 3064SOL     OW 9757   1.992   1.821   1.571
 3064SOL    HW1 9758   1.982   1.806   1.670
 3064SOL    HW2 9759   1.906   1.857   1.535
 3065SOL     OW 9760   2.727   0.348   0.195
 3065SOL    HW1 9761   2.786   0.411   0.146
 3065SOL    HW2 9762   2.746   0.254   0.166
 3066SOL     OW 9763   3.581   0.585   1.831
 3066SOL    HW1 9764   3.555   0.674   1.795
 3066SOL    HW2 9765   3.579   0.517   1.758
 3067SOL     OW 9766   3.224   1.144   0.545
 3067SOL    HW1 9767   3.307   1.115   0.497
 3067SOL    HW2 9768   3.175   1.211   0.489
 3068SOL     OW 9769   2.412   0.196   0.885
 3068SOL    HW1 9770   2.407   0.191   0.985
 3068SOL    HW2 9771   2.414   0.292   0.856
 3069SOL     OW 9772   2.870   1.456   0.477
 3069SOL    HW1 9773   2.824   1.528   0.425
 3069SOL    HW2 9774   2.866   1.476   0.575
 3070SOL     OW 9775   2.213   1.801   0.853
 3070SOL    HW1 9776   2.263   1.715   0.859
 3070SOL    HW2 9777   2.278   1.878   0.850
 3071SOL     OW 9778   3.657   1.066   0.873
 3071SOL    HW1 9779   3.595   1.051   0.797
 3071SOL    HW2 9780   3.605   1.077   0.958
 3072SOL     OW 9781   3.089   1.550   1.506
 3072SOL    HW1 9782   3.095   1.473   1.570
 3072SOL    HW2 9783   3.037   1.524   1.426
 3073SOL     OW 9784   2.183   0.943   0.242
 3073SOL    HW1 9785   2.265   0.982   0.200
 3073SOL    HW2 9786   2.156   0.861   0.193
 3074SOL     OW 9787   3.320   0.735   0.728
 3074SOL    HW1 9788   3.315   0.670   0.803
 3074SOL    HW2 9789   3.400   0.794   0.741
 3075SOL     OW 9790   2.323   1.266   1.727
 3075SOL    HW1 9791   2.273   1.267   1.641
 3075SOL    HW2 9792   2.260   1.248   1.803
 3076SOL     OW 9793   2.973   1.776   0.237
 3076SOL    HW1 9794   2.913   1.714   0.287
 3076SOL    HW2 9795   3.004   1.732   0.152
 3077SOL     OW 9796   2.064   0.285   1.498
 3077SOL    HW1 9797   1.984   0.345   1.485
 3077SOL    HW2 9798   2.054   0.236   1.584
 3078SOL     OW 9799   3.494   1.377   0.081
 3078SOL    HW1 9800   3.462   1.471   0.071
 3078SOL    HW2 9801   3.418   1.314   0.069
 3079SOL     OW 9802   2.326   1.743   0.323
 3079SOL    HW1 9803   2.359   1.782   0.409
 3079SOL    HW2 9804   2.402   1.736   0.258
 3080SOL     OW 9805   3.262   0.107   0.426
 3080SOL    HW1 9806   3.238   0.070   0.336
 3080SOL    HW2 9807   3.361   0.123   0.430
 3081SOL     OW 9808   2.111   1.785   1.241
 3081SOL    HW1 9809   2.168   1.720   1.291
 3081SOL    HW2 9810   2.095   1.752   1.148
 3082SOL     OW 9811   2.802   1.698   0.904
 3082SOL    HW1 9812   2.882   1.641   0.925
 3082SOL    HW2 9813   2.753   1.658   0.827
 3083SOL     OW 9814   2.244   0.700   0.480
 3083SOL    HW1 9815   2.289   0.610   0.477
 3083SOL    HW2 9816   2.150   0.689   0.513
 3084SOL     OW 9817   3.409   0.222   1.729
 3084SOL    HW1 9818   3.404   0.259   1.821
 3084SOL    HW2 9819   3.337   0.153   1.717
 3085SOL     OW 9820   2.476   0.122   0.117
 3085SOL    HW1 9821   2.574   0.100   0.124
 3085SOL    HW2 9822   2.445   0.105   0.024
 3086SOL     OW 9823   2.643   0.264   1.749
 3086SOL    HW1 9824   2.710   0.203   1.792
 3086SOL    HW2 9825   2.570   0.283   1.814
 3087SOL     OW 9826   2.750   1.514   1.195
 3087SOL    HW1 9827   2.727   1.489   1.101
 3087SOL    HW2 9828   2.811   1.445   1.234
 3088SOL     OW 9829   3.213   0.590   1.433
 3088SOL    HW1 9830   3.241   0.547   1.518
 3088SOL    HW2 9831   3.238   0.686   1.434
 3089SOL     OW 9832   2.665   1.402   0.924
 3089SOL    HW1 9833   2.755   1.416   0.882
 3089SOL    HW2 9834   2.594   1.404   0.853
 3090SOL     OW 9835   2.784   0.503   0.899
 3090SOL    HW1 9836   2.759   0.494   0.803
 3090SOL    HW2 9837   2.832   0.421   0.930
 3091SOL     OW 9838   2.401   0.064   0.512
 3091SOL    HW1 9839   2.320   0.065   0.570
 3091SOL    HW2 9840   2.404   0.147   0.457
 3092SOL     OW 9841   3.296   1.188   0.041
 3092SOL    HW1 9842   3.328   1.112   0.098
 3092SOL    HW2 9843   3.204   1.215   0.071
 3093SOL     OW 9844   2.159   0.035   0.171
 3093SOL    HW1 9845   2.208   0.119   0.150
 3093SOL    HW2 9846   2.221  -0.030   0.216
 3094SOL     OW 9847   2.797   0.236   0.480
 3094SOL    HW1 9848   2.749   0.277   0.402
 3094SOL    HW2 9849   2.896   0.234   0.461
 3095SOL     OW 9850   2.938   0.683   1.464
 3095SOL    HW1 9851   2.858   0.622   1.467
 3095SOL    HW2 9852   3.019   0.630   1.440
 3096SOL     OW 9853   3.089   1.570   0.793
 3096SOL    HW1 9854   3.110   1.644   0.728
 3096SOL    HW2 9855   3.157   1.570   0.866
 3097SOL     OW 9856   2.321   1.152   0.741
 3097SOL    HW1 9857   2.250   1.125   0.806
 3097SOL    HW2 9858   2.295   1.124   0.648
 3098SOL     OW 9859   3.133   1.797   0.591
 3098SOL    HW1 9860   3.177   1.861   0.527
 3098SOL    HW2 9861   3.083   1.849   0.661
 3099SOL     OW 9862   2.894   0.549   0.016
 3099SOL    HW1 9863   2.853   0.631  -0.023
 3099SOL    HW2 9864   2.958   0.575   0.089
 3100SOL     OW 9865   1.940   0.556   1.386
 3100SOL    HW1 9866   2.032   0.555   1.345
 3100SOL    HW2 9867   1.934   0.630   1.453
 3101SOL     OW 9868   2.423   0.222   1.147
 3101SOL    HW1 9869   2.461   0.138   1.184
 3101SOL    HW2 9870   2.335   0.241   1.191
 3102SOL     OW 9871   2.728   0.454   0.642
 3102SOL    HW1 9872   2.696   0.526   0.580
 3102SOL    HW2 9873   2.752   0.373   0.589
 3103SOL     OW 9874   2.879   0.039   0.753
 3103SOL    HW1 9875   2.807   0.044   0.684
 3103SOL    HW2 9876   2.855  -0.030   0.822
 3104SOL     OW 9877   3.291   1.173   0.867
 3104SOL    HW1 9878   3.236   1.089   0.860
 3104SOL    HW2 9879   3.317   1.202   0.775
 3105SOL     OW 9880   3.328   0.590   0.992
 3105SOL    HW1 9881   3.298   0.495   0.999
 3105SOL    HW2 9882   3.401   0.606   1.058
 3106SOL     OW 9883   3.719   0.833   0.377
 3106SOL    HW1 9884   3.761   0.769   0.441
 3106SOL    HW2 9885   3.681   0.782   0.299
 3107SOL     OW 9886   2.350   1.385   0.174
 3107SOL    HW1 9887   2.263   1.370   0.221
 3107SOL    HW2 9888   2.333   1.411   0.079
 3108SOL     OW 9889   3.526   1.280   0.657
 3108SOL    HW1 9890   3.625   1.288   0.671
 3108SOL    HW2 9891   3.481   1.364   0.688
 3109SOL     OW 9892   3.252   0.575   0.078
 3109SOL    HW1 9893   3.198   0.554   0.159
 3109SOL    HW2 9894   3.343   0.534   0.087
 3110SOL     OW 9895   2.389   0.256   0.328
 3110SOL    HW1 9896   2.416   0.197   0.253
 3110SOL    HW2 9897   2.389   0.351   0.297
 3111SOL     OW 9898   3.616   1.223   1.588
 3111SOL    HW1 9899   3.707   1.184   1.575
 3111SOL    HW2 9900   3.624   1.319   1.612
 3112SOL     OW 9901   2.926   1.347   1.340
 3112SOL    HW1 9902   2.846   1.324   1.395
 3112SOL    HW2 9903   3.009   1.321   1.389
 3113SOL     OW 9904   3.454   1.629   1.625
 3113SOL    HW1 9905   3.481   1.663   1.535
 3113SOL    HW2 9906   3.533   1.591   1.671
 3114SOL     OW 9907   2.973   1.195   1.100
 3114SOL    HW1 9908   2.933   1.239   1.181
 3114SOL    HW2 9909   2.932   1.232   1.017
 3115SOL     OW 9910   3.500   1.099   1.079
 3115SOL    HW1 9911   3.505   1.180   1.138
 3115SOL    HW2 9912   3.414   1.101   1.028
 3116SOL     OW 9913   2.777   0.089   1.402
 3116SOL    HW1 9914   2.802   0.069   1.307
 3116SOL    HW2 9915   2.849   0.145   1.444
 3117SOL     OW 9916   2.842   1.116   1.719
 3117SOL    HW1 9917   2.743   1.122   1.729
 3117SOL    HW2 9918   2.865   1.036   1.663
 3118SOL     OW 9919   2.567   1.050   0.368
 3118SOL    HW1 9920   2.553   1.057   0.467
 3118SOL    HW2 9921   2.651   0.999   0.350
 3119SOL     OW 9922   2.272   0.813   1.251
 3119SOL    HW1 9923   2.358   0.825   1.301
 3119SOL    HW2 9924   2.230   0.726   1.278
 3120SOL     OW 9925   3.136   0.386   1.262
 3120SOL    HW1 9926   3.157   0.460   1.326
 3120SOL    HW2 9927   3.047   0.403   1.219
 3121SOL     OW 9928   1.926   1.564   1.331
 3121SOL    HW1 9929   1.880   1.646   1.297
 3121SOL    HW2 9930   2.024   1.583   1.340
 3122SOL     OW 9931   2.229   1.100   0.501
 3122SOL    HW1 9932   2.222   1.183   0.445
 3122SOL    HW2 9933   2.233   1.020   0.441
 3123SOL     OW 9934   2.428   0.537   0.865
 3123SOL    HW1 9935   2.440   0.603   0.791
 3123SOL    HW2 9936   2.474   0.571   0.948
 3124SOL     OW 9937   3.114   1.348   0.388
 3124SOL    HW1 9938   3.164   1.425   0.428
 3124SOL    HW2 9939   3.019   1.350   0.420
 3125SOL     OW 9940   3.134   1.445   1.142
 3125SOL    HW1 9941   3.181   1.458   1.229
 3125SOL    HW2 9942   3.068   1.371   1.151
 3126SOL     OW 9943   3.444   0.639   0.472
 3126SOL    HW1 9944   3.413   0.700   0.545
 3126SOL    HW2 9945   3.494   0.691   0.403
 3127SOL     OW 9946   2.216   1.510   1.329
 3127SOL    HW1 9947   2.195   1.466   1.242
 3127SOL    HW2 9948   2.313   1.536   1.332
 3128SOL     OW 9949   2.264   0.751   1.598
 3128SOL    HW1 9950   2.332   0.806   1.551
 3128SOL    HW2 9951   2.304   0.663   1.625
 3129SOL     OW 9952   3.449   0.779   1.670
 3129SOL    HW1 9953   3.357   0.817   1.665
 3129SOL    HW2 9954   3.509   0.826   1.605
 3130SOL     OW 9955   2.875   0.105   1.770
 3130SOL    HW1 9956   2.881   0.190   1.718
 3130SOL    HW2 9957   2.907   0.029   1.713
 3131SOL     OW 9958   2.366   0.050   1.740
 3131SOL    HW1 9959   2.324  -0.007   1.670
 3131SOL    HW2 9960   2.300   0.119   1.772
 3132SOL     OW 9961   2.435   0.870   1.029
 3132SOL    HW1 9962   2.479   0.959   1.020
 3132SOL    HW2 9963   2.372   0.870   1.106
 3133SOL     OW 9964   3.222   0.862   1.045
 3133SOL    HW1 9965   3.147   0.862   0.979
 3133SOL    HW2 9966   3.259   0.770   1.054
 3134SOL     OW 9967   3.071   0.525   0.275
 3134SOL    HW1 9968   3.084   0.441   0.329
 3134SOL    HW2 9969   3.042   0.599   0.335
 3135SOL     OW 9970   2.169   0.213   1.231
 3135SOL    HW1 9971   2.146   0.250   1.321
 3135SOL    HW2 9972   2.139   0.118   1.225
 3136SOL     OW 9973   1.899   1.310   1.282
 3136SOL    HW1 9974   1.952   1.261   1.350
 3136SOL    HW2 9975   1.921   1.408   1.287
 3137SOL     OW 9976   2.594   0.634   1.064
 3137SOL    HW1 9977   2.653   0.608   0.988
 3137SOL    HW2 9978   2.566   0.730   1.053
 3138SOL     OW 9979   3.590   0.935   1.854
 3138SOL    HW1 9980   3.544   0.928   1.765
 3138SOL    HW2 9981   3.528   0.979   1.920
 3139SOL     OW 9982   2.169   0.063   0.618
 3139SOL    HW1 9983   2.158   0.157   0.651
 3139SOL    HW2 9984   2.164   0.000   0.695
 3140SOL     OW 9985   3.484   0.367   0.374
 3140SOL    HW1 9986   3.486   0.291   0.438
 3140SOL    HW2 9987   3.436   0.444   0.414
 3141SOL     OW 9988   2.885   0.766   0.966
 3141SOL    HW1 9989   2.900   0.787   1.062
 3141SOL    HW2 9990   2.855   0.671   0.957
 3142SOL     OW 9991   2.842   1.573   1.700
 3142SOL    HW1 9992   2.822   1.617   1.612
 3142SOL    HW2 9993   2.881   1.482   1.684
 3143SOL     OW 9994   3.721   1.518   1.605
 3143SOL    HW1 9995   3.735   1.545   1.510
 3143SOL    HW2 9996   3.804   1.540   1.658
 3144SOL     OW 9997   2.212   0.898   1.804
 3144SOL    HW1 9998   2.288   0.942   1.852
 3144SOL    HW2 9999   2.247   0.851   1.722
 3145SOL     OW10000   3.402   0.274   0.125
 3145SOL    HW110001   3.341   0.199   0.148
 3145SOL    HW210002   3.424   0.326   0.208
 3146SOL     OW10003   3.165   0.838   0.042
 3146SOL    HW110004   3.199   0.745   0.057
 3146SOL    HW210005   3.183   0.865  -0.053
 3147SOL     OW10006   2.930   1.333   0.849
 3147SOL    HW110007   2.937   1.249   0.794
 3147SOL    HW210008   2.992   1.402   0.813
 3148SOL     OW10009   2.181   0.810   0.949
 3148SOL    HW110010   2.274   0.846   0.954
 3148SOL    HW210011   2.175   0.725   1.001
 3149SOL     OW10012   2.201   0.509   1.006
 3149SOL    HW110013   2.149   0.426   0.989
 3149SOL    HW210014   2.278   0.514   0.942
 3150SOL     OW10015   3.000   0.380   1.678
 3150SOL    HW110016   2.955   0.443   1.742
 3150SOL    HW210017   3.093   0.411   1.661
 3151SOL     OW10018   3.022   0.207   1.477
 3151SOL    HW110019   3.022   0.271   1.554
 3151SOL    HW210020   3.050   0.255   1.394
 3152SOL     OW10021   1.870   1.326   0.200
 3152SOL    HW110022   1.777   1.347   0.169
 3152SOL    HW210023   1.880   1.227   0.213
 3153SOL     OW10024   1.950   1.801   0.927
 3153SOL    HW110025   1.908   1.715   0.900
 3153SOL    HW210026   2.044   1.804   0.893
 3154SOL     OW10027   2.366   1.568   0.910
 3154SOL    HW110028   2.432   1.642   0.919
 3154SOL    HW210029   2.410   1.489   0.868
 3155SOL     OW10030   2.864   0.796   1.238
 3155SOL    HW110031   2.905   0.764   1.324
 3155SOL    HW210032   2.768   0.769   1.235
 3156SOL     OW10033   1.902   0.544   1.114
 3156SOL    HW110034   1.987   0.511   1.073
 3156SOL    HW210035   1.915   0.559   1.212
 3157SOL     OW10036   2.051   0.520   1.722
 3157SOL    HW110037   2.110   0.480   1.652
 3157SOL    HW210038   1.993   0.591   1.681
 3158SOL     OW10039   3.231   0.950   1.660
 3158SOL    HW110040   3.270   1.039   1.680
 3158SOL    HW210041   3.241   0.930   1.563
 3159SOL     OW10042   2.677   0.572   0.325
 3159SOL    HW110043   2.684   0.483   0.279
 3159SOL    HW210044   2.583   0.606   0.317
 3160SOL     OW10045   3.519   0.604   1.206
 3160SOL    HW110046   3.481   0.535   1.268
 3160SOL    HW210047   3.601   0.568   1.162
 3161SOL     OW10048   2.114   1.564   1.744
 3161SOL    HW110049   2.084   1.621   1.820
 3161SOL    HW210050   2.107   1.467   1.770
 3162SOL     OW10051   2.533   0.464   1.269
 3162SOL    HW110052   2.499   0.375   1.239
 3162SOL    HW210053   2.559   0.518   1.189
 3163SOL     OW10054   2.792   1.678   1.465
 3163SOL    HW110055   2.768   1.660   1.370
 3163SOL    HW210056   2.822   1.772   1.475
 3164SOL     OW10057   2.335   0.500   0.191
 3164SOL    HW110058   2.396   0.580   0.195
 3164SOL    HW210059   2.240   0.531   0.198
 3165SOL     OW10060   2.021   1.137   1.466
 3165SOL    HW110061   2.043   1.076   1.542
 3165SOL    HW210062   2.031   1.088   1.380
 3166SOL     OW10063   3.209   1.059   1.234
 3166SOL    HW110064   3.233   0.996   1.160
 3166SOL    HW210065   3.119   1.099   1.216
 3167SOL     OW10066   3.164   0.855   0.309
 3167SOL    HW110067   3.078   0.824   0.351
 3167SOL    HW210068   3.160   0.841   0.210
 3168SOL     OW10069   3.621   1.747   1.154
 3168SOL    HW110070   3.682   1.777   1.081
 3168SOL    HW210071   3.583   1.658   1.132
 3169SOL     OW10072   3.114   1.731   1.128
 3169SOL    HW110073   3.198   1.736   1.074
 3169SOL    HW210074   3.091   1.635   1.146
 3170SOL     OW10075   1.945   1.258   1.022
 3170SOL    HW110076   1.940   1.257   1.122
 3170SOL    HW210077   1.862   1.217   0.984
 3171SOL     OW10078   2.550   1.662   1.716
 3171SOL    HW110079   2.494   1.743   1.725
 3171SOL    HW210080   2.602   1.666   1.630
 3172SOL     OW10081   2.765   0.086   0.133
 3172SOL    HW110082   2.816   0.087   0.047
 3172SOL    HW210083   2.821   0.044   0.204
 3173SOL     OW10084   3.588   0.135   0.523
 3173SOL    HW110085   3.661   0.118   0.456
 3173SOL    HW210086   3.557   0.048   0.561
 3174SOL     OW10087   3.250   1.573   0.477
 3174SOL    HW110088   3.317   1.585   0.403
 3174SOL    HW210089   3.210   1.662   0.500
 3175SOL     OW10090   1.992   1.794   1.851
 3175SOL    HW110091   1.951   1.720   1.904
 3175SOL    HW210092   2.056   1.845   1.909
 3176SOL     OW10093   3.142   0.927   0.672
 3176SOL    HW110094   3.202   0.846   0.674
 3176SOL    HW210095   3.182   0.996   0.612
 3177SOL     OW10096   2.692   1.273   1.422
 3177SOL    HW110097   2.687   1.306   1.517
 3177SOL    HW210098   2.606   1.292   1.376
 3178SOL     OW10099   2.534   1.616   0.154
 3178SOL    HW110100   2.543   1.626   0.055
 3178SOL    HW210101   2.494   1.527   0.175
 3179SOL     OW10102   3.512   1.720   1.394
 3179SOL    HW110103   3.565   1.730   1.310
 3179SOL    HW210104   3.485   1.810   1.428
 3180SOL     OW10105   3.703   0.175   0.963
 3180SOL    HW110106   3.742   0.090   0.927
 3180SOL    HW210107   3.605   0.177   0.944
 3181SOL     OW10108   2.125   0.326   0.720
 3181SOL    HW110109   2.046   0.377   0.686
 3181SOL    HW210110   2.116   0.311   0.818
 3182SOL     OW10111   3.056   1.612   0.031
 3182SOL    HW110112   3.062   1.519   0.068
 3182SOL    HW210113   2.997   1.612  -0.049
 3183SOL     OW10114   2.684   1.002   1.372
 3183SOL    HW110115   2.724   1.001   1.280
 3183SOL    HW210116   2.694   1.094   1.412
 3184SOL     OW10117   2.778   0.910   0.291
 3184SOL    HW110118   2.841   0.948   0.223
 3184SOL    HW210119   2.818   0.827   0.330
 3185SOL     OW10120   3.366   1.607   0.044
 3185SOL    HW110121   3.274   1.644   0.051
 3185SOL    HW210122   3.404   1.627  -0.046
 3186SOL     OW10123   2.234   1.288   1.490
 3186SOL    HW110124   2.221   1.381   1.456
 3186SOL    HW210125   2.150   1.236   1.477
 3187SOL     OW10126   3.476   1.292   1.289
 3187SOL    HW110127   3.536   1.295   1.369
 3187SOL    HW210128   3.401   1.356   1.302
 3188SOL     OW10129   2.901   1.098   0.696
 3188SOL    HW110130   2.831   1.051   0.750
 3188SOL    HW210131   2.960   1.030   0.653
 3189SOL     OW10132   2.876   0.236   0.971
 3189SOL    HW110133   2.868   0.200   0.878
 3189SOL    HW210134   2.874   0.160   1.036
 3190SOL     OW10135   2.452   1.487   0.491
 3190SOL    HW110136   2.494   1.429   0.421
 3190SOL    HW210137   2.408   1.566   0.447
 3191SOL     OW10138   3.571   0.385   1.381
 3191SOL    HW110139   3.644   0.454   1.385
 3191SOL    HW210140   3.599   0.310   1.322
 3192SOL     OW10141   2.117   1.348   0.290
 3192SOL    HW110142   2.021   1.349   0.263
 3192SOL    HW210143   2.129   1.401   0.374
 3193SOL     OW10144   1.967   1.013   1.726
 3193SOL    HW110145   1.890   0.980   1.780
 3193SOL    HW210146   2.052   0.983   1.768
 3194SOL     OW10147   2.534   0.203   1.489
 3194SOL    HW110148   2.624   0.187   1.449
 3194SOL    HW210149   2.542   0.208   1.588
 3195SOL     OW10150   1.937   0.345   0.033
 3195SOL    HW110151   1.845   0.317   0.004
 3195SOL    HW210152   1.968   0.422  -0.023
 3196SOL     OW10153   3.302   0.856   1.398
 3196SOL    HW110154   3.245   0.908   1.335
 3196SOL    HW210155   3.398   0.868   1.374
 3197SOL     OW10156   1.934   0.166   0.318
 3197SOL    HW110157   1.917   0.249   0.264
 3197SOL    HW210158   2.024   0.129   0.296
 3198SOL     OW10159   3.045   1.335   0.119
 3198SOL    HW110160   2.946   1.324   0.121
 3198SOL    HW210161   3.079   1.350   0.212
 3199SOL     OW10162   2.475   0.842   1.431
 3199SOL    HW110163   2.531   0.923   1.414
 3199SOL    HW210164   2.534   0.762   1.434
 3200SOL     OW10165   3.355   1.767   0.959
 3200SOL    HW110166   3.388   1.831   0.890
 3200SOL    HW210167   3.421   1.761   1.034
 3201SOL     OW10168   2.578   0.565   1.708
 3201SOL    HW110169   2.597   0.630   1.782
 3201SOL    HW210170   2.638   0.485   1.717
 3202SOL     OW10171   3.312   1.220   1.633
 3202SOL    HW110172   3.303   1.210   1.732
 3202SOL    HW210173   3.408   1.213   1.607
 3203SOL     OW10174   2.252   1.741   1.560
 3203SOL    HW110175   2.161   1.782   1.558
 3203SOL    HW210176   2.245   1.647   1.592
 3204SOL     OW10177   3.536   0.883   1.254
 3204SOL    HW110178   3.509   0.794   1.217
 3204SOL    HW210179   3.537   0.951   1.181
 3205SOL     OW10180   3.087   0.325   0.449
 3205SOL    HW110181   3.152   0.251   0.438
 3205SOL    HW210182   3.107   0.375   0.533
 3206SOL     OW10183   2.456   0.745   0.652
 3206SOL    HW110184   2.506   0.830   0.633
 3206SOL    HW210185   2.368   0.747   0.604
 3207SOL     OW10186   3.639   0.342   1.642
 3207SOL    HW110187   3.622   0.373   1.548
 3207SOL    HW210188   3.555   0.305   1.680
 3208SOL     OW10189   3.592   0.934   1.517
 3208SOL    HW110190   3.630   1.025   1.532
 3208SOL    HW210191   3.584   0.917   1.418
 3209SOL     OW10192   2.721   1.374   0.016
 3209SOL    HW110193   2.675   1.389   0.104
 3209SOL    HW210194   2.765   1.459  -0.014
 3210SOL     OW10195   2.523   1.790   0.953
 3210SOL    HW110196   2.477   1.878   0.940
 3210SOL    HW210197   2.622   1.802   0.946
 3211SOL     OW10198   2.721   0.956   0.861
 3211SOL    HW110199   2.775   0.887   0.909
 3211SOL    HW210200   2.689   1.025   0.927
 3212SOL     OW10201   2.945   0.984   0.087
 3212SOL    HW110202   2.922   1.037   0.005
 3212SOL    HW210203   3.026   0.928   0.068
 3213SOL     OW10204   3.723   1.569   0.851
 3213SOL    HW110205   3.652   1.557   0.781
 3213SOL    HW210206   3.724   1.490   0.911
 3214SOL     OW10207   2.083   1.314   1.844
 3214SOL    HW110208   2.018   1.241   1.823
 3214SOL    HW210209   2.087   1.328   1.942
 3215SOL     OW10210   1.941   1.240   0.653
 3215SOL    HW110211   1.940   1.193   0.741
 3215SOL    HW210212   2.023   1.212   0.602
 3216SOL     OW10213   2.534   1.391   1.624
 3216SOL    HW110214   2.456   1.341   1.662
 3216SOL    HW210215   2.531   1.486   1.655
 3217SOL     OW10216   3.686   0.192   1.227
 3217SOL    HW110217   3.682   0.102   1.271
 3217SOL    HW210218   3.689   0.181   1.128
 3218SOL     OW10219   2.290   0.424   0.520
 3218SOL    HW110220   2.320   0.352   0.458
 3218SOL    HW210221   2.251   0.384   0.603
 3219SOL     OW10222   3.567   1.487   1.104
 3219SOL    HW110223   3.474   1.462   1.077
 3219SOL    HW210224   3.593   1.437   1.186
 3220SOL     OW10225   2.179   0.547   1.280
 3220SOL    HW110226   2.217   0.488   1.352
 3220SOL    HW210227   2.219   0.521   1.192
 3221SOL     OW10228   2.674   1.586   0.687
 3221SOL    HW110229   2.706   1.596   0.593
 3221SOL    HW210230   2.595   1.524   0.689
 3222SOL     OW10231   3.286   0.214   1.112
 3222SOL    HW110232   3.338   0.149   1.167
 3222SOL    HW210233   3.237   0.277   1.173
 3223SOL     OW10234   2.863   0.034   1.154
 3223SOL    HW110235   2.800  -0.038   1.123
 3223SOL    HW210236   2.956  -0.002   1.154
 3224SOL     OW10237   2.632   1.330   0.301
 3224SOL    HW110238   2.586   1.243   0.318
 3224SOL    HW210239   2.723   1.327   0.342
 3225SOL     OW10240   2.480   1.567   1.284
 3225SOL    HW110241   2.475   1.649   1.341
 3225SOL    HW210242   2.569   1.564   1.239
 3226SOL     OW10243   3.214   0.052   0.168
 3226SOL    HW110244   3.249   0.011   0.084
 3226SOL    HW210245   3.124   0.014   0.188
 3227SOL     OW10246   3.162   0.453   0.691
 3227SOL    HW110247   3.103   0.533   0.695
 3227SOL    HW210248   3.177   0.418   0.784
 3228SOL     OW10249   3.455   0.221   0.882
 3228SOL    HW110250   3.371   0.220   0.936
 3228SOL    HW210251   3.457   0.304   0.826
 3229SOL     OW10252   1.901   1.077   0.300
 3229SOL    HW110253   2.000   1.066   0.291
 3229SOL    HW210254   1.861   0.991   0.332
 3230SOL     OW10255   2.737   1.646   0.337
 3230SOL    HW110256   2.660   1.611   0.283
 3230SOL    HW210257   2.705   1.717   0.399
 3231SOL     OW10258   2.092   0.628   1.975
 3231SOL    HW110259   1.999   0.626   2.012
 3231SOL    HW210260   2.093   0.589   1.883
 3232SOL     OW10261   2.087   0.275   2.858
 3232SOL    HW110262   2.122   0.258   2.950
 3232SOL    HW210263   1.999   0.230   2.846
 3233SOL     OW10264   1.881   0.368   2.509
 3233SOL    HW110265   1.799   0.411   2.548
 3233SOL    HW210266   1.853   0.295   2.446
 3234SOL     OW10267   2.431   1.275   3.027
 3234SOL    HW110268   2.338   1.268   2.990
 3234SOL    HW210269   2.442   1.364   3.071
 3235SOL     OW10270   3.417   1.511   2.565
 3235SOL    HW110271   3.360   1.495   2.646
 3235SOL    HW210272   3.358   1.521   2.485
 3236SOL     OW10273   2.997   0.703   2.579
 3236SOL    HW110274   3.054   0.781   2.554
 3236SOL    HW210275   2.937   0.729   2.655
 3237SOL     OW10276   3.617   0.607   2.093
 3237SOL    HW110277   3.605   0.594   1.994
 3237SOL    HW210278   3.587   0.526   2.142
 3238SOL     OW10279   2.630   1.144   2.885
 3238SOL    HW110280   2.552   1.161   2.945
 3238SOL    HW210281   2.664   1.231   2.849
 3239SOL     OW10282   2.712   0.798   3.685
 3239SOL    HW110283   2.708   0.874   3.750
 3239SOL    HW210284   2.734   0.834   3.594
 3240SOL     OW10285   2.547   1.012   2.527
 3240SOL    HW110286   2.616   0.996   2.597
 3240SOL    HW210287   2.474   1.069   2.565
 3241SOL     OW10288   2.548   1.161   3.665
 3241SOL    HW110289   2.608   1.240   3.679
 3241SOL    HW210290   2.462   1.192   3.624
 3242SOL     OW10291   2.197   1.435   2.923
 3242SOL    HW110292   2.119   1.404   2.870
 3242SOL    HW210293   2.255   1.493   2.866
 3243SOL     OW10294   3.322   1.505   3.201
 3243SOL    HW110295   3.346   1.599   3.227
 3243SOL    HW210296   3.306   1.451   3.283
 3244SOL     OW10297   2.300   0.392   3.361
 3244SOL    HW110298   2.382   0.336   3.370
 3244SOL    HW210299   2.219   0.334   3.365
 3245SOL     OW10300   3.465   0.447   2.599
 3245SOL    HW110301   3.391   0.493   2.549
 3245SOL    HW210302   3.516   0.515   2.652
 3246SOL     OW10303   2.093   1.713   2.345
 3246SOL    HW110304   2.127   1.790   2.399
 3246SOL    HW210305   2.137   1.713   2.255
 3247SOL     OW10306   2.989   1.341   3.552
 3247SOL    HW110307   3.036   1.341   3.640
 3247SOL    HW210308   2.941   1.254   3.541
 3248SOL     OW10309   2.092   1.434   2.400
 3248SOL    HW110310   2.066   1.530   2.400
 3248SOL    HW210311   2.021   1.380   2.445
 3249SOL     OW10312   2.102   1.091   2.748
 3249SOL    HW110313   2.116   1.007   2.800
 3249SOL    HW210314   2.047   1.155   2.803
 3250SOL     OW10315   2.482   1.786   3.301
 3250SOL    HW110316   2.390   1.769   3.336
 3250SOL    HW210317   2.510   1.878   3.327
 3251SOL     OW10318   2.468   0.964   1.985
 3251SOL    HW110319   2.475   1.048   1.931
 3251SOL    HW210320   2.514   0.977   2.073
 3252SOL     OW10321   3.456   0.114   3.342
 3252SOL    HW110322   3.438   0.181   3.270
 3252SOL    HW210323   3.453   0.160   3.431
 3253SOL     OW10324   1.984   0.643   2.425
 3253SOL    HW110325   1.939   0.555   2.442
 3253SOL    HW210326   1.983   0.697   2.509
 3254SOL     OW10327   3.704   1.767   2.221
 3254SOL    HW110328   3.758   1.738   2.301
 3254SOL    HW210329   3.734   1.857   2.192
 3255SOL     OW10330   1.889   1.596   1.979
 3255SOL    HW110331   1.870   1.500   2.000
 3255SOL    HW210332   1.856   1.654   2.054
 3256SOL     OW10333   3.551   0.922   2.474
 3256SOL    HW110334   3.646   0.893   2.482
 3256SOL    HW210335   3.543   0.987   2.399
 3257SOL     OW10336   3.503   1.108   2.294
 3257SOL    HW110337   3.589   1.110   2.242
 3257SOL    HW210338   3.517   1.155   2.382
 3258SOL     OW10339   1.975   0.737   3.459
 3258SOL    HW110340   2.063   0.724   3.504
 3258SOL    HW210341   1.962   0.834   3.437
 3259SOL     OW10342   2.475   1.365   2.588
 3259SOL    HW110343   2.426   1.278   2.597
 3259SOL    HW210344   2.452   1.408   2.501
 3260SOL     OW10345   3.155   1.228   3.285
 3260SOL    HW110346   3.192   1.155   3.227
 3260SOL    HW210347   3.207   1.233   3.370
 3261SOL     OW10348   2.671   0.004   2.364
 3261SOL    HW110349   2.711   0.095   2.355
 3261SOL    HW210350   2.571   0.012   2.370
 3262SOL     OW10351   2.059   0.976   3.126
 3262SOL    HW110352   2.148   0.931   3.112
 3262SOL    HW210353   1.986   0.911   3.107
 3263SOL     OW10354   3.387   0.999   2.052
 3263SOL    HW110355   3.324   0.923   2.065
 3263SOL    HW210356   3.435   1.017   2.138
 3264SOL     OW10357   3.049   1.792   3.478
 3264SOL    HW110358   3.073   1.852   3.402
 3264SOL    HW210359   3.056   1.697   3.448
 3265SOL     OW10360   2.179   0.251   3.663
 3265SOL    HW110361   2.250   0.322   3.669
 3265SOL    HW210362   2.091   0.290   3.691
 3266SOL     OW10363   3.328   1.417   2.815
 3266SOL    HW110364   3.269   1.423   2.895
 3266SOL    HW210365   3.313   1.329   2.769
 3267SOL     OW10366   3.529   1.714   2.434
 3267SOL    HW110367   3.488   1.691   2.346
 3267SOL    HW210368   3.511   1.640   2.499
 3268SOL     OW10369   2.460   0.729   2.132
 3268SOL    HW110370   2.484   0.798   2.064
 3268SOL    HW210371   2.382   0.762   2.186
 3269SOL     OW10372   3.143   0.345   2.806
 3269SOL    HW110373   3.057   0.295   2.793
 3269SOL    HW210374   3.205   0.291   2.862
 3270SOL     OW10375   3.438   1.662   2.169
 3270SOL    HW110376   3.527   1.708   2.172
 3270SOL    HW210377   3.417   1.638   2.074
 3271SOL     OW10378   2.669   0.605   3.327
 3271SOL    HW110379   2.622   0.602   3.416
 3271SOL    HW210380   2.618   0.550   3.261
 3272SOL     OW10381   3.256   0.469   3.536
 3272SOL    HW110382   3.236   0.512   3.624
 3272SOL    HW210383   3.334   0.407   3.545
 3273SOL     OW10384   2.835   0.890   3.434
 3273SOL    HW110385   2.881   0.806   3.405
 3273SOL    HW210386   2.779   0.924   3.359
 3274SOL     OW10387   2.853   0.410   3.104
 3274SOL    HW110388   2.776   0.444   3.158
 3274SOL    HW210389   2.819   0.359   3.025
 3275SOL     OW10390   2.903   0.701   2.291
 3275SOL    HW110391   2.929   0.697   2.387
 3275SOL    HW210392   2.818   0.650   2.277
 3276SOL     OW10393   1.938   0.811   2.651
 3276SOL    HW110394   2.037   0.799   2.660
 3276SOL    HW210395   1.914   0.906   2.672
 3277SOL     OW10396   1.992   1.821   3.433
 3277SOL    HW110397   1.982   1.806   3.532
 3277SOL    HW210398   1.906   1.857   3.397
 3278SOL     OW10399   2.727   0.348   2.057
 3278SOL    HW110400   2.786   0.411   2.008
 3278SOL    HW210401   2.746   0.254   2.028
 3279SOL     OW10402   3.581   0.585   3.693
 3279SOL    HW110403   3.555   0.674   3.657
 3279SOL    HW210404   3.579   0.517   3.620
 3280SOL     OW10405   3.224   1.144   2.407
 3280SOL    HW110406   3.307   1.115   2.359
 3280SOL    HW210407   3.175   1.211   2.351
 3281SOL     OW10408   2.412   0.196   2.747
 3281SOL    HW110409   2.407   0.191   2.847
 3281SOL    HW210410   2.414   0.292   2.718
 3282SOL     OW10411   2.870   1.456   2.339
 3282SOL    HW110412   2.824   1.528   2.287
 3282SOL    HW210413   2.866   1.476   2.437
 3283SOL     OW10414   2.213   1.801   2.715
 3283SOL    HW110415   2.263   1.715   2.721
 3283SOL    HW210416   2.278   1.878   2.712
 3284SOL     OW10417   3.657   1.066   2.735
 3284SOL    HW110418   3.595   1.051   2.659
 3284SOL    HW210419   3.605   1.077   2.820
 3285SOL     OW10420   3.089   1.550   3.368
 3285SOL    HW110421   3.095   1.473   3.432
 3285SOL    HW210422   3.037   1.524   3.288
 3286SOL     OW10423   2.183   0.943   2.104
 3286SOL    HW110424   2.265   0.982   2.062
 3286SOL    HW210425   2.156   0.861   2.055
 3287SOL     OW10426   3.320   0.735   2.590
 3287SOL    HW110427   3.315   0.670   2.665
 3287SOL    HW210428   3.400   0.794   2.603
 3288SOL     OW10429   2.323   1.266   3.589
 3288SOL    HW110430   2.273   1.267   3.503
 3288SOL    HW210431   2.260   1.248   3.665
 3289SOL     OW10432   2.973   1.776   2.099
 3289SOL    HW110433   2.913   1.714   2.149
 3289SOL    HW210434   3.004   1.732   2.014
 3290SOL     OW10435   2.064   0.285   3.360
 3290SOL    HW110436   1.984   0.345   3.347
 3290SOL    HW210437   2.054   0.236   3.446
 3291SOL     OW10438   3.494   1.377   1.943
 3291SOL    HW110439   3.462   1.471   1.933
 3291SOL    HW210440   3.418   1.314   1.931
 3292SOL     OW10441   2.326   1.743   2.185
 3292SOL    HW110442   2.359   1.782   2.271
 3292SOL    HW210443   2.402   1.736   2.120
 3293SOL     OW10444   3.262   0.107   2.288
 3293SOL    HW110445   3.238   0.070   2.198
 3293SOL    HW210446   3.361   0.123   2.292
 3294SOL     OW10447   2.111   1.785   3.103
 3294SOL    HW110448   2.168   1.720   3.153
 3294SOL    HW210449   2.095   1.752   3.010
 3295SOL     OW10450   2.802   1.698   2.766
 3295SOL    HW110451   2.882   1.641   2.787
 3295SOL    HW210452   2.753   1.658   2.689
 3296SOL     OW10453   2.244   0.700   2.342
 3296SOL    HW110454   2.289   0.610   2.339
 3296SOL    HW210455   2.150   0.689   2.375
 3297SOL     OW10456   3.409   0.222   3.591
 3297SOL    HW110457   3.404   0.259   3.683
 3297SOL    HW210458   3.337   0.153   3.579
 3298SOL     OW10459   2.476   0.122   1.979
 3298SOL    HW110460   2.574   0.100   1.986
 3298SOL    HW210461   2.445   0.105   1.886
 3299SOL     OW10462   2.643   0.264   3.611
 3299SOL    HW110463   2.710   0.203   3.654
 3299SOL    HW210464   2.570   0.283   3.676
 3300SOL     OW10465   2.750   1.514   3.057
 3300SOL    HW110466   2.727   1.489   2.963
 3300SOL    HW210467   2.811   1.445   3.096
 3301SOL     OW10468   3.213   0.590   3.295
 3301SOL    HW110469   3.241   0.547   3.380
 3301SOL    HW210470   3.238   0.686   3.296
 3302SOL     OW10471   2.665   1.402   2.786
 3302SOL    HW110472   2.755   1.416   2.744
 3302SOL    HW210473   2.594   1.404   2.715
 3303SOL     OW10474   2.784   0.503   2.761
 3303SOL    HW110475   2.759   0.494   2.665
 3303SOL    HW210476   2.832   0.421   2.792
 3304SOL     OW10477   2.401   0.064   2.374
 3304SOL    HW110478   2.320   0.065   2.432
 3304SOL    HW210479   2.404   0.147   2.319
 3305SOL     OW10480   3.296   1.188   1.903
 3305SOL    HW110481   3.328   1.112   1.960
 3305SOL    HW210482   3.204   1.215   1.933
 3306SOL     OW10483   2.159   0.035   2.033
 3306SOL    HW110484   2.208   0.119   2.012
 3306SOL    HW210485   2.221  -0.030   2.078
 3307SOL     OW10486   2.797   0.236   2.342
 3307SOL    HW110487   2.749   0.277   2.264
 3307SOL    HW210488   2.896   0.234   2.323
 3308SOL     OW10489   2.938   0.683   3.326
 3308SOL    HW110490   2.858   0.622   3.329
 3308SOL    HW210491   3.019   0.630   3.302
 3309SOL     OW10492   3.089   1.570   2.655
 3309SOL    HW110493   3.110   1.644   2.590
 3309SOL    HW210494   3.157   1.570   2.728
 3310SOL     OW10495   2.321   1.152   2.603
 3310SOL    HW110496   2.250   1.125   2.668
 3310SOL    HW210497   2.295   1.124   2.510
 3311SOL     OW10498   3.133   1.797   2.453
 3311SOL    HW110499   3.177   1.861   2.389
 3311SOL    HW210500   3.083   1.849   2.523
 3312SOL     OW10501   2.894   0.549   1.878
 3312SOL    HW110502   2.853   0.631   1.839
 3312SOL    HW210503   2.958   0.575   1.951
 3313SOL     OW10504   1.940   0.556   3.248
 3313SOL    HW110505   2.032   0.555   3.207
 3313SOL    HW210506   1.934   0.630   3.315
 3314SOL     OW10507   2.423   0.222   3.009
 3314SOL    HW110508   2.461   0.138   3.046
 3314SOL    HW210509   2.335   0.241   3.053
 3315SOL     OW10510   2.728   0.454   2.504
 3315SOL    HW110511   2.696   0.526   2.442
 3315SOL    HW210512   2.752   0.373   2.451
 3316SOL     OW10513   2.879   0.039   2.615
 3316SOL    HW110514   2.807   0.044   2.546
 3316SOL    HW210515   2.855  -0.030   2.684
 3317SOL     OW10516   3.291   1.173   2.729
 3317SOL    HW110517   3.236   1.089   2.722
 3317SOL    HW210518   3.317   1.202   2.637
 3318SOL     OW10519   3.328   0.590   2.854
 3318SOL    HW110520   3.298   0.495   2.861
 3318SOL    HW210521   3.401   0.606   2.920
 3319SOL     OW10522   3.719   0.833   2.239
 3319SOL    HW110523   3.761   0.769   2.303
 3319SOL    HW210524   3.681   0.782   2.161
 3320SOL     OW10525   2.350   1.385   2.036
 3320SOL    HW110526   2.263   1.370   2.083
 3320SOL    HW210527   2.333   1.411   1.941
 3321SOL     OW10528   3.526   1.280   2.519
 3321SOL    HW110529   3.625   1.288   2.533
 3321SOL    HW210530   3.481   1.364   2.550
 3322SOL     OW10531   3.252   0.575   1.940
 3322SOL    HW110532   3.198   0.554   2.021
 3322SOL    HW210533   3.343   0.534   1.949
 3323SOL     OW10534   2.389   0.256   2.190
 3323SOL    HW110535   2.416   0.197   2.115
 3323SOL    HW210536   2.389   0.351   2.159
 3324SOL     OW10537   3.616   1.223   3.450
 3324SOL    HW110538   3.707   1.184   3.437
 3324SOL    HW210539   3.624   1.319   3.474
 3325SOL     OW10540   2.926   1.347   3.202
 3325SOL    HW110541   2.846   1.324   3.257
 3325SOL    HW210542   3.009   1.321   3.251
 3326SOL     OW10543   3.454   1.629   3.487
 3326SOL    HW110544   3.481   1.663   3.397
 3326SOL    HW210545   3.533   1.591   3.533
 3327SOL     OW10546   2.973   1.195   2.962
 3327SOL    HW110547   2.933   1.239   3.043
 3327SOL    HW210548   2.932   1.232   2.879
 3328SOL     OW10549   3.500   1.099   2.941
 3328SOL    HW110550   3.505   1.180   3.000
 3328SOL    HW210551   3.414   1.101   2.890
 3329SOL     OW10552   2.777   0.089   3.264
 3329SOL    HW110553   2.802   0.069   3.169
 3329SOL    HW210554   2.849   0.145   3.306
 3330SOL     OW10555   2.842   1.116   3.581
 3330SOL    HW110556   2.743   1.122   3.591
 3330SOL    HW210557   2.865   1.036   3.525
 3331SOL     OW10558   2.567   1.050   2.230
 3331SOL    HW110559   2.553   1.057   2.329
 3331SOL    HW210560   2.651   0.999   2.212
 3332SOL     OW10561   2.272   0.813   3.113
 3332SOL    HW110562   2.358   0.825   3.163
 3332SOL    HW210563   2.230   0.726   3.140
 3333SOL     OW10564   3.136   0.386   3.124
 3333SOL    HW110565   3.157   0.460   3.188
 3333SOL    HW210566   3.047   0.403   3.081
 3334SOL     OW10567   1.926   1.564   3.193
 3334SOL    HW110568   1.880   1.646   3.159
 3334SOL    HW210569   2.024   1.583   3.202
 3335SOL     OW10570   2.229   1.100   2.363
 3335SOL    HW110571   2.222   1.183   2.307
 3335SOL    HW210572   2.233   1.020   2.303
 3336SOL     OW10573   2.428   0.537   2.727
 3336SOL    HW110574   2.440   0.603   2.653
 3336SOL    HW210575   2.474   0.571   2.810
 3337SOL     OW10576   3.114   1.348   2.250
 3337SOL    HW110577   3.164   1.425   2.290
 3337SOL    HW210578   3.019   1.350   2.282
 3338SOL     OW10579   3.134   1.445   3.004
 3338SOL    HW110580   3.181   1.458   3.091
 3338SOL    HW210581   3.068   1.371   3.013
 3339SOL     OW10582   3.444   0.639   2.334
 3339SOL    HW110583   3.413   0.700   2.407
 3339SOL    HW210584   3.494   0.691   2.265
 3340SOL     OW10585   2.216   1.510   3.191
 3340SOL    HW110586   2.195   1.466   3.104
 3340SOL    HW210587   2.313   1.536   3.194
 3341SOL     OW10588   2.264   0.751   3.460
 3341SOL    HW110589   2.332   0.806   3.413
 3341SOL    HW210590   2.304   0.663   3.487
 3342SOL     OW10591   3.449   0.779   3.532
 3342SOL    HW110592   3.357   0.817   3.527
 3342SOL    HW210593   3.509   0.826   3.467
 3343SOL     OW10594   2.875   0.105   3.632
 3343SOL    HW110595   2.881   0.190   3.580
 3343SOL    HW210596   2.907   0.029   3.575
 3344SOL     OW10597   2.366   0.050   3.602
 3344SOL    HW110598   2.324  -0.007   3.532
 3344SOL    HW210599   2.300   0.119   3.634
 3345SOL     OW10600   2.435   0.870   2.891
 3345SOL    HW110601   2.479   0.959   2.882
 3345SOL    HW210602   2.372   0.870   2.968
 3346SOL     OW10603   3.222   0.862   2.907
 3346SOL    HW110604   3.147   0.862   2.841
 3346SOL    HW210605   3.259   0.770   2.916
 3347SOL     OW10606   3.071   0.525   2.137
 3347SOL    HW110607   3.084   0.441   2.191
 3347SOL    HW210608   3.042   0.599   2.197
 3348SOL     OW10609   2.169   0.213   3.093
 3348SOL    HW110610   2.146   0.250   3.183
 3348SOL    HW210611   2.139   0.118   3.087
 3349SOL     OW10612   1.899   1.310   3.144
 3349SOL    HW110613   1.952   1.261   3.212
 3349SOL    HW210614   1.921   1.408   3.149
 3350SOL     OW10615   2.594   0.634   2.926
 3350SOL    HW110616   2.653   0.608   2.850
 3350SOL    HW210617   2.566   0.730   2.915
 3351SOL     OW10618   3.590   0.935   3.716
 3351SOL    HW110619   3.544   0.928   3.627
 3351SOL    HW210620   3.528   0.979   3.782
 3352SOL     OW10621   2.169   0.063   2.480
 3352SOL    HW110622   2.158   0.157   2.513
 3352SOL    HW210623   2.164   0.000   2.557
 3353SOL     OW10624   3.484   0.367   2.236
 3353SOL    HW110625   3.486   0.291   2.300
 3353SOL    HW210626   3.436   0.444   2.276
 3354SOL     OW10627   2.885   0.766   2.828
 3354SOL    HW110628   2.900   0.787   2.924
 3354SOL    HW210629   2.855   0.671   2.819
 3355SOL     OW10630   2.842   1.573   3.562
 3355SOL    HW110631   2.822   1.617   3.474
 3355SOL    HW210632   2.881   1.482   3.546
 3356SOL     OW10633   3.721   1.518   3.467
 3356SOL    HW110634   3.735   1.545   3.372
 3356SOL    HW210635   3.804   1.540   3.520
 3357SOL     OW10636   2.212   0.898   3.666
 3357SOL    HW110637   2.288   0.942   3.714
 3357SOL    HW210638   2.247   0.851   3.584
 3358SOL     OW10639   3.402   0.274   1.987
 3358SOL    HW110640   3.341   0.199   2.010
 3358SOL    HW210641   3.424   0.326   2.070
 3359SOL     OW10642   3.165   0.838   1.904
 3359SOL    HW110643   3.199   0.745   1.919
 3359SOL    HW210644   3.183   0.865   1.809
 3360SOL     OW10645   2.930   1.333   2.711
 3360SOL    HW110646   2.937   1.249   2.656
 3360SOL    HW210647   2.992   1.402   2.675
 3361SOL     OW10648   2.181   0.810   2.811
 3361SOL    HW110649   2.274   0.846   2.816
 3361SOL    HW210650   2.175   0.725   2.863
 3362SOL     OW10651   2.201   0.509   2.868
 3362SOL    HW110652   2.149   0.426   2.851
 3362SOL    HW210653   2.278   0.514   2.804
 3363SOL     OW10654   3.000   0.380   3.540
 3363SOL    HW110655   2.955   0.443   3.604
 3363SOL    HW210656   3.093   0.411   3.523
 3364SOL     OW10657   3.022   0.207   3.339
 3364SOL    HW110658   3.022   0.271   3.416
 3364SOL    HW210659   3.050   0.255   3.256
 3365SOL     OW10660   1.870   1.326   2.062
 3365SOL    HW110661   1.777   1.347   2.031
 3365SOL    HW210662   1.880   1.227   2.075
 3366SOL     OW10663   1.950   1.801   2.789
 3366SOL    HW110664   1.908   1.715   2.762
 3366SOL    HW210665   2.044   1.804   2.755
 3367SOL     OW10666   2.366   1.568   2.772
 3367SOL    HW110667   2.432   1.642   2.781
 3367SOL    HW210668   2.410   1.489   2.730
 3368SOL     OW10669   2.864   0.796   3.100
 3368SOL    HW110670   2.905   0.764   3.186
 3368SOL    HW210671   2.768   0.769   3.097
 3369SOL     OW10672   1.902   0.544   2.976
 3369SOL    HW110673   1.987   0.511   2.935
 3369SOL    HW210674   1.915   0.559   3.074
 3370SOL     OW10675   2.051   0.520   3.584
 3370SOL    HW110676   2.110   0.480   3.514
 3370SOL    HW210677   1.993   0.591   3.543
 3371SOL     OW10678   3.231   0.950   3.522
 3371SOL    HW110679   3.270   1.039   3.542
 3371SOL    HW210680   3.241   0.930   3.425
 3372SOL     OW10681   2.677   0.572   2.187
 3372SOL    HW110682   2.684   0.483   2.141
 3372SOL    HW210683   2.583   0.606   2.179
 3373SOL     OW10684   3.519   0.604   3.068
 3373SOL    HW110685   3.481   0.535   3.130
 3373SOL    HW210686   3.601   0.568   3.024
 3374SOL     OW10687   2.114   1.564   3.606
 3374SOL    HW110688   2.084   1.621   3.682
 3374SOL    HW210689   2.107   1.467   3.632
 3375SOL     OW10690   2.533   0.464   3.131
 3375SOL    HW110691   2.499   0.375   3.101
 3375SOL    HW210692   2.559   0.518   3.051
 3376SOL     OW10693   2.792   1.678   3.327
 3376SOL    HW110694   2.768   1.660   3.232
 3376SOL    HW210695   2.822   1.772   3.337
 3377SOL     OW10696   2.335   0.500   2.053
 3377SOL    HW110697   2.396   0.580   2.057
 3377SOL    HW210698   2.240   0.531   2.060
 3378SOL     OW10699   2.021   1.137   3.328
 3378SOL    HW110700   2.043   1.076   3.404
 3378SOL    HW210701   2.031   1.088   3.242
 3379SOL     OW10702   3.209   1.059   3.096
 3379SOL    HW110703   3.233   0.996   3.022
 3379SOL    HW210704   3.119   1.099   3.078
 3380SOL     OW10705   3.164   0.855   2.171
 3380SOL    HW110706   3.078   0.824   2.213
 3380SOL    HW210707   3.160   0.841   2.072
 3381SOL     OW10708   3.621   1.747   3.016
 3381SOL    HW110709   3.682   1.777   2.943
 3381SOL    HW210710   3.583   1.658   2.994
 3382SOL     OW10711   3.114   1.731   2.990
 3382SOL    HW110712   3.198   1.736   2.936
 3382SOL    HW210713   3.091   1.635   3.008
 3383SOL     OW10714   1.945   1.258   2.884
 3383SOL    HW110715   1.940   1.257   2.984
 3383SOL    HW210716   1.862   1.217   2.846
 3384SOL     OW10717   2.550   1.662   3.578
 3384SOL    HW110718   2.494   1.743   3.587
 3384SOL    HW210719   2.602   1.666   3.492
 3385SOL     OW10720   3.588   0.135   2.385
 3385SOL    HW110721   3.661   0.118   2.318
 3385SOL    HW210722   3.557   0.048   2.423
 3386SOL     OW10723   3.250   1.573   2.339
 3386SOL    HW110724   3.317   1.585   2.265
 3386SOL    HW210725   3.210   1.662   2.362
 3387SOL     OW10726   1.992   1.794   3.713
 3387SOL    HW110727   1.951   1.720   3.766
 3387SOL    HW210728   2.056   1.845   3.771
 3388SOL     OW10729   3.142   0.927   2.534
 3388SOL    HW110730   3.202   0.846   2.536
 3388SOL    HW210731   3.182   0.996   2.474
 3389SOL     OW10732   2.692   1.273   3.284
 3389SOL    HW110733   2.687   1.306   3.379
 3389SOL    HW210734   2.606   1.292   3.238
 3390SOL     OW10735   2.534   1.616   2.016
 3390SOL    HW110736   2.543   1.626   1.917
 3390SOL    HW210737   2.494   1.527   2.037
 3391SOL     OW10738   3.512   1.720   3.256
 3391SOL    HW110739   3.565   1.730   3.172
 3391SOL    HW210740   3.485   1.810   3.290
 3392SOL     OW10741   3.703   0.175   2.825
 3392SOL    HW110742   3.742   0.090   2.789
 3392SOL    HW210743   3.605   0.177   2.806
 3393SOL     OW10744   2.125   0.326   2.582
 3393SOL    HW110745   2.046   0.377   2.548
 3393SOL    HW210746   2.116   0.311   2.680
 3394SOL     OW10747   3.056   1.612   1.893
 3394SOL    HW110748   3.062   1.519   1.930
 3394SOL    HW210749   2.997   1.612   1.813
 3395SOL     OW10750   2.684   1.002   3.234
 3395SOL    HW110751   2.724   1.001   3.142
 3395SOL    HW210752   2.694   1.094   3.274
 3396SOL     OW10753   2.778   0.910   2.153
 3396SOL    HW110754   2.841   0.948   2.085
 3396SOL    HW210755   2.818   0.827   2.192
 3397SOL     OW10756   3.366   1.607   1.906
 3397SOL    HW110757   3.274   1.644   1.913
 3397SOL    HW210758   3.404   1.627   1.816
 3398SOL     OW10759   2.234   1.288   3.352
 3398SOL    HW110760   2.221   1.381   3.318
 3398SOL    HW210761   2.150   1.236   3.339
 3399SOL     OW10762   3.476   1.292   3.151
 3399SOL    HW110763   3.536   1.295   3.231
 3399SOL    HW210764   3.401   1.356   3.164
 3400SOL     OW10765   2.901   1.098   2.558
 3400SOL    HW110766   2.831   1.051   2.612
 3400SOL    HW210767   2.960   1.030   2.515
 3401SOL     OW10768   2.876   0.236   2.833
 3401SOL    HW110769   2.868   0.200   2.740
 3401SOL    HW210770   2.874   0.160   2.898
 3402SOL     OW10771   2.452   1.487   2.353
 3402SOL    HW110772   2.494   1.429   2.283
 3402SOL    HW210773   2.408   1.566   2.309
 3403SOL     OW10774   3.571   0.385   3.243
 3403SOL    HW110775   3.644   0.454   3.247
 3403SOL    HW210776   3.599   0.310   3.184
 3404SOL     OW10777   2.117   1.348   2.152
 3404SOL    HW110778   2.021   1.349   2.125
 3404SOL    HW210779   2.129   1.401   2.236
 3405SOL     OW10780   1.967   1.013   3.588
 3405SOL    HW110781   1.890   0.980   3.642
 3405SOL    HW210782   2.052   0.983   3.630
 3406SOL     OW10783   2.534   0.203   3.351
 3406SOL    HW110784   2.624   0.187   3.311
 3406SOL    HW210785   2.542   0.208   3.450
 3407SOL     OW10786   1.937   0.345   1.895
 3407SOL    HW110787   1.845   0.317   1.866
 3407SOL    HW210788   1.968   0.422   1.839
 3408SOL     OW10789   3.302   0.856   3.260
 3408SOL    HW110790   3.245   0.908   3.197
 3408SOL    HW210791   3.398   0.868   3.236
 3409SOL     OW10792   1.934   0.166   2.180
 3409SOL    HW110793   1.917   0.249   2.126
 3409SOL    HW210794   2.024   0.129   2.158
 3410SOL     OW10795   3.045   1.335   1.981
 3410SOL    HW110796   2.946   1.324   1.983
 3410SOL    HW210797   3.079   1.350   2.074
 3411SOL     OW10798   2.475   0.842   3.293
 3411SOL    HW110799   2.531   0.923   3.276
 3411SOL    HW210800   2.534   0.762   3.296
 3412SOL     OW10801   3.355   1.767   2.821
 3412SOL    HW110802   3.388   1.831   2.752
 3412SOL    HW210803   3.421   1.761   2.896
 3413SOL     OW10804   2.578   0.565   3.570
 3413SOL    HW110805   2.597   0.630   3.644
 3413SOL    HW210806   2.638   0.485   3.579
 3414SOL     OW10807   3.312   1.220   3.495
 3414SOL    HW110808   3.303   1.210   3.594
 3414SOL    HW210809   3.408   1.213   3.469
 3415SOL     OW10810   2.252   1.741   3.422
 3415SOL    HW110811   2.161   1.782   3.420
 3415SOL    HW210812   2.245   1.647   3.454
 3416SOL     OW10813   3.536   0.883   3.116
 3416SOL    HW110814   3.509   0.794   3.079
 3416SOL    HW210815   3.537   0.951   3.043
 3417SOL     OW10816   3.087   0.325   2.311
 3417SOL    HW110817   3.152   0.251   2.300
 3417SOL    HW210818   3.107   0.375   2.395
 3418SOL     OW10819   2.456   0.745   2.514
 3418SOL    HW110820   2.506   0.830   2.495
 3418SOL    HW210821   2.368   0.747   2.466
 3419SOL     OW10822   3.639   0.342   3.504
 3419SOL    HW110823   3.622   0.373   3.410
 3419SOL    HW210824   3.555   0.305   3.542
 3420SOL     OW10825   3.592   0.934   3.379
 3420SOL    HW110826   3.630   1.025   3.394
 3420SOL    HW210827   3.584   0.917   3.280
 3421SOL     OW10828   2.721   1.374   1.878
 3421SOL    HW110829   2.675   1.389   1.966
 3421SOL    HW210830   2.765   1.459   1.848
 3422SOL     OW10831   2.523   1.790   2.815
 3422SOL    HW110832   2.477   1.878   2.802
 3422SOL    HW210833   2.622   1.802   2.808
 3423SOL     OW10834   2.721   0.956   2.723
 3423SOL    HW110835   2.775   0.887   2.771
 3423SOL    HW210836   2.689   1.025   2.789
 3424SOL     OW10837   2.945   0.984   1.949
 3424SOL    HW110838   2.922   1.037   1.867
 3424SOL    HW210839   3.026   0.928   1.930
 3425SOL     OW10840   3.723   1.569   2.713
 3425SOL    HW110841   3.652   1.557   2.643
 3425SOL    HW210842   3.724   1.490   2.773
 3426SOL     OW10843   2.083   1.314   3.706
 3426SOL    HW110844   2.018   1.241   3.685
 3426SOL    HW210845   2.087   1.328   3.804
 3427SOL     OW10846   1.941   1.240   2.515
 3427SOL    HW110847   1.940   1.193   2.603
 3427SOL    HW210848   2.023   1.212   2.464
 3428SOL     OW10849   2.534   1.391   3.486
 3428SOL    HW110850   2.456   1.341   3.524
 3428SOL    HW210851   2.531   1.486   3.517
 3429SOL     OW10852   3.686   0.192   3.089
 3429SOL    HW110853   3.682   0.102   3.133
 3429SOL    HW210854   3.689   0.181   2.990
 3430SOL     OW10855   2.290   0.424   2.382
 3430SOL    HW110856   2.320   0.352   2.320
 3430SOL    HW210857   2.251   0.384   2.465
 3431SOL     OW10858   3.567   1.487   2.966
 3431SOL    HW110859   3.474   1.462   2.939
 3431SOL    HW210860   3.593   1.437   3.048
 3432SOL     OW10861   2.179   0.547   3.142
 3432SOL    HW110862   2.217   0.488   3.214
 3432SOL    HW210863   2.219   0.521   3.054
 3433SOL     OW10864   2.674   1.586   2.549
 3433SOL    HW110865   2.706   1.596   2.455
 3433SOL    HW210866   2.595   1.524   2.551
 3434SOL     OW10867   3.286   0.214   2.974
 3434SOL    HW110868   3.338   0.149   3.029
 3434SOL    HW210869   3.237   0.277   3.035
 3435SOL     OW10870   2.863   0.034   3.016
 3435SOL    HW110871   2.800  -0.038   2.985
 3435SOL    HW210872   2.956  -0.002   3.016
 3436SOL     OW10873   2.632   1.330   2.163
 3436SOL    HW110874   2.586   1.243   2.180
 3436SOL    HW210875   2.723   1.327   2.204
 3437SOL     OW10876   2.480   1.567   3.146
 3437SOL    HW110877   2.475   1.649   3.203
 3437SOL    HW210878   2.569   1.564   3.101
 3438SOL     OW10879   3.214   0.052   2.030
 3438SOL    HW110880   3.249   0.011   1.946
 3438SOL    HW210881   3.124   0.014   2.050
 3439SOL     OW10882   3.162   0.453   2.553
 3439SOL    HW110883   3.103   0.533   2.557
 3439SOL    HW210884   3.177   0.418   2.646
 3440SOL     OW10885   3.455   0.221   2.744
 3440SOL    HW110886   3.371   0.220   2.798
 3440SOL    HW210887   3.457   0.304   2.688
 3441SOL     OW10888   1.901   1.077   2.162
 3441SOL    HW110889   2.000   1.066   2.153
 3441SOL    HW210890   1.861   0.991   2.194
 3442SOL     OW10891   2.737   1.646   2.199
 3442SOL    HW110892   2.660   1.611   2.145
 3442SOL    HW210893   2.705   1.717   2.261
 3443SOL     OW10894   2.092   0.628   3.837
 3443SOL    HW110895   1.999   0.626   3.874
 3443SOL    HW210896   2.093   0.589   3.745
 3444SOL     OW10897   2.087   0.275   4.720
 3444SOL    HW110898   2.122   0.258   4.812
 3444SOL    HW210899   1.999   0.230   4.708
 3445SOL     OW10900   1.881   0.368   4.371
 3445SOL    HW110901   1.799   0.411   4.410
 3445SOL    HW210902   1.853   0.295   4.308
 3446SOL     OW10903   2.431   1.275   4.889
 3446SOL    HW110904   2.338   1.268   4.852
 3446SOL    HW210905   2.442   1.364   4.933
 3447SOL     OW10906   3.417   1.511   4.427
 3447SOL    HW110907   3.360   1.495   4.508
 3447SOL    HW210908   3.358   1.521   4.347
 3448SOL     OW10909   2.997   0.703   4.441
 3448SOL    HW110910   3.054   0.781   4.416
 3448SOL    HW210911   2.937   0.729   4.517
 3449SOL     OW10912   3.617   0.607   3.955
 3449SOL    HW110913   3.605   0.594   3.856
 3449SOL    HW210914   3.587   0.526   4.004
 3450SOL     OW10915   2.630   1.144   4.747
 3450SOL    HW110916   2.552   1.161   4.807
 3450SOL    HW210917   2.664   1.231   4.711
 3451SOL     OW10918   2.712   0.798   5.547
 3451SOL    HW110919   2.708   0.874   5.612
 3451SOL    HW210920   2.734   0.834   5.456
 3452SOL     OW10921   2.547   1.012   4.389
 3452SOL    HW110922   2.616   0.996   4.459
 3452SOL    HW210923   2.474   1.069   4.427
 3453SOL     OW10924   2.548   1.161   5.527
 3453SOL    HW110925   2.608   1.240   5.541
 3453SOL    HW210926   2.462   1.192   5.486
 3454SOL     OW10927   2.197   1.435   4.785
 3454SOL    HW110928   2.119   1.404   4.732
 3454SOL    HW210929   2.255   1.493   4.728
 3455SOL     OW10930   3.322   1.505   5.063
 3455SOL    HW110931   3.346   1.599   5.089
 3455SOL    HW210932   3.306   1.451   5.145
 3456SOL     OW10933   2.300   0.392   5.223
 3456SOL    HW110934   2.382   0.336   5.232
 3456SOL    HW210935   2.219   0.334   5.227
 3457SOL     OW10936   3.465   0.447   4.461
 3457SOL    HW110937   3.391   0.493   4.411
 3457SOL    HW210938   3.516   0.515   4.514
 3458SOL     OW10939   2.093   1.713   4.207
 3458SOL    HW110940   2.127   1.790   4.261
 3458SOL    HW210941   2.137   1.713   4.117
 3459SOL     OW10942   2.989   1.341   5.414
 3459SOL    HW110943   3.036   1.341   5.502
 3459SOL    HW210944   2.941   1.254   5.403
 3460SOL     OW10945   2.092   1.434   4.262
 3460SOL    HW110946   2.066   1.530   4.262
 3460SOL    HW210947   2.021   1.380   4.307
 3461SOL     OW10948   2.102   1.091   4.610
 3461SOL    HW110949   2.116   1.007   4.662
 3461SOL    HW210950   2.047   1.155   4.665
 3462SOL     OW10951   2.468   0.964   3.847
 3462SOL    HW110952   2.475   1.048   3.793
 3462SOL    HW210953   2.514   0.977   3.935
 3463SOL     OW10954   3.456   0.114   5.204
 3463SOL    HW110955   3.438   0.181   5.132
 3463SOL    HW210956   3.453   0.160   5.293
 3464SOL     OW10957   1.984   0.643   4.287
 3464SOL    HW110958   1.939   0.555   4.304
 3464SOL    HW210959   1.983   0.697   4.371
 3465SOL     OW10960   3.704   1.767   4.083
 3465SOL    HW110961   3.758   1.738   4.163
 3465SOL    HW210962   3.734   1.857   4.054
 3466SOL     OW10963   1.889   1.596   3.841
 3466SOL    HW110964   1.870   1.500   3.862
 3466SOL    HW210965   1.856   1.654   3.916
 3467SOL     OW10966   3.551   0.922   4.336
 3467SOL    HW110967   3.646   0.893   4.344
 3467SOL    HW210968   3.543   0.987   4.261
 3468SOL     OW10969   3.503   1.108   4.156
 3468SOL    HW110970   3.589   1.110   4.104
 3468SOL    HW210971   3.517   1.155   4.244
 3469SOL     OW10972   1.975   0.737   5.321
 3469SOL    HW110973   2.063   0.724   5.366
 3469SOL    HW210974   1.962   0.834   5.299
 3470SOL     OW10975   2.475   1.365   4.450
 3470SOL    HW110976   2.426   1.278   4.459
 3470SOL    HW210977   2.452   1.408   4.363
 3471SOL     OW10978   3.155   1.228   5.147
 3471SOL    HW110979   3.192   1.155   5.089
 3471SOL    HW210980   3.207   1.233   5.232
 3472SOL     OW10981   2.671   0.004   4.226
 3472SOL    HW110982   2.711   0.095   4.217
 3472SOL    HW210983   2.571   0.012   4.232
 3473SOL     OW10984   2.059   0.976   4.988
 3473SOL    HW110985   2.148   0.931   4.974
 3473SOL    HW210986   1.986   0.911   4.969
 3474SOL     OW10987   3.387   0.999   3.914
 3474SOL    HW110988   3.324   0.923   3.927
 3474SOL    HW210989   3.435   1.017   4.000
 3475SOL     OW10990   3.049   1.792   5.340
 3475SOL    HW110991   3.073   1.852   5.264
 3475SOL    HW210992   3.056   1.697   5.310
 3476SOL     OW10993   2.179   0.251   5.525
 3476SOL    HW110994   2.250   0.322   5.531
 3476SOL    HW210995   2.091   0.290   5.553
 3477SOL     OW10996   3.328   1.417   4.677
 3477SOL    HW110997   3.269   1.423   4.757
 3477SOL    HW210998   3.313   1.329   4.631
 3478SOL     OW10999   3.529   1.714   4.296
 3478SOL    HW111000   3.488   1.691   4.208
 3478SOL    HW211001   3.511   1.640   4.361
 3479SOL     OW11002   2.460   0.729   3.994
 3479SOL    HW111003   2.484   0.798   3.926
 3479SOL    HW211004   2.382   0.762   4.048
 3480SOL     OW11005   3.143   0.345   4.668
 3480SOL    HW111006   3.057   0.295   4.655
 3480SOL    HW211007   3.205   0.291   4.724
 3481SOL     OW11008   3.438   1.662   4.031
 3481SOL    HW111009   3.527   1.708   4.034
 3481SOL    HW211010   3.417   1.638   3.936
 3482SOL     OW11011   2.669   0.605   5.189
 3482SOL    HW111012   2.622   0.602   5.278
 3482SOL    HW211013   2.618   0.550   5.123
 3483SOL     OW11014   3.256   0.469   5.398
 3483SOL    HW111015   3.236   0.512   5.486
 3483SOL    HW211016   3.334   0.407   5.407
 3484SOL     OW11017   2.835   0.890   5.296
 3484SOL    HW111018   2.881   0.806   5.267
 3484SOL    HW211019   2.779   0.924   5.221
 3485SOL     OW11020   2.853   0.410   4.966
 3485SOL    HW111021   2.776   0.444   5.020
 3485SOL    HW211022   2.819   0.359   4.887
 3486SOL     OW11023   2.903   0.701   4.153
 3486SOL    HW111024   2.929   0.697   4.249
 3486SOL    HW211025   2.818   0.650   4.139
 3487SOL     OW11026   1.938   0.811   4.513
 3487SOL    HW111027   2.037   0.799   4.522
 3487SOL    HW211028   1.914   0.906   4.534
 3488SOL     OW11029   2.727   0.348   3.919
 3488SOL    HW111030   2.786   0.411   3.870
 3488SOL    HW211031   2.746   0.254   3.890
 3489SOL     OW11032   3.581   0.585   5.555
 3489SOL    HW111033   3.555   0.674   5.519
 3489SOL    HW211034   3.579   0.517   5.482
 3490SOL     OW11035   3.224   1.144   4.269
 3490SOL    HW111036   3.307   1.115   4.221
 3490SOL    HW211037   3.175   1.211   4.213
 3491SOL     OW11038   2.412   0.196   4.609
 3491SOL    HW111039   2.407   0.191   4.709
 3491SOL    HW211040   2.414   0.292   4.580
 3492SOL     OW11041   2.870   1.456   4.201
 3492SOL    HW111042   2.824   1.528   4.149
 3492SOL    HW211043   2.866   1.476   4.299
 3493SOL     OW11044   3.657   1.066   4.597
 3493SOL    HW111045   3.595   1.051   4.521
 3493SOL    HW211046   3.605   1.077   4.682
 3494SOL     OW11047   3.089   1.550   5.230
 3494SOL    HW111048   3.095   1.473   5.294
 3494SOL    HW211049   3.037   1.524   5.150
 3495SOL     OW11050   2.183   0.943   3.966
 3495SOL    HW111051   2.265   0.982   3.924
 3495SOL    HW211052   2.156   0.861   3.917
 3496SOL     OW11053   3.320   0.735   4.452
 3496SOL    HW111054   3.315   0.670   4.527
 3496SOL    HW211055   3.400   0.794   4.465
 3497SOL     OW11056   2.323   1.266   5.451
 3497SOL    HW111057   2.273   1.267   5.365
 3497SOL    HW211058   2.260   1.248   5.527
 3498SOL     OW11059   2.973   1.776   3.961
 3498SOL    HW111060   2.913   1.714   4.011
 3498SOL    HW211061   3.004   1.732   3.876
 3499SOL     OW11062   2.064   0.285   5.222
 3499SOL    HW111063   1.984   0.345   5.209
 3499SOL    HW211064   2.054   0.236   5.308
 3500SOL     OW11065   3.494   1.377   3.805
 3500SOL    HW111066   3.462   1.471   3.795
 3500SOL    HW211067   3.418   1.314   3.793
 3501SOL     OW11068   2.326   1.743   4.047
 3501SOL    HW111069   2.359   1.782   4.133
 3501SOL    HW211070   2.402   1.736   3.982
 3502SOL     OW11071   3.262   0.107   4.150
 3502SOL    HW111072   3.238   0.070   4.060
 3502SOL    HW211073   3.361   0.123   4.154
 3503SOL     OW11074   2.802   1.698   4.628
 3503SOL    HW111075   2.882   1.641   4.649
 3503SOL    HW211076   2.753   1.658   4.551
 3504SOL     OW11077   2.244   0.700   4.204
 3504SOL    HW111078   2.289   0.610   4.201
 3504SOL    HW211079   2.150   0.689   4.237
 3505SOL     OW11080   3.409   0.222   5.453
 3505SOL    HW111081   3.404   0.259   5.545
 3505SOL    HW211082   3.337   0.153   5.441
 3506SOL     OW11083   2.476   0.122   3.841
 3506SOL    HW111084   2.574   0.100   3.848
 3506SOL    HW211085   2.445   0.105   3.748
 3507SOL     OW11086   2.643   0.264   5.473
 3507SOL    HW111087   2.710   0.203   5.516
 3507SOL    HW211088   2.570   0.283   5.538
 3508SOL     OW11089   2.750   1.514   4.919
 3508SOL    HW111090   2.727   1.489   4.825
 3508SOL    HW211091   2.811   1.445   4.958
 3509SOL     OW11092   3.213   0.590   5.157
 3509SOL    HW111093   3.241   0.547   5.242
 3509SOL    HW211094   3.238   0.686   5.158
 3510SOL     OW11095   2.665   1.402   4.648
 3510SOL    HW111096   2.755   1.416   4.606
 3510SOL    HW211097   2.594   1.404   4.577
 3511SOL     OW11098   2.784   0.503   4.623
 3511SOL    HW111099   2.759   0.494   4.527
 3511SOL    HW211100   2.832   0.421   4.654
 3512SOL     OW11101   2.401   0.064   4.236
 3512SOL    HW111102   2.320   0.065   4.294
 3512SOL    HW211103   2.404   0.147   4.181
 3513SOL     OW11104   3.296   1.188   3.765
 3513SOL    HW111105   3.328   1.112   3.822
 3513SOL    HW211106   3.204   1.215   3.795
 3514SOL     OW11107   2.159   0.035   3.895
 3514SOL    HW111108   2.208   0.119   3.874
 3514SOL    HW211109   2.221  -0.030   3.940
 3515SOL     OW11110   2.797   0.236   4.204
 3515SOL    HW111111   2.749   0.277   4.126
 3515SOL    HW211112   2.896   0.234   4.185
 3516SOL     OW11113   2.938   0.683   5.188
 3516SOL    HW111114   2.858   0.622   5.191
 3516SOL    HW211115   3.019   0.630   5.164
 3517SOL     OW11116   3.089   1.570   4.517
 3517SOL    HW111117   3.110   1.644   4.452
 3517SOL    HW211118   3.157   1.570   4.590
 3518SOL     OW11119   2.321   1.152   4.465
 3518SOL    HW111120   2.250   1.125   4.530
 3518SOL    HW211121   2.295   1.124   4.372
 3519SOL     OW11122   3.133   1.797   4.315
 3519SOL    HW111123   3.177   1.861   4.251
 3519SOL    HW211124   3.083   1.849   4.385
 3520SOL     OW11125   2.894   0.549   3.740
 3520SOL    HW111126   2.853   0.631   3.701
 3520SOL    HW211127   2.958   0.575   3.813
 3521SOL     OW11128   1.940   0.556   5.110
 3521SOL    HW111129   2.032   0.555   5.069
 3521SOL    HW211130   1.934   0.630   5.177
 3522SOL     OW11131   2.423   0.222   4.871
 3522SOL    HW111132   2.461   0.138   4.908
 3522SOL    HW211133   2.335   0.241   4.915
 3523SOL     OW11134   2.728   0.454   4.366
 3523SOL    HW111135   2.696   0.526   4.304
 3523SOL    HW211136   2.752   0.373   4.313
 3524SOL     OW11137   2.879   0.039   4.477
 3524SOL    HW111138   2.807   0.044   4.408
 3524SOL    HW211139   2.855  -0.030   4.546
 3525SOL     OW11140   3.291   1.173   4.591
 3525SOL    HW111141   3.236   1.089   4.584
 3525SOL    HW211142   3.317   1.202   4.499
 3526SOL     OW11143   3.328   0.590   4.716
 3526SOL    HW111144   3.298   0.495   4.723
 3526SOL    HW211145   3.401   0.606   4.782
 3527SOL     OW11146   3.719   0.833   4.101
 3527SOL    HW111147   3.761   0.769   4.165
 3527SOL    HW211148   3.681   0.782   4.023
 3528SOL     OW11149   2.350   1.385   3.898
 3528SOL    HW111150   2.263   1.370   3.945
 3528SOL    HW211151   2.333   1.411   3.803
 3529SOL     OW11152   3.526   1.280   4.381
 3529SOL    HW111153   3.625   1.288   4.395
 3529SOL    HW211154   3.481   1.364   4.412
 3530SOL     OW11155   3.252   0.575   3.802
 3530SOL    HW111156   3.198   0.554   3.883
 3530SOL    HW211157   3.343   0.534   3.811
 3531SOL     OW11158   2.389   0.256   4.052
 3531SOL    HW111159   2.416   0.197   3.977
 3531SOL    HW211160   2.389   0.351   4.021
 3532SOL     OW11161   3.616   1.223   5.312
 3532SOL    HW111162   3.707   1.184   5.299
 3532SOL    HW211163   3.624   1.319   5.336
 3533SOL     OW11164   2.926   1.347   5.064
 3533SOL    HW111165   2.846   1.324   5.119
 3533SOL    HW211166   3.009   1.321   5.113
 3534SOL     OW11167   3.454   1.629   5.349
 3534SOL    HW111168   3.481   1.663   5.259
 3534SOL    HW211169   3.533   1.591   5.395
 3535SOL     OW11170   2.973   1.195   4.824
 3535SOL    HW111171   2.933   1.239   4.905
 3535SOL    HW211172   2.932   1.232   4.741
 3536SOL     OW11173   3.500   1.099   4.803
 3536SOL    HW111174   3.505   1.180   4.862
 3536SOL    HW211175   3.414   1.101   4.752
 3537SOL     OW11176   2.777   0.089   5.126
 3537SOL    HW111177   2.802   0.069   5.031
 3537SOL    HW211178   2.849   0.145   5.168
 3538SOL     OW11179   2.842   1.116   5.443
 3538SOL    HW111180   2.743   1.122   5.453
 3538SOL    HW211181   2.865   1.036   5.387
 3539SOL     OW11182   2.567   1.050   4.092
 3539SOL    HW111183   2.553   1.057   4.191
 3539SOL    HW211184   2.651   0.999   4.074
 3540SOL     OW11185   2.272   0.813   4.975
 3540SOL    HW111186   2.358   0.825   5.025
 3540SOL    HW211187   2.230   0.726   5.002
 3541SOL     OW11188   3.136   0.386   4.986
 3541SOL    HW111189   3.157   0.460   5.050
 3541SOL    HW211190   3.047   0.403   4.943
 3542SOL     OW11191   2.229   1.100   4.225
 3542SOL    HW111192   2.222   1.183   4.169
 3542SOL    HW211193   2.233   1.020   4.165
 3543SOL     OW11194   2.428   0.537   4.589
 3543SOL    HW111195   2.440   0.603   4.515
 3543SOL    HW211196   2.474   0.571   4.672
 3544SOL     OW11197   3.114   1.348   4.112
 3544SOL    HW111198   3.164   1.425   4.152
 3544SOL    HW211199   3.019   1.350   4.144
 3545SOL     OW11200   3.134   1.445   4.866
 3545SOL    HW111201   3.181   1.458   4.953
 3545SOL    HW211202   3.068   1.371   4.875
 3546SOL     OW11203   3.444   0.639   4.196
 3546SOL    HW111204   3.413   0.700   4.269
 3546SOL    HW211205   3.494   0.691   4.127
 3547SOL     OW11206   2.264   0.751   5.322
 3547SOL    HW111207   2.332   0.806   5.275
 3547SOL    HW211208   2.304   0.663   5.349
 3548SOL     OW11209   3.449   0.779   5.394
 3548SOL    HW111210   3.357   0.817   5.389
 3548SOL    HW211211   3.509   0.826   5.329
 3549SOL     OW11212   2.875   0.105   5.494
 3549SOL    HW111213   2.881   0.190   5.442
 3549SOL    HW211214   2.907   0.029   5.437
 3550SOL     OW11215   2.366   0.050   5.464
 3550SOL    HW111216   2.324  -0.007   5.394
 3550SOL    HW211217   2.300   0.119   5.496
 3551SOL     OW11218   2.435   0.870   4.753
 3551SOL    HW111219   2.479   0.959   4.744
 3551SOL    HW211220   2.372   0.870   4.830
 3552SOL     OW11221   3.222   0.862   4.769
 3552SOL    HW111222   3.147   0.862   4.703
 3552SOL    HW211223   3.259   0.770   4.778
 3553SOL     OW11224   3.071   0.525   3.999
 3553SOL    HW111225   3.084   0.441   4.053
 3553SOL    HW211226   3.042   0.599   4.059
 3554SOL     OW11227   2.169   0.213   4.955
 3554SOL    HW111228   2.146   0.250   5.045
 3554SOL    HW211229   2.139   0.118   4.949
 3555SOL     OW11230   1.899   1.310   5.006
 3555SOL    HW111231   1.952   1.261   5.074
 3555SOL    HW211232   1.921   1.408   5.011
 3556SOL     OW11233   2.594   0.634   4.788
 3556SOL    HW111234   2.653   0.608   4.712
 3556SOL    HW211235   2.566   0.730   4.777
 3557SOL     OW11236   3.590   0.935   5.578
 3557SOL    HW111237   3.544   0.928   5.489
 3557SOL    HW211238   3.528   0.979   5.644
 3558SOL     OW11239   2.169   0.063   4.342
 3558SOL    HW111240   2.158   0.157   4.375
 3558SOL    HW211241   2.164   0.000   4.419
 3559SOL     OW11242   3.484   0.367   4.098
 3559SOL    HW111243   3.486   0.291   4.162
 3559SOL    HW211244   3.436   0.444   4.138
 3560SOL     OW11245   2.885   0.766   4.690
 3560SOL    HW111246   2.900   0.787   4.786
 3560SOL    HW211247   2.855   0.671   4.681
 3561SOL     OW11248   2.842   1.573   5.424
 3561SOL    HW111249   2.822   1.617   5.336
 3561SOL    HW211250   2.881   1.482   5.408
 3562SOL     OW11251   3.721   1.518   5.329
 3562SOL    HW111252   3.735   1.545   5.234
 3562SOL    HW211253   3.804   1.540   5.382
 3563SOL     OW11254   2.212   0.898   5.528
 3563SOL    HW111255   2.288   0.942   5.576
 3563SOL    HW211256   2.247   0.851   5.446
 3564SOL     OW11257   3.402   0.274   3.849
 3564SOL    HW111258   3.341   0.199   3.872
 3564SOL    HW211259   3.424   0.326   3.932
 3565SOL     OW11260   3.165   0.838   3.766
 3565SOL    HW111261   3.199   0.745   3.781
 3565SOL    HW211262   3.183   0.865   3.671
 3566SOL     OW11263   2.930   1.333   4.573
 3566SOL    HW111264   2.937   1.249   4.518
 3566SOL    HW211265   2.992   1.402   4.537
 3567SOL     OW11266   2.181   0.810   4.673
 3567SOL    HW111267   2.274   0.846   4.678
 3567SOL    HW211268   2.175   0.725   4.725
 3568SOL     OW11269   2.201   0.509   4.730
 3568SOL    HW111270   2.149   0.426   4.713
 3568SOL    HW211271   2.278   0.514   4.666
 3569SOL     OW11272   3.000   0.380   5.402
 3569SOL    HW111273   2.955   0.443   5.466
 3569SOL    HW211274   3.093   0.411   5.385
 3570SOL     OW11275   3.022   0.207   5.201
 3570SOL    HW111276   3.022   0.271   5.278
 3570SOL    HW211277   3.050   0.255   5.118
 3571SOL     OW11278   1.870   1.326   3.924
 3571SOL    HW111279   1.777   1.347   3.893
 3571SOL    HW211280   1.880   1.227   3.937
 3572SOL     OW11281   2.366   1.568   4.634
 3572SOL    HW111282   2.432   1.642   4.643
 3572SOL    HW211283   2.410   1.489   4.592
 3573SOL     OW11284   2.864   0.796   4.962
 3573SOL    HW111285   2.905   0.764   5.048
 3573SOL    HW211286   2.768   0.769   4.959
 3574SOL     OW11287   1.902   0.544   4.838
 3574SOL    HW111288   1.987   0.511   4.797
 3574SOL    HW211289   1.915   0.559   4.936
 3575SOL     OW11290   2.051   0.520   5.446
 3575SOL    HW111291   2.110   0.480   5.376
 3575SOL    HW211292   1.993   0.591   5.405
 3576SOL     OW11293   3.231   0.950   5.384
 3576SOL    HW111294   3.270   1.039   5.404
 3576SOL    HW211295   3.241   0.930   5.287
 3577SOL     OW11296   2.677   0.572   4.049
 3577SOL    HW111297   2.684   0.483   4.003
 3577SOL    HW211298   2.583   0.606   4.041
 3578SOL     OW11299   3.519   0.604   4.930
 3578SOL    HW111300   3.481   0.535   4.992
 3578SOL    HW211301   3.601   0.568   4.886
 3579SOL     OW11302   2.533   0.464   4.993
 3579SOL    HW111303   2.499   0.375   4.963
 3579SOL    HW211304   2.559   0.518   4.913
 3580SOL     OW11305   2.792   1.678   5.189
 3580SOL    HW111306   2.768   1.660   5.094
 3580SOL    HW211307   2.822   1.772   5.199
 3581SOL     OW11308   2.335   0.500   3.915
 3581SOL    HW111309   2.396   0.580   3.919
 3581SOL    HW211310   2.240   0.531   3.922
 3582SOL     OW11311   2.021   1.137   5.190
 3582SOL    HW111312   2.043   1.076   5.266
 3582SOL    HW211313   2.031   1.088   5.104
 3583SOL     OW11314   3.209   1.059   4.958
 3583SOL    HW111315   3.233   0.996   4.884
 3583SOL    HW211316   3.119   1.099   4.940
 3584SOL     OW11317   3.164   0.855   4.033
 3584SOL    HW111318   3.078   0.824   4.075
 3584SOL    HW211319   3.160   0.841   3.934
 3585SOL     OW11320   3.621   1.747   4.878
 3585SOL    HW111321   3.682   1.777   4.805
 3585SOL    HW211322   3.583   1.658   4.856
 3586SOL     OW11323   3.114   1.731   4.852
 3586SOL    HW111324   3.198   1.736   4.798
 3586SOL    HW211325   3.091   1.635   4.870
 3587SOL     OW11326   1.945   1.258   4.746
 3587SOL    HW111327   1.940   1.257   4.846
 3587SOL    HW211328   1.862   1.217   4.708
 3588SOL     OW11329   3.588   0.135   4.247
 3588SOL    HW111330   3.661   0.118   4.180
 3588SOL    HW211331   3.557   0.048   4.285
 3589SOL     OW11332   3.250   1.573   4.201
 3589SOL    HW111333   3.317   1.585   4.127
 3589SOL    HW211334   3.210   1.662   4.224
 3590SOL     OW11335   3.142   0.927   4.396
 3590SOL    HW111336   3.202   0.846   4.398
 3590SOL    HW211337   3.182   0.996   4.336
 3591SOL     OW11338   2.692   1.273   5.146
 3591SOL    HW111339   2.687   1.306   5.241
 3591SOL    HW211340   2.606   1.292   5.100
 3592SOL     OW11341   2.534   1.616   3.878
 3592SOL    HW111342   2.543   1.626   3.779
 3592SOL    HW211343   2.494   1.527   3.899
 3593SOL     OW11344   3.512   1.720   5.118
 3593SOL    HW111345   3.565   1.730   5.034
 3593SOL    HW211346   3.485   1.810   5.152
 3594SOL     OW11347   3.703   0.175   4.687
 3594SOL    HW111348   3.742   0.090   4.651
 3594SOL    HW211349   3.605   0.177   4.668
 3595SOL     OW11350   2.125   0.326   4.444
 3595SOL    HW111351   2.046   0.377   4.410
 3595SOL    HW211352   2.116   0.311   4.542
 3596SOL     OW11353   3.056   1.612   3.755
 3596SOL    HW111354   3.062   1.519   3.792
 3596SOL    HW211355   2.997   1.612   3.675
 3597SOL     OW11356   2.684   1.002   5.096
 3597SOL    HW111357   2.724   1.001   5.004
 3597SOL    HW211358   2.694   1.094   5.136
 3598SOL     OW11359   2.778   0.910   4.015
 3598SOL    HW111360   2.841   0.948   3.947
 3598SOL    HW211361   2.818   0.827   4.054
 3599SOL     OW11362   3.366   1.607   3.768
 3599SOL    HW111363   3.274   1.644   3.775
 3599SOL    HW211364   3.404   1.627   3.678
 3600SOL     OW11365   2.234   1.288   5.214
 3600SOL    HW111366   2.221   1.381   5.180
 3600SOL    HW211367   2.150   1.236   5.201
 3601SOL     OW11368   3.476   1.292   5.013
 3601SOL    HW111369   3.536   1.295   5.093
 3601SOL    HW211370   3.401   1.356   5.026
 3602SOL     OW11371   2.901   1.098   4.420
 3602SOL    HW111372   2.831   1.051   4.474
 3602SOL    HW211373   2.960   1.030   4.377
 3603SOL     OW11374   2.876   0.236   4.695
 3603SOL    HW111375   2.868   0.200   4.602
 3603SOL    HW211376   2.874   0.160   4.760
 3604SOL     OW11377   2.452   1.487   4.215
 3604SOL    HW111378   2.494   1.429   4.145
 3604SOL    HW211379   2.408   1.566   4.171
 3605SOL     OW11380   3.571   0.385   5.105
 3605SOL    HW111381   3.644   0.454   5.109
 3605SOL    HW211382   3.599   0.310   5.046
 3606SOL     OW11383   2.117   1.348   4.014
 3606SOL    HW111384   2.021   1.349   3.987
 3606SOL    HW211385   2.129   1.401   4.098
 3607SOL     OW11386   1.967   1.013   5.450
 3607SOL    HW111387   1.890   0.980   5.504
 3607SOL    HW211388   2.052   0.983   5.492
 3608SOL     OW11389   2.534   0.203   5.213
 3608SOL    HW111390   2.624   0.187   5.173
 3608SOL    HW211391   2.542   0.208   5.312
 3609SOL     OW11392   1.937   0.345   3.757
 3609SOL    HW111393   1.845   0.317   3.728
 3609SOL    HW211394   1.968   0.422   3.701
 3610SOL     OW11395   3.302   0.856   5.122
 3610SOL    HW111396   3.245   0.908   5.059
 3610SOL    HW211397   3.398   0.868   5.098
 3611SOL     OW11398   1.934   0.166   4.042
 3611SOL    HW111399   1.917   0.249   3.988
 3611SOL    HW211400   2.024   0.129   4.020
 3612SOL     OW11401   3.045   1.335   3.843
 3612SOL    HW111402   2.946   1.324   3.845
 3612SOL    HW211403   3.079   1.350   3.936
 3613SOL     OW11404   2.475   0.842   5.155
 3613SOL    HW111405   2.531   0.923   5.138
 3613SOL    HW211406   2.534   0.762   5.158
 3614SOL     OW11407   3.355   1.767   4.683
 3614SOL    HW111408   3.388   1.831   4.614
 3614SOL    HW211409   3.421   1.761   4.758
 3615SOL     OW11410   2.578   0.565   5.432
 3615SOL    HW111411   2.597   0.630   5.506
 3615SOL    HW211412   2.638   0.485   5.441
 3616SOL     OW11413   3.312   1.220   5.357
 3616SOL    HW111414   3.303   1.210   5.456
 3616SOL    HW211415   3.408   1.213   5.331
 3617SOL     OW11416   3.536   0.883   4.978
 3617SOL    HW111417   3.509   0.794   4.941
 3617SOL    HW211418   3.537   0.951   4.905
 3618SOL     OW11419   3.087   0.325   4.173
 3618SOL    HW111420   3.152   0.251   4.162
 3618SOL    HW211421   3.107   0.375   4.257
 3619SOL     OW11422   2.456   0.745   4.376
 3619SOL    HW111423   2.506   0.830   4.357
 3619SOL    HW211424   2.368   0.747   4.328
 3620SOL     OW11425   3.639   0.342   5.366
 3620SOL    HW111426   3.622   0.373   5.272
 3620SOL    HW211427   3.555   0.305   5.404
 3621SOL     OW11428   3.592   0.934   5.241
 3621SOL    HW111429   3.630   1.025   5.256
 3621SOL    HW211430   3.584   0.917   5.142
 3622SOL     OW11431   2.721   1.374   3.740
 3622SOL    HW111432   2.675   1.389   3.828
 3622SOL    HW211433   2.765   1.459   3.710
 3623SOL     OW11434   2.721   0.956   4.585
 3623SOL    HW111435   2.775   0.887   4.633
 3623SOL    HW211436   2.689   1.025   4.651
 3624SOL     OW11437   2.945   0.984   3.811
 3624SOL    HW111438   2.922   1.037   3.729
 3624SOL    HW211439   3.026   0.928   3.792
 3625SOL     OW11440   3.723   1.569   4.575
 3625SOL    HW111441   3.652   1.557   4.505
 3625SOL    HW211442   3.724   1.490   4.635
 3626SOL     OW11443   2.083   1.314   5.568
 3626SOL    HW111444   2.018   1.241   5.547
 3626SOL    HW211445   2.087   1.328   5.666
 3627SOL     OW11446   1.941   1.240   4.377
 3627SOL    HW111447   1.940   1.193   4.465
 3627SOL    HW211448   2.023   1.212   4.326
 3628SOL     OW11449   2.534   1.391   5.348
 3628SOL    HW111450   2.456   1.341   5.386
 3628SOL    HW211451   2.531   1.486   5.379
 3629SOL     OW11452   3.686   0.192   4.951
 3629SOL    HW111453   3.682   0.102   4.995
 3629SOL    HW211454   3.689   0.181   4.852
 3630SOL     OW11455   2.290   0.424   4.244
 3630SOL    HW111456   2.320   0.352   4.182
 3630SOL    HW211457   2.251   0.384   4.327
 3631SOL     OW11458   3.567   1.487   4.828
 3631SOL    HW111459   3.474   1.462   4.801
 3631SOL    HW211460   3.593   1.437   4.910
 3632SOL     OW11461   2.179   0.547   5.004
 3632SOL    HW111462   2.217   0.488   5.076
 3632SOL    HW211463   2.219   0.521   4.916
 3633SOL     OW11464   2.674   1.586   4.411
 3633SOL    HW111465   2.706   1.596   4.317
 3633SOL    HW211466   2.595   1.524   4.413
 3634SOL     OW11467   3.286   0.214   4.836
 3634SOL    HW111468   3.338   0.149   4.891
 3634SOL    HW211469   3.237   0.277   4.897
 3635SOL     OW11470   2.863   0.034   4.878
 3635SOL    HW111471   2.800  -0.038   4.847
 3635SOL    HW211472   2.956  -0.002   4.878
 3636SOL     OW11473   2.632   1.330   4.025
 3636SOL    HW111474   2.586   1.243   4.042
 3636SOL    HW211475   2.723   1.327   4.066
 3637SOL     OW11476   3.214   0.052   3.892
 3637SOL    HW111477   3.249   0.011   3.808
 3637SOL    HW211478   3.124   0.014   3.912
 3638SOL     OW11479   3.162   0.453   4.415
 3638SOL    HW111480   3.103   0.533   4.419
 3638SOL    HW211481   3.177   0.418   4.508
 3639SOL     OW11482   3.455   0.221   4.606
 3639SOL    HW111483   3.371   0.220   4.660
 3639SOL    HW211484   3.457   0.304   4.550
 3640SOL     OW11485   1.901   1.077   4.024
 3640SOL    HW111486   2.000   1.066   4.015
 3640SOL    HW211487   1.861   0.991   4.056
 3641SOL     OW11488   2.737   1.646   4.061
 3641SOL    HW111489   2.660   1.611   4.007
 3641SOL    HW211490   2.705   1.717   4.123
 3642SOL     OW11491   2.092   0.628   5.699
 3642SOL    HW111492   1.999   0.626   5.736
 3642SOL    HW211493   2.093   0.589   5.607
 3643SOL     OW11494   2.087   0.275   6.582
 3643SOL    HW111495   2.122   0.258   6.674
 3643SOL    HW211496   1.999   0.230   6.570
 3644SOL     OW11497   1.881   0.368   6.233
 3644SOL    HW111498   1.799   0.411   6.272
 3644SOL    HW211499   1.853   0.295   6.170
 3645SOL     OW11500   2.431   1.275   6.751
 3645SOL    HW111501   2.338   1.268   6.714
 3645SOL    HW211502   2.442   1.364   6.795
 3646SOL     OW11503   3.417   1.511   6.289
 3646SOL    HW111504   3.360   1.495   6.370
 3646SOL    HW211505   3.358   1.521   6.209
 3647SOL     OW11506   2.997   0.703   6.303
 3647SOL    HW111507   3.054   0.781   6.278
 3647SOL    HW211508   2.937   0.729   6.379
 3648SOL     OW11509   3.617   0.607   5.817
 3648SOL    HW111510   3.605   0.594   5.718
 3648SOL    HW211511   3.587   0.526   5.866
 3649SOL     OW11512   2.630   1.144   6.609
 3649SOL    HW111513   2.552   1.161   6.669
 3649SOL    HW211514   2.664   1.231   6.573
 3650SOL     OW11515   2.712   0.798   7.409
 3650SOL    HW111516   2.708   0.874   7.474
 3650SOL    HW211517   2.734   0.834   7.318
 3651SOL     OW11518   2.547   1.012   6.251
 3651SOL    HW111519   2.616   0.996   6.321
 3651SOL    HW211520   2.474   1.069   6.289
 3652SOL     OW11521   2.548   1.161   7.389
 3652SOL    HW111522   2.608   1.240   7.403
 3652SOL    HW211523   2.462   1.192   7.348
 3653SOL     OW11524   2.197   1.435   6.647
 3653SOL    HW111525   2.119   1.404   6.594
 3653SOL    HW211526   2.255   1.493   6.590
 3654SOL     OW11527   3.322   1.505   6.925
 3654SOL    HW111528   3.346   1.599   6.951
 3654SOL    HW211529   3.306   1.451   7.007
 3655SOL     OW11530   2.300   0.392   7.085
 3655SOL    HW111531   2.382   0.336   7.094
 3655SOL    HW211532   2.219   0.334   7.089
 3656SOL     OW11533   3.465   0.447   6.323
 3656SOL    HW111534   3.391   0.493   6.273
 3656SOL    HW211535   3.516   0.515   6.376
 3657SOL     OW11536   2.989   1.341   7.276
 3657SOL    HW111537   3.036   1.341   7.364
 3657SOL    HW211538   2.941   1.254   7.265
 3658SOL     OW11539   2.092   1.434   6.124
 3658SOL    HW111540   2.066   1.530   6.124
 3658SOL    HW211541   2.021   1.380   6.169
 3659SOL     OW11542   2.102   1.091   6.472
 3659SOL    HW111543   2.116   1.007   6.524
 3659SOL    HW211544   2.047   1.155   6.527
 3660SOL     OW11545   2.482   1.786   7.025
 3660SOL    HW111546   2.390   1.769   7.060
 3660SOL    HW211547   2.510   1.878   7.051
 3661SOL     OW11548   2.468   0.964   5.709
 3661SOL    HW111549   2.475   1.048   5.655
 3661SOL    HW211550   2.514   0.977   5.797
 3662SOL     OW11551   3.456   0.114   7.066
 3662SOL    HW111552   3.438   0.181   6.994
 3662SOL    HW211553   3.453   0.160   7.155
 3663SOL     OW11554   1.984   0.643   6.149
 3663SOL    HW111555   1.939   0.555   6.166
 3663SOL    HW211556   1.983   0.697   6.233
 3664SOL     OW11557   3.704   1.767   5.945
 3664SOL    HW111558   3.758   1.738   6.025
 3664SOL    HW211559   3.734   1.857   5.916
 3665SOL     OW11560   3.551   0.922   6.198
 3665SOL    HW111561   3.646   0.893   6.206
 3665SOL    HW211562   3.543   0.987   6.123
 3666SOL     OW11563   3.503   1.108   6.018
 3666SOL    HW111564   3.589   1.110   5.966
 3666SOL    HW211565   3.517   1.155   6.106
 3667SOL     OW11566   1.975   0.737   7.183
 3667SOL    HW111567   2.063   0.724   7.228
 3667SOL    HW211568   1.962   0.834   7.161
 3668SOL     OW11569   2.475   1.365   6.312
 3668SOL    HW111570   2.426   1.278   6.321
 3668SOL    HW211571   2.452   1.408   6.225
 3669SOL     OW11572   3.155   1.228   7.009
 3669SOL    HW111573   3.192   1.155   6.951
 3669SOL    HW211574   3.207   1.233   7.094
 3670SOL     OW11575   2.671   0.004   6.088
 3670SOL    HW111576   2.711   0.095   6.079
 3670SOL    HW211577   2.571   0.012   6.094
 3671SOL     OW11578   2.059   0.976   6.850
 3671SOL    HW111579   2.148   0.931   6.836
 3671SOL    HW211580   1.986   0.911   6.831
 3672SOL     OW11581   3.387   0.999   5.776
 3672SOL    HW111582   3.324   0.923   5.789
 3672SOL    HW211583   3.435   1.017   5.862
 3673SOL     OW11584   3.049   1.792   7.202
 3673SOL    HW111585   3.073   1.852   7.126
 3673SOL    HW211586   3.056   1.697   7.172
 3674SOL     OW11587   2.179   0.251   7.387
 3674SOL    HW111588   2.250   0.322   7.393
 3674SOL    HW211589   2.091   0.290   7.415
 3675SOL     OW11590   3.328   1.417   6.539
 3675SOL    HW111591   3.269   1.423   6.619
 3675SOL    HW211592   3.313   1.329   6.493
 3676SOL     OW11593   3.529   1.714   6.158
 3676SOL    HW111594   3.488   1.691   6.070
 3676SOL    HW211595   3.511   1.640   6.223
 3677SOL     OW11596   2.460   0.729   5.856
 3677SOL    HW111597   2.484   0.798   5.788
 3677SOL    HW211598   2.382   0.762   5.910
 3678SOL     OW11599   3.143   0.345   6.530
 3678SOL    HW111600   3.057   0.295   6.517
 3678SOL    HW211601   3.205   0.291   6.586
 3679SOL     OW11602   3.438   1.662   5.893
 3679SOL    HW111603   3.527   1.708   5.896
 3679SOL    HW211604   3.417   1.638   5.798
 3680SOL     OW11605   2.669   0.605   7.051
 3680SOL    HW111606   2.622   0.602   7.140
 3680SOL    HW211607   2.618   0.550   6.985
 3681SOL     OW11608   3.256   0.469   7.260
 3681SOL    HW111609   3.236   0.512   7.348
 3681SOL    HW211610   3.334   0.407   7.269
 3682SOL     OW11611   2.835   0.890   7.158
 3682SOL    HW111612   2.881   0.806   7.129
 3682SOL    HW211613   2.779   0.924   7.083
 3683SOL     OW11614   2.853   0.410   6.828
 3683SOL    HW111615   2.776   0.444   6.882
 3683SOL    HW211616   2.819   0.359   6.749
 3684SOL     OW11617   2.903   0.701   6.015
 3684SOL    HW111618   2.929   0.697   6.111
 3684SOL    HW211619   2.818   0.650   6.001
 3685SOL     OW11620   1.938   0.811   6.375
 3685SOL    HW111621   2.037   0.799   6.384
 3685SOL    HW211622   1.914   0.906   6.396
 3686SOL     OW11623   1.992   1.821   7.157
 3686SOL    HW111624   1.982   1.806   7.256
 3686SOL    HW211625   1.906   1.857   7.121
 3687SOL     OW11626   2.727   0.348   5.781
 3687SOL    HW111627   2.786   0.411   5.732
 3687SOL    HW211628   2.746   0.254   5.752
 3688SOL     OW11629   3.581   0.585   7.417
 3688SOL    HW111630   3.555   0.674   7.381
 3688SOL    HW211631   3.579   0.517   7.344
 3689SOL     OW11632   3.224   1.144   6.131
 3689SOL    HW111633   3.307   1.115   6.083
 3689SOL    HW211634   3.175   1.211   6.075
 3690SOL     OW11635   2.412   0.196   6.471
 3690SOL    HW111636   2.407   0.191   6.571
 3690SOL    HW211637   2.414   0.292   6.442
 3691SOL     OW11638   2.870   1.456   6.063
 3691SOL    HW111639   2.824   1.528   6.011
 3691SOL    HW211640   2.866   1.476   6.161
 3692SOL     OW11641   3.657   1.066   6.459
 3692SOL    HW111642   3.595   1.051   6.383
 3692SOL    HW211643   3.605   1.077   6.544
 3693SOL     OW11644   3.089   1.550   7.092
 3693SOL    HW111645   3.095   1.473   7.156
 3693SOL    HW211646   3.037   1.524   7.012
 3694SOL     OW11647   2.183   0.943   5.828
 3694SOL    HW111648   2.265   0.982   5.786
 3694SOL    HW211649   2.156   0.861   5.779
 3695SOL     OW11650   3.320   0.735   6.314
 3695SOL    HW111651   3.315   0.670   6.389
 3695SOL    HW211652   3.400   0.794   6.327
 3696SOL     OW11653   2.323   1.266   7.313
 3696SOL    HW111654   2.273   1.267   7.227
 3696SOL    HW211655   2.260   1.248   7.389
 3697SOL     OW11656   2.973   1.776   5.823
 3697SOL    HW111657   2.913   1.714   5.873
 3697SOL    HW211658   3.004   1.732   5.738
 3698SOL     OW11659   2.064   0.285   7.084
 3698SOL    HW111660   1.984   0.345   7.071
 3698SOL    HW211661   2.054   0.236   7.170
 3699SOL     OW11662   3.494   1.377   5.667
 3699SOL    HW111663   3.462   1.471   5.657
 3699SOL    HW211664   3.418   1.314   5.655
 3700SOL     OW11665   3.262   0.107   6.012
 3700SOL    HW111666   3.238   0.070   5.922
 3700SOL    HW211667   3.361   0.123   6.016
 3701SOL     OW11668   2.111   1.785   6.827
 3701SOL    HW111669   2.168   1.720   6.877
 3701SOL    HW211670   2.095   1.752   6.734
 3702SOL     OW11671   2.244   0.700   6.066
 3702SOL    HW111672   2.289   0.610   6.063
 3702SOL    HW211673   2.150   0.689   6.099
 3703SOL     OW11674   3.409   0.222   7.315
 3703SOL    HW111675   3.404   0.259   7.407
 3703SOL    HW211676   3.337   0.153   7.303
 3704SOL     OW11677   2.476   0.122   5.703
 3704SOL    HW111678   2.574   0.100   5.710
 3704SOL    HW211679   2.445   0.105   5.610
 3705SOL     OW11680   2.643   0.264   7.335
 3705SOL    HW111681   2.710   0.203   7.378
 3705SOL    HW211682   2.570   0.283   7.400
 3706SOL     OW11683   2.750   1.514   6.781
 3706SOL    HW111684   2.727   1.489   6.687
 3706SOL    HW211685   2.811   1.445   6.820
 3707SOL     OW11686   3.213   0.590   7.019
 3707SOL    HW111687   3.241   0.547   7.104
 3707SOL    HW211688   3.238   0.686   7.020
 3708SOL     OW11689   2.665   1.402   6.510
 3708SOL    HW111690   2.755   1.416   6.468
 3708SOL    HW211691   2.594   1.404   6.439
 3709SOL     OW11692   2.784   0.503   6.485
 3709SOL    HW111693   2.759   0.494   6.389
 3709SOL    HW211694   2.832   0.421   6.516
 3710SOL     OW11695   2.401   0.064   6.098
 3710SOL    HW111696   2.320   0.065   6.156
 3710SOL    HW211697   2.404   0.147   6.043
 3711SOL     OW11698   3.296   1.188   5.627
 3711SOL    HW111699   3.328   1.112   5.684
 3711SOL    HW211700   3.204   1.215   5.657
 3712SOL     OW11701   2.159   0.035   5.757
 3712SOL    HW111702   2.208   0.119   5.736
 3712SOL    HW211703   2.221  -0.030   5.802
 3713SOL     OW11704   2.797   0.236   6.066
 3713SOL    HW111705   2.749   0.277   5.988
 3713SOL    HW211706   2.896   0.234   6.047
 3714SOL     OW11707   2.938   0.683   7.050
 3714SOL    HW111708   2.858   0.622   7.053
 3714SOL    HW211709   3.019   0.630   7.026
 3715SOL     OW11710   3.089   1.570   6.379
 3715SOL    HW111711   3.110   1.644   6.314
 3715SOL    HW211712   3.157   1.570   6.452
 3716SOL     OW11713   2.321   1.152   6.327
 3716SOL    HW111714   2.250   1.125   6.392
 3716SOL    HW211715   2.295   1.124   6.234
 3717SOL     OW11716   3.133   1.797   6.177
 3717SOL    HW111717   3.177   1.861   6.113
 3717SOL    HW211718   3.083   1.849   6.247
 3718SOL     OW11719   2.894   0.549   5.602
 3718SOL    HW111720   2.853   0.631   5.563
 3718SOL    HW211721   2.958   0.575   5.675
 3719SOL     OW11722   1.940   0.556   6.972
 3719SOL    HW111723   2.032   0.555   6.931
 3719SOL    HW211724   1.934   0.630   7.039
 3720SOL     OW11725   2.423   0.222   6.733
 3720SOL    HW111726   2.461   0.138   6.770
 3720SOL    HW211727   2.335   0.241   6.777
 3721SOL     OW11728   2.728   0.454   6.228
 3721SOL    HW111729   2.696   0.526   6.166
 3721SOL    HW211730   2.752   0.373   6.175
 3722SOL     OW11731   2.879   0.039   6.339
 3722SOL    HW111732   2.807   0.044   6.270
 3722SOL    HW211733   2.855  -0.030   6.408
 3723SOL     OW11734   3.291   1.173   6.453
 3723SOL    HW111735   3.236   1.089   6.446
 3723SOL    HW211736   3.317   1.202   6.361
 3724SOL     OW11737   3.328   0.590   6.578
 3724SOL    HW111738   3.298   0.495   6.585
 3724SOL    HW211739   3.401   0.606   6.644
 3725SOL     OW11740   3.719   0.833   5.963
 3725SOL    HW111741   3.761   0.769   6.027
 3725SOL    HW211742   3.681   0.782   5.885
 3726SOL     OW11743   2.350   1.385   5.760
 3726SOL    HW111744   2.263   1.370   5.807
 3726SOL    HW211745   2.333   1.411   5.665
 3727SOL     OW11746   3.526   1.280   6.243
 3727SOL    HW111747   3.625   1.288   6.257
 3727SOL    HW211748   3.481   1.364   6.274
 3728SOL     OW11749   3.252   0.575   5.664
 3728SOL    HW111750   3.198   0.554   5.745
 3728SOL    HW211751   3.343   0.534   5.673
 3729SOL     OW11752   2.389   0.256   5.914
 3729SOL    HW111753   2.416   0.197   5.839
 3729SOL    HW211754   2.389   0.351   5.883
 3730SOL     OW11755   3.616   1.223   7.174
 3730SOL    HW111756   3.707   1.184   7.161
 3730SOL    HW211757   3.624   1.319   7.198
 3731SOL     OW11758   2.926   1.347   6.926
 3731SOL    HW111759   2.846   1.324   6.981
 3731SOL    HW211760   3.009   1.321   6.975
 3732SOL     OW11761   3.454   1.629   7.211
 3732SOL    HW111762   3.481   1.663   7.121
 3732SOL    HW211763   3.533   1.591   7.257
 3733SOL     OW11764   2.973   1.195   6.686
 3733SOL    HW111765   2.933   1.239   6.767
 3733SOL    HW211766   2.932   1.232   6.603
 3734SOL     OW11767   3.500   1.099   6.665
 3734SOL    HW111768   3.505   1.180   6.724
 3734SOL    HW211769   3.414   1.101   6.614
 3735SOL     OW11770   2.777   0.089   6.988
 3735SOL    HW111771   2.802   0.069   6.893
 3735SOL    HW211772   2.849   0.145   7.030
 3736SOL     OW11773   2.842   1.116   7.305
 3736SOL    HW111774   2.743   1.122   7.315
 3736SOL    HW211775   2.865   1.036   7.249
 3737SOL     OW11776   2.567   1.050   5.954
 3737SOL    HW111777   2.553   1.057   6.053
 3737SOL    HW211778   2.651   0.999   5.936
 3738SOL     OW11779   2.272   0.813   6.837
 3738SOL    HW111780   2.358   0.825   6.887
 3738SOL    HW211781   2.230   0.726   6.864
 3739SOL     OW11782   3.136   0.386   6.848
 3739SOL    HW111783   3.157   0.460   6.912
 3739SOL    HW211784   3.047   0.403   6.805
 3740SOL     OW11785   1.926   1.564   6.917
 3740SOL    HW111786   1.880   1.646   6.883
 3740SOL    HW211787   2.024   1.583   6.926
 3741SOL     OW11788   2.229   1.100   6.087
 3741SOL    HW111789   2.222   1.183   6.031
 3741SOL    HW211790   2.233   1.020   6.027
 3742SOL     OW11791   2.428   0.537   6.451
 3742SOL    HW111792   2.440   0.603   6.377
 3742SOL    HW211793   2.474   0.571   6.534
 3743SOL     OW11794   3.114   1.348   5.974
 3743SOL    HW111795   3.164   1.425   6.014
 3743SOL    HW211796   3.019   1.350   6.006
 3744SOL     OW11797   3.134   1.445   6.728
 3744SOL    HW111798   3.181   1.458   6.815
 3744SOL    HW211799   3.068   1.371   6.737
 3745SOL     OW11800   3.444   0.639   6.058
 3745SOL    HW111801   3.413   0.700   6.131
 3745SOL    HW211802   3.494   0.691   5.989
 3746SOL     OW11803   2.216   1.510   6.915
 3746SOL    HW111804   2.195   1.466   6.828
 3746SOL    HW211805   2.313   1.536   6.918
 3747SOL     OW11806   2.264   0.751   7.184
 3747SOL    HW111807   2.332   0.806   7.137
 3747SOL    HW211808   2.304   0.663   7.211
 3748SOL     OW11809   3.449   0.779   7.256
 3748SOL    HW111810   3.357   0.817   7.251
 3748SOL    HW211811   3.509   0.826   7.191
 3749SOL     OW11812   2.875   0.105   7.356
 3749SOL    HW111813   2.881   0.190   7.304
 3749SOL    HW211814   2.907   0.029   7.299
 3750SOL     OW11815   2.366   0.050   7.326
 3750SOL    HW111816   2.324  -0.007   7.256
 3750SOL    HW211817   2.300   0.119   7.358
 3751SOL     OW11818   2.435   0.870   6.615
 3751SOL    HW111819   2.479   0.959   6.606
 3751SOL    HW211820   2.372   0.870   6.692
 3752SOL     OW11821   3.222   0.862   6.631
 3752SOL    HW111822   3.147   0.862   6.565
 3752SOL    HW211823   3.259   0.770   6.640
 3753SOL     OW11824   3.071   0.525   5.861
 3753SOL    HW111825   3.084   0.441   5.915
 3753SOL    HW211826   3.042   0.599   5.921
 3754SOL     OW11827   2.169   0.213   6.817
 3754SOL    HW111828   2.146   0.250   6.907
 3754SOL    HW211829   2.139   0.118   6.811
 3755SOL     OW11830   1.899   1.310   6.868
 3755SOL    HW111831   1.952   1.261   6.936
 3755SOL    HW211832   1.921   1.408   6.873
 3756SOL     OW11833   2.594   0.634   6.650
 3756SOL    HW111834   2.653   0.608   6.574
 3756SOL    HW211835   2.566   0.730   6.639
 3757SOL     OW11836   3.590   0.935   7.440
 3757SOL    HW111837   3.544   0.928   7.351
 3757SOL    HW211838   3.528   0.979   7.506
 3758SOL     OW11839   2.169   0.063   6.204
 3758SOL    HW111840   2.158   0.157   6.237
 3758SOL    HW211841   2.164   0.000   6.281
 3759SOL     OW11842   3.484   0.367   5.960
 3759SOL    HW111843   3.486   0.291   6.024
 3759SOL    HW211844   3.436   0.444   6.000
 3760SOL     OW11845   2.885   0.766   6.552
 3760SOL    HW111846   2.900   0.787   6.648
 3760SOL    HW211847   2.855   0.671   6.543
 3761SOL     OW11848   2.842   1.573   7.286
 3761SOL    HW111849   2.822   1.617   7.198
 3761SOL    HW211850   2.881   1.482   7.270
 3762SOL     OW11851   3.721   1.518   7.191
 3762SOL    HW111852   3.735   1.545   7.096
 3762SOL    HW211853   3.804   1.540   7.244
 3763SOL     OW11854   2.212   0.898   7.390
 3763SOL    HW111855   2.288   0.942   7.438
 3763SOL    HW211856   2.247   0.851   7.308
 3764SOL     OW11857   3.402   0.274   5.711
 3764SOL    HW111858   3.341   0.199   5.734
 3764SOL    HW211859   3.424   0.326   5.794
 3765SOL     OW11860   3.165   0.838   5.628
 3765SOL    HW111861   3.199   0.745   5.643
 3765SOL    HW211862   3.183   0.865   5.533
 3766SOL     OW11863   2.930   1.333   6.435
 3766SOL    HW111864   2.937   1.249   6.380
 3766SOL    HW211865   2.992   1.402   6.399
 3767SOL     OW11866   2.181   0.810   6.535
 3767SOL    HW111867   2.274   0.846   6.540
 3767SOL    HW211868   2.175   0.725   6.587
 3768SOL     OW11869   2.201   0.509   6.592
 3768SOL    HW111870   2.149   0.426   6.575
 3768SOL    HW211871   2.278   0.514   6.528
 3769SOL     OW11872   3.000   0.380   7.264
 3769SOL    HW111873   2.955   0.443   7.328
 3769SOL    HW211874   3.093   0.411   7.247
 3770SOL     OW11875   3.022   0.207   7.063
 3770SOL    HW111876   3.022   0.271   7.140
 3770SOL    HW211877   3.050   0.255   6.980
 3771SOL     OW11878   1.870   1.326   5.786
 3771SOL    HW111879   1.777   1.347   5.755
 3771SOL    HW211880   1.880   1.227   5.799
 3772SOL     OW11881   1.950   1.801   6.513
 3772SOL    HW111882   1.908   1.715   6.486
 3772SOL    HW211883   2.044   1.804   6.479
 3773SOL     OW11884   2.366   1.568   6.496
 3773SOL    HW111885   2.432   1.642   6.505
 3773SOL    HW211886   2.410   1.489   6.454
 3774SOL     OW11887   2.864   0.796   6.824
 3774SOL    HW111888   2.905   0.764   6.910
 3774SOL    HW211889   2.768   0.769   6.821
 3775SOL     OW11890   1.902   0.544   6.700
 3775SOL    HW111891   1.987   0.511   6.659
 3775SOL    HW211892   1.915   0.559   6.798
 3776SOL     OW11893   2.051   0.520   7.308
 3776SOL    HW111894   2.110   0.480   7.238
 3776SOL    HW211895   1.993   0.591   7.267
 3777SOL     OW11896   3.231   0.950   7.246
 3777SOL    HW111897   3.270   1.039   7.266
 3777SOL    HW211898   3.241   0.930   7.149
 3778SOL     OW11899   2.677   0.572   5.911
 3778SOL    HW111900   2.684   0.483   5.865
 3778SOL    HW211901   2.583   0.606   5.903
 3779SOL     OW11902   3.519   0.604   6.792
 3779SOL    HW111903   3.481   0.535   6.854
 3779SOL    HW211904   3.601   0.568   6.748
 3780SOL     OW11905   2.114   1.564   7.330
 3780SOL    HW111906   2.084   1.621   7.406
 3780SOL    HW211907   2.107   1.467   7.356
 3781SOL     OW11908   2.533   0.464   6.855
 3781SOL    HW111909   2.499   0.375   6.825
 3781SOL    HW211910   2.559   0.518   6.775
 3782SOL     OW11911   2.792   1.678   7.051
 3782SOL    HW111912   2.768   1.660   6.956
 3782SOL    HW211913   2.822   1.772   7.061
 3783SOL     OW11914   2.335   0.500   5.777
 3783SOL    HW111915   2.396   0.580   5.781
 3783SOL    HW211916   2.240   0.531   5.784
 3784SOL     OW11917   2.021   1.137   7.052
 3784SOL    HW111918   2.043   1.076   7.128
 3784SOL    HW211919   2.031   1.088   6.966
 3785SOL     OW11920   3.209   1.059   6.820
 3785SOL    HW111921   3.233   0.996   6.746
 3785SOL    HW211922   3.119   1.099   6.802
 3786SOL     OW11923   3.164   0.855   5.895
 3786SOL    HW111924   3.078   0.824   5.937
 3786SOL    HW211925   3.160   0.841   5.796
 3787SOL     OW11926   3.621   1.747   6.740
 3787SOL    HW111927   3.682   1.777   6.667
 3787SOL    HW211928   3.583   1.658   6.718
 3788SOL     OW11929   3.114   1.731   6.714
 3788SOL    HW111930   3.198   1.736   6.660
 3788SOL    HW211931   3.091   1.635   6.732
 3789SOL     OW11932   1.945   1.258   6.608
 3789SOL    HW111933   1.940   1.257   6.708
 3789SOL    HW211934   1.862   1.217   6.570
 3790SOL     OW11935   2.550   1.662   7.302
 3790SOL    HW111936   2.494   1.743   7.311
 3790SOL    HW211937   2.602   1.666   7.216
 3791SOL     OW11938   3.588   0.135   6.109
 3791SOL    HW111939   3.661   0.118   6.042
 3791SOL    HW211940   3.557   0.048   6.147
 3792SOL     OW11941   3.250   1.573   6.063
 3792SOL    HW111942   3.317   1.585   5.989
 3792SOL    HW211943   3.210   1.662   6.086
 3793SOL     OW11944   1.992   1.794   7.437
 3793SOL    HW111945   1.951   1.720   7.490
 3793SOL    HW211946   2.056   1.845   7.495
 3794SOL     OW11947   3.142   0.927   6.258
 3794SOL    HW111948   3.202   0.846   6.260
 3794SOL    HW211949   3.182   0.996   6.198
 3795SOL     OW11950   2.692   1.273   7.008
 3795SOL    HW111951   2.687   1.306   7.103
 3795SOL    HW211952   2.606   1.292   6.962
 3796SOL     OW11953   3.512   1.720   6.980
 3796SOL    HW111954   3.565   1.730   6.896
 3796SOL    HW211955   3.485   1.810   7.014
 3797SOL     OW11956   3.703   0.175   6.549
 3797SOL    HW111957   3.742   0.090   6.513
 3797SOL    HW211958   3.605   0.177   6.530
 3798SOL     OW11959   2.125   0.326   6.306
 3798SOL    HW111960   2.046   0.377   6.272
 3798SOL    HW211961   2.116   0.311   6.404
 3799SOL     OW11962   3.056   1.612   5.617
 3799SOL    HW111963   3.062   1.519   5.654
 3799SOL    HW211964   2.997   1.612   5.537
 3800SOL     OW11965   2.684   1.002   6.958
 3800SOL    HW111966   2.724   1.001   6.866
 3800SOL    HW211967   2.694   1.094   6.998
 3801SOL     OW11968   2.778   0.910   5.877
 3801SOL    HW111969   2.841   0.948   5.809
 3801SOL    HW211970   2.818   0.827   5.916
 3802SOL     OW11971   3.366   1.607   5.630
 3802SOL    HW111972   3.274   1.644   5.637
 3802SOL    HW211973   3.404   1.627   5.540
 3803SOL     OW11974   2.234   1.288   7.076
 3803SOL    HW111975   2.221   1.381   7.042
 3803SOL    HW211976   2.150   1.236   7.063
 3804SOL     OW11977   3.476   1.292   6.875
 3804SOL    HW111978   3.536   1.295   6.955
 3804SOL    HW211979   3.401   1.356   6.888
 3805SOL     OW11980   2.901   1.098   6.282
 3805SOL    HW111981   2.831   1.051   6.336
 3805SOL    HW211982   2.960   1.030   6.239
 3806SOL     OW11983   2.876   0.236   6.557
 3806SOL    HW111984   2.868   0.200   6.464
 3806SOL    HW211985   2.874   0.160   6.622
 3807SOL     OW11986   3.571   0.385   6.967
 3807SOL    HW111987   3.644   0.454   6.971
 3807SOL    HW211988   3.599   0.310   6.908
 3808SOL     OW11989   2.117   1.348   5.876
 3808SOL    HW111990   2.021   1.349   5.849
 3808SOL    HW211991   2.129   1.401   5.960
 3809SOL     OW11992   1.967   1.013   7.312
 3809SOL    HW111993   1.890   0.980   7.366
 3809SOL    HW211994   2.052   0.983   7.354
 3810SOL     OW11995   2.534   0.203   7.075
 3810SOL    HW111996   2.624   0.187   7.035
 3810SOL    HW211997   2.542   0.208   7.174
 3811SOL     OW11998   1.937   0.345   5.619
 3811SOL    HW111999   1.845   0.317   5.590
 3811SOL    HW212000   1.968   0.422   5.563
 3812SOL     OW12001   3.302   0.856   6.984
 3812SOL    HW112002   3.245   0.908   6.921
 3812SOL    HW212003   3.398   0.868   6.960
 3813SOL     OW12004   1.934   0.166   5.904
 3813SOL    HW112005   1.917   0.249   5.850
 3813SOL    HW212006   2.024   0.129   5.882
 3814SOL     OW12007   3.045   1.335   5.705
 3814SOL    HW112008   2.946   1.324   5.707
 3814SOL    HW212009   3.079   1.350   5.798
 3815SOL     OW12010   2.475   0.842   7.017
 3815SOL    HW112011   2.531   0.923   7.000
 3815SOL    HW212012   2.534   0.762   7.020
 3816SOL     OW12013   3.355   1.767   6.545
 3816SOL    HW112014   3.388   1.831   6.476
 3816SOL    HW212015   3.421   1.761   6.620
 3817SOL     OW12016   2.578   0.565   7.294
 3817SOL    HW112017   2.597   0.630   7.368
 3817SOL    HW212018   2.638   0.485   7.303
 3818SOL     OW12019   3.312   1.220   7.219
 3818SOL    HW112020   3.303   1.210   7.318
 3818SOL    HW212021   3.408   1.213   7.193
 3819SOL     OW12022   2.252   1.741   7.146
 3819SOL    HW112023   2.161   1.782   7.144
 3819SOL    HW212024   2.245   1.647   7.178
 3820SOL     OW12025   3.536   0.883   6.840
 3820SOL    HW112026   3.509   0.794   6.803
 3820SOL    HW212027   3.537   0.951   6.767
 3821SOL     OW12028   3.087   0.325   6.035
 3821SOL    HW112029   3.152   0.251   6.024
 3821SOL    HW212030   3.107   0.375   6.119
 3822SOL     OW12031   2.456   0.745   6.238
 3822SOL    HW112032   2.506   0.830   6.219
 3822SOL    HW212033   2.368   0.747   6.190
 3823SOL     OW12034   3.639   0.342   7.228
 3823SOL    HW112035   3.622   0.373   7.134
 3823SOL    HW212036   3.555   0.305   7.266
 3824SOL     OW12037   3.592   0.934   7.103
 3824SOL    HW112038   3.630   1.025   7.118
 3824SOL    HW212039   3.584   0.917   7.004
 3825SOL     OW12040   2.721   1.374   5.602
 3825SOL    HW112041   2.675   1.389   5.690
 3825SOL    HW212042   2.765   1.459   5.572
 3826SOL     OW12043   2.721   0.956   6.447
 3826SOL    HW112044   2.775   0.887   6.495
 3826SOL    HW212045   2.689   1.025   6.513
 3827SOL     OW12046   2.945   0.984   5.673
 3827SOL    HW112047   2.922   1.037   5.591
 3827SOL    HW212048   3.026   0.928   5.654
 3828SOL     OW12049   3.723   1.569   6.437
 3828SOL    HW112050   3.652   1.557   6.367
 3828SOL    HW212051   3.724   1.490   6.497
 3829SOL     OW12052   2.083   1.314   7.430
 3829SOL    HW112053   2.018   1.241   7.409
 3829SOL    HW212054   2.087   1.328   7.528
 3830SOL     OW12055   1.941   1.240   6.239
 3830SOL    HW112056   1.940   1.193   6.327
 3830SOL    HW212057   2.023   1.212   6.188
 3831SOL     OW12058   2.534   1.391   7.210
 3831SOL    HW112059   2.456   1.341   7.248
 3831SOL    HW212060   2.531   1.486   7.241
 3832SOL     OW12061   3.686   0.192   6.813
 3832SOL    HW112062   3.682   0.102   6.857
 3832SOL    HW212063   3.689   0.181   6.714
 3833SOL     OW12064   2.290   0.424   6.106
 3833SOL    HW112065   2.320   0.352   6.044
 3833SOL    HW212066   2.251   0.384   6.189
 3834SOL     OW12067   3.567   1.487   6.690
 3834SOL    HW112068   3.474   1.462   6.663
 3834SOL    HW212069   3.593   1.437   6.772
 3835SOL     OW12070   2.179   0.547   6.866
 3835SOL    HW112071   2.217   0.488   6.938
 3835SOL    HW212072   2.219   0.521   6.778
 3836SOL     OW12073   2.674   1.586   6.273
 3836SOL    HW112074   2.706   1.596   6.179
 3836SOL    HW212075   2.595   1.524   6.275
 3837SOL     OW12076   3.286   0.214   6.698
 3837SOL    HW112077   3.338   0.149   6.753
 3837SOL    HW212078   3.237   0.277   6.759
 3838SOL     OW12079   2.863   0.034   6.740
 3838SOL    HW112080   2.800  -0.038   6.709
 3838SOL    HW212081   2.956  -0.002   6.740
 3839SOL     OW12082   2.632   1.330   5.887
 3839SOL    HW112083   2.586   1.243   5.904
 3839SOL    HW212084   2.723   1.327   5.928
 3840SOL     OW12085   2.480   1.567   6.870
 3840SOL    HW112086   2.475   1.649   6.927
 3840SOL    HW212087   2.569   1.564   6.825
 3841SOL     OW12088   3.214   0.052   5.754
 3841SOL    HW112089   3.249   0.011   5.670
 3841SOL    HW212090   3.124   0.014   5.774
 3842SOL     OW12091   3.162   0.453   6.277
 3842SOL    HW112092   3.103   0.533   6.281
 3842SOL    HW212093   3.177   0.418   6.370
 3843SOL     OW12094   3.455   0.221   6.468
 3843SOL    HW112095   3.371   0.220   6.522
 3843SOL    HW212096   3.457   0.304   6.412
 3844SOL     OW12097   1.901   1.077   5.886
 3844SOL    HW112098   2.000   1.066   5.877
 3844SOL    HW212099   1.861   0.991   5.918
 3845SOL     OW12100   2.092   0.628   7.561
 3845SOL    HW112101   1.999   0.626   7.598
 3845SOL    HW212102   2.093   0.589   7.469
 3846SOL     OW12103   2.087   0.275   8.444
 3846SOL    HW112104   2.122   0.258   8.536
 3846SOL    HW212105   1.999   0.230   8.432
 3847SOL     OW12106   1.881   0.368   8.095
 3847SOL    HW112107   1.799   0.411   8.134
 3847SOL    HW212108   1.853   0.295   8.032
 3848SOL     OW12109   2.431   1.275   8.613
 3848SOL    HW112110   2.338   1.268   8.576
 3848SOL    HW212111   2.442   1.364   8.657
 3849SOL     OW12112   3.417   1.511   8.151
 3849SOL    HW112113   3.360   1.495   8.232
 3849SOL    HW212114   3.358   1.521   8.071
 3850SOL     OW12115   2.997   0.703   8.165
 3850SOL    HW112116   3.054   0.781   8.140
 3850SOL    HW212117   2.937   0.729   8.241
 3851SOL     OW12118   3.617   0.607   7.679
 3851SOL    HW112119   3.605   0.594   7.580
 3851SOL    HW212120   3.587   0.526   7.728
 3852SOL     OW12121   2.630   1.144   8.471
 3852SOL    HW112122   2.552   1.161   8.531
 3852SOL    HW212123   2.664   1.231   8.435
 3853SOL     OW12124   2.712   0.798   9.271
 3853SOL    HW112125   2.708   0.874   9.336
 3853SOL    HW212126   2.734   0.834   9.180
 3854SOL     OW12127   2.547   1.012   8.113
 3854SOL    HW112128   2.616   0.996   8.183
 3854SOL    HW212129   2.474   1.069   8.151
 3855SOL     OW12130   2.548   1.161   9.251
 3855SOL    HW112131   2.608   1.240   9.265
 3855SOL    HW212132   2.462   1.192   9.210
 3856SOL     OW12133   2.197   1.435   8.509
 3856SOL    HW112134   2.119   1.404   8.456
 3856SOL    HW212135   2.255   1.493   8.452
 3857SOL     OW12136   3.322   1.505   8.787
 3857SOL    HW112137   3.346   1.599   8.813
 3857SOL    HW212138   3.306   1.451   8.869
 3858SOL     OW12139   2.300   0.392   8.947
 3858SOL    HW112140   2.382   0.336   8.956
 3858SOL    HW212141   2.219   0.334   8.951
 3859SOL     OW12142   3.465   0.447   8.185
 3859SOL    HW112143   3.391   0.493   8.135
 3859SOL    HW212144   3.516   0.515   8.238
 3860SOL     OW12145   2.093   1.713   7.931
 3860SOL    HW112146   2.127   1.790   7.985
 3860SOL    HW212147   2.137   1.713   7.841
 3861SOL     OW12148   2.989   1.341   9.138
 3861SOL    HW112149   3.036   1.341   9.226
 3861SOL    HW212150   2.941   1.254   9.127
 3862SOL     OW12151   2.092   1.434   7.986
 3862SOL    HW112152   2.066   1.530   7.986
 3862SOL    HW212153   2.021   1.380   8.031
 3863SOL     OW12154   2.102   1.091   8.334
 3863SOL    HW112155   2.116   1.007   8.386
 3863SOL    HW212156   2.047   1.155   8.389
 3864SOL     OW12157   2.482   1.786   8.887
 3864SOL    HW112158   2.390   1.769   8.922
 3864SOL    HW212159   2.510   1.878   8.913
 3865SOL     OW12160   2.468   0.964   7.571
 3865SOL    HW112161   2.475   1.048   7.517
 3865SOL    HW212162   2.514   0.977   7.659
 3866SOL     OW12163   3.456   0.114   8.928
 3866SOL    HW112164   3.438   0.181   8.856
 3866SOL    HW212165   3.453   0.160   9.017
 3867SOL     OW12166   1.984   0.643   8.011
 3867SOL    HW112167   1.939   0.555   8.028
 3867SOL    HW212168   1.983   0.697   8.095
 3868SOL     OW12169   3.704   1.767   7.807
 3868SOL    HW112170   3.758   1.738   7.887
 3868SOL    HW212171   3.734   1.857   7.778
 3869SOL     OW12172   1.889   1.596   7.565
 3869SOL    HW112173   1.870   1.500   7.586
 3869SOL    HW212174   1.856   1.654   7.640
 3870SOL     OW12175   3.551   0.922   8.060
 3870SOL    HW112176   3.646   0.893   8.068
 3870SOL    HW212177   3.543   0.987   7.985
 3871SOL     OW12178   3.503   1.108   7.880
 3871SOL    HW112179   3.589   1.110   7.828
 3871SOL    HW212180   3.517   1.155   7.968
 3872SOL     OW12181   1.975   0.737   9.045
 3872SOL    HW112182   2.063   0.724   9.090
 3872SOL    HW212183   1.962   0.834   9.023
 3873SOL     OW12184   2.475   1.365   8.174
 3873SOL    HW112185   2.426   1.278   8.183
 3873SOL    HW212186   2.452   1.408   8.087
 3874SOL     OW12187   3.155   1.228   8.871
 3874SOL    HW112188   3.192   1.155   8.813
 3874SOL    HW212189   3.207   1.233   8.956
 3875SOL     OW12190   2.671   0.004   7.950
 3875SOL    HW112191   2.711   0.095   7.941
 3875SOL    HW212192   2.571   0.012   7.956
 3876SOL     OW12193   2.059   0.976   8.712
 3876SOL    HW112194   2.148   0.931   8.698
 3876SOL    HW212195   1.986   0.911   8.693
 3877SOL     OW12196   3.387   0.999   7.638
 3877SOL    HW112197   3.324   0.923   7.651
 3877SOL    HW212198   3.435   1.017   7.724
 3878SOL     OW12199   3.049   1.792   9.064
 3878SOL    HW112200   3.073   1.852   8.988
 3878SOL    HW212201   3.056   1.697   9.034
 3879SOL     OW12202   2.179   0.251   9.249
 3879SOL    HW112203   2.250   0.322   9.255
 3879SOL    HW212204   2.091   0.290   9.277
 3880SOL     OW12205   3.328   1.417   8.401
 3880SOL    HW112206   3.269   1.423   8.481
 3880SOL    HW212207   3.313   1.329   8.355
 3881SOL     OW12208   3.529   1.714   8.020
 3881SOL    HW112209   3.488   1.691   7.932
 3881SOL    HW212210   3.511   1.640   8.085
 3882SOL     OW12211   2.460   0.729   7.718
 3882SOL    HW112212   2.484   0.798   7.650
 3882SOL    HW212213   2.382   0.762   7.772
 3883SOL     OW12214   3.143   0.345   8.392
 3883SOL    HW112215   3.057   0.295   8.379
 3883SOL    HW212216   3.205   0.291   8.448
 3884SOL     OW12217   3.438   1.662   7.755
 3884SOL    HW112218   3.527   1.708   7.758
 3884SOL    HW212219   3.417   1.638   7.660
 3885SOL     OW12220   2.669   0.605   8.913
 3885SOL    HW112221   2.622   0.602   9.002
 3885SOL    HW212222   2.618   0.550   8.847
 3886SOL     OW12223   3.256   0.469   9.122
 3886SOL    HW112224   3.236   0.512   9.210
 3886SOL    HW212225   3.334   0.407   9.131
 3887SOL     OW12226   2.835   0.890   9.020
 3887SOL    HW112227   2.881   0.806   8.991
 3887SOL    HW212228   2.779   0.924   8.945
 3888SOL     OW12229   2.853   0.410   8.690
 3888SOL    HW112230   2.776   0.444   8.744
 3888SOL    HW212231   2.819   0.359   8.611
 3889SOL     OW12232   2.903   0.701   7.877
 3889SOL    HW112233   2.929   0.697   7.973
 3889SOL    HW212234   2.818   0.650   7.863
 3890SOL     OW12235   1.938   0.811   8.237
 3890SOL    HW112236   2.037   0.799   8.246
 3890SOL    HW212237   1.914   0.906   8.258
 3891SOL     OW12238   1.992   1.821   9.019
 3891SOL    HW112239   1.982   1.806   9.118
 3891SOL    HW212240   1.906   1.857   8.983
 3892SOL     OW12241   2.727   0.348   7.643
 3892SOL    HW112242   2.786   0.411   7.594
 3892SOL    HW212243   2.746   0.254   7.614
 3893SOL     OW12244   3.581   0.585   9.279
 3893SOL    HW112245   3.555   0.674   9.243
 3893SOL    HW212246   3.579   0.517   9.206
 3894SOL     OW12247   3.224   1.144   7.993
 3894SOL    HW112248   3.307   1.115   7.945
 3894SOL    HW212249   3.175   1.211   7.937
 3895SOL     OW12250   2.412   0.196   8.333
 3895SOL    HW112251   2.407   0.191   8.433
 3895SOL    HW212252   2.414   0.292   8.304
 3896SOL     OW12253   2.870   1.456   7.925
 3896SOL    HW112254   2.824   1.528   7.873
 3896SOL    HW212255   2.866   1.476   8.023
 3897SOL     OW12256   2.213   1.801   8.301
 3897SOL    HW112257   2.263   1.715   8.307
 3897SOL    HW212258   2.278   1.878   8.298
 3898SOL     OW12259   3.657   1.066   8.321
 3898SOL    HW112260   3.595   1.051   8.245
 3898SOL    HW212261   3.605   1.077   8.406
 3899SOL     OW12262   3.089   1.550   8.954
 3899SOL    HW112263   3.095   1.473   9.018
 3899SOL    HW212264   3.037   1.524   8.874
 3900SOL     OW12265   2.183   0.943   7.690
 3900SOL    HW112266   2.265   0.982   7.648
 3900SOL    HW212267   2.156   0.861   7.641
 3901SOL     OW12268   3.320   0.735   8.176
 3901SOL    HW112269   3.315   0.670   8.251
 3901SOL    HW212270   3.400   0.794   8.189
 3902SOL     OW12271   2.323   1.266   9.175
 3902SOL    HW112272   2.273   1.267   9.089
 3902SOL    HW212273   2.260   1.248   9.251
 3903SOL     OW12274   2.973   1.776   7.685
 3903SOL    HW112275   2.913   1.714   7.735
 3903SOL    HW212276   3.004   1.732   7.600
 3904SOL     OW12277   2.064   0.285   8.946
 3904SOL    HW112278   1.984   0.345   8.933
 3904SOL    HW212279   2.054   0.236   9.032
 3905SOL     OW12280   3.494   1.377   7.529
 3905SOL    HW112281   3.462   1.471   7.519
 3905SOL    HW212282   3.418   1.314   7.517
 3906SOL     OW12283   2.326   1.743   7.771
 3906SOL    HW112284   2.359   1.782   7.857
 3906SOL    HW212285   2.402   1.736   7.706
 3907SOL     OW12286   3.262   0.107   7.874
 3907SOL    HW112287   3.238   0.070   7.784
 3907SOL    HW212288   3.361   0.123   7.878
 3908SOL     OW12289   2.111   1.785   8.689
 3908SOL    HW112290   2.168   1.720   8.739
 3908SOL    HW212291   2.095   1.752   8.596
 3909SOL     OW12292   2.802   1.698   8.352
 3909SOL    HW112293   2.882   1.641   8.373
 3909SOL    HW212294   2.753   1.658   8.275
 3910SOL     OW12295   2.244   0.700   7.928
 3910SOL    HW112296   2.289   0.610   7.925
 3910SOL    HW212297   2.150   0.689   7.961
 3911SOL     OW12298   3.409   0.222   9.177
 3911SOL    HW112299   3.404   0.259   9.269
 3911SOL    HW212300   3.337   0.153   9.165
 3912SOL     OW12301   2.476   0.122   7.565
 3912SOL    HW112302   2.574   0.100   7.572
 3912SOL    HW212303   2.445   0.105   7.472
 3913SOL     OW12304   2.643   0.264   9.197
 3913SOL    HW112305   2.710   0.203   9.240
 3913SOL    HW212306   2.570   0.283   9.262
 3914SOL     OW12307   2.750   1.514   8.643
 3914SOL    HW112308   2.727   1.489   8.549
 3914SOL    HW212309   2.811   1.445   8.682
 3915SOL     OW12310   3.213   0.590   8.881
 3915SOL    HW112311   3.241   0.547   8.966
 3915SOL    HW212312   3.238   0.686   8.882
 3916SOL     OW12313   2.665   1.402   8.372
 3916SOL    HW112314   2.755   1.416   8.330
 3916SOL    HW212315   2.594   1.404   8.301
 3917SOL     OW12316   2.784   0.503   8.347
 3917SOL    HW112317   2.759   0.494   8.251
 3917SOL    HW212318   2.832   0.421   8.378
 3918SOL     OW12319   2.401   0.064   7.960
 3918SOL    HW112320   2.320   0.065   8.018
 3918SOL    HW212321   2.404   0.147   7.905
 3919SOL     OW12322   3.296   1.188   7.489
 3919SOL    HW112323   3.328   1.112   7.546
 3919SOL    HW212324   3.204   1.215   7.519
 3920SOL     OW12325   2.159   0.035   7.619
 3920SOL    HW112326   2.208   0.119   7.598
 3920SOL    HW212327   2.221  -0.030   7.664
 3921SOL     OW12328   2.797   0.236   7.928
 3921SOL    HW112329   2.749   0.277   7.850
 3921SOL    HW212330   2.896   0.234   7.909
 3922SOL     OW12331   2.938   0.683   8.912
 3922SOL    HW112332   2.858   0.622   8.915
 3922SOL    HW212333   3.019   0.630   8.888
 3923SOL     OW12334   3.089   1.570   8.241
 3923SOL    HW112335   3.110   1.644   8.176
 3923SOL    HW212336   3.157   1.570   8.314
 3924SOL     OW12337   2.321   1.152   8.189
 3924SOL    HW112338   2.250   1.125   8.254
 3924SOL    HW212339   2.295   1.124   8.096
 3925SOL     OW12340   3.133   1.797   8.039
 3925SOL    HW112341   3.177   1.861   7.975
 3925SOL    HW212342   3.083   1.849   8.109
 3926SOL     OW12343   2.894   0.549   7.464
 3926SOL    HW112344   2.853   0.631   7.425
 3926SOL    HW212345   2.958   0.575   7.537
 3927SOL     OW12346   1.940   0.556   8.834
 3927SOL    HW112347   2.032   0.555   8.793
 3927SOL    HW212348   1.934   0.630   8.901
 3928SOL     OW12349   2.423   0.222   8.595
 3928SOL    HW112350   2.461   0.138   8.632
 3928SOL    HW212351   2.335   0.241   8.639
 3929SOL     OW12352   2.728   0.454   8.090
 3929SOL    HW112353   2.696   0.526   8.028
 3929SOL    HW212354   2.752   0.373   8.037
 3930SOL     OW12355   2.879   0.039   8.201
 3930SOL    HW112356   2.807   0.044   8.132
 3930SOL    HW212357   2.855  -0.030   8.270
 3931SOL     OW12358   3.291   1.173   8.315
 3931SOL    HW112359   3.236   1.089   8.308
 3931SOL    HW212360   3.317   1.202   8.223
 3932SOL     OW12361   3.328   0.590   8.440
 3932SOL    HW112362   3.298   0.495   8.447
 3932SOL    HW212363   3.401   0.606   8.506
 3933SOL     OW12364   3.719   0.833   7.825
 3933SOL    HW112365   3.761   0.769   7.889
 3933SOL    HW212366   3.681   0.782   7.747
 3934SOL     OW12367   2.350   1.385   7.622
 3934SOL    HW112368   2.263   1.370   7.669
 3934SOL    HW212369   2.333   1.411   7.527
 3935SOL     OW12370   3.526   1.280   8.105
 3935SOL    HW112371   3.625   1.288   8.119
 3935SOL    HW212372   3.481   1.364   8.136
 3936SOL     OW12373   3.252   0.575   7.526
 3936SOL    HW112374   3.198   0.554   7.607
 3936SOL    HW212375   3.343   0.534   7.535
 3937SOL     OW12376   2.389   0.256   7.776
 3937SOL    HW112377   2.416   0.197   7.701
 3937SOL    HW212378   2.389   0.351   7.745
 3938SOL     OW12379   3.616   1.223   9.036
 3938SOL    HW112380   3.707   1.184   9.023
 3938SOL    HW212381   3.624   1.319   9.060
 3939SOL     OW12382   2.926   1.347   8.788
 3939SOL    HW112383   2.846   1.324   8.843
 3939SOL    HW212384   3.009   1.321   8.837
 3940SOL     OW12385   3.454   1.629   9.073
 3940SOL    HW112386   3.481   1.663   8.983
 3940SOL    HW212387   3.533   1.591   9.119
 3941SOL     OW12388   2.973   1.195   8.548
 3941SOL    HW112389   2.933   1.239   8.629
 3941SOL    HW212390   2.932   1.232   8.465
 3942SOL     OW12391   3.500   1.099   8.527
 3942SOL    HW112392   3.505   1.180   8.586
 3942SOL    HW212393   3.414   1.101   8.476
 3943SOL     OW12394   2.777   0.089   8.850
 3943SOL    HW112395   2.802   0.069   8.755
 3943SOL    HW212396   2.849   0.145   8.892
 3944SOL     OW12397   2.842   1.116   9.167
 3944SOL    HW112398   2.743   1.122   9.177
 3944SOL    HW212399   2.865   1.036   9.111
 3945SOL     OW12400   2.567   1.050   7.816
 3945SOL    HW112401   2.553   1.057   7.915
 3945SOL    HW212402   2.651   0.999   7.798
 3946SOL     OW12403   2.272   0.813   8.699
 3946SOL    HW112404   2.358   0.825   8.749
 3946SOL    HW212405   2.230   0.726   8.726
 3947SOL     OW12406   3.136   0.386   8.710
 3947SOL    HW112407   3.157   0.460   8.774
 3947SOL    HW212408   3.047   0.403   8.667
 3948SOL     OW12409   1.926   1.564   8.779
 3948SOL    HW112410   1.880   1.646   8.745
 3948SOL    HW212411   2.024   1.583   8.788
 3949SOL     OW12412   2.229   1.100   7.949
 3949SOL    HW112413   2.222   1.183   7.893
 3949SOL    HW212414   2.233   1.020   7.889
 3950SOL     OW12415   2.428   0.537   8.313
 3950SOL    HW112416   2.440   0.603   8.239
 3950SOL    HW212417   2.474   0.571   8.396
 3951SOL     OW12418   3.114   1.348   7.836
 3951SOL    HW112419   3.164   1.425   7.876
 3951SOL    HW212420   3.019   1.350   7.868
 3952SOL     OW12421   3.134   1.445   8.590
 3952SOL    HW112422   3.181   1.458   8.677
 3952SOL    HW212423   3.068   1.371   8.599
 3953SOL     OW12424   3.444   0.639   7.920
 3953SOL    HW112425   3.413   0.700   7.993
 3953SOL    HW212426   3.494   0.691   7.851
 3954SOL     OW12427   2.216   1.510   8.777
 3954SOL    HW112428   2.195   1.466   8.690
 3954SOL    HW212429   2.313   1.536   8.780
 3955SOL     OW12430   2.264   0.751   9.046
 3955SOL    HW112431   2.332   0.806   8.999
 3955SOL    HW212432   2.304   0.663   9.073
 3956SOL     OW12433   3.449   0.779   9.118
 3956SOL    HW112434   3.357   0.817   9.113
 3956SOL    HW212435   3.509   0.826   9.053
 3957SOL     OW12436   2.875   0.105   9.218
 3957SOL    HW112437   2.881   0.190   9.166
 3957SOL    HW212438   2.907   0.029   9.161
 3958SOL     OW12439   2.366   0.050   9.188
 3958SOL    HW112440   2.324  -0.007   9.118
 3958SOL    HW212441   2.300   0.119   9.220
 3959SOL     OW12442   2.435   0.870   8.477
 3959SOL    HW112443   2.479   0.959   8.468
 3959SOL    HW212444   2.372   0.870   8.554
 3960SOL     OW12445   3.222   0.862   8.493
 3960SOL    HW112446   3.147   0.862   8.427
 3960SOL    HW212447   3.259   0.770   8.502
 3961SOL     OW12448   3.071   0.525   7.723
 3961SOL    HW112449   3.084   0.441   7.777
 3961SOL    HW212450   3.042   0.599   7.783
 3962SOL     OW12451   2.169   0.213   8.679
 3962SOL    HW112452   2.146   0.250   8.769
 3962SOL    HW212453   2.139   0.118   8.673
 3963SOL     OW12454   1.899   1.310   8.730
 3963SOL    HW112455   1.952   1.261   8.798
 3963SOL    HW212456   1.921   1.408   8.735
 3964SOL     OW12457   2.594   0.634   8.512
 3964SOL    HW112458   2.653   0.608   8.436
 3964SOL    HW212459   2.566   0.730   8.501
 3965SOL     OW12460   3.590   0.935   9.302
 3965SOL    HW112461   3.544   0.928   9.213
 3965SOL    HW212462   3.528   0.979   9.368
 3966SOL     OW12463   2.169   0.063   8.066
 3966SOL    HW112464   2.158   0.157   8.099
 3966SOL    HW212465   2.164   0.000   8.143
 3967SOL     OW12466   3.484   0.367   7.822
 3967SOL    HW112467   3.486   0.291   7.886
 3967SOL    HW212468   3.436   0.444   7.862
 3968SOL     OW12469   2.885   0.766   8.414
 3968SOL    HW112470   2.900   0.787   8.510
 3968SOL    HW212471   2.855   0.671   8.405
 3969SOL     OW12472   2.842   1.573   9.148
 3969SOL    HW112473   2.822   1.617   9.060
 3969SOL    HW212474   2.881   1.482   9.132
 3970SOL     OW12475   3.721   1.518   9.053
 3970SOL    HW112476   3.735   1.545   8.958
 3970SOL    HW212477   3.804   1.540   9.106
 3971SOL     OW12478   2.212   0.898   9.252
 3971SOL    HW112479   2.288   0.942   9.300
 3971SOL    HW212480   2.247   0.851   9.170
 3972SOL     OW12481   3.402   0.274   7.573
 3972SOL    HW112482   3.341   0.199   7.596
 3972SOL    HW212483   3.424   0.326   7.656
 3973SOL     OW12484   3.165   0.838   7.490
 3973SOL    HW112485   3.199   0.745   7.505
 3973SOL    HW212486   3.183   0.865   7.395
 3974SOL     OW12487   2.930   1.333   8.297
 3974SOL    HW112488   2.937   1.249   8.242
 3974SOL    HW212489   2.992   1.402   8.261
 3975SOL     OW12490   2.181   0.810   8.397
 3975SOL    HW112491   2.274   0.846   8.402
 3975SOL    HW212492   2.175   0.725   8.449
 3976SOL     OW12493   2.201   0.509   8.454
 3976SOL    HW112494   2.149   0.426   8.437
 3976SOL    HW212495   2.278   0.514   8.390
 3977SOL     OW12496   3.000   0.380   9.126
 3977SOL    HW112497   2.955   0.443   9.190
 3977SOL    HW212498   3.093   0.411   9.109
 3978SOL     OW12499   3.022   0.207   8.925
 3978SOL    HW112500   3.022   0.271   9.002
 3978SOL    HW212501   3.050   0.255   8.842
 3979SOL     OW12502   1.870   1.326   7.648
 3979SOL    HW112503   1.777   1.347   7.617
 3979SOL    HW212504   1.880   1.227   7.661
 3980SOL     OW12505   1.950   1.801   8.375
 3980SOL    HW112506   1.908   1.715   8.348
 3980SOL    HW212507   2.044   1.804   8.341
 3981SOL     OW12508   2.366   1.568   8.358
 3981SOL    HW112509   2.432   1.642   8.367
 3981SOL    HW212510   2.410   1.489   8.316
 3982SOL     OW12511   2.864   0.796   8.686
 3982SOL    HW112512   2.905   0.764   8.772
 3982SOL    HW212513   2.768   0.769   8.683
 3983SOL     OW12514   1.902   0.544   8.562
 3983SOL    HW112515   1.987   0.511   8.521
 3983SOL    HW212516   1.915   0.559   8.660
 3984SOL     OW12517   2.051   0.520   9.170
 3984SOL    HW112518   2.110   0.480   9.100
 3984SOL    HW212519   1.993   0.591   9.129
 3985SOL     OW12520   3.231   0.950   9.108
 3985SOL    HW112521   3.270   1.039   9.128
 3985SOL    HW212522   3.241   0.930   9.011
 3986SOL     OW12523   2.677   0.572   7.773
 3986SOL    HW112524   2.684   0.483   7.727
 3986SOL    HW212525   2.583   0.606   7.765
 3987SOL     OW12526   3.519   0.604   8.654
 3987SOL    HW112527   3.481   0.535   8.716
 3987SOL    HW212528   3.601   0.568   8.610
 3988SOL     OW12529   2.114   1.564   9.192
 3988SOL    HW112530   2.084   1.621   9.268
 3988SOL    HW212531   2.107   1.467   9.218
 3989SOL     OW12532   2.533   0.464   8.717
 3989SOL    HW112533   2.499   0.375   8.687
 3989SOL    HW212534   2.559   0.518   8.637
 3990SOL     OW12535   2.792   1.678   8.913
 3990SOL    HW112536   2.768   1.660   8.818
 3990SOL    HW212537   2.822   1.772   8.923
 3991SOL     OW12538   2.335   0.500   7.639
 3991SOL    HW112539   2.396   0.580   7.643
 3991SOL    HW212540   2.240   0.531   7.646
 3992SOL     OW12541   2.021   1.137   8.914
 3992SOL    HW112542   2.043   1.076   8.990
 3992SOL    HW212543   2.031   1.088   8.828
 3993SOL     OW12544   3.209   1.059   8.682
 3993SOL    HW112545   3.233   0.996   8.608
 3993SOL    HW212546   3.119   1.099   8.664
 3994SOL     OW12547   3.164   0.855   7.757
 3994SOL    HW112548   3.078   0.824   7.799
 3994SOL    HW212549   3.160   0.841   7.658
 3995SOL     OW12550   3.621   1.747   8.602
 3995SOL    HW112551   3.682   1.777   8.529
 3995SOL    HW212552   3.583   1.658   8.580
 3996SOL     OW12553   3.114   1.731   8.576
 3996SOL    HW112554   3.198   1.736   8.522
 3996SOL    HW212555   3.091   1.635   8.594
 3997SOL     OW12556   1.945   1.258   8.470
 3997SOL    HW112557   1.940   1.257   8.570
 3997SOL    HW212558   1.862   1.217   8.432
 3998SOL     OW12559   2.550   1.662   9.164
 3998SOL    HW112560   2.494   1.743   9.173
 3998SOL    HW212561   2.602   1.666   9.078
 3999SOL     OW12562   3.588   0.135   7.971
 3999SOL    HW112563   3.661   0.118   7.904
 3999SOL    HW212564   3.557   0.048   8.009
 4000SOL     OW12565   3.250   1.573   7.925
 4000SOL    HW112566   3.317   1.585   7.851
 4000SOL    HW212567   3.210   1.662   7.948
 4001SOL     OW12568   1.992   1.794   9.299
 4001SOL    HW112569   1.951   1.720   9.352
 4001SOL    HW212570   2.056   1.845   9.357
 4002SOL     OW12571   3.142   0.927   8.120
 4002SOL    HW112572   3.202   0.846   8.122
 4002SOL    HW212573   3.182   0.996   8.060
 4003SOL     OW12574   2.692   1.273   8.870
 4003SOL    HW112575   2.687   1.306   8.965
 4003SOL    HW212576   2.606   1.292   8.824
 4004SOL     OW12577   2.534   1.616   7.602
 4004SOL    HW112578   2.543   1.626   7.503
 4004SOL    HW212579   2.494   1.527   7.623
 4005SOL     OW12580   3.512   1.720   8.842
 4005SOL    HW112581   3.565   1.730   8.758
 4005SOL    HW212582   3.485   1.810   8.876
 4006SOL     OW12583   3.703   0.175   8.411
 4006SOL    HW112584   3.742   0.090   8.375
 4006SOL    HW212585   3.605   0.177   8.392
 4007SOL     OW12586   2.125   0.326   8.168
 4007SOL    HW112587   2.046   0.377   8.134
 4007SOL    HW212588   2.116   0.311   8.266
 4008SOL     OW12589   3.056   1.612   7.479
 4008SOL    HW112590   3.062   1.519   7.516
 4008SOL    HW212591   2.997   1.612   7.399
 4009SOL     OW12592   2.684   1.002   8.820
 4009SOL    HW112593   2.724   1.001   8.728
 4009SOL    HW212594   2.694   1.094   8.860
 4010SOL     OW12595   2.778   0.910   7.739
 4010SOL    HW112596   2.841   0.948   7.671
 4010SOL    HW212597   2.818   0.827   7.778
 4011SOL     OW12598   3.366   1.607   7.492
 4011SOL    HW112599   3.274   1.644   7.499
 4011SOL    HW212600   3.404   1.627   7.402
 4012SOL     OW12601   2.234   1.288   8.938
 4012SOL    HW112602   2.221   1.381   8.904
 4012SOL    HW212603   2.150   1.236   8.925
 4013SOL     OW12604   3.476   1.292   8.737
 4013SOL    HW112605   3.536   1.295   8.817
 4013SOL    HW212606   3.401   1.356   8.750
 4014SOL     OW12607   2.901   1.098   8.144
 4014SOL    HW112608   2.831   1.051   8.198
 4014SOL    HW212609   2.960   1.030   8.101
 4015SOL     OW12610   2.876   0.236   8.419
 4015SOL    HW112611   2.868   0.200   8.326
 4015SOL    HW212612   2.874   0.160   8.484
 4016SOL     OW12613   2.452   1.487   7.939
 4016SOL    HW112614   2.494   1.429   7.869
 4016SOL    HW212615   2.408   1.566   7.895
 4017SOL     OW12616   3.571   0.385   8.829
 4017SOL    HW112617   3.644   0.454   8.833
 4017SOL    HW212618   3.599   0.310   8.770
 4018SOL     OW12619   2.117   1.348   7.738
 4018SOL    HW112620   2.021   1.349   7.711
 4018SOL    HW212621   2.129   1.401   7.822
 4019SOL     OW12622   1.967   1.013   9.174
 4019SOL    HW112623   1.890   0.980   9.228
 4019SOL    HW212624   2.052   0.983   9.216
 4020SOL     OW12625   2.534   0.203   8.937
 4020SOL    HW112626   2.624   0.187   8.897
 4020SOL    HW212627   2.542   0.208   9.036
 4021SOL     OW12628   1.937   0.345   7.481
 4021SOL    HW112629   1.845   0.317   7.452
 4021SOL    HW212630   1.968   0.422   7.425
 4022SOL     OW12631   3.302   0.856   8.846
 4022SOL    HW112632   3.245   0.908   8.783
 4022SOL    HW212633   3.398   0.868   8.822
 4023SOL     OW12634   1.934   0.166   7.766
 4023SOL    HW112635   1.917   0.249   7.712
 4023SOL    HW212636   2.024   0.129   7.744
 4024SOL     OW12637   3.045   1.335   7.567
 4024SOL    HW112638   2.946   1.324   7.569
 4024SOL    HW212639   3.079   1.350   7.660
 4025SOL     OW12640   2.475   0.842   8.879
 4025SOL    HW112641   2.531   0.923   8.862
 4025SOL    HW212642   2.534   0.762   8.882
 4026SOL     OW12643   3.355   1.767   8.407
 4026SOL    HW112644   3.388   1.831   8.338
 4026SOL    HW212645   3.421   1.761   8.482
 4027SOL     OW12646   2.578   0.565   9.156
 4027SOL    HW112647   2.597   0.630   9.230
 4027SOL    HW212648   2.638   0.485   9.165
 4028SOL     OW12649   3.312   1.220   9.081
 4028SOL    HW112650   3.303   1.210   9.180
 4028SOL    HW212651   3.408   1.213   9.055
 4029SOL     OW12652   2.252   1.741   9.008
 4029SOL    HW112653   2.161   1.782   9.006
 4029SOL    HW212654   2.245   1.647   9.040
 4030SOL     OW12655   3.536   0.883   8.702
 4030SOL    HW112656   3.509   0.794   8.665
 4030SOL    HW212657   3.537   0.951   8.629
 4031SOL     OW12658   3.087   0.325   7.897
 4031SOL    HW112659   3.152   0.251   7.886
 4031SOL    HW212660   3.107   0.375   7.981
 4032SOL     OW12661   2.456   0.745   8.100
 4032SOL    HW112662   2.506   0.830   8.081
 4032SOL    HW212663   2.368   0.747   8.052
 4033SOL     OW12664   3.639   0.342   9.090
 4033SOL    HW112665   3.622   0.373   8.996
 4033SOL    HW212666   3.555   0.305   9.128
 4034SOL     OW12667   3.592   0.934   8.965
 4034SOL    HW112668   3.630   1.025   8.980
 4034SOL    HW212669   3.584   0.917   8.866
 4035SOL     OW12670   2.721   1.374   7.464
 4035SOL    HW112671   2.675   1.389   7.552
 4035SOL    HW212672   2.765   1.459   7.434
 4036SOL     OW12673   2.523   1.790   8.401
 4036SOL    HW112674   2.477   1.878   8.388
 4036SOL    HW212675   2.622   1.802   8.394
 4037SOL     OW12676   2.721   0.956   8.309
 4037SOL    HW112677   2.775   0.887   8.357
 4037SOL    HW212678   2.689   1.025   8.375
 4038SOL     OW12679   2.945   0.984   7.535
 4038SOL    HW112680   2.922   1.037   7.453
 4038SOL    HW212681   3.026   0.928   7.516
 4039SOL     OW12682   3.723   1.569   8.299
 4039SOL    HW112683   3.652   1.557   8.229
 4039SOL    HW212684   3.724   1.490   8.359
 4040SOL     OW12685   2.083   1.314   9.292
 4040SOL    HW112686   2.018   1.241   9.271
 4040SOL    HW212687   2.087   1.328   9.390
 4041SOL     OW12688   1.941   1.240   8.101
 4041SOL    HW112689   1.940   1.193   8.189
 4041SOL    HW212690   2.023   1.212   8.050
 4042SOL     OW12691   2.534   1.391   9.072
 4042SOL    HW112692   2.456   1.341   9.110
 4042SOL    HW212693   2.531   1.486   9.103
 4043SOL     OW12694   3.686   0.192   8.675
 4043SOL    HW112695   3.682   0.102   8.719
 4043SOL    HW212696   3.689   0.181   8.576
 4044SOL     OW12697   2.290   0.424   7.968
 4044SOL    HW112698   2.320   0.352   7.906
 4044SOL    HW212699   2.251   0.384   8.051
 4045SOL     OW12700   3.567   1.487   8.552
 4045SOL    HW112701   3.474   1.462   8.525
 4045SOL    HW212702   3.593   1.437   8.634
 4046SOL     OW12703   2.179   0.547   8.728
 4046SOL    HW112704   2.217   0.488   8.800
 4046SOL    HW212705   2.219   0.521   8.640
 4047SOL     OW12706   2.674   1.586   8.135
 4047SOL    HW112707   2.706   1.596   8.041
 4047SOL    HW212708   2.595   1.524   8.137
 4048SOL     OW12709   3.286   0.214   8.560
 4048SOL    HW112710   3.338   0.149   8.615
 4048SOL    HW212711   3.237   0.277   8.621
 4049SOL     OW12712   2.863   0.034   8.602
 4049SOL    HW112713   2.800  -0.038   8.571
 4049SOL    HW212714   2.956  -0.002   8.602
 4050SOL     OW12715   2.632   1.330   7.749
 4050SOL    HW112716   2.586   1.243   7.766
 4050SOL    HW212717   2.723   1.327   7.790
 4051SOL     OW12718   2.480   1.567   8.732
 4051SOL    HW112719   2.475   1.649   8.789
 4051SOL    HW212720   2.569   1.564   8.687
 4052SOL     OW12721   3.214   0.052   7.616
 4052SOL    HW112722   3.249   0.011   7.532
 4052SOL    HW212723   3.124   0.014   7.636
 4053SOL     OW12724   3.162   0.453   8.139
 4053SOL    HW112725   3.103   0.533   8.143
 4053SOL    HW212726   3.177   0.418   8.232
 4054SOL     OW12727   3.455   0.221   8.330
 4054SOL    HW112728   3.371   0.220   8.384
 4054SOL    HW212729   3.457   0.304   8.274
 4055SOL     OW12730   1.901   1.077   7.748
 4055SOL    HW112731   2.000   1.066   7.739
 4055SOL    HW212732   1.861   0.991   7.780
 4056SOL     OW12733   2.737   1.646   7.785
 4056SOL    HW112734   2.660   1.611   7.731
 4056SOL    HW212735   2.705   1.717   7.847
 4057SOL     OW12736   2.092   0.628   9.423
 4057SOL    HW112737   1.999   0.626   9.460
 4057SOL    HW212738   2.093   0.589   9.331
 4058SOL     OW12739   2.087   0.275  10.306
 4058SOL    HW112740   2.122   0.258  10.398
 4058SOL    HW212741   1.999   0.230  10.294
 4059SOL     OW12742   1.881   0.368   9.957
 4059SOL    HW112743   1.799   0.411   9.996
 4059SOL    HW212744   1.853   0.295   9.894
 4060SOL     OW12745   2.431   1.275  10.475
 4060SOL    HW112746   2.338   1.268  10.438
 4060SOL    HW212747   2.442   1.364  10.519
 4061SOL     OW12748   3.417   1.511  10.013
 4061SOL    HW112749   3.360   1.495  10.094
 4061SOL    HW212750   3.358   1.521   9.933
 4062SOL     OW12751   2.997   0.703  10.027
 4062SOL    HW112752   3.054   0.781  10.002
 4062SOL    HW212753   2.937   0.729  10.103
 4063SOL     OW12754   3.617   0.607   9.541
 4063SOL    HW112755   3.605   0.594   9.442
 4063SOL    HW212756   3.587   0.526   9.590
 4064SOL     OW12757   2.630   1.144  10.333
 4064SOL    HW112758   2.552   1.161  10.393
 4064SOL    HW212759   2.664   1.231  10.297
 4065SOL     OW12760   2.712   0.798  11.133
 4065SOL    HW112761   2.708   0.874  11.198
 4065SOL    HW212762   2.734   0.834  11.042
 4066SOL     OW12763   2.547   1.012   9.975
 4066SOL    HW112764   2.616   0.996  10.045
 4066SOL    HW212765   2.474   1.069  10.013
 4067SOL     OW12766   2.197   1.435  10.371
 4067SOL    HW112767   2.119   1.404  10.318
 4067SOL    HW212768   2.255   1.493  10.314
 4068SOL     OW12769   3.322   1.505  10.649
 4068SOL    HW112770   3.346   1.599  10.675
 4068SOL    HW212771   3.306   1.451  10.731
 4069SOL     OW12772   2.300   0.392  10.809
 4069SOL    HW112773   2.382   0.336  10.818
 4069SOL    HW212774   2.219   0.334  10.813
 4070SOL     OW12775   3.465   0.447  10.047
 4070SOL    HW112776   3.391   0.493   9.997
 4070SOL    HW212777   3.516   0.515  10.100
 4071SOL     OW12778   2.093   1.713   9.793
 4071SOL    HW112779   2.127   1.790   9.847
 4071SOL    HW212780   2.137   1.713   9.703
 4072SOL     OW12781   2.092   1.434   9.848
 4072SOL    HW112782   2.066   1.530   9.848
 4072SOL    HW212783   2.021   1.380   9.893
 4073SOL     OW12784   2.102   1.091  10.196
 4073SOL    HW112785   2.116   1.007  10.248
 4073SOL    HW212786   2.047   1.155  10.251
 4074SOL     OW12787   2.482   1.786  10.749
 4074SOL    HW112788   2.390   1.769  10.784
 4074SOL    HW212789   2.510   1.878  10.775
 4075SOL     OW12790   2.468   0.964   9.433
 4075SOL    HW112791   2.475   1.048   9.379
 4075SOL    HW212792   2.514   0.977   9.521
 4076SOL     OW12793   3.456   0.114  10.790
 4076SOL    HW112794   3.438   0.181  10.718
 4076SOL    HW212795   3.453   0.160  10.879
 4077SOL     OW12796   1.984   0.643   9.873
 4077SOL    HW112797   1.939   0.555   9.890
 4077SOL    HW212798   1.983   0.697   9.957
 4078SOL     OW12799   3.704   1.767   9.669
 4078SOL    HW112800   3.758   1.738   9.749
 4078SOL    HW212801   3.734   1.857   9.640
 4079SOL     OW12802   1.889   1.596   9.427
 4079SOL    HW112803   1.870   1.500   9.448
 4079SOL    HW212804   1.856   1.654   9.502
 4080SOL     OW12805   3.551   0.922   9.922
 4080SOL    HW112806   3.646   0.893   9.930
 4080SOL    HW212807   3.543   0.987   9.847
 4081SOL     OW12808   3.503   1.108   9.742
 4081SOL    HW112809   3.589   1.110   9.690
 4081SOL    HW212810   3.517   1.155   9.830
 4082SOL     OW12811   1.975   0.737  10.907
 4082SOL    HW112812   2.063   0.724  10.952
 4082SOL    HW212813   1.962   0.834  10.885
 4083SOL     OW12814   2.475   1.365  10.036
 4083SOL    HW112815   2.426   1.278  10.045
 4083SOL    HW212816   2.452   1.408   9.949
 4084SOL     OW12817   3.155   1.228  10.733
 4084SOL    HW112818   3.192   1.155  10.675
 4084SOL    HW212819   3.207   1.233  10.818
 4085SOL     OW12820   2.671   0.004   9.812
 4085SOL    HW112821   2.711   0.095   9.803
 4085SOL    HW212822   2.571   0.012   9.818
 4086SOL     OW12823   2.059   0.976  10.574
 4086SOL    HW112824   2.148   0.931  10.560
 4086SOL    HW212825   1.986   0.911  10.555
 4087SOL     OW12826   3.387   0.999   9.500
 4087SOL    HW112827   3.324   0.923   9.513
 4087SOL    HW212828   3.435   1.017   9.586
 4088SOL     OW12829   3.049   1.792  10.926
 4088SOL    HW112830   3.073   1.852  10.850
 4088SOL    HW212831   3.056   1.697  10.896
 4089SOL     OW12832   2.179   0.251  11.111
 4089SOL    HW112833   2.250   0.322  11.117
 4089SOL    HW212834   2.091   0.290  11.139
 4090SOL     OW12835   3.328   1.417  10.263
 4090SOL    HW112836   3.269   1.423  10.343
 4090SOL    HW212837   3.313   1.329  10.217
 4091SOL     OW12838   3.529   1.714   9.882
 4091SOL    HW112839   3.488   1.691   9.794
 4091SOL    HW212840   3.511   1.640   9.947
 4092SOL     OW12841   2.460   0.729   9.580
 4092SOL    HW112842   2.484   0.798   9.512
 4092SOL    HW212843   2.382   0.762   9.634
 4093SOL     OW12844   3.143   0.345  10.254
 4093SOL    HW112845   3.057   0.295  10.241
 4093SOL    HW212846   3.205   0.291  10.310
 4094SOL     OW12847   3.438   1.662   9.617
 4094SOL    HW112848   3.527   1.708   9.620
 4094SOL    HW212849   3.417   1.638   9.522
 4095SOL     OW12850   2.669   0.605  10.775
 4095SOL    HW112851   2.622   0.602  10.864
 4095SOL    HW212852   2.618   0.550  10.709
 4096SOL     OW12853   2.835   0.890  10.882
 4096SOL    HW112854   2.881   0.806  10.853
 4096SOL    HW212855   2.779   0.924  10.807
 4097SOL     OW12856   2.853   0.410  10.552
 4097SOL    HW112857   2.776   0.444  10.606
 4097SOL    HW212858   2.819   0.359  10.473
 4098SOL     OW12859   2.903   0.701   9.739
 4098SOL    HW112860   2.929   0.697   9.835
 4098SOL    HW212861   2.818   0.650   9.725
 4099SOL     OW12862   1.938   0.811  10.099
 4099SOL    HW112863   2.037   0.799  10.108
 4099SOL    HW212864   1.914   0.906  10.120
 4100SOL     OW12865   1.992   1.821  10.881
 4100SOL    HW112866   1.982   1.806  10.980
 4100SOL    HW212867   1.906   1.857  10.845
 4101SOL     OW12868   2.727   0.348   9.505
 4101SOL    HW112869   2.786   0.411   9.456
 4101SOL    HW212870   2.746   0.254   9.476
 4102SOL     OW12871   3.224   1.144   9.855
 4102SOL    HW112872   3.307   1.115   9.807
 4102SOL    HW212873   3.175   1.211   9.799
 4103SOL     OW12874   2.412   0.196  10.195
 4103SOL    HW112875   2.407   0.191  10.295
 4103SOL    HW212876   2.414   0.292  10.166
 4104SOL     OW12877   2.870   1.456   9.787
 4104SOL    HW112878   2.824   1.528   9.735
 4104SOL    HW212879   2.866   1.476   9.885
 4105SOL     OW12880   2.213   1.801  10.163
 4105SOL    HW112881   2.263   1.715  10.169
 4105SOL    HW212882   2.278   1.878  10.160
 4106SOL     OW12883   3.657   1.066  10.183
 4106SOL    HW112884   3.595   1.051  10.107
 4106SOL    HW212885   3.605   1.077  10.268
 4107SOL     OW12886   3.089   1.550  10.816
 4107SOL    HW112887   3.095   1.473  10.880
 4107SOL    HW212888   3.037   1.524  10.736
 4108SOL     OW12889   2.183   0.943   9.552
 4108SOL    HW112890   2.265   0.982   9.510
 4108SOL    HW212891   2.156   0.861   9.503
 4109SOL     OW12892   3.320   0.735  10.038
 4109SOL    HW112893   3.315   0.670  10.113
 4109SOL    HW212894   3.400   0.794  10.051
 4110SOL     OW12895   2.323   1.266  11.037
 4110SOL    HW112896   2.273   1.267  10.951
 4110SOL    HW212897   2.260   1.248  11.113
 4111SOL     OW12898   2.973   1.776   9.547
 4111SOL    HW112899   2.913   1.714   9.597
 4111SOL    HW212900   3.004   1.732   9.462
 4112SOL     OW12901   2.064   0.285  10.808
 4112SOL    HW112902   1.984   0.345  10.795
 4112SOL    HW212903   2.054   0.236  10.894
 4113SOL     OW12904   3.494   1.377   9.391
 4113SOL    HW112905   3.462   1.471   9.381
 4113SOL    HW212906   3.418   1.314   9.379
 4114SOL     OW12907   2.326   1.743   9.633
 4114SOL    HW112908   2.359   1.782   9.719
 4114SOL    HW212909   2.402   1.736   9.568
 4115SOL     OW12910   3.262   0.107   9.736
 4115SOL    HW112911   3.238   0.070   9.646
 4115SOL    HW212912   3.361   0.123   9.740
 4116SOL     OW12913   2.111   1.785  10.551
 4116SOL    HW112914   2.168   1.720  10.601
 4116SOL    HW212915   2.095   1.752  10.458
 4117SOL     OW12916   2.802   1.698  10.214
 4117SOL    HW112917   2.882   1.641  10.235
 4117SOL    HW212918   2.753   1.658  10.137
 4118SOL     OW12919   2.244   0.700   9.790
 4118SOL    HW112920   2.289   0.610   9.787
 4118SOL    HW212921   2.150   0.689   9.823
 4119SOL     OW12922   2.476   0.122   9.427
 4119SOL    HW112923   2.574   0.100   9.434
 4119SOL    HW212924   2.445   0.105   9.334
 4120SOL     OW12925   2.643   0.264  11.059
 4120SOL    HW112926   2.710   0.203  11.102
 4120SOL    HW212927   2.570   0.283  11.124
 4121SOL     OW12928   2.750   1.514  10.505
 4121SOL    HW112929   2.727   1.489  10.411
 4121SOL    HW212930   2.811   1.445  10.544
 4122SOL     OW12931   3.213   0.590  10.743
 4122SOL    HW112932   3.241   0.547  10.828
 4122SOL    HW212933   3.238   0.686  10.744
 4123SOL     OW12934   2.665   1.402  10.234
 4123SOL    HW112935   2.755   1.416  10.192
 4123SOL    HW212936   2.594   1.404  10.163
 4124SOL     OW12937   2.784   0.503  10.209
 4124SOL    HW112938   2.759   0.494  10.113
 4124SOL    HW212939   2.832   0.421  10.240
 4125SOL     OW12940   2.401   0.064   9.822
 4125SOL    HW112941   2.320   0.065   9.880
 4125SOL    HW212942   2.404   0.147   9.767
 4126SOL     OW12943   3.296   1.188   9.351
 4126SOL    HW112944   3.328   1.112   9.408
 4126SOL    HW212945   3.204   1.215   9.381
 4127SOL     OW12946   2.159   0.035   9.481
 4127SOL    HW112947   2.208   0.119   9.460
 4127SOL    HW212948   2.221  -0.030   9.526
 4128SOL     OW12949   2.797   0.236   9.790
 4128SOL    HW112950   2.749   0.277   9.712
 4128SOL    HW212951   2.896   0.234   9.771
 4129SOL     OW12952   2.938   0.683  10.774
 4129SOL    HW112953   2.858   0.622  10.777
 4129SOL    HW212954   3.019   0.630  10.750
 4130SOL     OW12955   3.089   1.570  10.103
 4130SOL    HW112956   3.110   1.644  10.038
 4130SOL    HW212957   3.157   1.570  10.176
 4131SOL     OW12958   2.321   1.152  10.051
 4131SOL    HW112959   2.250   1.125  10.116
 4131SOL    HW212960   2.295   1.124   9.958
 4132SOL     OW12961   3.133   1.797   9.901
 4132SOL    HW112962   3.177   1.861   9.837
 4132SOL    HW212963   3.083   1.849   9.971
 4133SOL     OW12964   2.894   0.549   9.326
 4133SOL    HW112965   2.853   0.631   9.287
 4133SOL    HW212966   2.958   0.575   9.399
 4134SOL     OW12967   1.940   0.556  10.696
 4134SOL    HW112968   2.032   0.555  10.655
 4134SOL    HW212969   1.934   0.630  10.763
 4135SOL     OW12970   2.423   0.222  10.457
 4135SOL    HW112971   2.461   0.138  10.494
 4135SOL    HW212972   2.335   0.241  10.501
 4136SOL     OW12973   2.728   0.454   9.952
 4136SOL    HW112974   2.696   0.526   9.890
 4136SOL    HW212975   2.752   0.373   9.899
 4137SOL     OW12976   2.879   0.039  10.063
 4137SOL    HW112977   2.807   0.044   9.994
 4137SOL    HW212978   2.855  -0.030  10.132
 4138SOL     OW12979   3.291   1.173  10.177
 4138SOL    HW112980   3.236   1.089  10.170
 4138SOL    HW212981   3.317   1.202  10.085
 4139SOL     OW12982   3.328   0.590  10.302
 4139SOL    HW112983   3.298   0.495  10.309
 4139SOL    HW212984   3.401   0.606  10.368
 4140SOL     OW12985   3.719   0.833   9.687
 4140SOL    HW112986   3.761   0.769   9.751
 4140SOL    HW212987   3.681   0.782   9.609
 4141SOL     OW12988   2.350   1.385   9.484
 4141SOL    HW112989   2.263   1.370   9.531
 4141SOL    HW212990   2.333   1.411   9.389
 4142SOL     OW12991   3.526   1.280   9.967
 4142SOL    HW112992   3.625   1.288   9.981
 4142SOL    HW212993   3.481   1.364   9.998
 4143SOL     OW12994   3.252   0.575   9.388
 4143SOL    HW112995   3.198   0.554   9.469
 4143SOL    HW212996   3.343   0.534   9.397
 4144SOL     OW12997   2.389   0.256   9.638
 4144SOL    HW112998   2.416   0.197   9.563
 4144SOL    HW212999   2.389   0.351   9.607
 4145SOL     OW13000   3.616   1.223  10.898
 4145SOL    HW113001   3.707   1.184  10.885
 4145SOL    HW213002   3.624   1.319  10.922
 4146SOL     OW13003   2.926   1.347  10.650
 4146SOL    HW113004   2.846   1.324  10.705
 4146SOL    HW213005   3.009   1.321  10.699
 4147SOL     OW13006   2.973   1.195  10.410
 4147SOL    HW113007   2.933   1.239  10.491
 4147SOL    HW213008   2.932   1.232  10.327
 4148SOL     OW13009   3.500   1.099  10.389
 4148SOL    HW113010   3.505   1.180  10.448
 4148SOL    HW213011   3.414   1.101  10.338
 4149SOL     OW13012   2.777   0.089  10.712
 4149SOL    HW113013   2.802   0.069  10.617
 4149SOL    HW213014   2.849   0.145  10.754
 4150SOL     OW13015   2.567   1.050   9.678
 4150SOL    HW113016   2.553   1.057   9.777
 4150SOL    HW213017   2.651   0.999   9.660
 4151SOL     OW13018   2.272   0.813  10.561
 4151SOL    HW113019   2.358   0.825  10.611
 4151SOL    HW213020   2.230   0.726  10.588
 4152SOL     OW13021   3.136   0.386  10.572
 4152SOL    HW113022   3.157   0.460  10.636
 4152SOL    HW213023   3.047   0.403  10.529
 4153SOL     OW13024   1.926   1.564  10.641
 4153SOL    HW113025   1.880   1.646  10.607
 4153SOL    HW213026   2.024   1.583  10.650
 4154SOL     OW13027   2.229   1.100   9.811
 4154SOL    HW113028   2.222   1.183   9.755
 4154SOL    HW213029   2.233   1.020   9.751
 4155SOL     OW13030   2.428   0.537  10.175
 4155SOL    HW113031   2.440   0.603  10.101
 4155SOL    HW213032   2.474   0.571  10.258
 4156SOL     OW13033   3.114   1.348   9.698
 4156SOL    HW113034   3.164   1.425   9.738
 4156SOL    HW213035   3.019   1.350   9.730
 4157SOL     OW13036   3.134   1.445  10.452
 4157SOL    HW113037   3.181   1.458  10.539
 4157SOL    HW213038   3.068   1.371  10.461
 4158SOL     OW13039   3.444   0.639   9.782
 4158SOL    HW113040   3.413   0.700   9.855
 4158SOL    HW213041   3.494   0.691   9.713
 4159SOL     OW13042   2.216   1.510  10.639
 4159SOL    HW113043   2.195   1.466  10.552
 4159SOL    HW213044   2.313   1.536  10.642
 4160SOL     OW13045   2.264   0.751  10.908
 4160SOL    HW113046   2.332   0.806  10.861
 4160SOL    HW213047   2.304   0.663  10.935
 4161SOL     OW13048   3.449   0.779  10.980
 4161SOL    HW113049   3.357   0.817  10.975
 4161SOL    HW213050   3.509   0.826  10.915
 4162SOL     OW13051   2.435   0.870  10.339
 4162SOL    HW113052   2.479   0.959  10.330
 4162SOL    HW213053   2.372   0.870  10.416
 4163SOL     OW13054   3.222   0.862  10.355
 4163SOL    HW113055   3.147   0.862  10.289
 4163SOL    HW213056   3.259   0.770  10.364
 4164SOL     OW13057   3.071   0.525   9.585
 4164SOL    HW113058   3.084   0.441   9.639
 4164SOL    HW213059   3.042   0.599   9.645
 4165SOL     OW13060   2.169   0.213  10.541
 4165SOL    HW113061   2.146   0.250  10.631
 4165SOL    HW213062   2.139   0.118  10.535
 4166SOL     OW13063   1.899   1.310  10.592
 4166SOL    HW113064   1.952   1.261  10.660
 4166SOL    HW213065   1.921   1.408  10.597
 4167SOL     OW13066   2.594   0.634  10.374
 4167SOL    HW113067   2.653   0.608  10.298
 4167SOL    HW213068   2.566   0.730  10.363
 4168SOL     OW13069   2.169   0.063   9.928
 4168SOL    HW113070   2.158   0.157   9.961
 4168SOL    HW213071   2.164   0.000  10.005
 4169SOL     OW13072   3.484   0.367   9.684
 4169SOL    HW113073   3.486   0.291   9.748
 4169SOL    HW213074   3.436   0.444   9.724
 4170SOL     OW13075   2.885   0.766  10.276
 4170SOL    HW113076   2.900   0.787  10.372
 4170SOL    HW213077   2.855   0.671  10.267
 4171SOL     OW13078   2.842   1.573  11.010
 4171SOL    HW113079   2.822   1.617  10.922
 4171SOL    HW213080   2.881   1.482  10.994
 4172SOL     OW13081   3.721   1.518  10.915
 4172SOL    HW113082   3.735   1.545  10.820
 4172SOL    HW213083   3.804   1.540  10.968
 4173SOL     OW13084   2.212   0.898  11.114
 4173SOL    HW113085   2.288   0.942  11.162
 4173SOL    HW213086   2.247   0.851  11.032
 4174SOL     OW13087   3.402   0.274   9.435
 4174SOL    HW113088   3.341   0.199   9.458
 4174SOL    HW213089   3.424   0.326   9.518
 4175SOL     OW13090   3.165   0.838   9.352
 4175SOL    HW113091   3.199   0.745   9.367
 4175SOL    HW213092   3.183   0.865   9.257
 4176SOL     OW13093   2.930   1.333  10.159
 4176SOL    HW113094   2.937   1.249  10.104
 4176SOL    HW213095   2.992   1.402  10.123
 4177SOL     OW13096   2.181   0.810  10.259
 4177SOL    HW113097   2.274   0.846  10.264
 4177SOL    HW213098   2.175   0.725  10.311
 4178SOL     OW13099   2.201   0.509  10.316
 4178SOL    HW113100   2.149   0.426  10.299
 4178SOL    HW213101   2.278   0.514  10.252
 4179SOL     OW13102   3.022   0.207  10.787
 4179SOL    HW113103   3.022   0.271  10.864
 4179SOL    HW213104   3.050   0.255  10.704
 4180SOL     OW13105   1.870   1.326   9.510
 4180SOL    HW113106   1.777   1.347   9.479
 4180SOL    HW213107   1.880   1.227   9.523
 4181SOL     OW13108   1.950   1.801  10.237
 4181SOL    HW113109   1.908   1.715  10.210
 4181SOL    HW213110   2.044   1.804  10.203
 4182SOL     OW13111   2.366   1.568  10.220
 4182SOL    HW113112   2.432   1.642  10.229
 4182SOL    HW213113   2.410   1.489  10.178
 4183SOL     OW13114   2.864   0.796  10.548
 4183SOL    HW113115   2.905   0.764  10.634
 4183SOL    HW213116   2.768   0.769  10.545
 4184SOL     OW13117   1.902   0.544  10.424
 4184SOL    HW113118   1.987   0.511  10.383
 4184SOL    HW213119   1.915   0.559  10.522
 4185SOL     OW13120   2.677   0.572   9.635
 4185SOL    HW113121   2.684   0.483   9.589
 4185SOL    HW213122   2.583   0.606   9.627
 4186SOL     OW13123   3.519   0.604  10.516
 4186SOL    HW113124   3.481   0.535  10.578
 4186SOL    HW213125   3.601   0.568  10.472
 4187SOL     OW13126   2.114   1.564  11.054
 4187SOL    HW113127   2.084   1.621  11.130
 4187SOL    HW213128   2.107   1.467  11.080
 4188SOL     OW13129   2.533   0.464  10.579
 4188SOL    HW113130   2.499   0.375  10.549
 4188SOL    HW213131   2.559   0.518  10.499
 4189SOL     OW13132   2.792   1.678  10.775
 4189SOL    HW113133   2.768   1.660  10.680
 4189SOL    HW213134   2.822   1.772  10.785
 4190SOL     OW13135   2.335   0.500   9.501
 4190SOL    HW113136   2.396   0.580   9.505
 4190SOL    HW213137   2.240   0.531   9.508
 4191SOL     OW13138   2.021   1.137  10.776
 4191SOL    HW113139   2.043   1.076  10.852
 4191SOL    HW213140   2.031   1.088  10.690
 4192SOL     OW13141   3.209   1.059  10.544
 4192SOL    HW113142   3.233   0.996  10.470
 4192SOL    HW213143   3.119   1.099  10.526
 4193SOL     OW13144   3.164   0.855   9.619
 4193SOL    HW113145   3.078   0.824   9.661
 4193SOL    HW213146   3.160   0.841   9.520
 4194SOL     OW13147   3.621   1.747  10.464
 4194SOL    HW113148   3.682   1.777  10.391
 4194SOL    HW213149   3.583   1.658  10.442
 4195SOL     OW13150   3.114   1.731  10.438
 4195SOL    HW113151   3.198   1.736  10.384
 4195SOL    HW213152   3.091   1.635  10.456
 4196SOL     OW13153   1.945   1.258  10.332
 4196SOL    HW113154   1.940   1.257  10.432
 4196SOL    HW213155   1.862   1.217  10.294
 4197SOL     OW13156   3.588   0.135   9.833
 4197SOL    HW113157   3.661   0.118   9.766
 4197SOL    HW213158   3.557   0.048   9.871
 4198SOL     OW13159   3.250   1.573   9.787
 4198SOL    HW113160   3.317   1.585   9.713
 4198SOL    HW213161   3.210   1.662   9.810
 4199SOL     OW13162   3.142   0.927   9.982
 4199SOL    HW113163   3.202   0.846   9.984
 4199SOL    HW213164   3.182   0.996   9.922
 4200SOL     OW13165   2.692   1.273  10.732
 4200SOL    HW113166   2.687   1.306  10.827
 4200SOL    HW213167   2.606   1.292  10.686
 4201SOL     OW13168   2.534   1.616   9.464
 4201SOL    HW113169   2.543   1.626   9.365
 4201SOL    HW213170   2.494   1.527   9.485
 4202SOL     OW13171   3.512   1.720  10.704
 4202SOL    HW113172   3.565   1.730  10.620
 4202SOL    HW213173   3.485   1.810  10.738
 4203SOL     OW13174   3.703   0.175  10.273
 4203SOL    HW113175   3.742   0.090  10.237
 4203SOL    HW213176   3.605   0.177  10.254
 4204SOL     OW13177   2.125   0.326  10.030
 4204SOL    HW113178   2.046   0.377   9.996
 4204SOL    HW213179   2.116   0.311  10.128
 4205SOL     OW13180   3.056   1.612   9.341
 4205SOL    HW113181   3.062   1.519   9.378
 4205SOL    HW213182   2.997   1.612   9.261
 4206SOL     OW13183   2.684   1.002  10.682
 4206SOL    HW113184   2.724   1.001  10.590
 4206SOL    HW213185   2.694   1.094  10.722
 4207SOL     OW13186   2.778   0.910   9.601
 4207SOL    HW113187   2.841   0.948   9.533
 4207SOL    HW213188   2.818   0.827   9.640
 4208SOL     OW13189   3.366   1.607   9.354
 4208SOL    HW113190   3.274   1.644   9.361
 4208SOL    HW213191   3.404   1.627   9.264
 4209SOL     OW13192   2.234   1.288  10.800
 4209SOL    HW113193   2.221   1.381  10.766
 4209SOL    HW213194   2.150   1.236  10.787
 4210SOL     OW13195   3.476   1.292  10.599
 4210SOL    HW113196   3.536   1.295  10.679
 4210SOL    HW213197   3.401   1.356  10.612
 4211SOL     OW13198   2.901   1.098  10.006
 4211SOL    HW113199   2.831   1.051  10.060
 4211SOL    HW213200   2.960   1.030   9.963
 4212SOL     OW13201   2.876   0.236  10.281
 4212SOL    HW113202   2.868   0.200  10.188
 4212SOL    HW213203   2.874   0.160  10.346
 4213SOL     OW13204   2.452   1.487   9.801
 4213SOL    HW113205   2.494   1.429   9.731
 4213SOL    HW213206   2.408   1.566   9.757
 4214SOL     OW13207   3.571   0.385  10.691
 4214SOL    HW113208   3.644   0.454  10.695
 4214SOL    HW213209   3.599   0.310  10.632
 4215SOL     OW13210   2.117   1.348   9.600
 4215SOL    HW113211   2.021   1.349   9.573
 4215SOL    HW213212   2.129   1.401   9.684
 4216SOL     OW13213   1.967   1.013  11.036
 4216SOL    HW113214   1.890   0.980  11.090
 4216SOL    HW213215   2.052   0.983  11.078
 4217SOL     OW13216   2.534   0.203  10.799
 4217SOL    HW113217   2.624   0.187  10.759
 4217SOL    HW213218   2.542   0.208  10.898
 4218SOL     OW13219   1.937   0.345   9.343
 4218SOL    HW113220   1.845   0.317   9.314
 4218SOL    HW213221   1.968   0.422   9.287
 4219SOL     OW13222   3.302   0.856  10.708
 4219SOL    HW113223   3.245   0.908  10.645
 4219SOL    HW213224   3.398   0.868  10.684
 4220SOL     OW13225   1.934   0.166   9.628
 4220SOL    HW113226   1.917   0.249   9.574
 4220SOL    HW213227   2.024   0.129   9.606
 4221SOL     OW13228   3.045   1.335   9.429
 4221SOL    HW113229   2.946   1.324   9.431
 4221SOL    HW213230   3.079   1.350   9.522
 4222SOL     OW13231   2.475   0.842  10.741
 4222SOL    HW113232   2.531   0.923  10.724
 4222SOL    HW213233   2.534   0.762  10.744
 4223SOL     OW13234   3.355   1.767  10.269
 4223SOL    HW113235   3.388   1.831  10.200
 4223SOL    HW213236   3.421   1.761  10.344
 4224SOL     OW13237   2.578   0.565  11.018
 4224SOL    HW113238   2.597   0.630  11.092
 4224SOL    HW213239   2.638   0.485  11.027
 4225SOL     OW13240   2.252   1.741  10.870
 4225SOL    HW113241   2.161   1.782  10.868
 4225SOL    HW213242   2.245   1.647  10.902
 4226SOL     OW13243   3.536   0.883  10.564
 4226SOL    HW113244   3.509   0.794  10.527
 4226SOL    HW213245   3.537   0.951  10.491
 4227SOL     OW13246   3.087   0.325   9.759
 4227SOL    HW113247   3.152   0.251   9.748
 4227SOL    HW213248   3.107   0.375   9.843
 4228SOL     OW13249   2.456   0.745   9.962
 4228SOL    HW113250   2.506   0.830   9.943
 4228SOL    HW213251   2.368   0.747   9.914
 4229SOL     OW13252   3.639   0.342  10.952
 4229SOL    HW113253   3.622   0.373  10.858
 4229SOL    HW213254   3.555   0.305  10.990
 4230SOL     OW13255   3.592   0.934  10.827
 4230SOL    HW113256   3.630   1.025  10.842
 4230SOL    HW213257   3.584   0.917  10.728
 4231SOL     OW13258   2.721   1.374   9.326
 4231SOL    HW113259   2.675   1.389   9.414
 4231SOL    HW213260   2.765   1.459   9.296
 4232SOL     OW13261   2.523   1.790  10.263
 4232SOL    HW113262   2.477   1.878  10.250
 4232SOL    HW213263   2.622   1.802  10.256
 4233SOL     OW13264   2.721   0.956  10.171
 4233SOL    HW113265   2.775   0.887  10.219
 4233SOL    HW213266   2.689   1.025  10.237
 4234SOL     OW13267   2.945   0.984   9.397
 4234SOL    HW113268   2.922   1.037   9.315
 4234SOL    HW213269   3.026   0.928   9.378
 4235SOL     OW13270   3.723   1.569  10.161
 4235SOL    HW113271   3.652   1.557  10.091
 4235SOL    HW213272   3.724   1.490  10.221
 4236SOL     OW13273   1.941   1.240   9.963
 4236SOL    HW113274   1.940   1.193  10.051
 4236SOL    HW213275   2.023   1.212   9.912
 4237SOL     OW13276   2.534   1.391  10.934
 4237SOL    HW113277   2.456   1.341  10.972
 4237SOL    HW213278   2.531   1.486  10.965
 4238SOL     OW13279   3.686   0.192  10.537
 4238SOL    HW113280   3.682   0.102  10.581
 4238SOL    HW213281   3.689   0.181  10.438
 4239SOL     OW13282   2.290   0.424   9.830
 4239SOL    HW113283   2.320   0.352   9.768
 4239SOL    HW213284   2.251   0.384   9.913
 4240SOL     OW13285   3.567   1.487  10.414
 4240SOL    HW113286   3.474   1.462  10.387
 4240SOL    HW213287   3.593   1.437  10.496
 4241SOL     OW13288   2.179   0.547  10.590
 4241SOL    HW113289   2.217   0.488  10.662
 4241SOL    HW213290   2.219   0.521  10.502
 4242SOL     OW13291   2.674   1.586   9.997
 4242SOL    HW113292   2.706   1.596   9.903
 4242SOL    HW213293   2.595   1.524   9.999
 4243SOL     OW13294   3.286   0.214  10.422
 4243SOL    HW113295   3.338   0.149  10.477
 4243SOL    HW213296   3.237   0.277  10.483
 4244SOL     OW13297   2.863   0.034  10.464
 4244SOL    HW113298   2.800  -0.038  10.433
 4244SOL    HW213299   2.956  -0.002  10.464
 4245SOL     OW13300   2.632   1.330   9.611
 4245SOL    HW113301   2.586   1.243   9.628
 4245SOL    HW213302   2.723   1.327   9.652
 4246SOL     OW13303   2.480   1.567  10.594
 4246SOL    HW113304   2.475   1.649  10.651
 4246SOL    HW213305   2.569   1.564  10.549
 4247SOL     OW13306   3.214   0.052   9.478
 4247SOL    HW113307   3.249   0.011   9.394
 4247SOL    HW213308   3.124   0.014   9.498
 4248SOL     OW13309   3.162   0.453  10.001
 4248SOL    HW113310   3.103   0.533  10.005
 4248SOL    HW213311   3.177   0.418  10.094
 4249SOL     OW13312   3.455   0.221  10.192
 4249SOL    HW113313   3.371   0.220  10.246
 4249SOL    HW213314   3.457   0.304  10.136
 4250SOL     OW13315   1.901   1.077   9.610
 4250SOL    HW113316   2.000   1.066   9.601
 4250SOL    HW213317   1.861   0.991   9.642
 4251SOL     OW13318   2.737   1.646   9.647
 4251SOL    HW113319   2.660   1.611   9.593
 4251SOL    HW213320   2.705   1.717   9.709
 4252SOL     OW13321   2.092   2.490   0.113
 4252SOL    HW113322   1.999   2.488   0.150
 4252SOL    HW213323   2.093   2.451   0.021
 4253SOL     OW13324   1.881   2.230   0.647
 4253SOL    HW113325   1.799   2.273   0.686
 4253SOL    HW213326   1.853   2.157   0.584
 4254SOL     OW13327   2.431   3.137   1.165
 4254SOL    HW113328   2.338   3.130   1.128
 4254SOL    HW213329   2.442   3.226   1.209
 4255SOL     OW13330   3.417   3.373   0.703
 4255SOL    HW113331   3.360   3.357   0.784
 4255SOL    HW213332   3.358   3.383   0.623
 4256SOL     OW13333   2.997   2.565   0.717
 4256SOL    HW113334   3.054   2.643   0.692
 4256SOL    HW213335   2.937   2.591   0.793
 4257SOL     OW13336   3.617   2.469   0.231
 4257SOL    HW113337   3.605   2.456   0.132
 4257SOL    HW213338   3.587   2.388   0.280
 4258SOL     OW13339   2.630   3.006   1.023
 4258SOL    HW113340   2.552   3.023   1.083
 4258SOL    HW213341   2.664   3.093   0.987
 4259SOL     OW13342   2.712   2.660   1.823
 4259SOL    HW113343   2.708   2.736   1.888
 4259SOL    HW213344   2.734   2.696   1.732
 4260SOL     OW13345   2.547   2.874   0.665
 4260SOL    HW113346   2.616   2.858   0.735
 4260SOL    HW213347   2.474   2.931   0.703
 4261SOL     OW13348   2.548   3.023   1.803
 4261SOL    HW113349   2.608   3.102   1.817
 4261SOL    HW213350   2.462   3.054   1.762
 4262SOL     OW13351   2.197   3.297   1.061
 4262SOL    HW113352   2.119   3.266   1.008
 4262SOL    HW213353   2.255   3.355   1.004
 4263SOL     OW13354   3.322   3.367   1.339
 4263SOL    HW113355   3.346   3.461   1.365
 4263SOL    HW213356   3.306   3.313   1.421
 4264SOL     OW13357   3.465   2.309   0.737
 4264SOL    HW113358   3.391   2.355   0.687
 4264SOL    HW213359   3.516   2.377   0.790
 4265SOL     OW13360   2.093   3.575   0.483
 4265SOL    HW113361   2.127   3.652   0.537
 4265SOL    HW213362   2.137   3.575   0.393
 4266SOL     OW13363   2.989   3.203   1.690
 4266SOL    HW113364   3.036   3.203   1.778
 4266SOL    HW213365   2.941   3.116   1.679
 4267SOL     OW13366   2.092   3.296   0.538
 4267SOL    HW113367   2.066   3.392   0.538
 4267SOL    HW213368   2.021   3.242   0.583
 4268SOL     OW13369   2.102   2.953   0.886
 4268SOL    HW113370   2.116   2.869   0.938
 4268SOL    HW213371   2.047   3.017   0.941
 4269SOL     OW13372   2.482   3.648   1.439
 4269SOL    HW113373   2.390   3.631   1.474
 4269SOL    HW213374   2.510   3.740   1.465
 4270SOL     OW13375   2.468   2.826   0.123
 4270SOL    HW113376   2.475   2.910   0.069
 4270SOL    HW213377   2.514   2.839   0.211
 4271SOL     OW13378   3.456   1.976   1.480
 4271SOL    HW113379   3.438   2.043   1.408
 4271SOL    HW213380   3.453   2.022   1.569
 4272SOL     OW13381   1.984   2.505   0.563
 4272SOL    HW113382   1.939   2.417   0.580
 4272SOL    HW213383   1.983   2.559   0.647
 4273SOL     OW13384   3.704   3.629   0.359
 4273SOL    HW113385   3.758   3.600   0.439
 4273SOL    HW213386   3.734   3.719   0.330
 4274SOL     OW13387   1.889   3.458   0.117
 4274SOL    HW113388   1.870   3.362   0.138
 4274SOL    HW213389   1.856   3.516   0.192
 4275SOL     OW13390   3.551   2.784   0.612
 4275SOL    HW113391   3.646   2.755   0.620
 4275SOL    HW213392   3.543   2.849   0.537
 4276SOL     OW13393   3.503   2.970   0.432
 4276SOL    HW113394   3.589   2.972   0.380
 4276SOL    HW213395   3.517   3.017   0.520
 4277SOL     OW13396   1.975   2.599   1.597
 4277SOL    HW113397   2.063   2.586   1.642
 4277SOL    HW213398   1.962   2.696   1.575
 4278SOL     OW13399   2.475   3.227   0.726
 4278SOL    HW113400   2.426   3.140   0.735
 4278SOL    HW213401   2.452   3.270   0.639
 4279SOL     OW13402   3.155   3.090   1.423
 4279SOL    HW113403   3.192   3.017   1.365
 4279SOL    HW213404   3.207   3.095   1.508
 4280SOL     OW13405   2.671   1.866   0.502
 4280SOL    HW113406   2.711   1.957   0.493
 4280SOL    HW213407   2.571   1.874   0.508
 4281SOL     OW13408   2.059   2.838   1.264
 4281SOL    HW113409   2.148   2.793   1.250
 4281SOL    HW213410   1.986   2.773   1.245
 4282SOL     OW13411   3.387   2.861   0.190
 4282SOL    HW113412   3.324   2.785   0.203
 4282SOL    HW213413   3.435   2.879   0.276
 4283SOL     OW13414   3.049   3.654   1.616
 4283SOL    HW113415   3.073   3.714   1.540
 4283SOL    HW213416   3.056   3.559   1.586
 4284SOL     OW13417   3.328   3.279   0.953
 4284SOL    HW113418   3.269   3.285   1.033
 4284SOL    HW213419   3.313   3.191   0.907
 4285SOL     OW13420   3.529   3.576   0.572
 4285SOL    HW113421   3.488   3.553   0.484
 4285SOL    HW213422   3.511   3.502   0.637
 4286SOL     OW13423   2.460   2.591   0.270
 4286SOL    HW113424   2.484   2.660   0.202
 4286SOL    HW213425   2.382   2.624   0.324
 4287SOL     OW13426   3.143   2.207   0.944
 4287SOL    HW113427   3.057   2.157   0.931
 4287SOL    HW213428   3.205   2.153   1.000
 4288SOL     OW13429   3.438   3.524   0.307
 4288SOL    HW113430   3.527   3.570   0.310
 4288SOL    HW213431   3.417   3.500   0.212
 4289SOL     OW13432   2.669   2.467   1.465
 4289SOL    HW113433   2.622   2.464   1.554
 4289SOL    HW213434   2.618   2.412   1.399
 4290SOL     OW13435   3.256   2.331   1.674
 4290SOL    HW113436   3.236   2.374   1.762
 4290SOL    HW213437   3.334   2.269   1.683
 4291SOL     OW13438   2.835   2.752   1.572
 4291SOL    HW113439   2.881   2.668   1.543
 4291SOL    HW213440   2.779   2.786   1.497
 4292SOL     OW13441   2.853   2.272   1.242
 4292SOL    HW113442   2.776   2.306   1.296
 4292SOL    HW213443   2.819   2.221   1.163
 4293SOL     OW13444   2.903   2.563   0.429
 4293SOL    HW113445   2.929   2.559   0.525
 4293SOL    HW213446   2.818   2.512   0.415
 4294SOL     OW13447   1.938   2.673   0.789
 4294SOL    HW113448   2.037   2.661   0.798
 4294SOL    HW213449   1.914   2.768   0.810
 4295SOL     OW13450   1.992   3.683   1.571
 4295SOL    HW113451   1.982   3.668   1.670
 4295SOL    HW213452   1.906   3.719   1.535
 4296SOL     OW13453   2.727   2.210   0.195
 4296SOL    HW113454   2.786   2.273   0.146
 4296SOL    HW213455   2.746   2.116   0.166
 4297SOL     OW13456   3.581   2.447   1.831
 4297SOL    HW113457   3.555   2.536   1.795
 4297SOL    HW213458   3.579   2.379   1.758
 4298SOL     OW13459   3.224   3.006   0.545
 4298SOL    HW113460   3.307   2.977   0.497
 4298SOL    HW213461   3.175   3.073   0.489
 4299SOL     OW13462   2.870   3.318   0.477
 4299SOL    HW113463   2.824   3.390   0.425
 4299SOL    HW213464   2.866   3.338   0.575
 4300SOL     OW13465   2.213   3.663   0.853
 4300SOL    HW113466   2.263   3.577   0.859
 4300SOL    HW213467   2.278   3.740   0.850
 4301SOL     OW13468   3.657   2.928   0.873
 4301SOL    HW113469   3.595   2.913   0.797
 4301SOL    HW213470   3.605   2.939   0.958
 4302SOL     OW13471   3.089   3.412   1.506
 4302SOL    HW113472   3.095   3.335   1.570
 4302SOL    HW213473   3.037   3.386   1.426
 4303SOL     OW13474   2.183   2.805   0.242
 4303SOL    HW113475   2.265   2.844   0.200
 4303SOL    HW213476   2.156   2.723   0.193
 4304SOL     OW13477   3.320   2.597   0.728
 4304SOL    HW113478   3.315   2.532   0.803
 4304SOL    HW213479   3.400   2.656   0.741
 4305SOL     OW13480   2.323   3.128   1.727
 4305SOL    HW113481   2.273   3.129   1.641
 4305SOL    HW213482   2.260   3.110   1.803
 4306SOL     OW13483   2.973   3.638   0.237
 4306SOL    HW113484   2.913   3.576   0.287
 4306SOL    HW213485   3.004   3.594   0.152
 4307SOL     OW13486   2.064   2.147   1.498
 4307SOL    HW113487   1.984   2.207   1.485
 4307SOL    HW213488   2.054   2.098   1.584
 4308SOL     OW13489   3.494   3.239   0.081
 4308SOL    HW113490   3.462   3.333   0.071
 4308SOL    HW213491   3.418   3.176   0.069
 4309SOL     OW13492   2.326   3.605   0.323
 4309SOL    HW113493   2.359   3.644   0.409
 4309SOL    HW213494   2.402   3.598   0.258
 4310SOL     OW13495   3.262   1.969   0.426
 4310SOL    HW113496   3.238   1.932   0.336
 4310SOL    HW213497   3.361   1.985   0.430
 4311SOL     OW13498   2.111   3.647   1.241
 4311SOL    HW113499   2.168   3.582   1.291
 4311SOL    HW213500   2.095   3.614   1.148
 4312SOL     OW13501   2.802   3.560   0.904
 4312SOL    HW113502   2.882   3.503   0.925
 4312SOL    HW213503   2.753   3.520   0.827
 4313SOL     OW13504   2.244   2.562   0.480
 4313SOL    HW113505   2.289   2.472   0.477
 4313SOL    HW213506   2.150   2.551   0.513
 4314SOL     OW13507   3.409   2.084   1.729
 4314SOL    HW113508   3.404   2.121   1.821
 4314SOL    HW213509   3.337   2.015   1.717
 4315SOL     OW13510   2.476   1.984   0.117
 4315SOL    HW113511   2.574   1.962   0.124
 4315SOL    HW213512   2.445   1.967   0.024
 4316SOL     OW13513   2.643   2.126   1.749
 4316SOL    HW113514   2.710   2.065   1.792
 4316SOL    HW213515   2.570   2.145   1.814
 4317SOL     OW13516   2.750   3.376   1.195
 4317SOL    HW113517   2.727   3.351   1.101
 4317SOL    HW213518   2.811   3.307   1.234
 4318SOL     OW13519   3.213   2.452   1.433
 4318SOL    HW113520   3.241   2.409   1.518
 4318SOL    HW213521   3.238   2.548   1.434
 4319SOL     OW13522   2.665   3.264   0.924
 4319SOL    HW113523   2.755   3.278   0.882
 4319SOL    HW213524   2.594   3.266   0.853
 4320SOL     OW13525   2.784   2.365   0.899
 4320SOL    HW113526   2.759   2.356   0.803
 4320SOL    HW213527   2.832   2.283   0.930
 4321SOL     OW13528   2.401   1.926   0.512
 4321SOL    HW113529   2.320   1.927   0.570
 4321SOL    HW213530   2.404   2.009   0.457
 4322SOL     OW13531   3.296   3.050   0.041
 4322SOL    HW113532   3.328   2.974   0.098
 4322SOL    HW213533   3.204   3.077   0.071
 4323SOL     OW13534   2.159   1.897   0.171
 4323SOL    HW113535   2.208   1.981   0.150
 4323SOL    HW213536   2.221   1.832   0.216
 4324SOL     OW13537   2.797   2.098   0.480
 4324SOL    HW113538   2.749   2.139   0.402
 4324SOL    HW213539   2.896   2.096   0.461
 4325SOL     OW13540   2.938   2.545   1.464
 4325SOL    HW113541   2.858   2.484   1.467
 4325SOL    HW213542   3.019   2.492   1.440
 4326SOL     OW13543   3.089   3.432   0.793
 4326SOL    HW113544   3.110   3.506   0.728
 4326SOL    HW213545   3.157   3.432   0.866
 4327SOL     OW13546   2.321   3.014   0.741
 4327SOL    HW113547   2.250   2.987   0.806
 4327SOL    HW213548   2.295   2.986   0.648
 4328SOL     OW13549   3.133   3.659   0.591
 4328SOL    HW113550   3.177   3.723   0.527
 4328SOL    HW213551   3.083   3.711   0.661
 4329SOL     OW13552   2.894   2.411   0.016
 4329SOL    HW113553   2.853   2.493  -0.023
 4329SOL    HW213554   2.958   2.437   0.089
 4330SOL     OW13555   1.940   2.418   1.386
 4330SOL    HW113556   2.032   2.417   1.345
 4330SOL    HW213557   1.934   2.492   1.453
 4331SOL     OW13558   2.423   2.084   1.147
 4331SOL    HW113559   2.461   2.000   1.184
 4331SOL    HW213560   2.335   2.103   1.191
 4332SOL     OW13561   2.728   2.316   0.642
 4332SOL    HW113562   2.696   2.388   0.580
 4332SOL    HW213563   2.752   2.235   0.589
 4333SOL     OW13564   2.879   1.901   0.753
 4333SOL    HW113565   2.807   1.906   0.684
 4333SOL    HW213566   2.855   1.832   0.822
 4334SOL     OW13567   3.291   3.035   0.867
 4334SOL    HW113568   3.236   2.951   0.860
 4334SOL    HW213569   3.317   3.064   0.775
 4335SOL     OW13570   3.328   2.452   0.992
 4335SOL    HW113571   3.298   2.357   0.999
 4335SOL    HW213572   3.401   2.468   1.058
 4336SOL     OW13573   3.719   2.695   0.377
 4336SOL    HW113574   3.761   2.631   0.441
 4336SOL    HW213575   3.681   2.644   0.299
 4337SOL     OW13576   2.350   3.247   0.174
 4337SOL    HW113577   2.263   3.232   0.221
 4337SOL    HW213578   2.333   3.273   0.079
 4338SOL     OW13579   3.526   3.142   0.657
 4338SOL    HW113580   3.625   3.150   0.671
 4338SOL    HW213581   3.481   3.226   0.688
 4339SOL     OW13582   3.252   2.437   0.078
 4339SOL    HW113583   3.198   2.416   0.159
 4339SOL    HW213584   3.343   2.396   0.087
 4340SOL     OW13585   3.616   3.085   1.588
 4340SOL    HW113586   3.707   3.046   1.575
 4340SOL    HW213587   3.624   3.181   1.612
 4341SOL     OW13588   2.926   3.209   1.340
 4341SOL    HW113589   2.846   3.186   1.395
 4341SOL    HW213590   3.009   3.183   1.389
 4342SOL     OW13591   3.454   3.491   1.625
 4342SOL    HW113592   3.481   3.525   1.535
 4342SOL    HW213593   3.533   3.453   1.671
 4343SOL     OW13594   2.973   3.057   1.100
 4343SOL    HW113595   2.933   3.101   1.181
 4343SOL    HW213596   2.932   3.094   1.017
 4344SOL     OW13597   3.500   2.961   1.079
 4344SOL    HW113598   3.505   3.042   1.138
 4344SOL    HW213599   3.414   2.963   1.028
 4345SOL     OW13600   2.777   1.951   1.402
 4345SOL    HW113601   2.802   1.931   1.307
 4345SOL    HW213602   2.849   2.007   1.444
 4346SOL     OW13603   2.842   2.978   1.719
 4346SOL    HW113604   2.743   2.984   1.729
 4346SOL    HW213605   2.865   2.898   1.663
 4347SOL     OW13606   2.567   2.912   0.368
 4347SOL    HW113607   2.553   2.919   0.467
 4347SOL    HW213608   2.651   2.861   0.350
 4348SOL     OW13609   2.272   2.675   1.251
 4348SOL    HW113610   2.358   2.687   1.301
 4348SOL    HW213611   2.230   2.588   1.278
 4349SOL     OW13612   3.136   2.248   1.262
 4349SOL    HW113613   3.157   2.322   1.326
 4349SOL    HW213614   3.047   2.265   1.219
 4350SOL     OW13615   1.926   3.426   1.331
 4350SOL    HW113616   1.880   3.508   1.297
 4350SOL    HW213617   2.024   3.445   1.340
 4351SOL     OW13618   2.229   2.962   0.501
 4351SOL    HW113619   2.222   3.045   0.445
 4351SOL    HW213620   2.233   2.882   0.441
 4352SOL     OW13621   3.114   3.210   0.388
 4352SOL    HW113622   3.164   3.287   0.428
 4352SOL    HW213623   3.019   3.212   0.420
 4353SOL     OW13624   3.134   3.307   1.142
 4353SOL    HW113625   3.181   3.320   1.229
 4353SOL    HW213626   3.068   3.233   1.151
 4354SOL     OW13627   3.444   2.501   0.472
 4354SOL    HW113628   3.413   2.562   0.545
 4354SOL    HW213629   3.494   2.553   0.403
 4355SOL     OW13630   2.216   3.372   1.329
 4355SOL    HW113631   2.195   3.328   1.242
 4355SOL    HW213632   2.313   3.398   1.332
 4356SOL     OW13633   2.264   2.613   1.598
 4356SOL    HW113634   2.332   2.668   1.551
 4356SOL    HW213635   2.304   2.525   1.625
 4357SOL     OW13636   3.449   2.641   1.670
 4357SOL    HW113637   3.357   2.679   1.665
 4357SOL    HW213638   3.509   2.688   1.605
 4358SOL     OW13639   2.875   1.967   1.770
 4358SOL    HW113640   2.881   2.052   1.718
 4358SOL    HW213641   2.907   1.891   1.713
 4359SOL     OW13642   2.366   1.912   1.740
 4359SOL    HW113643   2.324   1.855   1.670
 4359SOL    HW213644   2.300   1.981   1.772
 4360SOL     OW13645   2.435   2.732   1.029
 4360SOL    HW113646   2.479   2.821   1.020
 4360SOL    HW213647   2.372   2.732   1.106
 4361SOL     OW13648   3.222   2.724   1.045
 4361SOL    HW113649   3.147   2.724   0.979
 4361SOL    HW213650   3.259   2.632   1.054
 4362SOL     OW13651   3.071   2.387   0.275
 4362SOL    HW113652   3.084   2.303   0.329
 4362SOL    HW213653   3.042   2.461   0.335
 4363SOL     OW13654   1.899   3.172   1.282
 4363SOL    HW113655   1.952   3.123   1.350
 4363SOL    HW213656   1.921   3.270   1.287
 4364SOL     OW13657   2.594   2.496   1.064
 4364SOL    HW113658   2.653   2.470   0.988
 4364SOL    HW213659   2.566   2.592   1.053
 4365SOL     OW13660   3.590   2.797   1.854
 4365SOL    HW113661   3.544   2.790   1.765
 4365SOL    HW213662   3.528   2.841   1.920
 4366SOL     OW13663   2.169   1.925   0.618
 4366SOL    HW113664   2.158   2.019   0.651
 4366SOL    HW213665   2.164   1.862   0.695
 4367SOL     OW13666   3.484   2.229   0.374
 4367SOL    HW113667   3.486   2.153   0.438
 4367SOL    HW213668   3.436   2.306   0.414
 4368SOL     OW13669   2.885   2.628   0.966
 4368SOL    HW113670   2.900   2.649   1.062
 4368SOL    HW213671   2.855   2.533   0.957
 4369SOL     OW13672   2.842   3.435   1.700
 4369SOL    HW113673   2.822   3.479   1.612
 4369SOL    HW213674   2.881   3.344   1.684
 4370SOL     OW13675   3.721   3.380   1.605
 4370SOL    HW113676   3.735   3.407   1.510
 4370SOL    HW213677   3.804   3.402   1.658
 4371SOL     OW13678   2.212   2.760   1.804
 4371SOL    HW113679   2.288   2.804   1.852
 4371SOL    HW213680   2.247   2.713   1.722
 4372SOL     OW13681   3.402   2.136   0.125
 4372SOL    HW113682   3.341   2.061   0.148
 4372SOL    HW213683   3.424   2.188   0.208
 4373SOL     OW13684   3.165   2.700   0.042
 4373SOL    HW113685   3.199   2.607   0.057
 4373SOL    HW213686   3.183   2.727  -0.053
 4374SOL     OW13687   2.930   3.195   0.849
 4374SOL    HW113688   2.937   3.111   0.794
 4374SOL    HW213689   2.992   3.264   0.813
 4375SOL     OW13690   2.181   2.672   0.949
 4375SOL    HW113691   2.274   2.708   0.954
 4375SOL    HW213692   2.175   2.587   1.001
 4376SOL     OW13693   3.000   2.242   1.678
 4376SOL    HW113694   2.955   2.305   1.742
 4376SOL    HW213695   3.093   2.273   1.661
 4377SOL     OW13696   3.022   2.069   1.477
 4377SOL    HW113697   3.022   2.133   1.554
 4377SOL    HW213698   3.050   2.117   1.394
 4378SOL     OW13699   1.870   3.188   0.200
 4378SOL    HW113700   1.777   3.209   0.169
 4378SOL    HW213701   1.880   3.089   0.213
 4379SOL     OW13702   1.950   3.663   0.927
 4379SOL    HW113703   1.908   3.577   0.900
 4379SOL    HW213704   2.044   3.666   0.893
 4380SOL     OW13705   2.366   3.430   0.910
 4380SOL    HW113706   2.432   3.504   0.919
 4380SOL    HW213707   2.410   3.351   0.868
 4381SOL     OW13708   2.864   2.658   1.238
 4381SOL    HW113709   2.905   2.626   1.324
 4381SOL    HW213710   2.768   2.631   1.235
 4382SOL     OW13711   1.902   2.406   1.114
 4382SOL    HW113712   1.987   2.373   1.073
 4382SOL    HW213713   1.915   2.421   1.212
 4383SOL     OW13714   3.231   2.812   1.660
 4383SOL    HW113715   3.270   2.901   1.680
 4383SOL    HW213716   3.241   2.792   1.563
 4384SOL     OW13717   2.677   2.434   0.325
 4384SOL    HW113718   2.684   2.345   0.279
 4384SOL    HW213719   2.583   2.468   0.317
 4385SOL     OW13720   3.519   2.466   1.206
 4385SOL    HW113721   3.481   2.397   1.268
 4385SOL    HW213722   3.601   2.430   1.162
 4386SOL     OW13723   2.114   3.426   1.744
 4386SOL    HW113724   2.084   3.483   1.820
 4386SOL    HW213725   2.107   3.329   1.770
 4387SOL     OW13726   2.533   2.326   1.269
 4387SOL    HW113727   2.499   2.237   1.239
 4387SOL    HW213728   2.559   2.380   1.189
 4388SOL     OW13729   2.792   3.540   1.465
 4388SOL    HW113730   2.768   3.522   1.370
 4388SOL    HW213731   2.822   3.634   1.475
 4389SOL     OW13732   2.021   2.999   1.466
 4389SOL    HW113733   2.043   2.938   1.542
 4389SOL    HW213734   2.031   2.950   1.380
 4390SOL     OW13735   3.209   2.921   1.234
 4390SOL    HW113736   3.233   2.858   1.160
 4390SOL    HW213737   3.119   2.961   1.216
 4391SOL     OW13738   3.164   2.717   0.309
 4391SOL    HW113739   3.078   2.686   0.351
 4391SOL    HW213740   3.160   2.703   0.210
 4392SOL     OW13741   3.621   3.609   1.154
 4392SOL    HW113742   3.682   3.639   1.081
 4392SOL    HW213743   3.583   3.520   1.132
 4393SOL     OW13744   3.114   3.593   1.128
 4393SOL    HW113745   3.198   3.598   1.074
 4393SOL    HW213746   3.091   3.497   1.146
 4394SOL     OW13747   1.945   3.120   1.022
 4394SOL    HW113748   1.940   3.119   1.122
 4394SOL    HW213749   1.862   3.079   0.984
 4395SOL     OW13750   2.550   3.524   1.716
 4395SOL    HW113751   2.494   3.605   1.725
 4395SOL    HW213752   2.602   3.528   1.630
 4396SOL     OW13753   2.765   1.948   0.133
 4396SOL    HW113754   2.816   1.949   0.047
 4396SOL    HW213755   2.821   1.906   0.204
 4397SOL     OW13756   3.588   1.997   0.523
 4397SOL    HW113757   3.661   1.980   0.456
 4397SOL    HW213758   3.557   1.910   0.561
 4398SOL     OW13759   3.250   3.435   0.477
 4398SOL    HW113760   3.317   3.447   0.403
 4398SOL    HW213761   3.210   3.524   0.500
 4399SOL     OW13762   1.992   3.656   1.851
 4399SOL    HW113763   1.951   3.582   1.904
 4399SOL    HW213764   2.056   3.707   1.909
 4400SOL     OW13765   3.142   2.789   0.672
 4400SOL    HW113766   3.202   2.708   0.674
 4400SOL    HW213767   3.182   2.858   0.612
 4401SOL     OW13768   2.692   3.135   1.422
 4401SOL    HW113769   2.687   3.168   1.517
 4401SOL    HW213770   2.606   3.154   1.376
 4402SOL     OW13771   2.534   3.478   0.154
 4402SOL    HW113772   2.543   3.488   0.055
 4402SOL    HW213773   2.494   3.389   0.175
 4403SOL     OW13774   3.512   3.582   1.394
 4403SOL    HW113775   3.565   3.592   1.310
 4403SOL    HW213776   3.485   3.672   1.428
 4404SOL     OW13777   3.703   2.037   0.963
 4404SOL    HW113778   3.742   1.952   0.927
 4404SOL    HW213779   3.605   2.039   0.944
 4405SOL     OW13780   3.056   3.474   0.031
 4405SOL    HW113781   3.062   3.381   0.068
 4405SOL    HW213782   2.997   3.474  -0.049
 4406SOL     OW13783   2.684   2.864   1.372
 4406SOL    HW113784   2.724   2.863   1.280
 4406SOL    HW213785   2.694   2.956   1.412
 4407SOL     OW13786   2.778   2.772   0.291
 4407SOL    HW113787   2.841   2.810   0.223
 4407SOL    HW213788   2.818   2.689   0.330
 4408SOL     OW13789   3.366   3.469   0.044
 4408SOL    HW113790   3.274   3.506   0.051
 4408SOL    HW213791   3.404   3.489  -0.046
 4409SOL     OW13792   2.234   3.150   1.490
 4409SOL    HW113793   2.221   3.243   1.456
 4409SOL    HW213794   2.150   3.098   1.477
 4410SOL     OW13795   3.476   3.154   1.289
 4410SOL    HW113796   3.536   3.157   1.369
 4410SOL    HW213797   3.401   3.218   1.302
 4411SOL     OW13798   2.901   2.960   0.696
 4411SOL    HW113799   2.831   2.913   0.750
 4411SOL    HW213800   2.960   2.892   0.653
 4412SOL     OW13801   2.876   2.098   0.971
 4412SOL    HW113802   2.868   2.062   0.878
 4412SOL    HW213803   2.874   2.022   1.036
 4413SOL     OW13804   2.452   3.349   0.491
 4413SOL    HW113805   2.494   3.291   0.421
 4413SOL    HW213806   2.408   3.428   0.447
 4414SOL     OW13807   3.571   2.247   1.381
 4414SOL    HW113808   3.644   2.316   1.385
 4414SOL    HW213809   3.599   2.172   1.322
 4415SOL     OW13810   2.117   3.210   0.290
 4415SOL    HW113811   2.021   3.211   0.263
 4415SOL    HW213812   2.129   3.263   0.374
 4416SOL     OW13813   1.967   2.875   1.726
 4416SOL    HW113814   1.890   2.842   1.780
 4416SOL    HW213815   2.052   2.845   1.768
 4417SOL     OW13816   2.534   2.065   1.489
 4417SOL    HW113817   2.624   2.049   1.449
 4417SOL    HW213818   2.542   2.070   1.588
 4418SOL     OW13819   1.937   2.207   0.033
 4418SOL    HW113820   1.845   2.179   0.004
 4418SOL    HW213821   1.968   2.284  -0.023
 4419SOL     OW13822   3.302   2.718   1.398
 4419SOL    HW113823   3.245   2.770   1.335
 4419SOL    HW213824   3.398   2.730   1.374
 4420SOL     OW13825   1.934   2.028   0.318
 4420SOL    HW113826   1.917   2.111   0.264
 4420SOL    HW213827   2.024   1.991   0.296
 4421SOL     OW13828   3.045   3.197   0.119
 4421SOL    HW113829   2.946   3.186   0.121
 4421SOL    HW213830   3.079   3.212   0.212
 4422SOL     OW13831   2.475   2.704   1.431
 4422SOL    HW113832   2.531   2.785   1.414
 4422SOL    HW213833   2.534   2.624   1.434
 4423SOL     OW13834   3.355   3.629   0.959
 4423SOL    HW113835   3.388   3.693   0.890
 4423SOL    HW213836   3.421   3.623   1.034
 4424SOL     OW13837   2.578   2.427   1.708
 4424SOL    HW113838   2.597   2.492   1.782
 4424SOL    HW213839   2.638   2.347   1.717
 4425SOL     OW13840   3.312   3.082   1.633
 4425SOL    HW113841   3.303   3.072   1.732
 4425SOL    HW213842   3.408   3.075   1.607
 4426SOL     OW13843   2.252   3.603   1.560
 4426SOL    HW113844   2.161   3.644   1.558
 4426SOL    HW213845   2.245   3.509   1.592
 4427SOL     OW13846   3.536   2.745   1.254
 4427SOL    HW113847   3.509   2.656   1.217
 4427SOL    HW213848   3.537   2.813   1.181
 4428SOL     OW13849   3.087   2.187   0.449
 4428SOL    HW113850   3.152   2.113   0.438
 4428SOL    HW213851   3.107   2.237   0.533
 4429SOL     OW13852   2.456   2.607   0.652
 4429SOL    HW113853   2.506   2.692   0.633
 4429SOL    HW213854   2.368   2.609   0.604
 4430SOL     OW13855   3.639   2.204   1.642
 4430SOL    HW113856   3.622   2.235   1.548
 4430SOL    HW213857   3.555   2.167   1.680
 4431SOL     OW13858   3.592   2.796   1.517
 4431SOL    HW113859   3.630   2.887   1.532
 4431SOL    HW213860   3.584   2.779   1.418
 4432SOL     OW13861   2.721   3.236   0.016
 4432SOL    HW113862   2.675   3.251   0.104
 4432SOL    HW213863   2.765   3.321  -0.014
 4433SOL     OW13864   2.523   3.652   0.953
 4433SOL    HW113865   2.477   3.740   0.940
 4433SOL    HW213866   2.622   3.664   0.946
 4434SOL     OW13867   2.721   2.818   0.861
 4434SOL    HW113868   2.775   2.749   0.909
 4434SOL    HW213869   2.689   2.887   0.927
 4435SOL     OW13870   2.945   2.846   0.087
 4435SOL    HW113871   2.922   2.899   0.005
 4435SOL    HW213872   3.026   2.790   0.068
 4436SOL     OW13873   3.723   3.431   0.851
 4436SOL    HW113874   3.652   3.419   0.781
 4436SOL    HW213875   3.724   3.352   0.911
 4437SOL     OW13876   2.083   3.176   1.844
 4437SOL    HW113877   2.018   3.103   1.823
 4437SOL    HW213878   2.087   3.190   1.942
 4438SOL     OW13879   1.941   3.102   0.653
 4438SOL    HW113880   1.940   3.055   0.741
 4438SOL    HW213881   2.023   3.074   0.602
 4439SOL     OW13882   2.534   3.253   1.624
 4439SOL    HW113883   2.456   3.203   1.662
 4439SOL    HW213884   2.531   3.348   1.655
 4440SOL     OW13885   3.686   2.054   1.227
 4440SOL    HW113886   3.682   1.964   1.271
 4440SOL    HW213887   3.689   2.043   1.128
 4441SOL     OW13888   3.567   3.349   1.104
 4441SOL    HW113889   3.474   3.324   1.077
 4441SOL    HW213890   3.593   3.299   1.186
 4442SOL     OW13891   2.674   3.448   0.687
 4442SOL    HW113892   2.706   3.458   0.593
 4442SOL    HW213893   2.595   3.386   0.689
 4443SOL     OW13894   3.286   2.076   1.112
 4443SOL    HW113895   3.338   2.011   1.167
 4443SOL    HW213896   3.237   2.139   1.173
 4444SOL     OW13897   2.863   1.896   1.154
 4444SOL    HW113898   2.800   1.824   1.123
 4444SOL    HW213899   2.956   1.860   1.154
 4445SOL     OW13900   2.632   3.192   0.301
 4445SOL    HW113901   2.586   3.105   0.318
 4445SOL    HW213902   2.723   3.189   0.342
 4446SOL     OW13903   2.480   3.429   1.284
 4446SOL    HW113904   2.475   3.511   1.341
 4446SOL    HW213905   2.569   3.426   1.239
 4447SOL     OW13906   3.214   1.914   0.168
 4447SOL    HW113907   3.249   1.873   0.084
 4447SOL    HW213908   3.124   1.876   0.188
 4448SOL     OW13909   3.162   2.315   0.691
 4448SOL    HW113910   3.103   2.395   0.695
 4448SOL    HW213911   3.177   2.280   0.784
 4449SOL     OW13912   3.455   2.083   0.882
 4449SOL    HW113913   3.371   2.082   0.936
 4449SOL    HW213914   3.457   2.166   0.826
 4450SOL     OW13915   1.901   2.939   0.300
 4450SOL    HW113916   2.000   2.928   0.291
 4450SOL    HW213917   1.861   2.853   0.332
 4451SOL     OW13918   2.737   3.508   0.337
 4451SOL    HW113919   2.660   3.473   0.283
 4451SOL    HW213920   2.705   3.579   0.399
 4452SOL     OW13921   2.092   2.490   1.975
 4452SOL    HW113922   1.999   2.488   2.012
 4452SOL    HW213923   2.093   2.451   1.883
 4453SOL     OW13924   2.087   2.137   2.858
 4453SOL    HW113925   2.122   2.120   2.950
 4453SOL    HW213926   1.999   2.092   2.846
 4454SOL     OW13927   1.881   2.230   2.509
 4454SOL    HW113928   1.799   2.273   2.548
 4454SOL    HW213929   1.853   2.157   2.446
 4455SOL     OW13930   2.431   3.137   3.027
 4455SOL    HW113931   2.338   3.130   2.990
 4455SOL    HW213932   2.442   3.226   3.071
 4456SOL     OW13933   3.417   3.373   2.565
 4456SOL    HW113934   3.360   3.357   2.646
 4456SOL    HW213935   3.358   3.383   2.485
 4457SOL     OW13936   2.997   2.565   2.579
 4457SOL    HW113937   3.054   2.643   2.554
 4457SOL    HW213938   2.937   2.591   2.655
 4458SOL     OW13939   3.617   2.469   2.093
 4458SOL    HW113940   3.605   2.456   1.994
 4458SOL    HW213941   3.587   2.388   2.142
 4459SOL     OW13942   2.630   3.006   2.885
 4459SOL    HW113943   2.552   3.023   2.945
 4459SOL    HW213944   2.664   3.093   2.849
 4460SOL     OW13945   2.712   2.660   3.685
 4460SOL    HW113946   2.708   2.736   3.750
 4460SOL    HW213947   2.734   2.696   3.594
 4461SOL     OW13948   2.547   2.874   2.527
 4461SOL    HW113949   2.616   2.858   2.597
 4461SOL    HW213950   2.474   2.931   2.565
 4462SOL     OW13951   2.548   3.023   3.665
 4462SOL    HW113952   2.608   3.102   3.679
 4462SOL    HW213953   2.462   3.054   3.624
 4463SOL     OW13954   2.197   3.297   2.923
 4463SOL    HW113955   2.119   3.266   2.870
 4463SOL    HW213956   2.255   3.355   2.866
 4464SOL     OW13957   3.322   3.367   3.201
 4464SOL    HW113958   3.346   3.461   3.227
 4464SOL    HW213959   3.306   3.313   3.283
 4465SOL     OW13960   3.465   2.309   2.599
 4465SOL    HW113961   3.391   2.355   2.549
 4465SOL    HW213962   3.516   2.377   2.652
 4466SOL     OW13963   2.093   3.575   2.345
 4466SOL    HW113964   2.127   3.652   2.399
 4466SOL    HW213965   2.137   3.575   2.255
 4467SOL     OW13966   2.989   3.203   3.552
 4467SOL    HW113967   3.036   3.203   3.640
 4467SOL    HW213968   2.941   3.116   3.541
 4468SOL     OW13969   2.092   3.296   2.400
 4468SOL    HW113970   2.066   3.392   2.400
 4468SOL    HW213971   2.021   3.242   2.445
 4469SOL     OW13972   2.102   2.953   2.748
 4469SOL    HW113973   2.116   2.869   2.800
 4469SOL    HW213974   2.047   3.017   2.803
 4470SOL     OW13975   2.482   3.648   3.301
 4470SOL    HW113976   2.390   3.631   3.336
 4470SOL    HW213977   2.510   3.740   3.327
 4471SOL     OW13978   2.468   2.826   1.985
 4471SOL    HW113979   2.475   2.910   1.931
 4471SOL    HW213980   2.514   2.839   2.073
 4472SOL     OW13981   3.456   1.976   3.342
 4472SOL    HW113982   3.438   2.043   3.270
 4472SOL    HW213983   3.453   2.022   3.431
 4473SOL     OW13984   1.984   2.505   2.425
 4473SOL    HW113985   1.939   2.417   2.442
 4473SOL    HW213986   1.983   2.559   2.509
 4474SOL     OW13987   3.704   3.629   2.221
 4474SOL    HW113988   3.758   3.600   2.301
 4474SOL    HW213989   3.734   3.719   2.192
 4475SOL     OW13990   1.889   3.458   1.979
 4475SOL    HW113991   1.870   3.362   2.000
 4475SOL    HW213992   1.856   3.516   2.054
 4476SOL     OW13993   3.551   2.784   2.474
 4476SOL    HW113994   3.646   2.755   2.482
 4476SOL    HW213995   3.543   2.849   2.399
 4477SOL     OW13996   3.503   2.970   2.294
 4477SOL    HW113997   3.589   2.972   2.242
 4477SOL    HW213998   3.517   3.017   2.382
 4478SOL     OW13999   1.975   2.599   3.459
 4478SOL    HW114000   2.063   2.586   3.504
 4478SOL    HW214001   1.962   2.696   3.437
 4479SOL     OW14002   2.475   3.227   2.588
 4479SOL    HW114003   2.426   3.140   2.597
 4479SOL    HW214004   2.452   3.270   2.501
 4480SOL     OW14005   3.155   3.090   3.285
 4480SOL    HW114006   3.192   3.017   3.227
 4480SOL    HW214007   3.207   3.095   3.370
 4481SOL     OW14008   2.671   1.866   2.364
 4481SOL    HW114009   2.711   1.957   2.355
 4481SOL    HW214010   2.571   1.874   2.370
 4482SOL     OW14011   2.059   2.838   3.126
 4482SOL    HW114012   2.148   2.793   3.112
 4482SOL    HW214013   1.986   2.773   3.107
 4483SOL     OW14014   3.387   2.861   2.052
 4483SOL    HW114015   3.324   2.785   2.065
 4483SOL    HW214016   3.435   2.879   2.138
 4484SOL     OW14017   3.049   3.654   3.478
 4484SOL    HW114018   3.073   3.714   3.402
 4484SOL    HW214019   3.056   3.559   3.448
 4485SOL     OW14020   3.328   3.279   2.815
 4485SOL    HW114021   3.269   3.285   2.895
 4485SOL    HW214022   3.313   3.191   2.769
 4486SOL     OW14023   3.529   3.576   2.434
 4486SOL    HW114024   3.488   3.553   2.346
 4486SOL    HW214025   3.511   3.502   2.499
 4487SOL     OW14026   2.460   2.591   2.132
 4487SOL    HW114027   2.484   2.660   2.064
 4487SOL    HW214028   2.382   2.624   2.186
 4488SOL     OW14029   3.143   2.207   2.806
 4488SOL    HW114030   3.057   2.157   2.793
 4488SOL    HW214031   3.205   2.153   2.862
 4489SOL     OW14032   3.438   3.524   2.169
 4489SOL    HW114033   3.527   3.570   2.172
 4489SOL    HW214034   3.417   3.500   2.074
 4490SOL     OW14035   2.669   2.467   3.327
 4490SOL    HW114036   2.622   2.464   3.416
 4490SOL    HW214037   2.618   2.412   3.261
 4491SOL     OW14038   3.256   2.331   3.536
 4491SOL    HW114039   3.236   2.374   3.624
 4491SOL    HW214040   3.334   2.269   3.545
 4492SOL     OW14041   2.835   2.752   3.434
 4492SOL    HW114042   2.881   2.668   3.405
 4492SOL    HW214043   2.779   2.786   3.359
 4493SOL     OW14044   2.853   2.272   3.104
 4493SOL    HW114045   2.776   2.306   3.158
 4493SOL    HW214046   2.819   2.221   3.025
 4494SOL     OW14047   2.903   2.563   2.291
 4494SOL    HW114048   2.929   2.559   2.387
 4494SOL    HW214049   2.818   2.512   2.277
 4495SOL     OW14050   1.938   2.673   2.651
 4495SOL    HW114051   2.037   2.661   2.660
 4495SOL    HW214052   1.914   2.768   2.672
 4496SOL     OW14053   1.992   3.683   3.433
 4496SOL    HW114054   1.982   3.668   3.532
 4496SOL    HW214055   1.906   3.719   3.397
 4497SOL     OW14056   2.727   2.210   2.057
 4497SOL    HW114057   2.786   2.273   2.008
 4497SOL    HW214058   2.746   2.116   2.028
 4498SOL     OW14059   3.581   2.447   3.693
 4498SOL    HW114060   3.555   2.536   3.657
 4498SOL    HW214061   3.579   2.379   3.620
 4499SOL     OW14062   3.224   3.006   2.407
 4499SOL    HW114063   3.307   2.977   2.359
 4499SOL    HW214064   3.175   3.073   2.351
 4500SOL     OW14065   2.412   2.058   2.747
 4500SOL    HW114066   2.407   2.053   2.847
 4500SOL    HW214067   2.414   2.154   2.718
 4501SOL     OW14068   2.870   3.318   2.339
 4501SOL    HW114069   2.824   3.390   2.287
 4501SOL    HW214070   2.866   3.338   2.437
 4502SOL     OW14071   2.213   3.663   2.715
 4502SOL    HW114072   2.263   3.577   2.721
 4502SOL    HW214073   2.278   3.740   2.712
 4503SOL     OW14074   3.657   2.928   2.735
 4503SOL    HW114075   3.595   2.913   2.659
 4503SOL    HW214076   3.605   2.939   2.820
 4504SOL     OW14077   3.089   3.412   3.368
 4504SOL    HW114078   3.095   3.335   3.432
 4504SOL    HW214079   3.037   3.386   3.288
 4505SOL     OW14080   2.183   2.805   2.104
 4505SOL    HW114081   2.265   2.844   2.062
 4505SOL    HW214082   2.156   2.723   2.055
 4506SOL     OW14083   3.320   2.597   2.590
 4506SOL    HW114084   3.315   2.532   2.665
 4506SOL    HW214085   3.400   2.656   2.603
 4507SOL     OW14086   2.323   3.128   3.589
 4507SOL    HW114087   2.273   3.129   3.503
 4507SOL    HW214088   2.260   3.110   3.665
 4508SOL     OW14089   2.973   3.638   2.099
 4508SOL    HW114090   2.913   3.576   2.149
 4508SOL    HW214091   3.004   3.594   2.014
 4509SOL     OW14092   2.064   2.147   3.360
 4509SOL    HW114093   1.984   2.207   3.347
 4509SOL    HW214094   2.054   2.098   3.446
 4510SOL     OW14095   3.494   3.239   1.943
 4510SOL    HW114096   3.462   3.333   1.933
 4510SOL    HW214097   3.418   3.176   1.931
 4511SOL     OW14098   2.326   3.605   2.185
 4511SOL    HW114099   2.359   3.644   2.271
 4511SOL    HW214100   2.402   3.598   2.120
 4512SOL     OW14101   3.262   1.969   2.288
 4512SOL    HW114102   3.238   1.932   2.198
 4512SOL    HW214103   3.361   1.985   2.292
 4513SOL     OW14104   2.111   3.647   3.103
 4513SOL    HW114105   2.168   3.582   3.153
 4513SOL    HW214106   2.095   3.614   3.010
 4514SOL     OW14107   2.802   3.560   2.766
 4514SOL    HW114108   2.882   3.503   2.787
 4514SOL    HW214109   2.753   3.520   2.689
 4515SOL     OW14110   3.409   2.084   3.591
 4515SOL    HW114111   3.404   2.121   3.683
 4515SOL    HW214112   3.337   2.015   3.579
 4516SOL     OW14113   2.476   1.984   1.979
 4516SOL    HW114114   2.574   1.962   1.986
 4516SOL    HW214115   2.445   1.967   1.886
 4517SOL     OW14116   2.643   2.126   3.611
 4517SOL    HW114117   2.710   2.065   3.654
 4517SOL    HW214118   2.570   2.145   3.676
 4518SOL     OW14119   2.750   3.376   3.057
 4518SOL    HW114120   2.727   3.351   2.963
 4518SOL    HW214121   2.811   3.307   3.096
 4519SOL     OW14122   3.213   2.452   3.295
 4519SOL    HW114123   3.241   2.409   3.380
 4519SOL    HW214124   3.238   2.548   3.296
 4520SOL     OW14125   2.665   3.264   2.786
 4520SOL    HW114126   2.755   3.278   2.744
 4520SOL    HW214127   2.594   3.266   2.715
 4521SOL     OW14128   2.784   2.365   2.761
 4521SOL    HW114129   2.759   2.356   2.665
 4521SOL    HW214130   2.832   2.283   2.792
 4522SOL     OW14131   2.401   1.926   2.374
 4522SOL    HW114132   2.320   1.927   2.432
 4522SOL    HW214133   2.404   2.009   2.319
 4523SOL     OW14134   3.296   3.050   1.903
 4523SOL    HW114135   3.328   2.974   1.960
 4523SOL    HW214136   3.204   3.077   1.933
 4524SOL     OW14137   2.797   2.098   2.342
 4524SOL    HW114138   2.749   2.139   2.264
 4524SOL    HW214139   2.896   2.096   2.323
 4525SOL     OW14140   2.938   2.545   3.326
 4525SOL    HW114141   2.858   2.484   3.329
 4525SOL    HW214142   3.019   2.492   3.302
 4526SOL     OW14143   3.089   3.432   2.655
 4526SOL    HW114144   3.110   3.506   2.590
 4526SOL    HW214145   3.157   3.432   2.728
 4527SOL     OW14146   2.321   3.014   2.603
 4527SOL    HW114147   2.250   2.987   2.668
 4527SOL    HW214148   2.295   2.986   2.510
 4528SOL     OW14149   3.133   3.659   2.453
 4528SOL    HW114150   3.177   3.723   2.389
 4528SOL    HW214151   3.083   3.711   2.523
 4529SOL     OW14152   2.894   2.411   1.878
 4529SOL    HW114153   2.853   2.493   1.839
 4529SOL    HW214154   2.958   2.437   1.951
 4530SOL     OW14155   1.940   2.418   3.248
 4530SOL    HW114156   2.032   2.417   3.207
 4530SOL    HW214157   1.934   2.492   3.315
 4531SOL     OW14158   2.423   2.084   3.009
 4531SOL    HW114159   2.461   2.000   3.046
 4531SOL    HW214160   2.335   2.103   3.053
 4532SOL     OW14161   2.728   2.316   2.504
 4532SOL    HW114162   2.696   2.388   2.442
 4532SOL    HW214163   2.752   2.235   2.451
 4533SOL     OW14164   2.879   1.901   2.615
 4533SOL    HW114165   2.807   1.906   2.546
 4533SOL    HW214166   2.855   1.832   2.684
 4534SOL     OW14167   3.291   3.035   2.729
 4534SOL    HW114168   3.236   2.951   2.722
 4534SOL    HW214169   3.317   3.064   2.637
 4535SOL     OW14170   3.328   2.452   2.854
 4535SOL    HW114171   3.298   2.357   2.861
 4535SOL    HW214172   3.401   2.468   2.920
 4536SOL     OW14173   3.719   2.695   2.239
 4536SOL    HW114174   3.761   2.631   2.303
 4536SOL    HW214175   3.681   2.644   2.161
 4537SOL     OW14176   2.350   3.247   2.036
 4537SOL    HW114177   2.263   3.232   2.083
 4537SOL    HW214178   2.333   3.273   1.941
 4538SOL     OW14179   3.526   3.142   2.519
 4538SOL    HW114180   3.625   3.150   2.533
 4538SOL    HW214181   3.481   3.226   2.550
 4539SOL     OW14182   3.252   2.437   1.940
 4539SOL    HW114183   3.198   2.416   2.021
 4539SOL    HW214184   3.343   2.396   1.949
 4540SOL     OW14185   3.616   3.085   3.450
 4540SOL    HW114186   3.707   3.046   3.437
 4540SOL    HW214187   3.624   3.181   3.474
 4541SOL     OW14188   2.926   3.209   3.202
 4541SOL    HW114189   2.846   3.186   3.257
 4541SOL    HW214190   3.009   3.183   3.251
 4542SOL     OW14191   3.454   3.491   3.487
 4542SOL    HW114192   3.481   3.525   3.397
 4542SOL    HW214193   3.533   3.453   3.533
 4543SOL     OW14194   2.973   3.057   2.962
 4543SOL    HW114195   2.933   3.101   3.043
 4543SOL    HW214196   2.932   3.094   2.879
 4544SOL     OW14197   3.500   2.961   2.941
 4544SOL    HW114198   3.505   3.042   3.000
 4544SOL    HW214199   3.414   2.963   2.890
 4545SOL     OW14200   2.777   1.951   3.264
 4545SOL    HW114201   2.802   1.931   3.169
 4545SOL    HW214202   2.849   2.007   3.306
 4546SOL     OW14203   2.842   2.978   3.581
 4546SOL    HW114204   2.743   2.984   3.591
 4546SOL    HW214205   2.865   2.898   3.525
 4547SOL     OW14206   2.567   2.912   2.230
 4547SOL    HW114207   2.553   2.919   2.329
 4547SOL    HW214208   2.651   2.861   2.212
 4548SOL     OW14209   2.272   2.675   3.113
 4548SOL    HW114210   2.358   2.687   3.163
 4548SOL    HW214211   2.230   2.588   3.140
 4549SOL     OW14212   3.136   2.248   3.124
 4549SOL    HW114213   3.157   2.322   3.188
 4549SOL    HW214214   3.047   2.265   3.081
 4550SOL     OW14215   1.926   3.426   3.193
 4550SOL    HW114216   1.880   3.508   3.159
 4550SOL    HW214217   2.024   3.445   3.202
 4551SOL     OW14218   2.229   2.962   2.363
 4551SOL    HW114219   2.222   3.045   2.307
 4551SOL    HW214220   2.233   2.882   2.303
 4552SOL     OW14221   2.428   2.399   2.727
 4552SOL    HW114222   2.440   2.465   2.653
 4552SOL    HW214223   2.474   2.433   2.810
 4553SOL     OW14224   3.114   3.210   2.250
 4553SOL    HW114225   3.164   3.287   2.290
 4553SOL    HW214226   3.019   3.212   2.282
 4554SOL     OW14227   3.134   3.307   3.004
 4554SOL    HW114228   3.181   3.320   3.091
 4554SOL    HW214229   3.068   3.233   3.013
 4555SOL     OW14230   3.444   2.501   2.334
 4555SOL    HW114231   3.413   2.562   2.407
 4555SOL    HW214232   3.494   2.553   2.265
 4556SOL     OW14233   2.216   3.372   3.191
 4556SOL    HW114234   2.195   3.328   3.104
 4556SOL    HW214235   2.313   3.398   3.194
 4557SOL     OW14236   2.264   2.613   3.460
 4557SOL    HW114237   2.332   2.668   3.413
 4557SOL    HW214238   2.304   2.525   3.487
 4558SOL     OW14239   3.449   2.641   3.532
 4558SOL    HW114240   3.357   2.679   3.527
 4558SOL    HW214241   3.509   2.688   3.467
 4559SOL     OW14242   2.875   1.967   3.632
 4559SOL    HW114243   2.881   2.052   3.580
 4559SOL    HW214244   2.907   1.891   3.575
 4560SOL     OW14245   2.366   1.912   3.602
 4560SOL    HW114246   2.324   1.855   3.532
 4560SOL    HW214247   2.300   1.981   3.634
 4561SOL     OW14248   2.435   2.732   2.891
 4561SOL    HW114249   2.479   2.821   2.882
 4561SOL    HW214250   2.372   2.732   2.968
 4562SOL     OW14251   3.222   2.724   2.907
 4562SOL    HW114252   3.147   2.724   2.841
 4562SOL    HW214253   3.259   2.632   2.916
 4563SOL     OW14254   3.071   2.387   2.137
 4563SOL    HW114255   3.084   2.303   2.191
 4563SOL    HW214256   3.042   2.461   2.197
 4564SOL     OW14257   1.899   3.172   3.144
 4564SOL    HW114258   1.952   3.123   3.212
 4564SOL    HW214259   1.921   3.270   3.149
 4565SOL     OW14260   2.594   2.496   2.926
 4565SOL    HW114261   2.653   2.470   2.850
 4565SOL    HW214262   2.566   2.592   2.915
 4566SOL     OW14263   3.590   2.797   3.716
 4566SOL    HW114264   3.544   2.790   3.627
 4566SOL    HW214265   3.528   2.841   3.782
 4567SOL     OW14266   3.484   2.229   2.236
 4567SOL    HW114267   3.486   2.153   2.300
 4567SOL    HW214268   3.436   2.306   2.276
 4568SOL     OW14269   2.885   2.628   2.828
 4568SOL    HW114270   2.900   2.649   2.924
 4568SOL    HW214271   2.855   2.533   2.819
 4569SOL     OW14272   2.842   3.435   3.562
 4569SOL    HW114273   2.822   3.479   3.474
 4569SOL    HW214274   2.881   3.344   3.546
 4570SOL     OW14275   3.721   3.380   3.467
 4570SOL    HW114276   3.735   3.407   3.372
 4570SOL    HW214277   3.804   3.402   3.520
 4571SOL     OW14278   2.212   2.760   3.666
 4571SOL    HW114279   2.288   2.804   3.714
 4571SOL    HW214280   2.247   2.713   3.584
 4572SOL     OW14281   3.402   2.136   1.987
 4572SOL    HW114282   3.341   2.061   2.010
 4572SOL    HW214283   3.424   2.188   2.070
 4573SOL     OW14284   3.165   2.700   1.904
 4573SOL    HW114285   3.199   2.607   1.919
 4573SOL    HW214286   3.183   2.727   1.809
 4574SOL     OW14287   2.930   3.195   2.711
 4574SOL    HW114288   2.937   3.111   2.656
 4574SOL    HW214289   2.992   3.264   2.675
 4575SOL     OW14290   2.181   2.672   2.811
 4575SOL    HW114291   2.274   2.708   2.816
 4575SOL    HW214292   2.175   2.587   2.863
 4576SOL     OW14293   3.000   2.242   3.540
 4576SOL    HW114294   2.955   2.305   3.604
 4576SOL    HW214295   3.093   2.273   3.523
 4577SOL     OW14296   3.022   2.069   3.339
 4577SOL    HW114297   3.022   2.133   3.416
 4577SOL    HW214298   3.050   2.117   3.256
 4578SOL     OW14299   1.870   3.188   2.062
 4578SOL    HW114300   1.777   3.209   2.031
 4578SOL    HW214301   1.880   3.089   2.075
 4579SOL     OW14302   1.950   3.663   2.789
 4579SOL    HW114303   1.908   3.577   2.762
 4579SOL    HW214304   2.044   3.666   2.755
 4580SOL     OW14305   2.366   3.430   2.772
 4580SOL    HW114306   2.432   3.504   2.781
 4580SOL    HW214307   2.410   3.351   2.730
 4581SOL     OW14308   2.864   2.658   3.100
 4581SOL    HW114309   2.905   2.626   3.186
 4581SOL    HW214310   2.768   2.631   3.097
 4582SOL     OW14311   1.902   2.406   2.976
 4582SOL    HW114312   1.987   2.373   2.935
 4582SOL    HW214313   1.915   2.421   3.074
 4583SOL     OW14314   3.231   2.812   3.522
 4583SOL    HW114315   3.270   2.901   3.542
 4583SOL    HW214316   3.241   2.792   3.425
 4584SOL     OW14317   2.677   2.434   2.187
 4584SOL    HW114318   2.684   2.345   2.141
 4584SOL    HW214319   2.583   2.468   2.179
 4585SOL     OW14320   3.519   2.466   3.068
 4585SOL    HW114321   3.481   2.397   3.130
 4585SOL    HW214322   3.601   2.430   3.024
 4586SOL     OW14323   2.114   3.426   3.606
 4586SOL    HW114324   2.084   3.483   3.682
 4586SOL    HW214325   2.107   3.329   3.632
 4587SOL     OW14326   2.792   3.540   3.327
 4587SOL    HW114327   2.768   3.522   3.232
 4587SOL    HW214328   2.822   3.634   3.337
 4588SOL     OW14329   2.021   2.999   3.328
 4588SOL    HW114330   2.043   2.938   3.404
 4588SOL    HW214331   2.031   2.950   3.242
 4589SOL     OW14332   3.209   2.921   3.096
 4589SOL    HW114333   3.233   2.858   3.022
 4589SOL    HW214334   3.119   2.961   3.078
 4590SOL     OW14335   3.164   2.717   2.171
 4590SOL    HW114336   3.078   2.686   2.213
 4590SOL    HW214337   3.160   2.703   2.072
 4591SOL     OW14338   3.621   3.609   3.016
 4591SOL    HW114339   3.682   3.639   2.943
 4591SOL    HW214340   3.583   3.520   2.994
 4592SOL     OW14341   3.114   3.593   2.990
 4592SOL    HW114342   3.198   3.598   2.936
 4592SOL    HW214343   3.091   3.497   3.008
 4593SOL     OW14344   1.945   3.120   2.884
 4593SOL    HW114345   1.940   3.119   2.984
 4593SOL    HW214346   1.862   3.079   2.846
 4594SOL     OW14347   2.550   3.524   3.578
 4594SOL    HW114348   2.494   3.605   3.587
 4594SOL    HW214349   2.602   3.528   3.492
 4595SOL     OW14350   3.588   1.997   2.385
 4595SOL    HW114351   3.661   1.980   2.318
 4595SOL    HW214352   3.557   1.910   2.423
 4596SOL     OW14353   3.250   3.435   2.339
 4596SOL    HW114354   3.317   3.447   2.265
 4596SOL    HW214355   3.210   3.524   2.362
 4597SOL     OW14356   1.992   3.656   3.713
 4597SOL    HW114357   1.951   3.582   3.766
 4597SOL    HW214358   2.056   3.707   3.771
 4598SOL     OW14359   3.142   2.789   2.534
 4598SOL    HW114360   3.202   2.708   2.536
 4598SOL    HW214361   3.182   2.858   2.474
 4599SOL     OW14362   2.692   3.135   3.284
 4599SOL    HW114363   2.687   3.168   3.379
 4599SOL    HW214364   2.606   3.154   3.238
 4600SOL     OW14365   2.534   3.478   2.016
 4600SOL    HW114366   2.543   3.488   1.917
 4600SOL    HW214367   2.494   3.389   2.037
 4601SOL     OW14368   3.512   3.582   3.256
 4601SOL    HW114369   3.565   3.592   3.172
 4601SOL    HW214370   3.485   3.672   3.290
 4602SOL     OW14371   3.703   2.037   2.825
 4602SOL    HW114372   3.742   1.952   2.789
 4602SOL    HW214373   3.605   2.039   2.806
 4603SOL     OW14374   3.056   3.474   1.893
 4603SOL    HW114375   3.062   3.381   1.930
 4603SOL    HW214376   2.997   3.474   1.813
 4604SOL     OW14377   2.684   2.864   3.234
 4604SOL    HW114378   2.724   2.863   3.142
 4604SOL    HW214379   2.694   2.956   3.274
 4605SOL     OW14380   2.778   2.772   2.153
 4605SOL    HW114381   2.841   2.810   2.085
 4605SOL    HW214382   2.818   2.689   2.192
 4606SOL     OW14383   3.366   3.469   1.906
 4606SOL    HW114384   3.274   3.506   1.913
 4606SOL    HW214385   3.404   3.489   1.816
 4607SOL     OW14386   2.234   3.150   3.352
 4607SOL    HW114387   2.221   3.243   3.318
 4607SOL    HW214388   2.150   3.098   3.339
 4608SOL     OW14389   3.476   3.154   3.151
 4608SOL    HW114390   3.536   3.157   3.231
 4608SOL    HW214391   3.401   3.218   3.164
 4609SOL     OW14392   2.901   2.960   2.558
 4609SOL    HW114393   2.831   2.913   2.612
 4609SOL    HW214394   2.960   2.892   2.515
 4610SOL     OW14395   2.876   2.098   2.833
 4610SOL    HW114396   2.868   2.062   2.740
 4610SOL    HW214397   2.874   2.022   2.898
 4611SOL     OW14398   2.452   3.349   2.353
 4611SOL    HW114399   2.494   3.291   2.283
 4611SOL    HW214400   2.408   3.428   2.309
 4612SOL     OW14401   3.571   2.247   3.243
 4612SOL    HW114402   3.644   2.316   3.247
 4612SOL    HW214403   3.599   2.172   3.184
 4613SOL     OW14404   2.117   3.210   2.152
 4613SOL    HW114405   2.021   3.211   2.125
 4613SOL    HW214406   2.129   3.263   2.236
 4614SOL     OW14407   1.967   2.875   3.588
 4614SOL    HW114408   1.890   2.842   3.642
 4614SOL    HW214409   2.052   2.845   3.630
 4615SOL     OW14410   2.534   2.065   3.351
 4615SOL    HW114411   2.624   2.049   3.311
 4615SOL    HW214412   2.542   2.070   3.450
 4616SOL     OW14413   1.937   2.207   1.895
 4616SOL    HW114414   1.845   2.179   1.866
 4616SOL    HW214415   1.968   2.284   1.839
 4617SOL     OW14416   3.302   2.718   3.260
 4617SOL    HW114417   3.245   2.770   3.197
 4617SOL    HW214418   3.398   2.730   3.236
 4618SOL     OW14419   1.934   2.028   2.180
 4618SOL    HW114420   1.917   2.111   2.126
 4618SOL    HW214421   2.024   1.991   2.158
 4619SOL     OW14422   3.045   3.197   1.981
 4619SOL    HW114423   2.946   3.186   1.983
 4619SOL    HW214424   3.079   3.212   2.074
 4620SOL     OW14425   2.475   2.704   3.293
 4620SOL    HW114426   2.531   2.785   3.276
 4620SOL    HW214427   2.534   2.624   3.296
 4621SOL     OW14428   3.355   3.629   2.821
 4621SOL    HW114429   3.388   3.693   2.752
 4621SOL    HW214430   3.421   3.623   2.896
 4622SOL     OW14431   2.578   2.427   3.570
 4622SOL    HW114432   2.597   2.492   3.644
 4622SOL    HW214433   2.638   2.347   3.579
 4623SOL     OW14434   3.312   3.082   3.495
 4623SOL    HW114435   3.303   3.072   3.594
 4623SOL    HW214436   3.408   3.075   3.469
 4624SOL     OW14437   2.252   3.603   3.422
 4624SOL    HW114438   2.161   3.644   3.420
 4624SOL    HW214439   2.245   3.509   3.454
 4625SOL     OW14440   3.536   2.745   3.116
 4625SOL    HW114441   3.509   2.656   3.079
 4625SOL    HW214442   3.537   2.813   3.043
 4626SOL     OW14443   3.087   2.187   2.311
 4626SOL    HW114444   3.152   2.113   2.300
 4626SOL    HW214445   3.107   2.237   2.395
 4627SOL     OW14446   2.456   2.607   2.514
 4627SOL    HW114447   2.506   2.692   2.495
 4627SOL    HW214448   2.368   2.609   2.466
 4628SOL     OW14449   3.639   2.204   3.504
 4628SOL    HW114450   3.622   2.235   3.410
 4628SOL    HW214451   3.555   2.167   3.542
 4629SOL     OW14452   3.592   2.796   3.379
 4629SOL    HW114453   3.630   2.887   3.394
 4629SOL    HW214454   3.584   2.779   3.280
 4630SOL     OW14455   2.721   3.236   1.878
 4630SOL    HW114456   2.675   3.251   1.966
 4630SOL    HW214457   2.765   3.321   1.848
 4631SOL     OW14458   2.523   3.652   2.815
 4631SOL    HW114459   2.477   3.740   2.802
 4631SOL    HW214460   2.622   3.664   2.808
 4632SOL     OW14461   2.721   2.818   2.723
 4632SOL    HW114462   2.775   2.749   2.771
 4632SOL    HW214463   2.689   2.887   2.789
 4633SOL     OW14464   2.945   2.846   1.949
 4633SOL    HW114465   2.922   2.899   1.867
 4633SOL    HW214466   3.026   2.790   1.930
 4634SOL     OW14467   3.723   3.431   2.713
 4634SOL    HW114468   3.652   3.419   2.643
 4634SOL    HW214469   3.724   3.352   2.773
 4635SOL     OW14470   2.083   3.176   3.706
 4635SOL    HW114471   2.018   3.103   3.685
 4635SOL    HW214472   2.087   3.190   3.804
 4636SOL     OW14473   1.941   3.102   2.515
 4636SOL    HW114474   1.940   3.055   2.603
 4636SOL    HW214475   2.023   3.074   2.464
 4637SOL     OW14476   2.534   3.253   3.486
 4637SOL    HW114477   2.456   3.203   3.524
 4637SOL    HW214478   2.531   3.348   3.517
 4638SOL     OW14479   3.686   2.054   3.089
 4638SOL    HW114480   3.682   1.964   3.133
 4638SOL    HW214481   3.689   2.043   2.990
 4639SOL     OW14482   3.567   3.349   2.966
 4639SOL    HW114483   3.474   3.324   2.939
 4639SOL    HW214484   3.593   3.299   3.048
 4640SOL     OW14485   2.674   3.448   2.549
 4640SOL    HW114486   2.706   3.458   2.455
 4640SOL    HW214487   2.595   3.386   2.551
 4641SOL     OW14488   3.286   2.076   2.974
 4641SOL    HW114489   3.338   2.011   3.029
 4641SOL    HW214490   3.237   2.139   3.035
 4642SOL     OW14491   2.863   1.896   3.016
 4642SOL    HW114492   2.800   1.824   2.985
 4642SOL    HW214493   2.956   1.860   3.016
 4643SOL     OW14494   2.632   3.192   2.163
 4643SOL    HW114495   2.586   3.105   2.180
 4643SOL    HW214496   2.723   3.189   2.204
 4644SOL     OW14497   2.480   3.429   3.146
 4644SOL    HW114498   2.475   3.511   3.203
 4644SOL    HW214499   2.569   3.426   3.101
 4645SOL     OW14500   3.214   1.914   2.030
 4645SOL    HW114501   3.249   1.873   1.946
 4645SOL    HW214502   3.124   1.876   2.050
 4646SOL     OW14503   3.162   2.315   2.553
 4646SOL    HW114504   3.103   2.395   2.557
 4646SOL    HW214505   3.177   2.280   2.646
 4647SOL     OW14506   3.455   2.083   2.744
 4647SOL    HW114507   3.371   2.082   2.798
 4647SOL    HW214508   3.457   2.166   2.688
 4648SOL     OW14509   1.901   2.939   2.162
 4648SOL    HW114510   2.000   2.928   2.153
 4648SOL    HW214511   1.861   2.853   2.194
 4649SOL     OW14512   2.737   3.508   2.199
 4649SOL    HW114513   2.660   3.473   2.145
 4649SOL    HW214514   2.705   3.579   2.261
 4650SOL     OW14515   2.092   2.490   3.837
 4650SOL    HW114516   1.999   2.488   3.874
 4650SOL    HW214517   2.093   2.451   3.745
 4651SOL     OW14518   1.881   2.230   4.371
 4651SOL    HW114519   1.799   2.273   4.410
 4651SOL    HW214520   1.853   2.157   4.308
 4652SOL     OW14521   2.431   3.137   4.889
 4652SOL    HW114522   2.338   3.130   4.852
 4652SOL    HW214523   2.442   3.226   4.933
 4653SOL     OW14524   3.417   3.373   4.427
 4653SOL    HW114525   3.360   3.357   4.508
 4653SOL    HW214526   3.358   3.383   4.347
 4654SOL     OW14527   2.997   2.565   4.441
 4654SOL    HW114528   3.054   2.643   4.416
 4654SOL    HW214529   2.937   2.591   4.517
 4655SOL     OW14530   3.617   2.469   3.955
 4655SOL    HW114531   3.605   2.456   3.856
 4655SOL    HW214532   3.587   2.388   4.004
 4656SOL     OW14533   2.712   2.660   5.547
 4656SOL    HW114534   2.708   2.736   5.612
 4656SOL    HW214535   2.734   2.696   5.456
 4657SOL     OW14536   2.547   2.874   4.389
 4657SOL    HW114537   2.616   2.858   4.459
 4657SOL    HW214538   2.474   2.931   4.427
 4658SOL     OW14539   2.548   3.023   5.527
 4658SOL    HW114540   2.608   3.102   5.541
 4658SOL    HW214541   2.462   3.054   5.486
 4659SOL     OW14542   2.197   3.297   4.785
 4659SOL    HW114543   2.119   3.266   4.732
 4659SOL    HW214544   2.255   3.355   4.728
 4660SOL     OW14545   3.322   3.367   5.063
 4660SOL    HW114546   3.346   3.461   5.089
 4660SOL    HW214547   3.306   3.313   5.145
 4661SOL     OW14548   3.465   2.309   4.461
 4661SOL    HW114549   3.391   2.355   4.411
 4661SOL    HW214550   3.516   2.377   4.514
 4662SOL     OW14551   2.093   3.575   4.207
 4662SOL    HW114552   2.127   3.652   4.261
 4662SOL    HW214553   2.137   3.575   4.117
 4663SOL     OW14554   2.989   3.203   5.414
 4663SOL    HW114555   3.036   3.203   5.502
 4663SOL    HW214556   2.941   3.116   5.403
 4664SOL     OW14557   2.092   3.296   4.262
 4664SOL    HW114558   2.066   3.392   4.262
 4664SOL    HW214559   2.021   3.242   4.307
 4665SOL     OW14560   2.482   3.648   5.163
 4665SOL    HW114561   2.390   3.631   5.198
 4665SOL    HW214562   2.510   3.740   5.189
 4666SOL     OW14563   2.468   2.826   3.847
 4666SOL    HW114564   2.475   2.910   3.793
 4666SOL    HW214565   2.514   2.839   3.935
 4667SOL     OW14566   3.456   1.976   5.204
 4667SOL    HW114567   3.438   2.043   5.132
 4667SOL    HW214568   3.453   2.022   5.293
 4668SOL     OW14569   1.984   2.505   4.287
 4668SOL    HW114570   1.939   2.417   4.304
 4668SOL    HW214571   1.983   2.559   4.371
 4669SOL     OW14572   3.704   3.629   4.083
 4669SOL    HW114573   3.758   3.600   4.163
 4669SOL    HW214574   3.734   3.719   4.054
 4670SOL     OW14575   1.889   3.458   3.841
 4670SOL    HW114576   1.870   3.362   3.862
 4670SOL    HW214577   1.856   3.516   3.916
 4671SOL     OW14578   3.551   2.784   4.336
 4671SOL    HW114579   3.646   2.755   4.344
 4671SOL    HW214580   3.543   2.849   4.261
 4672SOL     OW14581   3.503   2.970   4.156
 4672SOL    HW114582   3.589   2.972   4.104
 4672SOL    HW214583   3.517   3.017   4.244
 4673SOL     OW14584   2.475   3.227   4.450
 4673SOL    HW114585   2.426   3.140   4.459
 4673SOL    HW214586   2.452   3.270   4.363
 4674SOL     OW14587   3.155   3.090   5.147
 4674SOL    HW114588   3.192   3.017   5.089
 4674SOL    HW214589   3.207   3.095   5.232
 4675SOL     OW14590   2.671   1.866   4.226
 4675SOL    HW114591   2.711   1.957   4.217
 4675SOL    HW214592   2.571   1.874   4.232
 4676SOL     OW14593   3.387   2.861   3.914
 4676SOL    HW114594   3.324   2.785   3.927
 4676SOL    HW214595   3.435   2.879   4.000
 4677SOL     OW14596   3.049   3.654   5.340
 4677SOL    HW114597   3.073   3.714   5.264
 4677SOL    HW214598   3.056   3.559   5.310
 4678SOL     OW14599   3.328   3.279   4.677
 4678SOL    HW114600   3.269   3.285   4.757
 4678SOL    HW214601   3.313   3.191   4.631
 4679SOL     OW14602   3.529   3.576   4.296
 4679SOL    HW114603   3.488   3.553   4.208
 4679SOL    HW214604   3.511   3.502   4.361
 4680SOL     OW14605   2.460   2.591   3.994
 4680SOL    HW114606   2.484   2.660   3.926
 4680SOL    HW214607   2.382   2.624   4.048
 4681SOL     OW14608   3.438   3.524   4.031
 4681SOL    HW114609   3.527   3.570   4.034
 4681SOL    HW214610   3.417   3.500   3.936
 4682SOL     OW14611   3.256   2.331   5.398
 4682SOL    HW114612   3.236   2.374   5.486
 4682SOL    HW214613   3.334   2.269   5.407
 4683SOL     OW14614   2.835   2.752   5.296
 4683SOL    HW114615   2.881   2.668   5.267
 4683SOL    HW214616   2.779   2.786   5.221
 4684SOL     OW14617   2.903   2.563   4.153
 4684SOL    HW114618   2.929   2.559   4.249
 4684SOL    HW214619   2.818   2.512   4.139
 4685SOL     OW14620   1.938   2.673   4.513
 4685SOL    HW114621   2.037   2.661   4.522
 4685SOL    HW214622   1.914   2.768   4.534
 4686SOL     OW14623   1.992   3.683   5.295
 4686SOL    HW114624   1.982   3.668   5.394
 4686SOL    HW214625   1.906   3.719   5.259
 4687SOL     OW14626   2.727   2.210   3.919
 4687SOL    HW114627   2.786   2.273   3.870
 4687SOL    HW214628   2.746   2.116   3.890
 4688SOL     OW14629   3.581   2.447   5.555
 4688SOL    HW114630   3.555   2.536   5.519
 4688SOL    HW214631   3.579   2.379   5.482
 4689SOL     OW14632   3.224   3.006   4.269
 4689SOL    HW114633   3.307   2.977   4.221
 4689SOL    HW214634   3.175   3.073   4.213
 4690SOL     OW14635   2.870   3.318   4.201
 4690SOL    HW114636   2.824   3.390   4.149
 4690SOL    HW214637   2.866   3.338   4.299
 4691SOL     OW14638   2.213   3.663   4.577
 4691SOL    HW114639   2.263   3.577   4.583
 4691SOL    HW214640   2.278   3.740   4.574
 4692SOL     OW14641   3.657   2.928   4.597
 4692SOL    HW114642   3.595   2.913   4.521
 4692SOL    HW214643   3.605   2.939   4.682
 4693SOL     OW14644   3.089   3.412   5.230
 4693SOL    HW114645   3.095   3.335   5.294
 4693SOL    HW214646   3.037   3.386   5.150
 4694SOL     OW14647   2.183   2.805   3.966
 4694SOL    HW114648   2.265   2.844   3.924
 4694SOL    HW214649   2.156   2.723   3.917
 4695SOL     OW14650   3.320   2.597   4.452
 4695SOL    HW114651   3.315   2.532   4.527
 4695SOL    HW214652   3.400   2.656   4.465
 4696SOL     OW14653   2.323   3.128   5.451
 4696SOL    HW114654   2.273   3.129   5.365
 4696SOL    HW214655   2.260   3.110   5.527
 4697SOL     OW14656   2.973   3.638   3.961
 4697SOL    HW114657   2.913   3.576   4.011
 4697SOL    HW214658   3.004   3.594   3.876
 4698SOL     OW14659   3.494   3.239   3.805
 4698SOL    HW114660   3.462   3.333   3.795
 4698SOL    HW214661   3.418   3.176   3.793
 4699SOL     OW14662   2.326   3.605   4.047
 4699SOL    HW114663   2.359   3.644   4.133
 4699SOL    HW214664   2.402   3.598   3.982
 4700SOL     OW14665   3.262   1.969   4.150
 4700SOL    HW114666   3.238   1.932   4.060
 4700SOL    HW214667   3.361   1.985   4.154
 4701SOL     OW14668   2.111   3.647   4.965
 4701SOL    HW114669   2.168   3.582   5.015
 4701SOL    HW214670   2.095   3.614   4.872
 4702SOL     OW14671   2.802   3.560   4.628
 4702SOL    HW114672   2.882   3.503   4.649
 4702SOL    HW214673   2.753   3.520   4.551
 4703SOL     OW14674   2.244   2.562   4.204
 4703SOL    HW114675   2.289   2.472   4.201
 4703SOL    HW214676   2.150   2.551   4.237
 4704SOL     OW14677   3.409   2.084   5.453
 4704SOL    HW114678   3.404   2.121   5.545
 4704SOL    HW214679   3.337   2.015   5.441
 4705SOL     OW14680   2.476   1.984   3.841
 4705SOL    HW114681   2.574   1.962   3.848
 4705SOL    HW214682   2.445   1.967   3.748
 4706SOL     OW14683   2.750   3.376   4.919
 4706SOL    HW114684   2.727   3.351   4.825
 4706SOL    HW214685   2.811   3.307   4.958
 4707SOL     OW14686   3.213   2.452   5.157
 4707SOL    HW114687   3.241   2.409   5.242
 4707SOL    HW214688   3.238   2.548   5.158
 4708SOL     OW14689   2.665   3.264   4.648
 4708SOL    HW114690   2.755   3.278   4.606
 4708SOL    HW214691   2.594   3.266   4.577
 4709SOL     OW14692   2.401   1.926   4.236
 4709SOL    HW114693   2.320   1.927   4.294
 4709SOL    HW214694   2.404   2.009   4.181
 4710SOL     OW14695   3.296   3.050   3.765
 4710SOL    HW114696   3.328   2.974   3.822
 4710SOL    HW214697   3.204   3.077   3.795
 4711SOL     OW14698   2.159   1.897   3.895
 4711SOL    HW114699   2.208   1.981   3.874
 4711SOL    HW214700   2.221   1.832   3.940
 4712SOL     OW14701   2.797   2.098   4.204
 4712SOL    HW114702   2.749   2.139   4.126
 4712SOL    HW214703   2.896   2.096   4.185
 4713SOL     OW14704   3.089   3.432   4.517
 4713SOL    HW114705   3.110   3.506   4.452
 4713SOL    HW214706   3.157   3.432   4.590
 4714SOL     OW14707   2.321   3.014   4.465
 4714SOL    HW114708   2.250   2.987   4.530
 4714SOL    HW214709   2.295   2.986   4.372
 4715SOL     OW14710   3.133   3.659   4.315
 4715SOL    HW114711   3.177   3.723   4.251
 4715SOL    HW214712   3.083   3.711   4.385
 4716SOL     OW14713   2.894   2.411   3.740
 4716SOL    HW114714   2.853   2.493   3.701
 4716SOL    HW214715   2.958   2.437   3.813
 4717SOL     OW14716   2.728   2.316   4.366
 4717SOL    HW114717   2.696   2.388   4.304
 4717SOL    HW214718   2.752   2.235   4.313
 4718SOL     OW14719   2.879   1.901   4.477
 4718SOL    HW114720   2.807   1.906   4.408
 4718SOL    HW214721   2.855   1.832   4.546
 4719SOL     OW14722   3.291   3.035   4.591
 4719SOL    HW114723   3.236   2.951   4.584
 4719SOL    HW214724   3.317   3.064   4.499
 4720SOL     OW14725   3.328   2.452   4.716
 4720SOL    HW114726   3.298   2.357   4.723
 4720SOL    HW214727   3.401   2.468   4.782
 4721SOL     OW14728   3.719   2.695   4.101
 4721SOL    HW114729   3.761   2.631   4.165
 4721SOL    HW214730   3.681   2.644   4.023
 4722SOL     OW14731   2.350   3.247   3.898
 4722SOL    HW114732   2.263   3.232   3.945
 4722SOL    HW214733   2.333   3.273   3.803
 4723SOL     OW14734   3.526   3.142   4.381
 4723SOL    HW114735   3.625   3.150   4.395
 4723SOL    HW214736   3.481   3.226   4.412
 4724SOL     OW14737   3.252   2.437   3.802
 4724SOL    HW114738   3.198   2.416   3.883
 4724SOL    HW214739   3.343   2.396   3.811
 4725SOL     OW14740   3.616   3.085   5.312
 4725SOL    HW114741   3.707   3.046   5.299
 4725SOL    HW214742   3.624   3.181   5.336
 4726SOL     OW14743   2.926   3.209   5.064
 4726SOL    HW114744   2.846   3.186   5.119
 4726SOL    HW214745   3.009   3.183   5.113
 4727SOL     OW14746   3.454   3.491   5.349
 4727SOL    HW114747   3.481   3.525   5.259
 4727SOL    HW214748   3.533   3.453   5.395
 4728SOL     OW14749   2.973   3.057   4.824
 4728SOL    HW114750   2.933   3.101   4.905
 4728SOL    HW214751   2.932   3.094   4.741
 4729SOL     OW14752   3.500   2.961   4.803
 4729SOL    HW114753   3.505   3.042   4.862
 4729SOL    HW214754   3.414   2.963   4.752
 4730SOL     OW14755   2.842   2.978   5.443
 4730SOL    HW114756   2.743   2.984   5.453
 4730SOL    HW214757   2.865   2.898   5.387
 4731SOL     OW14758   2.567   2.912   4.092
 4731SOL    HW114759   2.553   2.919   4.191
 4731SOL    HW214760   2.651   2.861   4.074
 4732SOL     OW14761   1.926   3.426   5.055
 4732SOL    HW114762   1.880   3.508   5.021
 4732SOL    HW214763   2.024   3.445   5.064
 4733SOL     OW14764   2.229   2.962   4.225
 4733SOL    HW114765   2.222   3.045   4.169
 4733SOL    HW214766   2.233   2.882   4.165
 4734SOL     OW14767   3.114   3.210   4.112
 4734SOL    HW114768   3.164   3.287   4.152
 4734SOL    HW214769   3.019   3.212   4.144
 4735SOL     OW14770   3.134   3.307   4.866
 4735SOL    HW114771   3.181   3.320   4.953
 4735SOL    HW214772   3.068   3.233   4.875
 4736SOL     OW14773   3.444   2.501   4.196
 4736SOL    HW114774   3.413   2.562   4.269
 4736SOL    HW214775   3.494   2.553   4.127
 4737SOL     OW14776   2.216   3.372   5.053
 4737SOL    HW114777   2.195   3.328   4.966
 4737SOL    HW214778   2.313   3.398   5.056
 4738SOL     OW14779   3.449   2.641   5.394
 4738SOL    HW114780   3.357   2.679   5.389
 4738SOL    HW214781   3.509   2.688   5.329
 4739SOL     OW14782   2.875   1.967   5.494
 4739SOL    HW114783   2.881   2.052   5.442
 4739SOL    HW214784   2.907   1.891   5.437
 4740SOL     OW14785   3.222   2.724   4.769
 4740SOL    HW114786   3.147   2.724   4.703
 4740SOL    HW214787   3.259   2.632   4.778
 4741SOL     OW14788   3.071   2.387   3.999
 4741SOL    HW114789   3.084   2.303   4.053
 4741SOL    HW214790   3.042   2.461   4.059
 4742SOL     OW14791   1.899   3.172   5.006
 4742SOL    HW114792   1.952   3.123   5.074
 4742SOL    HW214793   1.921   3.270   5.011
 4743SOL     OW14794   3.590   2.797   5.578
 4743SOL    HW114795   3.544   2.790   5.489
 4743SOL    HW214796   3.528   2.841   5.644
 4744SOL     OW14797   2.169   1.925   4.342
 4744SOL    HW114798   2.158   2.019   4.375
 4744SOL    HW214799   2.164   1.862   4.419
 4745SOL     OW14800   3.484   2.229   4.098
 4745SOL    HW114801   3.486   2.153   4.162
 4745SOL    HW214802   3.436   2.306   4.138
 4746SOL     OW14803   2.842   3.435   5.424
 4746SOL    HW114804   2.822   3.479   5.336
 4746SOL    HW214805   2.881   3.344   5.408
 4747SOL     OW14806   3.721   3.380   5.329
 4747SOL    HW114807   3.735   3.407   5.234
 4747SOL    HW214808   3.804   3.402   5.382
 4748SOL     OW14809   3.402   2.136   3.849
 4748SOL    HW114810   3.341   2.061   3.872
 4748SOL    HW214811   3.424   2.188   3.932
 4749SOL     OW14812   3.165   2.700   3.766
 4749SOL    HW114813   3.199   2.607   3.781
 4749SOL    HW214814   3.183   2.727   3.671
 4750SOL     OW14815   2.930   3.195   4.573
 4750SOL    HW114816   2.937   3.111   4.518
 4750SOL    HW214817   2.992   3.264   4.537
 4751SOL     OW14818   3.022   2.069   5.201
 4751SOL    HW114819   3.022   2.133   5.278
 4751SOL    HW214820   3.050   2.117   5.118
 4752SOL     OW14821   1.870   3.188   3.924
 4752SOL    HW114822   1.777   3.209   3.893
 4752SOL    HW214823   1.880   3.089   3.937
 4753SOL     OW14824   1.950   3.663   4.651
 4753SOL    HW114825   1.908   3.577   4.624
 4753SOL    HW214826   2.044   3.666   4.617
 4754SOL     OW14827   2.366   3.430   4.634
 4754SOL    HW114828   2.432   3.504   4.643
 4754SOL    HW214829   2.410   3.351   4.592
 4755SOL     OW14830   3.231   2.812   5.384
 4755SOL    HW114831   3.270   2.901   5.404
 4755SOL    HW214832   3.241   2.792   5.287
 4756SOL     OW14833   2.677   2.434   4.049
 4756SOL    HW114834   2.684   2.345   4.003
 4756SOL    HW214835   2.583   2.468   4.041
 4757SOL     OW14836   3.519   2.466   4.930
 4757SOL    HW114837   3.481   2.397   4.992
 4757SOL    HW214838   3.601   2.430   4.886
 4758SOL     OW14839   2.114   3.426   5.468
 4758SOL    HW114840   2.084   3.483   5.544
 4758SOL    HW214841   2.107   3.329   5.494
 4759SOL     OW14842   2.792   3.540   5.189
 4759SOL    HW114843   2.768   3.522   5.094
 4759SOL    HW214844   2.822   3.634   5.199
 4760SOL     OW14845   2.021   2.999   5.190
 4760SOL    HW114846   2.043   2.938   5.266
 4760SOL    HW214847   2.031   2.950   5.104
 4761SOL     OW14848   3.209   2.921   4.958
 4761SOL    HW114849   3.233   2.858   4.884
 4761SOL    HW214850   3.119   2.961   4.940
 4762SOL     OW14851   3.164   2.717   4.033
 4762SOL    HW114852   3.078   2.686   4.075
 4762SOL    HW214853   3.160   2.703   3.934
 4763SOL     OW14854   3.621   3.609   4.878
 4763SOL    HW114855   3.682   3.639   4.805
 4763SOL    HW214856   3.583   3.520   4.856
 4764SOL     OW14857   3.114   3.593   4.852
 4764SOL    HW114858   3.198   3.598   4.798
 4764SOL    HW214859   3.091   3.497   4.870
 4765SOL     OW14860   2.550   3.524   5.440
 4765SOL    HW114861   2.494   3.605   5.449
 4765SOL    HW214862   2.602   3.528   5.354
 4766SOL     OW14863   3.588   1.997   4.247
 4766SOL    HW114864   3.661   1.980   4.180
 4766SOL    HW214865   3.557   1.910   4.285
 4767SOL     OW14866   3.250   3.435   4.201
 4767SOL    HW114867   3.317   3.447   4.127
 4767SOL    HW214868   3.210   3.524   4.224
 4768SOL     OW14869   1.992   3.656   5.575
 4768SOL    HW114870   1.951   3.582   5.628
 4768SOL    HW214871   2.056   3.707   5.633
 4769SOL     OW14872   3.142   2.789   4.396
 4769SOL    HW114873   3.202   2.708   4.398
 4769SOL    HW214874   3.182   2.858   4.336
 4770SOL     OW14875   2.692   3.135   5.146
 4770SOL    HW114876   2.687   3.168   5.241
 4770SOL    HW214877   2.606   3.154   5.100
 4771SOL     OW14878   2.534   3.478   3.878
 4771SOL    HW114879   2.543   3.488   3.779
 4771SOL    HW214880   2.494   3.389   3.899
 4772SOL     OW14881   3.512   3.582   5.118
 4772SOL    HW114882   3.565   3.592   5.034
 4772SOL    HW214883   3.485   3.672   5.152
 4773SOL     OW14884   3.703   2.037   4.687
 4773SOL    HW114885   3.742   1.952   4.651
 4773SOL    HW214886   3.605   2.039   4.668
 4774SOL     OW14887   3.056   3.474   3.755
 4774SOL    HW114888   3.062   3.381   3.792
 4774SOL    HW214889   2.997   3.474   3.675
 4775SOL     OW14890   2.778   2.772   4.015
 4775SOL    HW114891   2.841   2.810   3.947
 4775SOL    HW214892   2.818   2.689   4.054
 4776SOL     OW14893   3.366   3.469   3.768
 4776SOL    HW114894   3.274   3.506   3.775
 4776SOL    HW214895   3.404   3.489   3.678
 4777SOL     OW14896   2.234   3.150   5.214
 4777SOL    HW114897   2.221   3.243   5.180
 4777SOL    HW214898   2.150   3.098   5.201
 4778SOL     OW14899   3.476   3.154   5.013
 4778SOL    HW114900   3.536   3.157   5.093
 4778SOL    HW214901   3.401   3.218   5.026
 4779SOL     OW14902   2.901   2.960   4.420
 4779SOL    HW114903   2.831   2.913   4.474
 4779SOL    HW214904   2.960   2.892   4.377
 4780SOL     OW14905   2.452   3.349   4.215
 4780SOL    HW114906   2.494   3.291   4.145
 4780SOL    HW214907   2.408   3.428   4.171
 4781SOL     OW14908   3.571   2.247   5.105
 4781SOL    HW114909   3.644   2.316   5.109
 4781SOL    HW214910   3.599   2.172   5.046
 4782SOL     OW14911   2.117   3.210   4.014
 4782SOL    HW114912   2.021   3.211   3.987
 4782SOL    HW214913   2.129   3.263   4.098
 4783SOL     OW14914   1.967   2.875   5.450
 4783SOL    HW114915   1.890   2.842   5.504
 4783SOL    HW214916   2.052   2.845   5.492
 4784SOL     OW14917   1.937   2.207   3.757
 4784SOL    HW114918   1.845   2.179   3.728
 4784SOL    HW214919   1.968   2.284   3.701
 4785SOL     OW14920   3.302   2.718   5.122
 4785SOL    HW114921   3.245   2.770   5.059
 4785SOL    HW214922   3.398   2.730   5.098
 4786SOL     OW14923   1.934   2.028   4.042
 4786SOL    HW114924   1.917   2.111   3.988
 4786SOL    HW214925   2.024   1.991   4.020
 4787SOL     OW14926   3.045   3.197   3.843
 4787SOL    HW114927   2.946   3.186   3.845
 4787SOL    HW214928   3.079   3.212   3.936
 4788SOL     OW14929   3.355   3.629   4.683
 4788SOL    HW114930   3.388   3.693   4.614
 4788SOL    HW214931   3.421   3.623   4.758
 4789SOL     OW14932   3.312   3.082   5.357
 4789SOL    HW114933   3.303   3.072   5.456
 4789SOL    HW214934   3.408   3.075   5.331
 4790SOL     OW14935   2.252   3.603   5.284
 4790SOL    HW114936   2.161   3.644   5.282
 4790SOL    HW214937   2.245   3.509   5.316
 4791SOL     OW14938   3.536   2.745   4.978
 4791SOL    HW114939   3.509   2.656   4.941
 4791SOL    HW214940   3.537   2.813   4.905
 4792SOL     OW14941   3.087   2.187   4.173
 4792SOL    HW114942   3.152   2.113   4.162
 4792SOL    HW214943   3.107   2.237   4.257
 4793SOL     OW14944   2.456   2.607   4.376
 4793SOL    HW114945   2.506   2.692   4.357
 4793SOL    HW214946   2.368   2.609   4.328
 4794SOL     OW14947   3.639   2.204   5.366
 4794SOL    HW114948   3.622   2.235   5.272
 4794SOL    HW214949   3.555   2.167   5.404
 4795SOL     OW14950   3.592   2.796   5.241
 4795SOL    HW114951   3.630   2.887   5.256
 4795SOL    HW214952   3.584   2.779   5.142
 4796SOL     OW14953   2.721   3.236   3.740
 4796SOL    HW114954   2.675   3.251   3.828
 4796SOL    HW214955   2.765   3.321   3.710
 4797SOL     OW14956   2.523   3.652   4.677
 4797SOL    HW114957   2.477   3.740   4.664
 4797SOL    HW214958   2.622   3.664   4.670
 4798SOL     OW14959   2.945   2.846   3.811
 4798SOL    HW114960   2.922   2.899   3.729
 4798SOL    HW214961   3.026   2.790   3.792
 4799SOL     OW14962   3.723   3.431   4.575
 4799SOL    HW114963   3.652   3.419   4.505
 4799SOL    HW214964   3.724   3.352   4.635
 4800SOL     OW14965   2.083   3.176   5.568
 4800SOL    HW114966   2.018   3.103   5.547
 4800SOL    HW214967   2.087   3.190   5.666
 4801SOL     OW14968   1.941   3.102   4.377
 4801SOL    HW114969   1.940   3.055   4.465
 4801SOL    HW214970   2.023   3.074   4.326
 4802SOL     OW14971   2.534   3.253   5.348
 4802SOL    HW114972   2.456   3.203   5.386
 4802SOL    HW214973   2.531   3.348   5.379
 4803SOL     OW14974   3.686   2.054   4.951
 4803SOL    HW114975   3.682   1.964   4.995
 4803SOL    HW214976   3.689   2.043   4.852
 4804SOL     OW14977   3.567   3.349   4.828
 4804SOL    HW114978   3.474   3.324   4.801
 4804SOL    HW214979   3.593   3.299   4.910
 4805SOL     OW14980   2.674   3.448   4.411
 4805SOL    HW114981   2.706   3.458   4.317
 4805SOL    HW214982   2.595   3.386   4.413
 4806SOL     OW14983   3.286   2.076   4.836
 4806SOL    HW114984   3.338   2.011   4.891
 4806SOL    HW214985   3.237   2.139   4.897
 4807SOL     OW14986   2.632   3.192   4.025
 4807SOL    HW114987   2.586   3.105   4.042
 4807SOL    HW214988   2.723   3.189   4.066
 4808SOL     OW14989   2.480   3.429   5.008
 4808SOL    HW114990   2.475   3.511   5.065
 4808SOL    HW214991   2.569   3.426   4.963
 4809SOL     OW14992   3.214   1.914   3.892
 4809SOL    HW114993   3.249   1.873   3.808
 4809SOL    HW214994   3.124   1.876   3.912
 4810SOL     OW14995   3.162   2.315   4.415
 4810SOL    HW114996   3.103   2.395   4.419
 4810SOL    HW214997   3.177   2.280   4.508
 4811SOL     OW14998   3.455   2.083   4.606
 4811SOL    HW114999   3.371   2.082   4.660
 4811SOL    HW215000   3.457   2.166   4.550
 4812SOL     OW15001   1.901   2.939   4.024
 4812SOL    HW115002   2.000   2.928   4.015
 4812SOL    HW215003   1.861   2.853   4.056
 4813SOL     OW15004   2.737   3.508   4.061
 4813SOL    HW115005   2.660   3.473   4.007
 4813SOL    HW215006   2.705   3.579   4.123
 4814SOL     OW15007   2.431   3.137   6.751
 4814SOL    HW115008   2.338   3.130   6.714
 4814SOL    HW215009   2.442   3.226   6.795
 4815SOL     OW15010   3.417   3.373   6.289
 4815SOL    HW115011   3.360   3.357   6.370
 4815SOL    HW215012   3.358   3.383   6.209
 4816SOL     OW15013   2.997   2.565   6.303
 4816SOL    HW115014   3.054   2.643   6.278
 4816SOL    HW215015   2.937   2.591   6.379
 4817SOL     OW15016   3.617   2.469   5.817
 4817SOL    HW115017   3.605   2.456   5.718
 4817SOL    HW215018   3.587   2.388   5.866
 4818SOL     OW15019   2.630   3.006   6.609
 4818SOL    HW115020   2.552   3.023   6.669
 4818SOL    HW215021   2.664   3.093   6.573
 4819SOL     OW15022   2.712   2.660   7.409
 4819SOL    HW115023   2.708   2.736   7.474
 4819SOL    HW215024   2.734   2.696   7.318
 4820SOL     OW15025   2.547   2.874   6.251
 4820SOL    HW115026   2.616   2.858   6.321
 4820SOL    HW215027   2.474   2.931   6.289
 4821SOL     OW15028   2.548   3.023   7.389
 4821SOL    HW115029   2.608   3.102   7.403
 4821SOL    HW215030   2.462   3.054   7.348
 4822SOL     OW15031   2.197   3.297   6.647
 4822SOL    HW115032   2.119   3.266   6.594
 4822SOL    HW215033   2.255   3.355   6.590
 4823SOL     OW15034   3.322   3.367   6.925
 4823SOL    HW115035   3.346   3.461   6.951
 4823SOL    HW215036   3.306   3.313   7.007
 4824SOL     OW15037   3.465   2.309   6.323
 4824SOL    HW115038   3.391   2.355   6.273
 4824SOL    HW215039   3.516   2.377   6.376
 4825SOL     OW15040   2.093   3.575   6.069
 4825SOL    HW115041   2.127   3.652   6.123
 4825SOL    HW215042   2.137   3.575   5.979
 4826SOL     OW15043   2.989   3.203   7.276
 4826SOL    HW115044   3.036   3.203   7.364
 4826SOL    HW215045   2.941   3.116   7.265
 4827SOL     OW15046   2.092   3.296   6.124
 4827SOL    HW115047   2.066   3.392   6.124
 4827SOL    HW215048   2.021   3.242   6.169
 4828SOL     OW15049   2.102   2.953   6.472
 4828SOL    HW115050   2.116   2.869   6.524
 4828SOL    HW215051   2.047   3.017   6.527
 4829SOL     OW15052   2.482   3.648   7.025
 4829SOL    HW115053   2.390   3.631   7.060
 4829SOL    HW215054   2.510   3.740   7.051
 4830SOL     OW15055   3.456   1.976   7.066
 4830SOL    HW115056   3.438   2.043   6.994
 4830SOL    HW215057   3.453   2.022   7.155
 4831SOL     OW15058   3.704   3.629   5.945
 4831SOL    HW115059   3.758   3.600   6.025
 4831SOL    HW215060   3.734   3.719   5.916
 4832SOL     OW15061   1.889   3.458   5.703
 4832SOL    HW115062   1.870   3.362   5.724
 4832SOL    HW215063   1.856   3.516   5.778
 4833SOL     OW15064   3.551   2.784   6.198
 4833SOL    HW115065   3.646   2.755   6.206
 4833SOL    HW215066   3.543   2.849   6.123
 4834SOL     OW15067   3.503   2.970   6.018
 4834SOL    HW115068   3.589   2.972   5.966
 4834SOL    HW215069   3.517   3.017   6.106
 4835SOL     OW15070   1.975   2.599   7.183
 4835SOL    HW115071   2.063   2.586   7.228
 4835SOL    HW215072   1.962   2.696   7.161
 4836SOL     OW15073   2.475   3.227   6.312
 4836SOL    HW115074   2.426   3.140   6.321
 4836SOL    HW215075   2.452   3.270   6.225
 4837SOL     OW15076   3.155   3.090   7.009
 4837SOL    HW115077   3.192   3.017   6.951
 4837SOL    HW215078   3.207   3.095   7.094
 4838SOL     OW15079   2.059   2.838   6.850
 4838SOL    HW115080   2.148   2.793   6.836
 4838SOL    HW215081   1.986   2.773   6.831
 4839SOL     OW15082   3.387   2.861   5.776
 4839SOL    HW115083   3.324   2.785   5.789
 4839SOL    HW215084   3.435   2.879   5.862
 4840SOL     OW15085   3.049   3.654   7.202
 4840SOL    HW115086   3.073   3.714   7.126
 4840SOL    HW215087   3.056   3.559   7.172
 4841SOL     OW15088   3.328   3.279   6.539
 4841SOL    HW115089   3.269   3.285   6.619
 4841SOL    HW215090   3.313   3.191   6.493
 4842SOL     OW15091   3.529   3.576   6.158
 4842SOL    HW115092   3.488   3.553   6.070
 4842SOL    HW215093   3.511   3.502   6.223
 4843SOL     OW15094   3.143   2.207   6.530
 4843SOL    HW115095   3.057   2.157   6.517
 4843SOL    HW215096   3.205   2.153   6.586
 4844SOL     OW15097   3.438   3.524   5.893
 4844SOL    HW115098   3.527   3.570   5.896
 4844SOL    HW215099   3.417   3.500   5.798
 4845SOL     OW15100   2.669   2.467   7.051
 4845SOL    HW115101   2.622   2.464   7.140
 4845SOL    HW215102   2.618   2.412   6.985
 4846SOL     OW15103   3.256   2.331   7.260
 4846SOL    HW115104   3.236   2.374   7.348
 4846SOL    HW215105   3.334   2.269   7.269
 4847SOL     OW15106   2.835   2.752   7.158
 4847SOL    HW115107   2.881   2.668   7.129
 4847SOL    HW215108   2.779   2.786   7.083
 4848SOL     OW15109   2.853   2.272   6.828
 4848SOL    HW115110   2.776   2.306   6.882
 4848SOL    HW215111   2.819   2.221   6.749
 4849SOL     OW15112   1.992   3.683   7.157
 4849SOL    HW115113   1.982   3.668   7.256
 4849SOL    HW215114   1.906   3.719   7.121
 4850SOL     OW15115   3.581   2.447   7.417
 4850SOL    HW115116   3.555   2.536   7.381
 4850SOL    HW215117   3.579   2.379   7.344
 4851SOL     OW15118   3.224   3.006   6.131
 4851SOL    HW115119   3.307   2.977   6.083
 4851SOL    HW215120   3.175   3.073   6.075
 4852SOL     OW15121   2.412   2.058   6.471
 4852SOL    HW115122   2.407   2.053   6.571
 4852SOL    HW215123   2.414   2.154   6.442
 4853SOL     OW15124   2.870   3.318   6.063
 4853SOL    HW115125   2.824   3.390   6.011
 4853SOL    HW215126   2.866   3.338   6.161
 4854SOL     OW15127   2.213   3.663   6.439
 4854SOL    HW115128   2.263   3.577   6.445
 4854SOL    HW215129   2.278   3.740   6.436
 4855SOL     OW15130   3.657   2.928   6.459
 4855SOL    HW115131   3.595   2.913   6.383
 4855SOL    HW215132   3.605   2.939   6.544
 4856SOL     OW15133   3.089   3.412   7.092
 4856SOL    HW115134   3.095   3.335   7.156
 4856SOL    HW215135   3.037   3.386   7.012
 4857SOL     OW15136   3.320   2.597   6.314
 4857SOL    HW115137   3.315   2.532   6.389
 4857SOL    HW215138   3.400   2.656   6.327
 4858SOL     OW15139   2.323   3.128   7.313
 4858SOL    HW115140   2.273   3.129   7.227
 4858SOL    HW215141   2.260   3.110   7.389
 4859SOL     OW15142   2.973   3.638   5.823
 4859SOL    HW115143   2.913   3.576   5.873
 4859SOL    HW215144   3.004   3.594   5.738
 4860SOL     OW15145   3.494   3.239   5.667
 4860SOL    HW115146   3.462   3.333   5.657
 4860SOL    HW215147   3.418   3.176   5.655
 4861SOL     OW15148   2.326   3.605   5.909
 4861SOL    HW115149   2.359   3.644   5.995
 4861SOL    HW215150   2.402   3.598   5.844
 4862SOL     OW15151   3.262   1.969   6.012
 4862SOL    HW115152   3.238   1.932   5.922
 4862SOL    HW215153   3.361   1.985   6.016
 4863SOL     OW15154   2.111   3.647   6.827
 4863SOL    HW115155   2.168   3.582   6.877
 4863SOL    HW215156   2.095   3.614   6.734
 4864SOL     OW15157   2.802   3.560   6.490
 4864SOL    HW115158   2.882   3.503   6.511
 4864SOL    HW215159   2.753   3.520   6.413
 4865SOL     OW15160   3.409   2.084   7.315
 4865SOL    HW115161   3.404   2.121   7.407
 4865SOL    HW215162   3.337   2.015   7.303
 4866SOL     OW15163   2.643   2.126   7.335
 4866SOL    HW115164   2.710   2.065   7.378
 4866SOL    HW215165   2.570   2.145   7.400
 4867SOL     OW15166   2.750   3.376   6.781
 4867SOL    HW115167   2.727   3.351   6.687
 4867SOL    HW215168   2.811   3.307   6.820
 4868SOL     OW15169   3.213   2.452   7.019
 4868SOL    HW115170   3.241   2.409   7.104
 4868SOL    HW215171   3.238   2.548   7.020
 4869SOL     OW15172   2.665   3.264   6.510
 4869SOL    HW115173   2.755   3.278   6.468
 4869SOL    HW215174   2.594   3.266   6.439
 4870SOL     OW15175   3.296   3.050   5.627
 4870SOL    HW115176   3.328   2.974   5.684
 4870SOL    HW215177   3.204   3.077   5.657
 4871SOL     OW15178   2.938   2.545   7.050
 4871SOL    HW115179   2.858   2.484   7.053
 4871SOL    HW215180   3.019   2.492   7.026
 4872SOL     OW15181   3.089   3.432   6.379
 4872SOL    HW115182   3.110   3.506   6.314
 4872SOL    HW215183   3.157   3.432   6.452
 4873SOL     OW15184   2.321   3.014   6.327
 4873SOL    HW115185   2.250   2.987   6.392
 4873SOL    HW215186   2.295   2.986   6.234
 4874SOL     OW15187   3.133   3.659   6.177
 4874SOL    HW115188   3.177   3.723   6.113
 4874SOL    HW215189   3.083   3.711   6.247
 4875SOL     OW15190   1.940   2.418   6.972
 4875SOL    HW115191   2.032   2.417   6.931
 4875SOL    HW215192   1.934   2.492   7.039
 4876SOL     OW15193   2.423   2.084   6.733
 4876SOL    HW115194   2.461   2.000   6.770
 4876SOL    HW215195   2.335   2.103   6.777
 4877SOL     OW15196   2.879   1.901   6.339
 4877SOL    HW115197   2.807   1.906   6.270
 4877SOL    HW215198   2.855   1.832   6.408
 4878SOL     OW15199   3.291   3.035   6.453
 4878SOL    HW115200   3.236   2.951   6.446
 4878SOL    HW215201   3.317   3.064   6.361
 4879SOL     OW15202   3.328   2.452   6.578
 4879SOL    HW115203   3.298   2.357   6.585
 4879SOL    HW215204   3.401   2.468   6.644
 4880SOL     OW15205   3.719   2.695   5.963
 4880SOL    HW115206   3.761   2.631   6.027
 4880SOL    HW215207   3.681   2.644   5.885
 4881SOL     OW15208   2.350   3.247   5.760
 4881SOL    HW115209   2.263   3.232   5.807
 4881SOL    HW215210   2.333   3.273   5.665
 4882SOL     OW15211   3.526   3.142   6.243
 4882SOL    HW115212   3.625   3.150   6.257
 4882SOL    HW215213   3.481   3.226   6.274
 4883SOL     OW15214   3.252   2.437   5.664
 4883SOL    HW115215   3.198   2.416   5.745
 4883SOL    HW215216   3.343   2.396   5.673
 4884SOL     OW15217   3.616   3.085   7.174
 4884SOL    HW115218   3.707   3.046   7.161
 4884SOL    HW215219   3.624   3.181   7.198
 4885SOL     OW15220   2.926   3.209   6.926
 4885SOL    HW115221   2.846   3.186   6.981
 4885SOL    HW215222   3.009   3.183   6.975
 4886SOL     OW15223   3.454   3.491   7.211
 4886SOL    HW115224   3.481   3.525   7.121
 4886SOL    HW215225   3.533   3.453   7.257
 4887SOL     OW15226   2.973   3.057   6.686
 4887SOL    HW115227   2.933   3.101   6.767
 4887SOL    HW215228   2.932   3.094   6.603
 4888SOL     OW15229   3.500   2.961   6.665
 4888SOL    HW115230   3.505   3.042   6.724
 4888SOL    HW215231   3.414   2.963   6.614
 4889SOL     OW15232   2.777   1.951   6.988
 4889SOL    HW115233   2.802   1.931   6.893
 4889SOL    HW215234   2.849   2.007   7.030
 4890SOL     OW15235   2.842   2.978   7.305
 4890SOL    HW115236   2.743   2.984   7.315
 4890SOL    HW215237   2.865   2.898   7.249
 4891SOL     OW15238   2.272   2.675   6.837
 4891SOL    HW115239   2.358   2.687   6.887
 4891SOL    HW215240   2.230   2.588   6.864
 4892SOL     OW15241   3.136   2.248   6.848
 4892SOL    HW115242   3.157   2.322   6.912
 4892SOL    HW215243   3.047   2.265   6.805
 4893SOL     OW15244   1.926   3.426   6.917
 4893SOL    HW115245   1.880   3.508   6.883
 4893SOL    HW215246   2.024   3.445   6.926
 4894SOL     OW15247   2.428   2.399   6.451
 4894SOL    HW115248   2.440   2.465   6.377
 4894SOL    HW215249   2.474   2.433   6.534
 4895SOL     OW15250   3.114   3.210   5.974
 4895SOL    HW115251   3.164   3.287   6.014
 4895SOL    HW215252   3.019   3.212   6.006
 4896SOL     OW15253   3.134   3.307   6.728
 4896SOL    HW115254   3.181   3.320   6.815
 4896SOL    HW215255   3.068   3.233   6.737
 4897SOL     OW15256   3.444   2.501   6.058
 4897SOL    HW115257   3.413   2.562   6.131
 4897SOL    HW215258   3.494   2.553   5.989
 4898SOL     OW15259   2.216   3.372   6.915
 4898SOL    HW115260   2.195   3.328   6.828
 4898SOL    HW215261   2.313   3.398   6.918
 4899SOL     OW15262   2.264   2.613   7.184
 4899SOL    HW115263   2.332   2.668   7.137
 4899SOL    HW215264   2.304   2.525   7.211
 4900SOL     OW15265   3.449   2.641   7.256
 4900SOL    HW115266   3.357   2.679   7.251
 4900SOL    HW215267   3.509   2.688   7.191
 4901SOL     OW15268   2.875   1.967   7.356
 4901SOL    HW115269   2.881   2.052   7.304
 4901SOL    HW215270   2.907   1.891   7.299
 4902SOL     OW15271   2.366   1.912   7.326
 4902SOL    HW115272   2.324   1.855   7.256
 4902SOL    HW215273   2.300   1.981   7.358
 4903SOL     OW15274   3.222   2.724   6.631
 4903SOL    HW115275   3.147   2.724   6.565
 4903SOL    HW215276   3.259   2.632   6.640
 4904SOL     OW15277   1.899   3.172   6.868
 4904SOL    HW115278   1.952   3.123   6.936
 4904SOL    HW215279   1.921   3.270   6.873
 4905SOL     OW15280   2.594   2.496   6.650
 4905SOL    HW115281   2.653   2.470   6.574
 4905SOL    HW215282   2.566   2.592   6.639
 4906SOL     OW15283   3.590   2.797   7.440
 4906SOL    HW115284   3.544   2.790   7.351
 4906SOL    HW215285   3.528   2.841   7.506
 4907SOL     OW15286   3.484   2.229   5.960
 4907SOL    HW115287   3.486   2.153   6.024
 4907SOL    HW215288   3.436   2.306   6.000
 4908SOL     OW15289   2.885   2.628   6.552
 4908SOL    HW115290   2.900   2.649   6.648
 4908SOL    HW215291   2.855   2.533   6.543
 4909SOL     OW15292   2.842   3.435   7.286
 4909SOL    HW115293   2.822   3.479   7.198
 4909SOL    HW215294   2.881   3.344   7.270
 4910SOL     OW15295   3.721   3.380   7.191
 4910SOL    HW115296   3.735   3.407   7.096
 4910SOL    HW215297   3.804   3.402   7.244
 4911SOL     OW15298   2.212   2.760   7.390
 4911SOL    HW115299   2.288   2.804   7.438
 4911SOL    HW215300   2.247   2.713   7.308
 4912SOL     OW15301   3.402   2.136   5.711
 4912SOL    HW115302   3.341   2.061   5.734
 4912SOL    HW215303   3.424   2.188   5.794
 4913SOL     OW15304   3.165   2.700   5.628
 4913SOL    HW115305   3.199   2.607   5.643
 4913SOL    HW215306   3.183   2.727   5.533
 4914SOL     OW15307   2.930   3.195   6.435
 4914SOL    HW115308   2.937   3.111   6.380
 4914SOL    HW215309   2.992   3.264   6.399
 4915SOL     OW15310   3.000   2.242   7.264
 4915SOL    HW115311   2.955   2.305   7.328
 4915SOL    HW215312   3.093   2.273   7.247
 4916SOL     OW15313   3.022   2.069   7.063
 4916SOL    HW115314   3.022   2.133   7.140
 4916SOL    HW215315   3.050   2.117   6.980
 4917SOL     OW15316   1.870   3.188   5.786
 4917SOL    HW115317   1.777   3.209   5.755
 4917SOL    HW215318   1.880   3.089   5.799
 4918SOL     OW15319   1.950   3.663   6.513
 4918SOL    HW115320   1.908   3.577   6.486
 4918SOL    HW215321   2.044   3.666   6.479
 4919SOL     OW15322   2.366   3.430   6.496
 4919SOL    HW115323   2.432   3.504   6.505
 4919SOL    HW215324   2.410   3.351   6.454
 4920SOL     OW15325   2.864   2.658   6.824
 4920SOL    HW115326   2.905   2.626   6.910
 4920SOL    HW215327   2.768   2.631   6.821
 4921SOL     OW15328   3.231   2.812   7.246
 4921SOL    HW115329   3.270   2.901   7.266
 4921SOL    HW215330   3.241   2.792   7.149
 4922SOL     OW15331   3.519   2.466   6.792
 4922SOL    HW115332   3.481   2.397   6.854
 4922SOL    HW215333   3.601   2.430   6.748
 4923SOL     OW15334   2.114   3.426   7.330
 4923SOL    HW115335   2.084   3.483   7.406
 4923SOL    HW215336   2.107   3.329   7.356
 4924SOL     OW15337   2.792   3.540   7.051
 4924SOL    HW115338   2.768   3.522   6.956
 4924SOL    HW215339   2.822   3.634   7.061
 4925SOL     OW15340   2.021   2.999   7.052
 4925SOL    HW115341   2.043   2.938   7.128
 4925SOL    HW215342   2.031   2.950   6.966
 4926SOL     OW15343   3.209   2.921   6.820
 4926SOL    HW115344   3.233   2.858   6.746
 4926SOL    HW215345   3.119   2.961   6.802
 4927SOL     OW15346   3.164   2.717   5.895
 4927SOL    HW115347   3.078   2.686   5.937
 4927SOL    HW215348   3.160   2.703   5.796
 4928SOL     OW15349   3.621   3.609   6.740
 4928SOL    HW115350   3.682   3.639   6.667
 4928SOL    HW215351   3.583   3.520   6.718
 4929SOL     OW15352   3.114   3.593   6.714
 4929SOL    HW115353   3.198   3.598   6.660
 4929SOL    HW215354   3.091   3.497   6.732
 4930SOL     OW15355   1.945   3.120   6.608
 4930SOL    HW115356   1.940   3.119   6.708
 4930SOL    HW215357   1.862   3.079   6.570
 4931SOL     OW15358   2.550   3.524   7.302
 4931SOL    HW115359   2.494   3.605   7.311
 4931SOL    HW215360   2.602   3.528   7.216
 4932SOL     OW15361   3.588   1.997   6.109
 4932SOL    HW115362   3.661   1.980   6.042
 4932SOL    HW215363   3.557   1.910   6.147
 4933SOL     OW15364   3.250   3.435   6.063
 4933SOL    HW115365   3.317   3.447   5.989
 4933SOL    HW215366   3.210   3.524   6.086
 4934SOL     OW15367   1.992   3.656   7.437
 4934SOL    HW115368   1.951   3.582   7.490
 4934SOL    HW215369   2.056   3.707   7.495
 4935SOL     OW15370   3.142   2.789   6.258
 4935SOL    HW115371   3.202   2.708   6.260
 4935SOL    HW215372   3.182   2.858   6.198
 4936SOL     OW15373   2.692   3.135   7.008
 4936SOL    HW115374   2.687   3.168   7.103
 4936SOL    HW215375   2.606   3.154   6.962
 4937SOL     OW15376   2.534   3.478   5.740
 4937SOL    HW115377   2.543   3.488   5.641
 4937SOL    HW215378   2.494   3.389   5.761
 4938SOL     OW15379   3.512   3.582   6.980
 4938SOL    HW115380   3.565   3.592   6.896
 4938SOL    HW215381   3.485   3.672   7.014
 4939SOL     OW15382   3.703   2.037   6.549
 4939SOL    HW115383   3.742   1.952   6.513
 4939SOL    HW215384   3.605   2.039   6.530
 4940SOL     OW15385   3.056   3.474   5.617
 4940SOL    HW115386   3.062   3.381   5.654
 4940SOL    HW215387   2.997   3.474   5.537
 4941SOL     OW15388   2.684   2.864   6.958
 4941SOL    HW115389   2.724   2.863   6.866
 4941SOL    HW215390   2.694   2.956   6.998
 4942SOL     OW15391   3.366   3.469   5.630
 4942SOL    HW115392   3.274   3.506   5.637
 4942SOL    HW215393   3.404   3.489   5.540
 4943SOL     OW15394   2.234   3.150   7.076
 4943SOL    HW115395   2.221   3.243   7.042
 4943SOL    HW215396   2.150   3.098   7.063
 4944SOL     OW15397   3.476   3.154   6.875
 4944SOL    HW115398   3.536   3.157   6.955
 4944SOL    HW215399   3.401   3.218   6.888
 4945SOL     OW15400   2.901   2.960   6.282
 4945SOL    HW115401   2.831   2.913   6.336
 4945SOL    HW215402   2.960   2.892   6.239
 4946SOL     OW15403   2.876   2.098   6.557
 4946SOL    HW115404   2.868   2.062   6.464
 4946SOL    HW215405   2.874   2.022   6.622
 4947SOL     OW15406   2.452   3.349   6.077
 4947SOL    HW115407   2.494   3.291   6.007
 4947SOL    HW215408   2.408   3.428   6.033
 4948SOL     OW15409   3.571   2.247   6.967
 4948SOL    HW115410   3.644   2.316   6.971
 4948SOL    HW215411   3.599   2.172   6.908
 4949SOL     OW15412   2.117   3.210   5.876
 4949SOL    HW115413   2.021   3.211   5.849
 4949SOL    HW215414   2.129   3.263   5.960
 4950SOL     OW15415   1.967   2.875   7.312
 4950SOL    HW115416   1.890   2.842   7.366
 4950SOL    HW215417   2.052   2.845   7.354
 4951SOL     OW15418   2.534   2.065   7.075
 4951SOL    HW115419   2.624   2.049   7.035
 4951SOL    HW215420   2.542   2.070   7.174
 4952SOL     OW15421   3.302   2.718   6.984
 4952SOL    HW115422   3.245   2.770   6.921
 4952SOL    HW215423   3.398   2.730   6.960
 4953SOL     OW15424   3.045   3.197   5.705
 4953SOL    HW115425   2.946   3.186   5.707
 4953SOL    HW215426   3.079   3.212   5.798
 4954SOL     OW15427   2.475   2.704   7.017
 4954SOL    HW115428   2.531   2.785   7.000
 4954SOL    HW215429   2.534   2.624   7.020
 4955SOL     OW15430   3.355   3.629   6.545
 4955SOL    HW115431   3.388   3.693   6.476
 4955SOL    HW215432   3.421   3.623   6.620
 4956SOL     OW15433   2.578   2.427   7.294
 4956SOL    HW115434   2.597   2.492   7.368
 4956SOL    HW215435   2.638   2.347   7.303
 4957SOL     OW15436   3.312   3.082   7.219
 4957SOL    HW115437   3.303   3.072   7.318
 4957SOL    HW215438   3.408   3.075   7.193
 4958SOL     OW15439   2.252   3.603   7.146
 4958SOL    HW115440   2.161   3.644   7.144
 4958SOL    HW215441   2.245   3.509   7.178
 4959SOL     OW15442   3.536   2.745   6.840
 4959SOL    HW115443   3.509   2.656   6.803
 4959SOL    HW215444   3.537   2.813   6.767
 4960SOL     OW15445   3.087   2.187   6.035
 4960SOL    HW115446   3.152   2.113   6.024
 4960SOL    HW215447   3.107   2.237   6.119
 4961SOL     OW15448   3.639   2.204   7.228
 4961SOL    HW115449   3.622   2.235   7.134
 4961SOL    HW215450   3.555   2.167   7.266
 4962SOL     OW15451   3.592   2.796   7.103
 4962SOL    HW115452   3.630   2.887   7.118
 4962SOL    HW215453   3.584   2.779   7.004
 4963SOL     OW15454   2.721   3.236   5.602
 4963SOL    HW115455   2.675   3.251   5.690
 4963SOL    HW215456   2.765   3.321   5.572
 4964SOL     OW15457   2.523   3.652   6.539
 4964SOL    HW115458   2.477   3.740   6.526
 4964SOL    HW215459   2.622   3.664   6.532
 4965SOL     OW15460   2.721   2.818   6.447
 4965SOL    HW115461   2.775   2.749   6.495
 4965SOL    HW215462   2.689   2.887   6.513
 4966SOL     OW15463   2.945   2.846   5.673
 4966SOL    HW115464   2.922   2.899   5.591
 4966SOL    HW215465   3.026   2.790   5.654
 4967SOL     OW15466   3.723   3.431   6.437
 4967SOL    HW115467   3.652   3.419   6.367
 4967SOL    HW215468   3.724   3.352   6.497
 4968SOL     OW15469   2.083   3.176   7.430
 4968SOL    HW115470   2.018   3.103   7.409
 4968SOL    HW215471   2.087   3.190   7.528
 4969SOL     OW15472   1.941   3.102   6.239
 4969SOL    HW115473   1.940   3.055   6.327
 4969SOL    HW215474   2.023   3.074   6.188
 4970SOL     OW15475   2.534   3.253   7.210
 4970SOL    HW115476   2.456   3.203   7.248
 4970SOL    HW215477   2.531   3.348   7.241
 4971SOL     OW15478   3.686   2.054   6.813
 4971SOL    HW115479   3.682   1.964   6.857
 4971SOL    HW215480   3.689   2.043   6.714
 4972SOL     OW15481   3.567   3.349   6.690
 4972SOL    HW115482   3.474   3.324   6.663
 4972SOL    HW215483   3.593   3.299   6.772
 4973SOL     OW15484   2.674   3.448   6.273
 4973SOL    HW115485   2.706   3.458   6.179
 4973SOL    HW215486   2.595   3.386   6.275
 4974SOL     OW15487   3.286   2.076   6.698
 4974SOL    HW115488   3.338   2.011   6.753
 4974SOL    HW215489   3.237   2.139   6.759
 4975SOL     OW15490   2.863   1.896   6.740
 4975SOL    HW115491   2.800   1.824   6.709
 4975SOL    HW215492   2.956   1.860   6.740
 4976SOL     OW15493   2.632   3.192   5.887
 4976SOL    HW115494   2.586   3.105   5.904
 4976SOL    HW215495   2.723   3.189   5.928
 4977SOL     OW15496   2.480   3.429   6.870
 4977SOL    HW115497   2.475   3.511   6.927
 4977SOL    HW215498   2.569   3.426   6.825
 4978SOL     OW15499   3.214   1.914   5.754
 4978SOL    HW115500   3.249   1.873   5.670
 4978SOL    HW215501   3.124   1.876   5.774
 4979SOL     OW15502   3.162   2.315   6.277
 4979SOL    HW115503   3.103   2.395   6.281
 4979SOL    HW215504   3.177   2.280   6.370
 4980SOL     OW15505   3.455   2.083   6.468
 4980SOL    HW115506   3.371   2.082   6.522
 4980SOL    HW215507   3.457   2.166   6.412
 4981SOL     OW15508   2.737   3.508   5.923
 4981SOL    HW115509   2.660   3.473   5.869
 4981SOL    HW215510   2.705   3.579   5.985
 4982SOL     OW15511   2.092   2.490   7.561
 4982SOL    HW115512   1.999   2.488   7.598
 4982SOL    HW215513   2.093   2.451   7.469
 4983SOL     OW15514   1.881   2.230   8.095
 4983SOL    HW115515   1.799   2.273   8.134
 4983SOL    HW215516   1.853   2.157   8.032
 4984SOL     OW15517   2.431   3.137   8.613
 4984SOL    HW115518   2.338   3.130   8.576
 4984SOL    HW215519   2.442   3.226   8.657
 4985SOL     OW15520   3.417   3.373   8.151
 4985SOL    HW115521   3.360   3.357   8.232
 4985SOL    HW215522   3.358   3.383   8.071
 4986SOL     OW15523   2.997   2.565   8.165
 4986SOL    HW115524   3.054   2.643   8.140
 4986SOL    HW215525   2.937   2.591   8.241
 4987SOL     OW15526   3.617   2.469   7.679
 4987SOL    HW115527   3.605   2.456   7.580
 4987SOL    HW215528   3.587   2.388   7.728
 4988SOL     OW15529   2.630   3.006   8.471
 4988SOL    HW115530   2.552   3.023   8.531
 4988SOL    HW215531   2.664   3.093   8.435
 4989SOL     OW15532   2.712   2.660   9.271
 4989SOL    HW115533   2.708   2.736   9.336
 4989SOL    HW215534   2.734   2.696   9.180
 4990SOL     OW15535   2.547   2.874   8.113
 4990SOL    HW115536   2.616   2.858   8.183
 4990SOL    HW215537   2.474   2.931   8.151
 4991SOL     OW15538   2.548   3.023   9.251
 4991SOL    HW115539   2.608   3.102   9.265
 4991SOL    HW215540   2.462   3.054   9.210
 4992SOL     OW15541   2.197   3.297   8.509
 4992SOL    HW115542   2.119   3.266   8.456
 4992SOL    HW215543   2.255   3.355   8.452
 4993SOL     OW15544   3.322   3.367   8.787
 4993SOL    HW115545   3.346   3.461   8.813
 4993SOL    HW215546   3.306   3.313   8.869
 4994SOL     OW15547   3.465   2.309   8.185
 4994SOL    HW115548   3.391   2.355   8.135
 4994SOL    HW215549   3.516   2.377   8.238
 4995SOL     OW15550   2.093   3.575   7.931
 4995SOL    HW115551   2.127   3.652   7.985
 4995SOL    HW215552   2.137   3.575   7.841
 4996SOL     OW15553   2.989   3.203   9.138
 4996SOL    HW115554   3.036   3.203   9.226
 4996SOL    HW215555   2.941   3.116   9.127
 4997SOL     OW15556   2.092   3.296   7.986
 4997SOL    HW115557   2.066   3.392   7.986
 4997SOL    HW215558   2.021   3.242   8.031
 4998SOL     OW15559   2.102   2.953   8.334
 4998SOL    HW115560   2.116   2.869   8.386
 4998SOL    HW215561   2.047   3.017   8.389
 4999SOL     OW15562   2.482   3.648   8.887
 4999SOL    HW115563   2.390   3.631   8.922
 4999SOL    HW215564   2.510   3.740   8.913
 5000SOL     OW15565   2.468   2.826   7.571
 5000SOL    HW115566   2.475   2.910   7.517
 5000SOL    HW215567   2.514   2.839   7.659
 5001SOL     OW15568   3.456   1.976   8.928
 5001SOL    HW115569   3.438   2.043   8.856
 5001SOL    HW215570   3.453   2.022   9.017
 5002SOL     OW15571   1.984   2.505   8.011
 5002SOL    HW115572   1.939   2.417   8.028
 5002SOL    HW215573   1.983   2.559   8.095
 5003SOL     OW15574   3.704   3.629   7.807
 5003SOL    HW115575   3.758   3.600   7.887
 5003SOL    HW215576   3.734   3.719   7.778
 5004SOL     OW15577   1.889   3.458   7.565
 5004SOL    HW115578   1.870   3.362   7.586
 5004SOL    HW215579   1.856   3.516   7.640
 5005SOL     OW15580   3.551   2.784   8.060
 5005SOL    HW115581   3.646   2.755   8.068
 5005SOL    HW215582   3.543   2.849   7.985
 5006SOL     OW15583   3.503   2.970   7.880
 5006SOL    HW115584   3.589   2.972   7.828
 5006SOL    HW215585   3.517   3.017   7.968
 5007SOL     OW15586   1.975   2.599   9.045
 5007SOL    HW115587   2.063   2.586   9.090
 5007SOL    HW215588   1.962   2.696   9.023
 5008SOL     OW15589   2.475   3.227   8.174
 5008SOL    HW115590   2.426   3.140   8.183
 5008SOL    HW215591   2.452   3.270   8.087
 5009SOL     OW15592   3.155   3.090   8.871
 5009SOL    HW115593   3.192   3.017   8.813
 5009SOL    HW215594   3.207   3.095   8.956
 5010SOL     OW15595   2.671   1.866   7.950
 5010SOL    HW115596   2.711   1.957   7.941
 5010SOL    HW215597   2.571   1.874   7.956
 5011SOL     OW15598   2.059   2.838   8.712
 5011SOL    HW115599   2.148   2.793   8.698
 5011SOL    HW215600   1.986   2.773   8.693
 5012SOL     OW15601   3.387   2.861   7.638
 5012SOL    HW115602   3.324   2.785   7.651
 5012SOL    HW215603   3.435   2.879   7.724
 5013SOL     OW15604   3.049   3.654   9.064
 5013SOL    HW115605   3.073   3.714   8.988
 5013SOL    HW215606   3.056   3.559   9.034
 5014SOL     OW15607   3.328   3.279   8.401
 5014SOL    HW115608   3.269   3.285   8.481
 5014SOL    HW215609   3.313   3.191   8.355
 5015SOL     OW15610   3.529   3.576   8.020
 5015SOL    HW115611   3.488   3.553   7.932
 5015SOL    HW215612   3.511   3.502   8.085
 5016SOL     OW15613   2.460   2.591   7.718
 5016SOL    HW115614   2.484   2.660   7.650
 5016SOL    HW215615   2.382   2.624   7.772
 5017SOL     OW15616   3.143   2.207   8.392
 5017SOL    HW115617   3.057   2.157   8.379
 5017SOL    HW215618   3.205   2.153   8.448
 5018SOL     OW15619   3.438   3.524   7.755
 5018SOL    HW115620   3.527   3.570   7.758
 5018SOL    HW215621   3.417   3.500   7.660
 5019SOL     OW15622   2.669   2.467   8.913
 5019SOL    HW115623   2.622   2.464   9.002
 5019SOL    HW215624   2.618   2.412   8.847
 5020SOL     OW15625   3.256   2.331   9.122
 5020SOL    HW115626   3.236   2.374   9.210
 5020SOL    HW215627   3.334   2.269   9.131
 5021SOL     OW15628   2.835   2.752   9.020
 5021SOL    HW115629   2.881   2.668   8.991
 5021SOL    HW215630   2.779   2.786   8.945
 5022SOL     OW15631   2.853   2.272   8.690
 5022SOL    HW115632   2.776   2.306   8.744
 5022SOL    HW215633   2.819   2.221   8.611
 5023SOL     OW15634   2.903   2.563   7.877
 5023SOL    HW115635   2.929   2.559   7.973
 5023SOL    HW215636   2.818   2.512   7.863
 5024SOL     OW15637   1.938   2.673   8.237
 5024SOL    HW115638   2.037   2.661   8.246
 5024SOL    HW215639   1.914   2.768   8.258
 5025SOL     OW15640   1.992   3.683   9.019
 5025SOL    HW115641   1.982   3.668   9.118
 5025SOL    HW215642   1.906   3.719   8.983
 5026SOL     OW15643   2.727   2.210   7.643
 5026SOL    HW115644   2.786   2.273   7.594
 5026SOL    HW215645   2.746   2.116   7.614
 5027SOL     OW15646   3.581   2.447   9.279
 5027SOL    HW115647   3.555   2.536   9.243
 5027SOL    HW215648   3.579   2.379   9.206
 5028SOL     OW15649   3.224   3.006   7.993
 5028SOL    HW115650   3.307   2.977   7.945
 5028SOL    HW215651   3.175   3.073   7.937
 5029SOL     OW15652   2.870   3.318   7.925
 5029SOL    HW115653   2.824   3.390   7.873
 5029SOL    HW215654   2.866   3.338   8.023
 5030SOL     OW15655   2.213   3.663   8.301
 5030SOL    HW115656   2.263   3.577   8.307
 5030SOL    HW215657   2.278   3.740   8.298
 5031SOL     OW15658   3.657   2.928   8.321
 5031SOL    HW115659   3.595   2.913   8.245
 5031SOL    HW215660   3.605   2.939   8.406
 5032SOL     OW15661   3.089   3.412   8.954
 5032SOL    HW115662   3.095   3.335   9.018
 5032SOL    HW215663   3.037   3.386   8.874
 5033SOL     OW15664   2.183   2.805   7.690
 5033SOL    HW115665   2.265   2.844   7.648
 5033SOL    HW215666   2.156   2.723   7.641
 5034SOL     OW15667   3.320   2.597   8.176
 5034SOL    HW115668   3.315   2.532   8.251
 5034SOL    HW215669   3.400   2.656   8.189
 5035SOL     OW15670   2.323   3.128   9.175
 5035SOL    HW115671   2.273   3.129   9.089
 5035SOL    HW215672   2.260   3.110   9.251
 5036SOL     OW15673   2.973   3.638   7.685
 5036SOL    HW115674   2.913   3.576   7.735
 5036SOL    HW215675   3.004   3.594   7.600
 5037SOL     OW15676   2.064   2.147   8.946
 5037SOL    HW115677   1.984   2.207   8.933
 5037SOL    HW215678   2.054   2.098   9.032
 5038SOL     OW15679   3.494   3.239   7.529
 5038SOL    HW115680   3.462   3.333   7.519
 5038SOL    HW215681   3.418   3.176   7.517
 5039SOL     OW15682   2.326   3.605   7.771
 5039SOL    HW115683   2.359   3.644   7.857
 5039SOL    HW215684   2.402   3.598   7.706
 5040SOL     OW15685   3.262   1.969   7.874
 5040SOL    HW115686   3.238   1.932   7.784
 5040SOL    HW215687   3.361   1.985   7.878
 5041SOL     OW15688   2.111   3.647   8.689
 5041SOL    HW115689   2.168   3.582   8.739
 5041SOL    HW215690   2.095   3.614   8.596
 5042SOL     OW15691   2.802   3.560   8.352
 5042SOL    HW115692   2.882   3.503   8.373
 5042SOL    HW215693   2.753   3.520   8.275
 5043SOL     OW15694   3.409   2.084   9.177
 5043SOL    HW115695   3.404   2.121   9.269
 5043SOL    HW215696   3.337   2.015   9.165
 5044SOL     OW15697   2.476   1.984   7.565
 5044SOL    HW115698   2.574   1.962   7.572
 5044SOL    HW215699   2.445   1.967   7.472
 5045SOL     OW15700   2.643   2.126   9.197
 5045SOL    HW115701   2.710   2.065   9.240
 5045SOL    HW215702   2.570   2.145   9.262
 5046SOL     OW15703   2.750   3.376   8.643
 5046SOL    HW115704   2.727   3.351   8.549
 5046SOL    HW215705   2.811   3.307   8.682
 5047SOL     OW15706   3.213   2.452   8.881
 5047SOL    HW115707   3.241   2.409   8.966
 5047SOL    HW215708   3.238   2.548   8.882
 5048SOL     OW15709   2.665   3.264   8.372
 5048SOL    HW115710   2.755   3.278   8.330
 5048SOL    HW215711   2.594   3.266   8.301
 5049SOL     OW15712   2.784   2.365   8.347
 5049SOL    HW115713   2.759   2.356   8.251
 5049SOL    HW215714   2.832   2.283   8.378
 5050SOL     OW15715   2.401   1.926   7.960
 5050SOL    HW115716   2.320   1.927   8.018
 5050SOL    HW215717   2.404   2.009   7.905
 5051SOL     OW15718   3.296   3.050   7.489
 5051SOL    HW115719   3.328   2.974   7.546
 5051SOL    HW215720   3.204   3.077   7.519
 5052SOL     OW15721   2.159   1.897   7.619
 5052SOL    HW115722   2.208   1.981   7.598
 5052SOL    HW215723   2.221   1.832   7.664
 5053SOL     OW15724   2.797   2.098   7.928
 5053SOL    HW115725   2.749   2.139   7.850
 5053SOL    HW215726   2.896   2.096   7.909
 5054SOL     OW15727   2.938   2.545   8.912
 5054SOL    HW115728   2.858   2.484   8.915
 5054SOL    HW215729   3.019   2.492   8.888
 5055SOL     OW15730   3.089   3.432   8.241
 5055SOL    HW115731   3.110   3.506   8.176
 5055SOL    HW215732   3.157   3.432   8.314
 5056SOL     OW15733   2.321   3.014   8.189
 5056SOL    HW115734   2.250   2.987   8.254
 5056SOL    HW215735   2.295   2.986   8.096
 5057SOL     OW15736   3.133   3.659   8.039
 5057SOL    HW115737   3.177   3.723   7.975
 5057SOL    HW215738   3.083   3.711   8.109
 5058SOL     OW15739   2.894   2.411   7.464
 5058SOL    HW115740   2.853   2.493   7.425
 5058SOL    HW215741   2.958   2.437   7.537
 5059SOL     OW15742   1.940   2.418   8.834
 5059SOL    HW115743   2.032   2.417   8.793
 5059SOL    HW215744   1.934   2.492   8.901
 5060SOL     OW15745   2.728   2.316   8.090
 5060SOL    HW115746   2.696   2.388   8.028
 5060SOL    HW215747   2.752   2.235   8.037
 5061SOL     OW15748   2.879   1.901   8.201
 5061SOL    HW115749   2.807   1.906   8.132
 5061SOL    HW215750   2.855   1.832   8.270
 5062SOL     OW15751   3.291   3.035   8.315
 5062SOL    HW115752   3.236   2.951   8.308
 5062SOL    HW215753   3.317   3.064   8.223
 5063SOL     OW15754   3.328   2.452   8.440
 5063SOL    HW115755   3.298   2.357   8.447
 5063SOL    HW215756   3.401   2.468   8.506
 5064SOL     OW15757   3.719   2.695   7.825
 5064SOL    HW115758   3.761   2.631   7.889
 5064SOL    HW215759   3.681   2.644   7.747
 5065SOL     OW15760   2.350   3.247   7.622
 5065SOL    HW115761   2.263   3.232   7.669
 5065SOL    HW215762   2.333   3.273   7.527
 5066SOL     OW15763   3.526   3.142   8.105
 5066SOL    HW115764   3.625   3.150   8.119
 5066SOL    HW215765   3.481   3.226   8.136
 5067SOL     OW15766   3.252   2.437   7.526
 5067SOL    HW115767   3.198   2.416   7.607
 5067SOL    HW215768   3.343   2.396   7.535
 5068SOL     OW15769   3.616   3.085   9.036
 5068SOL    HW115770   3.707   3.046   9.023
 5068SOL    HW215771   3.624   3.181   9.060
 5069SOL     OW15772   2.926   3.209   8.788
 5069SOL    HW115773   2.846   3.186   8.843
 5069SOL    HW215774   3.009   3.183   8.837
 5070SOL     OW15775   3.454   3.491   9.073
 5070SOL    HW115776   3.481   3.525   8.983
 5070SOL    HW215777   3.533   3.453   9.119
 5071SOL     OW15778   2.973   3.057   8.548
 5071SOL    HW115779   2.933   3.101   8.629
 5071SOL    HW215780   2.932   3.094   8.465
 5072SOL     OW15781   3.500   2.961   8.527
 5072SOL    HW115782   3.505   3.042   8.586
 5072SOL    HW215783   3.414   2.963   8.476
 5073SOL     OW15784   2.777   1.951   8.850
 5073SOL    HW115785   2.802   1.931   8.755
 5073SOL    HW215786   2.849   2.007   8.892
 5074SOL     OW15787   2.842   2.978   9.167
 5074SOL    HW115788   2.743   2.984   9.177
 5074SOL    HW215789   2.865   2.898   9.111
 5075SOL     OW15790   2.567   2.912   7.816
 5075SOL    HW115791   2.553   2.919   7.915
 5075SOL    HW215792   2.651   2.861   7.798
 5076SOL     OW15793   2.272   2.675   8.699
 5076SOL    HW115794   2.358   2.687   8.749
 5076SOL    HW215795   2.230   2.588   8.726
 5077SOL     OW15796   3.136   2.248   8.710
 5077SOL    HW115797   3.157   2.322   8.774
 5077SOL    HW215798   3.047   2.265   8.667
 5078SOL     OW15799   1.926   3.426   8.779
 5078SOL    HW115800   1.880   3.508   8.745
 5078SOL    HW215801   2.024   3.445   8.788
 5079SOL     OW15802   2.229   2.962   7.949
 5079SOL    HW115803   2.222   3.045   7.893
 5079SOL    HW215804   2.233   2.882   7.889
 5080SOL     OW15805   3.114   3.210   7.836
 5080SOL    HW115806   3.164   3.287   7.876
 5080SOL    HW215807   3.019   3.212   7.868
 5081SOL     OW15808   3.134   3.307   8.590
 5081SOL    HW115809   3.181   3.320   8.677
 5081SOL    HW215810   3.068   3.233   8.599
 5082SOL     OW15811   3.444   2.501   7.920
 5082SOL    HW115812   3.413   2.562   7.993
 5082SOL    HW215813   3.494   2.553   7.851
 5083SOL     OW15814   2.216   3.372   8.777
 5083SOL    HW115815   2.195   3.328   8.690
 5083SOL    HW215816   2.313   3.398   8.780
 5084SOL     OW15817   2.264   2.613   9.046
 5084SOL    HW115818   2.332   2.668   8.999
 5084SOL    HW215819   2.304   2.525   9.073
 5085SOL     OW15820   3.449   2.641   9.118
 5085SOL    HW115821   3.357   2.679   9.113
 5085SOL    HW215822   3.509   2.688   9.053
 5086SOL     OW15823   2.875   1.967   9.218
 5086SOL    HW115824   2.881   2.052   9.166
 5086SOL    HW215825   2.907   1.891   9.161
 5087SOL     OW15826   2.366   1.912   9.188
 5087SOL    HW115827   2.324   1.855   9.118
 5087SOL    HW215828   2.300   1.981   9.220
 5088SOL     OW15829   2.435   2.732   8.477
 5088SOL    HW115830   2.479   2.821   8.468
 5088SOL    HW215831   2.372   2.732   8.554
 5089SOL     OW15832   3.222   2.724   8.493
 5089SOL    HW115833   3.147   2.724   8.427
 5089SOL    HW215834   3.259   2.632   8.502
 5090SOL     OW15835   3.071   2.387   7.723
 5090SOL    HW115836   3.084   2.303   7.777
 5090SOL    HW215837   3.042   2.461   7.783
 5091SOL     OW15838   1.899   3.172   8.730
 5091SOL    HW115839   1.952   3.123   8.798
 5091SOL    HW215840   1.921   3.270   8.735
 5092SOL     OW15841   2.594   2.496   8.512
 5092SOL    HW115842   2.653   2.470   8.436
 5092SOL    HW215843   2.566   2.592   8.501
 5093SOL     OW15844   3.590   2.797   9.302
 5093SOL    HW115845   3.544   2.790   9.213
 5093SOL    HW215846   3.528   2.841   9.368
 5094SOL     OW15847   2.169   1.925   8.066
 5094SOL    HW115848   2.158   2.019   8.099
 5094SOL    HW215849   2.164   1.862   8.143
 5095SOL     OW15850   3.484   2.229   7.822
 5095SOL    HW115851   3.486   2.153   7.886
 5095SOL    HW215852   3.436   2.306   7.862
 5096SOL     OW15853   2.885   2.628   8.414
 5096SOL    HW115854   2.900   2.649   8.510
 5096SOL    HW215855   2.855   2.533   8.405
 5097SOL     OW15856   2.842   3.435   9.148
 5097SOL    HW115857   2.822   3.479   9.060
 5097SOL    HW215858   2.881   3.344   9.132
 5098SOL     OW15859   3.721   3.380   9.053
 5098SOL    HW115860   3.735   3.407   8.958
 5098SOL    HW215861   3.804   3.402   9.106
 5099SOL     OW15862   2.212   2.760   9.252
 5099SOL    HW115863   2.288   2.804   9.300
 5099SOL    HW215864   2.247   2.713   9.170
 5100SOL     OW15865   3.402   2.136   7.573
 5100SOL    HW115866   3.341   2.061   7.596
 5100SOL    HW215867   3.424   2.188   7.656
 5101SOL     OW15868   3.165   2.700   7.490
 5101SOL    HW115869   3.199   2.607   7.505
 5101SOL    HW215870   3.183   2.727   7.395
 5102SOL     OW15871   2.930   3.195   8.297
 5102SOL    HW115872   2.937   3.111   8.242
 5102SOL    HW215873   2.992   3.264   8.261
 5103SOL     OW15874   2.181   2.672   8.397
 5103SOL    HW115875   2.274   2.708   8.402
 5103SOL    HW215876   2.175   2.587   8.449
 5104SOL     OW15877   3.000   2.242   9.126
 5104SOL    HW115878   2.955   2.305   9.190
 5104SOL    HW215879   3.093   2.273   9.109
 5105SOL     OW15880   3.022   2.069   8.925
 5105SOL    HW115881   3.022   2.133   9.002
 5105SOL    HW215882   3.050   2.117   8.842
 5106SOL     OW15883   1.870   3.188   7.648
 5106SOL    HW115884   1.777   3.209   7.617
 5106SOL    HW215885   1.880   3.089   7.661
 5107SOL     OW15886   1.950   3.663   8.375
 5107SOL    HW115887   1.908   3.577   8.348
 5107SOL    HW215888   2.044   3.666   8.341
 5108SOL     OW15889   2.366   3.430   8.358
 5108SOL    HW115890   2.432   3.504   8.367
 5108SOL    HW215891   2.410   3.351   8.316
 5109SOL     OW15892   2.864   2.658   8.686
 5109SOL    HW115893   2.905   2.626   8.772
 5109SOL    HW215894   2.768   2.631   8.683
 5110SOL     OW15895   1.902   2.406   8.562
 5110SOL    HW115896   1.987   2.373   8.521
 5110SOL    HW215897   1.915   2.421   8.660
 5111SOL     OW15898   3.231   2.812   9.108
 5111SOL    HW115899   3.270   2.901   9.128
 5111SOL    HW215900   3.241   2.792   9.011
 5112SOL     OW15901   2.677   2.434   7.773
 5112SOL    HW115902   2.684   2.345   7.727
 5112SOL    HW215903   2.583   2.468   7.765
 5113SOL     OW15904   3.519   2.466   8.654
 5113SOL    HW115905   3.481   2.397   8.716
 5113SOL    HW215906   3.601   2.430   8.610
 5114SOL     OW15907   2.114   3.426   9.192
 5114SOL    HW115908   2.084   3.483   9.268
 5114SOL    HW215909   2.107   3.329   9.218
 5115SOL     OW15910   2.792   3.540   8.913
 5115SOL    HW115911   2.768   3.522   8.818
 5115SOL    HW215912   2.822   3.634   8.923
 5116SOL     OW15913   2.021   2.999   8.914
 5116SOL    HW115914   2.043   2.938   8.990
 5116SOL    HW215915   2.031   2.950   8.828
 5117SOL     OW15916   3.209   2.921   8.682
 5117SOL    HW115917   3.233   2.858   8.608
 5117SOL    HW215918   3.119   2.961   8.664
 5118SOL     OW15919   3.164   2.717   7.757
 5118SOL    HW115920   3.078   2.686   7.799
 5118SOL    HW215921   3.160   2.703   7.658
 5119SOL     OW15922   3.621   3.609   8.602
 5119SOL    HW115923   3.682   3.639   8.529
 5119SOL    HW215924   3.583   3.520   8.580
 5120SOL     OW15925   3.114   3.593   8.576
 5120SOL    HW115926   3.198   3.598   8.522
 5120SOL    HW215927   3.091   3.497   8.594
 5121SOL     OW15928   1.945   3.120   8.470
 5121SOL    HW115929   1.940   3.119   8.570
 5121SOL    HW215930   1.862   3.079   8.432
 5122SOL     OW15931   2.550   3.524   9.164
 5122SOL    HW115932   2.494   3.605   9.173
 5122SOL    HW215933   2.602   3.528   9.078
 5123SOL     OW15934   3.588   1.997   7.971
 5123SOL    HW115935   3.661   1.980   7.904
 5123SOL    HW215936   3.557   1.910   8.009
 5124SOL     OW15937   3.250   3.435   7.925
 5124SOL    HW115938   3.317   3.447   7.851
 5124SOL    HW215939   3.210   3.524   7.948
 5125SOL     OW15940   1.992   3.656   9.299
 5125SOL    HW115941   1.951   3.582   9.352
 5125SOL    HW215942   2.056   3.707   9.357
 5126SOL     OW15943   3.142   2.789   8.120
 5126SOL    HW115944   3.202   2.708   8.122
 5126SOL    HW215945   3.182   2.858   8.060
 5127SOL     OW15946   2.692   3.135   8.870
 5127SOL    HW115947   2.687   3.168   8.965
 5127SOL    HW215948   2.606   3.154   8.824
 5128SOL     OW15949   2.534   3.478   7.602
 5128SOL    HW115950   2.543   3.488   7.503
 5128SOL    HW215951   2.494   3.389   7.623
 5129SOL     OW15952   3.512   3.582   8.842
 5129SOL    HW115953   3.565   3.592   8.758
 5129SOL    HW215954   3.485   3.672   8.876
 5130SOL     OW15955   3.703   2.037   8.411
 5130SOL    HW115956   3.742   1.952   8.375
 5130SOL    HW215957   3.605   2.039   8.392
 5131SOL     OW15958   3.056   3.474   7.479
 5131SOL    HW115959   3.062   3.381   7.516
 5131SOL    HW215960   2.997   3.474   7.399
 5132SOL     OW15961   2.684   2.864   8.820
 5132SOL    HW115962   2.724   2.863   8.728
 5132SOL    HW215963   2.694   2.956   8.860
 5133SOL     OW15964   2.778   2.772   7.739
 5133SOL    HW115965   2.841   2.810   7.671
 5133SOL    HW215966   2.818   2.689   7.778
 5134SOL     OW15967   3.366   3.469   7.492
 5134SOL    HW115968   3.274   3.506   7.499
 5134SOL    HW215969   3.404   3.489   7.402
 5135SOL     OW15970   2.234   3.150   8.938
 5135SOL    HW115971   2.221   3.243   8.904
 5135SOL    HW215972   2.150   3.098   8.925
 5136SOL     OW15973   3.476   3.154   8.737
 5136SOL    HW115974   3.536   3.157   8.817
 5136SOL    HW215975   3.401   3.218   8.750
 5137SOL     OW15976   2.901   2.960   8.144
 5137SOL    HW115977   2.831   2.913   8.198
 5137SOL    HW215978   2.960   2.892   8.101
 5138SOL     OW15979   2.876   2.098   8.419
 5138SOL    HW115980   2.868   2.062   8.326
 5138SOL    HW215981   2.874   2.022   8.484
 5139SOL     OW15982   2.452   3.349   7.939
 5139SOL    HW115983   2.494   3.291   7.869
 5139SOL    HW215984   2.408   3.428   7.895
 5140SOL     OW15985   3.571   2.247   8.829
 5140SOL    HW115986   3.644   2.316   8.833
 5140SOL    HW215987   3.599   2.172   8.770
 5141SOL     OW15988   2.117   3.210   7.738
 5141SOL    HW115989   2.021   3.211   7.711
 5141SOL    HW215990   2.129   3.263   7.822
 5142SOL     OW15991   1.967   2.875   9.174
 5142SOL    HW115992   1.890   2.842   9.228
 5142SOL    HW215993   2.052   2.845   9.216
 5143SOL     OW15994   2.534   2.065   8.937
 5143SOL    HW115995   2.624   2.049   8.897
 5143SOL    HW215996   2.542   2.070   9.036
 5144SOL     OW15997   1.937   2.207   7.481
 5144SOL    HW115998   1.845   2.179   7.452
 5144SOL    HW215999   1.968   2.284   7.425
 5145SOL     OW16000   3.302   2.718   8.846
 5145SOL    HW116001   3.245   2.770   8.783
 5145SOL    HW216002   3.398   2.730   8.822
 5146SOL     OW16003   1.934   2.028   7.766
 5146SOL    HW116004   1.917   2.111   7.712
 5146SOL    HW216005   2.024   1.991   7.744
 5147SOL     OW16006   3.045   3.197   7.567
 5147SOL    HW116007   2.946   3.186   7.569
 5147SOL    HW216008   3.079   3.212   7.660
 5148SOL     OW16009   2.475   2.704   8.879
 5148SOL    HW116010   2.531   2.785   8.862
 5148SOL    HW216011   2.534   2.624   8.882
 5149SOL     OW16012   3.355   3.629   8.407
 5149SOL    HW116013   3.388   3.693   8.338
 5149SOL    HW216014   3.421   3.623   8.482
 5150SOL     OW16015   2.578   2.427   9.156
 5150SOL    HW116016   2.597   2.492   9.230
 5150SOL    HW216017   2.638   2.347   9.165
 5151SOL     OW16018   3.312   3.082   9.081
 5151SOL    HW116019   3.303   3.072   9.180
 5151SOL    HW216020   3.408   3.075   9.055
 5152SOL     OW16021   2.252   3.603   9.008
 5152SOL    HW116022   2.161   3.644   9.006
 5152SOL    HW216023   2.245   3.509   9.040
 5153SOL     OW16024   3.536   2.745   8.702
 5153SOL    HW116025   3.509   2.656   8.665
 5153SOL    HW216026   3.537   2.813   8.629
 5154SOL     OW16027   3.087   2.187   7.897
 5154SOL    HW116028   3.152   2.113   7.886
 5154SOL    HW216029   3.107   2.237   7.981
 5155SOL     OW16030   2.456   2.607   8.100
 5155SOL    HW116031   2.506   2.692   8.081
 5155SOL    HW216032   2.368   2.609   8.052
 5156SOL     OW16033   3.639   2.204   9.090
 5156SOL    HW116034   3.622   2.235   8.996
 5156SOL    HW216035   3.555   2.167   9.128
 5157SOL     OW16036   3.592   2.796   8.965
 5157SOL    HW116037   3.630   2.887   8.980
 5157SOL    HW216038   3.584   2.779   8.866
 5158SOL     OW16039   2.721   3.236   7.464
 5158SOL    HW116040   2.675   3.251   7.552
 5158SOL    HW216041   2.765   3.321   7.434
 5159SOL     OW16042   2.523   3.652   8.401
 5159SOL    HW116043   2.477   3.740   8.388
 5159SOL    HW216044   2.622   3.664   8.394
 5160SOL     OW16045   2.721   2.818   8.309
 5160SOL    HW116046   2.775   2.749   8.357
 5160SOL    HW216047   2.689   2.887   8.375
 5161SOL     OW16048   2.945   2.846   7.535
 5161SOL    HW116049   2.922   2.899   7.453
 5161SOL    HW216050   3.026   2.790   7.516
 5162SOL     OW16051   3.723   3.431   8.299
 5162SOL    HW116052   3.652   3.419   8.229
 5162SOL    HW216053   3.724   3.352   8.359
 5163SOL     OW16054   2.083   3.176   9.292
 5163SOL    HW116055   2.018   3.103   9.271
 5163SOL    HW216056   2.087   3.190   9.390
 5164SOL     OW16057   1.941   3.102   8.101
 5164SOL    HW116058   1.940   3.055   8.189
 5164SOL    HW216059   2.023   3.074   8.050
 5165SOL     OW16060   2.534   3.253   9.072
 5165SOL    HW116061   2.456   3.203   9.110
 5165SOL    HW216062   2.531   3.348   9.103
 5166SOL     OW16063   3.686   2.054   8.675
 5166SOL    HW116064   3.682   1.964   8.719
 5166SOL    HW216065   3.689   2.043   8.576
 5167SOL     OW16066   3.567   3.349   8.552
 5167SOL    HW116067   3.474   3.324   8.525
 5167SOL    HW216068   3.593   3.299   8.634
 5168SOL     OW16069   2.674   3.448   8.135
 5168SOL    HW116070   2.706   3.458   8.041
 5168SOL    HW216071   2.595   3.386   8.137
 5169SOL     OW16072   3.286   2.076   8.560
 5169SOL    HW116073   3.338   2.011   8.615
 5169SOL    HW216074   3.237   2.139   8.621
 5170SOL     OW16075   2.863   1.896   8.602
 5170SOL    HW116076   2.800   1.824   8.571
 5170SOL    HW216077   2.956   1.860   8.602
 5171SOL     OW16078   2.632   3.192   7.749
 5171SOL    HW116079   2.586   3.105   7.766
 5171SOL    HW216080   2.723   3.189   7.790
 5172SOL     OW16081   2.480   3.429   8.732
 5172SOL    HW116082   2.475   3.511   8.789
 5172SOL    HW216083   2.569   3.426   8.687
 5173SOL     OW16084   3.214   1.914   7.616
 5173SOL    HW116085   3.249   1.873   7.532
 5173SOL    HW216086   3.124   1.876   7.636
 5174SOL     OW16087   3.162   2.315   8.139
 5174SOL    HW116088   3.103   2.395   8.143
 5174SOL    HW216089   3.177   2.280   8.232
 5175SOL     OW16090   3.455   2.083   8.330
 5175SOL    HW116091   3.371   2.082   8.384
 5175SOL    HW216092   3.457   2.166   8.274
 5176SOL     OW16093   1.901   2.939   7.748
 5176SOL    HW116094   2.000   2.928   7.739
 5176SOL    HW216095   1.861   2.853   7.780
 5177SOL     OW16096   2.737   3.508   7.785
 5177SOL    HW116097   2.660   3.473   7.731
 5177SOL    HW216098   2.705   3.579   7.847
 5178SOL     OW16099   2.092   2.490   9.423
 5178SOL    HW116100   1.999   2.488   9.460
 5178SOL    HW216101   2.093   2.451   9.331
 5179SOL     OW16102   1.881   2.230   9.957
 5179SOL    HW116103   1.799   2.273   9.996
 5179SOL    HW216104   1.853   2.157   9.894
 5180SOL     OW16105   2.431   3.137  10.475
 5180SOL    HW116106   2.338   3.130  10.438
 5180SOL    HW216107   2.442   3.226  10.519
 5181SOL     OW16108   3.417   3.373  10.013
 5181SOL    HW116109   3.360   3.357  10.094
 5181SOL    HW216110   3.358   3.383   9.933
 5182SOL     OW16111   2.997   2.565  10.027
 5182SOL    HW116112   3.054   2.643  10.002
 5182SOL    HW216113   2.937   2.591  10.103
 5183SOL     OW16114   3.617   2.469   9.541
 5183SOL    HW116115   3.605   2.456   9.442
 5183SOL    HW216116   3.587   2.388   9.590
 5184SOL     OW16117   2.630   3.006  10.333
 5184SOL    HW116118   2.552   3.023  10.393
 5184SOL    HW216119   2.664   3.093  10.297
 5185SOL     OW16120   2.712   2.660  11.133
 5185SOL    HW116121   2.708   2.736  11.198
 5185SOL    HW216122   2.734   2.696  11.042
 5186SOL     OW16123   2.547   2.874   9.975
 5186SOL    HW116124   2.616   2.858  10.045
 5186SOL    HW216125   2.474   2.931  10.013
 5187SOL     OW16126   2.197   3.297  10.371
 5187SOL    HW116127   2.119   3.266  10.318
 5187SOL    HW216128   2.255   3.355  10.314
 5188SOL     OW16129   3.322   3.367  10.649
 5188SOL    HW116130   3.346   3.461  10.675
 5188SOL    HW216131   3.306   3.313  10.731
 5189SOL     OW16132   3.465   2.309  10.047
 5189SOL    HW116133   3.391   2.355   9.997
 5189SOL    HW216134   3.516   2.377  10.100
 5190SOL     OW16135   2.093   3.575   9.793
 5190SOL    HW116136   2.127   3.652   9.847
 5190SOL    HW216137   2.137   3.575   9.703
 5191SOL     OW16138   2.092   3.296   9.848
 5191SOL    HW116139   2.066   3.392   9.848
 5191SOL    HW216140   2.021   3.242   9.893
 5192SOL     OW16141   2.102   2.953  10.196
 5192SOL    HW116142   2.116   2.869  10.248
 5192SOL    HW216143   2.047   3.017  10.251
 5193SOL     OW16144   2.482   3.648  10.749
 5193SOL    HW116145   2.390   3.631  10.784
 5193SOL    HW216146   2.510   3.740  10.775
 5194SOL     OW16147   2.468   2.826   9.433
 5194SOL    HW116148   2.475   2.910   9.379
 5194SOL    HW216149   2.514   2.839   9.521
 5195SOL     OW16150   3.456   1.976  10.790
 5195SOL    HW116151   3.438   2.043  10.718
 5195SOL    HW216152   3.453   2.022  10.879
 5196SOL     OW16153   1.984   2.505   9.873
 5196SOL    HW116154   1.939   2.417   9.890
 5196SOL    HW216155   1.983   2.559   9.957
 5197SOL     OW16156   3.704   3.629   9.669
 5197SOL    HW116157   3.758   3.600   9.749
 5197SOL    HW216158   3.734   3.719   9.640
 5198SOL     OW16159   1.889   3.458   9.427
 5198SOL    HW116160   1.870   3.362   9.448
 5198SOL    HW216161   1.856   3.516   9.502
 5199SOL     OW16162   3.551   2.784   9.922
 5199SOL    HW116163   3.646   2.755   9.930
 5199SOL    HW216164   3.543   2.849   9.847
 5200SOL     OW16165   3.503   2.970   9.742
 5200SOL    HW116166   3.589   2.972   9.690
 5200SOL    HW216167   3.517   3.017   9.830
 5201SOL     OW16168   1.975   2.599  10.907
 5201SOL    HW116169   2.063   2.586  10.952
 5201SOL    HW216170   1.962   2.696  10.885
 5202SOL     OW16171   2.475   3.227  10.036
 5202SOL    HW116172   2.426   3.140  10.045
 5202SOL    HW216173   2.452   3.270   9.949
 5203SOL     OW16174   3.155   3.090  10.733
 5203SOL    HW116175   3.192   3.017  10.675
 5203SOL    HW216176   3.207   3.095  10.818
 5204SOL     OW16177   2.671   1.866   9.812
 5204SOL    HW116178   2.711   1.957   9.803
 5204SOL    HW216179   2.571   1.874   9.818
 5205SOL     OW16180   2.059   2.838  10.574
 5205SOL    HW116181   2.148   2.793  10.560
 5205SOL    HW216182   1.986   2.773  10.555
 5206SOL     OW16183   3.387   2.861   9.500
 5206SOL    HW116184   3.324   2.785   9.513
 5206SOL    HW216185   3.435   2.879   9.586
 5207SOL     OW16186   3.049   3.654  10.926
 5207SOL    HW116187   3.073   3.714  10.850
 5207SOL    HW216188   3.056   3.559  10.896
 5208SOL     OW16189   3.328   3.279  10.263
 5208SOL    HW116190   3.269   3.285  10.343
 5208SOL    HW216191   3.313   3.191  10.217
 5209SOL     OW16192   3.529   3.576   9.882
 5209SOL    HW116193   3.488   3.553   9.794
 5209SOL    HW216194   3.511   3.502   9.947
 5210SOL     OW16195   2.460   2.591   9.580
 5210SOL    HW116196   2.484   2.660   9.512
 5210SOL    HW216197   2.382   2.624   9.634
 5211SOL     OW16198   3.143   2.207  10.254
 5211SOL    HW116199   3.057   2.157  10.241
 5211SOL    HW216200   3.205   2.153  10.310
 5212SOL     OW16201   3.438   3.524   9.617
 5212SOL    HW116202   3.527   3.570   9.620
 5212SOL    HW216203   3.417   3.500   9.522
 5213SOL     OW16204   2.669   2.467  10.775
 5213SOL    HW116205   2.622   2.464  10.864
 5213SOL    HW216206   2.618   2.412  10.709
 5214SOL     OW16207   2.835   2.752  10.882
 5214SOL    HW116208   2.881   2.668  10.853
 5214SOL    HW216209   2.779   2.786  10.807
 5215SOL     OW16210   2.853   2.272  10.552
 5215SOL    HW116211   2.776   2.306  10.606
 5215SOL    HW216212   2.819   2.221  10.473
 5216SOL     OW16213   2.903   2.563   9.739
 5216SOL    HW116214   2.929   2.559   9.835
 5216SOL    HW216215   2.818   2.512   9.725
 5217SOL     OW16216   1.938   2.673  10.099
 5217SOL    HW116217   2.037   2.661  10.108
 5217SOL    HW216218   1.914   2.768  10.120
 5218SOL     OW16219   1.992   3.683  10.881
 5218SOL    HW116220   1.982   3.668  10.980
 5218SOL    HW216221   1.906   3.719  10.845
 5219SOL     OW16222   2.727   2.210   9.505
 5219SOL    HW116223   2.786   2.273   9.456
 5219SOL    HW216224   2.746   2.116   9.476
 5220SOL     OW16225   3.224   3.006   9.855
 5220SOL    HW116226   3.307   2.977   9.807
 5220SOL    HW216227   3.175   3.073   9.799
 5221SOL     OW16228   2.870   3.318   9.787
 5221SOL    HW116229   2.824   3.390   9.735
 5221SOL    HW216230   2.866   3.338   9.885
 5222SOL     OW16231   2.213   3.663  10.163
 5222SOL    HW116232   2.263   3.577  10.169
 5222SOL    HW216233   2.278   3.740  10.160
 5223SOL     OW16234   3.657   2.928  10.183
 5223SOL    HW116235   3.595   2.913  10.107
 5223SOL    HW216236   3.605   2.939  10.268
 5224SOL     OW16237   3.089   3.412  10.816
 5224SOL    HW116238   3.095   3.335  10.880
 5224SOL    HW216239   3.037   3.386  10.736
 5225SOL     OW16240   2.183   2.805   9.552
 5225SOL    HW116241   2.265   2.844   9.510
 5225SOL    HW216242   2.156   2.723   9.503
 5226SOL     OW16243   3.320   2.597  10.038
 5226SOL    HW116244   3.315   2.532  10.113
 5226SOL    HW216245   3.400   2.656  10.051
 5227SOL     OW16246   2.323   3.128  11.037
 5227SOL    HW116247   2.273   3.129  10.951
 5227SOL    HW216248   2.260   3.110  11.113
 5228SOL     OW16249   2.973   3.638   9.547
 5228SOL    HW116250   2.913   3.576   9.597
 5228SOL    HW216251   3.004   3.594   9.462
 5229SOL     OW16252   3.494   3.239   9.391
 5229SOL    HW116253   3.462   3.333   9.381
 5229SOL    HW216254   3.418   3.176   9.379
 5230SOL     OW16255   2.326   3.605   9.633
 5230SOL    HW116256   2.359   3.644   9.719
 5230SOL    HW216257   2.402   3.598   9.568
 5231SOL     OW16258   3.262   1.969   9.736
 5231SOL    HW116259   3.238   1.932   9.646
 5231SOL    HW216260   3.361   1.985   9.740
 5232SOL     OW16261   2.111   3.647  10.551
 5232SOL    HW116262   2.168   3.582  10.601
 5232SOL    HW216263   2.095   3.614  10.458
 5233SOL     OW16264   2.802   3.560  10.214
 5233SOL    HW116265   2.882   3.503  10.235
 5233SOL    HW216266   2.753   3.520  10.137
 5234SOL     OW16267   2.476   1.984   9.427
 5234SOL    HW116268   2.574   1.962   9.434
 5234SOL    HW216269   2.445   1.967   9.334
 5235SOL     OW16270   2.643   2.126  11.059
 5235SOL    HW116271   2.710   2.065  11.102
 5235SOL    HW216272   2.570   2.145  11.124
 5236SOL     OW16273   2.750   3.376  10.505
 5236SOL    HW116274   2.727   3.351  10.411
 5236SOL    HW216275   2.811   3.307  10.544
 5237SOL     OW16276   3.213   2.452  10.743
 5237SOL    HW116277   3.241   2.409  10.828
 5237SOL    HW216278   3.238   2.548  10.744
 5238SOL     OW16279   2.665   3.264  10.234
 5238SOL    HW116280   2.755   3.278  10.192
 5238SOL    HW216281   2.594   3.266  10.163
 5239SOL     OW16282   2.784   2.365  10.209
 5239SOL    HW116283   2.759   2.356  10.113
 5239SOL    HW216284   2.832   2.283  10.240
 5240SOL     OW16285   2.401   1.926   9.822
 5240SOL    HW116286   2.320   1.927   9.880
 5240SOL    HW216287   2.404   2.009   9.767
 5241SOL     OW16288   3.296   3.050   9.351
 5241SOL    HW116289   3.328   2.974   9.408
 5241SOL    HW216290   3.204   3.077   9.381
 5242SOL     OW16291   2.159   1.897   9.481
 5242SOL    HW116292   2.208   1.981   9.460
 5242SOL    HW216293   2.221   1.832   9.526
 5243SOL     OW16294   2.797   2.098   9.790
 5243SOL    HW116295   2.749   2.139   9.712
 5243SOL    HW216296   2.896   2.096   9.771
 5244SOL     OW16297   2.938   2.545  10.774
 5244SOL    HW116298   2.858   2.484  10.777
 5244SOL    HW216299   3.019   2.492  10.750
 5245SOL     OW16300   3.089   3.432  10.103
 5245SOL    HW116301   3.110   3.506  10.038
 5245SOL    HW216302   3.157   3.432  10.176
 5246SOL     OW16303   2.321   3.014  10.051
 5246SOL    HW116304   2.250   2.987  10.116
 5246SOL    HW216305   2.295   2.986   9.958
 5247SOL     OW16306   3.133   3.659   9.901
 5247SOL    HW116307   3.177   3.723   9.837
 5247SOL    HW216308   3.083   3.711   9.971
 5248SOL     OW16309   2.894   2.411   9.326
 5248SOL    HW116310   2.853   2.493   9.287
 5248SOL    HW216311   2.958   2.437   9.399
 5249SOL     OW16312   1.940   2.418  10.696
 5249SOL    HW116313   2.032   2.417  10.655
 5249SOL    HW216314   1.934   2.492  10.763
 5250SOL     OW16315   2.423   2.084  10.457
 5250SOL    HW116316   2.461   2.000  10.494
 5250SOL    HW216317   2.335   2.103  10.501
 5251SOL     OW16318   2.728   2.316   9.952
 5251SOL    HW116319   2.696   2.388   9.890
 5251SOL    HW216320   2.752   2.235   9.899
 5252SOL     OW16321   2.879   1.901  10.063
 5252SOL    HW116322   2.807   1.906   9.994
 5252SOL    HW216323   2.855   1.832  10.132
 5253SOL     OW16324   3.291   3.035  10.177
 5253SOL    HW116325   3.236   2.951  10.170
 5253SOL    HW216326   3.317   3.064  10.085
 5254SOL     OW16327   3.328   2.452  10.302
 5254SOL    HW116328   3.298   2.357  10.309
 5254SOL    HW216329   3.401   2.468  10.368
 5255SOL     OW16330   3.719   2.695   9.687
 5255SOL    HW116331   3.761   2.631   9.751
 5255SOL    HW216332   3.681   2.644   9.609
 5256SOL     OW16333   2.350   3.247   9.484
 5256SOL    HW116334   2.263   3.232   9.531
 5256SOL    HW216335   2.333   3.273   9.389
 5257SOL     OW16336   3.526   3.142   9.967
 5257SOL    HW116337   3.625   3.150   9.981
 5257SOL    HW216338   3.481   3.226   9.998
 5258SOL     OW16339   3.252   2.437   9.388
 5258SOL    HW116340   3.198   2.416   9.469
 5258SOL    HW216341   3.343   2.396   9.397
 5259SOL     OW16342   3.616   3.085  10.898
 5259SOL    HW116343   3.707   3.046  10.885
 5259SOL    HW216344   3.624   3.181  10.922
 5260SOL     OW16345   2.926   3.209  10.650
 5260SOL    HW116346   2.846   3.186  10.705
 5260SOL    HW216347   3.009   3.183  10.699
 5261SOL     OW16348   2.973   3.057  10.410
 5261SOL    HW116349   2.933   3.101  10.491
 5261SOL    HW216350   2.932   3.094  10.327
 5262SOL     OW16351   3.500   2.961  10.389
 5262SOL    HW116352   3.505   3.042  10.448
 5262SOL    HW216353   3.414   2.963  10.338
 5263SOL     OW16354   2.777   1.951  10.712
 5263SOL    HW116355   2.802   1.931  10.617
 5263SOL    HW216356   2.849   2.007  10.754
 5264SOL     OW16357   2.567   2.912   9.678
 5264SOL    HW116358   2.553   2.919   9.777
 5264SOL    HW216359   2.651   2.861   9.660
 5265SOL     OW16360   2.272   2.675  10.561
 5265SOL    HW116361   2.358   2.687  10.611
 5265SOL    HW216362   2.230   2.588  10.588
 5266SOL     OW16363   3.136   2.248  10.572
 5266SOL    HW116364   3.157   2.322  10.636
 5266SOL    HW216365   3.047   2.265  10.529
 5267SOL     OW16366   1.926   3.426  10.641
 5267SOL    HW116367   1.880   3.508  10.607
 5267SOL    HW216368   2.024   3.445  10.650
 5268SOL     OW16369   2.229   2.962   9.811
 5268SOL    HW116370   2.222   3.045   9.755
 5268SOL    HW216371   2.233   2.882   9.751
 5269SOL     OW16372   2.428   2.399  10.175
 5269SOL    HW116373   2.440   2.465  10.101
 5269SOL    HW216374   2.474   2.433  10.258
 5270SOL     OW16375   3.114   3.210   9.698
 5270SOL    HW116376   3.164   3.287   9.738
 5270SOL    HW216377   3.019   3.212   9.730
 5271SOL     OW16378   3.134   3.307  10.452
 5271SOL    HW116379   3.181   3.320  10.539
 5271SOL    HW216380   3.068   3.233  10.461
 5272SOL     OW16381   3.444   2.501   9.782
 5272SOL    HW116382   3.413   2.562   9.855
 5272SOL    HW216383   3.494   2.553   9.713
 5273SOL     OW16384   2.216   3.372  10.639
 5273SOL    HW116385   2.195   3.328  10.552
 5273SOL    HW216386   2.313   3.398  10.642
 5274SOL     OW16387   2.264   2.613  10.908
 5274SOL    HW116388   2.332   2.668  10.861
 5274SOL    HW216389   2.304   2.525  10.935
 5275SOL     OW16390   3.449   2.641  10.980
 5275SOL    HW116391   3.357   2.679  10.975
 5275SOL    HW216392   3.509   2.688  10.915
 5276SOL     OW16393   2.435   2.732  10.339
 5276SOL    HW116394   2.479   2.821  10.330
 5276SOL    HW216395   2.372   2.732  10.416
 5277SOL     OW16396   3.222   2.724  10.355
 5277SOL    HW116397   3.147   2.724  10.289
 5277SOL    HW216398   3.259   2.632  10.364
 5278SOL     OW16399   3.071   2.387   9.585
 5278SOL    HW116400   3.084   2.303   9.639
 5278SOL    HW216401   3.042   2.461   9.645
 5279SOL     OW16402   1.899   3.172  10.592
 5279SOL    HW116403   1.952   3.123  10.660
 5279SOL    HW216404   1.921   3.270  10.597
 5280SOL     OW16405   2.594   2.496  10.374
 5280SOL    HW116406   2.653   2.470  10.298
 5280SOL    HW216407   2.566   2.592  10.363
 5281SOL     OW16408   2.169   1.925   9.928
 5281SOL    HW116409   2.158   2.019   9.961
 5281SOL    HW216410   2.164   1.862  10.005
 5282SOL     OW16411   3.484   2.229   9.684
 5282SOL    HW116412   3.486   2.153   9.748
 5282SOL    HW216413   3.436   2.306   9.724
 5283SOL     OW16414   2.885   2.628  10.276
 5283SOL    HW116415   2.900   2.649  10.372
 5283SOL    HW216416   2.855   2.533  10.267
 5284SOL     OW16417   2.842   3.435  11.010
 5284SOL    HW116418   2.822   3.479  10.922
 5284SOL    HW216419   2.881   3.344  10.994
 5285SOL     OW16420   3.721   3.380  10.915
 5285SOL    HW116421   3.735   3.407  10.820
 5285SOL    HW216422   3.804   3.402  10.968
 5286SOL     OW16423   2.212   2.760  11.114
 5286SOL    HW116424   2.288   2.804  11.162
 5286SOL    HW216425   2.247   2.713  11.032
 5287SOL     OW16426   3.402   2.136   9.435
 5287SOL    HW116427   3.341   2.061   9.458
 5287SOL    HW216428   3.424   2.188   9.518
 5288SOL     OW16429   3.165   2.700   9.352
 5288SOL    HW116430   3.199   2.607   9.367
 5288SOL    HW216431   3.183   2.727   9.257
 5289SOL     OW16432   2.930   3.195  10.159
 5289SOL    HW116433   2.937   3.111  10.104
 5289SOL    HW216434   2.992   3.264  10.123
 5290SOL     OW16435   2.181   2.672  10.259
 5290SOL    HW116436   2.274   2.708  10.264
 5290SOL    HW216437   2.175   2.587  10.311
 5291SOL     OW16438   3.022   2.069  10.787
 5291SOL    HW116439   3.022   2.133  10.864
 5291SOL    HW216440   3.050   2.117  10.704
 5292SOL     OW16441   1.870   3.188   9.510
 5292SOL    HW116442   1.777   3.209   9.479
 5292SOL    HW216443   1.880   3.089   9.523
 5293SOL     OW16444   1.950   3.663  10.237
 5293SOL    HW116445   1.908   3.577  10.210
 5293SOL    HW216446   2.044   3.666  10.203
 5294SOL     OW16447   2.366   3.430  10.220
 5294SOL    HW116448   2.432   3.504  10.229
 5294SOL    HW216449   2.410   3.351  10.178
 5295SOL     OW16450   2.864   2.658  10.548
 5295SOL    HW116451   2.905   2.626  10.634
 5295SOL    HW216452   2.768   2.631  10.545
 5296SOL     OW16453   1.902   2.406  10.424
 5296SOL    HW116454   1.987   2.373  10.383
 5296SOL    HW216455   1.915   2.421  10.522
 5297SOL     OW16456   2.677   2.434   9.635
 5297SOL    HW116457   2.684   2.345   9.589
 5297SOL    HW216458   2.583   2.468   9.627
 5298SOL     OW16459   3.519   2.466  10.516
 5298SOL    HW116460   3.481   2.397  10.578
 5298SOL    HW216461   3.601   2.430  10.472
 5299SOL     OW16462   2.114   3.426  11.054
 5299SOL    HW116463   2.084   3.483  11.130
 5299SOL    HW216464   2.107   3.329  11.080
 5300SOL     OW16465   2.792   3.540  10.775
 5300SOL    HW116466   2.768   3.522  10.680
 5300SOL    HW216467   2.822   3.634  10.785
 5301SOL     OW16468   2.021   2.999  10.776
 5301SOL    HW116469   2.043   2.938  10.852
 5301SOL    HW216470   2.031   2.950  10.690
 5302SOL     OW16471   3.209   2.921  10.544
 5302SOL    HW116472   3.233   2.858  10.470
 5302SOL    HW216473   3.119   2.961  10.526
 5303SOL     OW16474   3.164   2.717   9.619
 5303SOL    HW116475   3.078   2.686   9.661
 5303SOL    HW216476   3.160   2.703   9.520
 5304SOL     OW16477   3.621   3.609  10.464
 5304SOL    HW116478   3.682   3.639  10.391
 5304SOL    HW216479   3.583   3.520  10.442
 5305SOL     OW16480   3.114   3.593  10.438
 5305SOL    HW116481   3.198   3.598  10.384
 5305SOL    HW216482   3.091   3.497  10.456
 5306SOL     OW16483   1.945   3.120  10.332
 5306SOL    HW116484   1.940   3.119  10.432
 5306SOL    HW216485   1.862   3.079  10.294
 5307SOL     OW16486   3.588   1.997   9.833
 5307SOL    HW116487   3.661   1.980   9.766
 5307SOL    HW216488   3.557   1.910   9.871
 5308SOL     OW16489   3.250   3.435   9.787
 5308SOL    HW116490   3.317   3.447   9.713
 5308SOL    HW216491   3.210   3.524   9.810
 5309SOL     OW16492   3.142   2.789   9.982
 5309SOL    HW116493   3.202   2.708   9.984
 5309SOL    HW216494   3.182   2.858   9.922
 5310SOL     OW16495   2.692   3.135  10.732
 5310SOL    HW116496   2.687   3.168  10.827
 5310SOL    HW216497   2.606   3.154  10.686
 5311SOL     OW16498   2.534   3.478   9.464
 5311SOL    HW116499   2.543   3.488   9.365
 5311SOL    HW216500   2.494   3.389   9.485
 5312SOL     OW16501   3.512   3.582  10.704
 5312SOL    HW116502   3.565   3.592  10.620
 5312SOL    HW216503   3.485   3.672  10.738
 5313SOL     OW16504   3.703   2.037  10.273
 5313SOL    HW116505   3.742   1.952  10.237
 5313SOL    HW216506   3.605   2.039  10.254
 5314SOL     OW16507   3.056   3.474   9.341
 5314SOL    HW116508   3.062   3.381   9.378
 5314SOL    HW216509   2.997   3.474   9.261
 5315SOL     OW16510   2.684   2.864  10.682
 5315SOL    HW116511   2.724   2.863  10.590
 5315SOL    HW216512   2.694   2.956  10.722
 5316SOL     OW16513   2.778   2.772   9.601
 5316SOL    HW116514   2.841   2.810   9.533
 5316SOL    HW216515   2.818   2.689   9.640
 5317SOL     OW16516   3.366   3.469   9.354
 5317SOL    HW116517   3.274   3.506   9.361
 5317SOL    HW216518   3.404   3.489   9.264
 5318SOL     OW16519   2.234   3.150  10.800
 5318SOL    HW116520   2.221   3.243  10.766
 5318SOL    HW216521   2.150   3.098  10.787
 5319SOL     OW16522   3.476   3.154  10.599
 5319SOL    HW116523   3.536   3.157  10.679
 5319SOL    HW216524   3.401   3.218  10.612
 5320SOL     OW16525   2.901   2.960  10.006
 5320SOL    HW116526   2.831   2.913  10.060
 5320SOL    HW216527   2.960   2.892   9.963
 5321SOL     OW16528   2.876   2.098  10.281
 5321SOL    HW116529   2.868   2.062  10.188
 5321SOL    HW216530   2.874   2.022  10.346
 5322SOL     OW16531   2.452   3.349   9.801
 5322SOL    HW116532   2.494   3.291   9.731
 5322SOL    HW216533   2.408   3.428   9.757
 5323SOL     OW16534   3.571   2.247  10.691
 5323SOL    HW116535   3.644   2.316  10.695
 5323SOL    HW216536   3.599   2.172  10.632
 5324SOL     OW16537   2.117   3.210   9.600
 5324SOL    HW116538   2.021   3.211   9.573
 5324SOL    HW216539   2.129   3.263   9.684
 5325SOL     OW16540   1.967   2.875  11.036
 5325SOL    HW116541   1.890   2.842  11.090
 5325SOL    HW216542   2.052   2.845  11.078
 5326SOL     OW16543   2.534   2.065  10.799
 5326SOL    HW116544   2.624   2.049  10.759
 5326SOL    HW216545   2.542   2.070  10.898
 5327SOL     OW16546   1.937   2.207   9.343
 5327SOL    HW116547   1.845   2.179   9.314
 5327SOL    HW216548   1.968   2.284   9.287
 5328SOL     OW16549   3.302   2.718  10.708
 5328SOL    HW116550   3.245   2.770  10.645
 5328SOL    HW216551   3.398   2.730  10.684
 5329SOL     OW16552   1.934   2.028   9.628
 5329SOL    HW116553   1.917   2.111   9.574
 5329SOL    HW216554   2.024   1.991   9.606
 5330SOL     OW16555   3.045   3.197   9.429
 5330SOL    HW116556   2.946   3.186   9.431
 5330SOL    HW216557   3.079   3.212   9.522
 5331SOL     OW16558   2.475   2.704  10.741
 5331SOL    HW116559   2.531   2.785  10.724
 5331SOL    HW216560   2.534   2.624  10.744
 5332SOL     OW16561   3.355   3.629  10.269
 5332SOL    HW116562   3.388   3.693  10.200
 5332SOL    HW216563   3.421   3.623  10.344
 5333SOL     OW16564   2.578   2.427  11.018
 5333SOL    HW116565   2.597   2.492  11.092
 5333SOL    HW216566   2.638   2.347  11.027
 5334SOL     OW16567   2.252   3.603  10.870
 5334SOL    HW116568   2.161   3.644  10.868
 5334SOL    HW216569   2.245   3.509  10.902
 5335SOL     OW16570   3.536   2.745  10.564
 5335SOL    HW116571   3.509   2.656  10.527
 5335SOL    HW216572   3.537   2.813  10.491
 5336SOL     OW16573   3.087   2.187   9.759
 5336SOL    HW116574   3.152   2.113   9.748
 5336SOL    HW216575   3.107   2.237   9.843
 5337SOL     OW16576   2.456   2.607   9.962
 5337SOL    HW116577   2.506   2.692   9.943
 5337SOL    HW216578   2.368   2.609   9.914
 5338SOL     OW16579   3.639   2.204  10.952
 5338SOL    HW116580   3.622   2.235  10.858
 5338SOL    HW216581   3.555   2.167  10.990
 5339SOL     OW16582   3.592   2.796  10.827
 5339SOL    HW116583   3.630   2.887  10.842
 5339SOL    HW216584   3.584   2.779  10.728
 5340SOL     OW16585   2.721   3.236   9.326
 5340SOL    HW116586   2.675   3.251   9.414
 5340SOL    HW216587   2.765   3.321   9.296
 5341SOL     OW16588   2.523   3.652  10.263
 5341SOL    HW116589   2.477   3.740  10.250
 5341SOL    HW216590   2.622   3.664  10.256
 5342SOL     OW16591   2.721   2.818  10.171
 5342SOL    HW116592   2.775   2.749  10.219
 5342SOL    HW216593   2.689   2.887  10.237
 5343SOL     OW16594   2.945   2.846   9.397
 5343SOL    HW116595   2.922   2.899   9.315
 5343SOL    HW216596   3.026   2.790   9.378
 5344SOL     OW16597   3.723   3.431  10.161
 5344SOL    HW116598   3.652   3.419  10.091
 5344SOL    HW216599   3.724   3.352  10.221
 5345SOL     OW16600   1.941   3.102   9.963
 5345SOL    HW116601   1.940   3.055  10.051
 5345SOL    HW216602   2.023   3.074   9.912
 5346SOL     OW16603   2.534   3.253  10.934
 5346SOL    HW116604   2.456   3.203  10.972
 5346SOL    HW216605   2.531   3.348  10.965
 5347SOL     OW16606   3.686   2.054  10.537
 5347SOL    HW116607   3.682   1.964  10.581
 5347SOL    HW216608   3.689   2.043  10.438
 5348SOL     OW16609   3.567   3.349  10.414
 5348SOL    HW116610   3.474   3.324  10.387
 5348SOL    HW216611   3.593   3.299  10.496
 5349SOL     OW16612   2.674   3.448   9.997
 5349SOL    HW116613   2.706   3.458   9.903
 5349SOL    HW216614   2.595   3.386   9.999
 5350SOL     OW16615   3.286   2.076  10.422
 5350SOL    HW116616   3.338   2.011  10.477
 5350SOL    HW216617   3.237   2.139  10.483
 5351SOL     OW16618   2.863   1.896  10.464
 5351SOL    HW116619   2.800   1.824  10.433
 5351SOL    HW216620   2.956   1.860  10.464
 5352SOL     OW16621   2.632   3.192   9.611
 5352SOL    HW116622   2.586   3.105   9.628
 5352SOL    HW216623   2.723   3.189   9.652
 5353SOL     OW16624   2.480   3.429  10.594
 5353SOL    HW116625   2.475   3.511  10.651
 5353SOL    HW216626   2.569   3.426  10.549
 5354SOL     OW16627   3.214   1.914   9.478
 5354SOL    HW116628   3.249   1.873   9.394
 5354SOL    HW216629   3.124   1.876   9.498
 5355SOL     OW16630   3.162   2.315  10.001
 5355SOL    HW116631   3.103   2.395  10.005
 5355SOL    HW216632   3.177   2.280  10.094
 5356SOL     OW16633   3.455   2.083  10.192
 5356SOL    HW116634   3.371   2.082  10.246
 5356SOL    HW216635   3.457   2.166  10.136
 5357SOL     OW16636   1.901   2.939   9.610
 5357SOL    HW116637   2.000   2.928   9.601
 5357SOL    HW216638   1.861   2.853   9.642
 5358SOL     OW16639   2.737   3.508   9.647
 5358SOL    HW116640   2.660   3.473   9.593
 5358SOL    HW216641   2.705   3.579   9.709
 5359SOL     OW16642   2.092   4.352   0.113
 5359SOL    HW116643   1.999   4.350   0.150
 5359SOL    HW216644   2.093   4.313   0.021
 5360SOL     OW16645   2.087   3.999   0.996
 5360SOL    HW116646   2.122   3.982   1.088
 5360SOL    HW216647   1.999   3.954   0.984
 5361SOL     OW16648   1.881   4.092   0.647
 5361SOL    HW116649   1.799   4.135   0.686
 5361SOL    HW216650   1.853   4.019   0.584
 5362SOL     OW16651   3.617   4.331   0.231
 5362SOL    HW116652   3.605   4.318   0.132
 5362SOL    HW216653   3.587   4.250   0.280
 5363SOL     OW16654   2.547   4.736   0.665
 5363SOL    HW116655   2.616   4.720   0.735
 5363SOL    HW216656   2.474   4.793   0.703
 5364SOL     OW16657   2.300   4.116   1.499
 5364SOL    HW116658   2.382   4.060   1.508
 5364SOL    HW216659   2.219   4.058   1.503
 5365SOL     OW16660   3.465   4.171   0.737
 5365SOL    HW116661   3.391   4.217   0.687
 5365SOL    HW216662   3.516   4.239   0.790
 5366SOL     OW16663   3.456   3.838   1.480
 5366SOL    HW116664   3.438   3.905   1.408
 5366SOL    HW216665   3.453   3.884   1.569
 5367SOL     OW16666   1.984   4.367   0.563
 5367SOL    HW116667   1.939   4.279   0.580
 5367SOL    HW216668   1.983   4.421   0.647
 5368SOL     OW16669   1.975   4.461   1.597
 5368SOL    HW116670   2.063   4.448   1.642
 5368SOL    HW216671   1.962   4.558   1.575
 5369SOL     OW16672   2.671   3.728   0.502
 5369SOL    HW116673   2.711   3.819   0.493
 5369SOL    HW216674   2.571   3.736   0.508
 5370SOL     OW16675   2.179   3.975   1.801
 5370SOL    HW116676   2.250   4.046   1.807
 5370SOL    HW216677   2.091   4.014   1.829
 5371SOL     OW16678   3.143   4.069   0.944
 5371SOL    HW116679   3.057   4.019   0.931
 5371SOL    HW216680   3.205   4.015   1.000
 5372SOL     OW16681   2.669   4.329   1.465
 5372SOL    HW116682   2.622   4.326   1.554
 5372SOL    HW216683   2.618   4.274   1.399
 5373SOL     OW16684   3.256   4.193   1.674
 5373SOL    HW116685   3.236   4.236   1.762
 5373SOL    HW216686   3.334   4.131   1.683
 5374SOL     OW16687   2.853   4.134   1.242
 5374SOL    HW116688   2.776   4.168   1.296
 5374SOL    HW216689   2.819   4.083   1.163
 5375SOL     OW16690   2.903   4.425   0.429
 5375SOL    HW116691   2.929   4.421   0.525
 5375SOL    HW216692   2.818   4.374   0.415
 5376SOL     OW16693   2.727   4.072   0.195
 5376SOL    HW116694   2.786   4.135   0.146
 5376SOL    HW216695   2.746   3.978   0.166
 5377SOL     OW16696   3.581   4.309   1.831
 5377SOL    HW116697   3.555   4.398   1.795
 5377SOL    HW216698   3.579   4.241   1.758
 5378SOL     OW16699   2.412   3.920   0.885
 5378SOL    HW116700   2.407   3.915   0.985
 5378SOL    HW216701   2.414   4.016   0.856
 5379SOL     OW16702   3.320   4.459   0.728
 5379SOL    HW116703   3.315   4.394   0.803
 5379SOL    HW216704   3.400   4.518   0.741
 5380SOL     OW16705   2.064   4.009   1.498
 5380SOL    HW116706   1.984   4.069   1.485
 5380SOL    HW216707   2.054   3.960   1.584
 5381SOL     OW16708   3.262   3.831   0.426
 5381SOL    HW116709   3.238   3.794   0.336
 5381SOL    HW216710   3.361   3.847   0.430
 5382SOL     OW16711   2.244   4.424   0.480
 5382SOL    HW116712   2.289   4.334   0.477
 5382SOL    HW216713   2.150   4.413   0.513
 5383SOL     OW16714   3.409   3.946   1.729
 5383SOL    HW116715   3.404   3.983   1.821
 5383SOL    HW216716   3.337   3.877   1.717
 5384SOL     OW16717   2.476   3.846   0.117
 5384SOL    HW116718   2.574   3.824   0.124
 5384SOL    HW216719   2.445   3.829   0.024
 5385SOL     OW16720   2.643   3.988   1.749
 5385SOL    HW116721   2.710   3.927   1.792
 5385SOL    HW216722   2.570   4.007   1.814
 5386SOL     OW16723   3.213   4.314   1.433
 5386SOL    HW116724   3.241   4.271   1.518
 5386SOL    HW216725   3.238   4.410   1.434
 5387SOL     OW16726   2.784   4.227   0.899
 5387SOL    HW116727   2.759   4.218   0.803
 5387SOL    HW216728   2.832   4.145   0.930
 5388SOL     OW16729   2.401   3.788   0.512
 5388SOL    HW116730   2.320   3.789   0.570
 5388SOL    HW216731   2.404   3.871   0.457
 5389SOL     OW16732   2.159   3.759   0.171
 5389SOL    HW116733   2.208   3.843   0.150
 5389SOL    HW216734   2.221   3.694   0.216
 5390SOL     OW16735   2.797   3.960   0.480
 5390SOL    HW116736   2.749   4.001   0.402
 5390SOL    HW216737   2.896   3.958   0.461
 5391SOL     OW16738   2.938   4.407   1.464
 5391SOL    HW116739   2.858   4.346   1.467
 5391SOL    HW216740   3.019   4.354   1.440
 5392SOL     OW16741   2.894   4.273   0.016
 5392SOL    HW116742   2.853   4.355  -0.023
 5392SOL    HW216743   2.958   4.299   0.089
 5393SOL     OW16744   1.940   4.280   1.386
 5393SOL    HW116745   2.032   4.279   1.345
 5393SOL    HW216746   1.934   4.354   1.453
 5394SOL     OW16747   2.423   3.946   1.147
 5394SOL    HW116748   2.461   3.862   1.184
 5394SOL    HW216749   2.335   3.965   1.191
 5395SOL     OW16750   2.728   4.178   0.642
 5395SOL    HW116751   2.696   4.250   0.580
 5395SOL    HW216752   2.752   4.097   0.589
 5396SOL     OW16753   2.879   3.763   0.753
 5396SOL    HW116754   2.807   3.768   0.684
 5396SOL    HW216755   2.855   3.694   0.822
 5397SOL     OW16756   3.328   4.314   0.992
 5397SOL    HW116757   3.298   4.219   0.999
 5397SOL    HW216758   3.401   4.330   1.058
 5398SOL     OW16759   3.252   4.299   0.078
 5398SOL    HW116760   3.198   4.278   0.159
 5398SOL    HW216761   3.343   4.258   0.087
 5399SOL     OW16762   2.389   3.980   0.328
 5399SOL    HW116763   2.416   3.921   0.253
 5399SOL    HW216764   2.389   4.075   0.297
 5400SOL     OW16765   2.777   3.813   1.402
 5400SOL    HW116766   2.802   3.793   1.307
 5400SOL    HW216767   2.849   3.869   1.444
 5401SOL     OW16768   2.272   4.537   1.251
 5401SOL    HW116769   2.358   4.549   1.301
 5401SOL    HW216770   2.230   4.450   1.278
 5402SOL     OW16771   3.136   4.110   1.262
 5402SOL    HW116772   3.157   4.184   1.326
 5402SOL    HW216773   3.047   4.127   1.219
 5403SOL     OW16774   2.428   4.261   0.865
 5403SOL    HW116775   2.440   4.327   0.791
 5403SOL    HW216776   2.474   4.295   0.948
 5404SOL     OW16777   3.444   4.363   0.472
 5404SOL    HW116778   3.413   4.424   0.545
 5404SOL    HW216779   3.494   4.415   0.403
 5405SOL     OW16780   2.875   3.829   1.770
 5405SOL    HW116781   2.881   3.914   1.718
 5405SOL    HW216782   2.907   3.753   1.713
 5406SOL     OW16783   2.366   3.774   1.740
 5406SOL    HW116784   2.324   3.717   1.670
 5406SOL    HW216785   2.300   3.843   1.772
 5407SOL     OW16786   3.071   4.249   0.275
 5407SOL    HW116787   3.084   4.165   0.329
 5407SOL    HW216788   3.042   4.323   0.335
 5408SOL     OW16789   2.169   3.937   1.231
 5408SOL    HW116790   2.146   3.974   1.321
 5408SOL    HW216791   2.139   3.842   1.225
 5409SOL     OW16792   2.594   4.358   1.064
 5409SOL    HW116793   2.653   4.332   0.988
 5409SOL    HW216794   2.566   4.454   1.053
 5410SOL     OW16795   3.590   4.659   1.854
 5410SOL    HW116796   3.544   4.652   1.765
 5410SOL    HW216797   3.528   4.703   1.920
 5411SOL     OW16798   2.169   3.787   0.618
 5411SOL    HW116799   2.158   3.881   0.651
 5411SOL    HW216800   2.164   3.724   0.695
 5412SOL     OW16801   3.484   4.091   0.374
 5412SOL    HW116802   3.486   4.015   0.438
 5412SOL    HW216803   3.436   4.168   0.414
 5413SOL     OW16804   3.402   3.998   0.125
 5413SOL    HW116805   3.341   3.923   0.148
 5413SOL    HW216806   3.424   4.050   0.208
 5414SOL     OW16807   2.181   4.534   0.949
 5414SOL    HW116808   2.274   4.570   0.954
 5414SOL    HW216809   2.175   4.449   1.001
 5415SOL     OW16810   2.201   4.233   1.006
 5415SOL    HW116811   2.149   4.150   0.989
 5415SOL    HW216812   2.278   4.238   0.942
 5416SOL     OW16813   3.000   4.104   1.678
 5416SOL    HW116814   2.955   4.167   1.742
 5416SOL    HW216815   3.093   4.135   1.661
 5417SOL     OW16816   3.022   3.931   1.477
 5417SOL    HW116817   3.022   3.995   1.554
 5417SOL    HW216818   3.050   3.979   1.394
 5418SOL     OW16819   1.902   4.268   1.114
 5418SOL    HW116820   1.987   4.235   1.073
 5418SOL    HW216821   1.915   4.283   1.212
 5419SOL     OW16822   2.051   4.244   1.722
 5419SOL    HW116823   2.110   4.204   1.652
 5419SOL    HW216824   1.993   4.315   1.681
 5420SOL     OW16825   2.677   4.296   0.325
 5420SOL    HW116826   2.684   4.207   0.279
 5420SOL    HW216827   2.583   4.330   0.317
 5421SOL     OW16828   3.519   4.328   1.206
 5421SOL    HW116829   3.481   4.259   1.268
 5421SOL    HW216830   3.601   4.292   1.162
 5422SOL     OW16831   2.533   4.188   1.269
 5422SOL    HW116832   2.499   4.099   1.239
 5422SOL    HW216833   2.559   4.242   1.189
 5423SOL     OW16834   2.335   4.224   0.191
 5423SOL    HW116835   2.396   4.304   0.195
 5423SOL    HW216836   2.240   4.255   0.198
 5424SOL     OW16837   2.765   3.810   0.133
 5424SOL    HW116838   2.816   3.811   0.047
 5424SOL    HW216839   2.821   3.768   0.204
 5425SOL     OW16840   3.588   3.859   0.523
 5425SOL    HW116841   3.661   3.842   0.456
 5425SOL    HW216842   3.557   3.772   0.561
 5426SOL     OW16843   3.142   4.651   0.672
 5426SOL    HW116844   3.202   4.570   0.674
 5426SOL    HW216845   3.182   4.720   0.612
 5427SOL     OW16846   3.703   3.899   0.963
 5427SOL    HW116847   3.742   3.814   0.927
 5427SOL    HW216848   3.605   3.901   0.944
 5428SOL     OW16849   2.125   4.050   0.720
 5428SOL    HW116850   2.046   4.101   0.686
 5428SOL    HW216851   2.116   4.035   0.818
 5429SOL     OW16852   2.901   4.822   0.696
 5429SOL    HW116853   2.831   4.775   0.750
 5429SOL    HW216854   2.960   4.754   0.653
 5430SOL     OW16855   2.876   3.960   0.971
 5430SOL    HW116856   2.868   3.924   0.878
 5430SOL    HW216857   2.874   3.884   1.036
 5431SOL     OW16858   3.571   4.109   1.381
 5431SOL    HW116859   3.644   4.178   1.385
 5431SOL    HW216860   3.599   4.034   1.322
 5432SOL     OW16861   2.534   3.927   1.489
 5432SOL    HW116862   2.624   3.911   1.449
 5432SOL    HW216863   2.542   3.932   1.588
 5433SOL     OW16864   1.937   4.069   0.033
 5433SOL    HW116865   1.845   4.041   0.004
 5433SOL    HW216866   1.968   4.146  -0.023
 5434SOL     OW16867   1.934   3.890   0.318
 5434SOL    HW116868   1.917   3.973   0.264
 5434SOL    HW216869   2.024   3.853   0.296
 5435SOL     OW16870   2.578   4.289   1.708
 5435SOL    HW116871   2.597   4.354   1.782
 5435SOL    HW216872   2.638   4.209   1.717
 5436SOL     OW16873   3.087   4.049   0.449
 5436SOL    HW116874   3.152   3.975   0.438
 5436SOL    HW216875   3.107   4.099   0.533
 5437SOL     OW16876   3.639   4.066   1.642
 5437SOL    HW116877   3.622   4.097   1.548
 5437SOL    HW216878   3.555   4.029   1.680
 5438SOL     OW16879   2.945   4.708   0.087
 5438SOL    HW116880   2.922   4.761   0.005
 5438SOL    HW216881   3.026   4.652   0.068
 5439SOL     OW16882   3.686   3.916   1.227
 5439SOL    HW116883   3.682   3.826   1.271
 5439SOL    HW216884   3.689   3.905   1.128
 5440SOL     OW16885   2.290   4.148   0.520
 5440SOL    HW116886   2.320   4.076   0.458
 5440SOL    HW216887   2.251   4.108   0.603
 5441SOL     OW16888   2.179   4.271   1.280
 5441SOL    HW116889   2.217   4.212   1.352
 5441SOL    HW216890   2.219   4.245   1.192
 5442SOL     OW16891   3.286   3.938   1.112
 5442SOL    HW116892   3.338   3.873   1.167
 5442SOL    HW216893   3.237   4.001   1.173
 5443SOL     OW16894   2.863   3.758   1.154
 5443SOL    HW116895   2.800   3.686   1.123
 5443SOL    HW216896   2.956   3.722   1.154
 5444SOL     OW16897   3.214   3.776   0.168
 5444SOL    HW116898   3.249   3.735   0.084
 5444SOL    HW216899   3.124   3.738   0.188
 5445SOL     OW16900   3.162   4.177   0.691
 5445SOL    HW116901   3.103   4.257   0.695
 5445SOL    HW216902   3.177   4.142   0.784
 5446SOL     OW16903   3.455   3.945   0.882
 5446SOL    HW116904   3.371   3.944   0.936
 5446SOL    HW216905   3.457   4.028   0.826
 5447SOL     OW16906   2.092   4.352   1.975
 5447SOL    HW116907   1.999   4.350   2.012
 5447SOL    HW216908   2.093   4.313   1.883
 5448SOL     OW16909   2.087   3.999   2.858
 5448SOL    HW116910   2.122   3.982   2.950
 5448SOL    HW216911   1.999   3.954   2.846
 5449SOL     OW16912   1.881   4.092   2.509
 5449SOL    HW116913   1.799   4.135   2.548
 5449SOL    HW216914   1.853   4.019   2.446
 5450SOL     OW16915   3.617   4.331   2.093
 5450SOL    HW116916   3.605   4.318   1.994
 5450SOL    HW216917   3.587   4.250   2.142
 5451SOL     OW16918   2.547   4.736   2.527
 5451SOL    HW116919   2.616   4.720   2.597
 5451SOL    HW216920   2.474   4.793   2.565
 5452SOL     OW16921   2.300   4.116   3.361
 5452SOL    HW116922   2.382   4.060   3.370
 5452SOL    HW216923   2.219   4.058   3.365
 5453SOL     OW16924   3.465   4.171   2.599
 5453SOL    HW116925   3.391   4.217   2.549
 5453SOL    HW216926   3.516   4.239   2.652
 5454SOL     OW16927   3.456   3.838   3.342
 5454SOL    HW116928   3.438   3.905   3.270
 5454SOL    HW216929   3.453   3.884   3.431
 5455SOL     OW16930   1.984   4.367   2.425
 5455SOL    HW116931   1.939   4.279   2.442
 5455SOL    HW216932   1.983   4.421   2.509
 5456SOL     OW16933   1.975   4.461   3.459
 5456SOL    HW116934   2.063   4.448   3.504
 5456SOL    HW216935   1.962   4.558   3.437
 5457SOL     OW16936   2.671   3.728   2.364
 5457SOL    HW116937   2.711   3.819   2.355
 5457SOL    HW216938   2.571   3.736   2.370
 5458SOL     OW16939   2.179   3.975   3.663
 5458SOL    HW116940   2.250   4.046   3.669
 5458SOL    HW216941   2.091   4.014   3.691
 5459SOL     OW16942   3.143   4.069   2.806
 5459SOL    HW116943   3.057   4.019   2.793
 5459SOL    HW216944   3.205   4.015   2.862
 5460SOL     OW16945   2.669   4.329   3.327
 5460SOL    HW116946   2.622   4.326   3.416
 5460SOL    HW216947   2.618   4.274   3.261
 5461SOL     OW16948   3.256   4.193   3.536
 5461SOL    HW116949   3.236   4.236   3.624
 5461SOL    HW216950   3.334   4.131   3.545
 5462SOL     OW16951   2.853   4.134   3.104
 5462SOL    HW116952   2.776   4.168   3.158
 5462SOL    HW216953   2.819   4.083   3.025
 5463SOL     OW16954   2.903   4.425   2.291
 5463SOL    HW116955   2.929   4.421   2.387
 5463SOL    HW216956   2.818   4.374   2.277
 5464SOL     OW16957   2.727   4.072   2.057
 5464SOL    HW116958   2.786   4.135   2.008
 5464SOL    HW216959   2.746   3.978   2.028
 5465SOL     OW16960   3.581   4.309   3.693
 5465SOL    HW116961   3.555   4.398   3.657
 5465SOL    HW216962   3.579   4.241   3.620
 5466SOL     OW16963   2.412   3.920   2.747
 5466SOL    HW116964   2.407   3.915   2.847
 5466SOL    HW216965   2.414   4.016   2.718
 5467SOL     OW16966   3.320   4.459   2.590
 5467SOL    HW116967   3.315   4.394   2.665
 5467SOL    HW216968   3.400   4.518   2.603
 5468SOL     OW16969   2.064   4.009   3.360
 5468SOL    HW116970   1.984   4.069   3.347
 5468SOL    HW216971   2.054   3.960   3.446
 5469SOL     OW16972   3.262   3.831   2.288
 5469SOL    HW116973   3.238   3.794   2.198
 5469SOL    HW216974   3.361   3.847   2.292
 5470SOL     OW16975   2.244   4.424   2.342
 5470SOL    HW116976   2.289   4.334   2.339
 5470SOL    HW216977   2.150   4.413   2.375
 5471SOL     OW16978   3.409   3.946   3.591
 5471SOL    HW116979   3.404   3.983   3.683
 5471SOL    HW216980   3.337   3.877   3.579
 5472SOL     OW16981   2.476   3.846   1.979
 5472SOL    HW116982   2.574   3.824   1.986
 5472SOL    HW216983   2.445   3.829   1.886
 5473SOL     OW16984   2.643   3.988   3.611
 5473SOL    HW116985   2.710   3.927   3.654
 5473SOL    HW216986   2.570   4.007   3.676
 5474SOL     OW16987   3.213   4.314   3.295
 5474SOL    HW116988   3.241   4.271   3.380
 5474SOL    HW216989   3.238   4.410   3.296
 5475SOL     OW16990   2.784   4.227   2.761
 5475SOL    HW116991   2.759   4.218   2.665
 5475SOL    HW216992   2.832   4.145   2.792
 5476SOL     OW16993   2.401   3.788   2.374
 5476SOL    HW116994   2.320   3.789   2.432
 5476SOL    HW216995   2.404   3.871   2.319
 5477SOL     OW16996   2.159   3.759   2.033
 5477SOL    HW116997   2.208   3.843   2.012
 5477SOL    HW216998   2.221   3.694   2.078
 5478SOL     OW16999   2.797   3.960   2.342
 5478SOL    HW117000   2.749   4.001   2.264
 5478SOL    HW217001   2.896   3.958   2.323
 5479SOL     OW17002   2.938   4.407   3.326
 5479SOL    HW117003   2.858   4.346   3.329
 5479SOL    HW217004   3.019   4.354   3.302
 5480SOL     OW17005   2.894   4.273   1.878
 5480SOL    HW117006   2.853   4.355   1.839
 5480SOL    HW217007   2.958   4.299   1.951
 5481SOL     OW17008   1.940   4.280   3.248
 5481SOL    HW117009   2.032   4.279   3.207
 5481SOL    HW217010   1.934   4.354   3.315
 5482SOL     OW17011   2.423   3.946   3.009
 5482SOL    HW117012   2.461   3.862   3.046
 5482SOL    HW217013   2.335   3.965   3.053
 5483SOL     OW17014   2.728   4.178   2.504
 5483SOL    HW117015   2.696   4.250   2.442
 5483SOL    HW217016   2.752   4.097   2.451
 5484SOL     OW17017   2.879   3.763   2.615
 5484SOL    HW117018   2.807   3.768   2.546
 5484SOL    HW217019   2.855   3.694   2.684
 5485SOL     OW17020   3.328   4.314   2.854
 5485SOL    HW117021   3.298   4.219   2.861
 5485SOL    HW217022   3.401   4.330   2.920
 5486SOL     OW17023   3.252   4.299   1.940
 5486SOL    HW117024   3.198   4.278   2.021
 5486SOL    HW217025   3.343   4.258   1.949
 5487SOL     OW17026   2.389   3.980   2.190
 5487SOL    HW117027   2.416   3.921   2.115
 5487SOL    HW217028   2.389   4.075   2.159
 5488SOL     OW17029   2.777   3.813   3.264
 5488SOL    HW117030   2.802   3.793   3.169
 5488SOL    HW217031   2.849   3.869   3.306
 5489SOL     OW17032   2.272   4.537   3.113
 5489SOL    HW117033   2.358   4.549   3.163
 5489SOL    HW217034   2.230   4.450   3.140
 5490SOL     OW17035   3.136   4.110   3.124
 5490SOL    HW117036   3.157   4.184   3.188
 5490SOL    HW217037   3.047   4.127   3.081
 5491SOL     OW17038   2.428   4.261   2.727
 5491SOL    HW117039   2.440   4.327   2.653
 5491SOL    HW217040   2.474   4.295   2.810
 5492SOL     OW17041   3.444   4.363   2.334
 5492SOL    HW117042   3.413   4.424   2.407
 5492SOL    HW217043   3.494   4.415   2.265
 5493SOL     OW17044   2.875   3.829   3.632
 5493SOL    HW117045   2.881   3.914   3.580
 5493SOL    HW217046   2.907   3.753   3.575
 5494SOL     OW17047   2.366   3.774   3.602
 5494SOL    HW117048   2.324   3.717   3.532
 5494SOL    HW217049   2.300   3.843   3.634
 5495SOL     OW17050   3.071   4.249   2.137
 5495SOL    HW117051   3.084   4.165   2.191
 5495SOL    HW217052   3.042   4.323   2.197
 5496SOL     OW17053   2.169   3.937   3.093
 5496SOL    HW117054   2.146   3.974   3.183
 5496SOL    HW217055   2.139   3.842   3.087
 5497SOL     OW17056   2.594   4.358   2.926
 5497SOL    HW117057   2.653   4.332   2.850
 5497SOL    HW217058   2.566   4.454   2.915
 5498SOL     OW17059   3.590   4.659   3.716
 5498SOL    HW117060   3.544   4.652   3.627
 5498SOL    HW217061   3.528   4.703   3.782
 5499SOL     OW17062   2.169   3.787   2.480
 5499SOL    HW117063   2.158   3.881   2.513
 5499SOL    HW217064   2.164   3.724   2.557
 5500SOL     OW17065   3.484   4.091   2.236
 5500SOL    HW117066   3.486   4.015   2.300
 5500SOL    HW217067   3.436   4.168   2.276
 5501SOL     OW17068   3.402   3.998   1.987
 5501SOL    HW117069   3.341   3.923   2.010
 5501SOL    HW217070   3.424   4.050   2.070
 5502SOL     OW17071   2.181   4.534   2.811
 5502SOL    HW117072   2.274   4.570   2.816
 5502SOL    HW217073   2.175   4.449   2.863
 5503SOL     OW17074   2.201   4.233   2.868
 5503SOL    HW117075   2.149   4.150   2.851
 5503SOL    HW217076   2.278   4.238   2.804
 5504SOL     OW17077   3.000   4.104   3.540
 5504SOL    HW117078   2.955   4.167   3.604
 5504SOL    HW217079   3.093   4.135   3.523
 5505SOL     OW17080   3.022   3.931   3.339
 5505SOL    HW117081   3.022   3.995   3.416
 5505SOL    HW217082   3.050   3.979   3.256
 5506SOL     OW17083   1.902   4.268   2.976
 5506SOL    HW117084   1.987   4.235   2.935
 5506SOL    HW217085   1.915   4.283   3.074
 5507SOL     OW17086   2.051   4.244   3.584
 5507SOL    HW117087   2.110   4.204   3.514
 5507SOL    HW217088   1.993   4.315   3.543
 5508SOL     OW17089   2.677   4.296   2.187
 5508SOL    HW117090   2.684   4.207   2.141
 5508SOL    HW217091   2.583   4.330   2.179
 5509SOL     OW17092   3.519   4.328   3.068
 5509SOL    HW117093   3.481   4.259   3.130
 5509SOL    HW217094   3.601   4.292   3.024
 5510SOL     OW17095   2.533   4.188   3.131
 5510SOL    HW117096   2.499   4.099   3.101
 5510SOL    HW217097   2.559   4.242   3.051
 5511SOL     OW17098   2.335   4.224   2.053
 5511SOL    HW117099   2.396   4.304   2.057
 5511SOL    HW217100   2.240   4.255   2.060
 5512SOL     OW17101   3.588   3.859   2.385
 5512SOL    HW117102   3.661   3.842   2.318
 5512SOL    HW217103   3.557   3.772   2.423
 5513SOL     OW17104   3.142   4.651   2.534
 5513SOL    HW117105   3.202   4.570   2.536
 5513SOL    HW217106   3.182   4.720   2.474
 5514SOL     OW17107   3.703   3.899   2.825
 5514SOL    HW117108   3.742   3.814   2.789
 5514SOL    HW217109   3.605   3.901   2.806
 5515SOL     OW17110   2.125   4.050   2.582
 5515SOL    HW117111   2.046   4.101   2.548
 5515SOL    HW217112   2.116   4.035   2.680
 5516SOL     OW17113   2.778   4.634   2.153
 5516SOL    HW117114   2.841   4.672   2.085
 5516SOL    HW217115   2.818   4.551   2.192
 5517SOL     OW17116   2.901   4.822   2.558
 5517SOL    HW117117   2.831   4.775   2.612
 5517SOL    HW217118   2.960   4.754   2.515
 5518SOL     OW17119   2.876   3.960   2.833
 5518SOL    HW117120   2.868   3.924   2.740
 5518SOL    HW217121   2.874   3.884   2.898
 5519SOL     OW17122   3.571   4.109   3.243
 5519SOL    HW117123   3.644   4.178   3.247
 5519SOL    HW217124   3.599   4.034   3.184
 5520SOL     OW17125   2.534   3.927   3.351
 5520SOL    HW117126   2.624   3.911   3.311
 5520SOL    HW217127   2.542   3.932   3.450
 5521SOL     OW17128   1.937   4.069   1.895
 5521SOL    HW117129   1.845   4.041   1.866
 5521SOL    HW217130   1.968   4.146   1.839
 5522SOL     OW17131   1.934   3.890   2.180
 5522SOL    HW117132   1.917   3.973   2.126
 5522SOL    HW217133   2.024   3.853   2.158
 5523SOL     OW17134   2.578   4.289   3.570
 5523SOL    HW117135   2.597   4.354   3.644
 5523SOL    HW217136   2.638   4.209   3.579
 5524SOL     OW17137   3.087   4.049   2.311
 5524SOL    HW117138   3.152   3.975   2.300
 5524SOL    HW217139   3.107   4.099   2.395
 5525SOL     OW17140   3.639   4.066   3.504
 5525SOL    HW117141   3.622   4.097   3.410
 5525SOL    HW217142   3.555   4.029   3.542
 5526SOL     OW17143   2.945   4.708   1.949
 5526SOL    HW117144   2.922   4.761   1.867
 5526SOL    HW217145   3.026   4.652   1.930
 5527SOL     OW17146   3.686   3.916   3.089
 5527SOL    HW117147   3.682   3.826   3.133
 5527SOL    HW217148   3.689   3.905   2.990
 5528SOL     OW17149   2.290   4.148   2.382
 5528SOL    HW117150   2.320   4.076   2.320
 5528SOL    HW217151   2.251   4.108   2.465
 5529SOL     OW17152   2.179   4.271   3.142
 5529SOL    HW117153   2.217   4.212   3.214
 5529SOL    HW217154   2.219   4.245   3.054
 5530SOL     OW17155   3.286   3.938   2.974
 5530SOL    HW117156   3.338   3.873   3.029
 5530SOL    HW217157   3.237   4.001   3.035
 5531SOL     OW17158   2.863   3.758   3.016
 5531SOL    HW117159   2.800   3.686   2.985
 5531SOL    HW217160   2.956   3.722   3.016
 5532SOL     OW17161   3.214   3.776   2.030
 5532SOL    HW117162   3.249   3.735   1.946
 5532SOL    HW217163   3.124   3.738   2.050
 5533SOL     OW17164   3.162   4.177   2.553
 5533SOL    HW117165   3.103   4.257   2.557
 5533SOL    HW217166   3.177   4.142   2.646
 5534SOL     OW17167   3.455   3.945   2.744
 5534SOL    HW117168   3.371   3.944   2.798
 5534SOL    HW217169   3.457   4.028   2.688
 5535SOL     OW17170   2.092   4.352   3.837
 5535SOL    HW117171   1.999   4.350   3.874
 5535SOL    HW217172   2.093   4.313   3.745
 5536SOL     OW17173   2.087   3.999   4.720
 5536SOL    HW117174   2.122   3.982   4.812
 5536SOL    HW217175   1.999   3.954   4.708
 5537SOL     OW17176   1.881   4.092   4.371
 5537SOL    HW117177   1.799   4.135   4.410
 5537SOL    HW217178   1.853   4.019   4.308
 5538SOL     OW17179   3.617   4.331   3.955
 5538SOL    HW117180   3.605   4.318   3.856
 5538SOL    HW217181   3.587   4.250   4.004
 5539SOL     OW17182   2.547   4.736   4.389
 5539SOL    HW117183   2.616   4.720   4.459
 5539SOL    HW217184   2.474   4.793   4.427
 5540SOL     OW17185   2.300   4.116   5.223
 5540SOL    HW117186   2.382   4.060   5.232
 5540SOL    HW217187   2.219   4.058   5.227
 5541SOL     OW17188   3.465   4.171   4.461
 5541SOL    HW117189   3.391   4.217   4.411
 5541SOL    HW217190   3.516   4.239   4.514
 5542SOL     OW17191   3.456   3.838   5.204
 5542SOL    HW117192   3.438   3.905   5.132
 5542SOL    HW217193   3.453   3.884   5.293
 5543SOL     OW17194   1.984   4.367   4.287
 5543SOL    HW117195   1.939   4.279   4.304
 5543SOL    HW217196   1.983   4.421   4.371
 5544SOL     OW17197   1.975   4.461   5.321
 5544SOL    HW117198   2.063   4.448   5.366
 5544SOL    HW217199   1.962   4.558   5.299
 5545SOL     OW17200   2.671   3.728   4.226
 5545SOL    HW117201   2.711   3.819   4.217
 5545SOL    HW217202   2.571   3.736   4.232
 5546SOL     OW17203   2.179   3.975   5.525
 5546SOL    HW117204   2.250   4.046   5.531
 5546SOL    HW217205   2.091   4.014   5.553
 5547SOL     OW17206   3.143   4.069   4.668
 5547SOL    HW117207   3.057   4.019   4.655
 5547SOL    HW217208   3.205   4.015   4.724
 5548SOL     OW17209   2.669   4.329   5.189
 5548SOL    HW117210   2.622   4.326   5.278
 5548SOL    HW217211   2.618   4.274   5.123
 5549SOL     OW17212   3.256   4.193   5.398
 5549SOL    HW117213   3.236   4.236   5.486
 5549SOL    HW217214   3.334   4.131   5.407
 5550SOL     OW17215   2.853   4.134   4.966
 5550SOL    HW117216   2.776   4.168   5.020
 5550SOL    HW217217   2.819   4.083   4.887
 5551SOL     OW17218   2.903   4.425   4.153
 5551SOL    HW117219   2.929   4.421   4.249
 5551SOL    HW217220   2.818   4.374   4.139
 5552SOL     OW17221   2.727   4.072   3.919
 5552SOL    HW117222   2.786   4.135   3.870
 5552SOL    HW217223   2.746   3.978   3.890
 5553SOL     OW17224   3.581   4.309   5.555
 5553SOL    HW117225   3.555   4.398   5.519
 5553SOL    HW217226   3.579   4.241   5.482
 5554SOL     OW17227   2.412   3.920   4.609
 5554SOL    HW117228   2.407   3.915   4.709
 5554SOL    HW217229   2.414   4.016   4.580
 5555SOL     OW17230   3.320   4.459   4.452
 5555SOL    HW117231   3.315   4.394   4.527
 5555SOL    HW217232   3.400   4.518   4.465
 5556SOL     OW17233   2.064   4.009   5.222
 5556SOL    HW117234   1.984   4.069   5.209
 5556SOL    HW217235   2.054   3.960   5.308
 5557SOL     OW17236   3.262   3.831   4.150
 5557SOL    HW117237   3.238   3.794   4.060
 5557SOL    HW217238   3.361   3.847   4.154
 5558SOL     OW17239   2.244   4.424   4.204
 5558SOL    HW117240   2.289   4.334   4.201
 5558SOL    HW217241   2.150   4.413   4.237
 5559SOL     OW17242   3.409   3.946   5.453
 5559SOL    HW117243   3.404   3.983   5.545
 5559SOL    HW217244   3.337   3.877   5.441
 5560SOL     OW17245   2.476   3.846   3.841
 5560SOL    HW117246   2.574   3.824   3.848
 5560SOL    HW217247   2.445   3.829   3.748
 5561SOL     OW17248   2.643   3.988   5.473
 5561SOL    HW117249   2.710   3.927   5.516
 5561SOL    HW217250   2.570   4.007   5.538
 5562SOL     OW17251   3.213   4.314   5.157
 5562SOL    HW117252   3.241   4.271   5.242
 5562SOL    HW217253   3.238   4.410   5.158
 5563SOL     OW17254   2.784   4.227   4.623
 5563SOL    HW117255   2.759   4.218   4.527
 5563SOL    HW217256   2.832   4.145   4.654
 5564SOL     OW17257   2.401   3.788   4.236
 5564SOL    HW117258   2.320   3.789   4.294
 5564SOL    HW217259   2.404   3.871   4.181
 5565SOL     OW17260   2.159   3.759   3.895
 5565SOL    HW117261   2.208   3.843   3.874
 5565SOL    HW217262   2.221   3.694   3.940
 5566SOL     OW17263   2.797   3.960   4.204
 5566SOL    HW117264   2.749   4.001   4.126
 5566SOL    HW217265   2.896   3.958   4.185
 5567SOL     OW17266   2.938   4.407   5.188
 5567SOL    HW117267   2.858   4.346   5.191
 5567SOL    HW217268   3.019   4.354   5.164
 5568SOL     OW17269   2.894   4.273   3.740
 5568SOL    HW117270   2.853   4.355   3.701
 5568SOL    HW217271   2.958   4.299   3.813
 5569SOL     OW17272   1.940   4.280   5.110
 5569SOL    HW117273   2.032   4.279   5.069
 5569SOL    HW217274   1.934   4.354   5.177
 5570SOL     OW17275   2.423   3.946   4.871
 5570SOL    HW117276   2.461   3.862   4.908
 5570SOL    HW217277   2.335   3.965   4.915
 5571SOL     OW17278   2.728   4.178   4.366
 5571SOL    HW117279   2.696   4.250   4.304
 5571SOL    HW217280   2.752   4.097   4.313
 5572SOL     OW17281   2.879   3.763   4.477
 5572SOL    HW117282   2.807   3.768   4.408
 5572SOL    HW217283   2.855   3.694   4.546
 5573SOL     OW17284   3.328   4.314   4.716
 5573SOL    HW117285   3.298   4.219   4.723
 5573SOL    HW217286   3.401   4.330   4.782
 5574SOL     OW17287   3.252   4.299   3.802
 5574SOL    HW117288   3.198   4.278   3.883
 5574SOL    HW217289   3.343   4.258   3.811
 5575SOL     OW17290   2.389   3.980   4.052
 5575SOL    HW117291   2.416   3.921   3.977
 5575SOL    HW217292   2.389   4.075   4.021
 5576SOL     OW17293   2.777   3.813   5.126
 5576SOL    HW117294   2.802   3.793   5.031
 5576SOL    HW217295   2.849   3.869   5.168
 5577SOL     OW17296   2.272   4.537   4.975
 5577SOL    HW117297   2.358   4.549   5.025
 5577SOL    HW217298   2.230   4.450   5.002
 5578SOL     OW17299   3.136   4.110   4.986
 5578SOL    HW117300   3.157   4.184   5.050
 5578SOL    HW217301   3.047   4.127   4.943
 5579SOL     OW17302   2.428   4.261   4.589
 5579SOL    HW117303   2.440   4.327   4.515
 5579SOL    HW217304   2.474   4.295   4.672
 5580SOL     OW17305   3.444   4.363   4.196
 5580SOL    HW117306   3.413   4.424   4.269
 5580SOL    HW217307   3.494   4.415   4.127
 5581SOL     OW17308   2.875   3.829   5.494
 5581SOL    HW117309   2.881   3.914   5.442
 5581SOL    HW217310   2.907   3.753   5.437
 5582SOL     OW17311   2.366   3.774   5.464
 5582SOL    HW117312   2.324   3.717   5.394
 5582SOL    HW217313   2.300   3.843   5.496
 5583SOL     OW17314   3.071   4.249   3.999
 5583SOL    HW117315   3.084   4.165   4.053
 5583SOL    HW217316   3.042   4.323   4.059
 5584SOL     OW17317   2.169   3.937   4.955
 5584SOL    HW117318   2.146   3.974   5.045
 5584SOL    HW217319   2.139   3.842   4.949
 5585SOL     OW17320   2.594   4.358   4.788
 5585SOL    HW117321   2.653   4.332   4.712
 5585SOL    HW217322   2.566   4.454   4.777
 5586SOL     OW17323   3.590   4.659   5.578
 5586SOL    HW117324   3.544   4.652   5.489
 5586SOL    HW217325   3.528   4.703   5.644
 5587SOL     OW17326   2.169   3.787   4.342
 5587SOL    HW117327   2.158   3.881   4.375
 5587SOL    HW217328   2.164   3.724   4.419
 5588SOL     OW17329   3.484   4.091   4.098
 5588SOL    HW117330   3.486   4.015   4.162
 5588SOL    HW217331   3.436   4.168   4.138
 5589SOL     OW17332   3.402   3.998   3.849
 5589SOL    HW117333   3.341   3.923   3.872
 5589SOL    HW217334   3.424   4.050   3.932
 5590SOL     OW17335   2.181   4.534   4.673
 5590SOL    HW117336   2.274   4.570   4.678
 5590SOL    HW217337   2.175   4.449   4.725
 5591SOL     OW17338   2.201   4.233   4.730
 5591SOL    HW117339   2.149   4.150   4.713
 5591SOL    HW217340   2.278   4.238   4.666
 5592SOL     OW17341   3.000   4.104   5.402
 5592SOL    HW117342   2.955   4.167   5.466
 5592SOL    HW217343   3.093   4.135   5.385
 5593SOL     OW17344   3.022   3.931   5.201
 5593SOL    HW117345   3.022   3.995   5.278
 5593SOL    HW217346   3.050   3.979   5.118
 5594SOL     OW17347   1.902   4.268   4.838
 5594SOL    HW117348   1.987   4.235   4.797
 5594SOL    HW217349   1.915   4.283   4.936
 5595SOL     OW17350   2.051   4.244   5.446
 5595SOL    HW117351   2.110   4.204   5.376
 5595SOL    HW217352   1.993   4.315   5.405
 5596SOL     OW17353   2.677   4.296   4.049
 5596SOL    HW117354   2.684   4.207   4.003
 5596SOL    HW217355   2.583   4.330   4.041
 5597SOL     OW17356   3.519   4.328   4.930
 5597SOL    HW117357   3.481   4.259   4.992
 5597SOL    HW217358   3.601   4.292   4.886
 5598SOL     OW17359   2.533   4.188   4.993
 5598SOL    HW117360   2.499   4.099   4.963
 5598SOL    HW217361   2.559   4.242   4.913
 5599SOL     OW17362   2.335   4.224   3.915
 5599SOL    HW117363   2.396   4.304   3.919
 5599SOL    HW217364   2.240   4.255   3.922
 5600SOL     OW17365   3.588   3.859   4.247
 5600SOL    HW117366   3.661   3.842   4.180
 5600SOL    HW217367   3.557   3.772   4.285
 5601SOL     OW17368   3.142   4.651   4.396
 5601SOL    HW117369   3.202   4.570   4.398
 5601SOL    HW217370   3.182   4.720   4.336
 5602SOL     OW17371   3.703   3.899   4.687
 5602SOL    HW117372   3.742   3.814   4.651
 5602SOL    HW217373   3.605   3.901   4.668
 5603SOL     OW17374   2.125   4.050   4.444
 5603SOL    HW117375   2.046   4.101   4.410
 5603SOL    HW217376   2.116   4.035   4.542
 5604SOL     OW17377   2.778   4.634   4.015
 5604SOL    HW117378   2.841   4.672   3.947
 5604SOL    HW217379   2.818   4.551   4.054
 5605SOL     OW17380   2.901   4.822   4.420
 5605SOL    HW117381   2.831   4.775   4.474
 5605SOL    HW217382   2.960   4.754   4.377
 5606SOL     OW17383   2.876   3.960   4.695
 5606SOL    HW117384   2.868   3.924   4.602
 5606SOL    HW217385   2.874   3.884   4.760
 5607SOL     OW17386   3.571   4.109   5.105
 5607SOL    HW117387   3.644   4.178   5.109
 5607SOL    HW217388   3.599   4.034   5.046
 5608SOL     OW17389   2.534   3.927   5.213
 5608SOL    HW117390   2.624   3.911   5.173
 5608SOL    HW217391   2.542   3.932   5.312
 5609SOL     OW17392   1.937   4.069   3.757
 5609SOL    HW117393   1.845   4.041   3.728
 5609SOL    HW217394   1.968   4.146   3.701
 5610SOL     OW17395   1.934   3.890   4.042
 5610SOL    HW117396   1.917   3.973   3.988
 5610SOL    HW217397   2.024   3.853   4.020
 5611SOL     OW17398   2.578   4.289   5.432
 5611SOL    HW117399   2.597   4.354   5.506
 5611SOL    HW217400   2.638   4.209   5.441
 5612SOL     OW17401   3.087   4.049   4.173
 5612SOL    HW117402   3.152   3.975   4.162
 5612SOL    HW217403   3.107   4.099   4.257
 5613SOL     OW17404   3.639   4.066   5.366
 5613SOL    HW117405   3.622   4.097   5.272
 5613SOL    HW217406   3.555   4.029   5.404
 5614SOL     OW17407   2.945   4.708   3.811
 5614SOL    HW117408   2.922   4.761   3.729
 5614SOL    HW217409   3.026   4.652   3.792
 5615SOL     OW17410   3.686   3.916   4.951
 5615SOL    HW117411   3.682   3.826   4.995
 5615SOL    HW217412   3.689   3.905   4.852
 5616SOL     OW17413   2.290   4.148   4.244
 5616SOL    HW117414   2.320   4.076   4.182
 5616SOL    HW217415   2.251   4.108   4.327
 5617SOL     OW17416   2.179   4.271   5.004
 5617SOL    HW117417   2.217   4.212   5.076
 5617SOL    HW217418   2.219   4.245   4.916
 5618SOL     OW17419   3.286   3.938   4.836
 5618SOL    HW117420   3.338   3.873   4.891
 5618SOL    HW217421   3.237   4.001   4.897
 5619SOL     OW17422   2.863   3.758   4.878
 5619SOL    HW117423   2.800   3.686   4.847
 5619SOL    HW217424   2.956   3.722   4.878
 5620SOL     OW17425   3.214   3.776   3.892
 5620SOL    HW117426   3.249   3.735   3.808
 5620SOL    HW217427   3.124   3.738   3.912
 5621SOL     OW17428   3.162   4.177   4.415
 5621SOL    HW117429   3.103   4.257   4.419
 5621SOL    HW217430   3.177   4.142   4.508
 5622SOL     OW17431   3.455   3.945   4.606
 5622SOL    HW117432   3.371   3.944   4.660
 5622SOL    HW217433   3.457   4.028   4.550
 5623SOL     OW17434   2.092   4.352   5.699
 5623SOL    HW117435   1.999   4.350   5.736
 5623SOL    HW217436   2.093   4.313   5.607
 5624SOL     OW17437   2.087   3.999   6.582
 5624SOL    HW117438   2.122   3.982   6.674
 5624SOL    HW217439   1.999   3.954   6.570
 5625SOL     OW17440   1.881   4.092   6.233
 5625SOL    HW117441   1.799   4.135   6.272
 5625SOL    HW217442   1.853   4.019   6.170
 5626SOL     OW17443   3.617   4.331   5.817
 5626SOL    HW117444   3.605   4.318   5.718
 5626SOL    HW217445   3.587   4.250   5.866
 5627SOL     OW17446   2.547   4.736   6.251
 5627SOL    HW117447   2.616   4.720   6.321
 5627SOL    HW217448   2.474   4.793   6.289
 5628SOL     OW17449   2.300   4.116   7.085
 5628SOL    HW117450   2.382   4.060   7.094
 5628SOL    HW217451   2.219   4.058   7.089
 5629SOL     OW17452   3.465   4.171   6.323
 5629SOL    HW117453   3.391   4.217   6.273
 5629SOL    HW217454   3.516   4.239   6.376
 5630SOL     OW17455   3.456   3.838   7.066
 5630SOL    HW117456   3.438   3.905   6.994
 5630SOL    HW217457   3.453   3.884   7.155
 5631SOL     OW17458   1.984   4.367   6.149
 5631SOL    HW117459   1.939   4.279   6.166
 5631SOL    HW217460   1.983   4.421   6.233
 5632SOL     OW17461   1.975   4.461   7.183
 5632SOL    HW117462   2.063   4.448   7.228
 5632SOL    HW217463   1.962   4.558   7.161
 5633SOL     OW17464   2.671   3.728   6.088
 5633SOL    HW117465   2.711   3.819   6.079
 5633SOL    HW217466   2.571   3.736   6.094
 5634SOL     OW17467   2.179   3.975   7.387
 5634SOL    HW117468   2.250   4.046   7.393
 5634SOL    HW217469   2.091   4.014   7.415
 5635SOL     OW17470   3.143   4.069   6.530
 5635SOL    HW117471   3.057   4.019   6.517
 5635SOL    HW217472   3.205   4.015   6.586
 5636SOL     OW17473   2.669   4.329   7.051
 5636SOL    HW117474   2.622   4.326   7.140
 5636SOL    HW217475   2.618   4.274   6.985
 5637SOL     OW17476   3.256   4.193   7.260
 5637SOL    HW117477   3.236   4.236   7.348
 5637SOL    HW217478   3.334   4.131   7.269
 5638SOL     OW17479   2.853   4.134   6.828
 5638SOL    HW117480   2.776   4.168   6.882
 5638SOL    HW217481   2.819   4.083   6.749
 5639SOL     OW17482   2.903   4.425   6.015
 5639SOL    HW117483   2.929   4.421   6.111
 5639SOL    HW217484   2.818   4.374   6.001
 5640SOL     OW17485   2.727   4.072   5.781
 5640SOL    HW117486   2.786   4.135   5.732
 5640SOL    HW217487   2.746   3.978   5.752
 5641SOL     OW17488   3.581   4.309   7.417
 5641SOL    HW117489   3.555   4.398   7.381
 5641SOL    HW217490   3.579   4.241   7.344
 5642SOL     OW17491   2.412   3.920   6.471
 5642SOL    HW117492   2.407   3.915   6.571
 5642SOL    HW217493   2.414   4.016   6.442
 5643SOL     OW17494   3.320   4.459   6.314
 5643SOL    HW117495   3.315   4.394   6.389
 5643SOL    HW217496   3.400   4.518   6.327
 5644SOL     OW17497   2.064   4.009   7.084
 5644SOL    HW117498   1.984   4.069   7.071
 5644SOL    HW217499   2.054   3.960   7.170
 5645SOL     OW17500   3.262   3.831   6.012
 5645SOL    HW117501   3.238   3.794   5.922
 5645SOL    HW217502   3.361   3.847   6.016
 5646SOL     OW17503   2.244   4.424   6.066
 5646SOL    HW117504   2.289   4.334   6.063
 5646SOL    HW217505   2.150   4.413   6.099
 5647SOL     OW17506   3.409   3.946   7.315
 5647SOL    HW117507   3.404   3.983   7.407
 5647SOL    HW217508   3.337   3.877   7.303
 5648SOL     OW17509   2.476   3.846   5.703
 5648SOL    HW117510   2.574   3.824   5.710
 5648SOL    HW217511   2.445   3.829   5.610
 5649SOL     OW17512   2.643   3.988   7.335
 5649SOL    HW117513   2.710   3.927   7.378
 5649SOL    HW217514   2.570   4.007   7.400
 5650SOL     OW17515   3.213   4.314   7.019
 5650SOL    HW117516   3.241   4.271   7.104
 5650SOL    HW217517   3.238   4.410   7.020
 5651SOL     OW17518   2.784   4.227   6.485
 5651SOL    HW117519   2.759   4.218   6.389
 5651SOL    HW217520   2.832   4.145   6.516
 5652SOL     OW17521   2.401   3.788   6.098
 5652SOL    HW117522   2.320   3.789   6.156
 5652SOL    HW217523   2.404   3.871   6.043
 5653SOL     OW17524   2.159   3.759   5.757
 5653SOL    HW117525   2.208   3.843   5.736
 5653SOL    HW217526   2.221   3.694   5.802
 5654SOL     OW17527   2.797   3.960   6.066
 5654SOL    HW117528   2.749   4.001   5.988
 5654SOL    HW217529   2.896   3.958   6.047
 5655SOL     OW17530   2.938   4.407   7.050
 5655SOL    HW117531   2.858   4.346   7.053
 5655SOL    HW217532   3.019   4.354   7.026
 5656SOL     OW17533   2.894   4.273   5.602
 5656SOL    HW117534   2.853   4.355   5.563
 5656SOL    HW217535   2.958   4.299   5.675
 5657SOL     OW17536   1.940   4.280   6.972
 5657SOL    HW117537   2.032   4.279   6.931
 5657SOL    HW217538   1.934   4.354   7.039
 5658SOL     OW17539   2.423   3.946   6.733
 5658SOL    HW117540   2.461   3.862   6.770
 5658SOL    HW217541   2.335   3.965   6.777
 5659SOL     OW17542   2.728   4.178   6.228
 5659SOL    HW117543   2.696   4.250   6.166
 5659SOL    HW217544   2.752   4.097   6.175
 5660SOL     OW17545   2.879   3.763   6.339
 5660SOL    HW117546   2.807   3.768   6.270
 5660SOL    HW217547   2.855   3.694   6.408
 5661SOL     OW17548   3.328   4.314   6.578
 5661SOL    HW117549   3.298   4.219   6.585
 5661SOL    HW217550   3.401   4.330   6.644
 5662SOL     OW17551   3.252   4.299   5.664
 5662SOL    HW117552   3.198   4.278   5.745
 5662SOL    HW217553   3.343   4.258   5.673
 5663SOL     OW17554   2.389   3.980   5.914
 5663SOL    HW117555   2.416   3.921   5.839
 5663SOL    HW217556   2.389   4.075   5.883
 5664SOL     OW17557   2.777   3.813   6.988
 5664SOL    HW117558   2.802   3.793   6.893
 5664SOL    HW217559   2.849   3.869   7.030
 5665SOL     OW17560   2.272   4.537   6.837
 5665SOL    HW117561   2.358   4.549   6.887
 5665SOL    HW217562   2.230   4.450   6.864
 5666SOL     OW17563   3.136   4.110   6.848
 5666SOL    HW117564   3.157   4.184   6.912
 5666SOL    HW217565   3.047   4.127   6.805
 5667SOL     OW17566   2.428   4.261   6.451
 5667SOL    HW117567   2.440   4.327   6.377
 5667SOL    HW217568   2.474   4.295   6.534
 5668SOL     OW17569   3.444   4.363   6.058
 5668SOL    HW117570   3.413   4.424   6.131
 5668SOL    HW217571   3.494   4.415   5.989
 5669SOL     OW17572   2.875   3.829   7.356
 5669SOL    HW117573   2.881   3.914   7.304
 5669SOL    HW217574   2.907   3.753   7.299
 5670SOL     OW17575   2.366   3.774   7.326
 5670SOL    HW117576   2.324   3.717   7.256
 5670SOL    HW217577   2.300   3.843   7.358
 5671SOL     OW17578   3.071   4.249   5.861
 5671SOL    HW117579   3.084   4.165   5.915
 5671SOL    HW217580   3.042   4.323   5.921
 5672SOL     OW17581   2.169   3.937   6.817
 5672SOL    HW117582   2.146   3.974   6.907
 5672SOL    HW217583   2.139   3.842   6.811
 5673SOL     OW17584   2.594   4.358   6.650
 5673SOL    HW117585   2.653   4.332   6.574
 5673SOL    HW217586   2.566   4.454   6.639
 5674SOL     OW17587   3.590   4.659   7.440
 5674SOL    HW117588   3.544   4.652   7.351
 5674SOL    HW217589   3.528   4.703   7.506
 5675SOL     OW17590   2.169   3.787   6.204
 5675SOL    HW117591   2.158   3.881   6.237
 5675SOL    HW217592   2.164   3.724   6.281
 5676SOL     OW17593   3.484   4.091   5.960
 5676SOL    HW117594   3.486   4.015   6.024
 5676SOL    HW217595   3.436   4.168   6.000
 5677SOL     OW17596   3.402   3.998   5.711
 5677SOL    HW117597   3.341   3.923   5.734
 5677SOL    HW217598   3.424   4.050   5.794
 5678SOL     OW17599   2.181   4.534   6.535
 5678SOL    HW117600   2.274   4.570   6.540
 5678SOL    HW217601   2.175   4.449   6.587
 5679SOL     OW17602   2.201   4.233   6.592
 5679SOL    HW117603   2.149   4.150   6.575
 5679SOL    HW217604   2.278   4.238   6.528
 5680SOL     OW17605   3.000   4.104   7.264
 5680SOL    HW117606   2.955   4.167   7.328
 5680SOL    HW217607   3.093   4.135   7.247
 5681SOL     OW17608   3.022   3.931   7.063
 5681SOL    HW117609   3.022   3.995   7.140
 5681SOL    HW217610   3.050   3.979   6.980
 5682SOL     OW17611   1.902   4.268   6.700
 5682SOL    HW117612   1.987   4.235   6.659
 5682SOL    HW217613   1.915   4.283   6.798
 5683SOL     OW17614   2.051   4.244   7.308
 5683SOL    HW117615   2.110   4.204   7.238
 5683SOL    HW217616   1.993   4.315   7.267
 5684SOL     OW17617   2.677   4.296   5.911
 5684SOL    HW117618   2.684   4.207   5.865
 5684SOL    HW217619   2.583   4.330   5.903
 5685SOL     OW17620   3.519   4.328   6.792
 5685SOL    HW117621   3.481   4.259   6.854
 5685SOL    HW217622   3.601   4.292   6.748
 5686SOL     OW17623   2.533   4.188   6.855
 5686SOL    HW117624   2.499   4.099   6.825
 5686SOL    HW217625   2.559   4.242   6.775
 5687SOL     OW17626   2.335   4.224   5.777
 5687SOL    HW117627   2.396   4.304   5.781
 5687SOL    HW217628   2.240   4.255   5.784
 5688SOL     OW17629   3.588   3.859   6.109
 5688SOL    HW117630   3.661   3.842   6.042
 5688SOL    HW217631   3.557   3.772   6.147
 5689SOL     OW17632   3.142   4.651   6.258
 5689SOL    HW117633   3.202   4.570   6.260
 5689SOL    HW217634   3.182   4.720   6.198
 5690SOL     OW17635   3.703   3.899   6.549
 5690SOL    HW117636   3.742   3.814   6.513
 5690SOL    HW217637   3.605   3.901   6.530
 5691SOL     OW17638   2.125   4.050   6.306
 5691SOL    HW117639   2.046   4.101   6.272
 5691SOL    HW217640   2.116   4.035   6.404
 5692SOL     OW17641   2.778   4.634   5.877
 5692SOL    HW117642   2.841   4.672   5.809
 5692SOL    HW217643   2.818   4.551   5.916
 5693SOL     OW17644   2.901   4.822   6.282
 5693SOL    HW117645   2.831   4.775   6.336
 5693SOL    HW217646   2.960   4.754   6.239
 5694SOL     OW17647   2.876   3.960   6.557
 5694SOL    HW117648   2.868   3.924   6.464
 5694SOL    HW217649   2.874   3.884   6.622
 5695SOL     OW17650   3.571   4.109   6.967
 5695SOL    HW117651   3.644   4.178   6.971
 5695SOL    HW217652   3.599   4.034   6.908
 5696SOL     OW17653   2.534   3.927   7.075
 5696SOL    HW117654   2.624   3.911   7.035
 5696SOL    HW217655   2.542   3.932   7.174
 5697SOL     OW17656   1.937   4.069   5.619
 5697SOL    HW117657   1.845   4.041   5.590
 5697SOL    HW217658   1.968   4.146   5.563
 5698SOL     OW17659   1.934   3.890   5.904
 5698SOL    HW117660   1.917   3.973   5.850
 5698SOL    HW217661   2.024   3.853   5.882
 5699SOL     OW17662   2.578   4.289   7.294
 5699SOL    HW117663   2.597   4.354   7.368
 5699SOL    HW217664   2.638   4.209   7.303
 5700SOL     OW17665   3.087   4.049   6.035
 5700SOL    HW117666   3.152   3.975   6.024
 5700SOL    HW217667   3.107   4.099   6.119
 5701SOL     OW17668   3.639   4.066   7.228
 5701SOL    HW117669   3.622   4.097   7.134
 5701SOL    HW217670   3.555   4.029   7.266
 5702SOL     OW17671   2.945   4.708   5.673
 5702SOL    HW117672   2.922   4.761   5.591
 5702SOL    HW217673   3.026   4.652   5.654
 5703SOL     OW17674   3.686   3.916   6.813
 5703SOL    HW117675   3.682   3.826   6.857
 5703SOL    HW217676   3.689   3.905   6.714
 5704SOL     OW17677   2.290   4.148   6.106
 5704SOL    HW117678   2.320   4.076   6.044
 5704SOL    HW217679   2.251   4.108   6.189
 5705SOL     OW17680   2.179   4.271   6.866
 5705SOL    HW117681   2.217   4.212   6.938
 5705SOL    HW217682   2.219   4.245   6.778
 5706SOL     OW17683   3.286   3.938   6.698
 5706SOL    HW117684   3.338   3.873   6.753
 5706SOL    HW217685   3.237   4.001   6.759
 5707SOL     OW17686   2.863   3.758   6.740
 5707SOL    HW117687   2.800   3.686   6.709
 5707SOL    HW217688   2.956   3.722   6.740
 5708SOL     OW17689   3.214   3.776   5.754
 5708SOL    HW117690   3.249   3.735   5.670
 5708SOL    HW217691   3.124   3.738   5.774
 5709SOL     OW17692   3.162   4.177   6.277
 5709SOL    HW117693   3.103   4.257   6.281
 5709SOL    HW217694   3.177   4.142   6.370
 5710SOL     OW17695   3.455   3.945   6.468
 5710SOL    HW117696   3.371   3.944   6.522
 5710SOL    HW217697   3.457   4.028   6.412
 5711SOL     OW17698   2.092   4.352   7.561
 5711SOL    HW117699   1.999   4.350   7.598
 5711SOL    HW217700   2.093   4.313   7.469
 5712SOL     OW17701   2.087   3.999   8.444
 5712SOL    HW117702   2.122   3.982   8.536
 5712SOL    HW217703   1.999   3.954   8.432
 5713SOL     OW17704   1.881   4.092   8.095
 5713SOL    HW117705   1.799   4.135   8.134
 5713SOL    HW217706   1.853   4.019   8.032
 5714SOL     OW17707   3.617   4.331   7.679
 5714SOL    HW117708   3.605   4.318   7.580
 5714SOL    HW217709   3.587   4.250   7.728
 5715SOL     OW17710   2.547   4.736   8.113
 5715SOL    HW117711   2.616   4.720   8.183
 5715SOL    HW217712   2.474   4.793   8.151
 5716SOL     OW17713   2.300   4.116   8.947
 5716SOL    HW117714   2.382   4.060   8.956
 5716SOL    HW217715   2.219   4.058   8.951
 5717SOL     OW17716   3.465   4.171   8.185
 5717SOL    HW117717   3.391   4.217   8.135
 5717SOL    HW217718   3.516   4.239   8.238
 5718SOL     OW17719   3.456   3.838   8.928
 5718SOL    HW117720   3.438   3.905   8.856
 5718SOL    HW217721   3.453   3.884   9.017
 5719SOL     OW17722   1.984   4.367   8.011
 5719SOL    HW117723   1.939   4.279   8.028
 5719SOL    HW217724   1.983   4.421   8.095
 5720SOL     OW17725   1.975   4.461   9.045
 5720SOL    HW117726   2.063   4.448   9.090
 5720SOL    HW217727   1.962   4.558   9.023
 5721SOL     OW17728   2.671   3.728   7.950
 5721SOL    HW117729   2.711   3.819   7.941
 5721SOL    HW217730   2.571   3.736   7.956
 5722SOL     OW17731   2.179   3.975   9.249
 5722SOL    HW117732   2.250   4.046   9.255
 5722SOL    HW217733   2.091   4.014   9.277
 5723SOL     OW17734   3.143   4.069   8.392
 5723SOL    HW117735   3.057   4.019   8.379
 5723SOL    HW217736   3.205   4.015   8.448
 5724SOL     OW17737   2.669   4.329   8.913
 5724SOL    HW117738   2.622   4.326   9.002
 5724SOL    HW217739   2.618   4.274   8.847
 5725SOL     OW17740   3.256   4.193   9.122
 5725SOL    HW117741   3.236   4.236   9.210
 5725SOL    HW217742   3.334   4.131   9.131
 5726SOL     OW17743   2.853   4.134   8.690
 5726SOL    HW117744   2.776   4.168   8.744
 5726SOL    HW217745   2.819   4.083   8.611
 5727SOL     OW17746   2.903   4.425   7.877
 5727SOL    HW117747   2.929   4.421   7.973
 5727SOL    HW217748   2.818   4.374   7.863
 5728SOL     OW17749   2.727   4.072   7.643
 5728SOL    HW117750   2.786   4.135   7.594
 5728SOL    HW217751   2.746   3.978   7.614
 5729SOL     OW17752   3.581   4.309   9.279
 5729SOL    HW117753   3.555   4.398   9.243
 5729SOL    HW217754   3.579   4.241   9.206
 5730SOL     OW17755   2.412   3.920   8.333
 5730SOL    HW117756   2.407   3.915   8.433
 5730SOL    HW217757   2.414   4.016   8.304
 5731SOL     OW17758   3.320   4.459   8.176
 5731SOL    HW117759   3.315   4.394   8.251
 5731SOL    HW217760   3.400   4.518   8.189
 5732SOL     OW17761   2.064   4.009   8.946
 5732SOL    HW117762   1.984   4.069   8.933
 5732SOL    HW217763   2.054   3.960   9.032
 5733SOL     OW17764   3.262   3.831   7.874
 5733SOL    HW117765   3.238   3.794   7.784
 5733SOL    HW217766   3.361   3.847   7.878
 5734SOL     OW17767   2.244   4.424   7.928
 5734SOL    HW117768   2.289   4.334   7.925
 5734SOL    HW217769   2.150   4.413   7.961
 5735SOL     OW17770   3.409   3.946   9.177
 5735SOL    HW117771   3.404   3.983   9.269
 5735SOL    HW217772   3.337   3.877   9.165
 5736SOL     OW17773   2.476   3.846   7.565
 5736SOL    HW117774   2.574   3.824   7.572
 5736SOL    HW217775   2.445   3.829   7.472
 5737SOL     OW17776   2.643   3.988   9.197
 5737SOL    HW117777   2.710   3.927   9.240
 5737SOL    HW217778   2.570   4.007   9.262
 5738SOL     OW17779   3.213   4.314   8.881
 5738SOL    HW117780   3.241   4.271   8.966
 5738SOL    HW217781   3.238   4.410   8.882
 5739SOL     OW17782   2.784   4.227   8.347
 5739SOL    HW117783   2.759   4.218   8.251
 5739SOL    HW217784   2.832   4.145   8.378
 5740SOL     OW17785   2.401   3.788   7.960
 5740SOL    HW117786   2.320   3.789   8.018
 5740SOL    HW217787   2.404   3.871   7.905
 5741SOL     OW17788   2.159   3.759   7.619
 5741SOL    HW117789   2.208   3.843   7.598
 5741SOL    HW217790   2.221   3.694   7.664
 5742SOL     OW17791   2.797   3.960   7.928
 5742SOL    HW117792   2.749   4.001   7.850
 5742SOL    HW217793   2.896   3.958   7.909
 5743SOL     OW17794   2.938   4.407   8.912
 5743SOL    HW117795   2.858   4.346   8.915
 5743SOL    HW217796   3.019   4.354   8.888
 5744SOL     OW17797   2.894   4.273   7.464
 5744SOL    HW117798   2.853   4.355   7.425
 5744SOL    HW217799   2.958   4.299   7.537
 5745SOL     OW17800   1.940   4.280   8.834
 5745SOL    HW117801   2.032   4.279   8.793
 5745SOL    HW217802   1.934   4.354   8.901
 5746SOL     OW17803   2.423   3.946   8.595
 5746SOL    HW117804   2.461   3.862   8.632
 5746SOL    HW217805   2.335   3.965   8.639
 5747SOL     OW17806   2.728   4.178   8.090
 5747SOL    HW117807   2.696   4.250   8.028
 5747SOL    HW217808   2.752   4.097   8.037
 5748SOL     OW17809   2.879   3.763   8.201
 5748SOL    HW117810   2.807   3.768   8.132
 5748SOL    HW217811   2.855   3.694   8.270
 5749SOL     OW17812   3.328   4.314   8.440
 5749SOL    HW117813   3.298   4.219   8.447
 5749SOL    HW217814   3.401   4.330   8.506
 5750SOL     OW17815   3.252   4.299   7.526
 5750SOL    HW117816   3.198   4.278   7.607
 5750SOL    HW217817   3.343   4.258   7.535
 5751SOL     OW17818   2.389   3.980   7.776
 5751SOL    HW117819   2.416   3.921   7.701
 5751SOL    HW217820   2.389   4.075   7.745
 5752SOL     OW17821   2.777   3.813   8.850
 5752SOL    HW117822   2.802   3.793   8.755
 5752SOL    HW217823   2.849   3.869   8.892
 5753SOL     OW17824   2.272   4.537   8.699
 5753SOL    HW117825   2.358   4.549   8.749
 5753SOL    HW217826   2.230   4.450   8.726
 5754SOL     OW17827   3.136   4.110   8.710
 5754SOL    HW117828   3.157   4.184   8.774
 5754SOL    HW217829   3.047   4.127   8.667
 5755SOL     OW17830   2.428   4.261   8.313
 5755SOL    HW117831   2.440   4.327   8.239
 5755SOL    HW217832   2.474   4.295   8.396
 5756SOL     OW17833   3.444   4.363   7.920
 5756SOL    HW117834   3.413   4.424   7.993
 5756SOL    HW217835   3.494   4.415   7.851
 5757SOL     OW17836   2.875   3.829   9.218
 5757SOL    HW117837   2.881   3.914   9.166
 5757SOL    HW217838   2.907   3.753   9.161
 5758SOL     OW17839   2.366   3.774   9.188
 5758SOL    HW117840   2.324   3.717   9.118
 5758SOL    HW217841   2.300   3.843   9.220
 5759SOL     OW17842   3.071   4.249   7.723
 5759SOL    HW117843   3.084   4.165   7.777
 5759SOL    HW217844   3.042   4.323   7.783
 5760SOL     OW17845   2.169   3.937   8.679
 5760SOL    HW117846   2.146   3.974   8.769
 5760SOL    HW217847   2.139   3.842   8.673
 5761SOL     OW17848   2.594   4.358   8.512
 5761SOL    HW117849   2.653   4.332   8.436
 5761SOL    HW217850   2.566   4.454   8.501
 5762SOL     OW17851   3.590   4.659   9.302
 5762SOL    HW117852   3.544   4.652   9.213
 5762SOL    HW217853   3.528   4.703   9.368
 5763SOL     OW17854   2.169   3.787   8.066
 5763SOL    HW117855   2.158   3.881   8.099
 5763SOL    HW217856   2.164   3.724   8.143
 5764SOL     OW17857   3.484   4.091   7.822
 5764SOL    HW117858   3.486   4.015   7.886
 5764SOL    HW217859   3.436   4.168   7.862
 5765SOL     OW17860   3.402   3.998   7.573
 5765SOL    HW117861   3.341   3.923   7.596
 5765SOL    HW217862   3.424   4.050   7.656
 5766SOL     OW17863   2.181   4.534   8.397
 5766SOL    HW117864   2.274   4.570   8.402
 5766SOL    HW217865   2.175   4.449   8.449
 5767SOL     OW17866   2.201   4.233   8.454
 5767SOL    HW117867   2.149   4.150   8.437
 5767SOL    HW217868   2.278   4.238   8.390
 5768SOL     OW17869   3.000   4.104   9.126
 5768SOL    HW117870   2.955   4.167   9.190
 5768SOL    HW217871   3.093   4.135   9.109
 5769SOL     OW17872   3.022   3.931   8.925
 5769SOL    HW117873   3.022   3.995   9.002
 5769SOL    HW217874   3.050   3.979   8.842
 5770SOL     OW17875   1.902   4.268   8.562
 5770SOL    HW117876   1.987   4.235   8.521
 5770SOL    HW217877   1.915   4.283   8.660
 5771SOL     OW17878   2.051   4.244   9.170
 5771SOL    HW117879   2.110   4.204   9.100
 5771SOL    HW217880   1.993   4.315   9.129
 5772SOL     OW17881   2.677   4.296   7.773
 5772SOL    HW117882   2.684   4.207   7.727
 5772SOL    HW217883   2.583   4.330   7.765
 5773SOL     OW17884   3.519   4.328   8.654
 5773SOL    HW117885   3.481   4.259   8.716
 5773SOL    HW217886   3.601   4.292   8.610
 5774SOL     OW17887   2.533   4.188   8.717
 5774SOL    HW117888   2.499   4.099   8.687
 5774SOL    HW217889   2.559   4.242   8.637
 5775SOL     OW17890   2.335   4.224   7.639
 5775SOL    HW117891   2.396   4.304   7.643
 5775SOL    HW217892   2.240   4.255   7.646
 5776SOL     OW17893   3.588   3.859   7.971
 5776SOL    HW117894   3.661   3.842   7.904
 5776SOL    HW217895   3.557   3.772   8.009
 5777SOL     OW17896   3.142   4.651   8.120
 5777SOL    HW117897   3.202   4.570   8.122
 5777SOL    HW217898   3.182   4.720   8.060
 5778SOL     OW17899   3.703   3.899   8.411
 5778SOL    HW117900   3.742   3.814   8.375
 5778SOL    HW217901   3.605   3.901   8.392
 5779SOL     OW17902   2.125   4.050   8.168
 5779SOL    HW117903   2.046   4.101   8.134
 5779SOL    HW217904   2.116   4.035   8.266
 5780SOL     OW17905   2.778   4.634   7.739
 5780SOL    HW117906   2.841   4.672   7.671
 5780SOL    HW217907   2.818   4.551   7.778
 5781SOL     OW17908   2.901   4.822   8.144
 5781SOL    HW117909   2.831   4.775   8.198
 5781SOL    HW217910   2.960   4.754   8.101
 5782SOL     OW17911   2.876   3.960   8.419
 5782SOL    HW117912   2.868   3.924   8.326
 5782SOL    HW217913   2.874   3.884   8.484
 5783SOL     OW17914   3.571   4.109   8.829
 5783SOL    HW117915   3.644   4.178   8.833
 5783SOL    HW217916   3.599   4.034   8.770
 5784SOL     OW17917   2.534   3.927   8.937
 5784SOL    HW117918   2.624   3.911   8.897
 5784SOL    HW217919   2.542   3.932   9.036
 5785SOL     OW17920   1.937   4.069   7.481
 5785SOL    HW117921   1.845   4.041   7.452
 5785SOL    HW217922   1.968   4.146   7.425
 5786SOL     OW17923   1.934   3.890   7.766
 5786SOL    HW117924   1.917   3.973   7.712
 5786SOL    HW217925   2.024   3.853   7.744
 5787SOL     OW17926   2.578   4.289   9.156
 5787SOL    HW117927   2.597   4.354   9.230
 5787SOL    HW217928   2.638   4.209   9.165
 5788SOL     OW17929   3.087   4.049   7.897
 5788SOL    HW117930   3.152   3.975   7.886
 5788SOL    HW217931   3.107   4.099   7.981
 5789SOL     OW17932   3.639   4.066   9.090
 5789SOL    HW117933   3.622   4.097   8.996
 5789SOL    HW217934   3.555   4.029   9.128
 5790SOL     OW17935   2.945   4.708   7.535
 5790SOL    HW117936   2.922   4.761   7.453
 5790SOL    HW217937   3.026   4.652   7.516
 5791SOL     OW17938   3.686   3.916   8.675
 5791SOL    HW117939   3.682   3.826   8.719
 5791SOL    HW217940   3.689   3.905   8.576
 5792SOL     OW17941   2.290   4.148   7.968
 5792SOL    HW117942   2.320   4.076   7.906
 5792SOL    HW217943   2.251   4.108   8.051
 5793SOL     OW17944   2.179   4.271   8.728
 5793SOL    HW117945   2.217   4.212   8.800
 5793SOL    HW217946   2.219   4.245   8.640
 5794SOL     OW17947   3.286   3.938   8.560
 5794SOL    HW117948   3.338   3.873   8.615
 5794SOL    HW217949   3.237   4.001   8.621
 5795SOL     OW17950   2.863   3.758   8.602
 5795SOL    HW117951   2.800   3.686   8.571
 5795SOL    HW217952   2.956   3.722   8.602
 5796SOL     OW17953   3.214   3.776   7.616
 5796SOL    HW117954   3.249   3.735   7.532
 5796SOL    HW217955   3.124   3.738   7.636
 5797SOL     OW17956   3.162   4.177   8.139
 5797SOL    HW117957   3.103   4.257   8.143
 5797SOL    HW217958   3.177   4.142   8.232
 5798SOL     OW17959   3.455   3.945   8.330
 5798SOL    HW117960   3.371   3.944   8.384
 5798SOL    HW217961   3.457   4.028   8.274
 5799SOL     OW17962   2.092   4.352   9.423
 5799SOL    HW117963   1.999   4.350   9.460
 5799SOL    HW217964   2.093   4.313   9.331
 5800SOL     OW17965   2.087   3.999  10.306
 5800SOL    HW117966   2.122   3.982  10.398
 5800SOL    HW217967   1.999   3.954  10.294
 5801SOL     OW17968   1.881   4.092   9.957
 5801SOL    HW117969   1.799   4.135   9.996
 5801SOL    HW217970   1.853   4.019   9.894
 5802SOL     OW17971   3.617   4.331   9.541
 5802SOL    HW117972   3.605   4.318   9.442
 5802SOL    HW217973   3.587   4.250   9.590
 5803SOL     OW17974   2.547   4.736   9.975
 5803SOL    HW117975   2.616   4.720  10.045
 5803SOL    HW217976   2.474   4.793  10.013
 5804SOL     OW17977   2.300   4.116  10.809
 5804SOL    HW117978   2.382   4.060  10.818
 5804SOL    HW217979   2.219   4.058  10.813
 5805SOL     OW17980   3.465   4.171  10.047
 5805SOL    HW117981   3.391   4.217   9.997
 5805SOL    HW217982   3.516   4.239  10.100
 5806SOL     OW17983   3.456   3.838  10.790
 5806SOL    HW117984   3.438   3.905  10.718
 5806SOL    HW217985   3.453   3.884  10.879
 5807SOL     OW17986   1.984   4.367   9.873
 5807SOL    HW117987   1.939   4.279   9.890
 5807SOL    HW217988   1.983   4.421   9.957
 5808SOL     OW17989   1.975   4.461  10.907
 5808SOL    HW117990   2.063   4.448  10.952
 5808SOL    HW217991   1.962   4.558  10.885
 5809SOL     OW17992   2.671   3.728   9.812
 5809SOL    HW117993   2.711   3.819   9.803
 5809SOL    HW217994   2.571   3.736   9.818
 5810SOL     OW17995   2.179   3.975  11.111
 5810SOL    HW117996   2.250   4.046  11.117
 5810SOL    HW217997   2.091   4.014  11.139
 5811SOL     OW17998   3.143   4.069  10.254
 5811SOL    HW117999   3.057   4.019  10.241
 5811SOL    HW218000   3.205   4.015  10.310
 5812SOL     OW18001   2.669   4.329  10.775
 5812SOL    HW118002   2.622   4.326  10.864
 5812SOL    HW218003   2.618   4.274  10.709
 5813SOL     OW18004   2.853   4.134  10.552
 5813SOL    HW118005   2.776   4.168  10.606
 5813SOL    HW218006   2.819   4.083  10.473
 5814SOL     OW18007   2.903   4.425   9.739
 5814SOL    HW118008   2.929   4.421   9.835
 5814SOL    HW218009   2.818   4.374   9.725
 5815SOL     OW18010   2.727   4.072   9.505
 5815SOL    HW118011   2.786   4.135   9.456
 5815SOL    HW218012   2.746   3.978   9.476
 5816SOL     OW18013   2.412   3.920  10.195
 5816SOL    HW118014   2.407   3.915  10.295
 5816SOL    HW218015   2.414   4.016  10.166
 5817SOL     OW18016   3.320   4.459  10.038
 5817SOL    HW118017   3.315   4.394  10.113
 5817SOL    HW218018   3.400   4.518  10.051
 5818SOL     OW18019   2.064   4.009  10.808
 5818SOL    HW118020   1.984   4.069  10.795
 5818SOL    HW218021   2.054   3.960  10.894
 5819SOL     OW18022   3.262   3.831   9.736
 5819SOL    HW118023   3.238   3.794   9.646
 5819SOL    HW218024   3.361   3.847   9.740
 5820SOL     OW18025   2.244   4.424   9.790
 5820SOL    HW118026   2.289   4.334   9.787
 5820SOL    HW218027   2.150   4.413   9.823
 5821SOL     OW18028   2.476   3.846   9.427
 5821SOL    HW118029   2.574   3.824   9.434
 5821SOL    HW218030   2.445   3.829   9.334
 5822SOL     OW18031   2.643   3.988  11.059
 5822SOL    HW118032   2.710   3.927  11.102
 5822SOL    HW218033   2.570   4.007  11.124
 5823SOL     OW18034   3.213   4.314  10.743
 5823SOL    HW118035   3.241   4.271  10.828
 5823SOL    HW218036   3.238   4.410  10.744
 5824SOL     OW18037   2.784   4.227  10.209
 5824SOL    HW118038   2.759   4.218  10.113
 5824SOL    HW218039   2.832   4.145  10.240
 5825SOL     OW18040   2.401   3.788   9.822
 5825SOL    HW118041   2.320   3.789   9.880
 5825SOL    HW218042   2.404   3.871   9.767
 5826SOL     OW18043   2.159   3.759   9.481
 5826SOL    HW118044   2.208   3.843   9.460
 5826SOL    HW218045   2.221   3.694   9.526
 5827SOL     OW18046   2.797   3.960   9.790
 5827SOL    HW118047   2.749   4.001   9.712
 5827SOL    HW218048   2.896   3.958   9.771
 5828SOL     OW18049   2.938   4.407  10.774
 5828SOL    HW118050   2.858   4.346  10.777
 5828SOL    HW218051   3.019   4.354  10.750
 5829SOL     OW18052   2.894   4.273   9.326
 5829SOL    HW118053   2.853   4.355   9.287
 5829SOL    HW218054   2.958   4.299   9.399
 5830SOL     OW18055   1.940   4.280  10.696
 5830SOL    HW118056   2.032   4.279  10.655
 5830SOL    HW218057   1.934   4.354  10.763
 5831SOL     OW18058   2.423   3.946  10.457
 5831SOL    HW118059   2.461   3.862  10.494
 5831SOL    HW218060   2.335   3.965  10.501
 5832SOL     OW18061   2.728   4.178   9.952
 5832SOL    HW118062   2.696   4.250   9.890
 5832SOL    HW218063   2.752   4.097   9.899
 5833SOL     OW18064   2.879   3.763  10.063
 5833SOL    HW118065   2.807   3.768   9.994
 5833SOL    HW218066   2.855   3.694  10.132
 5834SOL     OW18067   3.328   4.314  10.302
 5834SOL    HW118068   3.298   4.219  10.309
 5834SOL    HW218069   3.401   4.330  10.368
 5835SOL     OW18070   3.252   4.299   9.388
 5835SOL    HW118071   3.198   4.278   9.469
 5835SOL    HW218072   3.343   4.258   9.397
 5836SOL     OW18073   2.389   3.980   9.638
 5836SOL    HW118074   2.416   3.921   9.563
 5836SOL    HW218075   2.389   4.075   9.607
 5837SOL     OW18076   2.777   3.813  10.712
 5837SOL    HW118077   2.802   3.793  10.617
 5837SOL    HW218078   2.849   3.869  10.754
 5838SOL     OW18079   2.272   4.537  10.561
 5838SOL    HW118080   2.358   4.549  10.611
 5838SOL    HW218081   2.230   4.450  10.588
 5839SOL     OW18082   3.136   4.110  10.572
 5839SOL    HW118083   3.157   4.184  10.636
 5839SOL    HW218084   3.047   4.127  10.529
 5840SOL     OW18085   2.428   4.261  10.175
 5840SOL    HW118086   2.440   4.327  10.101
 5840SOL    HW218087   2.474   4.295  10.258
 5841SOL     OW18088   3.444   4.363   9.782
 5841SOL    HW118089   3.413   4.424   9.855
 5841SOL    HW218090   3.494   4.415   9.713
 5842SOL     OW18091   2.264   4.475  10.908
 5842SOL    HW118092   2.332   4.530  10.861
 5842SOL    HW218093   2.304   4.387  10.935
 5843SOL     OW18094   3.071   4.249   9.585
 5843SOL    HW118095   3.084   4.165   9.639
 5843SOL    HW218096   3.042   4.323   9.645
 5844SOL     OW18097   2.169   3.937  10.541
 5844SOL    HW118098   2.146   3.974  10.631
 5844SOL    HW218099   2.139   3.842  10.535
 5845SOL     OW18100   2.594   4.358  10.374
 5845SOL    HW118101   2.653   4.332  10.298
 5845SOL    HW218102   2.566   4.454  10.363
 5846SOL     OW18103   2.169   3.787   9.928
 5846SOL    HW118104   2.158   3.881   9.961
 5846SOL    HW218105   2.164   3.724  10.005
 5847SOL     OW18106   3.484   4.091   9.684
 5847SOL    HW118107   3.486   4.015   9.748
 5847SOL    HW218108   3.436   4.168   9.724
 5848SOL     OW18109   3.402   3.998   9.435
 5848SOL    HW118110   3.341   3.923   9.458
 5848SOL    HW218111   3.424   4.050   9.518
 5849SOL     OW18112   2.181   4.534  10.259
 5849SOL    HW118113   2.274   4.570  10.264
 5849SOL    HW218114   2.175   4.449  10.311
 5850SOL     OW18115   2.201   4.233  10.316
 5850SOL    HW118116   2.149   4.150  10.299
 5850SOL    HW218117   2.278   4.238  10.252
 5851SOL     OW18118   3.022   3.931  10.787
 5851SOL    HW118119   3.022   3.995  10.864
 5851SOL    HW218120   3.050   3.979  10.704
 5852SOL     OW18121   1.902   4.268  10.424
 5852SOL    HW118122   1.987   4.235  10.383
 5852SOL    HW218123   1.915   4.283  10.522
 5853SOL     OW18124   3.231   4.674  10.970
 5853SOL    HW118125   3.270   4.763  10.990
 5853SOL    HW218126   3.241   4.654  10.873
 5854SOL     OW18127   2.677   4.296   9.635
 5854SOL    HW118128   2.684   4.207   9.589
 5854SOL    HW218129   2.583   4.330   9.627
 5855SOL     OW18130   3.519   4.328  10.516
 5855SOL    HW118131   3.481   4.259  10.578
 5855SOL    HW218132   3.601   4.292  10.472
 5856SOL     OW18133   2.533   4.188  10.579
 5856SOL    HW118134   2.499   4.099  10.549
 5856SOL    HW218135   2.559   4.242  10.499
 5857SOL     OW18136   2.335   4.224   9.501
 5857SOL    HW118137   2.396   4.304   9.505
 5857SOL    HW218138   2.240   4.255   9.508
 5858SOL     OW18139   3.588   3.859   9.833
 5858SOL    HW118140   3.661   3.842   9.766
 5858SOL    HW218141   3.557   3.772   9.871
 5859SOL     OW18142   3.142   4.651   9.982
 5859SOL    HW118143   3.202   4.570   9.984
 5859SOL    HW218144   3.182   4.720   9.922
 5860SOL     OW18145   3.703   3.899  10.273
 5860SOL    HW118146   3.742   3.814  10.237
 5860SOL    HW218147   3.605   3.901  10.254
 5861SOL     OW18148   2.125   4.050  10.030
 5861SOL    HW118149   2.046   4.101   9.996
 5861SOL    HW218150   2.116   4.035  10.128
 5862SOL     OW18151   2.778   4.634   9.601
 5862SOL    HW118152   2.841   4.672   9.533
 5862SOL    HW218153   2.818   4.551   9.640
 5863SOL     OW18154   2.901   4.822  10.006
 5863SOL    HW118155   2.831   4.775  10.060
 5863SOL    HW218156   2.960   4.754   9.963
 5864SOL     OW18157   2.876   3.960  10.281
 5864SOL    HW118158   2.868   3.924  10.188
 5864SOL    HW218159   2.874   3.884  10.346
 5865SOL     OW18160   3.571   4.109  10.691
 5865SOL    HW118161   3.644   4.178  10.695
 5865SOL    HW218162   3.599   4.034  10.632
 5866SOL     OW18163   2.534   3.927  10.799
 5866SOL    HW118164   2.624   3.911  10.759
 5866SOL    HW218165   2.542   3.932  10.898
 5867SOL     OW18166   1.937   4.069   9.343
 5867SOL    HW118167   1.845   4.041   9.314
 5867SOL    HW218168   1.968   4.146   9.287
 5868SOL     OW18169   1.934   3.890   9.628
 5868SOL    HW118170   1.917   3.973   9.574
 5868SOL    HW218171   2.024   3.853   9.606
 5869SOL     OW18172   2.578   4.289  11.018
 5869SOL    HW118173   2.597   4.354  11.092
 5869SOL    HW218174   2.638   4.209  11.027
 5870SOL     OW18175   3.087   4.049   9.759
 5870SOL    HW118176   3.152   3.975   9.748
 5870SOL    HW218177   3.107   4.099   9.843
 5871SOL     OW18178   3.639   4.066  10.952
 5871SOL    HW118179   3.622   4.097  10.858
 5871SOL    HW218180   3.555   4.029  10.990
 5872SOL     OW18181   2.945   4.708   9.397
 5872SOL    HW118182   2.922   4.761   9.315
 5872SOL    HW218183   3.026   4.652   9.378
 5873SOL     OW18184   3.686   3.916  10.537
 5873SOL    HW118185   3.682   3.826  10.581
 5873SOL    HW218186   3.689   3.905  10.438
 5874SOL     OW18187   2.290   4.148   9.830
 5874SOL    HW118188   2.320   4.076   9.768
 5874SOL    HW218189   2.251   4.108   9.913
 5875SOL     OW18190   2.179   4.271  10.590
 5875SOL    HW118191   2.217   4.212  10.662
 5875SOL    HW218192   2.219   4.245  10.502
 5876SOL     OW18193   3.286   3.938  10.422
 5876SOL    HW118194   3.338   3.873  10.477
 5876SOL    HW218195   3.237   4.001  10.483
 5877SOL     OW18196   2.863   3.758  10.464
 5877SOL    HW118197   2.800   3.686  10.433
 5877SOL    HW218198   2.956   3.722  10.464
 5878SOL     OW18199   3.214   3.776   9.478
 5878SOL    HW118200   3.249   3.735   9.394
 5878SOL    HW218201   3.124   3.738   9.498
 5879SOL     OW18202   3.162   4.177  10.001
 5879SOL    HW118203   3.103   4.257  10.005
 5879SOL    HW218204   3.177   4.142  10.094
 5880SOL     OW18205   3.455   3.945  10.192
 5880SOL    HW118206   3.371   3.944  10.246
 5880SOL    HW218207   3.457   4.028  10.136
 5881SOL     OW18208   3.954   0.628   0.113
 5881SOL    HW118209   3.861   0.626   0.150
 5881SOL    HW218210   3.955   0.589   0.021
 5882SOL     OW18211   3.949   0.275   0.996
 5882SOL    HW118212   3.984   0.258   1.088
 5882SOL    HW218213   3.861   0.230   0.984
 5883SOL     OW18214   3.743   0.368   0.647
 5883SOL    HW118215   3.661   0.411   0.686
 5883SOL    HW218216   3.715   0.295   0.584
 5884SOL     OW18217   4.293   1.275   1.165
 5884SOL    HW118218   4.200   1.268   1.128
 5884SOL    HW218219   4.304   1.364   1.209
 5885SOL     OW18220   4.574   0.798   1.823
 5885SOL    HW118221   4.570   0.874   1.888
 5885SOL    HW218222   4.596   0.834   1.732
 5886SOL     OW18223   4.409   1.012   0.665
 5886SOL    HW118224   4.478   0.996   0.735
 5886SOL    HW218225   4.336   1.069   0.703
 5887SOL     OW18226   4.410   1.161   1.803
 5887SOL    HW118227   4.470   1.240   1.817
 5887SOL    HW218228   4.324   1.192   1.762
 5888SOL     OW18229   4.059   1.435   1.061
 5888SOL    HW118230   3.981   1.404   1.008
 5888SOL    HW218231   4.117   1.493   1.004
 5889SOL     OW18232   4.162   0.392   1.499
 5889SOL    HW118233   4.244   0.336   1.508
 5889SOL    HW218234   4.081   0.334   1.503
 5890SOL     OW18235   3.955   1.713   0.483
 5890SOL    HW118236   3.989   1.790   0.537
 5890SOL    HW218237   3.999   1.713   0.393
 5891SOL     OW18238   3.954   1.434   0.538
 5891SOL    HW118239   3.928   1.530   0.538
 5891SOL    HW218240   3.883   1.380   0.583
 5892SOL     OW18241   3.964   1.091   0.886
 5892SOL    HW118242   3.978   1.007   0.938
 5892SOL    HW218243   3.909   1.155   0.941
 5893SOL     OW18244   4.344   1.786   1.439
 5893SOL    HW118245   4.252   1.769   1.474
 5893SOL    HW218246   4.372   1.878   1.465
 5894SOL     OW18247   4.330   0.964   0.123
 5894SOL    HW118248   4.337   1.048   0.069
 5894SOL    HW218249   4.376   0.977   0.211
 5895SOL     OW18250   3.846   0.643   0.563
 5895SOL    HW118251   3.801   0.555   0.580
 5895SOL    HW218252   3.845   0.697   0.647
 5896SOL     OW18253   3.751   1.596   0.117
 5896SOL    HW118254   3.732   1.500   0.138
 5896SOL    HW218255   3.718   1.654   0.192
 5897SOL     OW18256   3.837   0.737   1.597
 5897SOL    HW118257   3.925   0.724   1.642
 5897SOL    HW218258   3.824   0.834   1.575
 5898SOL     OW18259   4.337   1.365   0.726
 5898SOL    HW118260   4.288   1.278   0.735
 5898SOL    HW218261   4.314   1.408   0.639
 5899SOL     OW18262   4.533   0.004   0.502
 5899SOL    HW118263   4.573   0.095   0.493
 5899SOL    HW218264   4.433   0.012   0.508
 5900SOL     OW18265   3.921   0.976   1.264
 5900SOL    HW118266   4.010   0.931   1.250
 5900SOL    HW218267   3.848   0.911   1.245
 5901SOL     OW18268   4.041   0.251   1.801
 5901SOL    HW118269   4.112   0.322   1.807
 5901SOL    HW218270   3.953   0.290   1.829
 5902SOL     OW18271   4.322   0.729   0.270
 5902SOL    HW118272   4.346   0.798   0.202
 5902SOL    HW218273   4.244   0.762   0.324
 5903SOL     OW18274   3.800   0.811   0.789
 5903SOL    HW118275   3.899   0.799   0.798
 5903SOL    HW218276   3.776   0.906   0.810
 5904SOL     OW18277   3.854   1.821   1.571
 5904SOL    HW118278   3.844   1.806   1.670
 5904SOL    HW218279   3.768   1.857   1.535
 5905SOL     OW18280   4.274   0.196   0.885
 5905SOL    HW118281   4.269   0.191   0.985
 5905SOL    HW218282   4.276   0.292   0.856
 5906SOL     OW18283   4.075   1.801   0.853
 5906SOL    HW118284   4.125   1.715   0.859
 5906SOL    HW218285   4.140   1.878   0.850
 5907SOL     OW18286   4.045   0.943   0.242
 5907SOL    HW118287   4.127   0.982   0.200
 5907SOL    HW218288   4.018   0.861   0.193
 5908SOL     OW18289   4.185   1.266   1.727
 5908SOL    HW118290   4.135   1.267   1.641
 5908SOL    HW218291   4.122   1.248   1.803
 5909SOL     OW18292   3.926   0.285   1.498
 5909SOL    HW118293   3.846   0.345   1.485
 5909SOL    HW218294   3.916   0.236   1.584
 5910SOL     OW18295   4.188   1.743   0.323
 5910SOL    HW118296   4.221   1.782   0.409
 5910SOL    HW218297   4.264   1.736   0.258
 5911SOL     OW18298   3.973   1.785   1.241
 5911SOL    HW118299   4.030   1.720   1.291
 5911SOL    HW218300   3.957   1.752   1.148
 5912SOL     OW18301   4.106   0.700   0.480
 5912SOL    HW118302   4.151   0.610   0.477
 5912SOL    HW218303   4.012   0.689   0.513
 5913SOL     OW18304   4.338   0.122   0.117
 5913SOL    HW118305   4.436   0.100   0.124
 5913SOL    HW218306   4.307   0.105   0.024
 5914SOL     OW18307   4.527   1.402   0.924
 5914SOL    HW118308   4.617   1.416   0.882
 5914SOL    HW218309   4.456   1.404   0.853
 5915SOL     OW18310   4.263   0.064   0.512
 5915SOL    HW118311   4.182   0.065   0.570
 5915SOL    HW218312   4.266   0.147   0.457
 5916SOL     OW18313   4.021   0.035   0.171
 5916SOL    HW118314   4.070   0.119   0.150
 5916SOL    HW218315   4.083  -0.030   0.216
 5917SOL     OW18316   4.800   0.683   1.464
 5917SOL    HW118317   4.720   0.622   1.467
 5917SOL    HW218318   4.881   0.630   1.440
 5918SOL     OW18319   4.183   1.152   0.741
 5918SOL    HW118320   4.112   1.125   0.806
 5918SOL    HW218321   4.157   1.124   0.648
 5919SOL     OW18322   3.802   0.556   1.386
 5919SOL    HW118323   3.894   0.555   1.345
 5919SOL    HW218324   3.796   0.630   1.453
 5920SOL     OW18325   4.285   0.222   1.147
 5920SOL    HW118326   4.323   0.138   1.184
 5920SOL    HW218327   4.197   0.241   1.191
 5921SOL     OW18328   4.212   1.385   0.174
 5921SOL    HW118329   4.125   1.370   0.221
 5921SOL    HW218330   4.195   1.411   0.079
 5922SOL     OW18331   4.251   0.256   0.328
 5922SOL    HW118332   4.278   0.197   0.253
 5922SOL    HW218333   4.251   0.351   0.297
 5923SOL     OW18334   4.134   0.813   1.251
 5923SOL    HW118335   4.220   0.825   1.301
 5923SOL    HW218336   4.092   0.726   1.278
 5924SOL     OW18337   3.788   1.564   1.331
 5924SOL    HW118338   3.742   1.646   1.297
 5924SOL    HW218339   3.886   1.583   1.340
 5925SOL     OW18340   4.091   1.100   0.501
 5925SOL    HW118341   4.084   1.183   0.445
 5925SOL    HW218342   4.095   1.020   0.441
 5926SOL     OW18343   4.290   0.537   0.865
 5926SOL    HW118344   4.302   0.603   0.791
 5926SOL    HW218345   4.336   0.571   0.948
 5927SOL     OW18346   4.078   1.510   1.329
 5927SOL    HW118347   4.057   1.466   1.242
 5927SOL    HW218348   4.175   1.536   1.332
 5928SOL     OW18349   4.126   0.751   1.598
 5928SOL    HW118350   4.194   0.806   1.551
 5928SOL    HW218351   4.166   0.663   1.625
 5929SOL     OW18352   4.228   0.050   1.740
 5929SOL    HW118353   4.186  -0.007   1.670
 5929SOL    HW218354   4.162   0.119   1.772
 5930SOL     OW18355   4.297   0.870   1.029
 5930SOL    HW118356   4.341   0.959   1.020
 5930SOL    HW218357   4.234   0.870   1.106
 5931SOL     OW18358   4.031   0.213   1.231
 5931SOL    HW118359   4.008   0.250   1.321
 5931SOL    HW218360   4.001   0.118   1.225
 5932SOL     OW18361   3.761   1.310   1.282
 5932SOL    HW118362   3.814   1.261   1.350
 5932SOL    HW218363   3.783   1.408   1.287
 5933SOL     OW18364   4.031   0.063   0.618
 5933SOL    HW118365   4.020   0.157   0.651
 5933SOL    HW218366   4.026   0.000   0.695
 5934SOL     OW18367   4.074   0.898   1.804
 5934SOL    HW118368   4.150   0.942   1.852
 5934SOL    HW218369   4.109   0.851   1.722
 5935SOL     OW18370   4.043   0.810   0.949
 5935SOL    HW118371   4.136   0.846   0.954
 5935SOL    HW218372   4.037   0.725   1.001
 5936SOL     OW18373   4.063   0.509   1.006
 5936SOL    HW118374   4.011   0.426   0.989
 5936SOL    HW218375   4.140   0.514   0.942
 5937SOL     OW18376   3.732   1.326   0.200
 5937SOL    HW118377   3.639   1.347   0.169
 5937SOL    HW218378   3.742   1.227   0.213
 5938SOL     OW18379   3.812   1.801   0.927
 5938SOL    HW118380   3.770   1.715   0.900
 5938SOL    HW218381   3.906   1.804   0.893
 5939SOL     OW18382   4.228   1.568   0.910
 5939SOL    HW118383   4.294   1.642   0.919
 5939SOL    HW218384   4.272   1.489   0.868
 5940SOL     OW18385   3.764   0.544   1.114
 5940SOL    HW118386   3.849   0.511   1.073
 5940SOL    HW218387   3.777   0.559   1.212
 5941SOL     OW18388   3.913   0.520   1.722
 5941SOL    HW118389   3.972   0.480   1.652
 5941SOL    HW218390   3.855   0.591   1.681
 5942SOL     OW18391   4.539   0.572   0.325
 5942SOL    HW118392   4.546   0.483   0.279
 5942SOL    HW218393   4.445   0.606   0.317
 5943SOL     OW18394   3.976   1.564   1.744
 5943SOL    HW118395   3.946   1.621   1.820
 5943SOL    HW218396   3.969   1.467   1.770
 5944SOL     OW18397   4.197   0.500   0.191
 5944SOL    HW118398   4.258   0.580   0.195
 5944SOL    HW218399   4.102   0.531   0.198
 5945SOL     OW18400   3.883   1.137   1.466
 5945SOL    HW118401   3.905   1.076   1.542
 5945SOL    HW218402   3.893   1.088   1.380
 5946SOL     OW18403   3.807   1.258   1.022
 5946SOL    HW118404   3.802   1.257   1.122
 5946SOL    HW218405   3.724   1.217   0.984
 5947SOL     OW18406   4.412   1.662   1.716
 5947SOL    HW118407   4.356   1.743   1.725
 5947SOL    HW218408   4.464   1.666   1.630
 5948SOL     OW18409   3.854   1.794   1.851
 5948SOL    HW118410   3.813   1.720   1.904
 5948SOL    HW218411   3.918   1.845   1.909
 5949SOL     OW18412   3.987   0.326   0.720
 5949SOL    HW118413   3.908   0.377   0.686
 5949SOL    HW218414   3.978   0.311   0.818
 5950SOL     OW18415   4.096   1.288   1.490
 5950SOL    HW118416   4.083   1.381   1.456
 5950SOL    HW218417   4.012   1.236   1.477
 5951SOL     OW18418   4.314   1.487   0.491
 5951SOL    HW118419   4.356   1.429   0.421
 5951SOL    HW218420   4.270   1.566   0.447
 5952SOL     OW18421   3.979   1.348   0.290
 5952SOL    HW118422   3.883   1.349   0.263
 5952SOL    HW218423   3.991   1.401   0.374
 5953SOL     OW18424   3.829   1.013   1.726
 5953SOL    HW118425   3.752   0.980   1.780
 5953SOL    HW218426   3.914   0.983   1.768
 5954SOL     OW18427   4.396   0.203   1.489
 5954SOL    HW118428   4.486   0.187   1.449
 5954SOL    HW218429   4.404   0.208   1.588
 5955SOL     OW18430   3.799   0.345   0.033
 5955SOL    HW118431   3.707   0.317   0.004
 5955SOL    HW218432   3.830   0.422  -0.023
 5956SOL     OW18433   3.796   0.166   0.318
 5956SOL    HW118434   3.779   0.249   0.264
 5956SOL    HW218435   3.886   0.129   0.296
 5957SOL     OW18436   4.337   0.842   1.431
 5957SOL    HW118437   4.393   0.923   1.414
 5957SOL    HW218438   4.396   0.762   1.434
 5958SOL     OW18439   4.440   0.565   1.708
 5958SOL    HW118440   4.459   0.630   1.782
 5958SOL    HW218441   4.500   0.485   1.717
 5959SOL     OW18442   4.114   1.741   1.560
 5959SOL    HW118443   4.023   1.782   1.558
 5959SOL    HW218444   4.107   1.647   1.592
 5960SOL     OW18445   4.318   0.745   0.652
 5960SOL    HW118446   4.368   0.830   0.633
 5960SOL    HW218447   4.230   0.747   0.604
 5961SOL     OW18448   3.945   1.314   1.844
 5961SOL    HW118449   3.880   1.241   1.823
 5961SOL    HW218450   3.949   1.328   1.942
 5962SOL     OW18451   3.803   1.240   0.653
 5962SOL    HW118452   3.802   1.193   0.741
 5962SOL    HW218453   3.885   1.212   0.602
 5963SOL     OW18454   4.396   1.391   1.624
 5963SOL    HW118455   4.318   1.341   1.662
 5963SOL    HW218456   4.393   1.486   1.655
 5964SOL     OW18457   4.152   0.424   0.520
 5964SOL    HW118458   4.182   0.352   0.458
 5964SOL    HW218459   4.113   0.384   0.603
 5965SOL     OW18460   4.041   0.547   1.280
 5965SOL    HW118461   4.079   0.488   1.352
 5965SOL    HW218462   4.081   0.521   1.192
 5966SOL     OW18463   4.536   1.586   0.687
 5966SOL    HW118464   4.568   1.596   0.593
 5966SOL    HW218465   4.457   1.524   0.689
 5967SOL     OW18466   3.763   1.077   0.300
 5967SOL    HW118467   3.862   1.066   0.291
 5967SOL    HW218468   3.723   0.991   0.332
 5968SOL     OW18469   3.954   0.628   1.975
 5968SOL    HW118470   3.861   0.626   2.012
 5968SOL    HW218471   3.955   0.589   1.883
 5969SOL     OW18472   3.949   0.275   2.858
 5969SOL    HW118473   3.984   0.258   2.950
 5969SOL    HW218474   3.861   0.230   2.846
 5970SOL     OW18475   3.743   0.368   2.509
 5970SOL    HW118476   3.661   0.411   2.548
 5970SOL    HW218477   3.715   0.295   2.446
 5971SOL     OW18478   4.293   1.275   3.027
 5971SOL    HW118479   4.200   1.268   2.990
 5971SOL    HW218480   4.304   1.364   3.071
 5972SOL     OW18481   4.574   0.798   3.685
 5972SOL    HW118482   4.570   0.874   3.750
 5972SOL    HW218483   4.596   0.834   3.594
 5973SOL     OW18484   4.409   1.012   2.527
 5973SOL    HW118485   4.478   0.996   2.597
 5973SOL    HW218486   4.336   1.069   2.565
 5974SOL     OW18487   4.410   1.161   3.665
 5974SOL    HW118488   4.470   1.240   3.679
 5974SOL    HW218489   4.324   1.192   3.624
 5975SOL     OW18490   4.059   1.435   2.923
 5975SOL    HW118491   3.981   1.404   2.870
 5975SOL    HW218492   4.117   1.493   2.866
 5976SOL     OW18493   4.162   0.392   3.361
 5976SOL    HW118494   4.244   0.336   3.370
 5976SOL    HW218495   4.081   0.334   3.365
 5977SOL     OW18496   3.955   1.713   2.345
 5977SOL    HW118497   3.989   1.790   2.399
 5977SOL    HW218498   3.999   1.713   2.255
 5978SOL     OW18499   3.954   1.434   2.400
 5978SOL    HW118500   3.928   1.530   2.400
 5978SOL    HW218501   3.883   1.380   2.445
 5979SOL     OW18502   3.964   1.091   2.748
 5979SOL    HW118503   3.978   1.007   2.800
 5979SOL    HW218504   3.909   1.155   2.803
 5980SOL     OW18505   4.344   1.786   3.301
 5980SOL    HW118506   4.252   1.769   3.336
 5980SOL    HW218507   4.372   1.878   3.327
 5981SOL     OW18508   4.330   0.964   1.985
 5981SOL    HW118509   4.337   1.048   1.931
 5981SOL    HW218510   4.376   0.977   2.073
 5982SOL     OW18511   3.846   0.643   2.425
 5982SOL    HW118512   3.801   0.555   2.442
 5982SOL    HW218513   3.845   0.697   2.509
 5983SOL     OW18514   3.751   1.596   1.979
 5983SOL    HW118515   3.732   1.500   2.000
 5983SOL    HW218516   3.718   1.654   2.054
 5984SOL     OW18517   3.837   0.737   3.459
 5984SOL    HW118518   3.925   0.724   3.504
 5984SOL    HW218519   3.824   0.834   3.437
 5985SOL     OW18520   4.337   1.365   2.588
 5985SOL    HW118521   4.288   1.278   2.597
 5985SOL    HW218522   4.314   1.408   2.501
 5986SOL     OW18523   4.533   0.004   2.364
 5986SOL    HW118524   4.573   0.095   2.355
 5986SOL    HW218525   4.433   0.012   2.370
 5987SOL     OW18526   3.921   0.976   3.126
 5987SOL    HW118527   4.010   0.931   3.112
 5987SOL    HW218528   3.848   0.911   3.107
 5988SOL     OW18529   4.041   0.251   3.663
 5988SOL    HW118530   4.112   0.322   3.669
 5988SOL    HW218531   3.953   0.290   3.691
 5989SOL     OW18532   4.322   0.729   2.132
 5989SOL    HW118533   4.346   0.798   2.064
 5989SOL    HW218534   4.244   0.762   2.186
 5990SOL     OW18535   3.800   0.811   2.651
 5990SOL    HW118536   3.899   0.799   2.660
 5990SOL    HW218537   3.776   0.906   2.672
 5991SOL     OW18538   3.854   1.821   3.433
 5991SOL    HW118539   3.844   1.806   3.532
 5991SOL    HW218540   3.768   1.857   3.397
 5992SOL     OW18541   4.274   0.196   2.747
 5992SOL    HW118542   4.269   0.191   2.847
 5992SOL    HW218543   4.276   0.292   2.718
 5993SOL     OW18544   4.075   1.801   2.715
 5993SOL    HW118545   4.125   1.715   2.721
 5993SOL    HW218546   4.140   1.878   2.712
 5994SOL     OW18547   4.045   0.943   2.104
 5994SOL    HW118548   4.127   0.982   2.062
 5994SOL    HW218549   4.018   0.861   2.055
 5995SOL     OW18550   4.185   1.266   3.589
 5995SOL    HW118551   4.135   1.267   3.503
 5995SOL    HW218552   4.122   1.248   3.665
 5996SOL     OW18553   3.926   0.285   3.360
 5996SOL    HW118554   3.846   0.345   3.347
 5996SOL    HW218555   3.916   0.236   3.446
 5997SOL     OW18556   4.188   1.743   2.185
 5997SOL    HW118557   4.221   1.782   2.271
 5997SOL    HW218558   4.264   1.736   2.120
 5998SOL     OW18559   3.973   1.785   3.103
 5998SOL    HW118560   4.030   1.720   3.153
 5998SOL    HW218561   3.957   1.752   3.010
 5999SOL     OW18562   4.106   0.700   2.342
 5999SOL    HW118563   4.151   0.610   2.339
 5999SOL    HW218564   4.012   0.689   2.375
 6000SOL     OW18565   4.338   0.122   1.979
 6000SOL    HW118566   4.436   0.100   1.986
 6000SOL    HW218567   4.307   0.105   1.886
 6001SOL     OW18568   4.527   1.402   2.786
 6001SOL    HW118569   4.617   1.416   2.744
 6001SOL    HW218570   4.456   1.404   2.715
 6002SOL     OW18571   4.263   0.064   2.374
 6002SOL    HW118572   4.182   0.065   2.432
 6002SOL    HW218573   4.266   0.147   2.319
 6003SOL     OW18574   4.021   0.035   2.033
 6003SOL    HW118575   4.070   0.119   2.012
 6003SOL    HW218576   4.083  -0.030   2.078
 6004SOL     OW18577   4.800   0.683   3.326
 6004SOL    HW118578   4.720   0.622   3.329
 6004SOL    HW218579   4.881   0.630   3.302
 6005SOL     OW18580   4.183   1.152   2.603
 6005SOL    HW118581   4.112   1.125   2.668
 6005SOL    HW218582   4.157   1.124   2.510
 6006SOL     OW18583   3.802   0.556   3.248
 6006SOL    HW118584   3.894   0.555   3.207
 6006SOL    HW218585   3.796   0.630   3.315
 6007SOL     OW18586   4.285   0.222   3.009
 6007SOL    HW118587   4.323   0.138   3.046
 6007SOL    HW218588   4.197   0.241   3.053
 6008SOL     OW18589   4.212   1.385   2.036
 6008SOL    HW118590   4.125   1.370   2.083
 6008SOL    HW218591   4.195   1.411   1.941
 6009SOL     OW18592   4.251   0.256   2.190
 6009SOL    HW118593   4.278   0.197   2.115
 6009SOL    HW218594   4.251   0.351   2.159
 6010SOL     OW18595   4.134   0.813   3.113
 6010SOL    HW118596   4.220   0.825   3.163
 6010SOL    HW218597   4.092   0.726   3.140
 6011SOL     OW18598   3.788   1.564   3.193
 6011SOL    HW118599   3.742   1.646   3.159
 6011SOL    HW218600   3.886   1.583   3.202
 6012SOL     OW18601   4.091   1.100   2.363
 6012SOL    HW118602   4.084   1.183   2.307
 6012SOL    HW218603   4.095   1.020   2.303
 6013SOL     OW18604   4.290   0.537   2.727
 6013SOL    HW118605   4.302   0.603   2.653
 6013SOL    HW218606   4.336   0.571   2.810
 6014SOL     OW18607   4.078   1.510   3.191
 6014SOL    HW118608   4.057   1.466   3.104
 6014SOL    HW218609   4.175   1.536   3.194
 6015SOL     OW18610   4.126   0.751   3.460
 6015SOL    HW118611   4.194   0.806   3.413
 6015SOL    HW218612   4.166   0.663   3.487
 6016SOL     OW18613   4.228   0.050   3.602
 6016SOL    HW118614   4.186  -0.007   3.532
 6016SOL    HW218615   4.162   0.119   3.634
 6017SOL     OW18616   4.297   0.870   2.891
 6017SOL    HW118617   4.341   0.959   2.882
 6017SOL    HW218618   4.234   0.870   2.968
 6018SOL     OW18619   4.031   0.213   3.093
 6018SOL    HW118620   4.008   0.250   3.183
 6018SOL    HW218621   4.001   0.118   3.087
 6019SOL     OW18622   3.761   1.310   3.144
 6019SOL    HW118623   3.814   1.261   3.212
 6019SOL    HW218624   3.783   1.408   3.149
 6020SOL     OW18625   4.031   0.063   2.480
 6020SOL    HW118626   4.020   0.157   2.513
 6020SOL    HW218627   4.026   0.000   2.557
 6021SOL     OW18628   4.074   0.898   3.666
 6021SOL    HW118629   4.150   0.942   3.714
 6021SOL    HW218630   4.109   0.851   3.584
 6022SOL     OW18631   4.043   0.810   2.811
 6022SOL    HW118632   4.136   0.846   2.816
 6022SOL    HW218633   4.037   0.725   2.863
 6023SOL     OW18634   4.063   0.509   2.868
 6023SOL    HW118635   4.011   0.426   2.851
 6023SOL    HW218636   4.140   0.514   2.804
 6024SOL     OW18637   3.732   1.326   2.062
 6024SOL    HW118638   3.639   1.347   2.031
 6024SOL    HW218639   3.742   1.227   2.075
 6025SOL     OW18640   3.812   1.801   2.789
 6025SOL    HW118641   3.770   1.715   2.762
 6025SOL    HW218642   3.906   1.804   2.755
 6026SOL     OW18643   4.228   1.568   2.772
 6026SOL    HW118644   4.294   1.642   2.781
 6026SOL    HW218645   4.272   1.489   2.730
 6027SOL     OW18646   3.764   0.544   2.976
 6027SOL    HW118647   3.849   0.511   2.935
 6027SOL    HW218648   3.777   0.559   3.074
 6028SOL     OW18649   3.913   0.520   3.584
 6028SOL    HW118650   3.972   0.480   3.514
 6028SOL    HW218651   3.855   0.591   3.543
 6029SOL     OW18652   4.539   0.572   2.187
 6029SOL    HW118653   4.546   0.483   2.141
 6029SOL    HW218654   4.445   0.606   2.179
 6030SOL     OW18655   3.976   1.564   3.606
 6030SOL    HW118656   3.946   1.621   3.682
 6030SOL    HW218657   3.969   1.467   3.632
 6031SOL     OW18658   4.197   0.500   2.053
 6031SOL    HW118659   4.258   0.580   2.057
 6031SOL    HW218660   4.102   0.531   2.060
 6032SOL     OW18661   3.883   1.137   3.328
 6032SOL    HW118662   3.905   1.076   3.404
 6032SOL    HW218663   3.893   1.088   3.242
 6033SOL     OW18664   3.807   1.258   2.884
 6033SOL    HW118665   3.802   1.257   2.984
 6033SOL    HW218666   3.724   1.217   2.846
 6034SOL     OW18667   4.412   1.662   3.578
 6034SOL    HW118668   4.356   1.743   3.587
 6034SOL    HW218669   4.464   1.666   3.492
 6035SOL     OW18670   3.854   1.794   3.713
 6035SOL    HW118671   3.813   1.720   3.766
 6035SOL    HW218672   3.918   1.845   3.771
 6036SOL     OW18673   3.987   0.326   2.582
 6036SOL    HW118674   3.908   0.377   2.548
 6036SOL    HW218675   3.978   0.311   2.680
 6037SOL     OW18676   4.096   1.288   3.352
 6037SOL    HW118677   4.083   1.381   3.318
 6037SOL    HW218678   4.012   1.236   3.339
 6038SOL     OW18679   4.314   1.487   2.353
 6038SOL    HW118680   4.356   1.429   2.283
 6038SOL    HW218681   4.270   1.566   2.309
 6039SOL     OW18682   3.979   1.348   2.152
 6039SOL    HW118683   3.883   1.349   2.125
 6039SOL    HW218684   3.991   1.401   2.236
 6040SOL     OW18685   3.829   1.013   3.588
 6040SOL    HW118686   3.752   0.980   3.642
 6040SOL    HW218687   3.914   0.983   3.630
 6041SOL     OW18688   4.396   0.203   3.351
 6041SOL    HW118689   4.486   0.187   3.311
 6041SOL    HW218690   4.404   0.208   3.450
 6042SOL     OW18691   3.799   0.345   1.895
 6042SOL    HW118692   3.707   0.317   1.866
 6042SOL    HW218693   3.830   0.422   1.839
 6043SOL     OW18694   3.796   0.166   2.180
 6043SOL    HW118695   3.779   0.249   2.126
 6043SOL    HW218696   3.886   0.129   2.158
 6044SOL     OW18697   4.337   0.842   3.293
 6044SOL    HW118698   4.393   0.923   3.276
 6044SOL    HW218699   4.396   0.762   3.296
 6045SOL     OW18700   4.440   0.565   3.570
 6045SOL    HW118701   4.459   0.630   3.644
 6045SOL    HW218702   4.500   0.485   3.579
 6046SOL     OW18703   4.114   1.741   3.422
 6046SOL    HW118704   4.023   1.782   3.420
 6046SOL    HW218705   4.107   1.647   3.454
 6047SOL     OW18706   4.318   0.745   2.514
 6047SOL    HW118707   4.368   0.830   2.495
 6047SOL    HW218708   4.230   0.747   2.466
 6048SOL     OW18709   3.945   1.314   3.706
 6048SOL    HW118710   3.880   1.241   3.685
 6048SOL    HW218711   3.949   1.328   3.804
 6049SOL     OW18712   3.803   1.240   2.515
 6049SOL    HW118713   3.802   1.193   2.603
 6049SOL    HW218714   3.885   1.212   2.464
 6050SOL     OW18715   4.396   1.391   3.486
 6050SOL    HW118716   4.318   1.341   3.524
 6050SOL    HW218717   4.393   1.486   3.517
 6051SOL     OW18718   4.152   0.424   2.382
 6051SOL    HW118719   4.182   0.352   2.320
 6051SOL    HW218720   4.113   0.384   2.465
 6052SOL     OW18721   4.041   0.547   3.142
 6052SOL    HW118722   4.079   0.488   3.214
 6052SOL    HW218723   4.081   0.521   3.054
 6053SOL     OW18724   4.536   1.586   2.549
 6053SOL    HW118725   4.568   1.596   2.455
 6053SOL    HW218726   4.457   1.524   2.551
 6054SOL     OW18727   3.763   1.077   2.162
 6054SOL    HW118728   3.862   1.066   2.153
 6054SOL    HW218729   3.723   0.991   2.194
 6055SOL     OW18730   3.954   0.628   3.837
 6055SOL    HW118731   3.861   0.626   3.874
 6055SOL    HW218732   3.955   0.589   3.745
 6056SOL     OW18733   3.949   0.275   4.720
 6056SOL    HW118734   3.984   0.258   4.812
 6056SOL    HW218735   3.861   0.230   4.708
 6057SOL     OW18736   3.743   0.368   4.371
 6057SOL    HW118737   3.661   0.411   4.410
 6057SOL    HW218738   3.715   0.295   4.308
 6058SOL     OW18739   4.293   1.275   4.889
 6058SOL    HW118740   4.200   1.268   4.852
 6058SOL    HW218741   4.304   1.364   4.933
 6059SOL     OW18742   4.574   0.798   5.547
 6059SOL    HW118743   4.570   0.874   5.612
 6059SOL    HW218744   4.596   0.834   5.456
 6060SOL     OW18745   4.409   1.012   4.389
 6060SOL    HW118746   4.478   0.996   4.459
 6060SOL    HW218747   4.336   1.069   4.427
 6061SOL     OW18748   4.410   1.161   5.527
 6061SOL    HW118749   4.470   1.240   5.541
 6061SOL    HW218750   4.324   1.192   5.486
 6062SOL     OW18751   4.059   1.435   4.785
 6062SOL    HW118752   3.981   1.404   4.732
 6062SOL    HW218753   4.117   1.493   4.728
 6063SOL     OW18754   4.162   0.392   5.223
 6063SOL    HW118755   4.244   0.336   5.232
 6063SOL    HW218756   4.081   0.334   5.227
 6064SOL     OW18757   3.955   1.713   4.207
 6064SOL    HW118758   3.989   1.790   4.261
 6064SOL    HW218759   3.999   1.713   4.117
 6065SOL     OW18760   3.954   1.434   4.262
 6065SOL    HW118761   3.928   1.530   4.262
 6065SOL    HW218762   3.883   1.380   4.307
 6066SOL     OW18763   3.964   1.091   4.610
 6066SOL    HW118764   3.978   1.007   4.662
 6066SOL    HW218765   3.909   1.155   4.665
 6067SOL     OW18766   4.344   1.786   5.163
 6067SOL    HW118767   4.252   1.769   5.198
 6067SOL    HW218768   4.372   1.878   5.189
 6068SOL     OW18769   4.330   0.964   3.847
 6068SOL    HW118770   4.337   1.048   3.793
 6068SOL    HW218771   4.376   0.977   3.935
 6069SOL     OW18772   3.846   0.643   4.287
 6069SOL    HW118773   3.801   0.555   4.304
 6069SOL    HW218774   3.845   0.697   4.371
 6070SOL     OW18775   3.751   1.596   3.841
 6070SOL    HW118776   3.732   1.500   3.862
 6070SOL    HW218777   3.718   1.654   3.916
 6071SOL     OW18778   3.837   0.737   5.321
 6071SOL    HW118779   3.925   0.724   5.366
 6071SOL    HW218780   3.824   0.834   5.299
 6072SOL     OW18781   4.337   1.365   4.450
 6072SOL    HW118782   4.288   1.278   4.459
 6072SOL    HW218783   4.314   1.408   4.363
 6073SOL     OW18784   4.533   0.004   4.226
 6073SOL    HW118785   4.573   0.095   4.217
 6073SOL    HW218786   4.433   0.012   4.232
 6074SOL     OW18787   3.921   0.976   4.988
 6074SOL    HW118788   4.010   0.931   4.974
 6074SOL    HW218789   3.848   0.911   4.969
 6075SOL     OW18790   4.041   0.251   5.525
 6075SOL    HW118791   4.112   0.322   5.531
 6075SOL    HW218792   3.953   0.290   5.553
 6076SOL     OW18793   4.322   0.729   3.994
 6076SOL    HW118794   4.346   0.798   3.926
 6076SOL    HW218795   4.244   0.762   4.048
 6077SOL     OW18796   3.800   0.811   4.513
 6077SOL    HW118797   3.899   0.799   4.522
 6077SOL    HW218798   3.776   0.906   4.534
 6078SOL     OW18799   3.854   1.821   5.295
 6078SOL    HW118800   3.844   1.806   5.394
 6078SOL    HW218801   3.768   1.857   5.259
 6079SOL     OW18802   4.274   0.196   4.609
 6079SOL    HW118803   4.269   0.191   4.709
 6079SOL    HW218804   4.276   0.292   4.580
 6080SOL     OW18805   4.075   1.801   4.577
 6080SOL    HW118806   4.125   1.715   4.583
 6080SOL    HW218807   4.140   1.878   4.574
 6081SOL     OW18808   4.045   0.943   3.966
 6081SOL    HW118809   4.127   0.982   3.924
 6081SOL    HW218810   4.018   0.861   3.917
 6082SOL     OW18811   4.185   1.266   5.451
 6082SOL    HW118812   4.135   1.267   5.365
 6082SOL    HW218813   4.122   1.248   5.527
 6083SOL     OW18814   3.926   0.285   5.222
 6083SOL    HW118815   3.846   0.345   5.209
 6083SOL    HW218816   3.916   0.236   5.308
 6084SOL     OW18817   4.188   1.743   4.047
 6084SOL    HW118818   4.221   1.782   4.133
 6084SOL    HW218819   4.264   1.736   3.982
 6085SOL     OW18820   3.973   1.785   4.965
 6085SOL    HW118821   4.030   1.720   5.015
 6085SOL    HW218822   3.957   1.752   4.872
 6086SOL     OW18823   4.106   0.700   4.204
 6086SOL    HW118824   4.151   0.610   4.201
 6086SOL    HW218825   4.012   0.689   4.237
 6087SOL     OW18826   4.338   0.122   3.841
 6087SOL    HW118827   4.436   0.100   3.848
 6087SOL    HW218828   4.307   0.105   3.748
 6088SOL     OW18829   4.527   1.402   4.648
 6088SOL    HW118830   4.617   1.416   4.606
 6088SOL    HW218831   4.456   1.404   4.577
 6089SOL     OW18832   4.263   0.064   4.236
 6089SOL    HW118833   4.182   0.065   4.294
 6089SOL    HW218834   4.266   0.147   4.181
 6090SOL     OW18835   4.021   0.035   3.895
 6090SOL    HW118836   4.070   0.119   3.874
 6090SOL    HW218837   4.083  -0.030   3.940
 6091SOL     OW18838   4.800   0.683   5.188
 6091SOL    HW118839   4.720   0.622   5.191
 6091SOL    HW218840   4.881   0.630   5.164
 6092SOL     OW18841   4.183   1.152   4.465
 6092SOL    HW118842   4.112   1.125   4.530
 6092SOL    HW218843   4.157   1.124   4.372
 6093SOL     OW18844   3.802   0.556   5.110
 6093SOL    HW118845   3.894   0.555   5.069
 6093SOL    HW218846   3.796   0.630   5.177
 6094SOL     OW18847   4.285   0.222   4.871
 6094SOL    HW118848   4.323   0.138   4.908
 6094SOL    HW218849   4.197   0.241   4.915
 6095SOL     OW18850   4.212   1.385   3.898
 6095SOL    HW118851   4.125   1.370   3.945
 6095SOL    HW218852   4.195   1.411   3.803
 6096SOL     OW18853   4.251   0.256   4.052
 6096SOL    HW118854   4.278   0.197   3.977
 6096SOL    HW218855   4.251   0.351   4.021
 6097SOL     OW18856   4.134   0.813   4.975
 6097SOL    HW118857   4.220   0.825   5.025
 6097SOL    HW218858   4.092   0.726   5.002
 6098SOL     OW18859   3.788   1.564   5.055
 6098SOL    HW118860   3.742   1.646   5.021
 6098SOL    HW218861   3.886   1.583   5.064
 6099SOL     OW18862   4.091   1.100   4.225
 6099SOL    HW118863   4.084   1.183   4.169
 6099SOL    HW218864   4.095   1.020   4.165
 6100SOL     OW18865   4.290   0.537   4.589
 6100SOL    HW118866   4.302   0.603   4.515
 6100SOL    HW218867   4.336   0.571   4.672
 6101SOL     OW18868   4.078   1.510   5.053
 6101SOL    HW118869   4.057   1.466   4.966
 6101SOL    HW218870   4.175   1.536   5.056
 6102SOL     OW18871   4.126   0.751   5.322
 6102SOL    HW118872   4.194   0.806   5.275
 6102SOL    HW218873   4.166   0.663   5.349
 6103SOL     OW18874   4.228   0.050   5.464
 6103SOL    HW118875   4.186  -0.007   5.394
 6103SOL    HW218876   4.162   0.119   5.496
 6104SOL     OW18877   4.297   0.870   4.753
 6104SOL    HW118878   4.341   0.959   4.744
 6104SOL    HW218879   4.234   0.870   4.830
 6105SOL     OW18880   4.031   0.213   4.955
 6105SOL    HW118881   4.008   0.250   5.045
 6105SOL    HW218882   4.001   0.118   4.949
 6106SOL     OW18883   3.761   1.310   5.006
 6106SOL    HW118884   3.814   1.261   5.074
 6106SOL    HW218885   3.783   1.408   5.011
 6107SOL     OW18886   4.031   0.063   4.342
 6107SOL    HW118887   4.020   0.157   4.375
 6107SOL    HW218888   4.026   0.000   4.419
 6108SOL     OW18889   4.074   0.898   5.528
 6108SOL    HW118890   4.150   0.942   5.576
 6108SOL    HW218891   4.109   0.851   5.446
 6109SOL     OW18892   4.043   0.810   4.673
 6109SOL    HW118893   4.136   0.846   4.678
 6109SOL    HW218894   4.037   0.725   4.725
 6110SOL     OW18895   4.063   0.509   4.730
 6110SOL    HW118896   4.011   0.426   4.713
 6110SOL    HW218897   4.140   0.514   4.666
 6111SOL     OW18898   3.732   1.326   3.924
 6111SOL    HW118899   3.639   1.347   3.893
 6111SOL    HW218900   3.742   1.227   3.937
 6112SOL     OW18901   3.812   1.801   4.651
 6112SOL    HW118902   3.770   1.715   4.624
 6112SOL    HW218903   3.906   1.804   4.617
 6113SOL     OW18904   4.228   1.568   4.634
 6113SOL    HW118905   4.294   1.642   4.643
 6113SOL    HW218906   4.272   1.489   4.592
 6114SOL     OW18907   3.764   0.544   4.838
 6114SOL    HW118908   3.849   0.511   4.797
 6114SOL    HW218909   3.777   0.559   4.936
 6115SOL     OW18910   3.913   0.520   5.446
 6115SOL    HW118911   3.972   0.480   5.376
 6115SOL    HW218912   3.855   0.591   5.405
 6116SOL     OW18913   4.539   0.572   4.049
 6116SOL    HW118914   4.546   0.483   4.003
 6116SOL    HW218915   4.445   0.606   4.041
 6117SOL     OW18916   3.976   1.564   5.468
 6117SOL    HW118917   3.946   1.621   5.544
 6117SOL    HW218918   3.969   1.467   5.494
 6118SOL     OW18919   4.197   0.500   3.915
 6118SOL    HW118920   4.258   0.580   3.919
 6118SOL    HW218921   4.102   0.531   3.922
 6119SOL     OW18922   3.883   1.137   5.190
 6119SOL    HW118923   3.905   1.076   5.266
 6119SOL    HW218924   3.893   1.088   5.104
 6120SOL     OW18925   3.807   1.258   4.746
 6120SOL    HW118926   3.802   1.257   4.846
 6120SOL    HW218927   3.724   1.217   4.708
 6121SOL     OW18928   4.412   1.662   5.440
 6121SOL    HW118929   4.356   1.743   5.449
 6121SOL    HW218930   4.464   1.666   5.354
 6122SOL     OW18931   3.854   1.794   5.575
 6122SOL    HW118932   3.813   1.720   5.628
 6122SOL    HW218933   3.918   1.845   5.633
 6123SOL     OW18934   3.987   0.326   4.444
 6123SOL    HW118935   3.908   0.377   4.410
 6123SOL    HW218936   3.978   0.311   4.542
 6124SOL     OW18937   4.096   1.288   5.214
 6124SOL    HW118938   4.083   1.381   5.180
 6124SOL    HW218939   4.012   1.236   5.201
 6125SOL     OW18940   4.314   1.487   4.215
 6125SOL    HW118941   4.356   1.429   4.145
 6125SOL    HW218942   4.270   1.566   4.171
 6126SOL     OW18943   3.979   1.348   4.014
 6126SOL    HW118944   3.883   1.349   3.987
 6126SOL    HW218945   3.991   1.401   4.098
 6127SOL     OW18946   3.829   1.013   5.450
 6127SOL    HW118947   3.752   0.980   5.504
 6127SOL    HW218948   3.914   0.983   5.492
 6128SOL     OW18949   4.396   0.203   5.213
 6128SOL    HW118950   4.486   0.187   5.173
 6128SOL    HW218951   4.404   0.208   5.312
 6129SOL     OW18952   3.799   0.345   3.757
 6129SOL    HW118953   3.707   0.317   3.728
 6129SOL    HW218954   3.830   0.422   3.701
 6130SOL     OW18955   3.796   0.166   4.042
 6130SOL    HW118956   3.779   0.249   3.988
 6130SOL    HW218957   3.886   0.129   4.020
 6131SOL     OW18958   4.337   0.842   5.155
 6131SOL    HW118959   4.393   0.923   5.138
 6131SOL    HW218960   4.396   0.762   5.158
 6132SOL     OW18961   4.440   0.565   5.432
 6132SOL    HW118962   4.459   0.630   5.506
 6132SOL    HW218963   4.500   0.485   5.441
 6133SOL     OW18964   4.114   1.741   5.284
 6133SOL    HW118965   4.023   1.782   5.282
 6133SOL    HW218966   4.107   1.647   5.316
 6134SOL     OW18967   4.318   0.745   4.376
 6134SOL    HW118968   4.368   0.830   4.357
 6134SOL    HW218969   4.230   0.747   4.328
 6135SOL     OW18970   3.945   1.314   5.568
 6135SOL    HW118971   3.880   1.241   5.547
 6135SOL    HW218972   3.949   1.328   5.666
 6136SOL     OW18973   3.803   1.240   4.377
 6136SOL    HW118974   3.802   1.193   4.465
 6136SOL    HW218975   3.885   1.212   4.326
 6137SOL     OW18976   4.396   1.391   5.348
 6137SOL    HW118977   4.318   1.341   5.386
 6137SOL    HW218978   4.393   1.486   5.379
 6138SOL     OW18979   4.152   0.424   4.244
 6138SOL    HW118980   4.182   0.352   4.182
 6138SOL    HW218981   4.113   0.384   4.327
 6139SOL     OW18982   4.041   0.547   5.004
 6139SOL    HW118983   4.079   0.488   5.076
 6139SOL    HW218984   4.081   0.521   4.916
 6140SOL     OW18985   4.536   1.586   4.411
 6140SOL    HW118986   4.568   1.596   4.317
 6140SOL    HW218987   4.457   1.524   4.413
 6141SOL     OW18988   3.763   1.077   4.024
 6141SOL    HW118989   3.862   1.066   4.015
 6141SOL    HW218990   3.723   0.991   4.056
 6142SOL     OW18991   3.954   0.628   5.699
 6142SOL    HW118992   3.861   0.626   5.736
 6142SOL    HW218993   3.955   0.589   5.607
 6143SOL     OW18994   3.949   0.275   6.582
 6143SOL    HW118995   3.984   0.258   6.674
 6143SOL    HW218996   3.861   0.230   6.570
 6144SOL     OW18997   3.743   0.368   6.233
 6144SOL    HW118998   3.661   0.411   6.272
 6144SOL    HW218999   3.715   0.295   6.170
 6145SOL     OW19000   4.293   1.275   6.751
 6145SOL    HW119001   4.200   1.268   6.714
 6145SOL    HW219002   4.304   1.364   6.795
 6146SOL     OW19003   4.574   0.798   7.409
 6146SOL    HW119004   4.570   0.874   7.474
 6146SOL    HW219005   4.596   0.834   7.318
 6147SOL     OW19006   4.409   1.012   6.251
 6147SOL    HW119007   4.478   0.996   6.321
 6147SOL    HW219008   4.336   1.069   6.289
 6148SOL     OW19009   4.410   1.161   7.389
 6148SOL    HW119010   4.470   1.240   7.403
 6148SOL    HW219011   4.324   1.192   7.348
 6149SOL     OW19012   4.059   1.435   6.647
 6149SOL    HW119013   3.981   1.404   6.594
 6149SOL    HW219014   4.117   1.493   6.590
 6150SOL     OW19015   4.162   0.392   7.085
 6150SOL    HW119016   4.244   0.336   7.094
 6150SOL    HW219017   4.081   0.334   7.089
 6151SOL     OW19018   3.955   1.713   6.069
 6151SOL    HW119019   3.989   1.790   6.123
 6151SOL    HW219020   3.999   1.713   5.979
 6152SOL     OW19021   3.954   1.434   6.124
 6152SOL    HW119022   3.928   1.530   6.124
 6152SOL    HW219023   3.883   1.380   6.169
 6153SOL     OW19024   3.964   1.091   6.472
 6153SOL    HW119025   3.978   1.007   6.524
 6153SOL    HW219026   3.909   1.155   6.527
 6154SOL     OW19027   4.344   1.786   7.025
 6154SOL    HW119028   4.252   1.769   7.060
 6154SOL    HW219029   4.372   1.878   7.051
 6155SOL     OW19030   4.330   0.964   5.709
 6155SOL    HW119031   4.337   1.048   5.655
 6155SOL    HW219032   4.376   0.977   5.797
 6156SOL     OW19033   3.846   0.643   6.149
 6156SOL    HW119034   3.801   0.555   6.166
 6156SOL    HW219035   3.845   0.697   6.233
 6157SOL     OW19036   3.751   1.596   5.703
 6157SOL    HW119037   3.732   1.500   5.724
 6157SOL    HW219038   3.718   1.654   5.778
 6158SOL     OW19039   3.837   0.737   7.183
 6158SOL    HW119040   3.925   0.724   7.228
 6158SOL    HW219041   3.824   0.834   7.161
 6159SOL     OW19042   4.337   1.365   6.312
 6159SOL    HW119043   4.288   1.278   6.321
 6159SOL    HW219044   4.314   1.408   6.225
 6160SOL     OW19045   4.533   0.004   6.088
 6160SOL    HW119046   4.573   0.095   6.079
 6160SOL    HW219047   4.433   0.012   6.094
 6161SOL     OW19048   3.921   0.976   6.850
 6161SOL    HW119049   4.010   0.931   6.836
 6161SOL    HW219050   3.848   0.911   6.831
 6162SOL     OW19051   4.041   0.251   7.387
 6162SOL    HW119052   4.112   0.322   7.393
 6162SOL    HW219053   3.953   0.290   7.415
 6163SOL     OW19054   4.322   0.729   5.856
 6163SOL    HW119055   4.346   0.798   5.788
 6163SOL    HW219056   4.244   0.762   5.910
 6164SOL     OW19057   3.800   0.811   6.375
 6164SOL    HW119058   3.899   0.799   6.384
 6164SOL    HW219059   3.776   0.906   6.396
 6165SOL     OW19060   3.854   1.821   7.157
 6165SOL    HW119061   3.844   1.806   7.256
 6165SOL    HW219062   3.768   1.857   7.121
 6166SOL     OW19063   4.274   0.196   6.471
 6166SOL    HW119064   4.269   0.191   6.571
 6166SOL    HW219065   4.276   0.292   6.442
 6167SOL     OW19066   4.075   1.801   6.439
 6167SOL    HW119067   4.125   1.715   6.445
 6167SOL    HW219068   4.140   1.878   6.436
 6168SOL     OW19069   4.045   0.943   5.828
 6168SOL    HW119070   4.127   0.982   5.786
 6168SOL    HW219071   4.018   0.861   5.779
 6169SOL     OW19072   4.185   1.266   7.313
 6169SOL    HW119073   4.135   1.267   7.227
 6169SOL    HW219074   4.122   1.248   7.389
 6170SOL     OW19075   3.926   0.285   7.084
 6170SOL    HW119076   3.846   0.345   7.071
 6170SOL    HW219077   3.916   0.236   7.170
 6171SOL     OW19078   4.188   1.743   5.909
 6171SOL    HW119079   4.221   1.782   5.995
 6171SOL    HW219080   4.264   1.736   5.844
 6172SOL     OW19081   3.973   1.785   6.827
 6172SOL    HW119082   4.030   1.720   6.877
 6172SOL    HW219083   3.957   1.752   6.734
 6173SOL     OW19084   4.106   0.700   6.066
 6173SOL    HW119085   4.151   0.610   6.063
 6173SOL    HW219086   4.012   0.689   6.099
 6174SOL     OW19087   4.338   0.122   5.703
 6174SOL    HW119088   4.436   0.100   5.710
 6174SOL    HW219089   4.307   0.105   5.610
 6175SOL     OW19090   4.527   1.402   6.510
 6175SOL    HW119091   4.617   1.416   6.468
 6175SOL    HW219092   4.456   1.404   6.439
 6176SOL     OW19093   4.263   0.064   6.098
 6176SOL    HW119094   4.182   0.065   6.156
 6176SOL    HW219095   4.266   0.147   6.043
 6177SOL     OW19096   4.021   0.035   5.757
 6177SOL    HW119097   4.070   0.119   5.736
 6177SOL    HW219098   4.083  -0.030   5.802
 6178SOL     OW19099   4.800   0.683   7.050
 6178SOL    HW119100   4.720   0.622   7.053
 6178SOL    HW219101   4.881   0.630   7.026
 6179SOL     OW19102   4.183   1.152   6.327
 6179SOL    HW119103   4.112   1.125   6.392
 6179SOL    HW219104   4.157   1.124   6.234
 6180SOL     OW19105   3.802   0.556   6.972
 6180SOL    HW119106   3.894   0.555   6.931
 6180SOL    HW219107   3.796   0.630   7.039
 6181SOL     OW19108   4.285   0.222   6.733
 6181SOL    HW119109   4.323   0.138   6.770
 6181SOL    HW219110   4.197   0.241   6.777
 6182SOL     OW19111   4.212   1.385   5.760
 6182SOL    HW119112   4.125   1.370   5.807
 6182SOL    HW219113   4.195   1.411   5.665
 6183SOL     OW19114   4.251   0.256   5.914
 6183SOL    HW119115   4.278   0.197   5.839
 6183SOL    HW219116   4.251   0.351   5.883
 6184SOL     OW19117   4.134   0.813   6.837
 6184SOL    HW119118   4.220   0.825   6.887
 6184SOL    HW219119   4.092   0.726   6.864
 6185SOL     OW19120   3.788   1.564   6.917
 6185SOL    HW119121   3.742   1.646   6.883
 6185SOL    HW219122   3.886   1.583   6.926
 6186SOL     OW19123   4.091   1.100   6.087
 6186SOL    HW119124   4.084   1.183   6.031
 6186SOL    HW219125   4.095   1.020   6.027
 6187SOL     OW19126   4.290   0.537   6.451
 6187SOL    HW119127   4.302   0.603   6.377
 6187SOL    HW219128   4.336   0.571   6.534
 6188SOL     OW19129   4.078   1.510   6.915
 6188SOL    HW119130   4.057   1.466   6.828
 6188SOL    HW219131   4.175   1.536   6.918
 6189SOL     OW19132   4.126   0.751   7.184
 6189SOL    HW119133   4.194   0.806   7.137
 6189SOL    HW219134   4.166   0.663   7.211
 6190SOL     OW19135   4.228   0.050   7.326
 6190SOL    HW119136   4.186  -0.007   7.256
 6190SOL    HW219137   4.162   0.119   7.358
 6191SOL     OW19138   4.297   0.870   6.615
 6191SOL    HW119139   4.341   0.959   6.606
 6191SOL    HW219140   4.234   0.870   6.692
 6192SOL     OW19141   4.031   0.213   6.817
 6192SOL    HW119142   4.008   0.250   6.907
 6192SOL    HW219143   4.001   0.118   6.811
 6193SOL     OW19144   3.761   1.310   6.868
 6193SOL    HW119145   3.814   1.261   6.936
 6193SOL    HW219146   3.783   1.408   6.873
 6194SOL     OW19147   4.031   0.063   6.204
 6194SOL    HW119148   4.020   0.157   6.237
 6194SOL    HW219149   4.026   0.000   6.281
 6195SOL     OW19150   4.074   0.898   7.390
 6195SOL    HW119151   4.150   0.942   7.438
 6195SOL    HW219152   4.109   0.851   7.308
 6196SOL     OW19153   4.043   0.810   6.535
 6196SOL    HW119154   4.136   0.846   6.540
 6196SOL    HW219155   4.037   0.725   6.587
 6197SOL     OW19156   4.063   0.509   6.592
 6197SOL    HW119157   4.011   0.426   6.575
 6197SOL    HW219158   4.140   0.514   6.528
 6198SOL     OW19159   3.732   1.326   5.786
 6198SOL    HW119160   3.639   1.347   5.755
 6198SOL    HW219161   3.742   1.227   5.799
 6199SOL     OW19162   3.812   1.801   6.513
 6199SOL    HW119163   3.770   1.715   6.486
 6199SOL    HW219164   3.906   1.804   6.479
 6200SOL     OW19165   4.228   1.568   6.496
 6200SOL    HW119166   4.294   1.642   6.505
 6200SOL    HW219167   4.272   1.489   6.454
 6201SOL     OW19168   3.764   0.544   6.700
 6201SOL    HW119169   3.849   0.511   6.659
 6201SOL    HW219170   3.777   0.559   6.798
 6202SOL     OW19171   3.913   0.520   7.308
 6202SOL    HW119172   3.972   0.480   7.238
 6202SOL    HW219173   3.855   0.591   7.267
 6203SOL     OW19174   4.539   0.572   5.911
 6203SOL    HW119175   4.546   0.483   5.865
 6203SOL    HW219176   4.445   0.606   5.903
 6204SOL     OW19177   3.976   1.564   7.330
 6204SOL    HW119178   3.946   1.621   7.406
 6204SOL    HW219179   3.969   1.467   7.356
 6205SOL     OW19180   4.197   0.500   5.777
 6205SOL    HW119181   4.258   0.580   5.781
 6205SOL    HW219182   4.102   0.531   5.784
 6206SOL     OW19183   3.883   1.137   7.052
 6206SOL    HW119184   3.905   1.076   7.128
 6206SOL    HW219185   3.893   1.088   6.966
 6207SOL     OW19186   3.807   1.258   6.608
 6207SOL    HW119187   3.802   1.257   6.708
 6207SOL    HW219188   3.724   1.217   6.570
 6208SOL     OW19189   4.412   1.662   7.302
 6208SOL    HW119190   4.356   1.743   7.311
 6208SOL    HW219191   4.464   1.666   7.216
 6209SOL     OW19192   3.854   1.794   7.437
 6209SOL    HW119193   3.813   1.720   7.490
 6209SOL    HW219194   3.918   1.845   7.495
 6210SOL     OW19195   3.987   0.326   6.306
 6210SOL    HW119196   3.908   0.377   6.272
 6210SOL    HW219197   3.978   0.311   6.404
 6211SOL     OW19198   4.096   1.288   7.076
 6211SOL    HW119199   4.083   1.381   7.042
 6211SOL    HW219200   4.012   1.236   7.063
 6212SOL     OW19201   4.314   1.487   6.077
 6212SOL    HW119202   4.356   1.429   6.007
 6212SOL    HW219203   4.270   1.566   6.033
 6213SOL     OW19204   3.979   1.348   5.876
 6213SOL    HW119205   3.883   1.349   5.849
 6213SOL    HW219206   3.991   1.401   5.960
 6214SOL     OW19207   3.829   1.013   7.312
 6214SOL    HW119208   3.752   0.980   7.366
 6214SOL    HW219209   3.914   0.983   7.354
 6215SOL     OW19210   4.396   0.203   7.075
 6215SOL    HW119211   4.486   0.187   7.035
 6215SOL    HW219212   4.404   0.208   7.174
 6216SOL     OW19213   3.799   0.345   5.619
 6216SOL    HW119214   3.707   0.317   5.590
 6216SOL    HW219215   3.830   0.422   5.563
 6217SOL     OW19216   3.796   0.166   5.904
 6217SOL    HW119217   3.779   0.249   5.850
 6217SOL    HW219218   3.886   0.129   5.882
 6218SOL     OW19219   4.337   0.842   7.017
 6218SOL    HW119220   4.393   0.923   7.000
 6218SOL    HW219221   4.396   0.762   7.020
 6219SOL     OW19222   4.440   0.565   7.294
 6219SOL    HW119223   4.459   0.630   7.368
 6219SOL    HW219224   4.500   0.485   7.303
 6220SOL     OW19225   4.114   1.741   7.146
 6220SOL    HW119226   4.023   1.782   7.144
 6220SOL    HW219227   4.107   1.647   7.178
 6221SOL     OW19228   4.318   0.745   6.238
 6221SOL    HW119229   4.368   0.830   6.219
 6221SOL    HW219230   4.230   0.747   6.190
 6222SOL     OW19231   3.945   1.314   7.430
 6222SOL    HW119232   3.880   1.241   7.409
 6222SOL    HW219233   3.949   1.328   7.528
 6223SOL     OW19234   3.803   1.240   6.239
 6223SOL    HW119235   3.802   1.193   6.327
 6223SOL    HW219236   3.885   1.212   6.188
 6224SOL     OW19237   4.396   1.391   7.210
 6224SOL    HW119238   4.318   1.341   7.248
 6224SOL    HW219239   4.393   1.486   7.241
 6225SOL     OW19240   4.152   0.424   6.106
 6225SOL    HW119241   4.182   0.352   6.044
 6225SOL    HW219242   4.113   0.384   6.189
 6226SOL     OW19243   4.041   0.547   6.866
 6226SOL    HW119244   4.079   0.488   6.938
 6226SOL    HW219245   4.081   0.521   6.778
 6227SOL     OW19246   4.536   1.586   6.273
 6227SOL    HW119247   4.568   1.596   6.179
 6227SOL    HW219248   4.457   1.524   6.275
 6228SOL     OW19249   3.763   1.077   5.886
 6228SOL    HW119250   3.862   1.066   5.877
 6228SOL    HW219251   3.723   0.991   5.918
 6229SOL     OW19252   3.954   0.628   7.561
 6229SOL    HW119253   3.861   0.626   7.598
 6229SOL    HW219254   3.955   0.589   7.469
 6230SOL     OW19255   3.949   0.275   8.444
 6230SOL    HW119256   3.984   0.258   8.536
 6230SOL    HW219257   3.861   0.230   8.432
 6231SOL     OW19258   3.743   0.368   8.095
 6231SOL    HW119259   3.661   0.411   8.134
 6231SOL    HW219260   3.715   0.295   8.032
 6232SOL     OW19261   4.293   1.275   8.613
 6232SOL    HW119262   4.200   1.268   8.576
 6232SOL    HW219263   4.304   1.364   8.657
 6233SOL     OW19264   4.574   0.798   9.271
 6233SOL    HW119265   4.570   0.874   9.336
 6233SOL    HW219266   4.596   0.834   9.180
 6234SOL     OW19267   4.409   1.012   8.113
 6234SOL    HW119268   4.478   0.996   8.183
 6234SOL    HW219269   4.336   1.069   8.151
 6235SOL     OW19270   4.410   1.161   9.251
 6235SOL    HW119271   4.470   1.240   9.265
 6235SOL    HW219272   4.324   1.192   9.210
 6236SOL     OW19273   4.059   1.435   8.509
 6236SOL    HW119274   3.981   1.404   8.456
 6236SOL    HW219275   4.117   1.493   8.452
 6237SOL     OW19276   4.162   0.392   8.947
 6237SOL    HW119277   4.244   0.336   8.956
 6237SOL    HW219278   4.081   0.334   8.951
 6238SOL     OW19279   3.955   1.713   7.931
 6238SOL    HW119280   3.989   1.790   7.985
 6238SOL    HW219281   3.999   1.713   7.841
 6239SOL     OW19282   3.954   1.434   7.986
 6239SOL    HW119283   3.928   1.530   7.986
 6239SOL    HW219284   3.883   1.380   8.031
 6240SOL     OW19285   3.964   1.091   8.334
 6240SOL    HW119286   3.978   1.007   8.386
 6240SOL    HW219287   3.909   1.155   8.389
 6241SOL     OW19288   4.344   1.786   8.887
 6241SOL    HW119289   4.252   1.769   8.922
 6241SOL    HW219290   4.372   1.878   8.913
 6242SOL     OW19291   4.330   0.964   7.571
 6242SOL    HW119292   4.337   1.048   7.517
 6242SOL    HW219293   4.376   0.977   7.659
 6243SOL     OW19294   3.846   0.643   8.011
 6243SOL    HW119295   3.801   0.555   8.028
 6243SOL    HW219296   3.845   0.697   8.095
 6244SOL     OW19297   3.751   1.596   7.565
 6244SOL    HW119298   3.732   1.500   7.586
 6244SOL    HW219299   3.718   1.654   7.640
 6245SOL     OW19300   3.837   0.737   9.045
 6245SOL    HW119301   3.925   0.724   9.090
 6245SOL    HW219302   3.824   0.834   9.023
 6246SOL     OW19303   4.337   1.365   8.174
 6246SOL    HW119304   4.288   1.278   8.183
 6246SOL    HW219305   4.314   1.408   8.087
 6247SOL     OW19306   4.533   0.004   7.950
 6247SOL    HW119307   4.573   0.095   7.941
 6247SOL    HW219308   4.433   0.012   7.956
 6248SOL     OW19309   3.921   0.976   8.712
 6248SOL    HW119310   4.010   0.931   8.698
 6248SOL    HW219311   3.848   0.911   8.693
 6249SOL     OW19312   4.041   0.251   9.249
 6249SOL    HW119313   4.112   0.322   9.255
 6249SOL    HW219314   3.953   0.290   9.277
 6250SOL     OW19315   4.322   0.729   7.718
 6250SOL    HW119316   4.346   0.798   7.650
 6250SOL    HW219317   4.244   0.762   7.772
 6251SOL     OW19318   3.800   0.811   8.237
 6251SOL    HW119319   3.899   0.799   8.246
 6251SOL    HW219320   3.776   0.906   8.258
 6252SOL     OW19321   3.854   1.821   9.019
 6252SOL    HW119322   3.844   1.806   9.118
 6252SOL    HW219323   3.768   1.857   8.983
 6253SOL     OW19324   4.274   0.196   8.333
 6253SOL    HW119325   4.269   0.191   8.433
 6253SOL    HW219326   4.276   0.292   8.304
 6254SOL     OW19327   4.075   1.801   8.301
 6254SOL    HW119328   4.125   1.715   8.307
 6254SOL    HW219329   4.140   1.878   8.298
 6255SOL     OW19330   4.045   0.943   7.690
 6255SOL    HW119331   4.127   0.982   7.648
 6255SOL    HW219332   4.018   0.861   7.641
 6256SOL     OW19333   4.185   1.266   9.175
 6256SOL    HW119334   4.135   1.267   9.089
 6256SOL    HW219335   4.122   1.248   9.251
 6257SOL     OW19336   3.926   0.285   8.946
 6257SOL    HW119337   3.846   0.345   8.933
 6257SOL    HW219338   3.916   0.236   9.032
 6258SOL     OW19339   4.188   1.743   7.771
 6258SOL    HW119340   4.221   1.782   7.857
 6258SOL    HW219341   4.264   1.736   7.706
 6259SOL     OW19342   3.973   1.785   8.689
 6259SOL    HW119343   4.030   1.720   8.739
 6259SOL    HW219344   3.957   1.752   8.596
 6260SOL     OW19345   4.106   0.700   7.928
 6260SOL    HW119346   4.151   0.610   7.925
 6260SOL    HW219347   4.012   0.689   7.961
 6261SOL     OW19348   4.338   0.122   7.565
 6261SOL    HW119349   4.436   0.100   7.572
 6261SOL    HW219350   4.307   0.105   7.472
 6262SOL     OW19351   4.527   1.402   8.372
 6262SOL    HW119352   4.617   1.416   8.330
 6262SOL    HW219353   4.456   1.404   8.301
 6263SOL     OW19354   4.263   0.064   7.960
 6263SOL    HW119355   4.182   0.065   8.018
 6263SOL    HW219356   4.266   0.147   7.905
 6264SOL     OW19357   4.021   0.035   7.619
 6264SOL    HW119358   4.070   0.119   7.598
 6264SOL    HW219359   4.083  -0.030   7.664
 6265SOL     OW19360   4.800   0.683   8.912
 6265SOL    HW119361   4.720   0.622   8.915
 6265SOL    HW219362   4.881   0.630   8.888
 6266SOL     OW19363   4.183   1.152   8.189
 6266SOL    HW119364   4.112   1.125   8.254
 6266SOL    HW219365   4.157   1.124   8.096
 6267SOL     OW19366   3.802   0.556   8.834
 6267SOL    HW119367   3.894   0.555   8.793
 6267SOL    HW219368   3.796   0.630   8.901
 6268SOL     OW19369   4.285   0.222   8.595
 6268SOL    HW119370   4.323   0.138   8.632
 6268SOL    HW219371   4.197   0.241   8.639
 6269SOL     OW19372   4.212   1.385   7.622
 6269SOL    HW119373   4.125   1.370   7.669
 6269SOL    HW219374   4.195   1.411   7.527
 6270SOL     OW19375   4.251   0.256   7.776
 6270SOL    HW119376   4.278   0.197   7.701
 6270SOL    HW219377   4.251   0.351   7.745
 6271SOL     OW19378   4.134   0.813   8.699
 6271SOL    HW119379   4.220   0.825   8.749
 6271SOL    HW219380   4.092   0.726   8.726
 6272SOL     OW19381   3.788   1.564   8.779
 6272SOL    HW119382   3.742   1.646   8.745
 6272SOL    HW219383   3.886   1.583   8.788
 6273SOL     OW19384   4.091   1.100   7.949
 6273SOL    HW119385   4.084   1.183   7.893
 6273SOL    HW219386   4.095   1.020   7.889
 6274SOL     OW19387   4.290   0.537   8.313
 6274SOL    HW119388   4.302   0.603   8.239
 6274SOL    HW219389   4.336   0.571   8.396
 6275SOL     OW19390   4.078   1.510   8.777
 6275SOL    HW119391   4.057   1.466   8.690
 6275SOL    HW219392   4.175   1.536   8.780
 6276SOL     OW19393   4.126   0.751   9.046
 6276SOL    HW119394   4.194   0.806   8.999
 6276SOL    HW219395   4.166   0.663   9.073
 6277SOL     OW19396   4.228   0.050   9.188
 6277SOL    HW119397   4.186  -0.007   9.118
 6277SOL    HW219398   4.162   0.119   9.220
 6278SOL     OW19399   4.297   0.870   8.477
 6278SOL    HW119400   4.341   0.959   8.468
 6278SOL    HW219401   4.234   0.870   8.554
 6279SOL     OW19402   4.031   0.213   8.679
 6279SOL    HW119403   4.008   0.250   8.769
 6279SOL    HW219404   4.001   0.118   8.673
 6280SOL     OW19405   3.761   1.310   8.730
 6280SOL    HW119406   3.814   1.261   8.798
 6280SOL    HW219407   3.783   1.408   8.735
 6281SOL     OW19408   4.031   0.063   8.066
 6281SOL    HW119409   4.020   0.157   8.099
 6281SOL    HW219410   4.026   0.000   8.143
 6282SOL     OW19411   4.074   0.898   9.252
 6282SOL    HW119412   4.150   0.942   9.300
 6282SOL    HW219413   4.109   0.851   9.170
 6283SOL     OW19414   4.043   0.810   8.397
 6283SOL    HW119415   4.136   0.846   8.402
 6283SOL    HW219416   4.037   0.725   8.449
 6284SOL     OW19417   4.063   0.509   8.454
 6284SOL    HW119418   4.011   0.426   8.437
 6284SOL    HW219419   4.140   0.514   8.390
 6285SOL     OW19420   3.732   1.326   7.648
 6285SOL    HW119421   3.639   1.347   7.617
 6285SOL    HW219422   3.742   1.227   7.661
 6286SOL     OW19423   3.812   1.801   8.375
 6286SOL    HW119424   3.770   1.715   8.348
 6286SOL    HW219425   3.906   1.804   8.341
 6287SOL     OW19426   4.228   1.568   8.358
 6287SOL    HW119427   4.294   1.642   8.367
 6287SOL    HW219428   4.272   1.489   8.316
 6288SOL     OW19429   3.764   0.544   8.562
 6288SOL    HW119430   3.849   0.511   8.521
 6288SOL    HW219431   3.777   0.559   8.660
 6289SOL     OW19432   3.913   0.520   9.170
 6289SOL    HW119433   3.972   0.480   9.100
 6289SOL    HW219434   3.855   0.591   9.129
 6290SOL     OW19435   4.539   0.572   7.773
 6290SOL    HW119436   4.546   0.483   7.727
 6290SOL    HW219437   4.445   0.606   7.765
 6291SOL     OW19438   3.976   1.564   9.192
 6291SOL    HW119439   3.946   1.621   9.268
 6291SOL    HW219440   3.969   1.467   9.218
 6292SOL     OW19441   4.197   0.500   7.639
 6292SOL    HW119442   4.258   0.580   7.643
 6292SOL    HW219443   4.102   0.531   7.646
 6293SOL     OW19444   3.883   1.137   8.914
 6293SOL    HW119445   3.905   1.076   8.990
 6293SOL    HW219446   3.893   1.088   8.828
 6294SOL     OW19447   3.807   1.258   8.470
 6294SOL    HW119448   3.802   1.257   8.570
 6294SOL    HW219449   3.724   1.217   8.432
 6295SOL     OW19450   4.412   1.662   9.164
 6295SOL    HW119451   4.356   1.743   9.173
 6295SOL    HW219452   4.464   1.666   9.078
 6296SOL     OW19453   3.854   1.794   9.299
 6296SOL    HW119454   3.813   1.720   9.352
 6296SOL    HW219455   3.918   1.845   9.357
 6297SOL     OW19456   3.987   0.326   8.168
 6297SOL    HW119457   3.908   0.377   8.134
 6297SOL    HW219458   3.978   0.311   8.266
 6298SOL     OW19459   4.096   1.288   8.938
 6298SOL    HW119460   4.083   1.381   8.904
 6298SOL    HW219461   4.012   1.236   8.925
 6299SOL     OW19462   4.314   1.487   7.939
 6299SOL    HW119463   4.356   1.429   7.869
 6299SOL    HW219464   4.270   1.566   7.895
 6300SOL     OW19465   3.979   1.348   7.738
 6300SOL    HW119466   3.883   1.349   7.711
 6300SOL    HW219467   3.991   1.401   7.822
 6301SOL     OW19468   3.829   1.013   9.174
 6301SOL    HW119469   3.752   0.980   9.228
 6301SOL    HW219470   3.914   0.983   9.216
 6302SOL     OW19471   4.396   0.203   8.937
 6302SOL    HW119472   4.486   0.187   8.897
 6302SOL    HW219473   4.404   0.208   9.036
 6303SOL     OW19474   3.799   0.345   7.481
 6303SOL    HW119475   3.707   0.317   7.452
 6303SOL    HW219476   3.830   0.422   7.425
 6304SOL     OW19477   3.796   0.166   7.766
 6304SOL    HW119478   3.779   0.249   7.712
 6304SOL    HW219479   3.886   0.129   7.744
 6305SOL     OW19480   4.337   0.842   8.879
 6305SOL    HW119481   4.393   0.923   8.862
 6305SOL    HW219482   4.396   0.762   8.882
 6306SOL     OW19483   4.440   0.565   9.156
 6306SOL    HW119484   4.459   0.630   9.230
 6306SOL    HW219485   4.500   0.485   9.165
 6307SOL     OW19486   4.114   1.741   9.008
 6307SOL    HW119487   4.023   1.782   9.006
 6307SOL    HW219488   4.107   1.647   9.040
 6308SOL     OW19489   4.318   0.745   8.100
 6308SOL    HW119490   4.368   0.830   8.081
 6308SOL    HW219491   4.230   0.747   8.052
 6309SOL     OW19492   3.945   1.314   9.292
 6309SOL    HW119493   3.880   1.241   9.271
 6309SOL    HW219494   3.949   1.328   9.390
 6310SOL     OW19495   3.803   1.240   8.101
 6310SOL    HW119496   3.802   1.193   8.189
 6310SOL    HW219497   3.885   1.212   8.050
 6311SOL     OW19498   4.396   1.391   9.072
 6311SOL    HW119499   4.318   1.341   9.110
 6311SOL    HW219500   4.393   1.486   9.103
 6312SOL     OW19501   4.152   0.424   7.968
 6312SOL    HW119502   4.182   0.352   7.906
 6312SOL    HW219503   4.113   0.384   8.051
 6313SOL     OW19504   4.041   0.547   8.728
 6313SOL    HW119505   4.079   0.488   8.800
 6313SOL    HW219506   4.081   0.521   8.640
 6314SOL     OW19507   4.536   1.586   8.135
 6314SOL    HW119508   4.568   1.596   8.041
 6314SOL    HW219509   4.457   1.524   8.137
 6315SOL     OW19510   3.763   1.077   7.748
 6315SOL    HW119511   3.862   1.066   7.739
 6315SOL    HW219512   3.723   0.991   7.780
 6316SOL     OW19513   3.954   0.628   9.423
 6316SOL    HW119514   3.861   0.626   9.460
 6316SOL    HW219515   3.955   0.589   9.331
 6317SOL     OW19516   3.949   0.275  10.306
 6317SOL    HW119517   3.984   0.258  10.398
 6317SOL    HW219518   3.861   0.230  10.294
 6318SOL     OW19519   3.743   0.368   9.957
 6318SOL    HW119520   3.661   0.411   9.996
 6318SOL    HW219521   3.715   0.295   9.894
 6319SOL     OW19522   4.293   1.275  10.475
 6319SOL    HW119523   4.200   1.268  10.438
 6319SOL    HW219524   4.304   1.364  10.519
 6320SOL     OW19525   4.574   0.798  11.133
 6320SOL    HW119526   4.570   0.874  11.198
 6320SOL    HW219527   4.596   0.834  11.042
 6321SOL     OW19528   4.409   1.012   9.975
 6321SOL    HW119529   4.478   0.996  10.045
 6321SOL    HW219530   4.336   1.069  10.013
 6322SOL     OW19531   4.059   1.435  10.371
 6322SOL    HW119532   3.981   1.404  10.318
 6322SOL    HW219533   4.117   1.493  10.314
 6323SOL     OW19534   4.162   0.392  10.809
 6323SOL    HW119535   4.244   0.336  10.818
 6323SOL    HW219536   4.081   0.334  10.813
 6324SOL     OW19537   3.955   1.713   9.793
 6324SOL    HW119538   3.989   1.790   9.847
 6324SOL    HW219539   3.999   1.713   9.703
 6325SOL     OW19540   3.954   1.434   9.848
 6325SOL    HW119541   3.928   1.530   9.848
 6325SOL    HW219542   3.883   1.380   9.893
 6326SOL     OW19543   3.964   1.091  10.196
 6326SOL    HW119544   3.978   1.007  10.248
 6326SOL    HW219545   3.909   1.155  10.251
 6327SOL     OW19546   4.344   1.786  10.749
 6327SOL    HW119547   4.252   1.769  10.784
 6327SOL    HW219548   4.372   1.878  10.775
 6328SOL     OW19549   4.330   0.964   9.433
 6328SOL    HW119550   4.337   1.048   9.379
 6328SOL    HW219551   4.376   0.977   9.521
 6329SOL     OW19552   3.846   0.643   9.873
 6329SOL    HW119553   3.801   0.555   9.890
 6329SOL    HW219554   3.845   0.697   9.957
 6330SOL     OW19555   3.751   1.596   9.427
 6330SOL    HW119556   3.732   1.500   9.448
 6330SOL    HW219557   3.718   1.654   9.502
 6331SOL     OW19558   3.837   0.737  10.907
 6331SOL    HW119559   3.925   0.724  10.952
 6331SOL    HW219560   3.824   0.834  10.885
 6332SOL     OW19561   4.337   1.365  10.036
 6332SOL    HW119562   4.288   1.278  10.045
 6332SOL    HW219563   4.314   1.408   9.949
 6333SOL     OW19564   4.533   0.004   9.812
 6333SOL    HW119565   4.573   0.095   9.803
 6333SOL    HW219566   4.433   0.012   9.818
 6334SOL     OW19567   3.921   0.976  10.574
 6334SOL    HW119568   4.010   0.931  10.560
 6334SOL    HW219569   3.848   0.911  10.555
 6335SOL     OW19570   4.041   0.251  11.111
 6335SOL    HW119571   4.112   0.322  11.117
 6335SOL    HW219572   3.953   0.290  11.139
 6336SOL     OW19573   4.322   0.729   9.580
 6336SOL    HW119574   4.346   0.798   9.512
 6336SOL    HW219575   4.244   0.762   9.634
 6337SOL     OW19576   3.800   0.811  10.099
 6337SOL    HW119577   3.899   0.799  10.108
 6337SOL    HW219578   3.776   0.906  10.120
 6338SOL     OW19579   3.854   1.821  10.881
 6338SOL    HW119580   3.844   1.806  10.980
 6338SOL    HW219581   3.768   1.857  10.845
 6339SOL     OW19582   4.274   0.196  10.195
 6339SOL    HW119583   4.269   0.191  10.295
 6339SOL    HW219584   4.276   0.292  10.166
 6340SOL     OW19585   4.075   1.801  10.163
 6340SOL    HW119586   4.125   1.715  10.169
 6340SOL    HW219587   4.140   1.878  10.160
 6341SOL     OW19588   4.045   0.943   9.552
 6341SOL    HW119589   4.127   0.982   9.510
 6341SOL    HW219590   4.018   0.861   9.503
 6342SOL     OW19591   4.185   1.266  11.037
 6342SOL    HW119592   4.135   1.267  10.951
 6342SOL    HW219593   4.122   1.248  11.113
 6343SOL     OW19594   3.926   0.285  10.808
 6343SOL    HW119595   3.846   0.345  10.795
 6343SOL    HW219596   3.916   0.236  10.894
 6344SOL     OW19597   4.188   1.743   9.633
 6344SOL    HW119598   4.221   1.782   9.719
 6344SOL    HW219599   4.264   1.736   9.568
 6345SOL     OW19600   3.973   1.785  10.551
 6345SOL    HW119601   4.030   1.720  10.601
 6345SOL    HW219602   3.957   1.752  10.458
 6346SOL     OW19603   4.106   0.700   9.790
 6346SOL    HW119604   4.151   0.610   9.787
 6346SOL    HW219605   4.012   0.689   9.823
 6347SOL     OW19606   4.338   0.122   9.427
 6347SOL    HW119607   4.436   0.100   9.434
 6347SOL    HW219608   4.307   0.105   9.334
 6348SOL     OW19609   4.527   1.402  10.234
 6348SOL    HW119610   4.617   1.416  10.192
 6348SOL    HW219611   4.456   1.404  10.163
 6349SOL     OW19612   4.263   0.064   9.822
 6349SOL    HW119613   4.182   0.065   9.880
 6349SOL    HW219614   4.266   0.147   9.767
 6350SOL     OW19615   4.021   0.035   9.481
 6350SOL    HW119616   4.070   0.119   9.460
 6350SOL    HW219617   4.083  -0.030   9.526
 6351SOL     OW19618   4.800   0.683  10.774
 6351SOL    HW119619   4.720   0.622  10.777
 6351SOL    HW219620   4.881   0.630  10.750
 6352SOL     OW19621   4.183   1.152  10.051
 6352SOL    HW119622   4.112   1.125  10.116
 6352SOL    HW219623   4.157   1.124   9.958
 6353SOL     OW19624   3.802   0.556  10.696
 6353SOL    HW119625   3.894   0.555  10.655
 6353SOL    HW219626   3.796   0.630  10.763
 6354SOL     OW19627   4.285   0.222  10.457
 6354SOL    HW119628   4.323   0.138  10.494
 6354SOL    HW219629   4.197   0.241  10.501
 6355SOL     OW19630   4.212   1.385   9.484
 6355SOL    HW119631   4.125   1.370   9.531
 6355SOL    HW219632   4.195   1.411   9.389
 6356SOL     OW19633   4.251   0.256   9.638
 6356SOL    HW119634   4.278   0.197   9.563
 6356SOL    HW219635   4.251   0.351   9.607
 6357SOL     OW19636   4.134   0.813  10.561
 6357SOL    HW119637   4.220   0.825  10.611
 6357SOL    HW219638   4.092   0.726  10.588
 6358SOL     OW19639   3.788   1.564  10.641
 6358SOL    HW119640   3.742   1.646  10.607
 6358SOL    HW219641   3.886   1.583  10.650
 6359SOL     OW19642   4.091   1.100   9.811
 6359SOL    HW119643   4.084   1.183   9.755
 6359SOL    HW219644   4.095   1.020   9.751
 6360SOL     OW19645   4.290   0.537  10.175
 6360SOL    HW119646   4.302   0.603  10.101
 6360SOL    HW219647   4.336   0.571  10.258
 6361SOL     OW19648   4.078   1.510  10.639
 6361SOL    HW119649   4.057   1.466  10.552
 6361SOL    HW219650   4.175   1.536  10.642
 6362SOL     OW19651   4.126   0.751  10.908
 6362SOL    HW119652   4.194   0.806  10.861
 6362SOL    HW219653   4.166   0.663  10.935
 6363SOL     OW19654   4.297   0.870  10.339
 6363SOL    HW119655   4.341   0.959  10.330
 6363SOL    HW219656   4.234   0.870  10.416
 6364SOL     OW19657   4.031   0.213  10.541
 6364SOL    HW119658   4.008   0.250  10.631
 6364SOL    HW219659   4.001   0.118  10.535
 6365SOL     OW19660   3.761   1.310  10.592
 6365SOL    HW119661   3.814   1.261  10.660
 6365SOL    HW219662   3.783   1.408  10.597
 6366SOL     OW19663   4.031   0.063   9.928
 6366SOL    HW119664   4.020   0.157   9.961
 6366SOL    HW219665   4.026   0.000  10.005
 6367SOL     OW19666   4.074   0.898  11.114
 6367SOL    HW119667   4.150   0.942  11.162
 6367SOL    HW219668   4.109   0.851  11.032
 6368SOL     OW19669   4.043   0.810  10.259
 6368SOL    HW119670   4.136   0.846  10.264
 6368SOL    HW219671   4.037   0.725  10.311
 6369SOL     OW19672   4.063   0.509  10.316
 6369SOL    HW119673   4.011   0.426  10.299
 6369SOL    HW219674   4.140   0.514  10.252
 6370SOL     OW19675   3.732   1.326   9.510
 6370SOL    HW119676   3.639   1.347   9.479
 6370SOL    HW219677   3.742   1.227   9.523
 6371SOL     OW19678   3.812   1.801  10.237
 6371SOL    HW119679   3.770   1.715  10.210
 6371SOL    HW219680   3.906   1.804  10.203
 6372SOL     OW19681   4.228   1.568  10.220
 6372SOL    HW119682   4.294   1.642  10.229
 6372SOL    HW219683   4.272   1.489  10.178
 6373SOL     OW19684   3.764   0.544  10.424
 6373SOL    HW119685   3.849   0.511  10.383
 6373SOL    HW219686   3.777   0.559  10.522
 6374SOL     OW19687   4.539   0.572   9.635
 6374SOL    HW119688   4.546   0.483   9.589
 6374SOL    HW219689   4.445   0.606   9.627
 6375SOL     OW19690   3.976   1.564  11.054
 6375SOL    HW119691   3.946   1.621  11.130
 6375SOL    HW219692   3.969   1.467  11.080
 6376SOL     OW19693   4.197   0.500   9.501
 6376SOL    HW119694   4.258   0.580   9.505
 6376SOL    HW219695   4.102   0.531   9.508
 6377SOL     OW19696   3.883   1.137  10.776
 6377SOL    HW119697   3.905   1.076  10.852
 6377SOL    HW219698   3.893   1.088  10.690
 6378SOL     OW19699   3.807   1.258  10.332
 6378SOL    HW119700   3.802   1.257  10.432
 6378SOL    HW219701   3.724   1.217  10.294
 6379SOL     OW19702   4.412   1.662  11.026
 6379SOL    HW119703   4.356   1.743  11.035
 6379SOL    HW219704   4.464   1.666  10.940
 6380SOL     OW19705   3.987   0.326  10.030
 6380SOL    HW119706   3.908   0.377   9.996
 6380SOL    HW219707   3.978   0.311  10.128
 6381SOL     OW19708   4.096   1.288  10.800
 6381SOL    HW119709   4.083   1.381  10.766
 6381SOL    HW219710   4.012   1.236  10.787
 6382SOL     OW19711   4.314   1.487   9.801
 6382SOL    HW119712   4.356   1.429   9.731
 6382SOL    HW219713   4.270   1.566   9.757
 6383SOL     OW19714   3.979   1.348   9.600
 6383SOL    HW119715   3.883   1.349   9.573
 6383SOL    HW219716   3.991   1.401   9.684
 6384SOL     OW19717   3.829   1.013  11.036
 6384SOL    HW119718   3.752   0.980  11.090
 6384SOL    HW219719   3.914   0.983  11.078
 6385SOL     OW19720   4.396   0.203  10.799
 6385SOL    HW119721   4.486   0.187  10.759
 6385SOL    HW219722   4.404   0.208  10.898
 6386SOL     OW19723   3.799   0.345   9.343
 6386SOL    HW119724   3.707   0.317   9.314
 6386SOL    HW219725   3.830   0.422   9.287
 6387SOL     OW19726   3.796   0.166   9.628
 6387SOL    HW119727   3.779   0.249   9.574
 6387SOL    HW219728   3.886   0.129   9.606
 6388SOL     OW19729   4.337   0.842  10.741
 6388SOL    HW119730   4.393   0.923  10.724
 6388SOL    HW219731   4.396   0.762  10.744
 6389SOL     OW19732   4.114   1.741  10.870
 6389SOL    HW119733   4.023   1.782  10.868
 6389SOL    HW219734   4.107   1.647  10.902
 6390SOL     OW19735   4.318   0.745   9.962
 6390SOL    HW119736   4.368   0.830   9.943
 6390SOL    HW219737   4.230   0.747   9.914
 6391SOL     OW19738   3.803   1.240   9.963
 6391SOL    HW119739   3.802   1.193  10.051
 6391SOL    HW219740   3.885   1.212   9.912
 6392SOL     OW19741   4.396   1.391  10.934
 6392SOL    HW119742   4.318   1.341  10.972
 6392SOL    HW219743   4.393   1.486  10.965
 6393SOL     OW19744   4.152   0.424   9.830
 6393SOL    HW119745   4.182   0.352   9.768
 6393SOL    HW219746   4.113   0.384   9.913
 6394SOL     OW19747   4.041   0.547  10.590
 6394SOL    HW119748   4.079   0.488  10.662
 6394SOL    HW219749   4.081   0.521  10.502
 6395SOL     OW19750   4.536   1.586   9.997
 6395SOL    HW119751   4.568   1.596   9.903
 6395SOL    HW219752   4.457   1.524   9.999
 6396SOL     OW19753   3.763   1.077   9.610
 6396SOL    HW119754   3.862   1.066   9.601
 6396SOL    HW219755   3.723   0.991   9.642
 6397SOL     OW19756   3.954   2.490   0.113
 6397SOL    HW119757   3.861   2.488   0.150
 6397SOL    HW219758   3.955   2.451   0.021
 6398SOL     OW19759   3.949   2.137   0.996
 6398SOL    HW119760   3.984   2.120   1.088
 6398SOL    HW219761   3.861   2.092   0.984
 6399SOL     OW19762   3.743   2.230   0.647
 6399SOL    HW119763   3.661   2.273   0.686
 6399SOL    HW219764   3.715   2.157   0.584
 6400SOL     OW19765   4.293   3.137   1.165
 6400SOL    HW119766   4.200   3.130   1.128
 6400SOL    HW219767   4.304   3.226   1.209
 6401SOL     OW19768   4.574   2.660   1.823
 6401SOL    HW119769   4.570   2.736   1.888
 6401SOL    HW219770   4.596   2.696   1.732
 6402SOL     OW19771   4.409   2.874   0.665
 6402SOL    HW119772   4.478   2.858   0.735
 6402SOL    HW219773   4.336   2.931   0.703
 6403SOL     OW19774   4.410   3.023   1.803
 6403SOL    HW119775   4.470   3.102   1.817
 6403SOL    HW219776   4.324   3.054   1.762
 6404SOL     OW19777   4.059   3.297   1.061
 6404SOL    HW119778   3.981   3.266   1.008
 6404SOL    HW219779   4.117   3.355   1.004
 6405SOL     OW19780   4.162   2.254   1.499
 6405SOL    HW119781   4.244   2.198   1.508
 6405SOL    HW219782   4.081   2.196   1.503
 6406SOL     OW19783   3.955   3.575   0.483
 6406SOL    HW119784   3.989   3.652   0.537
 6406SOL    HW219785   3.999   3.575   0.393
 6407SOL     OW19786   3.954   3.296   0.538
 6407SOL    HW119787   3.928   3.392   0.538
 6407SOL    HW219788   3.883   3.242   0.583
 6408SOL     OW19789   3.964   2.953   0.886
 6408SOL    HW119790   3.978   2.869   0.938
 6408SOL    HW219791   3.909   3.017   0.941
 6409SOL     OW19792   4.344   3.648   1.439
 6409SOL    HW119793   4.252   3.631   1.474
 6409SOL    HW219794   4.372   3.740   1.465
 6410SOL     OW19795   4.330   2.826   0.123
 6410SOL    HW119796   4.337   2.910   0.069
 6410SOL    HW219797   4.376   2.839   0.211
 6411SOL     OW19798   3.846   2.505   0.563
 6411SOL    HW119799   3.801   2.417   0.580
 6411SOL    HW219800   3.845   2.559   0.647
 6412SOL     OW19801   3.751   3.458   0.117
 6412SOL    HW119802   3.732   3.362   0.138
 6412SOL    HW219803   3.718   3.516   0.192
 6413SOL     OW19804   3.837   2.599   1.597
 6413SOL    HW119805   3.925   2.586   1.642
 6413SOL    HW219806   3.824   2.696   1.575
 6414SOL     OW19807   4.337   3.227   0.726
 6414SOL    HW119808   4.288   3.140   0.735
 6414SOL    HW219809   4.314   3.270   0.639
 6415SOL     OW19810   4.533   1.866   0.502
 6415SOL    HW119811   4.573   1.957   0.493
 6415SOL    HW219812   4.433   1.874   0.508
 6416SOL     OW19813   3.921   2.838   1.264
 6416SOL    HW119814   4.010   2.793   1.250
 6416SOL    HW219815   3.848   2.773   1.245
 6417SOL     OW19816   4.041   2.113   1.801
 6417SOL    HW119817   4.112   2.184   1.807
 6417SOL    HW219818   3.953   2.152   1.829
 6418SOL     OW19819   4.322   2.591   0.270
 6418SOL    HW119820   4.346   2.660   0.202
 6418SOL    HW219821   4.244   2.624   0.324
 6419SOL     OW19822   3.800   2.673   0.789
 6419SOL    HW119823   3.899   2.661   0.798
 6419SOL    HW219824   3.776   2.768   0.810
 6420SOL     OW19825   3.854   3.683   1.571
 6420SOL    HW119826   3.844   3.668   1.670
 6420SOL    HW219827   3.768   3.719   1.535
 6421SOL     OW19828   4.274   2.058   0.885
 6421SOL    HW119829   4.269   2.053   0.985
 6421SOL    HW219830   4.276   2.154   0.856
 6422SOL     OW19831   4.075   3.663   0.853
 6422SOL    HW119832   4.125   3.577   0.859
 6422SOL    HW219833   4.140   3.740   0.850
 6423SOL     OW19834   4.045   2.805   0.242
 6423SOL    HW119835   4.127   2.844   0.200
 6423SOL    HW219836   4.018   2.723   0.193
 6424SOL     OW19837   4.185   3.128   1.727
 6424SOL    HW119838   4.135   3.129   1.641
 6424SOL    HW219839   4.122   3.110   1.803
 6425SOL     OW19840   3.926   2.147   1.498
 6425SOL    HW119841   3.846   2.207   1.485
 6425SOL    HW219842   3.916   2.098   1.584
 6426SOL     OW19843   4.188   3.605   0.323
 6426SOL    HW119844   4.221   3.644   0.409
 6426SOL    HW219845   4.264   3.598   0.258
 6427SOL     OW19846   3.973   3.647   1.241
 6427SOL    HW119847   4.030   3.582   1.291
 6427SOL    HW219848   3.957   3.614   1.148
 6428SOL     OW19849   4.106   2.562   0.480
 6428SOL    HW119850   4.151   2.472   0.477
 6428SOL    HW219851   4.012   2.551   0.513
 6429SOL     OW19852   4.338   1.984   0.117
 6429SOL    HW119853   4.436   1.962   0.124
 6429SOL    HW219854   4.307   1.967   0.024
 6430SOL     OW19855   4.527   3.264   0.924
 6430SOL    HW119856   4.617   3.278   0.882
 6430SOL    HW219857   4.456   3.266   0.853
 6431SOL     OW19858   4.263   1.926   0.512
 6431SOL    HW119859   4.182   1.927   0.570
 6431SOL    HW219860   4.266   2.009   0.457
 6432SOL     OW19861   4.021   1.897   0.171
 6432SOL    HW119862   4.070   1.981   0.150
 6432SOL    HW219863   4.083   1.832   0.216
 6433SOL     OW19864   4.800   2.545   1.464
 6433SOL    HW119865   4.720   2.484   1.467
 6433SOL    HW219866   4.881   2.492   1.440
 6434SOL     OW19867   4.183   3.014   0.741
 6434SOL    HW119868   4.112   2.987   0.806
 6434SOL    HW219869   4.157   2.986   0.648
 6435SOL     OW19870   3.802   2.418   1.386
 6435SOL    HW119871   3.894   2.417   1.345
 6435SOL    HW219872   3.796   2.492   1.453
 6436SOL     OW19873   4.285   2.084   1.147
 6436SOL    HW119874   4.323   2.000   1.184
 6436SOL    HW219875   4.197   2.103   1.191
 6437SOL     OW19876   4.212   3.247   0.174
 6437SOL    HW119877   4.125   3.232   0.221
 6437SOL    HW219878   4.195   3.273   0.079
 6438SOL     OW19879   4.251   2.118   0.328
 6438SOL    HW119880   4.278   2.059   0.253
 6438SOL    HW219881   4.251   2.213   0.297
 6439SOL     OW19882   4.134   2.675   1.251
 6439SOL    HW119883   4.220   2.687   1.301
 6439SOL    HW219884   4.092   2.588   1.278
 6440SOL     OW19885   3.788   3.426   1.331
 6440SOL    HW119886   3.742   3.508   1.297
 6440SOL    HW219887   3.886   3.445   1.340
 6441SOL     OW19888   4.091   2.962   0.501
 6441SOL    HW119889   4.084   3.045   0.445
 6441SOL    HW219890   4.095   2.882   0.441
 6442SOL     OW19891   4.290   2.399   0.865
 6442SOL    HW119892   4.302   2.465   0.791
 6442SOL    HW219893   4.336   2.433   0.948
 6443SOL     OW19894   4.078   3.372   1.329
 6443SOL    HW119895   4.057   3.328   1.242
 6443SOL    HW219896   4.175   3.398   1.332
 6444SOL     OW19897   4.126   2.613   1.598
 6444SOL    HW119898   4.194   2.668   1.551
 6444SOL    HW219899   4.166   2.525   1.625
 6445SOL     OW19900   4.228   1.912   1.740
 6445SOL    HW119901   4.186   1.855   1.670
 6445SOL    HW219902   4.162   1.981   1.772
 6446SOL     OW19903   4.297   2.732   1.029
 6446SOL    HW119904   4.341   2.821   1.020
 6446SOL    HW219905   4.234   2.732   1.106
 6447SOL     OW19906   4.031   2.075   1.231
 6447SOL    HW119907   4.008   2.112   1.321
 6447SOL    HW219908   4.001   1.980   1.225
 6448SOL     OW19909   3.761   3.172   1.282
 6448SOL    HW119910   3.814   3.123   1.350
 6448SOL    HW219911   3.783   3.270   1.287
 6449SOL     OW19912   4.031   1.925   0.618
 6449SOL    HW119913   4.020   2.019   0.651
 6449SOL    HW219914   4.026   1.862   0.695
 6450SOL     OW19915   4.074   2.760   1.804
 6450SOL    HW119916   4.150   2.804   1.852
 6450SOL    HW219917   4.109   2.713   1.722
 6451SOL     OW19918   4.043   2.672   0.949
 6451SOL    HW119919   4.136   2.708   0.954
 6451SOL    HW219920   4.037   2.587   1.001
 6452SOL     OW19921   4.063   2.371   1.006
 6452SOL    HW119922   4.011   2.288   0.989
 6452SOL    HW219923   4.140   2.376   0.942
 6453SOL     OW19924   3.732   3.188   0.200
 6453SOL    HW119925   3.639   3.209   0.169
 6453SOL    HW219926   3.742   3.089   0.213
 6454SOL     OW19927   3.812   3.663   0.927
 6454SOL    HW119928   3.770   3.577   0.900
 6454SOL    HW219929   3.906   3.666   0.893
 6455SOL     OW19930   4.228   3.430   0.910
 6455SOL    HW119931   4.294   3.504   0.919
 6455SOL    HW219932   4.272   3.351   0.868
 6456SOL     OW19933   3.764   2.406   1.114
 6456SOL    HW119934   3.849   2.373   1.073
 6456SOL    HW219935   3.777   2.421   1.212
 6457SOL     OW19936   3.913   2.382   1.722
 6457SOL    HW119937   3.972   2.342   1.652
 6457SOL    HW219938   3.855   2.453   1.681
 6458SOL     OW19939   4.539   2.434   0.325
 6458SOL    HW119940   4.546   2.345   0.279
 6458SOL    HW219941   4.445   2.468   0.317
 6459SOL     OW19942   3.976   3.426   1.744
 6459SOL    HW119943   3.946   3.483   1.820
 6459SOL    HW219944   3.969   3.329   1.770
 6460SOL     OW19945   4.197   2.362   0.191
 6460SOL    HW119946   4.258   2.442   0.195
 6460SOL    HW219947   4.102   2.393   0.198
 6461SOL     OW19948   3.883   2.999   1.466
 6461SOL    HW119949   3.905   2.938   1.542
 6461SOL    HW219950   3.893   2.950   1.380
 6462SOL     OW19951   3.807   3.120   1.022
 6462SOL    HW119952   3.802   3.119   1.122
 6462SOL    HW219953   3.724   3.079   0.984
 6463SOL     OW19954   4.412   3.524   1.716
 6463SOL    HW119955   4.356   3.605   1.725
 6463SOL    HW219956   4.464   3.528   1.630
 6464SOL     OW19957   3.854   3.656   1.851
 6464SOL    HW119958   3.813   3.582   1.904
 6464SOL    HW219959   3.918   3.707   1.909
 6465SOL     OW19960   3.987   2.188   0.720
 6465SOL    HW119961   3.908   2.239   0.686
 6465SOL    HW219962   3.978   2.173   0.818
 6466SOL     OW19963   4.096   3.150   1.490
 6466SOL    HW119964   4.083   3.243   1.456
 6466SOL    HW219965   4.012   3.098   1.477
 6467SOL     OW19966   4.314   3.349   0.491
 6467SOL    HW119967   4.356   3.291   0.421
 6467SOL    HW219968   4.270   3.428   0.447
 6468SOL     OW19969   3.979   3.210   0.290
 6468SOL    HW119970   3.883   3.211   0.263
 6468SOL    HW219971   3.991   3.263   0.374
 6469SOL     OW19972   3.829   2.875   1.726
 6469SOL    HW119973   3.752   2.842   1.780
 6469SOL    HW219974   3.914   2.845   1.768
 6470SOL     OW19975   4.396   2.065   1.489
 6470SOL    HW119976   4.486   2.049   1.449
 6470SOL    HW219977   4.404   2.070   1.588
 6471SOL     OW19978   3.799   2.207   0.033
 6471SOL    HW119979   3.707   2.179   0.004
 6471SOL    HW219980   3.830   2.284  -0.023
 6472SOL     OW19981   3.796   2.028   0.318
 6472SOL    HW119982   3.779   2.111   0.264
 6472SOL    HW219983   3.886   1.991   0.296
 6473SOL     OW19984   4.337   2.704   1.431
 6473SOL    HW119985   4.393   2.785   1.414
 6473SOL    HW219986   4.396   2.624   1.434
 6474SOL     OW19987   4.440   2.427   1.708
 6474SOL    HW119988   4.459   2.492   1.782
 6474SOL    HW219989   4.500   2.347   1.717
 6475SOL     OW19990   4.114   3.603   1.560
 6475SOL    HW119991   4.023   3.644   1.558
 6475SOL    HW219992   4.107   3.509   1.592
 6476SOL     OW19993   4.318   2.607   0.652
 6476SOL    HW119994   4.368   2.692   0.633
 6476SOL    HW219995   4.230   2.609   0.604
 6477SOL     OW19996   3.945   3.176   1.844
 6477SOL    HW119997   3.880   3.103   1.823
 6477SOL    HW219998   3.949   3.190   1.942
 6478SOL     OW19999   3.803   3.102   0.653
 6478SOL    HW120000   3.802   3.055   0.741
 6478SOL    HW220001   3.885   3.074   0.602
 6479SOL     OW20002   4.396   3.253   1.624
 6479SOL    HW120003   4.318   3.203   1.662
 6479SOL    HW220004   4.393   3.348   1.655
 6480SOL     OW20005   4.152   2.286   0.520
 6480SOL    HW120006   4.182   2.214   0.458
 6480SOL    HW220007   4.113   2.246   0.603
 6481SOL     OW20008   4.041   2.409   1.280
 6481SOL    HW120009   4.079   2.350   1.352
 6481SOL    HW220010   4.081   2.383   1.192
 6482SOL     OW20011   4.536   3.448   0.687
 6482SOL    HW120012   4.568   3.458   0.593
 6482SOL    HW220013   4.457   3.386   0.689
 6483SOL     OW20014   3.763   2.939   0.300
 6483SOL    HW120015   3.862   2.928   0.291
 6483SOL    HW220016   3.723   2.853   0.332
 6484SOL     OW20017   3.954   2.490   1.975
 6484SOL    HW120018   3.861   2.488   2.012
 6484SOL    HW220019   3.955   2.451   1.883
 6485SOL     OW20020   3.949   2.137   2.858
 6485SOL    HW120021   3.984   2.120   2.950
 6485SOL    HW220022   3.861   2.092   2.846
 6486SOL     OW20023   3.743   2.230   2.509
 6486SOL    HW120024   3.661   2.273   2.548
 6486SOL    HW220025   3.715   2.157   2.446
 6487SOL     OW20026   4.293   3.137   3.027
 6487SOL    HW120027   4.200   3.130   2.990
 6487SOL    HW220028   4.304   3.226   3.071
 6488SOL     OW20029   4.574   2.660   3.685
 6488SOL    HW120030   4.570   2.736   3.750
 6488SOL    HW220031   4.596   2.696   3.594
 6489SOL     OW20032   4.409   2.874   2.527
 6489SOL    HW120033   4.478   2.858   2.597
 6489SOL    HW220034   4.336   2.931   2.565
 6490SOL     OW20035   4.410   3.023   3.665
 6490SOL    HW120036   4.470   3.102   3.679
 6490SOL    HW220037   4.324   3.054   3.624
 6491SOL     OW20038   4.059   3.297   2.923
 6491SOL    HW120039   3.981   3.266   2.870
 6491SOL    HW220040   4.117   3.355   2.866
 6492SOL     OW20041   4.162   2.254   3.361
 6492SOL    HW120042   4.244   2.198   3.370
 6492SOL    HW220043   4.081   2.196   3.365
 6493SOL     OW20044   3.955   3.575   2.345
 6493SOL    HW120045   3.989   3.652   2.399
 6493SOL    HW220046   3.999   3.575   2.255
 6494SOL     OW20047   3.954   3.296   2.400
 6494SOL    HW120048   3.928   3.392   2.400
 6494SOL    HW220049   3.883   3.242   2.445
 6495SOL     OW20050   3.964   2.953   2.748
 6495SOL    HW120051   3.978   2.869   2.800
 6495SOL    HW220052   3.909   3.017   2.803
 6496SOL     OW20053   4.344   3.648   3.301
 6496SOL    HW120054   4.252   3.631   3.336
 6496SOL    HW220055   4.372   3.740   3.327
 6497SOL     OW20056   4.330   2.826   1.985
 6497SOL    HW120057   4.337   2.910   1.931
 6497SOL    HW220058   4.376   2.839   2.073
 6498SOL     OW20059   3.846   2.505   2.425
 6498SOL    HW120060   3.801   2.417   2.442
 6498SOL    HW220061   3.845   2.559   2.509
 6499SOL     OW20062   3.751   3.458   1.979
 6499SOL    HW120063   3.732   3.362   2.000
 6499SOL    HW220064   3.718   3.516   2.054
 6500SOL     OW20065   3.837   2.599   3.459
 6500SOL    HW120066   3.925   2.586   3.504
 6500SOL    HW220067   3.824   2.696   3.437
 6501SOL     OW20068   4.337   3.227   2.588
 6501SOL    HW120069   4.288   3.140   2.597
 6501SOL    HW220070   4.314   3.270   2.501
 6502SOL     OW20071   4.533   1.866   2.364
 6502SOL    HW120072   4.573   1.957   2.355
 6502SOL    HW220073   4.433   1.874   2.370
 6503SOL     OW20074   3.921   2.838   3.126
 6503SOL    HW120075   4.010   2.793   3.112
 6503SOL    HW220076   3.848   2.773   3.107
 6504SOL     OW20077   4.041   2.113   3.663
 6504SOL    HW120078   4.112   2.184   3.669
 6504SOL    HW220079   3.953   2.152   3.691
 6505SOL     OW20080   4.322   2.591   2.132
 6505SOL    HW120081   4.346   2.660   2.064
 6505SOL    HW220082   4.244   2.624   2.186
 6506SOL     OW20083   3.800   2.673   2.651
 6506SOL    HW120084   3.899   2.661   2.660
 6506SOL    HW220085   3.776   2.768   2.672
 6507SOL     OW20086   3.854   3.683   3.433
 6507SOL    HW120087   3.844   3.668   3.532
 6507SOL    HW220088   3.768   3.719   3.397
 6508SOL     OW20089   4.274   2.058   2.747
 6508SOL    HW120090   4.269   2.053   2.847
 6508SOL    HW220091   4.276   2.154   2.718
 6509SOL     OW20092   4.075   3.663   2.715
 6509SOL    HW120093   4.125   3.577   2.721
 6509SOL    HW220094   4.140   3.740   2.712
 6510SOL     OW20095   4.045   2.805   2.104
 6510SOL    HW120096   4.127   2.844   2.062
 6510SOL    HW220097   4.018   2.723   2.055
 6511SOL     OW20098   4.185   3.128   3.589
 6511SOL    HW120099   4.135   3.129   3.503
 6511SOL    HW220100   4.122   3.110   3.665
 6512SOL     OW20101   3.926   2.147   3.360
 6512SOL    HW120102   3.846   2.207   3.347
 6512SOL    HW220103   3.916   2.098   3.446
 6513SOL     OW20104   4.188   3.605   2.185
 6513SOL    HW120105   4.221   3.644   2.271
 6513SOL    HW220106   4.264   3.598   2.120
 6514SOL     OW20107   3.973   3.647   3.103
 6514SOL    HW120108   4.030   3.582   3.153
 6514SOL    HW220109   3.957   3.614   3.010
 6515SOL     OW20110   4.106   2.562   2.342
 6515SOL    HW120111   4.151   2.472   2.339
 6515SOL    HW220112   4.012   2.551   2.375
 6516SOL     OW20113   4.338   1.984   1.979
 6516SOL    HW120114   4.436   1.962   1.986
 6516SOL    HW220115   4.307   1.967   1.886
 6517SOL     OW20116   4.527   3.264   2.786
 6517SOL    HW120117   4.617   3.278   2.744
 6517SOL    HW220118   4.456   3.266   2.715
 6518SOL     OW20119   4.263   1.926   2.374
 6518SOL    HW120120   4.182   1.927   2.432
 6518SOL    HW220121   4.266   2.009   2.319
 6519SOL     OW20122   4.021   1.897   2.033
 6519SOL    HW120123   4.070   1.981   2.012
 6519SOL    HW220124   4.083   1.832   2.078
 6520SOL     OW20125   4.800   2.545   3.326
 6520SOL    HW120126   4.720   2.484   3.329
 6520SOL    HW220127   4.881   2.492   3.302
 6521SOL     OW20128   4.183   3.014   2.603
 6521SOL    HW120129   4.112   2.987   2.668
 6521SOL    HW220130   4.157   2.986   2.510
 6522SOL     OW20131   3.802   2.418   3.248
 6522SOL    HW120132   3.894   2.417   3.207
 6522SOL    HW220133   3.796   2.492   3.315
 6523SOL     OW20134   4.285   2.084   3.009
 6523SOL    HW120135   4.323   2.000   3.046
 6523SOL    HW220136   4.197   2.103   3.053
 6524SOL     OW20137   4.212   3.247   2.036
 6524SOL    HW120138   4.125   3.232   2.083
 6524SOL    HW220139   4.195   3.273   1.941
 6525SOL     OW20140   4.251   2.118   2.190
 6525SOL    HW120141   4.278   2.059   2.115
 6525SOL    HW220142   4.251   2.213   2.159
 6526SOL     OW20143   4.134   2.675   3.113
 6526SOL    HW120144   4.220   2.687   3.163
 6526SOL    HW220145   4.092   2.588   3.140
 6527SOL     OW20146   3.788   3.426   3.193
 6527SOL    HW120147   3.742   3.508   3.159
 6527SOL    HW220148   3.886   3.445   3.202
 6528SOL     OW20149   4.091   2.962   2.363
 6528SOL    HW120150   4.084   3.045   2.307
 6528SOL    HW220151   4.095   2.882   2.303
 6529SOL     OW20152   4.290   2.399   2.727
 6529SOL    HW120153   4.302   2.465   2.653
 6529SOL    HW220154   4.336   2.433   2.810
 6530SOL     OW20155   4.078   3.372   3.191
 6530SOL    HW120156   4.057   3.328   3.104
 6530SOL    HW220157   4.175   3.398   3.194
 6531SOL     OW20158   4.126   2.613   3.460
 6531SOL    HW120159   4.194   2.668   3.413
 6531SOL    HW220160   4.166   2.525   3.487
 6532SOL     OW20161   4.228   1.912   3.602
 6532SOL    HW120162   4.186   1.855   3.532
 6532SOL    HW220163   4.162   1.981   3.634
 6533SOL     OW20164   4.297   2.732   2.891
 6533SOL    HW120165   4.341   2.821   2.882
 6533SOL    HW220166   4.234   2.732   2.968
 6534SOL     OW20167   4.031   2.075   3.093
 6534SOL    HW120168   4.008   2.112   3.183
 6534SOL    HW220169   4.001   1.980   3.087
 6535SOL     OW20170   3.761   3.172   3.144
 6535SOL    HW120171   3.814   3.123   3.212
 6535SOL    HW220172   3.783   3.270   3.149
 6536SOL     OW20173   4.031   1.925   2.480
 6536SOL    HW120174   4.020   2.019   2.513
 6536SOL    HW220175   4.026   1.862   2.557
 6537SOL     OW20176   4.074   2.760   3.666
 6537SOL    HW120177   4.150   2.804   3.714
 6537SOL    HW220178   4.109   2.713   3.584
 6538SOL     OW20179   4.043   2.672   2.811
 6538SOL    HW120180   4.136   2.708   2.816
 6538SOL    HW220181   4.037   2.587   2.863
 6539SOL     OW20182   4.063   2.371   2.868
 6539SOL    HW120183   4.011   2.288   2.851
 6539SOL    HW220184   4.140   2.376   2.804
 6540SOL     OW20185   3.732   3.188   2.062
 6540SOL    HW120186   3.639   3.209   2.031
 6540SOL    HW220187   3.742   3.089   2.075
 6541SOL     OW20188   3.812   3.663   2.789
 6541SOL    HW120189   3.770   3.577   2.762
 6541SOL    HW220190   3.906   3.666   2.755
 6542SOL     OW20191   4.228   3.430   2.772
 6542SOL    HW120192   4.294   3.504   2.781
 6542SOL    HW220193   4.272   3.351   2.730
 6543SOL     OW20194   3.764   2.406   2.976
 6543SOL    HW120195   3.849   2.373   2.935
 6543SOL    HW220196   3.777   2.421   3.074
 6544SOL     OW20197   3.913   2.382   3.584
 6544SOL    HW120198   3.972   2.342   3.514
 6544SOL    HW220199   3.855   2.453   3.543
 6545SOL     OW20200   4.539   2.434   2.187
 6545SOL    HW120201   4.546   2.345   2.141
 6545SOL    HW220202   4.445   2.468   2.179
 6546SOL     OW20203   3.976   3.426   3.606
 6546SOL    HW120204   3.946   3.483   3.682
 6546SOL    HW220205   3.969   3.329   3.632
 6547SOL     OW20206   4.197   2.362   2.053
 6547SOL    HW120207   4.258   2.442   2.057
 6547SOL    HW220208   4.102   2.393   2.060
 6548SOL     OW20209   3.883   2.999   3.328
 6548SOL    HW120210   3.905   2.938   3.404
 6548SOL    HW220211   3.893   2.950   3.242
 6549SOL     OW20212   3.807   3.120   2.884
 6549SOL    HW120213   3.802   3.119   2.984
 6549SOL    HW220214   3.724   3.079   2.846
 6550SOL     OW20215   4.412   3.524   3.578
 6550SOL    HW120216   4.356   3.605   3.587
 6550SOL    HW220217   4.464   3.528   3.492
 6551SOL     OW20218   3.854   3.656   3.713
 6551SOL    HW120219   3.813   3.582   3.766
 6551SOL    HW220220   3.918   3.707   3.771
 6552SOL     OW20221   3.987   2.188   2.582
 6552SOL    HW120222   3.908   2.239   2.548
 6552SOL    HW220223   3.978   2.173   2.680
 6553SOL     OW20224   4.096   3.150   3.352
 6553SOL    HW120225   4.083   3.243   3.318
 6553SOL    HW220226   4.012   3.098   3.339
 6554SOL     OW20227   4.314   3.349   2.353
 6554SOL    HW120228   4.356   3.291   2.283
 6554SOL    HW220229   4.270   3.428   2.309
 6555SOL     OW20230   3.979   3.210   2.152
 6555SOL    HW120231   3.883   3.211   2.125
 6555SOL    HW220232   3.991   3.263   2.236
 6556SOL     OW20233   3.829   2.875   3.588
 6556SOL    HW120234   3.752   2.842   3.642
 6556SOL    HW220235   3.914   2.845   3.630
 6557SOL     OW20236   4.396   2.065   3.351
 6557SOL    HW120237   4.486   2.049   3.311
 6557SOL    HW220238   4.404   2.070   3.450
 6558SOL     OW20239   3.799   2.207   1.895
 6558SOL    HW120240   3.707   2.179   1.866
 6558SOL    HW220241   3.830   2.284   1.839
 6559SOL     OW20242   3.796   2.028   2.180
 6559SOL    HW120243   3.779   2.111   2.126
 6559SOL    HW220244   3.886   1.991   2.158
 6560SOL     OW20245   4.337   2.704   3.293
 6560SOL    HW120246   4.393   2.785   3.276
 6560SOL    HW220247   4.396   2.624   3.296
 6561SOL     OW20248   4.440   2.427   3.570
 6561SOL    HW120249   4.459   2.492   3.644
 6561SOL    HW220250   4.500   2.347   3.579
 6562SOL     OW20251   4.114   3.603   3.422
 6562SOL    HW120252   4.023   3.644   3.420
 6562SOL    HW220253   4.107   3.509   3.454
 6563SOL     OW20254   4.318   2.607   2.514
 6563SOL    HW120255   4.368   2.692   2.495
 6563SOL    HW220256   4.230   2.609   2.466
 6564SOL     OW20257   3.945   3.176   3.706
 6564SOL    HW120258   3.880   3.103   3.685
 6564SOL    HW220259   3.949   3.190   3.804
 6565SOL     OW20260   3.803   3.102   2.515
 6565SOL    HW120261   3.802   3.055   2.603
 6565SOL    HW220262   3.885   3.074   2.464
 6566SOL     OW20263   4.396   3.253   3.486
 6566SOL    HW120264   4.318   3.203   3.524
 6566SOL    HW220265   4.393   3.348   3.517
 6567SOL     OW20266   4.152   2.286   2.382
 6567SOL    HW120267   4.182   2.214   2.320
 6567SOL    HW220268   4.113   2.246   2.465
 6568SOL     OW20269   4.041   2.409   3.142
 6568SOL    HW120270   4.079   2.350   3.214
 6568SOL    HW220271   4.081   2.383   3.054
 6569SOL     OW20272   4.536   3.448   2.549
 6569SOL    HW120273   4.568   3.458   2.455
 6569SOL    HW220274   4.457   3.386   2.551
 6570SOL     OW20275   3.763   2.939   2.162
 6570SOL    HW120276   3.862   2.928   2.153
 6570SOL    HW220277   3.723   2.853   2.194
 6571SOL     OW20278   3.954   2.490   3.837
 6571SOL    HW120279   3.861   2.488   3.874
 6571SOL    HW220280   3.955   2.451   3.745
 6572SOL     OW20281   3.949   2.137   4.720
 6572SOL    HW120282   3.984   2.120   4.812
 6572SOL    HW220283   3.861   2.092   4.708
 6573SOL     OW20284   3.743   2.230   4.371
 6573SOL    HW120285   3.661   2.273   4.410
 6573SOL    HW220286   3.715   2.157   4.308
 6574SOL     OW20287   4.293   3.137   4.889
 6574SOL    HW120288   4.200   3.130   4.852
 6574SOL    HW220289   4.304   3.226   4.933
 6575SOL     OW20290   4.574   2.660   5.547
 6575SOL    HW120291   4.570   2.736   5.612
 6575SOL    HW220292   4.596   2.696   5.456
 6576SOL     OW20293   4.409   2.874   4.389
 6576SOL    HW120294   4.478   2.858   4.459
 6576SOL    HW220295   4.336   2.931   4.427
 6577SOL     OW20296   4.410   3.023   5.527
 6577SOL    HW120297   4.470   3.102   5.541
 6577SOL    HW220298   4.324   3.054   5.486
 6578SOL     OW20299   4.059   3.297   4.785
 6578SOL    HW120300   3.981   3.266   4.732
 6578SOL    HW220301   4.117   3.355   4.728
 6579SOL     OW20302   4.162   2.254   5.223
 6579SOL    HW120303   4.244   2.198   5.232
 6579SOL    HW220304   4.081   2.196   5.227
 6580SOL     OW20305   3.955   3.575   4.207
 6580SOL    HW120306   3.989   3.652   4.261
 6580SOL    HW220307   3.999   3.575   4.117
 6581SOL     OW20308   3.954   3.296   4.262
 6581SOL    HW120309   3.928   3.392   4.262
 6581SOL    HW220310   3.883   3.242   4.307
 6582SOL     OW20311   3.964   2.953   4.610
 6582SOL    HW120312   3.978   2.869   4.662
 6582SOL    HW220313   3.909   3.017   4.665
 6583SOL     OW20314   4.344   3.648   5.163
 6583SOL    HW120315   4.252   3.631   5.198
 6583SOL    HW220316   4.372   3.740   5.189
 6584SOL     OW20317   4.330   2.826   3.847
 6584SOL    HW120318   4.337   2.910   3.793
 6584SOL    HW220319   4.376   2.839   3.935
 6585SOL     OW20320   3.846   2.505   4.287
 6585SOL    HW120321   3.801   2.417   4.304
 6585SOL    HW220322   3.845   2.559   4.371
 6586SOL     OW20323   3.751   3.458   3.841
 6586SOL    HW120324   3.732   3.362   3.862
 6586SOL    HW220325   3.718   3.516   3.916
 6587SOL     OW20326   3.837   2.599   5.321
 6587SOL    HW120327   3.925   2.586   5.366
 6587SOL    HW220328   3.824   2.696   5.299
 6588SOL     OW20329   4.337   3.227   4.450
 6588SOL    HW120330   4.288   3.140   4.459
 6588SOL    HW220331   4.314   3.270   4.363
 6589SOL     OW20332   4.533   1.866   4.226
 6589SOL    HW120333   4.573   1.957   4.217
 6589SOL    HW220334   4.433   1.874   4.232
 6590SOL     OW20335   3.921   2.838   4.988
 6590SOL    HW120336   4.010   2.793   4.974
 6590SOL    HW220337   3.848   2.773   4.969
 6591SOL     OW20338   4.041   2.113   5.525
 6591SOL    HW120339   4.112   2.184   5.531
 6591SOL    HW220340   3.953   2.152   5.553
 6592SOL     OW20341   4.322   2.591   3.994
 6592SOL    HW120342   4.346   2.660   3.926
 6592SOL    HW220343   4.244   2.624   4.048
 6593SOL     OW20344   3.800   2.673   4.513
 6593SOL    HW120345   3.899   2.661   4.522
 6593SOL    HW220346   3.776   2.768   4.534
 6594SOL     OW20347   3.854   3.683   5.295
 6594SOL    HW120348   3.844   3.668   5.394
 6594SOL    HW220349   3.768   3.719   5.259
 6595SOL     OW20350   4.274   2.058   4.609
 6595SOL    HW120351   4.269   2.053   4.709
 6595SOL    HW220352   4.276   2.154   4.580
 6596SOL     OW20353   4.075   3.663   4.577
 6596SOL    HW120354   4.125   3.577   4.583
 6596SOL    HW220355   4.140   3.740   4.574
 6597SOL     OW20356   4.045   2.805   3.966
 6597SOL    HW120357   4.127   2.844   3.924
 6597SOL    HW220358   4.018   2.723   3.917
 6598SOL     OW20359   4.185   3.128   5.451
 6598SOL    HW120360   4.135   3.129   5.365
 6598SOL    HW220361   4.122   3.110   5.527
 6599SOL     OW20362   3.926   2.147   5.222
 6599SOL    HW120363   3.846   2.207   5.209
 6599SOL    HW220364   3.916   2.098   5.308
 6600SOL     OW20365   4.188   3.605   4.047
 6600SOL    HW120366   4.221   3.644   4.133
 6600SOL    HW220367   4.264   3.598   3.982
 6601SOL     OW20368   3.973   3.647   4.965
 6601SOL    HW120369   4.030   3.582   5.015
 6601SOL    HW220370   3.957   3.614   4.872
 6602SOL     OW20371   4.106   2.562   4.204
 6602SOL    HW120372   4.151   2.472   4.201
 6602SOL    HW220373   4.012   2.551   4.237
 6603SOL     OW20374   4.338   1.984   3.841
 6603SOL    HW120375   4.436   1.962   3.848
 6603SOL    HW220376   4.307   1.967   3.748
 6604SOL     OW20377   4.527   3.264   4.648
 6604SOL    HW120378   4.617   3.278   4.606
 6604SOL    HW220379   4.456   3.266   4.577
 6605SOL     OW20380   4.263   1.926   4.236
 6605SOL    HW120381   4.182   1.927   4.294
 6605SOL    HW220382   4.266   2.009   4.181
 6606SOL     OW20383   4.021   1.897   3.895
 6606SOL    HW120384   4.070   1.981   3.874
 6606SOL    HW220385   4.083   1.832   3.940
 6607SOL     OW20386   4.800   2.545   5.188
 6607SOL    HW120387   4.720   2.484   5.191
 6607SOL    HW220388   4.881   2.492   5.164
 6608SOL     OW20389   4.183   3.014   4.465
 6608SOL    HW120390   4.112   2.987   4.530
 6608SOL    HW220391   4.157   2.986   4.372
 6609SOL     OW20392   3.802   2.418   5.110
 6609SOL    HW120393   3.894   2.417   5.069
 6609SOL    HW220394   3.796   2.492   5.177
 6610SOL     OW20395   4.285   2.084   4.871
 6610SOL    HW120396   4.323   2.000   4.908
 6610SOL    HW220397   4.197   2.103   4.915
 6611SOL     OW20398   4.212   3.247   3.898
 6611SOL    HW120399   4.125   3.232   3.945
 6611SOL    HW220400   4.195   3.273   3.803
 6612SOL     OW20401   4.251   2.118   4.052
 6612SOL    HW120402   4.278   2.059   3.977
 6612SOL    HW220403   4.251   2.213   4.021
 6613SOL     OW20404   4.134   2.675   4.975
 6613SOL    HW120405   4.220   2.687   5.025
 6613SOL    HW220406   4.092   2.588   5.002
 6614SOL     OW20407   3.788   3.426   5.055
 6614SOL    HW120408   3.742   3.508   5.021
 6614SOL    HW220409   3.886   3.445   5.064
 6615SOL     OW20410   4.091   2.962   4.225
 6615SOL    HW120411   4.084   3.045   4.169
 6615SOL    HW220412   4.095   2.882   4.165
 6616SOL     OW20413   4.290   2.399   4.589
 6616SOL    HW120414   4.302   2.465   4.515
 6616SOL    HW220415   4.336   2.433   4.672
 6617SOL     OW20416   4.078   3.372   5.053
 6617SOL    HW120417   4.057   3.328   4.966
 6617SOL    HW220418   4.175   3.398   5.056
 6618SOL     OW20419   4.126   2.613   5.322
 6618SOL    HW120420   4.194   2.668   5.275
 6618SOL    HW220421   4.166   2.525   5.349
 6619SOL     OW20422   4.228   1.912   5.464
 6619SOL    HW120423   4.186   1.855   5.394
 6619SOL    HW220424   4.162   1.981   5.496
 6620SOL     OW20425   4.297   2.732   4.753
 6620SOL    HW120426   4.341   2.821   4.744
 6620SOL    HW220427   4.234   2.732   4.830
 6621SOL     OW20428   4.031   2.075   4.955
 6621SOL    HW120429   4.008   2.112   5.045
 6621SOL    HW220430   4.001   1.980   4.949
 6622SOL     OW20431   3.761   3.172   5.006
 6622SOL    HW120432   3.814   3.123   5.074
 6622SOL    HW220433   3.783   3.270   5.011
 6623SOL     OW20434   4.031   1.925   4.342
 6623SOL    HW120435   4.020   2.019   4.375
 6623SOL    HW220436   4.026   1.862   4.419
 6624SOL     OW20437   4.074   2.760   5.528
 6624SOL    HW120438   4.150   2.804   5.576
 6624SOL    HW220439   4.109   2.713   5.446
 6625SOL     OW20440   4.043   2.672   4.673
 6625SOL    HW120441   4.136   2.708   4.678
 6625SOL    HW220442   4.037   2.587   4.725
 6626SOL     OW20443   4.063   2.371   4.730
 6626SOL    HW120444   4.011   2.288   4.713
 6626SOL    HW220445   4.140   2.376   4.666
 6627SOL     OW20446   3.732   3.188   3.924
 6627SOL    HW120447   3.639   3.209   3.893
 6627SOL    HW220448   3.742   3.089   3.937
 6628SOL     OW20449   3.812   3.663   4.651
 6628SOL    HW120450   3.770   3.577   4.624
 6628SOL    HW220451   3.906   3.666   4.617
 6629SOL     OW20452   4.228   3.430   4.634
 6629SOL    HW120453   4.294   3.504   4.643
 6629SOL    HW220454   4.272   3.351   4.592
 6630SOL     OW20455   3.764   2.406   4.838
 6630SOL    HW120456   3.849   2.373   4.797
 6630SOL    HW220457   3.777   2.421   4.936
 6631SOL     OW20458   3.913   2.382   5.446
 6631SOL    HW120459   3.972   2.342   5.376
 6631SOL    HW220460   3.855   2.453   5.405
 6632SOL     OW20461   4.539   2.434   4.049
 6632SOL    HW120462   4.546   2.345   4.003
 6632SOL    HW220463   4.445   2.468   4.041
 6633SOL     OW20464   3.976   3.426   5.468
 6633SOL    HW120465   3.946   3.483   5.544
 6633SOL    HW220466   3.969   3.329   5.494
 6634SOL     OW20467   4.197   2.362   3.915
 6634SOL    HW120468   4.258   2.442   3.919
 6634SOL    HW220469   4.102   2.393   3.922
 6635SOL     OW20470   3.883   2.999   5.190
 6635SOL    HW120471   3.905   2.938   5.266
 6635SOL    HW220472   3.893   2.950   5.104
 6636SOL     OW20473   3.807   3.120   4.746
 6636SOL    HW120474   3.802   3.119   4.846
 6636SOL    HW220475   3.724   3.079   4.708
 6637SOL     OW20476   4.412   3.524   5.440
 6637SOL    HW120477   4.356   3.605   5.449
 6637SOL    HW220478   4.464   3.528   5.354
 6638SOL     OW20479   3.854   3.656   5.575
 6638SOL    HW120480   3.813   3.582   5.628
 6638SOL    HW220481   3.918   3.707   5.633
 6639SOL     OW20482   3.987   2.188   4.444
 6639SOL    HW120483   3.908   2.239   4.410
 6639SOL    HW220484   3.978   2.173   4.542
 6640SOL     OW20485   4.096   3.150   5.214
 6640SOL    HW120486   4.083   3.243   5.180
 6640SOL    HW220487   4.012   3.098   5.201
 6641SOL     OW20488   4.314   3.349   4.215
 6641SOL    HW120489   4.356   3.291   4.145
 6641SOL    HW220490   4.270   3.428   4.171
 6642SOL     OW20491   3.979   3.210   4.014
 6642SOL    HW120492   3.883   3.211   3.987
 6642SOL    HW220493   3.991   3.263   4.098
 6643SOL     OW20494   3.829   2.875   5.450
 6643SOL    HW120495   3.752   2.842   5.504
 6643SOL    HW220496   3.914   2.845   5.492
 6644SOL     OW20497   4.396   2.065   5.213
 6644SOL    HW120498   4.486   2.049   5.173
 6644SOL    HW220499   4.404   2.070   5.312
 6645SOL     OW20500   3.799   2.207   3.757
 6645SOL    HW120501   3.707   2.179   3.728
 6645SOL    HW220502   3.830   2.284   3.701
 6646SOL     OW20503   3.796   2.028   4.042
 6646SOL    HW120504   3.779   2.111   3.988
 6646SOL    HW220505   3.886   1.991   4.020
 6647SOL     OW20506   4.337   2.704   5.155
 6647SOL    HW120507   4.393   2.785   5.138
 6647SOL    HW220508   4.396   2.624   5.158
 6648SOL     OW20509   4.440   2.427   5.432
 6648SOL    HW120510   4.459   2.492   5.506
 6648SOL    HW220511   4.500   2.347   5.441
 6649SOL     OW20512   4.114   3.603   5.284
 6649SOL    HW120513   4.023   3.644   5.282
 6649SOL    HW220514   4.107   3.509   5.316
 6650SOL     OW20515   4.318   2.607   4.376
 6650SOL    HW120516   4.368   2.692   4.357
 6650SOL    HW220517   4.230   2.609   4.328
 6651SOL     OW20518   3.945   3.176   5.568
 6651SOL    HW120519   3.880   3.103   5.547
 6651SOL    HW220520   3.949   3.190   5.666
 6652SOL     OW20521   3.803   3.102   4.377
 6652SOL    HW120522   3.802   3.055   4.465
 6652SOL    HW220523   3.885   3.074   4.326
 6653SOL     OW20524   4.396   3.253   5.348
 6653SOL    HW120525   4.318   3.203   5.386
 6653SOL    HW220526   4.393   3.348   5.379
 6654SOL     OW20527   4.152   2.286   4.244
 6654SOL    HW120528   4.182   2.214   4.182
 6654SOL    HW220529   4.113   2.246   4.327
 6655SOL     OW20530   4.041   2.409   5.004
 6655SOL    HW120531   4.079   2.350   5.076
 6655SOL    HW220532   4.081   2.383   4.916
 6656SOL     OW20533   4.536   3.448   4.411
 6656SOL    HW120534   4.568   3.458   4.317
 6656SOL    HW220535   4.457   3.386   4.413
 6657SOL     OW20536   3.763   2.939   4.024
 6657SOL    HW120537   3.862   2.928   4.015
 6657SOL    HW220538   3.723   2.853   4.056
 6658SOL     OW20539   3.954   2.490   5.699
 6658SOL    HW120540   3.861   2.488   5.736
 6658SOL    HW220541   3.955   2.451   5.607
 6659SOL     OW20542   3.949   2.137   6.582
 6659SOL    HW120543   3.984   2.120   6.674
 6659SOL    HW220544   3.861   2.092   6.570
 6660SOL     OW20545   3.743   2.230   6.233
 6660SOL    HW120546   3.661   2.273   6.272
 6660SOL    HW220547   3.715   2.157   6.170
 6661SOL     OW20548   4.293   3.137   6.751
 6661SOL    HW120549   4.200   3.130   6.714
 6661SOL    HW220550   4.304   3.226   6.795
 6662SOL     OW20551   4.574   2.660   7.409
 6662SOL    HW120552   4.570   2.736   7.474
 6662SOL    HW220553   4.596   2.696   7.318
 6663SOL     OW20554   4.409   2.874   6.251
 6663SOL    HW120555   4.478   2.858   6.321
 6663SOL    HW220556   4.336   2.931   6.289
 6664SOL     OW20557   4.410   3.023   7.389
 6664SOL    HW120558   4.470   3.102   7.403
 6664SOL    HW220559   4.324   3.054   7.348
 6665SOL     OW20560   4.059   3.297   6.647
 6665SOL    HW120561   3.981   3.266   6.594
 6665SOL    HW220562   4.117   3.355   6.590
 6666SOL     OW20563   4.162   2.254   7.085
 6666SOL    HW120564   4.244   2.198   7.094
 6666SOL    HW220565   4.081   2.196   7.089
 6667SOL     OW20566   3.955   3.575   6.069
 6667SOL    HW120567   3.989   3.652   6.123
 6667SOL    HW220568   3.999   3.575   5.979
 6668SOL     OW20569   3.954   3.296   6.124
 6668SOL    HW120570   3.928   3.392   6.124
 6668SOL    HW220571   3.883   3.242   6.169
 6669SOL     OW20572   3.964   2.953   6.472
 6669SOL    HW120573   3.978   2.869   6.524
 6669SOL    HW220574   3.909   3.017   6.527
 6670SOL     OW20575   4.344   3.648   7.025
 6670SOL    HW120576   4.252   3.631   7.060
 6670SOL    HW220577   4.372   3.740   7.051
 6671SOL     OW20578   4.330   2.826   5.709
 6671SOL    HW120579   4.337   2.910   5.655
 6671SOL    HW220580   4.376   2.839   5.797
 6672SOL     OW20581   3.846   2.505   6.149
 6672SOL    HW120582   3.801   2.417   6.166
 6672SOL    HW220583   3.845   2.559   6.233
 6673SOL     OW20584   3.751   3.458   5.703
 6673SOL    HW120585   3.732   3.362   5.724
 6673SOL    HW220586   3.718   3.516   5.778
 6674SOL     OW20587   3.837   2.599   7.183
 6674SOL    HW120588   3.925   2.586   7.228
 6674SOL    HW220589   3.824   2.696   7.161
 6675SOL     OW20590   4.337   3.227   6.312
 6675SOL    HW120591   4.288   3.140   6.321
 6675SOL    HW220592   4.314   3.270   6.225
 6676SOL     OW20593   4.533   1.866   6.088
 6676SOL    HW120594   4.573   1.957   6.079
 6676SOL    HW220595   4.433   1.874   6.094
 6677SOL     OW20596   3.921   2.838   6.850
 6677SOL    HW120597   4.010   2.793   6.836
 6677SOL    HW220598   3.848   2.773   6.831
 6678SOL     OW20599   4.041   2.113   7.387
 6678SOL    HW120600   4.112   2.184   7.393
 6678SOL    HW220601   3.953   2.152   7.415
 6679SOL     OW20602   4.322   2.591   5.856
 6679SOL    HW120603   4.346   2.660   5.788
 6679SOL    HW220604   4.244   2.624   5.910
 6680SOL     OW20605   3.800   2.673   6.375
 6680SOL    HW120606   3.899   2.661   6.384
 6680SOL    HW220607   3.776   2.768   6.396
 6681SOL     OW20608   3.854   3.683   7.157
 6681SOL    HW120609   3.844   3.668   7.256
 6681SOL    HW220610   3.768   3.719   7.121
 6682SOL     OW20611   4.274   2.058   6.471
 6682SOL    HW120612   4.269   2.053   6.571
 6682SOL    HW220613   4.276   2.154   6.442
 6683SOL     OW20614   4.075   3.663   6.439
 6683SOL    HW120615   4.125   3.577   6.445
 6683SOL    HW220616   4.140   3.740   6.436
 6684SOL     OW20617   4.045   2.805   5.828
 6684SOL    HW120618   4.127   2.844   5.786
 6684SOL    HW220619   4.018   2.723   5.779
 6685SOL     OW20620   4.185   3.128   7.313
 6685SOL    HW120621   4.135   3.129   7.227
 6685SOL    HW220622   4.122   3.110   7.389
 6686SOL     OW20623   3.926   2.147   7.084
 6686SOL    HW120624   3.846   2.207   7.071
 6686SOL    HW220625   3.916   2.098   7.170
 6687SOL     OW20626   4.188   3.605   5.909
 6687SOL    HW120627   4.221   3.644   5.995
 6687SOL    HW220628   4.264   3.598   5.844
 6688SOL     OW20629   3.973   3.647   6.827
 6688SOL    HW120630   4.030   3.582   6.877
 6688SOL    HW220631   3.957   3.614   6.734
 6689SOL     OW20632   4.106   2.562   6.066
 6689SOL    HW120633   4.151   2.472   6.063
 6689SOL    HW220634   4.012   2.551   6.099
 6690SOL     OW20635   4.338   1.984   5.703
 6690SOL    HW120636   4.436   1.962   5.710
 6690SOL    HW220637   4.307   1.967   5.610
 6691SOL     OW20638   4.527   3.264   6.510
 6691SOL    HW120639   4.617   3.278   6.468
 6691SOL    HW220640   4.456   3.266   6.439
 6692SOL     OW20641   4.263   1.926   6.098
 6692SOL    HW120642   4.182   1.927   6.156
 6692SOL    HW220643   4.266   2.009   6.043
 6693SOL     OW20644   4.021   1.897   5.757
 6693SOL    HW120645   4.070   1.981   5.736
 6693SOL    HW220646   4.083   1.832   5.802
 6694SOL     OW20647   4.800   2.545   7.050
 6694SOL    HW120648   4.720   2.484   7.053
 6694SOL    HW220649   4.881   2.492   7.026
 6695SOL     OW20650   4.183   3.014   6.327
 6695SOL    HW120651   4.112   2.987   6.392
 6695SOL    HW220652   4.157   2.986   6.234
 6696SOL     OW20653   3.802   2.418   6.972
 6696SOL    HW120654   3.894   2.417   6.931
 6696SOL    HW220655   3.796   2.492   7.039
 6697SOL     OW20656   4.285   2.084   6.733
 6697SOL    HW120657   4.323   2.000   6.770
 6697SOL    HW220658   4.197   2.103   6.777
 6698SOL     OW20659   4.212   3.247   5.760
 6698SOL    HW120660   4.125   3.232   5.807
 6698SOL    HW220661   4.195   3.273   5.665
 6699SOL     OW20662   4.251   2.118   5.914
 6699SOL    HW120663   4.278   2.059   5.839
 6699SOL    HW220664   4.251   2.213   5.883
 6700SOL     OW20665   4.134   2.675   6.837
 6700SOL    HW120666   4.220   2.687   6.887
 6700SOL    HW220667   4.092   2.588   6.864
 6701SOL     OW20668   3.788   3.426   6.917
 6701SOL    HW120669   3.742   3.508   6.883
 6701SOL    HW220670   3.886   3.445   6.926
 6702SOL     OW20671   4.091   2.962   6.087
 6702SOL    HW120672   4.084   3.045   6.031
 6702SOL    HW220673   4.095   2.882   6.027
 6703SOL     OW20674   4.290   2.399   6.451
 6703SOL    HW120675   4.302   2.465   6.377
 6703SOL    HW220676   4.336   2.433   6.534
 6704SOL     OW20677   4.078   3.372   6.915
 6704SOL    HW120678   4.057   3.328   6.828
 6704SOL    HW220679   4.175   3.398   6.918
 6705SOL     OW20680   4.126   2.613   7.184
 6705SOL    HW120681   4.194   2.668   7.137
 6705SOL    HW220682   4.166   2.525   7.211
 6706SOL     OW20683   4.228   1.912   7.326
 6706SOL    HW120684   4.186   1.855   7.256
 6706SOL    HW220685   4.162   1.981   7.358
 6707SOL     OW20686   4.297   2.732   6.615
 6707SOL    HW120687   4.341   2.821   6.606
 6707SOL    HW220688   4.234   2.732   6.692
 6708SOL     OW20689   4.031   2.075   6.817
 6708SOL    HW120690   4.008   2.112   6.907
 6708SOL    HW220691   4.001   1.980   6.811
 6709SOL     OW20692   3.761   3.172   6.868
 6709SOL    HW120693   3.814   3.123   6.936
 6709SOL    HW220694   3.783   3.270   6.873
 6710SOL     OW20695   4.031   1.925   6.204
 6710SOL    HW120696   4.020   2.019   6.237
 6710SOL    HW220697   4.026   1.862   6.281
 6711SOL     OW20698   4.074   2.760   7.390
 6711SOL    HW120699   4.150   2.804   7.438
 6711SOL    HW220700   4.109   2.713   7.308
 6712SOL     OW20701   4.043   2.672   6.535
 6712SOL    HW120702   4.136   2.708   6.540
 6712SOL    HW220703   4.037   2.587   6.587
 6713SOL     OW20704   4.063   2.371   6.592
 6713SOL    HW120705   4.011   2.288   6.575
 6713SOL    HW220706   4.140   2.376   6.528
 6714SOL     OW20707   3.732   3.188   5.786
 6714SOL    HW120708   3.639   3.209   5.755
 6714SOL    HW220709   3.742   3.089   5.799
 6715SOL     OW20710   3.812   3.663   6.513
 6715SOL    HW120711   3.770   3.577   6.486
 6715SOL    HW220712   3.906   3.666   6.479
 6716SOL     OW20713   4.228   3.430   6.496
 6716SOL    HW120714   4.294   3.504   6.505
 6716SOL    HW220715   4.272   3.351   6.454
 6717SOL     OW20716   3.764   2.406   6.700
 6717SOL    HW120717   3.849   2.373   6.659
 6717SOL    HW220718   3.777   2.421   6.798
 6718SOL     OW20719   3.913   2.382   7.308
 6718SOL    HW120720   3.972   2.342   7.238
 6718SOL    HW220721   3.855   2.453   7.267
 6719SOL     OW20722   4.539   2.434   5.911
 6719SOL    HW120723   4.546   2.345   5.865
 6719SOL    HW220724   4.445   2.468   5.903
 6720SOL     OW20725   3.976   3.426   7.330
 6720SOL    HW120726   3.946   3.483   7.406
 6720SOL    HW220727   3.969   3.329   7.356
 6721SOL     OW20728   4.197   2.362   5.777
 6721SOL    HW120729   4.258   2.442   5.781
 6721SOL    HW220730   4.102   2.393   5.784
 6722SOL     OW20731   3.883   2.999   7.052
 6722SOL    HW120732   3.905   2.938   7.128
 6722SOL    HW220733   3.893   2.950   6.966
 6723SOL     OW20734   3.807   3.120   6.608
 6723SOL    HW120735   3.802   3.119   6.708
 6723SOL    HW220736   3.724   3.079   6.570
 6724SOL     OW20737   4.412   3.524   7.302
 6724SOL    HW120738   4.356   3.605   7.311
 6724SOL    HW220739   4.464   3.528   7.216
 6725SOL     OW20740   3.854   3.656   7.437
 6725SOL    HW120741   3.813   3.582   7.490
 6725SOL    HW220742   3.918   3.707   7.495
 6726SOL     OW20743   3.987   2.188   6.306
 6726SOL    HW120744   3.908   2.239   6.272
 6726SOL    HW220745   3.978   2.173   6.404
 6727SOL     OW20746   4.096   3.150   7.076
 6727SOL    HW120747   4.083   3.243   7.042
 6727SOL    HW220748   4.012   3.098   7.063
 6728SOL     OW20749   4.314   3.349   6.077
 6728SOL    HW120750   4.356   3.291   6.007
 6728SOL    HW220751   4.270   3.428   6.033
 6729SOL     OW20752   3.979   3.210   5.876
 6729SOL    HW120753   3.883   3.211   5.849
 6729SOL    HW220754   3.991   3.263   5.960
 6730SOL     OW20755   3.829   2.875   7.312
 6730SOL    HW120756   3.752   2.842   7.366
 6730SOL    HW220757   3.914   2.845   7.354
 6731SOL     OW20758   4.396   2.065   7.075
 6731SOL    HW120759   4.486   2.049   7.035
 6731SOL    HW220760   4.404   2.070   7.174
 6732SOL     OW20761   3.799   2.207   5.619
 6732SOL    HW120762   3.707   2.179   5.590
 6732SOL    HW220763   3.830   2.284   5.563
 6733SOL     OW20764   3.796   2.028   5.904
 6733SOL    HW120765   3.779   2.111   5.850
 6733SOL    HW220766   3.886   1.991   5.882
 6734SOL     OW20767   4.337   2.704   7.017
 6734SOL    HW120768   4.393   2.785   7.000
 6734SOL    HW220769   4.396   2.624   7.020
 6735SOL     OW20770   4.440   2.427   7.294
 6735SOL    HW120771   4.459   2.492   7.368
 6735SOL    HW220772   4.500   2.347   7.303
 6736SOL     OW20773   4.114   3.603   7.146
 6736SOL    HW120774   4.023   3.644   7.144
 6736SOL    HW220775   4.107   3.509   7.178
 6737SOL     OW20776   4.318   2.607   6.238
 6737SOL    HW120777   4.368   2.692   6.219
 6737SOL    HW220778   4.230   2.609   6.190
 6738SOL     OW20779   3.945   3.176   7.430
 6738SOL    HW120780   3.880   3.103   7.409
 6738SOL    HW220781   3.949   3.190   7.528
 6739SOL     OW20782   3.803   3.102   6.239
 6739SOL    HW120783   3.802   3.055   6.327
 6739SOL    HW220784   3.885   3.074   6.188
 6740SOL     OW20785   4.396   3.253   7.210
 6740SOL    HW120786   4.318   3.203   7.248
 6740SOL    HW220787   4.393   3.348   7.241
 6741SOL     OW20788   4.152   2.286   6.106
 6741SOL    HW120789   4.182   2.214   6.044
 6741SOL    HW220790   4.113   2.246   6.189
 6742SOL     OW20791   4.041   2.409   6.866
 6742SOL    HW120792   4.079   2.350   6.938
 6742SOL    HW220793   4.081   2.383   6.778
 6743SOL     OW20794   4.536   3.448   6.273
 6743SOL    HW120795   4.568   3.458   6.179
 6743SOL    HW220796   4.457   3.386   6.275
 6744SOL     OW20797   3.763   2.939   5.886
 6744SOL    HW120798   3.862   2.928   5.877
 6744SOL    HW220799   3.723   2.853   5.918
 6745SOL     OW20800   3.954   2.490   7.561
 6745SOL    HW120801   3.861   2.488   7.598
 6745SOL    HW220802   3.955   2.451   7.469
 6746SOL     OW20803   3.949   2.137   8.444
 6746SOL    HW120804   3.984   2.120   8.536
 6746SOL    HW220805   3.861   2.092   8.432
 6747SOL     OW20806   3.743   2.230   8.095
 6747SOL    HW120807   3.661   2.273   8.134
 6747SOL    HW220808   3.715   2.157   8.032
 6748SOL     OW20809   4.293   3.137   8.613
 6748SOL    HW120810   4.200   3.130   8.576
 6748SOL    HW220811   4.304   3.226   8.657
 6749SOL     OW20812   4.574   2.660   9.271
 6749SOL    HW120813   4.570   2.736   9.336
 6749SOL    HW220814   4.596   2.696   9.180
 6750SOL     OW20815   4.409   2.874   8.113
 6750SOL    HW120816   4.478   2.858   8.183
 6750SOL    HW220817   4.336   2.931   8.151
 6751SOL     OW20818   4.410   3.023   9.251
 6751SOL    HW120819   4.470   3.102   9.265
 6751SOL    HW220820   4.324   3.054   9.210
 6752SOL     OW20821   4.059   3.297   8.509
 6752SOL    HW120822   3.981   3.266   8.456
 6752SOL    HW220823   4.117   3.355   8.452
 6753SOL     OW20824   4.162   2.254   8.947
 6753SOL    HW120825   4.244   2.198   8.956
 6753SOL    HW220826   4.081   2.196   8.951
 6754SOL     OW20827   3.955   3.575   7.931
 6754SOL    HW120828   3.989   3.652   7.985
 6754SOL    HW220829   3.999   3.575   7.841
 6755SOL     OW20830   3.954   3.296   7.986
 6755SOL    HW120831   3.928   3.392   7.986
 6755SOL    HW220832   3.883   3.242   8.031
 6756SOL     OW20833   3.964   2.953   8.334
 6756SOL    HW120834   3.978   2.869   8.386
 6756SOL    HW220835   3.909   3.017   8.389
 6757SOL     OW20836   4.344   3.648   8.887
 6757SOL    HW120837   4.252   3.631   8.922
 6757SOL    HW220838   4.372   3.740   8.913
 6758SOL     OW20839   4.330   2.826   7.571
 6758SOL    HW120840   4.337   2.910   7.517
 6758SOL    HW220841   4.376   2.839   7.659
 6759SOL     OW20842   3.846   2.505   8.011
 6759SOL    HW120843   3.801   2.417   8.028
 6759SOL    HW220844   3.845   2.559   8.095
 6760SOL     OW20845   3.751   3.458   7.565
 6760SOL    HW120846   3.732   3.362   7.586
 6760SOL    HW220847   3.718   3.516   7.640
 6761SOL     OW20848   3.837   2.599   9.045
 6761SOL    HW120849   3.925   2.586   9.090
 6761SOL    HW220850   3.824   2.696   9.023
 6762SOL     OW20851   4.337   3.227   8.174
 6762SOL    HW120852   4.288   3.140   8.183
 6762SOL    HW220853   4.314   3.270   8.087
 6763SOL     OW20854   4.533   1.866   7.950
 6763SOL    HW120855   4.573   1.957   7.941
 6763SOL    HW220856   4.433   1.874   7.956
 6764SOL     OW20857   3.921   2.838   8.712
 6764SOL    HW120858   4.010   2.793   8.698
 6764SOL    HW220859   3.848   2.773   8.693
 6765SOL     OW20860   4.041   2.113   9.249
 6765SOL    HW120861   4.112   2.184   9.255
 6765SOL    HW220862   3.953   2.152   9.277
 6766SOL     OW20863   4.322   2.591   7.718
 6766SOL    HW120864   4.346   2.660   7.650
 6766SOL    HW220865   4.244   2.624   7.772
 6767SOL     OW20866   3.800   2.673   8.237
 6767SOL    HW120867   3.899   2.661   8.246
 6767SOL    HW220868   3.776   2.768   8.258
 6768SOL     OW20869   3.854   3.683   9.019
 6768SOL    HW120870   3.844   3.668   9.118
 6768SOL    HW220871   3.768   3.719   8.983
 6769SOL     OW20872   4.274   2.058   8.333
 6769SOL    HW120873   4.269   2.053   8.433
 6769SOL    HW220874   4.276   2.154   8.304
 6770SOL     OW20875   4.075   3.663   8.301
 6770SOL    HW120876   4.125   3.577   8.307
 6770SOL    HW220877   4.140   3.740   8.298
 6771SOL     OW20878   4.045   2.805   7.690
 6771SOL    HW120879   4.127   2.844   7.648
 6771SOL    HW220880   4.018   2.723   7.641
 6772SOL     OW20881   4.185   3.128   9.175
 6772SOL    HW120882   4.135   3.129   9.089
 6772SOL    HW220883   4.122   3.110   9.251
 6773SOL     OW20884   3.926   2.147   8.946
 6773SOL    HW120885   3.846   2.207   8.933
 6773SOL    HW220886   3.916   2.098   9.032
 6774SOL     OW20887   4.188   3.605   7.771
 6774SOL    HW120888   4.221   3.644   7.857
 6774SOL    HW220889   4.264   3.598   7.706
 6775SOL     OW20890   3.973   3.647   8.689
 6775SOL    HW120891   4.030   3.582   8.739
 6775SOL    HW220892   3.957   3.614   8.596
 6776SOL     OW20893   4.106   2.562   7.928
 6776SOL    HW120894   4.151   2.472   7.925
 6776SOL    HW220895   4.012   2.551   7.961
 6777SOL     OW20896   4.338   1.984   7.565
 6777SOL    HW120897   4.436   1.962   7.572
 6777SOL    HW220898   4.307   1.967   7.472
 6778SOL     OW20899   4.527   3.264   8.372
 6778SOL    HW120900   4.617   3.278   8.330
 6778SOL    HW220901   4.456   3.266   8.301
 6779SOL     OW20902   4.263   1.926   7.960
 6779SOL    HW120903   4.182   1.927   8.018
 6779SOL    HW220904   4.266   2.009   7.905
 6780SOL     OW20905   4.021   1.897   7.619
 6780SOL    HW120906   4.070   1.981   7.598
 6780SOL    HW220907   4.083   1.832   7.664
 6781SOL     OW20908   4.800   2.545   8.912
 6781SOL    HW120909   4.720   2.484   8.915
 6781SOL    HW220910   4.881   2.492   8.888
 6782SOL     OW20911   4.183   3.014   8.189
 6782SOL    HW120912   4.112   2.987   8.254
 6782SOL    HW220913   4.157   2.986   8.096
 6783SOL     OW20914   3.802   2.418   8.834
 6783SOL    HW120915   3.894   2.417   8.793
 6783SOL    HW220916   3.796   2.492   8.901
 6784SOL     OW20917   4.285   2.084   8.595
 6784SOL    HW120918   4.323   2.000   8.632
 6784SOL    HW220919   4.197   2.103   8.639
 6785SOL     OW20920   4.212   3.247   7.622
 6785SOL    HW120921   4.125   3.232   7.669
 6785SOL    HW220922   4.195   3.273   7.527
 6786SOL     OW20923   4.251   2.118   7.776
 6786SOL    HW120924   4.278   2.059   7.701
 6786SOL    HW220925   4.251   2.213   7.745
 6787SOL     OW20926   4.134   2.675   8.699
 6787SOL    HW120927   4.220   2.687   8.749
 6787SOL    HW220928   4.092   2.588   8.726
 6788SOL     OW20929   3.788   3.426   8.779
 6788SOL    HW120930   3.742   3.508   8.745
 6788SOL    HW220931   3.886   3.445   8.788
 6789SOL     OW20932   4.091   2.962   7.949
 6789SOL    HW120933   4.084   3.045   7.893
 6789SOL    HW220934   4.095   2.882   7.889
 6790SOL     OW20935   4.290   2.399   8.313
 6790SOL    HW120936   4.302   2.465   8.239
 6790SOL    HW220937   4.336   2.433   8.396
 6791SOL     OW20938   4.078   3.372   8.777
 6791SOL    HW120939   4.057   3.328   8.690
 6791SOL    HW220940   4.175   3.398   8.780
 6792SOL     OW20941   4.126   2.613   9.046
 6792SOL    HW120942   4.194   2.668   8.999
 6792SOL    HW220943   4.166   2.525   9.073
 6793SOL     OW20944   4.228   1.912   9.188
 6793SOL    HW120945   4.186   1.855   9.118
 6793SOL    HW220946   4.162   1.981   9.220
 6794SOL     OW20947   4.297   2.732   8.477
 6794SOL    HW120948   4.341   2.821   8.468
 6794SOL    HW220949   4.234   2.732   8.554
 6795SOL     OW20950   4.031   2.075   8.679
 6795SOL    HW120951   4.008   2.112   8.769
 6795SOL    HW220952   4.001   1.980   8.673
 6796SOL     OW20953   3.761   3.172   8.730
 6796SOL    HW120954   3.814   3.123   8.798
 6796SOL    HW220955   3.783   3.270   8.735
 6797SOL     OW20956   4.031   1.925   8.066
 6797SOL    HW120957   4.020   2.019   8.099
 6797SOL    HW220958   4.026   1.862   8.143
 6798SOL     OW20959   4.074   2.760   9.252
 6798SOL    HW120960   4.150   2.804   9.300
 6798SOL    HW220961   4.109   2.713   9.170
 6799SOL     OW20962   4.043   2.672   8.397
 6799SOL    HW120963   4.136   2.708   8.402
 6799SOL    HW220964   4.037   2.587   8.449
 6800SOL     OW20965   4.063   2.371   8.454
 6800SOL    HW120966   4.011   2.288   8.437
 6800SOL    HW220967   4.140   2.376   8.390
 6801SOL     OW20968   3.732   3.188   7.648
 6801SOL    HW120969   3.639   3.209   7.617
 6801SOL    HW220970   3.742   3.089   7.661
 6802SOL     OW20971   3.812   3.663   8.375
 6802SOL    HW120972   3.770   3.577   8.348
 6802SOL    HW220973   3.906   3.666   8.341
 6803SOL     OW20974   4.228   3.430   8.358
 6803SOL    HW120975   4.294   3.504   8.367
 6803SOL    HW220976   4.272   3.351   8.316
 6804SOL     OW20977   3.764   2.406   8.562
 6804SOL    HW120978   3.849   2.373   8.521
 6804SOL    HW220979   3.777   2.421   8.660
 6805SOL     OW20980   3.913   2.382   9.170
 6805SOL    HW120981   3.972   2.342   9.100
 6805SOL    HW220982   3.855   2.453   9.129
 6806SOL     OW20983   4.539   2.434   7.773
 6806SOL    HW120984   4.546   2.345   7.727
 6806SOL    HW220985   4.445   2.468   7.765
 6807SOL     OW20986   3.976   3.426   9.192
 6807SOL    HW120987   3.946   3.483   9.268
 6807SOL    HW220988   3.969   3.329   9.218
 6808SOL     OW20989   4.197   2.362   7.639
 6808SOL    HW120990   4.258   2.442   7.643
 6808SOL    HW220991   4.102   2.393   7.646
 6809SOL     OW20992   3.883   2.999   8.914
 6809SOL    HW120993   3.905   2.938   8.990
 6809SOL    HW220994   3.893   2.950   8.828
 6810SOL     OW20995   3.807   3.120   8.470
 6810SOL    HW120996   3.802   3.119   8.570
 6810SOL    HW220997   3.724   3.079   8.432
 6811SOL     OW20998   4.412   3.524   9.164
 6811SOL    HW120999   4.356   3.605   9.173
 6811SOL    HW221000   4.464   3.528   9.078
 6812SOL     OW21001   3.854   3.656   9.299
 6812SOL    HW121002   3.813   3.582   9.352
 6812SOL    HW221003   3.918   3.707   9.357
 6813SOL     OW21004   3.987   2.188   8.168
 6813SOL    HW121005   3.908   2.239   8.134
 6813SOL    HW221006   3.978   2.173   8.266
 6814SOL     OW21007   4.096   3.150   8.938
 6814SOL    HW121008   4.083   3.243   8.904
 6814SOL    HW221009   4.012   3.098   8.925
 6815SOL     OW21010   4.314   3.349   7.939
 6815SOL    HW121011   4.356   3.291   7.869
 6815SOL    HW221012   4.270   3.428   7.895
 6816SOL     OW21013   3.979   3.210   7.738
 6816SOL    HW121014   3.883   3.211   7.711
 6816SOL    HW221015   3.991   3.263   7.822
 6817SOL     OW21016   3.829   2.875   9.174
 6817SOL    HW121017   3.752   2.842   9.228
 6817SOL    HW221018   3.914   2.845   9.216
 6818SOL     OW21019   4.396   2.065   8.937
 6818SOL    HW121020   4.486   2.049   8.897
 6818SOL    HW221021   4.404   2.070   9.036
 6819SOL     OW21022   3.799   2.207   7.481
 6819SOL    HW121023   3.707   2.179   7.452
 6819SOL    HW221024   3.830   2.284   7.425
 6820SOL     OW21025   3.796   2.028   7.766
 6820SOL    HW121026   3.779   2.111   7.712
 6820SOL    HW221027   3.886   1.991   7.744
 6821SOL     OW21028   4.337   2.704   8.879
 6821SOL    HW121029   4.393   2.785   8.862
 6821SOL    HW221030   4.396   2.624   8.882
 6822SOL     OW21031   4.440   2.427   9.156
 6822SOL    HW121032   4.459   2.492   9.230
 6822SOL    HW221033   4.500   2.347   9.165
 6823SOL     OW21034   4.114   3.603   9.008
 6823SOL    HW121035   4.023   3.644   9.006
 6823SOL    HW221036   4.107   3.509   9.040
 6824SOL     OW21037   4.318   2.607   8.100
 6824SOL    HW121038   4.368   2.692   8.081
 6824SOL    HW221039   4.230   2.609   8.052
 6825SOL     OW21040   3.945   3.176   9.292
 6825SOL    HW121041   3.880   3.103   9.271
 6825SOL    HW221042   3.949   3.190   9.390
 6826SOL     OW21043   3.803   3.102   8.101
 6826SOL    HW121044   3.802   3.055   8.189
 6826SOL    HW221045   3.885   3.074   8.050
 6827SOL     OW21046   4.396   3.253   9.072
 6827SOL    HW121047   4.318   3.203   9.110
 6827SOL    HW221048   4.393   3.348   9.103
 6828SOL     OW21049   4.152   2.286   7.968
 6828SOL    HW121050   4.182   2.214   7.906
 6828SOL    HW221051   4.113   2.246   8.051
 6829SOL     OW21052   4.041   2.409   8.728
 6829SOL    HW121053   4.079   2.350   8.800
 6829SOL    HW221054   4.081   2.383   8.640
 6830SOL     OW21055   4.536   3.448   8.135
 6830SOL    HW121056   4.568   3.458   8.041
 6830SOL    HW221057   4.457   3.386   8.137
 6831SOL     OW21058   3.763   2.939   7.748
 6831SOL    HW121059   3.862   2.928   7.739
 6831SOL    HW221060   3.723   2.853   7.780
 6832SOL     OW21061   3.954   2.490   9.423
 6832SOL    HW121062   3.861   2.488   9.460
 6832SOL    HW221063   3.955   2.451   9.331
 6833SOL     OW21064   3.949   2.137  10.306
 6833SOL    HW121065   3.984   2.120  10.398
 6833SOL    HW221066   3.861   2.092  10.294
 6834SOL     OW21067   3.743   2.230   9.957
 6834SOL    HW121068   3.661   2.273   9.996
 6834SOL    HW221069   3.715   2.157   9.894
 6835SOL     OW21070   4.293   3.137  10.475
 6835SOL    HW121071   4.200   3.130  10.438
 6835SOL    HW221072   4.304   3.226  10.519
 6836SOL     OW21073   4.574   2.660  11.133
 6836SOL    HW121074   4.570   2.736  11.198
 6836SOL    HW221075   4.596   2.696  11.042
 6837SOL     OW21076   4.409   2.874   9.975
 6837SOL    HW121077   4.478   2.858  10.045
 6837SOL    HW221078   4.336   2.931  10.013
 6838SOL     OW21079   4.059   3.297  10.371
 6838SOL    HW121080   3.981   3.266  10.318
 6838SOL    HW221081   4.117   3.355  10.314
 6839SOL     OW21082   4.162   2.254  10.809
 6839SOL    HW121083   4.244   2.198  10.818
 6839SOL    HW221084   4.081   2.196  10.813
 6840SOL     OW21085   3.955   3.575   9.793
 6840SOL    HW121086   3.989   3.652   9.847
 6840SOL    HW221087   3.999   3.575   9.703
 6841SOL     OW21088   3.954   3.296   9.848
 6841SOL    HW121089   3.928   3.392   9.848
 6841SOL    HW221090   3.883   3.242   9.893
 6842SOL     OW21091   3.964   2.953  10.196
 6842SOL    HW121092   3.978   2.869  10.248
 6842SOL    HW221093   3.909   3.017  10.251
 6843SOL     OW21094   4.344   3.648  10.749
 6843SOL    HW121095   4.252   3.631  10.784
 6843SOL    HW221096   4.372   3.740  10.775
 6844SOL     OW21097   4.330   2.826   9.433
 6844SOL    HW121098   4.337   2.910   9.379
 6844SOL    HW221099   4.376   2.839   9.521
 6845SOL     OW21100   3.846   2.505   9.873
 6845SOL    HW121101   3.801   2.417   9.890
 6845SOL    HW221102   3.845   2.559   9.957
 6846SOL     OW21103   3.751   3.458   9.427
 6846SOL    HW121104   3.732   3.362   9.448
 6846SOL    HW221105   3.718   3.516   9.502
 6847SOL     OW21106   3.837   2.599  10.907
 6847SOL    HW121107   3.925   2.586  10.952
 6847SOL    HW221108   3.824   2.696  10.885
 6848SOL     OW21109   4.337   3.227  10.036
 6848SOL    HW121110   4.288   3.140  10.045
 6848SOL    HW221111   4.314   3.270   9.949
 6849SOL     OW21112   4.533   1.866   9.812
 6849SOL    HW121113   4.573   1.957   9.803
 6849SOL    HW221114   4.433   1.874   9.818
 6850SOL     OW21115   3.921   2.838  10.574
 6850SOL    HW121116   4.010   2.793  10.560
 6850SOL    HW221117   3.848   2.773  10.555
 6851SOL     OW21118   4.041   2.113  11.111
 6851SOL    HW121119   4.112   2.184  11.117
 6851SOL    HW221120   3.953   2.152  11.139
 6852SOL     OW21121   4.322   2.591   9.580
 6852SOL    HW121122   4.346   2.660   9.512
 6852SOL    HW221123   4.244   2.624   9.634
 6853SOL     OW21124   3.800   2.673  10.099
 6853SOL    HW121125   3.899   2.661  10.108
 6853SOL    HW221126   3.776   2.768  10.120
 6854SOL     OW21127   3.854   3.683  10.881
 6854SOL    HW121128   3.844   3.668  10.980
 6854SOL    HW221129   3.768   3.719  10.845
 6855SOL     OW21130   4.274   2.058  10.195
 6855SOL    HW121131   4.269   2.053  10.295
 6855SOL    HW221132   4.276   2.154  10.166
 6856SOL     OW21133   4.075   3.663  10.163
 6856SOL    HW121134   4.125   3.577  10.169
 6856SOL    HW221135   4.140   3.740  10.160
 6857SOL     OW21136   4.045   2.805   9.552
 6857SOL    HW121137   4.127   2.844   9.510
 6857SOL    HW221138   4.018   2.723   9.503
 6858SOL     OW21139   4.185   3.128  11.037
 6858SOL    HW121140   4.135   3.129  10.951
 6858SOL    HW221141   4.122   3.110  11.113
 6859SOL     OW21142   3.926   2.147  10.808
 6859SOL    HW121143   3.846   2.207  10.795
 6859SOL    HW221144   3.916   2.098  10.894
 6860SOL     OW21145   4.188   3.605   9.633
 6860SOL    HW121146   4.221   3.644   9.719
 6860SOL    HW221147   4.264   3.598   9.568
 6861SOL     OW21148   3.973   3.647  10.551
 6861SOL    HW121149   4.030   3.582  10.601
 6861SOL    HW221150   3.957   3.614  10.458
 6862SOL     OW21151   4.106   2.562   9.790
 6862SOL    HW121152   4.151   2.472   9.787
 6862SOL    HW221153   4.012   2.551   9.823
 6863SOL     OW21154   4.338   1.984   9.427
 6863SOL    HW121155   4.436   1.962   9.434
 6863SOL    HW221156   4.307   1.967   9.334
 6864SOL     OW21157   4.527   3.264  10.234
 6864SOL    HW121158   4.617   3.278  10.192
 6864SOL    HW221159   4.456   3.266  10.163
 6865SOL     OW21160   4.263   1.926   9.822
 6865SOL    HW121161   4.182   1.927   9.880
 6865SOL    HW221162   4.266   2.009   9.767
 6866SOL     OW21163   4.021   1.897   9.481
 6866SOL    HW121164   4.070   1.981   9.460
 6866SOL    HW221165   4.083   1.832   9.526
 6867SOL     OW21166   4.800   2.545  10.774
 6867SOL    HW121167   4.720   2.484  10.777
 6867SOL    HW221168   4.881   2.492  10.750
 6868SOL     OW21169   4.183   3.014  10.051
 6868SOL    HW121170   4.112   2.987  10.116
 6868SOL    HW221171   4.157   2.986   9.958
 6869SOL     OW21172   3.802   2.418  10.696
 6869SOL    HW121173   3.894   2.417  10.655
 6869SOL    HW221174   3.796   2.492  10.763
 6870SOL     OW21175   4.285   2.084  10.457
 6870SOL    HW121176   4.323   2.000  10.494
 6870SOL    HW221177   4.197   2.103  10.501
 6871SOL     OW21178   4.212   3.247   9.484
 6871SOL    HW121179   4.125   3.232   9.531
 6871SOL    HW221180   4.195   3.273   9.389
 6872SOL     OW21181   4.251   2.118   9.638
 6872SOL    HW121182   4.278   2.059   9.563
 6872SOL    HW221183   4.251   2.213   9.607
 6873SOL     OW21184   4.134   2.675  10.561
 6873SOL    HW121185   4.220   2.687  10.611
 6873SOL    HW221186   4.092   2.588  10.588
 6874SOL     OW21187   3.788   3.426  10.641
 6874SOL    HW121188   3.742   3.508  10.607
 6874SOL    HW221189   3.886   3.445  10.650
 6875SOL     OW21190   4.091   2.962   9.811
 6875SOL    HW121191   4.084   3.045   9.755
 6875SOL    HW221192   4.095   2.882   9.751
 6876SOL     OW21193   4.290   2.399  10.175
 6876SOL    HW121194   4.302   2.465  10.101
 6876SOL    HW221195   4.336   2.433  10.258
 6877SOL     OW21196   4.078   3.372  10.639
 6877SOL    HW121197   4.057   3.328  10.552
 6877SOL    HW221198   4.175   3.398  10.642
 6878SOL     OW21199   4.126   2.613  10.908
 6878SOL    HW121200   4.194   2.668  10.861
 6878SOL    HW221201   4.166   2.525  10.935
 6879SOL     OW21202   4.297   2.732  10.339
 6879SOL    HW121203   4.341   2.821  10.330
 6879SOL    HW221204   4.234   2.732  10.416
 6880SOL     OW21205   4.031   2.075  10.541
 6880SOL    HW121206   4.008   2.112  10.631
 6880SOL    HW221207   4.001   1.980  10.535
 6881SOL     OW21208   3.761   3.172  10.592
 6881SOL    HW121209   3.814   3.123  10.660
 6881SOL    HW221210   3.783   3.270  10.597
 6882SOL     OW21211   4.031   1.925   9.928
 6882SOL    HW121212   4.020   2.019   9.961
 6882SOL    HW221213   4.026   1.862  10.005
 6883SOL     OW21214   4.074   2.760  11.114
 6883SOL    HW121215   4.150   2.804  11.162
 6883SOL    HW221216   4.109   2.713  11.032
 6884SOL     OW21217   4.043   2.672  10.259
 6884SOL    HW121218   4.136   2.708  10.264
 6884SOL    HW221219   4.037   2.587  10.311
 6885SOL     OW21220   4.063   2.371  10.316
 6885SOL    HW121221   4.011   2.288  10.299
 6885SOL    HW221222   4.140   2.376  10.252
 6886SOL     OW21223   3.732   3.188   9.510
 6886SOL    HW121224   3.639   3.209   9.479
 6886SOL    HW221225   3.742   3.089   9.523
 6887SOL     OW21226   3.812   3.663  10.237
 6887SOL    HW121227   3.770   3.577  10.210
 6887SOL    HW221228   3.906   3.666  10.203
 6888SOL     OW21229   4.228   3.430  10.220
 6888SOL    HW121230   4.294   3.504  10.229
 6888SOL    HW221231   4.272   3.351  10.178
 6889SOL     OW21232   3.764   2.406  10.424
 6889SOL    HW121233   3.849   2.373  10.383
 6889SOL    HW221234   3.777   2.421  10.522
 6890SOL     OW21235   4.539   2.434   9.635
 6890SOL    HW121236   4.546   2.345   9.589
 6890SOL    HW221237   4.445   2.468   9.627
 6891SOL     OW21238   3.976   3.426  11.054
 6891SOL    HW121239   3.946   3.483  11.130
 6891SOL    HW221240   3.969   3.329  11.080
 6892SOL     OW21241   4.197   2.362   9.501
 6892SOL    HW121242   4.258   2.442   9.505
 6892SOL    HW221243   4.102   2.393   9.508
 6893SOL     OW21244   3.883   2.999  10.776
 6893SOL    HW121245   3.905   2.938  10.852
 6893SOL    HW221246   3.893   2.950  10.690
 6894SOL     OW21247   3.807   3.120  10.332
 6894SOL    HW121248   3.802   3.119  10.432
 6894SOL    HW221249   3.724   3.079  10.294
 6895SOL     OW21250   4.412   3.524  11.026
 6895SOL    HW121251   4.356   3.605  11.035
 6895SOL    HW221252   4.464   3.528  10.940
 6896SOL     OW21253   3.987   2.188  10.030
 6896SOL    HW121254   3.908   2.239   9.996
 6896SOL    HW221255   3.978   2.173  10.128
 6897SOL     OW21256   4.096   3.150  10.800
 6897SOL    HW121257   4.083   3.243  10.766
 6897SOL    HW221258   4.012   3.098  10.787
 6898SOL     OW21259   4.314   3.349   9.801
 6898SOL    HW121260   4.356   3.291   9.731
 6898SOL    HW221261   4.270   3.428   9.757
 6899SOL     OW21262   3.979   3.210   9.600
 6899SOL    HW121263   3.883   3.211   9.573
 6899SOL    HW221264   3.991   3.263   9.684
 6900SOL     OW21265   3.829   2.875  11.036
 6900SOL    HW121266   3.752   2.842  11.090
 6900SOL    HW221267   3.914   2.845  11.078
 6901SOL     OW21268   4.396   2.065  10.799
 6901SOL    HW121269   4.486   2.049  10.759
 6901SOL    HW221270   4.404   2.070  10.898
 6902SOL     OW21271   3.799   2.207   9.343
 6902SOL    HW121272   3.707   2.179   9.314
 6902SOL    HW221273   3.830   2.284   9.287
 6903SOL     OW21274   3.796   2.028   9.628
 6903SOL    HW121275   3.779   2.111   9.574
 6903SOL    HW221276   3.886   1.991   9.606
 6904SOL     OW21277   4.337   2.704  10.741
 6904SOL    HW121278   4.393   2.785  10.724
 6904SOL    HW221279   4.396   2.624  10.744
 6905SOL     OW21280   4.114   3.603  10.870
 6905SOL    HW121281   4.023   3.644  10.868
 6905SOL    HW221282   4.107   3.509  10.902
 6906SOL     OW21283   4.318   2.607   9.962
 6906SOL    HW121284   4.368   2.692   9.943
 6906SOL    HW221285   4.230   2.609   9.914
 6907SOL     OW21286   3.803   3.102   9.963
 6907SOL    HW121287   3.802   3.055  10.051
 6907SOL    HW221288   3.885   3.074   9.912
 6908SOL     OW21289   4.396   3.253  10.934
 6908SOL    HW121290   4.318   3.203  10.972
 6908SOL    HW221291   4.393   3.348  10.965
 6909SOL     OW21292   4.152   2.286   9.830
 6909SOL    HW121293   4.182   2.214   9.768
 6909SOL    HW221294   4.113   2.246   9.913
 6910SOL     OW21295   4.041   2.409  10.590
 6910SOL    HW121296   4.079   2.350  10.662
 6910SOL    HW221297   4.081   2.383  10.502
 6911SOL     OW21298   4.536   3.448   9.997
 6911SOL    HW121299   4.568   3.458   9.903
 6911SOL    HW221300   4.457   3.386   9.999
 6912SOL     OW21301   3.763   2.939   9.610
 6912SOL    HW121302   3.862   2.928   9.601
 6912SOL    HW221303   3.723   2.853   9.642
 6913SOL     OW21304   3.954   4.352   0.113
 6913SOL    HW121305   3.861   4.350   0.150
 6913SOL    HW221306   3.955   4.313   0.021
 6914SOL     OW21307   3.949   3.999   0.996
 6914SOL    HW121308   3.984   3.982   1.088
 6914SOL    HW221309   3.861   3.954   0.984
 6915SOL     OW21310   3.743   4.092   0.647
 6915SOL    HW121311   3.661   4.135   0.686
 6915SOL    HW221312   3.715   4.019   0.584
 6916SOL     OW21313   4.574   4.522   1.823
 6916SOL    HW121314   4.570   4.598   1.888
 6916SOL    HW221315   4.596   4.558   1.732
 6917SOL     OW21316   4.162   4.116   1.499
 6917SOL    HW121317   4.244   4.060   1.508
 6917SOL    HW221318   4.081   4.058   1.503
 6918SOL     OW21319   3.846   4.367   0.563
 6918SOL    HW121320   3.801   4.279   0.580
 6918SOL    HW221321   3.845   4.421   0.647
 6919SOL     OW21322   3.837   4.461   1.597
 6919SOL    HW121323   3.925   4.448   1.642
 6919SOL    HW221324   3.824   4.558   1.575
 6920SOL     OW21325   4.533   3.728   0.502
 6920SOL    HW121326   4.573   3.819   0.493
 6920SOL    HW221327   4.433   3.736   0.508
 6921SOL     OW21328   4.041   3.975   1.801
 6921SOL    HW121329   4.112   4.046   1.807
 6921SOL    HW221330   3.953   4.014   1.829
 6922SOL     OW21331   4.274   3.920   0.885
 6922SOL    HW121332   4.269   3.915   0.985
 6922SOL    HW221333   4.276   4.016   0.856
 6923SOL     OW21334   3.926   4.009   1.498
 6923SOL    HW121335   3.846   4.069   1.485
 6923SOL    HW221336   3.916   3.960   1.584
 6924SOL     OW21337   4.106   4.424   0.480
 6924SOL    HW121338   4.151   4.334   0.477
 6924SOL    HW221339   4.012   4.413   0.513
 6925SOL     OW21340   4.338   3.846   0.117
 6925SOL    HW121341   4.436   3.824   0.124
 6925SOL    HW221342   4.307   3.829   0.024
 6926SOL     OW21343   4.263   3.788   0.512
 6926SOL    HW121344   4.182   3.789   0.570
 6926SOL    HW221345   4.266   3.871   0.457
 6927SOL     OW21346   4.021   3.759   0.171
 6927SOL    HW121347   4.070   3.843   0.150
 6927SOL    HW221348   4.083   3.694   0.216
 6928SOL     OW21349   4.800   4.407   1.464
 6928SOL    HW121350   4.720   4.346   1.467
 6928SOL    HW221351   4.881   4.354   1.440
 6929SOL     OW21352   3.802   4.280   1.386
 6929SOL    HW121353   3.894   4.279   1.345
 6929SOL    HW221354   3.796   4.354   1.453
 6930SOL     OW21355   4.285   3.946   1.147
 6930SOL    HW121356   4.323   3.862   1.184
 6930SOL    HW221357   4.197   3.965   1.191
 6931SOL     OW21358   4.251   3.980   0.328
 6931SOL    HW121359   4.278   3.921   0.253
 6931SOL    HW221360   4.251   4.075   0.297
 6932SOL     OW21361   4.134   4.537   1.251
 6932SOL    HW121362   4.220   4.549   1.301
 6932SOL    HW221363   4.092   4.450   1.278
 6933SOL     OW21364   4.290   4.261   0.865
 6933SOL    HW121365   4.302   4.327   0.791
 6933SOL    HW221366   4.336   4.295   0.948
 6934SOL     OW21367   4.228   3.774   1.740
 6934SOL    HW121368   4.186   3.717   1.670
 6934SOL    HW221369   4.162   3.843   1.772
 6935SOL     OW21370   4.031   3.937   1.231
 6935SOL    HW121371   4.008   3.974   1.321
 6935SOL    HW221372   4.001   3.842   1.225
 6936SOL     OW21373   4.031   3.787   0.618
 6936SOL    HW121374   4.020   3.881   0.651
 6936SOL    HW221375   4.026   3.724   0.695
 6937SOL     OW21376   4.043   4.534   0.949
 6937SOL    HW121377   4.136   4.570   0.954
 6937SOL    HW221378   4.037   4.449   1.001
 6938SOL     OW21379   4.063   4.233   1.006
 6938SOL    HW121380   4.011   4.150   0.989
 6938SOL    HW221381   4.140   4.238   0.942
 6939SOL     OW21382   3.764   4.268   1.114
 6939SOL    HW121383   3.849   4.235   1.073
 6939SOL    HW221384   3.777   4.283   1.212
 6940SOL     OW21385   3.913   4.244   1.722
 6940SOL    HW121386   3.972   4.204   1.652
 6940SOL    HW221387   3.855   4.315   1.681
 6941SOL     OW21388   4.539   4.296   0.325
 6941SOL    HW121389   4.546   4.207   0.279
 6941SOL    HW221390   4.445   4.330   0.317
 6942SOL     OW21391   4.197   4.224   0.191
 6942SOL    HW121392   4.258   4.304   0.195
 6942SOL    HW221393   4.102   4.255   0.198
 6943SOL     OW21394   3.987   4.050   0.720
 6943SOL    HW121395   3.908   4.101   0.686
 6943SOL    HW221396   3.978   4.035   0.818
 6944SOL     OW21397   4.396   3.927   1.489
 6944SOL    HW121398   4.486   3.911   1.449
 6944SOL    HW221399   4.404   3.932   1.588
 6945SOL     OW21400   3.799   4.069   0.033
 6945SOL    HW121401   3.707   4.041   0.004
 6945SOL    HW221402   3.830   4.146  -0.023
 6946SOL     OW21403   3.796   3.890   0.318
 6946SOL    HW121404   3.779   3.973   0.264
 6946SOL    HW221405   3.886   3.853   0.296
 6947SOL     OW21406   4.440   4.289   1.708
 6947SOL    HW121407   4.459   4.354   1.782
 6947SOL    HW221408   4.500   4.209   1.717
 6948SOL     OW21409   4.152   4.148   0.520
 6948SOL    HW121410   4.182   4.076   0.458
 6948SOL    HW221411   4.113   4.108   0.603
 6949SOL     OW21412   4.041   4.271   1.280
 6949SOL    HW121413   4.079   4.212   1.352
 6949SOL    HW221414   4.081   4.245   1.192
 6950SOL     OW21415   3.954   4.352   1.975
 6950SOL    HW121416   3.861   4.350   2.012
 6950SOL    HW221417   3.955   4.313   1.883
 6951SOL     OW21418   3.949   3.999   2.858
 6951SOL    HW121419   3.984   3.982   2.950
 6951SOL    HW221420   3.861   3.954   2.846
 6952SOL     OW21421   3.743   4.092   2.509
 6952SOL    HW121422   3.661   4.135   2.548
 6952SOL    HW221423   3.715   4.019   2.446
 6953SOL     OW21424   4.574   4.522   3.685
 6953SOL    HW121425   4.570   4.598   3.750
 6953SOL    HW221426   4.596   4.558   3.594
 6954SOL     OW21427   4.162   4.116   3.361
 6954SOL    HW121428   4.244   4.060   3.370
 6954SOL    HW221429   4.081   4.058   3.365
 6955SOL     OW21430   3.846   4.367   2.425
 6955SOL    HW121431   3.801   4.279   2.442
 6955SOL    HW221432   3.845   4.421   2.509
 6956SOL     OW21433   3.837   4.461   3.459
 6956SOL    HW121434   3.925   4.448   3.504
 6956SOL    HW221435   3.824   4.558   3.437
 6957SOL     OW21436   4.533   3.728   2.364
 6957SOL    HW121437   4.573   3.819   2.355
 6957SOL    HW221438   4.433   3.736   2.370
 6958SOL     OW21439   4.041   3.975   3.663
 6958SOL    HW121440   4.112   4.046   3.669
 6958SOL    HW221441   3.953   4.014   3.691
 6959SOL     OW21442   4.274   3.920   2.747
 6959SOL    HW121443   4.269   3.915   2.847
 6959SOL    HW221444   4.276   4.016   2.718
 6960SOL     OW21445   3.926   4.009   3.360
 6960SOL    HW121446   3.846   4.069   3.347
 6960SOL    HW221447   3.916   3.960   3.446
 6961SOL     OW21448   4.106   4.424   2.342
 6961SOL    HW121449   4.151   4.334   2.339
 6961SOL    HW221450   4.012   4.413   2.375
 6962SOL     OW21451   4.338   3.846   1.979
 6962SOL    HW121452   4.436   3.824   1.986
 6962SOL    HW221453   4.307   3.829   1.886
 6963SOL     OW21454   4.263   3.788   2.374
 6963SOL    HW121455   4.182   3.789   2.432
 6963SOL    HW221456   4.266   3.871   2.319
 6964SOL     OW21457   4.021   3.759   2.033
 6964SOL    HW121458   4.070   3.843   2.012
 6964SOL    HW221459   4.083   3.694   2.078
 6965SOL     OW21460   4.800   4.407   3.326
 6965SOL    HW121461   4.720   4.346   3.329
 6965SOL    HW221462   4.881   4.354   3.302
 6966SOL     OW21463   3.802   4.280   3.248
 6966SOL    HW121464   3.894   4.279   3.207
 6966SOL    HW221465   3.796   4.354   3.315
 6967SOL     OW21466   4.285   3.946   3.009
 6967SOL    HW121467   4.323   3.862   3.046
 6967SOL    HW221468   4.197   3.965   3.053
 6968SOL     OW21469   4.251   3.980   2.190
 6968SOL    HW121470   4.278   3.921   2.115
 6968SOL    HW221471   4.251   4.075   2.159
 6969SOL     OW21472   4.134   4.537   3.113
 6969SOL    HW121473   4.220   4.549   3.163
 6969SOL    HW221474   4.092   4.450   3.140
 6970SOL     OW21475   4.290   4.261   2.727
 6970SOL    HW121476   4.302   4.327   2.653
 6970SOL    HW221477   4.336   4.295   2.810
 6971SOL     OW21478   4.228   3.774   3.602
 6971SOL    HW121479   4.186   3.717   3.532
 6971SOL    HW221480   4.162   3.843   3.634
 6972SOL     OW21481   4.031   3.937   3.093
 6972SOL    HW121482   4.008   3.974   3.183
 6972SOL    HW221483   4.001   3.842   3.087
 6973SOL     OW21484   4.031   3.787   2.480
 6973SOL    HW121485   4.020   3.881   2.513
 6973SOL    HW221486   4.026   3.724   2.557
 6974SOL     OW21487   4.043   4.534   2.811
 6974SOL    HW121488   4.136   4.570   2.816
 6974SOL    HW221489   4.037   4.449   2.863
 6975SOL     OW21490   4.063   4.233   2.868
 6975SOL    HW121491   4.011   4.150   2.851
 6975SOL    HW221492   4.140   4.238   2.804
 6976SOL     OW21493   3.764   4.268   2.976
 6976SOL    HW121494   3.849   4.235   2.935
 6976SOL    HW221495   3.777   4.283   3.074
 6977SOL     OW21496   3.913   4.244   3.584
 6977SOL    HW121497   3.972   4.204   3.514
 6977SOL    HW221498   3.855   4.315   3.543
 6978SOL     OW21499   4.539   4.296   2.187
 6978SOL    HW121500   4.546   4.207   2.141
 6978SOL    HW221501   4.445   4.330   2.179
 6979SOL     OW21502   4.197   4.224   2.053
 6979SOL    HW121503   4.258   4.304   2.057
 6979SOL    HW221504   4.102   4.255   2.060
 6980SOL     OW21505   3.987   4.050   2.582
 6980SOL    HW121506   3.908   4.101   2.548
 6980SOL    HW221507   3.978   4.035   2.680
 6981SOL     OW21508   4.396   3.927   3.351
 6981SOL    HW121509   4.486   3.911   3.311
 6981SOL    HW221510   4.404   3.932   3.450
 6982SOL     OW21511   3.799   4.069   1.895
 6982SOL    HW121512   3.707   4.041   1.866
 6982SOL    HW221513   3.830   4.146   1.839
 6983SOL     OW21514   3.796   3.890   2.180
 6983SOL    HW121515   3.779   3.973   2.126
 6983SOL    HW221516   3.886   3.853   2.158
 6984SOL     OW21517   4.440   4.289   3.570
 6984SOL    HW121518   4.459   4.354   3.644
 6984SOL    HW221519   4.500   4.209   3.579
 6985SOL     OW21520   4.152   4.148   2.382
 6985SOL    HW121521   4.182   4.076   2.320
 6985SOL    HW221522   4.113   4.108   2.465
 6986SOL     OW21523   4.041   4.271   3.142
 6986SOL    HW121524   4.079   4.212   3.214
 6986SOL    HW221525   4.081   4.245   3.054
 6987SOL     OW21526   3.954   4.352   3.837
 6987SOL    HW121527   3.861   4.350   3.874
 6987SOL    HW221528   3.955   4.313   3.745
 6988SOL     OW21529   3.949   3.999   4.720
 6988SOL    HW121530   3.984   3.982   4.812
 6988SOL    HW221531   3.861   3.954   4.708
 6989SOL     OW21532   3.743   4.092   4.371
 6989SOL    HW121533   3.661   4.135   4.410
 6989SOL    HW221534   3.715   4.019   4.308
 6990SOL     OW21535   4.574   4.522   5.547
 6990SOL    HW121536   4.570   4.598   5.612
 6990SOL    HW221537   4.596   4.558   5.456
 6991SOL     OW21538   4.162   4.116   5.223
 6991SOL    HW121539   4.244   4.060   5.232
 6991SOL    HW221540   4.081   4.058   5.227
 6992SOL     OW21541   3.846   4.367   4.287
 6992SOL    HW121542   3.801   4.279   4.304
 6992SOL    HW221543   3.845   4.421   4.371
 6993SOL     OW21544   3.837   4.461   5.321
 6993SOL    HW121545   3.925   4.448   5.366
 6993SOL    HW221546   3.824   4.558   5.299
 6994SOL     OW21547   4.533   3.728   4.226
 6994SOL    HW121548   4.573   3.819   4.217
 6994SOL    HW221549   4.433   3.736   4.232
 6995SOL     OW21550   4.041   3.975   5.525
 6995SOL    HW121551   4.112   4.046   5.531
 6995SOL    HW221552   3.953   4.014   5.553
 6996SOL     OW21553   4.274   3.920   4.609
 6996SOL    HW121554   4.269   3.915   4.709
 6996SOL    HW221555   4.276   4.016   4.580
 6997SOL     OW21556   3.926   4.009   5.222
 6997SOL    HW121557   3.846   4.069   5.209
 6997SOL    HW221558   3.916   3.960   5.308
 6998SOL     OW21559   4.106   4.424   4.204
 6998SOL    HW121560   4.151   4.334   4.201
 6998SOL    HW221561   4.012   4.413   4.237
 6999SOL     OW21562   4.338   3.846   3.841
 6999SOL    HW121563   4.436   3.824   3.848
 6999SOL    HW221564   4.307   3.829   3.748
 7000SOL     OW21565   4.263   3.788   4.236
 7000SOL    HW121566   4.182   3.789   4.294
 7000SOL    HW221567   4.266   3.871   4.181
 7001SOL     OW21568   4.021   3.759   3.895
 7001SOL    HW121569   4.070   3.843   3.874
 7001SOL    HW221570   4.083   3.694   3.940
 7002SOL     OW21571   4.800   4.407   5.188
 7002SOL    HW121572   4.720   4.346   5.191
 7002SOL    HW221573   4.881   4.354   5.164
 7003SOL     OW21574   3.802   4.280   5.110
 7003SOL    HW121575   3.894   4.279   5.069
 7003SOL    HW221576   3.796   4.354   5.177
 7004SOL     OW21577   4.285   3.946   4.871
 7004SOL    HW121578   4.323   3.862   4.908
 7004SOL    HW221579   4.197   3.965   4.915
 7005SOL     OW21580   4.251   3.980   4.052
 7005SOL    HW121581   4.278   3.921   3.977
 7005SOL    HW221582   4.251   4.075   4.021
 7006SOL     OW21583   4.134   4.537   4.975
 7006SOL    HW121584   4.220   4.549   5.025
 7006SOL    HW221585   4.092   4.450   5.002
 7007SOL     OW21586   4.290   4.261   4.589
 7007SOL    HW121587   4.302   4.327   4.515
 7007SOL    HW221588   4.336   4.295   4.672
 7008SOL     OW21589   4.228   3.774   5.464
 7008SOL    HW121590   4.186   3.717   5.394
 7008SOL    HW221591   4.162   3.843   5.496
 7009SOL     OW21592   4.031   3.937   4.955
 7009SOL    HW121593   4.008   3.974   5.045
 7009SOL    HW221594   4.001   3.842   4.949
 7010SOL     OW21595   4.031   3.787   4.342
 7010SOL    HW121596   4.020   3.881   4.375
 7010SOL    HW221597   4.026   3.724   4.419
 7011SOL     OW21598   4.043   4.534   4.673
 7011SOL    HW121599   4.136   4.570   4.678
 7011SOL    HW221600   4.037   4.449   4.725
 7012SOL     OW21601   4.063   4.233   4.730
 7012SOL    HW121602   4.011   4.150   4.713
 7012SOL    HW221603   4.140   4.238   4.666
 7013SOL     OW21604   3.764   4.268   4.838
 7013SOL    HW121605   3.849   4.235   4.797
 7013SOL    HW221606   3.777   4.283   4.936
 7014SOL     OW21607   3.913   4.244   5.446
 7014SOL    HW121608   3.972   4.204   5.376
 7014SOL    HW221609   3.855   4.315   5.405
 7015SOL     OW21610   4.539   4.296   4.049
 7015SOL    HW121611   4.546   4.207   4.003
 7015SOL    HW221612   4.445   4.330   4.041
 7016SOL     OW21613   4.197   4.224   3.915
 7016SOL    HW121614   4.258   4.304   3.919
 7016SOL    HW221615   4.102   4.255   3.922
 7017SOL     OW21616   3.987   4.050   4.444
 7017SOL    HW121617   3.908   4.101   4.410
 7017SOL    HW221618   3.978   4.035   4.542
 7018SOL     OW21619   4.396   3.927   5.213
 7018SOL    HW121620   4.486   3.911   5.173
 7018SOL    HW221621   4.404   3.932   5.312
 7019SOL     OW21622   3.799   4.069   3.757
 7019SOL    HW121623   3.707   4.041   3.728
 7019SOL    HW221624   3.830   4.146   3.701
 7020SOL     OW21625   3.796   3.890   4.042
 7020SOL    HW121626   3.779   3.973   3.988
 7020SOL    HW221627   3.886   3.853   4.020
 7021SOL     OW21628   4.440   4.289   5.432
 7021SOL    HW121629   4.459   4.354   5.506
 7021SOL    HW221630   4.500   4.209   5.441
 7022SOL     OW21631   4.152   4.148   4.244
 7022SOL    HW121632   4.182   4.076   4.182
 7022SOL    HW221633   4.113   4.108   4.327
 7023SOL     OW21634   4.041   4.271   5.004
 7023SOL    HW121635   4.079   4.212   5.076
 7023SOL    HW221636   4.081   4.245   4.916
 7024SOL     OW21637   3.954   4.352   5.699
 7024SOL    HW121638   3.861   4.350   5.736
 7024SOL    HW221639   3.955   4.313   5.607
 7025SOL     OW21640   3.949   3.999   6.582
 7025SOL    HW121641   3.984   3.982   6.674
 7025SOL    HW221642   3.861   3.954   6.570
 7026SOL     OW21643   3.743   4.092   6.233
 7026SOL    HW121644   3.661   4.135   6.272
 7026SOL    HW221645   3.715   4.019   6.170
 7027SOL     OW21646   4.574   4.522   7.409
 7027SOL    HW121647   4.570   4.598   7.474
 7027SOL    HW221648   4.596   4.558   7.318
 7028SOL     OW21649   4.162   4.116   7.085
 7028SOL    HW121650   4.244   4.060   7.094
 7028SOL    HW221651   4.081   4.058   7.089
 7029SOL     OW21652   3.846   4.367   6.149
 7029SOL    HW121653   3.801   4.279   6.166
 7029SOL    HW221654   3.845   4.421   6.233
 7030SOL     OW21655   3.837   4.461   7.183
 7030SOL    HW121656   3.925   4.448   7.228
 7030SOL    HW221657   3.824   4.558   7.161
 7031SOL     OW21658   4.533   3.728   6.088
 7031SOL    HW121659   4.573   3.819   6.079
 7031SOL    HW221660   4.433   3.736   6.094
 7032SOL     OW21661   4.041   3.975   7.387
 7032SOL    HW121662   4.112   4.046   7.393
 7032SOL    HW221663   3.953   4.014   7.415
 7033SOL     OW21664   4.274   3.920   6.471
 7033SOL    HW121665   4.269   3.915   6.571
 7033SOL    HW221666   4.276   4.016   6.442
 7034SOL     OW21667   3.926   4.009   7.084
 7034SOL    HW121668   3.846   4.069   7.071
 7034SOL    HW221669   3.916   3.960   7.170
 7035SOL     OW21670   4.106   4.424   6.066
 7035SOL    HW121671   4.151   4.334   6.063
 7035SOL    HW221672   4.012   4.413   6.099
 7036SOL     OW21673   4.338   3.846   5.703
 7036SOL    HW121674   4.436   3.824   5.710
 7036SOL    HW221675   4.307   3.829   5.610
 7037SOL     OW21676   4.263   3.788   6.098
 7037SOL    HW121677   4.182   3.789   6.156
 7037SOL    HW221678   4.266   3.871   6.043
 7038SOL     OW21679   4.021   3.759   5.757
 7038SOL    HW121680   4.070   3.843   5.736
 7038SOL    HW221681   4.083   3.694   5.802
 7039SOL     OW21682   4.800   4.407   7.050
 7039SOL    HW121683   4.720   4.346   7.053
 7039SOL    HW221684   4.881   4.354   7.026
 7040SOL     OW21685   3.802   4.280   6.972
 7040SOL    HW121686   3.894   4.279   6.931
 7040SOL    HW221687   3.796   4.354   7.039
 7041SOL     OW21688   4.285   3.946   6.733
 7041SOL    HW121689   4.323   3.862   6.770
 7041SOL    HW221690   4.197   3.965   6.777
 7042SOL     OW21691   4.251   3.980   5.914
 7042SOL    HW121692   4.278   3.921   5.839
 7042SOL    HW221693   4.251   4.075   5.883
 7043SOL     OW21694   4.134   4.537   6.837
 7043SOL    HW121695   4.220   4.549   6.887
 7043SOL    HW221696   4.092   4.450   6.864
 7044SOL     OW21697   4.290   4.261   6.451
 7044SOL    HW121698   4.302   4.327   6.377
 7044SOL    HW221699   4.336   4.295   6.534
 7045SOL     OW21700   4.228   3.774   7.326
 7045SOL    HW121701   4.186   3.717   7.256
 7045SOL    HW221702   4.162   3.843   7.358
 7046SOL     OW21703   4.031   3.937   6.817
 7046SOL    HW121704   4.008   3.974   6.907
 7046SOL    HW221705   4.001   3.842   6.811
 7047SOL     OW21706   4.031   3.787   6.204
 7047SOL    HW121707   4.020   3.881   6.237
 7047SOL    HW221708   4.026   3.724   6.281
 7048SOL     OW21709   4.043   4.534   6.535
 7048SOL    HW121710   4.136   4.570   6.540
 7048SOL    HW221711   4.037   4.449   6.587
 7049SOL     OW21712   4.063   4.233   6.592
 7049SOL    HW121713   4.011   4.150   6.575
 7049SOL    HW221714   4.140   4.238   6.528
 7050SOL     OW21715   3.764   4.268   6.700
 7050SOL    HW121716   3.849   4.235   6.659
 7050SOL    HW221717   3.777   4.283   6.798
 7051SOL     OW21718   3.913   4.244   7.308
 7051SOL    HW121719   3.972   4.204   7.238
 7051SOL    HW221720   3.855   4.315   7.267
 7052SOL     OW21721   4.539   4.296   5.911
 7052SOL    HW121722   4.546   4.207   5.865
 7052SOL    HW221723   4.445   4.330   5.903
 7053SOL     OW21724   4.197   4.224   5.777
 7053SOL    HW121725   4.258   4.304   5.781
 7053SOL    HW221726   4.102   4.255   5.784
 7054SOL     OW21727   3.987   4.050   6.306
 7054SOL    HW121728   3.908   4.101   6.272
 7054SOL    HW221729   3.978   4.035   6.404
 7055SOL     OW21730   4.396   3.927   7.075
 7055SOL    HW121731   4.486   3.911   7.035
 7055SOL    HW221732   4.404   3.932   7.174
 7056SOL     OW21733   3.799   4.069   5.619
 7056SOL    HW121734   3.707   4.041   5.590
 7056SOL    HW221735   3.830   4.146   5.563
 7057SOL     OW21736   3.796   3.890   5.904
 7057SOL    HW121737   3.779   3.973   5.850
 7057SOL    HW221738   3.886   3.853   5.882
 7058SOL     OW21739   4.440   4.289   7.294
 7058SOL    HW121740   4.459   4.354   7.368
 7058SOL    HW221741   4.500   4.209   7.303
 7059SOL     OW21742   4.152   4.148   6.106
 7059SOL    HW121743   4.182   4.076   6.044
 7059SOL    HW221744   4.113   4.108   6.189
 7060SOL     OW21745   4.041   4.271   6.866
 7060SOL    HW121746   4.079   4.212   6.938
 7060SOL    HW221747   4.081   4.245   6.778
 7061SOL     OW21748   3.954   4.352   7.561
 7061SOL    HW121749   3.861   4.350   7.598
 7061SOL    HW221750   3.955   4.313   7.469
 7062SOL     OW21751   3.949   3.999   8.444
 7062SOL    HW121752   3.984   3.982   8.536
 7062SOL    HW221753   3.861   3.954   8.432
 7063SOL     OW21754   3.743   4.092   8.095
 7063SOL    HW121755   3.661   4.135   8.134
 7063SOL    HW221756   3.715   4.019   8.032
 7064SOL     OW21757   4.574   4.522   9.271
 7064SOL    HW121758   4.570   4.598   9.336
 7064SOL    HW221759   4.596   4.558   9.180
 7065SOL     OW21760   4.162   4.116   8.947
 7065SOL    HW121761   4.244   4.060   8.956
 7065SOL    HW221762   4.081   4.058   8.951
 7066SOL     OW21763   3.846   4.367   8.011
 7066SOL    HW121764   3.801   4.279   8.028
 7066SOL    HW221765   3.845   4.421   8.095
 7067SOL     OW21766   3.837   4.461   9.045
 7067SOL    HW121767   3.925   4.448   9.090
 7067SOL    HW221768   3.824   4.558   9.023
 7068SOL     OW21769   4.533   3.728   7.950
 7068SOL    HW121770   4.573   3.819   7.941
 7068SOL    HW221771   4.433   3.736   7.956
 7069SOL     OW21772   4.041   3.975   9.249
 7069SOL    HW121773   4.112   4.046   9.255
 7069SOL    HW221774   3.953   4.014   9.277
 7070SOL     OW21775   4.274   3.920   8.333
 7070SOL    HW121776   4.269   3.915   8.433
 7070SOL    HW221777   4.276   4.016   8.304
 7071SOL     OW21778   3.926   4.009   8.946
 7071SOL    HW121779   3.846   4.069   8.933
 7071SOL    HW221780   3.916   3.960   9.032
 7072SOL     OW21781   4.106   4.424   7.928
 7072SOL    HW121782   4.151   4.334   7.925
 7072SOL    HW221783   4.012   4.413   7.961
 7073SOL     OW21784   4.338   3.846   7.565
 7073SOL    HW121785   4.436   3.824   7.572
 7073SOL    HW221786   4.307   3.829   7.472
 7074SOL     OW21787   4.263   3.788   7.960
 7074SOL    HW121788   4.182   3.789   8.018
 7074SOL    HW221789   4.266   3.871   7.905
 7075SOL     OW21790   4.021   3.759   7.619
 7075SOL    HW121791   4.070   3.843   7.598
 7075SOL    HW221792   4.083   3.694   7.664
 7076SOL     OW21793   4.800   4.407   8.912
 7076SOL    HW121794   4.720   4.346   8.915
 7076SOL    HW221795   4.881   4.354   8.888
 7077SOL     OW21796   3.802   4.280   8.834
 7077SOL    HW121797   3.894   4.279   8.793
 7077SOL    HW221798   3.796   4.354   8.901
 7078SOL     OW21799   4.285   3.946   8.595
 7078SOL    HW121800   4.323   3.862   8.632
 7078SOL    HW221801   4.197   3.965   8.639
 7079SOL     OW21802   4.251   3.980   7.776
 7079SOL    HW121803   4.278   3.921   7.701
 7079SOL    HW221804   4.251   4.075   7.745
 7080SOL     OW21805   4.134   4.537   8.699
 7080SOL    HW121806   4.220   4.549   8.749
 7080SOL    HW221807   4.092   4.450   8.726
 7081SOL     OW21808   4.290   4.261   8.313
 7081SOL    HW121809   4.302   4.327   8.239
 7081SOL    HW221810   4.336   4.295   8.396
 7082SOL     OW21811   4.228   3.774   9.188
 7082SOL    HW121812   4.186   3.717   9.118
 7082SOL    HW221813   4.162   3.843   9.220
 7083SOL     OW21814   4.031   3.937   8.679
 7083SOL    HW121815   4.008   3.974   8.769
 7083SOL    HW221816   4.001   3.842   8.673
 7084SOL     OW21817   4.031   3.787   8.066
 7084SOL    HW121818   4.020   3.881   8.099
 7084SOL    HW221819   4.026   3.724   8.143
 7085SOL     OW21820   4.043   4.534   8.397
 7085SOL    HW121821   4.136   4.570   8.402
 7085SOL    HW221822   4.037   4.449   8.449
 7086SOL     OW21823   4.063   4.233   8.454
 7086SOL    HW121824   4.011   4.150   8.437
 7086SOL    HW221825   4.140   4.238   8.390
 7087SOL     OW21826   3.764   4.268   8.562
 7087SOL    HW121827   3.849   4.235   8.521
 7087SOL    HW221828   3.777   4.283   8.660
 7088SOL     OW21829   3.913   4.244   9.170
 7088SOL    HW121830   3.972   4.204   9.100
 7088SOL    HW221831   3.855   4.315   9.129
 7089SOL     OW21832   4.539   4.296   7.773
 7089SOL    HW121833   4.546   4.207   7.727
 7089SOL    HW221834   4.445   4.330   7.765
 7090SOL     OW21835   4.197   4.224   7.639
 7090SOL    HW121836   4.258   4.304   7.643
 7090SOL    HW221837   4.102   4.255   7.646
 7091SOL     OW21838   3.987   4.050   8.168
 7091SOL    HW121839   3.908   4.101   8.134
 7091SOL    HW221840   3.978   4.035   8.266
 7092SOL     OW21841   4.396   3.927   8.937
 7092SOL    HW121842   4.486   3.911   8.897
 7092SOL    HW221843   4.404   3.932   9.036
 7093SOL     OW21844   3.799   4.069   7.481
 7093SOL    HW121845   3.707   4.041   7.452
 7093SOL    HW221846   3.830   4.146   7.425
 7094SOL     OW21847   3.796   3.890   7.766
 7094SOL    HW121848   3.779   3.973   7.712
 7094SOL    HW221849   3.886   3.853   7.744
 7095SOL     OW21850   4.440   4.289   9.156
 7095SOL    HW121851   4.459   4.354   9.230
 7095SOL    HW221852   4.500   4.209   9.165
 7096SOL     OW21853   4.152   4.148   7.968
 7096SOL    HW121854   4.182   4.076   7.906
 7096SOL    HW221855   4.113   4.108   8.051
 7097SOL     OW21856   4.041   4.271   8.728
 7097SOL    HW121857   4.079   4.212   8.800
 7097SOL    HW221858   4.081   4.245   8.640
 7098SOL     OW21859   3.954   4.352   9.423
 7098SOL    HW121860   3.861   4.350   9.460
 7098SOL    HW221861   3.955   4.313   9.331
 7099SOL     OW21862   3.949   3.999  10.306
 7099SOL    HW121863   3.984   3.982  10.398
 7099SOL    HW221864   3.861   3.954  10.294
 7100SOL     OW21865   3.743   4.092   9.957
 7100SOL    HW121866   3.661   4.135   9.996
 7100SOL    HW221867   3.715   4.019   9.894
 7101SOL     OW21868   4.162   4.116  10.809
 7101SOL    HW121869   4.244   4.060  10.818
 7101SOL    HW221870   4.081   4.058  10.813
 7102SOL     OW21871   3.846   4.367   9.873
 7102SOL    HW121872   3.801   4.279   9.890
 7102SOL    HW221873   3.845   4.421   9.957
 7103SOL     OW21874   3.837   4.461  10.907
 7103SOL    HW121875   3.925   4.448  10.952
 7103SOL    HW221876   3.824   4.558  10.885
 7104SOL     OW21877   4.533   3.728   9.812
 7104SOL    HW121878   4.573   3.819   9.803
 7104SOL    HW221879   4.433   3.736   9.818
 7105SOL     OW21880   4.041   3.975  11.111
 7105SOL    HW121881   4.112   4.046  11.117
 7105SOL    HW221882   3.953   4.014  11.139
 7106SOL     OW21883   4.274   3.920  10.195
 7106SOL    HW121884   4.269   3.915  10.295
 7106SOL    HW221885   4.276   4.016  10.166
 7107SOL     OW21886   3.926   4.009  10.808
 7107SOL    HW121887   3.846   4.069  10.795
 7107SOL    HW221888   3.916   3.960  10.894
 7108SOL     OW21889   4.106   4.424   9.790
 7108SOL    HW121890   4.151   4.334   9.787
 7108SOL    HW221891   4.012   4.413   9.823
 7109SOL     OW21892   4.338   3.846   9.427
 7109SOL    HW121893   4.436   3.824   9.434
 7109SOL    HW221894   4.307   3.829   9.334
 7110SOL     OW21895   4.263   3.788   9.822
 7110SOL    HW121896   4.182   3.789   9.880
 7110SOL    HW221897   4.266   3.871   9.767
 7111SOL     OW21898   4.021   3.759   9.481
 7111SOL    HW121899   4.070   3.843   9.460
 7111SOL    HW221900   4.083   3.694   9.526
 7112SOL     OW21901   4.800   4.407  10.774
 7112SOL    HW121902   4.720   4.346  10.777
 7112SOL    HW221903   4.881   4.354  10.750
 7113SOL     OW21904   3.802   4.280  10.696
 7113SOL    HW121905   3.894   4.279  10.655
 7113SOL    HW221906   3.796   4.354  10.763
 7114SOL     OW21907   4.285   3.946  10.457
 7114SOL    HW121908   4.323   3.862  10.494
 7114SOL    HW221909   4.197   3.965  10.501
 7115SOL     OW21910   4.251   3.980   9.638
 7115SOL    HW121911   4.278   3.921   9.563
 7115SOL    HW221912   4.251   4.075   9.607
 7116SOL     OW21913   4.134   4.537  10.561
 7116SOL    HW121914   4.220   4.549  10.611
 7116SOL    HW221915   4.092   4.450  10.588
 7117SOL     OW21916   4.290   4.261  10.175
 7117SOL    HW121917   4.302   4.327  10.101
 7117SOL    HW221918   4.336   4.295  10.258
 7118SOL     OW21919   4.126   4.475  10.908
 7118SOL    HW121920   4.194   4.530  10.861
 7118SOL    HW221921   4.166   4.387  10.935
 7119SOL     OW21922   4.031   3.937  10.541
 7119SOL    HW121923   4.008   3.974  10.631
 7119SOL    HW221924   4.001   3.842  10.535
 7120SOL     OW21925   4.031   3.787   9.928
 7120SOL    HW121926   4.020   3.881   9.961
 7120SOL    HW221927   4.026   3.724  10.005
 7121SOL     OW21928   4.043   4.534  10.259
 7121SOL    HW121929   4.136   4.570  10.264
 7121SOL    HW221930   4.037   4.449  10.311
 7122SOL     OW21931   4.063   4.233  10.316
 7122SOL    HW121932   4.011   4.150  10.299
 7122SOL    HW221933   4.140   4.238  10.252
 7123SOL     OW21934   3.764   4.268  10.424
 7123SOL    HW121935   3.849   4.235  10.383
 7123SOL    HW221936   3.777   4.283  10.522
 7124SOL     OW21937   4.539   4.296   9.635
 7124SOL    HW121938   4.546   4.207   9.589
 7124SOL    HW221939   4.445   4.330   9.627
 7125SOL     OW21940   4.197   4.224   9.501
 7125SOL    HW121941   4.258   4.304   9.505
 7125SOL    HW221942   4.102   4.255   9.508
 7126SOL     OW21943   3.987   4.050  10.030
 7126SOL    HW121944   3.908   4.101   9.996
 7126SOL    HW221945   3.978   4.035  10.128
 7127SOL     OW21946   4.396   3.927  10.799
 7127SOL    HW121947   4.486   3.911  10.759
 7127SOL    HW221948   4.404   3.932  10.898
 7128SOL     OW21949   3.799   4.069   9.343
 7128SOL    HW121950   3.707   4.041   9.314
 7128SOL    HW221951   3.830   4.146   9.287
 7129SOL     OW21952   3.796   3.890   9.628
 7129SOL    HW121953   3.779   3.973   9.574
 7129SOL    HW221954   3.886   3.853   9.606
 7130SOL     OW21955   4.152   4.148   9.830
 7130SOL    HW121956   4.182   4.076   9.768
 7130SOL    HW221957   4.113   4.108   9.913
 7131SOL     OW21958   4.041   4.271  10.590
 7131SOL    HW121959   4.079   4.212  10.662
 7131SOL    HW221960   4.081   4.245  10.502
   4.50000   4.50000  11.10000
